 Entering Gaussian System, Link 0=/s/ls4/users/knvvv/bin/g16sse/g16
 Input=data/database/M062X--def2-QZVP--G2RC_61.gjf
 Output=data/database/M062X--def2-QZVP--G2RC_61.log
 Initial command:
 /s/ls4/users/knvvv/bin/g16sse/l1.exe "/s/ls4/users/knvvv/bin/scratch/Gau-13746.inp" -scrdir="/s/ls4/users/knvvv/bin/scratch/"
 Entering Link 1 = /s/ls4/users/knvvv/bin/g16sse/l1.exe PID=     13747.
  
 Copyright (c) 1988,1990,1992,1993,1995,1998,2003,2009,2016,
            Gaussian, Inc.  All Rights Reserved.
  
 This is part of the Gaussian(R) 16 program.  It is based on
 the Gaussian(R) 09 system (copyright 2009, Gaussian, Inc.),
 the Gaussian(R) 03 system (copyright 2003, Gaussian, Inc.),
 the Gaussian(R) 98 system (copyright 1998, Gaussian, Inc.),
 the Gaussian(R) 94 system (copyright 1995, Gaussian, Inc.),
 the Gaussian 92(TM) system (copyright 1992, Gaussian, Inc.),
 the Gaussian 90(TM) system (copyright 1990, Gaussian, Inc.),
 the Gaussian 88(TM) system (copyright 1988, Gaussian, Inc.),
 the Gaussian 86(TM) system (copyright 1986, Carnegie Mellon
 University), and the Gaussian 82(TM) system (copyright 1983,
 Carnegie Mellon University). Gaussian is a federally registered
 trademark of Gaussian, Inc.
  
 This software contains proprietary and confidential information,
 including trade secrets, belonging to Gaussian, Inc.
  
 This software is provided under written license and may be
 used, copied, transmitted, or stored only in accord with that
 written license.
  
 The following legend is applicable only to US Government
 contracts under FAR:
  
                    RESTRICTED RIGHTS LEGEND
  
 Use, reproduction and disclosure by the US Government is
 subject to restrictions as set forth in subparagraphs (a)
 and (c) of the Commercial Computer Software - Restricted
 Rights clause in FAR 52.227-19.
  
 Gaussian, Inc.
 340 Quinnipiac St., Bldg. 40, Wallingford CT 06492
  
  
 ---------------------------------------------------------------
 Warning -- This program may not be used in any manner that
 competes with the business of Gaussian, Inc. or will provide
 assistance to any competitor of Gaussian, Inc.  The licensee
 of this program is prohibited from giving any competitor of
 Gaussian, Inc. access to this program.  By using this program,
 the user acknowledges that Gaussian, Inc. is engaged in the
 business of creating and licensing software in the field of
 computational chemistry and represents and warrants to the
 licensee that it is not a competitor of Gaussian, Inc. and that
 it will not use this program in any manner prohibited above.
 ---------------------------------------------------------------
  

 Cite this work as:
 Gaussian 16, Revision A.03,
 M. J. Frisch, G. W. Trucks, H. B. Schlegel, G. E. Scuseria, 
 M. A. Robb, J. R. Cheeseman, G. Scalmani, V. Barone, 
 G. A. Petersson, H. Nakatsuji, X. Li, M. Caricato, A. V. Marenich, 
 J. Bloino, B. G. Janesko, R. Gomperts, B. Mennucci, H. P. Hratchian, 
 J. V. Ortiz, A. F. Izmaylov, J. L. Sonnenberg, D. Williams-Young, 
 F. Ding, F. Lipparini, F. Egidi, J. Goings, B. Peng, A. Petrone, 
 T. Henderson, D. Ranasinghe, V. G. Zakrzewski, J. Gao, N. Rega, 
 G. Zheng, W. Liang, M. Hada, M. Ehara, K. Toyota, R. Fukuda, 
 J. Hasegawa, M. Ishida, T. Nakajima, Y. Honda, O. Kitao, H. Nakai, 
 T. Vreven, K. Throssell, J. A. Montgomery, Jr., J. E. Peralta, 
 F. Ogliaro, M. J. Bearpark, J. J. Heyd, E. N. Brothers, K. N. Kudin, 
 V. N. Staroverov, T. A. Keith, R. Kobayashi, J. Normand, 
 K. Raghavachari, A. P. Rendell, J. C. Burant, S. S. Iyengar, 
 J. Tomasi, M. Cossi, J. M. Millam, M. Klene, C. Adamo, R. Cammi, 
 J. W. Ochterski, R. L. Martin, K. Morokuma, O. Farkas, 
 J. B. Foresman, and D. J. Fox, Gaussian, Inc., Wallingford CT, 2016.
 
 ******************************************
 Gaussian 16:  ES64L-G16RevA.03 25-Dec-2016
                17-Apr-2021 
 ******************************************
 %RWF=temp0_55468,70GB
 %nprocshared=48
 Will use up to   48 processors via shared memory.
 Default route: MaxDisk=80GB
 ----------------------------------------------------------------------
 #P M062X/Def2QZVP Integral=UltraFineGrid SCF=NoSymm Stable=(RExt, Opt)
  IOp(1/33=1)
 ----------------------------------------------------------------------
 1/33=1,38=1,172=1/1;
 2/12=2,17=6,18=5,40=1/2;
 3/5=45,7=101,11=2,25=1,30=1,74=-55,75=-5/1,2,3;
 4/9=2/1;
 5/5=2,38=5/2;
 6/7=2,8=2,9=2,10=2,28=1/1;
 8/6=1,10=90,11=11/1;
 9/8=-3,42=1,46=1/14;
 5/5=2,8=3,17=40,38=5/8(-2);
 6/7=2,8=2,9=2,10=2,28=1/1;
 99/5=1,9=1/99;
 Leave Link    1 at Sat Apr 17 00:23:25 2021, MaxMem=           0 cpu:               8.3 elap:               0.2
 (Enter /s/ls4/users/knvvv/bin/g16sse/l101.exe)
 ONIOM data not found on unit 2.
 ----------------------
 Database calculations.
 ----------------------
 TstMul:  ICh=     0
 TstMul:  Mul=     1
 TstMul:  ICh=     0
 TstMul:  Mul=     1
 Symbolic Z-matrix:
 Charge =  0 Multiplicity = 1
 C                     0.        0.        0. 
 F                     0.76656  -0.76656   0.76656 
 F                    -0.76656   0.76656   0.76656 
 F                    -0.76656  -0.76656  -0.76656 
 F                     0.76656   0.76656  -0.76656 
 
 RdStrC is calling ZToCFu for IStruc=1 NZ=     5.
 PrtBox:  NBox=     1 Levels=  1 BoxLen=    8.00 SMaxX=        2.90
          Shift=            1.448596            1.448596            1.448596
 Box      1 Number                   0 centers from      1 to      5:
 After GenITR:
 ITRead=  0  0  0  0  0
 MicOpt= -1 -1 -1 -1 -1
 ITRead=  0  0  0  0  0
 MicOpt= -1 -1 -1 -1 -1
 NAtoms=      5 NQM=        5 NQMF=       0 NMMI=      0 NMMIF=      0
                NMic=       0 NMicF=      0.
                    Isotopes and Nuclear Properties:
 (Nuclear quadrupole moments (NQMom) in fm**2, nuclear magnetic moments (NMagM)
  in nuclear magnetons)

  Atom         1           2           3           4           5
 IAtWgt=          12          19          19          19          19
 AtmWgt=  12.0000000  18.9984033  18.9984033  18.9984033  18.9984033
 NucSpn=           0           1           1           1           1
 AtZEff=  -0.0000000  -0.0000000  -0.0000000  -0.0000000  -0.0000000
 NQMom=    0.0000000   0.0000000   0.0000000   0.0000000   0.0000000
 NMagM=    0.0000000   2.6288670   2.6288670   2.6288670   2.6288670
 AtZNuc=   6.0000000   9.0000000   9.0000000   9.0000000   9.0000000
 No MM parameters found.
 Leave Link  101 at Sat Apr 17 00:23:25 2021, MaxMem=   104857600 cpu:               6.6 elap:               0.2
 (Enter /s/ls4/users/knvvv/bin/g16sse/l202.exe)
                          Input orientation:                          
 ---------------------------------------------------------------------
 Center     Atomic      Atomic             Coordinates (Angstroms)
 Number     Number       Type             X           Y           Z
 ---------------------------------------------------------------------
      1          6           0        0.000000    0.000000    0.000000
      2          9           0        0.766564   -0.766564    0.766564
      3          9           0       -0.766564    0.766564    0.766564
      4          9           0       -0.766564   -0.766564   -0.766564
      5          9           0        0.766564    0.766564   -0.766564
 ---------------------------------------------------------------------
                    Distance matrix (angstroms):
                    1          2          3          4          5
     1  C    0.000000
     2  F    1.327728   0.000000
     3  F    1.327728   2.168171   0.000000
     4  F    1.327728   2.168171   2.168171   0.000000
     5  F    1.327728   2.168171   2.168171   2.168171   0.000000
 Stoichiometry    CF4
 Framework group  TD[O(C),4C3(F)]
 Deg. of freedom     1
 Full point group                 TD      NOp  24
 Largest Abelian subgroup         D2      NOp   4
 Largest concise Abelian subgroup D2      NOp   4
                         Standard orientation:                         
 ---------------------------------------------------------------------
 Center     Atomic      Atomic             Coordinates (Angstroms)
 Number     Number       Type             X           Y           Z
 ---------------------------------------------------------------------
      1          6           0        0.000000    0.000000    0.000000
      2          9           0        0.766564    0.766564    0.766564
      3          9           0       -0.766564   -0.766564    0.766564
      4          9           0        0.766564   -0.766564   -0.766564
      5          9           0       -0.766564    0.766564   -0.766564
 ---------------------------------------------------------------------
 Rotational constants (GHZ):           5.6586549           5.6586549           5.6586549
 Leave Link  202 at Sat Apr 17 00:23:25 2021, MaxMem=   104857600 cpu:              16.9 elap:               0.4
 (Enter /s/ls4/users/knvvv/bin/g16sse/l301.exe)
 Standard basis: def2QZVP (5D, 7F)
 Ernie: Thresh=  0.10000D-02 Tol=  0.10000D-05 Strict=F.
 There are    96 symmetry adapted cartesian basis functions of A   symmetry.
 There are    88 symmetry adapted cartesian basis functions of B1  symmetry.
 There are    88 symmetry adapted cartesian basis functions of B2  symmetry.
 There are    88 symmetry adapted cartesian basis functions of B3  symmetry.
 There are    75 symmetry adapted basis functions of A   symmetry.
 There are    70 symmetry adapted basis functions of B1  symmetry.
 There are    70 symmetry adapted basis functions of B2  symmetry.
 There are    70 symmetry adapted basis functions of B3  symmetry.
   285 basis functions,   460 primitive gaussians,   360 cartesian basis functions
    21 alpha electrons       21 beta electrons
       nuclear repulsion energy       204.7048180909 Hartrees.
 IExCor= 4336 DFT=T Ex+Corr=M062X ExCW=0 ScaHFX=  0.540000
 ScaDFX=  1.000000  1.000000  1.000000  1.000000 ScalE2=  1.000000  1.000000
 IRadAn=      5 IRanWt=     -1 IRanGd=            0 ICorTp=0 IEmpDi=  4
 NAtoms=    5 NActive=    5 NUniq=    2 SFac= 4.00D+00 NAtFMM=   60 NAOKFM=F Big=F
 Integral buffers will be    131072 words long.
 Raffenetti 2 integral format.
 Two-electron integral symmetry is turned on.
 Leave Link  301 at Sat Apr 17 00:23:26 2021, MaxMem=   104857600 cpu:               5.9 elap:               0.1
 (Enter /s/ls4/users/knvvv/bin/g16sse/l302.exe)
 NPDir=0 NMtPBC=     1 NCelOv=     1 NCel=       1 NClECP=     1 NCelD=      1
         NCelK=      1 NCelE2=     1 NClLst=     1 CellRange=     0.0.
 One-electron integrals computed using PRISM.
 One-electron integral symmetry used in STVInt
 PrsmSu:  requested number of processors reduced to:   4 ShMem   1 Linda.
 PrsmSu:  requested number of processors reduced to:  21 ShMem   1 Linda.
  24 Symmetry operations used in ECPInt.
 ECPInt:  NShTT=    3655 NPrTT=   10780 LenC2=    3550 LenP2D=    8448.
 LDataN:  DoStor=T MaxTD1= 8 Len=  415
 Number of processors reduced to  24 by ecpmxn.
 NBasis=   285 RedAO= T EigKep=  1.57D-04  NBF=    75    70    70    70
 NBsUse=   285 1.00D-06 EigRej= -1.00D+00 NBFU=    75    70    70    70
 Precomputing XC quadrature grid using
 IXCGrd= 4 IRadAn=           5 IRanWt=          -1 IRanGd=           0 AccXCQ= 0.00D+00.
 Generated NRdTot=       0 NPtTot=           0 NUsed=           0 NTot=          32
 NSgBfM=   360   360   360   360   360 MxSgAt=     5 MxSgA2=     5.
 Leave Link  302 at Sat Apr 17 00:25:00 2021, MaxMem=   104857600 cpu:            4454.5 elap:              94.8
 (Enter /s/ls4/users/knvvv/bin/g16sse/l303.exe)
 DipDrv:  MaxL=1.
 Leave Link  303 at Sat Apr 17 00:25:03 2021, MaxMem=   104857600 cpu:             120.3 elap:               2.6
 (Enter /s/ls4/users/knvvv/bin/g16sse/l401.exe)
 SCF N**3 symmetry information disabled.
 ExpMin= 7.60D-02 ExpMax= 1.33D+05 ExpMxC= 1.27D+03 IAcc=3 IRadAn=         5 AccDes= 0.00D+00
 Harris functional with IExCor= 1009 and IRadAn=       5 diagonalized for initial guess.
 HarFok:  IExCor= 1009 AccDes= 0.00D+00 IRadAn=         5 IDoV= 1 UseB2=F ITyADJ=14
 ICtDFT=  3500011 ScaDFX=  1.000000  1.000000  1.000000  1.000000
 FoFCou: FMM=F IPFlag=           0 FMFlag=      100000 FMFlg1=           0
         NFxFlg=           0 DoJE=T BraDBF=F KetDBF=T FulRan=T
         wScrn=  0.000000 ICntrl=       500 IOpCl=  0 I1Cent=   200000004 NGrid=           0
         NMat0=    1 NMatS0=      1 NMatT0=    0 NMatD0=    1 NMtDS0=    0 NMtDT0=    0
 Petite list used in FoFCou.
 CoulSu:  requested number of processors reduced to:  20 ShMem   1 Linda.
 CoulSu:  requested number of processors reduced to:  20 ShMem   1 Linda.
 CoulSu:  requested number of processors reduced to:  21 ShMem   1 Linda.
 CoulSu:  requested number of processors reduced to:  21 ShMem   1 Linda.
 Harris En= -437.302986426425    
 JPrj=0 DoOrth=F DoCkMO=F.
 Initial guess orbital symmetries:
       Occupied  (A1) (T2) (T2) (T2) (A1) (A1) (T2) (T2) (T2) (A1)
                 (T2) (T2) (T2) (E) (E) (T2) (T2) (T2) (T1) (T1)
                 (T1)
       Virtual   (A1) (T2) (T2) (T2) (T2) (T2) (T2) (A1) (T2) (T2)
                 (T2) (E) (E) (A1) (T1) (T1) (T1) (T2) (T2) (T2)
                 (T2) (T2) (T2) (E) (E) (T2) (T2) (T2) (A1) (T2)
                 (T2) (T2) (T1) (T1) (T1) (E) (E) (A1) (E) (E)
                 (T2) (T2) (T2) (T1) (T1) (T1) (T2) (T2) (T2) (A1)
                 (T1) (T1) (T1) (T2) (T2) (T2) (E) (E) (T2) (T2)
                 (T2) (T2) (T2) (T2) (A1) (T1) (T1) (T1) (A1) (T2)
                 (T2) (T2) (T2) (T2) (T2) (E) (E) (T2) (T2) (T2)
                 (E) (E) (T1) (T1) (T1) (T2) (T2) (T2) (T2) (T2)
                 (T2) (A2) (T1) (T1) (T1) (A1) (T2) (T2) (T2) (A1)
                 (T1) (T1) (T1) (T2) (T2) (T2) (E) (E) (A1) (E)
                 (E) (T1) (T1) (T1) (T2) (T2) (T2) (T2) (T2) (T2)
                 (T1) (T1) (T1) (E) (E) (A1) (T2) (T2) (T2) (A1)
                 (T1) (T1) (T1) (T2) (T2) (T2) (E) (E) (T2) (T2)
                 (T2) (A1) (T2) (T2) (T2) (T1) (T1) (T1) (E) (E)
                 (T2) (T2) (T2) (T2) (T2) (T2) (E) (E) (T1) (T1)
                 (T1) (A1) (A1) (T2) (T2) (T2) (A2) (T2) (T2) (T2)
                 (T1) (T1) (T1) (E) (E) (T2) (T2) (T2) (T1) (T1)
                 (T1) (A1) (T2) (T2) (T2) (T1) (T1) (T1) (E) (E)
                 (T2) (T2) (T2) (T2) (T2) (T2) (E) (E) (T1) (T1)
                 (T1) (A1) (A2) (T1) (T1) (T1) (T2) (T2) (T2) (A1)
                 (T2) (T2) (T2) (T1) (T1) (T1) (E) (E) (T2) (T2)
                 (T2) (A1) (E) (E) (T1) (T1) (T1) (T2) (T2) (T2)
                 (E) (E) (T1) (T1) (T1) (T2) (T2) (T2) (T2) (T2)
                 (T2) (T1) (T1) (T1) (E) (E) (A1) (T2) (T2) (T2)
                 (T2) (T2) (T2) (A1) (A1) (T2) (T2) (T2) (A1) (A1)
                 (T2) (T2) (T2) (A1)
 The electronic state of the initial guess is 1-A1.
 Leave Link  401 at Sat Apr 17 00:25:47 2021, MaxMem=   104857600 cpu:            2074.4 elap:              44.3
 (Enter /s/ls4/users/knvvv/bin/g16sse/l502.exe)
 Integral symmetry usage will be decided dynamically.
 Closed shell SCF:
 Using DIIS extrapolation, IDIIS=  1040.
 NGot=   104857600 LenX=   104574373 LenY=   104444332
 Requested convergence on RMS density matrix=1.00D-08 within 128 cycles.
 Requested convergence on MAX density matrix=1.00D-06.
 Requested convergence on             energy=1.00D-06.
 No special actions if energy rises.
 Fock matrices will be formed incrementally for  20 cycles.
 Integral accuracy reduced to 1.0D-05 until final iterations.

 Cycle   1  Pass 0  IDiag  1:
 FoFJK:  IHMeth= 1 ICntrl=       0 DoSepK=F KAlg= 0 I1Cent=           0 FoldK=F
 IRaf= 950000000 NMat=       1 IRICut=       1 DoRegI=T DoRafI=F ISym2E= 1 IDoP0=0 IntGTp=1.
 FoFCou: FMM=F IPFlag=           0 FMFlag=      100000 FMFlg1=           0
         NFxFlg=           0 DoJE=F BraDBF=F KetDBF=F FulRan=T
         wScrn=  0.000000 ICntrl=         0 IOpCl=  0 I1Cent=           0 NGrid=           0
         NMat0=    1 NMatS0=      1 NMatT0=    0 NMatD0=    1 NMtDS0=    0 NMtDT0=    0
 Petite list used in FoFCou.
 CoulSu:  requested number of processors reduced to:  21 ShMem   1 Linda.
 E= -437.494378913855    
 DIIS: error= 3.37D-02 at cycle   1 NSaved=   1.
 NSaved= 1 IEnMin= 1 EnMin= -437.494378913855     IErMin= 1 ErrMin= 3.37D-02
 ErrMax= 3.37D-02  0.00D+00 EMaxC= 1.00D-01 BMatC= 2.60D-01 BMatP= 2.60D-01
 IDIUse=3 WtCom= 6.63D-01 WtEn= 3.37D-01
 Coeff-Com:  0.100D+01
 Coeff-En:   0.100D+01
 Coeff:      0.100D+01
 Gap=     0.629 Goal=   None    Shift=    0.000
 DSYEVD-2 returned Info=         571 IAlg= 4 N=   285 NDim=   285 NE2=      366470 trying  DSYEV.
 GapD=    0.629 DampG=2.000 DampE=0.500 DampFc=1.0000 IDamp=-1.
 RMSDP=9.88D-04 MaxDP=4.79D-02              OVMax= 9.42D-02

 Cycle   2  Pass 0  IDiag  1:
 RMSU=  9.87D-04    CP:  9.94D-01
 CoulSu:  requested number of processors reduced to:  21 ShMem   1 Linda.
 E= -437.487075836316     Delta-E=        0.007303077539 Rises=F Damp=F
 DIIS: error= 2.89D-02 at cycle   2 NSaved=   2.
 NSaved= 2 IEnMin= 1 EnMin= -437.494378913855     IErMin= 2 ErrMin= 2.89D-02
 ErrMax= 2.89D-02  0.00D+00 EMaxC= 1.00D-01 BMatC= 1.61D-01 BMatP= 2.60D-01
 IDIUse=3 WtCom= 7.11D-01 WtEn= 2.89D-01
 Coeff-Com:  0.426D+00 0.574D+00
 Coeff-En:   0.523D+00 0.477D+00
 Coeff:      0.454D+00 0.546D+00
 Gap=     0.675 Goal=   None    Shift=    0.000
 RMSDP=4.96D-04 MaxDP=2.85D-02 DE= 7.30D-03 OVMax= 6.43D-02

 Cycle   3  Pass 0  IDiag  1:
 RMSU=  2.53D-04    CP:  1.00D+00  5.71D-01
 CoulSu:  requested number of processors reduced to:  21 ShMem   1 Linda.
 E= -437.571090773377     Delta-E=       -0.084014937061 Rises=F Damp=F
 DIIS: error= 6.19D-03 at cycle   3 NSaved=   3.
 NSaved= 3 IEnMin= 3 EnMin= -437.571090773377     IErMin= 3 ErrMin= 6.19D-03
 ErrMax= 6.19D-03  0.00D+00 EMaxC= 1.00D-01 BMatC= 5.65D-03 BMatP= 1.61D-01
 IDIUse=3 WtCom= 9.38D-01 WtEn= 6.19D-02
 Coeff-Com: -0.324D-02 0.154D+00 0.849D+00
 Coeff-En:   0.000D+00 0.000D+00 0.100D+01
 Coeff:     -0.304D-02 0.145D+00 0.858D+00
 Gap=     0.664 Goal=   None    Shift=    0.000
 DSYEVD-2 returned Info=         571 IAlg= 4 N=   285 NDim=   285 NE2=      366470 trying  DSYEV.
 RMSDP=8.40D-05 MaxDP=5.67D-03 DE=-8.40D-02 OVMax= 9.25D-03

 Cycle   4  Pass 0  IDiag  1:
 RMSU=  4.88D-05    CP:  9.99D-01  6.37D-01  9.38D-01
 CoulSu:  requested number of processors reduced to:  21 ShMem   1 Linda.
 E= -437.574033919819     Delta-E=       -0.002943146442 Rises=F Damp=F
 DIIS: error= 5.37D-04 at cycle   4 NSaved=   4.
 NSaved= 4 IEnMin= 4 EnMin= -437.574033919819     IErMin= 4 ErrMin= 5.37D-04
 ErrMax= 5.37D-04  0.00D+00 EMaxC= 1.00D-01 BMatC= 5.17D-05 BMatP= 5.65D-03
 IDIUse=3 WtCom= 9.95D-01 WtEn= 5.37D-03
 Coeff-Com: -0.371D-02 0.299D-01 0.224D+00 0.750D+00
 Coeff-En:   0.000D+00 0.000D+00 0.000D+00 0.100D+01
 Coeff:     -0.369D-02 0.298D-01 0.223D+00 0.751D+00
 Gap=     0.666 Goal=   None    Shift=    0.000
 RMSDP=1.06D-05 MaxDP=4.99D-04 DE=-2.94D-03 OVMax= 8.68D-04

 Cycle   5  Pass 0  IDiag  1:
 RMSU=  8.43D-06    CP:  9.99D-01  6.34D-01  9.58D-01  1.06D+00
 CoulSu:  requested number of processors reduced to:  21 ShMem   1 Linda.
 E= -437.574057229413     Delta-E=       -0.000023309594 Rises=F Damp=F
 DIIS: error= 1.00D-04 at cycle   5 NSaved=   5.
 NSaved= 5 IEnMin= 5 EnMin= -437.574057229413     IErMin= 5 ErrMin= 1.00D-04
 ErrMax= 1.00D-04  0.00D+00 EMaxC= 1.00D-01 BMatC= 1.52D-06 BMatP= 5.17D-05
 IDIUse=3 WtCom= 9.99D-01 WtEn= 1.00D-03
 Coeff-Com: -0.231D-03-0.675D-02-0.312D-01 0.113D+00 0.925D+00
 Coeff-En:   0.000D+00 0.000D+00 0.000D+00 0.000D+00 0.100D+01
 Coeff:     -0.231D-03-0.675D-02-0.312D-01 0.113D+00 0.925D+00
 Gap=     0.666 Goal=   None    Shift=    0.000
 RMSDP=3.31D-06 MaxDP=2.87D-04 DE=-2.33D-05 OVMax= 2.73D-04

 Initial convergence to 1.0D-05 achieved.  Increase integral accuracy.
 Cycle   6  Pass 1  IDiag  1:
 CoulSu:  requested number of processors reduced to:  21 ShMem   1 Linda.
 E= -437.574072202706     Delta-E=       -0.000014973293 Rises=F Damp=F
 DIIS: error= 6.59D-05 at cycle   1 NSaved=   1.
 NSaved= 1 IEnMin= 1 EnMin= -437.574072202706     IErMin= 1 ErrMin= 6.59D-05
 ErrMax= 6.59D-05  0.00D+00 EMaxC= 1.00D-01 BMatC= 5.89D-07 BMatP= 5.89D-07
 IDIUse=1 WtCom= 1.00D+00 WtEn= 0.00D+00
 Coeff-Com:  0.100D+01
 Coeff:      0.100D+01
 Gap=     0.666 Goal=   None    Shift=    0.000
 DSYEVD-2 returned Info=         428 IAlg= 4 N=   285 NDim=   285 NE2=      366470 trying  DSYEV.
 RMSDP=3.31D-06 MaxDP=2.87D-04 DE=-1.50D-05 OVMax= 8.59D-05

 Cycle   7  Pass 1  IDiag  1:
 RMSU=  9.80D-06    CP:  1.00D+00
 CoulSu:  requested number of processors reduced to:  21 ShMem   1 Linda.
 E= -437.574072448757     Delta-E=       -0.000000246051 Rises=F Damp=F
 DIIS: error= 1.06D-05 at cycle   2 NSaved=   2.
 NSaved= 2 IEnMin= 2 EnMin= -437.574072448757     IErMin= 2 ErrMin= 1.06D-05
 ErrMax= 1.06D-05  0.00D+00 EMaxC= 1.00D-01 BMatC= 1.83D-08 BMatP= 5.89D-07
 IDIUse=1 WtCom= 1.00D+00 WtEn= 0.00D+00
 Coeff-Com:  0.157D-01 0.984D+00
 Coeff:      0.157D-01 0.984D+00
 Gap=     0.666 Goal=   None    Shift=    0.000
 RMSDP=5.81D-07 MaxDP=3.35D-05 DE=-2.46D-07 OVMax= 2.59D-05

 Cycle   8  Pass 1  IDiag  1:
 RMSU=  3.54D-07    CP:  1.00D+00  1.05D+00
 CoulSu:  requested number of processors reduced to:  21 ShMem   1 Linda.
 E= -437.574072457795     Delta-E=       -0.000000009038 Rises=F Damp=F
 DIIS: error= 6.16D-06 at cycle   3 NSaved=   3.
 NSaved= 3 IEnMin= 3 EnMin= -437.574072457795     IErMin= 3 ErrMin= 6.16D-06
 ErrMax= 6.16D-06  0.00D+00 EMaxC= 1.00D-01 BMatC= 5.41D-09 BMatP= 1.83D-08
 IDIUse=1 WtCom= 1.00D+00 WtEn= 0.00D+00
 Coeff-Com: -0.182D-01 0.345D+00 0.673D+00
 Coeff:     -0.182D-01 0.345D+00 0.673D+00
 Gap=     0.666 Goal=   None    Shift=    0.000
 RMSDP=1.14D-07 MaxDP=5.18D-06 DE=-9.04D-09 OVMax= 1.11D-05

 Cycle   9  Pass 1  IDiag  1:
 RMSU=  9.31D-08    CP:  1.00D+00  1.05D+00  8.59D-01
 CoulSu:  requested number of processors reduced to:  21 ShMem   1 Linda.
 E= -437.574072461165     Delta-E=       -0.000000003370 Rises=F Damp=F
 DIIS: error= 6.71D-07 at cycle   4 NSaved=   4.
 NSaved= 4 IEnMin= 4 EnMin= -437.574072461165     IErMin= 4 ErrMin= 6.71D-07
 ErrMax= 6.71D-07  0.00D+00 EMaxC= 1.00D-01 BMatC= 8.33D-11 BMatP= 5.41D-09
 IDIUse=1 WtCom= 1.00D+00 WtEn= 0.00D+00
 Coeff-Com: -0.999D-03-0.163D-02 0.447D-01 0.958D+00
 Coeff:     -0.999D-03-0.163D-02 0.447D-01 0.958D+00
 Gap=     0.666 Goal=   None    Shift=    0.000
 RMSDP=2.35D-08 MaxDP=1.36D-06 DE=-3.37D-09 OVMax= 2.13D-06

 Cycle  10  Pass 1  IDiag  1:
 RMSU=  1.77D-08    CP:  1.00D+00  1.05D+00  8.92D-01  1.06D+00
 CoulSu:  requested number of processors reduced to:  21 ShMem   1 Linda.
 E= -437.574072461201     Delta-E=       -0.000000000036 Rises=F Damp=F
 DIIS: error= 5.97D-07 at cycle   5 NSaved=   5.
 NSaved= 5 IEnMin= 5 EnMin= -437.574072461201     IErMin= 5 ErrMin= 5.97D-07
 ErrMax= 5.97D-07  0.00D+00 EMaxC= 1.00D-01 BMatC= 5.66D-11 BMatP= 8.33D-11
 IDIUse=1 WtCom= 1.00D+00 WtEn= 0.00D+00
 Coeff-Com:  0.101D-02-0.402D-01-0.452D-01 0.508D+00 0.577D+00
 Coeff:      0.101D-02-0.402D-01-0.452D-01 0.508D+00 0.577D+00
 Gap=     0.666 Goal=   None    Shift=    0.000
 RMSDP=8.26D-09 MaxDP=3.96D-07 DE=-3.56D-11 OVMax= 1.01D-06

 SCF Done:  E(RM062X) =  -437.574072461     A.U. after   10 cycles
            NFock= 10  Conv=0.83D-08     -V/T= 2.0030
 KE= 4.362542090207D+02 PE=-1.450654179852D+03 EE= 3.721210802790D+02
 Leave Link  502 at Sat Apr 17 00:28:39 2021, MaxMem=   104857600 cpu:            7927.6 elap:             171.6
 (Enter /s/ls4/users/knvvv/bin/g16sse/l601.exe)
 Copying SCF densities to generalized density rwf, IOpCl= 0 IROHF=0.

 **********************************************************************

            Population analysis using the SCF density.

 **********************************************************************

 Orbital symmetries:
       Occupied  (T2) (T2) (T2) (A1) (A1) (A1) (T2) (T2) (T2) (A1)
                 (T2) (T2) (T2) (E) (E) (T2) (T2) (T2) (T1) (T1)
                 (T1)
       Virtual   (A1) (T2) (T2) (T2) (T2) (T2) (T2) (A1) (T2) (T2)
                 (T2) (E) (E) (A1) (T1) (T1) (T1) (T2) (T2) (T2)
                 (T2) (T2) (T2) (T2) (T2) (T2) (E) (E) (A1) (T2)
                 (T2) (T2) (T1) (T1) (T1) (E) (E) (A1) (E) (E)
                 (T2) (T2) (T2) (T1) (T1) (T1) (T2) (T2) (T2) (A1)
                 (T2) (T2) (T2) (T1) (T1) (T1) (E) (E) (T2) (T2)
                 (T2) (T2) (T2) (T2) (A1) (T1) (T1) (T1) (A1) (T2)
                 (T2) (T2) (T2) (T2) (T2) (E) (E) (T2) (T2) (T2)
                 (E) (E) (T1) (T1) (T1) (T2) (T2) (T2) (T2) (T2)
                 (T2) (T1) (T1) (T1) (A2) (A1) (T2) (T2) (T2) (A1)
                 (T1) (T1) (T1) (T2) (T2) (T2) (E) (E) (A1) (E)
                 (E) (T1) (T1) (T1) (T2) (T2) (T2) (T2) (T2) (T2)
                 (T1) (T1) (T1) (E) (E) (A1) (T2) (T2) (T2) (A1)
                 (T1) (T1) (T1) (T2) (T2) (T2) (E) (E) (A1) (T2)
                 (T2) (T2) (T1) (T1) (T1) (T2) (T2) (T2) (E) (E)
                 (T2) (T2) (T2) (T2) (T2) (T2) (E) (E) (T1) (T1)
                 (T1) (A1) (A1) (T2) (T2) (T2) (A2) (T2) (T2) (T2)
                 (T1) (T1) (T1) (E) (E) (T1) (T1) (T1) (T2) (T2)
                 (T2) (A1) (T2) (T2) (T2) (T1) (T1) (T1) (E) (E)
                 (T2) (T2) (T2) (T2) (T2) (T2) (E) (E) (T1) (T1)
                 (T1) (A1) (A2) (T1) (T1) (T1) (T2) (T2) (T2) (A1)
                 (T2) (T2) (T2) (T1) (T1) (T1) (E) (E) (T2) (T2)
                 (T2) (A1) (E) (E) (T1) (T1) (T1) (T2) (T2) (T2)
                 (E) (E) (T1) (T1) (T1) (T2) (T2) (T2) (T2) (T2)
                 (T2) (T1) (T1) (T1) (E) (E) (A1) (T2) (T2) (T2)
                 (T2) (T2) (T2) (A1) (A1) (T2) (T2) (T2) (A1) (A1)
                 (T2) (T2) (T2) (A1)
 The electronic state is 1-A1.
 Alpha  occ. eigenvalues --  -25.31442 -25.31442 -25.31442 -25.31440 -10.90239
 Alpha  occ. eigenvalues --   -1.53332  -1.41681  -1.41681  -1.41681  -0.85382
 Alpha  occ. eigenvalues --   -0.75097  -0.75097  -0.75097  -0.62329  -0.62329
 Alpha  occ. eigenvalues --   -0.58641  -0.58641  -0.58641  -0.55124  -0.55124
 Alpha  occ. eigenvalues --   -0.55124
 Alpha virt. eigenvalues --    0.11437   0.13881   0.13881   0.13881   0.22477
 Alpha virt. eigenvalues --    0.22477   0.22477   0.27858   0.32113   0.32113
 Alpha virt. eigenvalues --    0.32113   0.34945   0.34945   0.42306   0.47851
 Alpha virt. eigenvalues --    0.47851   0.47851   0.57793   0.57793   0.57793
 Alpha virt. eigenvalues --    0.66902   0.66902   0.66902   0.74602   0.74602
 Alpha virt. eigenvalues --    0.74602   0.76164   0.76164   0.83696   1.08668
 Alpha virt. eigenvalues --    1.08668   1.08668   1.41578   1.41578   1.41578
 Alpha virt. eigenvalues --    1.45768   1.45768   1.57039   1.58949   1.58949
 Alpha virt. eigenvalues --    1.63952   1.63952   1.63952   1.73316   1.73316
 Alpha virt. eigenvalues --    1.73316   1.73948   1.73948   1.73948   1.81560
 Alpha virt. eigenvalues --    1.86553   1.86553   1.86553   1.86976   1.86976
 Alpha virt. eigenvalues --    1.86976   1.88600   1.88600   2.05748   2.05748
 Alpha virt. eigenvalues --    2.05748   2.09223   2.09223   2.09223   2.40943
 Alpha virt. eigenvalues --    2.56564   2.56564   2.56564   2.61149   2.65104
 Alpha virt. eigenvalues --    2.65104   2.65104   2.89232   2.89232   2.89232
 Alpha virt. eigenvalues --    2.89530   2.89530   3.42395   3.42395   3.42395
 Alpha virt. eigenvalues --    3.92951   3.92951   3.96127   3.96127   3.96127
 Alpha virt. eigenvalues --    4.10225   4.10225   4.10225   4.13542   4.13542
 Alpha virt. eigenvalues --    4.13542   4.14194   4.14194   4.14194   4.14958
 Alpha virt. eigenvalues --    4.21520   4.56819   4.56819   4.56819   4.60169
 Alpha virt. eigenvalues --    4.84780   4.84780   4.84780   4.93586   4.93586
 Alpha virt. eigenvalues --    4.93586   4.96816   4.96816   4.97546   5.12598
 Alpha virt. eigenvalues --    5.12598   5.25064   5.25064   5.25064   5.29067
 Alpha virt. eigenvalues --    5.29067   5.29067   5.56154   5.56154   5.56154
 Alpha virt. eigenvalues --    5.58633   5.58633   5.58633   5.60525   5.60525
 Alpha virt. eigenvalues --    5.73788   5.78742   5.78742   5.78742   5.88739
 Alpha virt. eigenvalues --    5.94292   5.94292   5.94292   5.94693   5.94693
 Alpha virt. eigenvalues --    5.94693   6.03524   6.03524   6.15867   6.33641
 Alpha virt. eigenvalues --    6.33641   6.33641   6.46305   6.46305   6.46305
 Alpha virt. eigenvalues --    6.48104   6.48104   6.48104   6.81486   6.81486
 Alpha virt. eigenvalues --    7.12424   7.12424   7.12424   7.16979   7.16979
 Alpha virt. eigenvalues --    7.16979   7.27015   7.27015   7.33673   7.33673
 Alpha virt. eigenvalues --    7.33673   7.71585   9.12762   9.22221   9.22221
 Alpha virt. eigenvalues --    9.22221  11.23593  11.25269  11.25269  11.25269
 Alpha virt. eigenvalues --   11.26584  11.26584  11.26584  11.27351  11.27351
 Alpha virt. eigenvalues --   11.27358  11.27358  11.27358  11.27901  11.27901
 Alpha virt. eigenvalues --   11.27901  11.37259  11.44338  11.44338  11.44338
 Alpha virt. eigenvalues --   11.50364  11.50364  11.50364  11.55769  11.55769
 Alpha virt. eigenvalues --   11.76213  11.76213  11.76213  12.09244  12.09244
 Alpha virt. eigenvalues --   12.09244  12.11024  12.11024  12.20394  12.20394
 Alpha virt. eigenvalues --   12.20394  12.47803  14.37398  14.38141  14.38141
 Alpha virt. eigenvalues --   14.38141  14.38554  14.38554  14.38554  14.45889
 Alpha virt. eigenvalues --   14.61698  14.61698  14.61698  14.61929  14.61929
 Alpha virt. eigenvalues --   14.61929  14.70332  14.70332  14.92137  14.92137
 Alpha virt. eigenvalues --   14.92137  15.28041  15.37104  15.37104  15.40434
 Alpha virt. eigenvalues --   15.40434  15.40434  15.41018  15.41018  15.41018
 Alpha virt. eigenvalues --   15.72096  15.72096  15.74083  15.74083  15.74083
 Alpha virt. eigenvalues --   15.91221  15.91221  15.91221  16.02845  16.02845
 Alpha virt. eigenvalues --   16.02845  16.12937  16.12937  16.12937  16.24515
 Alpha virt. eigenvalues --   16.24515  16.53575  16.55225  16.55225  16.55225
 Alpha virt. eigenvalues --   16.63652  16.63652  16.63652  16.68500  28.05433
 Alpha virt. eigenvalues --   54.52469  54.52469  54.52469  55.15624 145.31612
 Alpha virt. eigenvalues --  283.46096 283.46096 283.46096 284.26489
          Condensed to atoms (all electrons):
               1          2          3          4          5
     1  C    3.610819   0.400323   0.400323   0.400323   0.400323
     2  F    0.400323   8.963434  -0.055595  -0.055595  -0.055595
     3  F    0.400323  -0.055595   8.963434  -0.055595  -0.055595
     4  F    0.400323  -0.055595  -0.055595   8.963434  -0.055595
     5  F    0.400323  -0.055595  -0.055595  -0.055595   8.963434
 Mulliken charges:
               1
     1  C    0.787890
     2  F   -0.196973
     3  F   -0.196973
     4  F   -0.196973
     5  F   -0.196973
 Sum of Mulliken charges =   0.00000
 Mulliken charges with hydrogens summed into heavy atoms:
               1
     1  C    0.787890
     2  F   -0.196973
     3  F   -0.196973
     4  F   -0.196973
     5  F   -0.196973
 Electronic spatial extent (au):  <R**2>=            283.6314
 Charge=              0.0000 electrons
 Dipole moment (field-independent basis, Debye):
    X=             -0.0000    Y=             -0.0000    Z=             -0.0000  Tot=              0.0000
 Quadrupole moment (field-independent basis, Debye-Ang):
   XX=            -25.5560   YY=            -25.5560   ZZ=            -25.5560
   XY=             -0.0000   XZ=              0.0000   YZ=              0.0000
 Traceless Quadrupole moment (field-independent basis, Debye-Ang):
   XX=              0.0000   YY=              0.0000   ZZ=             -0.0000
   XY=             -0.0000   XZ=              0.0000   YZ=              0.0000
 Octapole moment (field-independent basis, Debye-Ang**2):
  XXX=              0.0000  YYY=              0.0000  ZZZ=              0.0000  XYY=             -0.0000
  XXY=             -0.0000  XXZ=              0.0000  XZZ=              0.0000  YZZ=             -0.0000
  YYZ=              0.0000  XYZ=             -1.0771
 Hexadecapole moment (field-independent basis, Debye-Ang**3):
 XXXX=            -84.5965 YYYY=            -84.5965 ZZZZ=            -84.5965 XXXY=             -0.0000
 XXXZ=             -0.0000 YYYX=             -0.0000 YYYZ=              0.0000 ZZZX=              0.0000
 ZZZY=              0.0000 XXYY=            -28.1336 XXZZ=            -28.1336 YYZZ=            -28.1336
 XXYZ=              0.0000 YYXZ=              0.0000 ZZXY=              0.0000
 N-N= 2.047048180909D+02 E-N=-1.450654139722D+03  KE= 4.362542090207D+02
 PrsmSu:  requested number of processors reduced to:  21 ShMem   1 Linda.
 No NMR shielding tensors so no spin-rotation constants.
 Leave Link  601 at Sat Apr 17 00:29:02 2021, MaxMem=   104857600 cpu:            1066.0 elap:              22.8
 (Enter /s/ls4/users/knvvv/bin/g16sse/l801.exe)
 DoSCS=F DFT=T ScalE2(SS,OS)=  1.000000  1.000000
 Range of M.O.s used for correlation:     1   285
 NBasis=   285 NAE=    21 NBE=    21 NFC=     0 NFV=     0
 NROrb=    285 NOA=    21 NOB=    21 NVA=   264 NVB=   264

 **** Warning!!: The largest alpha MO coefficient is  0.35271837D+02

 Leave Link  801 at Sat Apr 17 00:29:02 2021, MaxMem=   104857600 cpu:               4.5 elap:               0.1
 (Enter /s/ls4/users/knvvv/bin/g16sse/l914.exe)
 RHF ground state
 Doing stability rather than CIS.
 Two-electron integrals replicated using symmetry.
 MDV=   104857600 DFT=T DoStab=T Mixed=T DoRPA=F DoScal=F NonHer=F
 Making orbital integer symmetry assigments:
 Orbital symmetries:
       Occupied  (T2) (T2) (T2) (A1) (A1) (A1) (T2) (T2) (T2) (A1)
                 (T2) (T2) (T2) (E) (E) (T2) (T2) (T2) (T1) (T1)
                 (T1)
       Virtual   (A1) (T2) (T2) (T2) (T2) (T2) (T2) (A1) (T2) (T2)
                 (T2) (E) (E) (A1) (T1) (T1) (T1) (T2) (T2) (T2)
                 (T2) (T2) (T2) (T2) (T2) (T2) (E) (E) (A1) (T2)
                 (T2) (T2) (T1) (T1) (T1) (E) (E) (A1) (E) (E)
                 (T2) (T2) (T2) (T1) (T1) (T1) (T2) (T2) (T2) (A1)
                 (T2) (T2) (T2) (T1) (T1) (T1) (E) (E) (T2) (T2)
                 (T2) (T2) (T2) (T2) (A1) (T1) (T1) (T1) (A1) (T2)
                 (T2) (T2) (T2) (T2) (T2) (E) (E) (T2) (T2) (T2)
                 (E) (E) (T1) (T1) (T1) (T2) (T2) (T2) (T2) (T2)
                 (T2) (T1) (T1) (T1) (A2) (A1) (T2) (T2) (T2) (A1)
                 (T1) (T1) (T1) (T2) (T2) (T2) (E) (E) (A1) (E)
                 (E) (T1) (T1) (T1) (T2) (T2) (T2) (T2) (T2) (T2)
                 (T1) (T1) (T1) (E) (E) (A1) (T2) (T2) (T2) (A1)
                 (T1) (T1) (T1) (T2) (T2) (T2) (E) (E) (A1) (T2)
                 (T2) (T2) (T1) (T1) (T1) (T2) (T2) (T2) (E) (E)
                 (T2) (T2) (T2) (T2) (T2) (T2) (E) (E) (T1) (T1)
                 (T1) (A1) (A1) (T2) (T2) (T2) (A2) (T2) (T2) (T2)
                 (T1) (T1) (T1) (E) (E) (T1) (T1) (T1) (T2) (T2)
                 (T2) (A1) (T2) (T2) (T2) (T1) (T1) (T1) (E) (E)
                 (T2) (T2) (T2) (T2) (T2) (T2) (E) (E) (T1) (T1)
                 (T1) (A1) (A2) (T1) (T1) (T1) (T2) (T2) (T2) (A1)
                 (T2) (T2) (T2) (T1) (T1) (T1) (E) (E) (T2) (T2)
                 (T2) (A1) (E) (E) (T1) (T1) (T1) (T2) (T2) (T2)
                 (E) (E) (T1) (T1) (T1) (T2) (T2) (T2) (T2) (T2)
                 (T2) (T1) (T1) (T1) (E) (E) (A1) (T2) (T2) (T2)
                 (T2) (T2) (T2) (A1) (A1) (T2) (T2) (T2) (A1) (A1)
                 (T2) (T2) (T2) (A1)
    24 initial guesses have been made.
 Convergence on wavefunction:    0.001000000000000
 Davidson Disk Diagonalization:  ConvIn= 1.00D-03 SkipCon=T Conv= 1.00D-03.
 Max sub-space:  2000 roots to seek:    24 dimension of matrix:        11088
 Iteration     1 Dimension    24 NMult     0 NNew     24
 Estimated number of processors is:   18
 CISAX will form     1 AO SS matrices at one time.
 NMat=     1 NSing=     1 JSym2X= 2.
 FoFJK:  IHMeth= 1 ICntrl=       0 DoSepK=F KAlg= 0 I1Cent=           0 FoldK=F
 IRaf= 950000000 NMat=       1 IRICut=       1 DoRegI=T DoRafI=F ISym2E= 2 IDoP0=0 IntGTp=1.
 FoFCou: FMM=F IPFlag=           0 FMFlag=      100000 FMFlg1=           0
         NFxFlg=           0 DoJE=F BraDBF=F KetDBF=F FulRan=T
         wScrn=  0.000000 ICntrl=         0 IOpCl=  0 I1Cent=           0 NGrid=           0
         NMat0=    1 NMatS0=      1 NMatT0=    0 NMatD0=    1 NMtDS0=    0 NMtDT0=    0
 Integrals replicated using symmetry in FoFCou.
 CoulSu:  requested number of processors reduced to:  18 ShMem   1 Linda.
 NMat=     1 NSing=     1 JSym2X= 2.
 CoulSu:  requested number of processors reduced to:  18 ShMem   1 Linda.
 NMat=     1 NSing=     1 JSym2X= 2.
 CoulSu:  requested number of processors reduced to:  18 ShMem   1 Linda.
 NMat=     1 NSing=     1 JSym2X= 2.
 CoulSu:  requested number of processors reduced to:  18 ShMem   1 Linda.
 NMat=     1 NSing=     1 JSym2X= 2.
 CoulSu:  requested number of processors reduced to:  18 ShMem   1 Linda.
 NMat=     1 NSing=     1 JSym2X= 2.
 CoulSu:  requested number of processors reduced to:  18 ShMem   1 Linda.
 NMat=     1 NSing=     1 JSym2X= 2.
 CoulSu:  requested number of processors reduced to:  18 ShMem   1 Linda.
 NMat=     1 NSing=     1 JSym2X= 2.
 CoulSu:  requested number of processors reduced to:  18 ShMem   1 Linda.
 NMat=     1 NSing=     1 JSym2X= 2.
 CoulSu:  requested number of processors reduced to:  18 ShMem   1 Linda.
 NMat=     1 NSing=     1 JSym2X= 2.
 CoulSu:  requested number of processors reduced to:  18 ShMem   1 Linda.
 NMat=     1 NSing=     1 JSym2X= 2.
 CoulSu:  requested number of processors reduced to:  18 ShMem   1 Linda.
 NMat=     1 NSing=     1 JSym2X= 2.
 CoulSu:  requested number of processors reduced to:  18 ShMem   1 Linda.
 NMat=     1 NSing=     0 JSym2X= 2.
 CoulSu:  requested number of processors reduced to:  18 ShMem   1 Linda.
 NMat=     1 NSing=     0 JSym2X= 2.
 CoulSu:  requested number of processors reduced to:  18 ShMem   1 Linda.
 NMat=     1 NSing=     0 JSym2X= 2.
 CoulSu:  requested number of processors reduced to:  18 ShMem   1 Linda.
 NMat=     1 NSing=     0 JSym2X= 2.
 CoulSu:  requested number of processors reduced to:  18 ShMem   1 Linda.
 NMat=     1 NSing=     0 JSym2X= 2.
 CoulSu:  requested number of processors reduced to:  18 ShMem   1 Linda.
 NMat=     1 NSing=     0 JSym2X= 2.
 CoulSu:  requested number of processors reduced to:  18 ShMem   1 Linda.
 NMat=     1 NSing=     0 JSym2X= 2.
 CoulSu:  requested number of processors reduced to:  18 ShMem   1 Linda.
 NMat=     1 NSing=     0 JSym2X= 2.
 CoulSu:  requested number of processors reduced to:  18 ShMem   1 Linda.
 NMat=     1 NSing=     0 JSym2X= 2.
 CoulSu:  requested number of processors reduced to:  18 ShMem   1 Linda.
 NMat=     1 NSing=     0 JSym2X= 2.
 CoulSu:  requested number of processors reduced to:  18 ShMem   1 Linda.
 NMat=     1 NSing=     0 JSym2X= 2.
 CoulSu:  requested number of processors reduced to:  18 ShMem   1 Linda.
 NMat=     1 NSing=     0 JSym2X= 2.
 CoulSu:  requested number of processors reduced to:  18 ShMem   1 Linda.
 New state      1 was old state      6
 Excitation Energies [eV] at current iteration:
 Root      1 :    14.318893195415750
 Root      2 :    14.318893195415870
 Root      3 :    14.318893195415930
 Root      4 :    14.642737675576630
 Root      5 :    14.642737675576650
 Root      6 :    14.642737675576700
 Root      7 :    15.451116036320440
 Root      8 :    15.451116036320880
 Root      9 :    15.451116036321220
 Root     10 :    15.494574959889750
 Root     11 :    15.494574959890130
 Root     12 :    15.609805732502590
 Root     13 :    15.609805732502820
 Root     14 :    15.623652053721080
 Root     15 :    15.623652053721150
 Root     16 :    15.623652053721440
 Root     17 :    15.706800396083290
 Root     18 :    15.706800396083490
 Root     19 :    15.706800396083570
 Root     20 :    15.814301507594390
 Root     21 :    15.814377195869820
 Root     22 :    16.902105538035920
 Root     23 :    16.902105538036110
 Root     24 :    16.902105538036470
 Iteration     2 Dimension    48 NMult    24 NNew     24
 Estimated number of processors is:   18
 CISAX will form     1 AO SS matrices at one time.
 NMat=     1 NSing=     1 JSym2X= 2.
 CoulSu:  requested number of processors reduced to:  18 ShMem   1 Linda.
 NMat=     1 NSing=     1 JSym2X= 2.
 CoulSu:  requested number of processors reduced to:  18 ShMem   1 Linda.
 NMat=     1 NSing=     1 JSym2X= 2.
 CoulSu:  requested number of processors reduced to:  18 ShMem   1 Linda.
 NMat=     1 NSing=     1 JSym2X= 2.
 CoulSu:  requested number of processors reduced to:  18 ShMem   1 Linda.
 NMat=     1 NSing=     1 JSym2X= 2.
 CoulSu:  requested number of processors reduced to:  18 ShMem   1 Linda.
 NMat=     1 NSing=     1 JSym2X= 2.
 CoulSu:  requested number of processors reduced to:  18 ShMem   1 Linda.
 NMat=     1 NSing=     1 JSym2X= 2.
 CoulSu:  requested number of processors reduced to:  18 ShMem   1 Linda.
 NMat=     1 NSing=     1 JSym2X= 2.
 CoulSu:  requested number of processors reduced to:  18 ShMem   1 Linda.
 NMat=     1 NSing=     1 JSym2X= 2.
 CoulSu:  requested number of processors reduced to:  18 ShMem   1 Linda.
 NMat=     1 NSing=     1 JSym2X= 2.
 CoulSu:  requested number of processors reduced to:  18 ShMem   1 Linda.
 NMat=     1 NSing=     1 JSym2X= 2.
 CoulSu:  requested number of processors reduced to:  18 ShMem   1 Linda.
 NMat=     1 NSing=     1 JSym2X= 2.
 CoulSu:  requested number of processors reduced to:  18 ShMem   1 Linda.
 NMat=     1 NSing=     0 JSym2X= 2.
 CoulSu:  requested number of processors reduced to:  18 ShMem   1 Linda.
 NMat=     1 NSing=     0 JSym2X= 2.
 CoulSu:  requested number of processors reduced to:  18 ShMem   1 Linda.
 NMat=     1 NSing=     0 JSym2X= 2.
 CoulSu:  requested number of processors reduced to:  18 ShMem   1 Linda.
 NMat=     1 NSing=     0 JSym2X= 2.
 CoulSu:  requested number of processors reduced to:  18 ShMem   1 Linda.
 NMat=     1 NSing=     0 JSym2X= 2.
 CoulSu:  requested number of processors reduced to:  18 ShMem   1 Linda.
 NMat=     1 NSing=     0 JSym2X= 2.
 CoulSu:  requested number of processors reduced to:  18 ShMem   1 Linda.
 NMat=     1 NSing=     0 JSym2X= 2.
 CoulSu:  requested number of processors reduced to:  18 ShMem   1 Linda.
 NMat=     1 NSing=     0 JSym2X= 2.
 CoulSu:  requested number of processors reduced to:  18 ShMem   1 Linda.
 NMat=     1 NSing=     0 JSym2X= 2.
 CoulSu:  requested number of processors reduced to:  18 ShMem   1 Linda.
 NMat=     1 NSing=     0 JSym2X= 2.
 CoulSu:  requested number of processors reduced to:  18 ShMem   1 Linda.
 NMat=     1 NSing=     0 JSym2X= 2.
 CoulSu:  requested number of processors reduced to:  18 ShMem   1 Linda.
 NMat=     1 NSing=     0 JSym2X= 2.
 CoulSu:  requested number of processors reduced to:  18 ShMem   1 Linda.
 New state      1 was old state      2
 Root      1 not converged, maximum delta is    0.384061434176161
 Excitation Energies [eV] at current iteration:
 Root      1 :    13.270312677660130   Change is   -1.048580517755734
 Root      2 :    13.270312960009090   Change is   -1.048580235406658
 Root      3 :    13.270313128463920   Change is   -1.048580066952014
 Root      4 :    14.035448786643790   Change is   -1.415667249677423
 Root      5 :    14.035451836169270   Change is   -1.415664200151170
 Root      6 :    14.035452657897850   Change is   -1.415663378423028
 Root      7 :    14.301182953229910   Change is   -0.341554722346717
 Root      8 :    14.301183369705520   Change is   -0.341554305871178
 Root      9 :    14.301183825101710   Change is   -0.341553850474941
 Root     10 :    14.413078341558940   Change is   -1.081496618330813
 Root     11 :    14.413078967545120   Change is   -1.081495992345009
 Root     12 :    14.877071476764900   Change is   -0.746580576956532
 Root     13 :    14.877071788755100   Change is   -0.746580264965971
 Root     14 :    14.877071842567350   Change is   -0.746580211153806
 Root     15 :    15.148637156151570   Change is   -0.461168576351022
 Root     16 :    15.148637576072780   Change is   -0.461168156430030
 Root     17 :    15.321631260356880   Change is   -0.385169135726411
 Root     18 :    15.321631341258380   Change is   -0.385169054825194
 Root     19 :    15.321631536733810   Change is   -0.385168859349681
 Root     20 :    15.647471839065040   Change is   -0.166829668529355
 Root     21 :    15.648345451375590   Change is   -0.166031744494229
 Root     22 :    15.922571065132520   Change is   -0.979534472903950
 Root     23 :    15.922571235406930   Change is   -0.979534302629171
 Root     24 :    15.922571255665030   Change is   -0.979534282370889
 Iteration     3 Dimension    54 NMult    48 NNew      6
 Estimated number of processors is:   18
 CISAX will form     1 AO SS matrices at one time.
 NMat=     1 NSing=     1 JSym2X= 2.
 CoulSu:  requested number of processors reduced to:  18 ShMem   1 Linda.
 NMat=     1 NSing=     1 JSym2X= 2.
 CoulSu:  requested number of processors reduced to:  18 ShMem   1 Linda.
 NMat=     1 NSing=     1 JSym2X= 2.
 CoulSu:  requested number of processors reduced to:  18 ShMem   1 Linda.
 NMat=     1 NSing=     0 JSym2X= 2.
 CoulSu:  requested number of processors reduced to:  18 ShMem   1 Linda.
 NMat=     1 NSing=     0 JSym2X= 2.
 CoulSu:  requested number of processors reduced to:  18 ShMem   1 Linda.
 NMat=     1 NSing=     0 JSym2X= 2.
 CoulSu:  requested number of processors reduced to:  18 ShMem   1 Linda.
 New state      1 was old state      3
 Root      1 not converged, maximum delta is    0.368051184677295
 Excitation Energies [eV] at current iteration:
 Root      1 :    12.894645244244190   Change is   -0.375667884219725
 Root      2 :    12.894645839381760   Change is   -0.375666838278368
 Root      3 :    12.894646922185510   Change is   -0.375666037823589
 Root      4 :    14.216136623907830   Change is   -0.085046329322079
 Root      5 :    14.216136895923010   Change is   -0.085046473782510
 Root      6 :    14.216137238332450   Change is   -0.085046586769258
 Iteration     4 Dimension    60 NMult    54 NNew      6
 Estimated number of processors is:   18
 CISAX will form     1 AO SS matrices at one time.
 NMat=     1 NSing=     1 JSym2X= 2.
 CoulSu:  requested number of processors reduced to:  18 ShMem   1 Linda.
 NMat=     1 NSing=     1 JSym2X= 2.
 CoulSu:  requested number of processors reduced to:  18 ShMem   1 Linda.
 NMat=     1 NSing=     1 JSym2X= 2.
 CoulSu:  requested number of processors reduced to:  18 ShMem   1 Linda.
 NMat=     1 NSing=     0 JSym2X= 2.
 CoulSu:  requested number of processors reduced to:  18 ShMem   1 Linda.
 NMat=     1 NSing=     0 JSym2X= 2.
 CoulSu:  requested number of processors reduced to:  18 ShMem   1 Linda.
 NMat=     1 NSing=     0 JSym2X= 2.
 CoulSu:  requested number of processors reduced to:  18 ShMem   1 Linda.
 New state      1 was old state      2
 Root      1 not converged, maximum delta is    0.233770676106310
 Excitation Energies [eV] at current iteration:
 Root      1 :    12.834495049590760   Change is   -0.060150789791004
 Root      2 :    12.834495101791800   Change is   -0.060150142452388
 Root      3 :    12.834495369198500   Change is   -0.060151552987007
 Root      4 :    14.175647342730180   Change is   -0.040489553192833
 Root      5 :    14.175647450903280   Change is   -0.040489787429175
 Root      6 :    14.175647812125600   Change is   -0.040488811782237
 Iteration     5 Dimension    66 NMult    60 NNew      6
 Estimated number of processors is:   18
 CISAX will form     1 AO SS matrices at one time.
 NMat=     1 NSing=     1 JSym2X= 2.
 CoulSu:  requested number of processors reduced to:  18 ShMem   1 Linda.
 NMat=     1 NSing=     1 JSym2X= 2.
 CoulSu:  requested number of processors reduced to:  18 ShMem   1 Linda.
 NMat=     1 NSing=     1 JSym2X= 2.
 CoulSu:  requested number of processors reduced to:  18 ShMem   1 Linda.
 NMat=     1 NSing=     0 JSym2X= 2.
 CoulSu:  requested number of processors reduced to:  18 ShMem   1 Linda.
 NMat=     1 NSing=     0 JSym2X= 2.
 CoulSu:  requested number of processors reduced to:  18 ShMem   1 Linda.
 NMat=     1 NSing=     0 JSym2X= 2.
 CoulSu:  requested number of processors reduced to:  18 ShMem   1 Linda.
 New state      1 was old state      2
 Root      1 not converged, maximum delta is    0.276877024413183
 Excitation Energies [eV] at current iteration:
 Root      1 :    12.831826672542320   Change is   -0.002668429249487
 Root      2 :    12.831826758060920   Change is   -0.002668291529836
 Root      3 :    12.831826959754300   Change is   -0.002668409444204
 Root      4 :    14.170694783714570   Change is   -0.004952667188713
 Root      5 :    14.170695036132110   Change is   -0.004952306598072
 Root      6 :    14.170695208065310   Change is   -0.004952604060283
 Iteration     6 Dimension    72 NMult    66 NNew      6
 Estimated number of processors is:   18
 CISAX will form     1 AO SS matrices at one time.
 NMat=     1 NSing=     1 JSym2X= 2.
 CoulSu:  requested number of processors reduced to:  18 ShMem   1 Linda.
 NMat=     1 NSing=     1 JSym2X= 2.
 CoulSu:  requested number of processors reduced to:  18 ShMem   1 Linda.
 NMat=     1 NSing=     1 JSym2X= 2.
 CoulSu:  requested number of processors reduced to:  18 ShMem   1 Linda.
 NMat=     1 NSing=     0 JSym2X= 2.
 CoulSu:  requested number of processors reduced to:  18 ShMem   1 Linda.
 NMat=     1 NSing=     0 JSym2X= 2.
 CoulSu:  requested number of processors reduced to:  18 ShMem   1 Linda.
 NMat=     1 NSing=     0 JSym2X= 2.
 CoulSu:  requested number of processors reduced to:  18 ShMem   1 Linda.
 Root      1 not converged, maximum delta is    0.139165905024591
 Excitation Energies [eV] at current iteration:
 Root      1 :    12.831757003954820   Change is   -0.000069668587495
 Root      2 :    12.831757018830690   Change is   -0.000069739230237
 Root      3 :    12.831757173736730   Change is   -0.000069786017563
 Root      4 :    14.170257643889310   Change is   -0.000437139825256
 Root      5 :    14.170257874676950   Change is   -0.000437333388365
 Root      6 :    14.170257893048070   Change is   -0.000437143084034
 Iteration     7 Dimension    78 NMult    72 NNew      6
 Estimated number of processors is:   18
 CISAX will form     1 AO SS matrices at one time.
 NMat=     1 NSing=     1 JSym2X= 2.
 CoulSu:  requested number of processors reduced to:  18 ShMem   1 Linda.
 NMat=     1 NSing=     1 JSym2X= 2.
 CoulSu:  requested number of processors reduced to:  18 ShMem   1 Linda.
 NMat=     1 NSing=     1 JSym2X= 2.
 CoulSu:  requested number of processors reduced to:  18 ShMem   1 Linda.
 NMat=     1 NSing=     0 JSym2X= 2.
 CoulSu:  requested number of processors reduced to:  18 ShMem   1 Linda.
 NMat=     1 NSing=     0 JSym2X= 2.
 CoulSu:  requested number of processors reduced to:  18 ShMem   1 Linda.
 NMat=     1 NSing=     0 JSym2X= 2.
 CoulSu:  requested number of processors reduced to:  18 ShMem   1 Linda.
 Root      1 not converged, maximum delta is    0.143690590674342
 Excitation Energies [eV] at current iteration:
 Root      1 :    12.831755765457000   Change is   -0.000001238497826
 Root      2 :    12.831755799035780   Change is   -0.000001219794908
 Root      3 :    12.831755952256850   Change is   -0.000001221479882
 Root      4 :    14.170234312879440   Change is   -0.000023331009869
 Root      5 :    14.170234471524110   Change is   -0.000023403152839
 Root      6 :    14.170235496109720   Change is   -0.000022396938355
 Iteration     8 Dimension    84 NMult    78 NNew      6
 Estimated number of processors is:   18
 CISAX will form     1 AO SS matrices at one time.
 NMat=     1 NSing=     1 JSym2X= 2.
 CoulSu:  requested number of processors reduced to:  18 ShMem   1 Linda.
 NMat=     1 NSing=     1 JSym2X= 2.
 CoulSu:  requested number of processors reduced to:  18 ShMem   1 Linda.
 NMat=     1 NSing=     1 JSym2X= 2.
 CoulSu:  requested number of processors reduced to:  18 ShMem   1 Linda.
 NMat=     1 NSing=     0 JSym2X= 2.
 CoulSu:  requested number of processors reduced to:  18 ShMem   1 Linda.
 NMat=     1 NSing=     0 JSym2X= 2.
 CoulSu:  requested number of processors reduced to:  18 ShMem   1 Linda.
 NMat=     1 NSing=     0 JSym2X= 2.
 CoulSu:  requested number of processors reduced to:  18 ShMem   1 Linda.
 Root      1 not converged, maximum delta is    0.037286178845663
 Excitation Energies [eV] at current iteration:
 Root      1 :    12.831755702133540   Change is   -0.000000063323459
 Root      2 :    12.831755716821750   Change is   -0.000000082214025
 Root      3 :    12.831755899801700   Change is   -0.000000052455150
 Root      4 :    14.170232860670670   Change is   -0.000001452208768
 Root      5 :    14.170232966184080   Change is   -0.000001505340035
 Root      6 :    14.170233685113590   Change is   -0.000001810996124
 Iteration     9 Dimension    90 NMult    84 NNew      6
 Estimated number of processors is:   18
 CISAX will form     1 AO SS matrices at one time.
 NMat=     1 NSing=     1 JSym2X= 2.
 CoulSu:  requested number of processors reduced to:  18 ShMem   1 Linda.
 NMat=     1 NSing=     1 JSym2X= 2.
 CoulSu:  requested number of processors reduced to:  18 ShMem   1 Linda.
 NMat=     1 NSing=     1 JSym2X= 2.
 CoulSu:  requested number of processors reduced to:  18 ShMem   1 Linda.
 NMat=     1 NSing=     0 JSym2X= 2.
 CoulSu:  requested number of processors reduced to:  18 ShMem   1 Linda.
 NMat=     1 NSing=     0 JSym2X= 2.
 CoulSu:  requested number of processors reduced to:  18 ShMem   1 Linda.
 NMat=     1 NSing=     0 JSym2X= 2.
 CoulSu:  requested number of processors reduced to:  18 ShMem   1 Linda.
 Root      1 not converged, maximum delta is    0.072040520358162
 Excitation Energies [eV] at current iteration:
 Root      1 :    12.831755681639670   Change is   -0.000000020493865
 Root      2 :    12.831755693206860   Change is   -0.000000023614890
 Root      3 :    12.831755877421650   Change is   -0.000000022380053
 Root      4 :    14.170232697707580   Change is   -0.000000162963096
 Root      5 :    14.170232780765790   Change is   -0.000000904347807
 Root      6 :    14.170232815249170   Change is   -0.000000150934909
 Iteration    10 Dimension    96 NMult    90 NNew      6
 Estimated number of processors is:   18
 CISAX will form     1 AO SS matrices at one time.
 NMat=     1 NSing=     1 JSym2X= 2.
 CoulSu:  requested number of processors reduced to:  18 ShMem   1 Linda.
 NMat=     1 NSing=     1 JSym2X= 2.
 CoulSu:  requested number of processors reduced to:  18 ShMem   1 Linda.
 NMat=     1 NSing=     1 JSym2X= 2.
 CoulSu:  requested number of processors reduced to:  18 ShMem   1 Linda.
 NMat=     1 NSing=     0 JSym2X= 2.
 CoulSu:  requested number of processors reduced to:  18 ShMem   1 Linda.
 NMat=     1 NSing=     0 JSym2X= 2.
 CoulSu:  requested number of processors reduced to:  18 ShMem   1 Linda.
 NMat=     1 NSing=     0 JSym2X= 2.
 CoulSu:  requested number of processors reduced to:  18 ShMem   1 Linda.
 Root      1 has converged.
 Excitation Energies [eV] at current iteration:
 Root      1 :    12.831755674765060   Change is   -0.000000006874618
 Root      2 :    12.831755683401680   Change is   -0.000000009805179
 Root      3 :    12.831755870415200   Change is   -0.000000007006452
 Root      4 :    14.170232627810740   Change is   -0.000000069896837
 Root      5 :    14.170232656778060   Change is   -0.000000123987729
 Root      6 :    14.170232687508410   Change is   -0.000000127740754
 Convergence achieved on expansion vectors.
 ***********************************************************************
 Stability analysis using <AA,BB:AA,BB> singles matrix:
 ***********************************************************************
 1PDM for each excited state written to RWF  633
 Ground to excited state transition densities written to RWF  633

 Eigenvectors of the stability matrix:
 
 Eigenvector   1:      Triplet-T1   Eigenvalue= 0.4715583  <S**2>=2.000
      14 -> 28         0.10854
      17 -> 27         0.12950
      19 -> 22         0.32329
      19 -> 29        -0.16890
      20 -> 22        -0.10698
      21 -> 22         0.35068
      21 -> 27        -0.10166
      21 -> 29        -0.18320
 The wavefunction is stable under the perturbations considered.
 Leave Link  914 at Sat Apr 17 00:43:05 2021, MaxMem=   104857600 cpu:           34849.0 elap:             843.4
 (Enter /s/ls4/users/knvvv/bin/g16sse/l508.exe)
 The wavefunction is already stable.
 Leave Link  508 at Sat Apr 17 00:43:05 2021, MaxMem=   104857600 cpu:               2.2 elap:               0.1
 (Enter /s/ls4/users/knvvv/bin/g16sse/l601.exe)
 Copying SCF densities to generalized density rwf, IOpCl= 0 IROHF=0.

 **********************************************************************

            Population analysis using the SCF density.

 **********************************************************************

 Orbital symmetries:
       Occupied  (T2) (T2) (T2) (A1) (A1) (A1) (T2) (T2) (T2) (A1)
                 (T2) (T2) (T2) (E) (E) (T2) (T2) (T2) (T1) (T1)
                 (T1)
       Virtual   (A1) (T2) (T2) (T2) (T2) (T2) (T2) (A1) (T2) (T2)
                 (T2) (E) (E) (A1) (T1) (T1) (T1) (T2) (T2) (T2)
                 (T2) (T2) (T2) (T2) (T2) (T2) (E) (E) (A1) (T2)
                 (T2) (T2) (T1) (T1) (T1) (E) (E) (A1) (E) (E)
                 (T2) (T2) (T2) (T1) (T1) (T1) (T2) (T2) (T2) (A1)
                 (T2) (T2) (T2) (T1) (T1) (T1) (E) (E) (T2) (T2)
                 (T2) (T2) (T2) (T2) (A1) (T1) (T1) (T1) (A1) (T2)
                 (T2) (T2) (T2) (T2) (T2) (E) (E) (T2) (T2) (T2)
                 (E) (E) (T1) (T1) (T1) (T2) (T2) (T2) (T2) (T2)
                 (T2) (T1) (T1) (T1) (A2) (A1) (T2) (T2) (T2) (A1)
                 (T1) (T1) (T1) (T2) (T2) (T2) (E) (E) (A1) (E)
                 (E) (T1) (T1) (T1) (T2) (T2) (T2) (T2) (T2) (T2)
                 (T1) (T1) (T1) (E) (E) (A1) (T2) (T2) (T2) (A1)
                 (T1) (T1) (T1) (T2) (T2) (T2) (E) (E) (A1) (T2)
                 (T2) (T2) (T1) (T1) (T1) (T2) (T2) (T2) (E) (E)
                 (T2) (T2) (T2) (T2) (T2) (T2) (E) (E) (T1) (T1)
                 (T1) (A1) (A1) (T2) (T2) (T2) (A2) (T2) (T2) (T2)
                 (T1) (T1) (T1) (E) (E) (T1) (T1) (T1) (T2) (T2)
                 (T2) (A1) (T2) (T2) (T2) (T1) (T1) (T1) (E) (E)
                 (T2) (T2) (T2) (T2) (T2) (T2) (E) (E) (T1) (T1)
                 (T1) (A1) (A2) (T1) (T1) (T1) (T2) (T2) (T2) (A1)
                 (T2) (T2) (T2) (T1) (T1) (T1) (E) (E) (T2) (T2)
                 (T2) (A1) (E) (E) (T1) (T1) (T1) (T2) (T2) (T2)
                 (E) (E) (T1) (T1) (T1) (T2) (T2) (T2) (T2) (T2)
                 (T2) (T1) (T1) (T1) (E) (E) (A1) (T2) (T2) (T2)
                 (T2) (T2) (T2) (A1) (A1) (T2) (T2) (T2) (A1) (A1)
                 (T2) (T2) (T2) (A1)
 The electronic state is 1-A1.
 Alpha  occ. eigenvalues --  -25.31442 -25.31442 -25.31442 -25.31440 -10.90239
 Alpha  occ. eigenvalues --   -1.53332  -1.41681  -1.41681  -1.41681  -0.85382
 Alpha  occ. eigenvalues --   -0.75097  -0.75097  -0.75097  -0.62329  -0.62329
 Alpha  occ. eigenvalues --   -0.58641  -0.58641  -0.58641  -0.55124  -0.55124
 Alpha  occ. eigenvalues --   -0.55124
 Alpha virt. eigenvalues --    0.11437   0.13881   0.13881   0.13881   0.22477
 Alpha virt. eigenvalues --    0.22477   0.22477   0.27858   0.32113   0.32113
 Alpha virt. eigenvalues --    0.32113   0.34945   0.34945   0.42306   0.47851
 Alpha virt. eigenvalues --    0.47851   0.47851   0.57793   0.57793   0.57793
 Alpha virt. eigenvalues --    0.66902   0.66902   0.66902   0.74602   0.74602
 Alpha virt. eigenvalues --    0.74602   0.76164   0.76164   0.83696   1.08668
 Alpha virt. eigenvalues --    1.08668   1.08668   1.41578   1.41578   1.41578
 Alpha virt. eigenvalues --    1.45768   1.45768   1.57039   1.58949   1.58949
 Alpha virt. eigenvalues --    1.63952   1.63952   1.63952   1.73316   1.73316
 Alpha virt. eigenvalues --    1.73316   1.73948   1.73948   1.73948   1.81560
 Alpha virt. eigenvalues --    1.86553   1.86553   1.86553   1.86976   1.86976
 Alpha virt. eigenvalues --    1.86976   1.88600   1.88600   2.05748   2.05748
 Alpha virt. eigenvalues --    2.05748   2.09223   2.09223   2.09223   2.40943
 Alpha virt. eigenvalues --    2.56564   2.56564   2.56564   2.61149   2.65104
 Alpha virt. eigenvalues --    2.65104   2.65104   2.89232   2.89232   2.89232
 Alpha virt. eigenvalues --    2.89530   2.89530   3.42395   3.42395   3.42395
 Alpha virt. eigenvalues --    3.92951   3.92951   3.96127   3.96127   3.96127
 Alpha virt. eigenvalues --    4.10225   4.10225   4.10225   4.13542   4.13542
 Alpha virt. eigenvalues --    4.13542   4.14194   4.14194   4.14194   4.14958
 Alpha virt. eigenvalues --    4.21520   4.56819   4.56819   4.56819   4.60169
 Alpha virt. eigenvalues --    4.84780   4.84780   4.84780   4.93586   4.93586
 Alpha virt. eigenvalues --    4.93586   4.96816   4.96816   4.97546   5.12598
 Alpha virt. eigenvalues --    5.12598   5.25064   5.25064   5.25064   5.29067
 Alpha virt. eigenvalues --    5.29067   5.29067   5.56154   5.56154   5.56154
 Alpha virt. eigenvalues --    5.58633   5.58633   5.58633   5.60525   5.60525
 Alpha virt. eigenvalues --    5.73788   5.78742   5.78742   5.78742   5.88739
 Alpha virt. eigenvalues --    5.94292   5.94292   5.94292   5.94693   5.94693
 Alpha virt. eigenvalues --    5.94693   6.03524   6.03524   6.15867   6.33641
 Alpha virt. eigenvalues --    6.33641   6.33641   6.46305   6.46305   6.46305
 Alpha virt. eigenvalues --    6.48104   6.48104   6.48104   6.81486   6.81486
 Alpha virt. eigenvalues --    7.12424   7.12424   7.12424   7.16979   7.16979
 Alpha virt. eigenvalues --    7.16979   7.27015   7.27015   7.33673   7.33673
 Alpha virt. eigenvalues --    7.33673   7.71585   9.12762   9.22221   9.22221
 Alpha virt. eigenvalues --    9.22221  11.23593  11.25269  11.25269  11.25269
 Alpha virt. eigenvalues --   11.26584  11.26584  11.26584  11.27351  11.27351
 Alpha virt. eigenvalues --   11.27358  11.27358  11.27358  11.27901  11.27901
 Alpha virt. eigenvalues --   11.27901  11.37259  11.44338  11.44338  11.44338
 Alpha virt. eigenvalues --   11.50364  11.50364  11.50364  11.55769  11.55769
 Alpha virt. eigenvalues --   11.76213  11.76213  11.76213  12.09244  12.09244
 Alpha virt. eigenvalues --   12.09244  12.11024  12.11024  12.20394  12.20394
 Alpha virt. eigenvalues --   12.20394  12.47803  14.37398  14.38141  14.38141
 Alpha virt. eigenvalues --   14.38141  14.38554  14.38554  14.38554  14.45889
 Alpha virt. eigenvalues --   14.61698  14.61698  14.61698  14.61929  14.61929
 Alpha virt. eigenvalues --   14.61929  14.70332  14.70332  14.92137  14.92137
 Alpha virt. eigenvalues --   14.92137  15.28041  15.37104  15.37104  15.40434
 Alpha virt. eigenvalues --   15.40434  15.40434  15.41018  15.41018  15.41018
 Alpha virt. eigenvalues --   15.72096  15.72096  15.74083  15.74083  15.74083
 Alpha virt. eigenvalues --   15.91221  15.91221  15.91221  16.02845  16.02845
 Alpha virt. eigenvalues --   16.02845  16.12937  16.12937  16.12937  16.24515
 Alpha virt. eigenvalues --   16.24515  16.53575  16.55225  16.55225  16.55225
 Alpha virt. eigenvalues --   16.63652  16.63652  16.63652  16.68500  28.05433
 Alpha virt. eigenvalues --   54.52469  54.52469  54.52469  55.15624 145.31612
 Alpha virt. eigenvalues --  283.46096 283.46096 283.46096 284.26489
          Condensed to atoms (all electrons):
               1          2          3          4          5
     1  C    3.610819   0.400323   0.400323   0.400323   0.400323
     2  F    0.400323   8.963434  -0.055595  -0.055595  -0.055595
     3  F    0.400323  -0.055595   8.963434  -0.055595  -0.055595
     4  F    0.400323  -0.055595  -0.055595   8.963434  -0.055595
     5  F    0.400323  -0.055595  -0.055595  -0.055595   8.963434
 Mulliken charges:
               1
     1  C    0.787890
     2  F   -0.196973
     3  F   -0.196973
     4  F   -0.196973
     5  F   -0.196973
 Sum of Mulliken charges =   0.00000
 Mulliken charges with hydrogens summed into heavy atoms:
               1
     1  C    0.787890
     2  F   -0.196973
     3  F   -0.196973
     4  F   -0.196973
     5  F   -0.196973
 Electronic spatial extent (au):  <R**2>=            283.6314
 Charge=              0.0000 electrons
 Dipole moment (field-independent basis, Debye):
    X=             -0.0000    Y=             -0.0000    Z=             -0.0000  Tot=              0.0000
 Quadrupole moment (field-independent basis, Debye-Ang):
   XX=            -25.5560   YY=            -25.5560   ZZ=            -25.5560
   XY=             -0.0000   XZ=              0.0000   YZ=              0.0000
 Traceless Quadrupole moment (field-independent basis, Debye-Ang):
   XX=              0.0000   YY=              0.0000   ZZ=             -0.0000
   XY=             -0.0000   XZ=              0.0000   YZ=              0.0000
 Octapole moment (field-independent basis, Debye-Ang**2):
  XXX=              0.0000  YYY=              0.0000  ZZZ=              0.0000  XYY=             -0.0000
  XXY=             -0.0000  XXZ=              0.0000  XZZ=              0.0000  YZZ=             -0.0000
  YYZ=              0.0000  XYZ=             -1.0771
 Hexadecapole moment (field-independent basis, Debye-Ang**3):
 XXXX=            -84.5965 YYYY=            -84.5965 ZZZZ=            -84.5965 XXXY=             -0.0000
 XXXZ=             -0.0000 YYYX=             -0.0000 YYYZ=              0.0000 ZZZX=              0.0000
 ZZZY=              0.0000 XXYY=            -28.1336 XXZZ=            -28.1336 YYZZ=            -28.1336
 XXYZ=              0.0000 YYXZ=              0.0000 ZZXY=              0.0000
 N-N= 2.047048180909D+02 E-N=-1.450654139722D+03  KE= 4.362542090207D+02
 PrsmSu:  requested number of processors reduced to:  21 ShMem   1 Linda.
 No NMR shielding tensors so no spin-rotation constants.
 Leave Link  601 at Sat Apr 17 00:43:29 2021, MaxMem=   104857600 cpu:            1097.4 elap:              23.5
 (Enter /s/ls4/users/knvvv/bin/g16sse/l9999.exe)

 Test job not archived.
 1\1\GINC-N146\Stability\RM062X\def2QZVP\C1F4\KNVVV\17-Apr-2021\0\\#P M
 062X/Def2QZVP Integral=UltraFineGrid SCF=NoSymm Stable=(RExt, Opt) IOp
 (1/33=1)\\Database calculations.\\0,1\C,0,0.,0.,0.\F,0,0.7665640564,-0
 .7665640564,0.7665640564\F,0,-0.7665640564,0.7665640564,0.7665640564\F
 ,0,-0.7665640564,-0.7665640564,-0.7665640564\F,0,0.7665640564,0.766564
 0564,-0.7665640564\\Version=ES64L-G16RevA.03\State=1-A1\HF=-437.574072
 5\RMSD=8.258e-09\Dipole=0.,0.,0.\Quadrupole=0.,0.,0.,0.,0.,0.\PG=TD [O
 (C1),4C3(F1)]\\@


 EVERYTHING'S GOT A MORAL, IF ONLY YOU CAN FIND IT.

                                    -- LEWIS CARROL, ALICE IN WONDERLAND
 Job cpu time:       0 days 14 hours 20 minutes 41.3 seconds.
 Elapsed time:       0 days  0 hours 20 minutes  4.2 seconds.
 File lengths (MBytes):  RWF=    294 Int=      0 D2E=      0 Chk=     12 Scr=      1
 Normal termination of Gaussian 16 at Sat Apr 17 00:43:29 2021.
