 Entering Gaussian System, Link 0=/opt/g16avx/g16
 Input=M062X--def2-QZVPPD--159_cloo_W4-11.gjf
 Output=M062X--def2-QZVPPD--159_cloo_W4-11.log
 Initial command:
 /opt/g16avx/l1.exe "/scratch/gaussian/Gau-23954.inp" -scrdir="/scratch/gaussian/"
 Entering Link 1 = /opt/g16avx/l1.exe PID=     23956.
  
 Copyright (c) 1988,1990,1992,1993,1995,1998,2003,2009,2016,
            Gaussian, Inc.  All Rights Reserved.
  
 This is part of the Gaussian(R) 16 program.  It is based on
 the Gaussian(R) 09 system (copyright 2009, Gaussian, Inc.),
 the Gaussian(R) 03 system (copyright 2003, Gaussian, Inc.),
 the Gaussian(R) 98 system (copyright 1998, Gaussian, Inc.),
 the Gaussian(R) 94 system (copyright 1995, Gaussian, Inc.),
 the Gaussian 92(TM) system (copyright 1992, Gaussian, Inc.),
 the Gaussian 90(TM) system (copyright 1990, Gaussian, Inc.),
 the Gaussian 88(TM) system (copyright 1988, Gaussian, Inc.),
 the Gaussian 86(TM) system (copyright 1986, Carnegie Mellon
 University), and the Gaussian 82(TM) system (copyright 1983,
 Carnegie Mellon University). Gaussian is a federally registered
 trademark of Gaussian, Inc.
  
 This software contains proprietary and confidential information,
 including trade secrets, belonging to Gaussian, Inc.
  
 This software is provided under written license and may be
 used, copied, transmitted, or stored only in accord with that
 written license.
  
 The following legend is applicable only to US Government
 contracts under FAR:
  
                    RESTRICTED RIGHTS LEGEND
  
 Use, reproduction and disclosure by the US Government is
 subject to restrictions as set forth in subparagraphs (a)
 and (c) of the Commercial Computer Software - Restricted
 Rights clause in FAR 52.227-19.
  
 Gaussian, Inc.
 340 Quinnipiac St., Bldg. 40, Wallingford CT 06492
  
  
 ---------------------------------------------------------------
 Warning -- This program may not be used in any manner that
 competes with the business of Gaussian, Inc. or will provide
 assistance to any competitor of Gaussian, Inc.  The licensee
 of this program is prohibited from giving any competitor of
 Gaussian, Inc. access to this program.  By using this program,
 the user acknowledges that Gaussian, Inc. is engaged in the
 business of creating and licensing software in the field of
 computational chemistry and represents and warrants to the
 licensee that it is not a competitor of Gaussian, Inc. and that
 it will not use this program in any manner prohibited above.
 ---------------------------------------------------------------
  

 Cite this work as:
 Gaussian 16, Revision A.03,
 M. J. Frisch, G. W. Trucks, H. B. Schlegel, G. E. Scuseria, 
 M. A. Robb, J. R. Cheeseman, G. Scalmani, V. Barone, 
 G. A. Petersson, H. Nakatsuji, X. Li, M. Caricato, A. V. Marenich, 
 J. Bloino, B. G. Janesko, R. Gomperts, B. Mennucci, H. P. Hratchian, 
 J. V. Ortiz, A. F. Izmaylov, J. L. Sonnenberg, D. Williams-Young, 
 F. Ding, F. Lipparini, F. Egidi, J. Goings, B. Peng, A. Petrone, 
 T. Henderson, D. Ranasinghe, V. G. Zakrzewski, J. Gao, N. Rega, 
 G. Zheng, W. Liang, M. Hada, M. Ehara, K. Toyota, R. Fukuda, 
 J. Hasegawa, M. Ishida, T. Nakajima, Y. Honda, O. Kitao, H. Nakai, 
 T. Vreven, K. Throssell, J. A. Montgomery, Jr., J. E. Peralta, 
 F. Ogliaro, M. J. Bearpark, J. J. Heyd, E. N. Brothers, K. N. Kudin, 
 V. N. Staroverov, T. A. Keith, R. Kobayashi, J. Normand, 
 K. Raghavachari, A. P. Rendell, J. C. Burant, S. S. Iyengar, 
 J. Tomasi, M. Cossi, J. M. Millam, M. Klene, C. Adamo, R. Cammi, 
 J. W. Ochterski, R. L. Martin, K. Morokuma, O. Farkas, 
 J. B. Foresman, and D. J. Fox, Gaussian, Inc., Wallingford CT, 2016.
 
 ******************************************
 Gaussian 16:  ES64L-G16RevA.03 25-Dec-2016
                20-Apr-2021 
 ******************************************
 %nprocshared=24
 Will use up to   24 processors via shared memory.
 ----------------------------------------------------------------------
 #P M062X/GEN Integral=UltraFineGrid scf=(nosymm,xqc,maxconven=155) Sta
 ble=(RExt, Opt) IOp(1/33=1)
 ----------------------------------------------------------------------
 1/33=1,38=1,172=1/1;
 2/12=2,17=6,18=5,40=1/2;
 3/5=7,11=2,25=1,30=1,74=-55,75=-5/1,2,3;
 4/9=2/1;
 5/5=2,8=3,13=1,38=5,85=155/2,8;
 6/7=2,8=2,9=2,10=2,28=1/1;
 8/6=1,10=90,11=11/1;
 9/8=-3,42=1,46=1/14;
 5/5=2,8=3,17=40,38=5/8(-2);
 6/7=2,8=2,9=2,10=2,28=1/1;
 99/5=1,9=1/99;
 Leave Link    1 at Tue Apr 20 03:06:32 2021, MaxMem=           0 cpu:               2.5 elap:               0.2
 (Enter /opt/g16avx/l101.exe)
 ONIOM data not found on unit 2.
 ----------------------
 Database calculations.
 ----------------------
 TstMul:  ICh=     0
 TstMul:  Mul=     2
 TstMul:  ICh=     0
 TstMul:  Mul=     2
 Symbolic Z-matrix:
 Charge =  0 Multiplicity = 2
 Cl                    0.        0.        0. 
 O                     0.        0.        2.03231 
 O                     1.09161   0.        2.54991 
 
 RdStrC is calling ZToCFu for IStruc=1 NZ=     3.
 PrtBox:  NBox=     1 Levels=  1 BoxLen=    8.00 SMaxX=        4.82
          Shift=            0.000000            0.000000            0.000000
 Box      1 Number                   0 centers from      1 to      3:
 After GenITR:
 ITRead=  0  0  0
 MicOpt= -1 -1 -1
 ITRead=  0  0  0
 MicOpt= -1 -1 -1
 NAtoms=      3 NQM=        3 NQMF=       0 NMMI=      0 NMMIF=      0
                NMic=       0 NMicF=      0.
                    Isotopes and Nuclear Properties:
 (Nuclear quadrupole moments (NQMom) in fm**2, nuclear magnetic moments (NMagM)
  in nuclear magnetons)

  Atom         1           2           3
 IAtWgt=          35          16          16
 AtmWgt=  34.9688527  15.9949146  15.9949146
 NucSpn=           3           0           0
 AtZEff=  -0.0000000  -0.0000000  -0.0000000
 NQMom=   -8.1650000   0.0000000   0.0000000
 NMagM=    0.8218740   0.0000000   0.0000000
 AtZNuc=  17.0000000   8.0000000   8.0000000
 No MM parameters found.
 Leave Link  101 at Tue Apr 20 03:06:32 2021, MaxMem=   104857600 cpu:               5.7 elap:               0.3
 (Enter /opt/g16avx/l202.exe)
                          Input orientation:                          
 ---------------------------------------------------------------------
 Center     Atomic      Atomic             Coordinates (Angstroms)
 Number     Number       Type             X           Y           Z
 ---------------------------------------------------------------------
      1         17           0        0.000000    0.000000    0.000000
      2          8           0        0.000000    0.000000    2.032306
      3          8           0        1.091605    0.000000    2.549909
 ---------------------------------------------------------------------
                    Distance matrix (angstroms):
                    1          2          3
     1  Cl   0.000000
     2  O    2.032306   0.000000
     3  O    2.773741   1.208104   0.000000
 Stoichiometry    ClO2(2)
 Framework group  CS[SG(ClO2)]
 Deg. of freedom     3
 Full point group                 CS      NOp   2
 Largest Abelian subgroup         CS      NOp   2
 Largest concise Abelian subgroup C1      NOp   1
                         Standard orientation:                         
 ---------------------------------------------------------------------
 Center     Atomic      Atomic             Coordinates (Angstroms)
 Number     Number       Type             X           Y           Z
 ---------------------------------------------------------------------
      1         17           0       -0.560974   -0.994637    0.000000
      2          8           0       -0.000000    0.958712   -0.000000
      3          8           0        1.192069    1.154892   -0.000000
 ---------------------------------------------------------------------
 Rotational constants (GHZ):          75.0160687           5.1776480           4.8433570
 Leave Link  202 at Tue Apr 20 03:06:32 2021, MaxMem=   104857600 cpu:               3.0 elap:               0.2
 (Enter /opt/g16avx/l301.exe)
 General basis read from cards:  (5D, 7F)
 Centers:       2      3
 S 8 1.00
     Exponent=  1.1650646908D+05 Coefficients=  4.0383857939D-05
     Exponent=  1.7504349724D+04 Coefficients=  3.1255139004D-04
     Exponent=  3.9934513230D+03 Coefficients=  1.6341473495D-03
     Exponent=  1.1330063186D+03 Coefficients=  6.8283224757D-03
     Exponent=  3.6999569594D+02 Coefficients=  2.4124410221D-02
     Exponent=  1.3362074349D+02 Coefficients=  7.2730206154D-02
     Exponent=  5.2035643649D+01 Coefficients=  1.7934429892D-01
     Exponent=  2.1461939313D+01 Coefficients=  3.3059588895D-01
 S 2 1.00
     Exponent=  8.9835051252D+01 Coefficients=  9.6468652996D-02
     Exponent=  2.6428010844D+01 Coefficients=  9.4117481120D-01
 S 1 1.00
     Exponent=  9.2822824649D+00 Coefficients=  1.0000000000D+00
 S 1 1.00
     Exponent=  4.0947728533D+00 Coefficients=  1.0000000000D+00
 S 1 1.00
     Exponent=  1.3255349078D+00 Coefficients=  1.0000000000D+00
 S 1 1.00
     Exponent=  5.1877230787D-01 Coefficients=  1.0000000000D+00
 S 1 1.00
     Exponent=  1.9772676454D-01 Coefficients=  1.0000000000D+00
 S 1 1.00
     Exponent=  6.9638535104D-02 Coefficients=  1.0000000000D+00
 P 5 1.00
     Exponent=  1.9115255810D+02 Coefficients=  2.5115697705D-03
     Exponent=  4.5233356739D+01 Coefficients=  2.0039240864D-02
     Exponent=  1.4353465922D+01 Coefficients=  9.3609064762D-02
     Exponent=  5.2422371832D+00 Coefficients=  3.0618127124D-01
     Exponent=  2.0792418599D+00 Coefficients=  6.7810501439D-01
 P 1 1.00
     Exponent=  8.4282371424D-01 Coefficients=  1.0000000000D+00
 P 1 1.00
     Exponent=  3.3617694891D-01 Coefficients=  1.0000000000D+00
 P 1 1.00
     Exponent=  1.2863997974D-01 Coefficients=  1.0000000000D+00
 P 1 1.00
     Exponent=  4.3598162776D-02 Coefficients=  1.0000000000D+00
 D 1 1.00
     Exponent=  3.7750000000D+00 Coefficients=  1.0000000000D+00
 D 1 1.00
     Exponent=  1.3000000000D+00 Coefficients=  1.0000000000D+00
 D 1 1.00
     Exponent=  4.4400000000D-01 Coefficients=  1.0000000000D+00
 D 1 1.00
     Exponent=  1.2546378695D-01 Coefficients=  1.0000000000D+00
 F 1 1.00
     Exponent=  2.6660000000D+00 Coefficients=  1.0000000000D+00
 F 1 1.00
     Exponent=  8.5900000000D-01 Coefficients=  1.0000000000D+00
 G 1 1.00
     Exponent=  1.8460000000D+00 Coefficients=  1.0000000000D+00
 ****
 Centers:       1
 S 10 1.00
     Exponent=  1.4674590095D+06 Coefficients=  1.1478257194D-05
     Exponent=  2.1975616433D+05 Coefficients=  8.9234299775D-05
     Exponent=  5.0010770301D+04 Coefficients=  4.6911086186D-04
     Exponent=  1.4164823918D+04 Coefficients=  1.9762446133D-03
     Exponent=  4.6207465525D+03 Coefficients=  7.1419937783D-03
     Exponent=  1.6678991635D+03 Coefficients=  2.2753219445D-02
     Exponent=  6.5029199265D+02 Coefficients=  6.3959782953D-02
     Exponent=  2.6938037376D+02 Coefficients=  1.5331059238D-01
     Exponent=  1.1706752106D+02 Coefficients=  2.8986952417D-01
     Exponent=  5.2811766843D+01 Coefficients=  3.6348071452D-01
 S 3 1.00
     Exponent=  4.6142769988D+02 Coefficients=  1.8019457578D-02
     Exponent=  1.4212665355D+02 Coefficients=  1.6489442314D-01
     Exponent=  5.4437838768D+01 Coefficients=  6.3891587584D-01
 S 1 1.00
     Exponent=  2.4160770219D+01 Coefficients=  1.0000000000D+00
 S 1 1.00
     Exponent=  9.7083540306D+00 Coefficients=  1.0000000000D+00
 S 1 1.00
     Exponent=  4.5640696733D+00 Coefficients=  1.0000000000D+00
 S 1 1.00
     Exponent=  2.1194744832D+00 Coefficients=  1.0000000000D+00
 S 1 1.00
     Exponent=  7.5722365394D-01 Coefficients=  1.0000000000D+00
 S 1 1.00
     Exponent=  3.3747224597D-01 Coefficients=  1.0000000000D+00
 S 1 1.00
     Exponent=  1.3860775149D-01 Coefficients=  1.0000000000D+00
 S 1 1.00
     Exponent=  5.4234565513D-02 Coefficients=  1.0000000000D+00
 P 8 1.00
     Exponent=  2.5019457890D+03 Coefficients=  2.4242618410D-04
     Exponent=  5.9288059285D+02 Coefficients=  2.1079961749D-03
     Exponent=  1.9218089186D+02 Coefficients=  1.1432693869D-02
     Exponent=  7.2875710488D+01 Coefficients=  4.4956698060D-02
     Exponent=  3.0436358370D+01 Coefficients=  1.3197476145D-01
     Exponent=  1.3490178902D+01 Coefficients=  2.7493639225D-01
     Exponent=  6.1478071413D+00 Coefficients=  3.8347236372D-01
     Exponent=  2.8450944820D+00 Coefficients=  2.8871943885D-01
 P 2 1.00
     Exponent=  1.0539397936D+02 Coefficients= -3.4311760144D-02
     Exponent=  6.7369738513D+00 Coefficients=  6.4060818902D-01
 P 1 1.00
     Exponent=  1.2421095772D+00 Coefficients=  1.0000000000D+00
 P 1 1.00
     Exponent=  5.5669714254D-01 Coefficients=  1.0000000000D+00
 P 1 1.00
     Exponent=  2.3387801464D-01 Coefficients=  1.0000000000D+00
 P 1 1.00
     Exponent=  9.3164490890D-02 Coefficients=  1.0000000000D+00
 P 1 1.00
     Exponent=  2.7256146018D-02 Coefficients=  1.0000000000D+00
 D 1 1.00
     Exponent=  5.1910000000D+00 Coefficients=  1.0000000000D+00
 D 1 1.00
     Exponent=  1.2760000000D+00 Coefficients=  1.0000000000D+00
 D 1 1.00
     Exponent=  5.8300000000D-01 Coefficients=  1.0000000000D+00
 D 1 1.00
     Exponent=  2.4300000000D-01 Coefficients=  1.0000000000D+00
 D 1 1.00
     Exponent=  8.3456538402D-02 Coefficients=  1.0000000000D+00
 F 1 1.00
     Exponent=  1.0890000000D+00 Coefficients=  1.0000000000D+00
 F 1 1.00
     Exponent=  4.2300000000D-01 Coefficients=  1.0000000000D+00
 G 1 1.00
     Exponent=  8.2700000000D-01 Coefficients=  1.0000000000D+00
 ****
 Ernie: Thresh=  0.10000D-02 Tol=  0.10000D-05 Strict=F.
 There are   175 symmetry adapted cartesian basis functions of A'  symmetry.
 There are    85 symmetry adapted cartesian basis functions of A"  symmetry.
 There are   138 symmetry adapted basis functions of A'  symmetry.
 There are    73 symmetry adapted basis functions of A"  symmetry.
   211 basis functions,   335 primitive gaussians,   260 cartesian basis functions
    17 alpha electrons       16 beta electrons
       nuclear repulsion energy        89.3917401946 Hartrees.
 IExCor= 4336 DFT=T Ex+Corr=M062X ExCW=0 ScaHFX=  0.540000
 ScaDFX=  1.000000  1.000000  1.000000  1.000000 ScalE2=  1.000000  1.000000
 IRadAn=      5 IRanWt=     -1 IRanGd=            0 ICorTp=0 IEmpDi=  4
 NAtoms=    3 NActive=    3 NUniq=    3 SFac= 1.00D+00 NAtFMM=   60 NAOKFM=F Big=F
 Integral buffers will be    131072 words long.
 Raffenetti 2 integral format.
 Two-electron integral symmetry is turned on.
 Leave Link  301 at Tue Apr 20 03:06:32 2021, MaxMem=   104857600 cpu:               3.2 elap:               0.2
 (Enter /opt/g16avx/l302.exe)
 NPDir=0 NMtPBC=     1 NCelOv=     1 NCel=       1 NClECP=     1 NCelD=      1
         NCelK=      1 NCelE2=     1 NClLst=     1 CellRange=     0.0.
 One-electron integrals computed using PRISM.
 One-electron integral symmetry used in STVInt
 PrsmSu:  requested number of processors reduced to:   4 ShMem   1 Linda.
 PrsmSu:  requested number of processors reduced to:  21 ShMem   1 Linda.
 NBasis=   211 RedAO= T EigKep=  1.06D-04  NBF=   138    73
 NBsUse=   211 1.00D-06 EigRej= -1.00D+00 NBFU=   138    73
 Precomputing XC quadrature grid using
 IXCGrd= 4 IRadAn=           5 IRanWt=          -1 IRanGd=           0 AccXCQ= 0.00D+00.
 Generated NRdTot=       0 NPtTot=           0 NUsed=           0 NTot=          32
 NSgBfM=   257   257   257   257   257 MxSgAt=     3 MxSgA2=     3.
 Leave Link  302 at Tue Apr 20 03:06:50 2021, MaxMem=   104857600 cpu:             288.1 elap:              18.0
 (Enter /opt/g16avx/l303.exe)
 DipDrv:  MaxL=1.
 Leave Link  303 at Tue Apr 20 03:06:53 2021, MaxMem=   104857600 cpu:              45.9 elap:               3.0
 (Enter /opt/g16avx/l401.exe)
 SCF N**3 symmetry information disabled.
 ExpMin= 2.73D-02 ExpMax= 1.47D+06 ExpMxC= 1.67D+03 IAcc=3 IRadAn=         5 AccDes= 0.00D+00
 Harris functional with IExCor= 1009 and IRadAn=       5 diagonalized for initial guess.
 HarFok:  IExCor= 1009 AccDes= 0.00D+00 IRadAn=         5 IDoV= 1 UseB2=F ITyADJ=14
 ICtDFT=  3500011 ScaDFX=  1.000000  1.000000  1.000000  1.000000
 FoFCou: FMM=F IPFlag=           0 FMFlag=      100000 FMFlg1=           0
         NFxFlg=           0 DoJE=T BraDBF=F KetDBF=T FulRan=T
         wScrn=  0.000000 ICntrl=       500 IOpCl=  0 I1Cent=   200000004 NGrid=           0
         NMat0=    1 NMatS0=      1 NMatT0=    0 NMatD0=    1 NMtDS0=    0 NMtDT0=    0
 Petite list used in FoFCou.
 CoulSu:  requested number of processors reduced to:  21 ShMem   1 Linda.
 CoulSu:  requested number of processors reduced to:  21 ShMem   1 Linda.
 CoulSu:  requested number of processors reduced to:  21 ShMem   1 Linda.
 CoulSu:  requested number of processors reduced to:  21 ShMem   1 Linda.
 Harris En= -610.176237094975    
 JPrj=0 DoOrth=F DoCkMO=F.
 Initial guess orbital symmetries:
 Alpha Orbitals:
       Occupied  (A') (A') (A') (A') (A') (A') (A") (A') (A') (A')
                 (A') (A') (A") (A") (A') (A') (A")
       Virtual   (A') (A') (A') (A') (A") (A') (A') (A") (A') (A")
                 (A') (A') (A") (A') (A') (A") (A') (A') (A') (A")
                 (A') (A') (A') (A") (A") (A') (A") (A') (A") (A')
                 (A') (A") (A') (A") (A') (A') (A') (A") (A') (A')
                 (A") (A') (A') (A') (A') (A') (A") (A') (A") (A')
                 (A") (A') (A') (A") (A') (A") (A') (A") (A') (A")
                 (A") (A') (A') (A") (A') (A") (A') (A') (A') (A')
                 (A') (A") (A") (A') (A') (A') (A') (A') (A") (A')
                 (A") (A') (A') (A") (A') (A") (A') (A") (A') (A')
                 (A") (A') (A') (A") (A') (A") (A") (A') (A') (A')
                 (A") (A') (A") (A') (A') (A") (A') (A") (A") (A')
                 (A") (A') (A') (A") (A') (A") (A') (A") (A') (A')
                 (A') (A") (A') (A') (A") (A') (A') (A") (A') (A')
                 (A') (A") (A') (A') (A") (A') (A') (A") (A') (A")
                 (A') (A") (A') (A') (A") (A') (A") (A') (A") (A')
                 (A') (A") (A') (A") (A') (A") (A') (A') (A") (A')
                 (A") (A') (A") (A') (A") (A') (A") (A') (A') (A')
                 (A") (A') (A") (A") (A') (A') (A") (A') (A') (A')
                 (A") (A') (A') (A') (A') (A") (A') (A') (A') (A')
                 (A') (A') (A') (A')
 Beta  Orbitals:
       Occupied  (A') (A') (A') (A') (A') (A') (A") (A') (A') (A')
                 (A') (A') (A") (A") (A') (A')
       Virtual   (A") (A') (A') (A') (A') (A") (A') (A') (A") (A')
                 (A") (A') (A') (A") (A') (A') (A") (A') (A') (A')
                 (A") (A') (A') (A') (A") (A") (A') (A") (A') (A")
                 (A') (A') (A") (A') (A") (A') (A') (A') (A") (A')
                 (A') (A") (A') (A') (A') (A') (A') (A") (A') (A")
                 (A') (A") (A') (A') (A") (A') (A") (A') (A") (A')
                 (A") (A") (A') (A') (A") (A') (A") (A') (A') (A')
                 (A') (A') (A") (A") (A') (A') (A') (A') (A') (A")
                 (A') (A") (A') (A') (A") (A') (A") (A') (A") (A')
                 (A') (A") (A') (A') (A") (A') (A") (A") (A') (A')
                 (A') (A") (A') (A") (A') (A') (A") (A') (A") (A")
                 (A') (A") (A') (A') (A") (A') (A") (A') (A") (A')
                 (A') (A') (A") (A') (A') (A") (A') (A') (A") (A')
                 (A') (A') (A") (A') (A') (A") (A') (A') (A") (A')
                 (A") (A') (A") (A') (A') (A") (A') (A") (A') (A")
                 (A') (A') (A") (A') (A") (A') (A") (A') (A') (A")
                 (A') (A") (A') (A") (A') (A") (A') (A") (A') (A')
                 (A') (A") (A') (A") (A") (A') (A') (A") (A') (A')
                 (A') (A") (A') (A') (A') (A') (A") (A') (A') (A')
                 (A') (A') (A') (A') (A')
 The electronic state of the initial guess is 2-A".
 Initial guess <Sx>= 0.0000 <Sy>= 0.0000 <Sz>= 0.5000 <S**2>= 0.7500 S= 0.5000
 Leave Link  401 at Tue Apr 20 03:07:03 2021, MaxMem=   104857600 cpu:             147.0 elap:               9.5
 (Enter /opt/g16avx/l502.exe)
 Integral symmetry usage will be decided dynamically.
 UHF open shell SCF:
 Using DIIS extrapolation, IDIIS=  1040.
 NGot=   104857600 LenX=   104713541 LenY=   104645500
 Requested convergence on RMS density matrix=1.00D-08 within 155 cycles.
 Requested convergence on MAX density matrix=1.00D-06.
 Requested convergence on             energy=1.00D-06.
 No special actions if energy rises.
 Fock matrices will be formed incrementally for  20 cycles.

 Cycle   1  Pass 1  IDiag  1:
 FoFJK:  IHMeth= 1 ICntrl=       0 DoSepK=F KAlg= 0 I1Cent=           0 FoldK=F
 IRaf= 960000000 NMat=       1 IRICut=       1 DoRegI=T DoRafI=F ISym2E= 1 IDoP0=0 IntGTp=1.
 FoFCou: FMM=F IPFlag=           0 FMFlag=      100000 FMFlg1=           0
         NFxFlg=           0 DoJE=F BraDBF=F KetDBF=F FulRan=T
         wScrn=  0.000000 ICntrl=         0 IOpCl=  1 I1Cent=           0 NGrid=           0
         NMat0=    1 NMatS0=      1 NMatT0=    0 NMatD0=    1 NMtDS0=    0 NMtDT0=    0
 Petite list used in FoFCou.
 CoulSu:  requested number of processors reduced to:  20 ShMem   1 Linda.
 E= -610.418995275909    
 DIIS: error= 3.58D-02 at cycle   1 NSaved=   1.
 NSaved= 1 IEnMin= 1 EnMin= -610.418995275909     IErMin= 1 ErrMin= 3.58D-02
 ErrMax= 3.58D-02  0.00D+00 EMaxC= 1.00D-01 BMatC= 7.32D-01 BMatP= 7.32D-01
 IDIUse=3 WtCom= 6.42D-01 WtEn= 3.58D-01
 Coeff-Com:  0.100D+01
 Coeff-En:   0.100D+01
 Coeff:      0.100D+01
 Gap=     0.257 Goal=   None    Shift=    0.000
 Gap=     0.227 Goal=   None    Shift=    0.000
 GapD=    0.227 DampG=1.000 DampE=0.500 DampFc=0.5000 IDamp=-1.
 Damping current iteration by 5.00D-01
 RMSDP=1.33D-03 MaxDP=7.41D-02              OVMax= 1.69D-01

 Cycle   2  Pass 1  IDiag  1:
 RMSU=  6.61D-04    CP:  1.01D+00
 CoulSu:  requested number of processors reduced to:  20 ShMem   1 Linda.
 E= -610.434435226937     Delta-E=       -0.015439951029 Rises=F Damp=T
 DIIS: error= 1.79D-02 at cycle   2 NSaved=   2.
 NSaved= 2 IEnMin= 2 EnMin= -610.434435226937     IErMin= 2 ErrMin= 1.79D-02
 ErrMax= 1.79D-02  0.00D+00 EMaxC= 1.00D-01 BMatC= 1.70D-01 BMatP= 7.32D-01
 IDIUse=3 WtCom= 8.21D-01 WtEn= 1.79D-01
 Coeff-Com: -0.649D-01 0.106D+01
 Coeff-En:   0.283D+00 0.717D+00
 Coeff:     -0.277D-02 0.100D+01
 Gap=     0.267 Goal=   None    Shift=    0.000
 Gap=     0.267 Goal=   None    Shift=    0.000
 RMSDP=6.46D-04 MaxDP=3.98D-02 DE=-1.54D-02 OVMax= 1.63D-01

 Cycle   3  Pass 1  IDiag  1:
 RMSU=  6.41D-04    CP:  1.01D+00  1.10D+00
 CoulSu:  requested number of processors reduced to:  20 ShMem   1 Linda.
 E= -610.449267898061     Delta-E=       -0.014832671124 Rises=F Damp=F
 DIIS: error= 1.37D-02 at cycle   3 NSaved=   3.
 NSaved= 3 IEnMin= 3 EnMin= -610.449267898061     IErMin= 3 ErrMin= 1.37D-02
 ErrMax= 1.37D-02  0.00D+00 EMaxC= 1.00D-01 BMatC= 1.56D-01 BMatP= 1.70D-01
 IDIUse=3 WtCom= 8.63D-01 WtEn= 1.37D-01
 Coeff-Com: -0.275D+00 0.664D+00 0.611D+00
 Coeff-En:   0.000D+00 0.291D+00 0.709D+00
 Coeff:     -0.237D+00 0.613D+00 0.624D+00
 Gap=     0.249 Goal=   None    Shift=    0.000
 Gap=     0.286 Goal=   None    Shift=    0.000
 RMSDP=3.91D-04 MaxDP=1.50D-02 DE=-1.48D-02 OVMax= 7.62D-02

 Cycle   4  Pass 1  IDiag  1:
 RMSU=  2.08D-04    CP:  1.01D+00  1.43D+00  6.16D-01
 CoulSu:  requested number of processors reduced to:  20 ShMem   1 Linda.
 E= -610.473017518660     Delta-E=       -0.023749620599 Rises=F Damp=F
 DIIS: error= 3.69D-03 at cycle   4 NSaved=   4.
 NSaved= 4 IEnMin= 4 EnMin= -610.473017518660     IErMin= 4 ErrMin= 3.69D-03
 ErrMax= 3.69D-03  0.00D+00 EMaxC= 1.00D-01 BMatC= 1.09D-02 BMatP= 1.56D-01
 IDIUse=3 WtCom= 9.63D-01 WtEn= 3.69D-02
 Coeff-Com: -0.821D-01 0.177D+00 0.295D+00 0.611D+00
 Coeff-En:   0.000D+00 0.000D+00 0.154D-01 0.985D+00
 Coeff:     -0.791D-01 0.170D+00 0.285D+00 0.624D+00
 Gap=     0.253 Goal=   None    Shift=    0.000
 Gap=     0.252 Goal=   None    Shift=    0.000
 RMSDP=1.78D-04 MaxDP=9.48D-03 DE=-2.37D-02 OVMax= 5.04D-02

 Cycle   5  Pass 1  IDiag  1:
 RMSU=  1.46D-04    CP:  1.01D+00  1.41D+00  7.65D-01  8.68D-01
 CoulSu:  requested number of processors reduced to:  20 ShMem   1 Linda.
 E= -610.474968371547     Delta-E=       -0.001950852886 Rises=F Damp=F
 DIIS: error= 2.32D-03 at cycle   5 NSaved=   5.
 NSaved= 5 IEnMin= 5 EnMin= -610.474968371547     IErMin= 5 ErrMin= 2.32D-03
 ErrMax= 2.32D-03  0.00D+00 EMaxC= 1.00D-01 BMatC= 2.59D-03 BMatP= 1.09D-02
 IDIUse=3 WtCom= 9.77D-01 WtEn= 2.32D-02
 Coeff-Com: -0.140D-01 0.193D-01 0.106D+00 0.418D+00 0.471D+00
 Coeff-En:   0.000D+00 0.000D+00 0.000D+00 0.730D-01 0.927D+00
 Coeff:     -0.137D-01 0.189D-01 0.103D+00 0.410D+00 0.482D+00
 Gap=     0.248 Goal=   None    Shift=    0.000
 Gap=     0.253 Goal=   None    Shift=    0.000
 RMSDP=9.06D-05 MaxDP=5.15D-03 DE=-1.95D-03 OVMax= 2.51D-02

 Cycle   6  Pass 1  IDiag  1:
 RMSU=  6.35D-05    CP:  1.01D+00  1.42D+00  7.55D-01  1.14D+00  8.20D-01
 CoulSu:  requested number of processors reduced to:  20 ShMem   1 Linda.
 E= -610.475895522567     Delta-E=       -0.000927151020 Rises=F Damp=F
 DIIS: error= 9.67D-04 at cycle   6 NSaved=   6.
 NSaved= 6 IEnMin= 6 EnMin= -610.475895522567     IErMin= 6 ErrMin= 9.67D-04
 ErrMax= 9.67D-04  0.00D+00 EMaxC= 1.00D-01 BMatC= 3.22D-04 BMatP= 2.59D-03
 IDIUse=3 WtCom= 9.90D-01 WtEn= 9.67D-03
 Coeff-Com:  0.186D-01-0.386D-01-0.407D-01-0.683D-01 0.541D-01 0.107D+01
 Coeff-En:   0.000D+00 0.000D+00 0.000D+00 0.000D+00 0.000D+00 0.100D+01
 Coeff:      0.185D-01-0.382D-01-0.403D-01-0.676D-01 0.535D-01 0.107D+01
 Gap=     0.247 Goal=   None    Shift=    0.000
 Gap=     0.254 Goal=   None    Shift=    0.000
 RMSDP=1.17D-04 MaxDP=6.27D-03 DE=-9.27D-04 OVMax= 3.16D-02

 Cycle   7  Pass 1  IDiag  1:
 RMSU=  4.21D-05    CP:  1.01D+00  1.44D+00  7.86D-01  1.39D+00  1.29D+00
                    CP:  2.01D+00
 CoulSu:  requested number of processors reduced to:  20 ShMem   1 Linda.
 E= -610.476708727029     Delta-E=       -0.000813204462 Rises=F Damp=F
 DIIS: error= 8.48D-04 at cycle   7 NSaved=   7.
 NSaved= 7 IEnMin= 7 EnMin= -610.476708727029     IErMin= 7 ErrMin= 8.48D-04
 ErrMax= 8.48D-04  0.00D+00 EMaxC= 1.00D-01 BMatC= 2.96D-04 BMatP= 3.22D-04
 IDIUse=3 WtCom= 9.92D-01 WtEn= 8.48D-03
 Coeff-Com:  0.955D-02-0.181D-01-0.167D-01-0.543D-01-0.595D-01 0.464D+00
 Coeff-Com:  0.675D+00
 Coeff-En:   0.000D+00 0.000D+00 0.000D+00 0.000D+00 0.000D+00 0.000D+00
 Coeff-En:   0.100D+01
 Coeff:      0.947D-02-0.180D-01-0.166D-01-0.539D-01-0.590D-01 0.460D+00
 Coeff:      0.678D+00
 Gap=     0.247 Goal=   None    Shift=    0.000
 Gap=     0.256 Goal=   None    Shift=    0.000
 RMSDP=7.65D-05 MaxDP=3.66D-03 DE=-8.13D-04 OVMax= 1.90D-02

 Cycle   8  Pass 1  IDiag  1:
 RMSU=  1.25D-05    CP:  1.01D+00  1.44D+00  7.98D-01  1.53D+00  1.50D+00
                    CP:  2.84D+00  1.76D+00
 CoulSu:  requested number of processors reduced to:  20 ShMem   1 Linda.
 E= -610.477246302028     Delta-E=       -0.000537575000 Rises=F Damp=F
 DIIS: error= 9.15D-04 at cycle   8 NSaved=   8.
 NSaved= 8 IEnMin= 8 EnMin= -610.477246302028     IErMin= 7 ErrMin= 8.48D-04
 ErrMax= 9.15D-04  0.00D+00 EMaxC= 1.00D-01 BMatC= 2.88D-04 BMatP= 2.96D-04
 IDIUse=3 WtCom= 9.92D-01 WtEn= 8.48D-03
 Coeff-Com:  0.136D-01-0.254D-01-0.352D-01-0.118D+00-0.140D+00 0.688D+00
 Coeff-Com:  0.167D+01-0.105D+01
 Coeff-En:   0.000D+00 0.000D+00 0.000D+00 0.000D+00 0.000D+00 0.000D+00
 Coeff-En:   0.000D+00 0.100D+01
 Coeff:      0.135D-01-0.252D-01-0.349D-01-0.117D+00-0.139D+00 0.682D+00
 Coeff:      0.165D+01-0.103D+01
 Gap=     0.247 Goal=   None    Shift=    0.000
 Gap=     0.255 Goal=   None    Shift=    0.000
 RMSDP=7.37D-05 MaxDP=3.56D-03 DE=-5.38D-04 OVMax= 1.85D-02

 Cycle   9  Pass 1  IDiag  1:
 RMSU=  4.02D-06    CP:  1.01D+00  1.44D+00  7.89D-01  1.42D+00  1.31D+00
                    CP:  2.06D+00  8.89D-01 -2.50D-01
 CoulSu:  requested number of processors reduced to:  20 ShMem   1 Linda.
 E= -610.476737288780     Delta-E=        0.000509013249 Rises=F Damp=F
 DIIS: error= 9.11D-04 at cycle   9 NSaved=   9.
 NSaved= 9 IEnMin= 8 EnMin= -610.477246302028     IErMin= 7 ErrMin= 8.48D-04
 ErrMax= 9.11D-04  0.00D+00 EMaxC= 1.00D-01 BMatC= 2.80D-04 BMatP= 2.88D-04
 IDIUse=3 WtCom= 9.92D-01 WtEn= 8.48D-03
 Rare condition: small coef for last iteration:  0.000D+00
 Coeff-Com: -0.710D-03 0.577D-02 0.313D-01-0.841D-02-0.299D+00-0.220D+00
 Coeff-Com:  0.151D+01-0.945D+01 0.943D+01
 Coeff-En:   0.000D+00 0.000D+00 0.000D+00 0.000D+00 0.000D+00 0.000D+00
 Coeff-En:   0.000D+00 0.000D+00 0.100D+01
 Coeff:     -0.710D-03 0.577D-02 0.313D-01-0.841D-02-0.299D+00-0.220D+00
 Coeff:      0.151D+01-0.945D+01 0.943D+01
 Gap=     0.251 Goal=   None    Shift=    0.000
 Gap=     0.250 Goal=   None    Shift=    0.000
 RMSDP=5.71D-04 MaxDP=2.92D-02 DE= 5.09D-04 OVMax= 1.43D-01

 Cycle  10  Pass 1  IDiag  1:
 RMSU=  1.85D-04    CP:  1.01D+00  1.42D+00  7.12D-01  5.50D-01 -1.88D-01
                    CP: -3.00D+00 -3.00D+00 -3.00D+00  3.00D+00
 CoulSu:  requested number of processors reduced to:  20 ShMem   1 Linda.
 E= -610.473690366441     Delta-E=        0.003046922339 Rises=F Damp=F
 DIIS: error= 8.57D-04 at cycle  10 NSaved=  10.
 NSaved=10 IEnMin= 8 EnMin= -610.477246302028     IErMin= 7 ErrMin= 8.48D-04
 ErrMax= 8.57D-04  0.00D+00 EMaxC= 1.00D-01 BMatC= 5.37D-04 BMatP= 2.80D-04
 IDIUse=3 WtCom= 9.92D-01 WtEn= 8.48D-03
 Rare condition: small coef for last iteration:  0.000D+00
 Coeff-Com:  0.471D-02-0.613D-02 0.656D-01 0.107D+00-0.954D-01-0.513D+00
 Coeff-Com:  0.675D-01-0.637D+01 0.695D+01 0.783D+00
 Coeff-En:   0.000D+00 0.000D+00 0.000D+00 0.000D+00 0.000D+00 0.000D+00
 Coeff-En:   0.000D+00 0.000D+00 0.000D+00 0.100D+01
 Coeff:      0.471D-02-0.613D-02 0.656D-01 0.107D+00-0.954D-01-0.513D+00
 Coeff:      0.675D-01-0.637D+01 0.695D+01 0.783D+00
 Gap=     0.259 Goal=   None    Shift=    0.000
 Gap=     0.264 Goal=   None    Shift=    0.000
 RMSDP=2.66D-04 MaxDP=1.32D-02 DE= 3.05D-03 OVMax= 6.53D-02

 Cycle  11  Pass 1  IDiag  1:
 RMSU=  1.24D-04    CP:  1.01D+00  1.40D+00  6.70D-01  1.18D-01 -8.62D-01
                    CP: -3.00D+00 -3.00D+00 -3.00D+00  3.00D+00  2.04D+00
 CoulSu:  requested number of processors reduced to:  20 ShMem   1 Linda.
 E= -610.472906453031     Delta-E=        0.000783913410 Rises=F Damp=F
 DIIS: error= 9.13D-04 at cycle  11 NSaved=  11.
 NSaved=11 IEnMin= 8 EnMin= -610.477246302028     IErMin= 7 ErrMin= 8.48D-04
 ErrMax= 9.13D-04  0.00D+00 EMaxC= 1.00D-01 BMatC= 6.59D-04 BMatP= 2.80D-04
 IDIUse=3 WtCom= 9.92D-01 WtEn= 8.48D-03
 Rare condition: small coef for last iteration:  0.000D+00
 Coeff-Com:  0.110D-01-0.186D-01 0.336D-01 0.876D-02-0.174D+00 0.644D-03
 Coeff-Com:  0.175D+01-0.559D+01 0.447D+01-0.911D+00 0.142D+01
 Coeff-En:   0.000D+00 0.000D+00 0.000D+00 0.000D+00 0.000D+00 0.000D+00
 Coeff-En:   0.000D+00 0.000D+00 0.000D+00 0.000D+00 0.100D+01
 Coeff:      0.110D-01-0.186D-01 0.336D-01 0.876D-02-0.174D+00 0.644D-03
 Coeff:      0.175D+01-0.559D+01 0.447D+01-0.911D+00 0.142D+01
 Gap=     0.262 Goal=   None    Shift=    0.000
 Gap=     0.267 Goal=   None    Shift=    0.000
 RMSDP=1.91D-04 MaxDP=9.22D-03 DE= 7.84D-04 OVMax= 4.79D-02

 Cycle  12  Pass 1  IDiag  1:
 RMSU=  3.21D-05    CP:  1.01D+00  1.37D+00  6.37D-01 -2.14D-01 -1.35D+00
                    CP: -3.00D+00 -3.00D+00 -3.00D+00  3.00D+00  2.73D+00
                    CP:  1.74D+00
 CoulSu:  requested number of processors reduced to:  20 ShMem   1 Linda.
 E= -610.472556522028     Delta-E=        0.000349931003 Rises=F Damp=F
 DIIS: error= 7.56D-04 at cycle  12 NSaved=  12.
 NSaved=12 IEnMin= 8 EnMin= -610.477246302028     IErMin=12 ErrMin= 7.56D-04
 ErrMax= 7.56D-04  0.00D+00 EMaxC= 1.00D-01 BMatC= 4.45D-04 BMatP= 2.80D-04
 IDIUse=3 WtCom= 9.92D-01 WtEn= 8.48D-03
 Rare condition: small coef for last iteration:  0.000D+00
 Coeff-Com: -0.575D-03 0.240D-02 0.324D-01 0.699D-01-0.113D+00-0.459D+00
 Coeff-Com: -0.381D+00-0.352D+01 0.435D+01 0.396D+00-0.364D+01 0.426D+01
 Coeff-En:   0.000D+00 0.000D+00 0.000D+00 0.000D+00 0.000D+00 0.000D+00
 Coeff-En:   0.000D+00 0.000D+00 0.000D+00 0.000D+00 0.000D+00 0.100D+01
 Coeff:     -0.575D-03 0.240D-02 0.324D-01 0.699D-01-0.113D+00-0.459D+00
 Coeff:     -0.381D+00-0.352D+01 0.435D+01 0.396D+00-0.364D+01 0.426D+01
 Gap=     0.276 Goal=   None    Shift=    0.000
 Gap=     0.264 Goal=   None    Shift=    0.000
 RMSDP=6.39D-04 MaxDP=2.71D-02 DE= 3.50D-04 OVMax= 1.53D-01

 Cycle  13  Pass 1  IDiag  1:
 RMSU=  4.33D-04    CP:  1.00D+00  1.32D+00  5.16D-01 -1.25D+00 -2.79D+00
                    CP: -3.00D+00 -3.00D+00 -3.00D+00  3.00D+00  3.00D+00
                    CP:  3.00D+00  3.00D+00
 CoulSu:  requested number of processors reduced to:  20 ShMem   1 Linda.
 E= -610.470646451120     Delta-E=        0.001910070908 Rises=F Damp=F
 DIIS: error= 1.32D-03 at cycle  13 NSaved=  13.
 NSaved=13 IEnMin= 8 EnMin= -610.477246302028     IErMin=12 ErrMin= 7.56D-04
 ErrMax= 1.32D-03  0.00D+00 EMaxC= 1.00D-01 BMatC= 1.30D-03 BMatP= 2.80D-04
 IDIUse=3 WtCom= 9.92D-01 WtEn= 8.48D-03
 Rare condition: small coef for last iteration:  0.000D+00
 Coeff-Com: -0.149D-02 0.302D-02-0.134D-02-0.247D-01-0.123D+00-0.115D+00
 Coeff-Com:  0.285D+00 0.179D-01 0.326D+00-0.713D+00-0.213D+01 0.394D+01
 Coeff-Com: -0.462D+00
 Coeff-En:   0.000D+00 0.000D+00 0.000D+00 0.000D+00 0.000D+00 0.000D+00
 Coeff-En:   0.000D+00 0.000D+00 0.000D+00 0.000D+00 0.000D+00 0.000D+00
 Coeff-En:   0.100D+01
 Coeff:     -0.149D-02 0.302D-02-0.134D-02-0.247D-01-0.123D+00-0.115D+00
 Coeff:      0.285D+00 0.179D-01 0.326D+00-0.713D+00-0.213D+01 0.394D+01
 Coeff:     -0.462D+00
 Gap=     0.252 Goal=   None    Shift=    0.000
 Gap=     0.255 Goal=   None    Shift=    0.000
 RMSDP=6.27D-04 MaxDP=2.83D-02 DE= 1.91D-03 OVMax= 1.57D-01

 Cycle  14  Pass 1  IDiag  1:
 RMSU=  3.69D-05    CP:  1.01D+00  1.34D+00  6.40D-01 -2.32D-01 -1.37D+00
                    CP: -3.00D+00 -3.00D+00 -3.00D+00  3.00D+00  2.73D+00
                    CP:  1.83D+00  1.93D+00 -1.10D-02
 CoulSu:  requested number of processors reduced to:  20 ShMem   1 Linda.
 E= -610.472608164970     Delta-E=       -0.001961713850 Rises=F Damp=F
 DIIS: error= 2.48D-04 at cycle  14 NSaved=  14.
 NSaved=14 IEnMin= 8 EnMin= -610.477246302028     IErMin=14 ErrMin= 2.48D-04
 ErrMax= 2.48D-04  0.00D+00 EMaxC= 1.00D-01 BMatC= 4.44D-05 BMatP= 2.80D-04
 IDIUse=3 WtCom= 9.98D-01 WtEn= 2.48D-03
 Coeff-Com: -0.431D-03 0.669D-03 0.543D-02 0.141D-01 0.227D-01-0.133D+00
 Coeff-Com: -0.248D+00 0.873D+00-0.648D+00-0.233D+00 0.830D-01 0.789D+00
 Coeff-Com: -0.286D+00 0.760D+00
 Coeff-En:   0.000D+00 0.000D+00 0.000D+00 0.000D+00 0.000D+00 0.000D+00
 Coeff-En:   0.000D+00 0.000D+00 0.000D+00 0.000D+00 0.000D+00 0.000D+00
 Coeff-En:   0.000D+00 0.100D+01
 Coeff:     -0.429D-03 0.667D-03 0.542D-02 0.141D-01 0.227D-01-0.132D+00
 Coeff:     -0.248D+00 0.871D+00-0.647D+00-0.233D+00 0.828D-01 0.787D+00
 Coeff:     -0.286D+00 0.761D+00
 Gap=     0.258 Goal=   None    Shift=    0.000
 Gap=     0.262 Goal=   None    Shift=    0.000
 RMSDP=7.00D-05 MaxDP=3.42D-03 DE=-1.96D-03 OVMax= 1.79D-02

 Cycle  15  Pass 1  IDiag  1:
 RMSU=  6.06D-06    CP:  1.01D+00  1.36D+00  6.54D-01 -1.05D-01 -1.18D+00
                    CP: -3.00D+00 -3.00D+00 -3.00D+00  3.00D+00  2.53D+00
                    CP:  1.55D+00  1.22D+00 -8.19D-03  8.51D-01
 CoulSu:  requested number of processors reduced to:  20 ShMem   1 Linda.
 E= -610.472732317568     Delta-E=       -0.000124152598 Rises=F Damp=F
 DIIS: error= 2.54D-04 at cycle  15 NSaved=  15.
 NSaved=15 IEnMin= 8 EnMin= -610.477246302028     IErMin=14 ErrMin= 2.48D-04
 ErrMax= 2.54D-04  0.00D+00 EMaxC= 1.00D-01 BMatC= 4.49D-05 BMatP= 4.44D-05
 IDIUse=3 WtCom= 9.98D-01 WtEn= 2.48D-03
 Coeff-Com: -0.282D-03 0.452D-03 0.380D-02 0.700D-02 0.512D-02-0.782D-01
 Coeff-Com: -0.112D+00 0.389D+00-0.307D+00-0.158D+00-0.899D-01 0.713D+00
 Coeff-Com: -0.301D+00 0.267D+00 0.662D+00
 Coeff-En:   0.000D+00 0.000D+00 0.000D+00 0.000D+00 0.000D+00 0.000D+00
 Coeff-En:   0.000D+00 0.000D+00 0.000D+00 0.000D+00 0.000D+00 0.000D+00
 Coeff-En:   0.000D+00 0.000D+00 0.100D+01
 Coeff:     -0.281D-03 0.451D-03 0.379D-02 0.698D-02 0.510D-02-0.780D-01
 Coeff:     -0.111D+00 0.388D+00-0.306D+00-0.157D+00-0.897D-01 0.711D+00
 Coeff:     -0.301D+00 0.266D+00 0.663D+00
 Gap=     0.258 Goal=   None    Shift=    0.000
 Gap=     0.262 Goal=   None    Shift=    0.000
 RMSDP=4.07D-05 MaxDP=1.92D-03 DE=-1.24D-04 OVMax= 1.04D-02

 Cycle  16  Pass 1  IDiag  1:
 RMSU=  1.57D-06    CP:  1.01D+00  1.37D+00  6.61D-01 -3.38D-02 -1.08D+00
                    CP: -3.00D+00 -3.00D+00 -3.00D+00  3.00D+00  2.39D+00
                    CP:  1.38D+00  9.43D-01 -7.66D-03  8.33D-01  1.30D+00
 CoulSu:  requested number of processors reduced to:  20 ShMem   1 Linda.
 E= -610.472806698928     Delta-E=       -0.000074381360 Rises=F Damp=F
 DIIS: error= 3.01D-04 at cycle  16 NSaved=  16.
 NSaved=16 IEnMin= 8 EnMin= -610.477246302028     IErMin=14 ErrMin= 2.48D-04
 ErrMax= 3.01D-04  0.00D+00 EMaxC= 1.00D-01 BMatC= 6.86D-05 BMatP= 4.44D-05
 IDIUse=3 WtCom= 9.98D-01 WtEn= 2.48D-03
 Coeff-Com: -0.368D-03 0.574D-03 0.393D-02 0.719D-02 0.830D-02-0.813D-01
 Coeff-Com: -0.131D+00 0.444D+00-0.361D+00-0.147D+00-0.182D-01 0.631D+00
 Coeff-Com: -0.284D+00 0.216D+00 0.129D+01-0.581D+00
 Coeff-En:   0.000D+00 0.000D+00 0.000D+00 0.000D+00 0.000D+00 0.000D+00
 Coeff-En:   0.000D+00 0.000D+00 0.000D+00 0.000D+00 0.000D+00 0.000D+00
 Coeff-En:   0.000D+00 0.000D+00 0.000D+00 0.100D+01
 Coeff:     -0.367D-03 0.572D-03 0.392D-02 0.717D-02 0.828D-02-0.811D-01
 Coeff:     -0.131D+00 0.443D+00-0.360D+00-0.146D+00-0.182D-01 0.630D+00
 Coeff:     -0.283D+00 0.215D+00 0.129D+01-0.577D+00
 Gap=     0.259 Goal=   None    Shift=    0.000
 Gap=     0.262 Goal=   None    Shift=    0.000
 RMSDP=2.69D-05 MaxDP=1.25D-03 DE=-7.44D-05 OVMax= 6.81D-03

 Cycle  17  Pass 1  IDiag  1:
 RMSU=  3.20D-07    CP:  1.01D+00  1.36D+00  6.56D-01 -7.89D-02 -1.14D+00
                    CP: -3.00D+00 -3.00D+00 -3.00D+00  3.00D+00  2.49D+00
                    CP:  1.49D+00  1.07D+00 -7.43D-03  8.08D-01  1.22D+00
                    CP:  5.83D-01
 CoulSu:  requested number of processors reduced to:  20 ShMem   1 Linda.
 E= -610.472753736817     Delta-E=        0.000052962111 Rises=F Damp=F
 DIIS: error= 2.95D-04 at cycle  17 NSaved=  17.
 NSaved=17 IEnMin= 8 EnMin= -610.477246302028     IErMin=14 ErrMin= 2.48D-04
 ErrMax= 2.95D-04  0.00D+00 EMaxC= 1.00D-01 BMatC= 6.62D-05 BMatP= 4.44D-05
 IDIUse=3 WtCom= 9.98D-01 WtEn= 2.48D-03
 Large coefficients: NSaved= 17 BigCof=   11.00 CofMax=   10.00 Det=-7.96D-09
 Inversion failed.  Reducing to 16 matrices.
 Large coefficients: NSaved= 16 BigCof=   10.92 CofMax=   10.00 Det=-8.03D-09
 Inversion failed.  Reducing to 15 matrices.
 Large coefficients: NSaved= 15 BigCof=   10.92 CofMax=   10.00 Det=-8.05D-09
 Inversion failed.  Reducing to 14 matrices.
 Large coefficients: NSaved= 14 BigCof=   10.77 CofMax=   10.00 Det=-8.74D-09
 Inversion failed.  Reducing to 13 matrices.
 Large coefficients: NSaved= 13 BigCof=   18.42 CofMax=   10.00 Det=-1.26D-08
 Inversion failed.  Reducing to 12 matrices.
 Large coefficients: NSaved= 12 BigCof=   18.72 CofMax=   10.00 Det=-1.27D-08
 Inversion failed.  Reducing to 11 matrices.
 Large coefficients: NSaved= 11 BigCof=   18.47 CofMax=   10.00 Det=-1.29D-08
 Inversion failed.  Reducing to 10 matrices.
 Large coefficients: NSaved= 10 BigCof=   26.30 CofMax=   10.00 Det=-2.37D-08
 Inversion failed.  Reducing to  9 matrices.
 Large coefficients: NSaved=  9 BigCof=   26.02 CofMax=   10.00 Det=-2.37D-08
 Inversion failed.  Reducing to  8 matrices.
 Large coefficients: NSaved=  8 BigCof=   26.83 CofMax=   10.00 Det=-2.57D-08
 Inversion failed.  Reducing to  7 matrices.
 Large coefficients: NSaved=  7 BigCof=   31.49 CofMax=   10.00 Det=-2.69D-08
 Inversion failed.  Reducing to  6 matrices.
 Large coefficients: NSaved=  6 BigCof=   31.27 CofMax=   10.00 Det=-2.69D-08
 Inversion failed.  Reducing to  5 matrices.
 Large coefficients: NSaved=  5 BigCof=   31.67 CofMax=   10.00 Det=-2.82D-08
 Inversion failed.  Reducing to  4 matrices.
 Large coefficients: NSaved=  4 BigCof=   31.28 CofMax=   10.00 Det=-2.83D-08
 Inversion failed.  Reducing to  3 matrices.
 Large coefficients: NSaved=  3 BigCof=   31.36 CofMax=   10.00 Det=-2.83D-08
 Inversion failed.  Reducing to  2 matrices.
 Large coefficients: NSaved=  2 BigCof=   32.44 CofMax=   10.00 Det=-3.63D-08
 Coeff-Com: -0.314D+02 0.324D+02
 Coeff-En:   0.000D+00 0.100D+01
 Coeff:     -0.314D+02 0.324D+02
 Gap=     0.271 Goal=   None    Shift=    0.000
 Gap=     0.279 Goal=   None    Shift=    0.000
 RMSDP=7.52D-04 MaxDP=3.17D-02 DE= 5.30D-05 OVMax= 1.79D-01

 Cycle  18  Pass 1  IDiag  1:
 RMSU=  3.26D-05    CP:  1.00D+00  1.29D+00  5.18D-01 -1.33D+00 -2.87D+00
                    CP: -3.00D+00 -3.00D+00 -3.00D+00  3.00D+00  3.00D+00
                    CP:  3.00D+00  3.00D+00  1.09D+00  5.00D-01 -8.46D-01
                    CP: -3.00D+00  3.00D+00
 CoulSu:  requested number of processors reduced to:  20 ShMem   1 Linda.
 E= -610.470561054251     Delta-E=        0.002192682566 Rises=F Damp=F
 DIIS: error= 8.36D-04 at cycle  18 NSaved=   3.
 NSaved= 3 IEnMin= 1 EnMin= -610.472806698928     IErMin= 2 ErrMin= 2.95D-04
 ErrMax= 8.36D-04  0.00D+00 EMaxC= 1.00D-01 BMatC= 4.58D-04 BMatP= 6.62D-05
 IDIUse=3 WtCom= 9.98D-01 WtEn= 2.48D-03
 Large coefficients: NSaved=  3 BigCof=   16.21 CofMax=   10.00 Det=-1.40D-08
 Inversion failed.  Reducing to  2 matrices.
 Coeff-Com:  0.143D+01-0.431D+00
 Coeff-En:   0.000D+00 0.100D+01
 Coeff:      0.143D+01-0.427D+00
 Gap=     0.237 Goal=   None    Shift=    0.000
 Gap=     0.250 Goal=   None    Shift=    0.000
 RMSDP=1.09D-03 MaxDP=4.82D-02 DE= 2.19D-03 OVMax= 2.74D-01

 Cycle  19  Pass 1  IDiag  1:
 RMSU=  9.85D-06    CP:  1.01D+00  1.40D+00  7.22D-01  4.96D-01 -2.24D-01
                    CP: -3.00D+00 -3.00D+00 -3.00D+00  3.00D+00  1.22D+00
                    CP:  1.32D-01  5.23D-02 -3.36D-03  8.31D-01  3.00D+00
                    CP:  3.00D+00 -3.00D+00 -1.37D-02
 CoulSu:  requested number of processors reduced to:  20 ShMem   1 Linda.
 E= -610.473621919170     Delta-E=       -0.003060864920 Rises=F Damp=F
 DIIS: error= 5.08D-04 at cycle  19 NSaved=   3.
 NSaved= 3 IEnMin= 3 EnMin= -610.473621919170     IErMin= 1 ErrMin= 2.95D-04
 ErrMax= 5.08D-04  0.00D+00 EMaxC= 1.00D-01 BMatC= 1.20D-04 BMatP= 6.62D-05
 IDIUse=3 WtCom= 9.98D-01 WtEn= 2.48D-03
 Coeff-Com:  0.935D+00-0.613D+00 0.678D+00
 Coeff-En:   0.000D+00 0.000D+00 0.100D+01
 Coeff:      0.933D+00-0.611D+00 0.678D+00
 Gap=     0.254 Goal=   None    Shift=    0.000
 Gap=     0.258 Goal=   None    Shift=    0.000
 RMSDP=3.75D-04 MaxDP=1.92D-02 DE=-3.06D-03 OVMax= 9.16D-02

 Cycle  20  Pass 1  IDiag  1:
 RMSU=  3.62D-05    CP:  1.01D+00  1.45D+00  7.66D-01  1.13D+00  7.71D-01
                    CP: -3.41D-01 -2.50D+00 -3.00D+00  3.00D+00  2.08D-01
                    CP: -1.97D-01 -7.07D-01  1.54D-02  1.83D-03  3.00D+00
                    CP:  3.00D+00  3.00D+00  6.51D-03  3.00D+00
 CoulSu:  requested number of processors reduced to:  20 ShMem   1 Linda.
 E= -610.475153472615     Delta-E=       -0.001531553445 Rises=F Damp=F
 DIIS: error= 1.10D-03 at cycle  20 NSaved=   4.
 NSaved= 4 IEnMin= 4 EnMin= -610.475153472615     IErMin= 1 ErrMin= 2.95D-04
 ErrMax= 1.10D-03  0.00D+00 EMaxC= 1.00D-01 BMatC= 8.56D-04 BMatP= 6.62D-05
 IDIUse=3 WtCom= 9.98D-01 WtEn= 2.48D-03
 Coeff-Com:  0.128D+01-0.312D+00 0.261D+00-0.230D+00
 Coeff-En:   0.000D+00 0.000D+00 0.000D+00 0.100D+01
 Coeff:      0.128D+01-0.312D+00 0.261D+00-0.227D+00
 Gap=     0.252 Goal=   None    Shift=    0.000
 Gap=     0.252 Goal=   None    Shift=    0.000
 RMSDP=5.36D-04 MaxDP=2.70D-02 DE=-1.53D-03 OVMax= 1.35D-01

 Cycle  21  Pass 1  IDiag  1:
 Restarting incremental Fock formation.
 CoulSu:  requested number of processors reduced to:  20 ShMem   1 Linda.
 E= -610.473144768172     Delta-E=        0.002008704443 Rises=F Damp=F
 DIIS: error= 4.48D-04 at cycle  21 NSaved=   5.
 NSaved= 5 IEnMin= 4 EnMin= -610.475153472615     IErMin= 1 ErrMin= 2.95D-04
 ErrMax= 4.48D-04  0.00D+00 EMaxC= 1.00D-01 BMatC= 1.44D-04 BMatP= 6.62D-05
 IDIUse=3 WtCom= 9.98D-01 WtEn= 2.48D-03
 Rare condition: small coef for last iteration:  0.000D+00
 Coeff-Com:  0.861D+00-0.326D+00 0.284D+00-0.318D+00 0.500D+00
 Coeff-En:   0.000D+00 0.000D+00 0.000D+00 0.000D+00 0.100D+01
 Coeff:      0.861D+00-0.326D+00 0.284D+00-0.318D+00 0.500D+00
 Gap=     0.257 Goal=   None    Shift=    0.000
 Gap=     0.260 Goal=   None    Shift=    0.000
 RMSDP=4.52D-05 MaxDP=2.25D-03 DE= 2.01D-03 OVMax= 1.13D-02

 Cycle  22  Pass 1  IDiag  1:
 RMSU=  4.52D-05    CP:  1.00D+00
 CoulSu:  requested number of processors reduced to:  20 ShMem   1 Linda.
 E= -610.473253835689     Delta-E=       -0.000109067517 Rises=F Damp=F
 DIIS: error= 5.20D-04 at cycle  22 NSaved=   6.
 NSaved= 6 IEnMin= 4 EnMin= -610.475153472615     IErMin= 1 ErrMin= 2.95D-04
 ErrMax= 5.20D-04  0.00D+00 EMaxC= 1.00D-01 BMatC= 1.97D-04 BMatP= 6.62D-05
 IDIUse=3 WtCom= 9.98D-01 WtEn= 2.48D-03
 Coeff-Com:  0.749D+00-0.330D+00 0.381D+00-0.471D+00-0.582D+00 0.125D+01
 Coeff-En:   0.000D+00 0.000D+00 0.000D+00 0.000D+00 0.000D+00 0.100D+01
 Coeff:      0.747D+00-0.329D+00 0.380D+00-0.470D+00-0.581D+00 0.125D+01
 Gap=     0.257 Goal=   None    Shift=    0.000
 Gap=     0.261 Goal=   None    Shift=    0.000
 RMSDP=1.48D-05 MaxDP=7.31D-04 DE=-1.09D-04 OVMax= 3.80D-03

 Cycle  23  Pass 1  IDiag  1:
 RMSU=  2.85D-06    CP:  1.00D+00  1.32D+00
 CoulSu:  requested number of processors reduced to:  20 ShMem   1 Linda.
 E= -610.473282892554     Delta-E=       -0.000029056866 Rises=F Damp=F
 DIIS: error= 5.88D-04 at cycle  23 NSaved=   7.
 NSaved= 7 IEnMin= 4 EnMin= -610.475153472615     IErMin= 1 ErrMin= 2.95D-04
 ErrMax= 5.88D-04  0.00D+00 EMaxC= 1.00D-01 BMatC= 2.52D-04 BMatP= 6.62D-05
 IDIUse=3 WtCom= 9.98D-01 WtEn= 2.48D-03
 Coeff-Com:  0.103D+01-0.310D+00 0.368D+00-0.446D+00-0.670D+00 0.468D+00
 Coeff-Com:  0.558D+00
 Coeff-En:   0.000D+00 0.000D+00 0.000D+00 0.000D+00 0.000D+00 0.000D+00
 Coeff-En:   0.100D+01
 Coeff:      0.103D+01-0.309D+00 0.367D+00-0.445D+00-0.668D+00 0.466D+00
 Coeff:      0.560D+00
 Gap=     0.258 Goal=   None    Shift=    0.000
 Gap=     0.261 Goal=   None    Shift=    0.000
 RMSDP=6.25D-05 MaxDP=3.05D-03 DE=-2.91D-05 OVMax= 1.58D-02

 Cycle  24  Pass 1  IDiag  1:
 RMSU=  1.80D-06    CP:  1.00D+00 -5.85D-02  2.09D+00
 CoulSu:  requested number of processors reduced to:  20 ShMem   1 Linda.
 E= -610.473124969374     Delta-E=        0.000157923180 Rises=F Damp=F
 DIIS: error= 5.29D-04 at cycle  24 NSaved=   8.
 NSaved= 8 IEnMin= 4 EnMin= -610.475153472615     IErMin= 1 ErrMin= 2.95D-04
 ErrMax= 5.29D-04  0.00D+00 EMaxC= 1.00D-01 BMatC= 2.05D-04 BMatP= 6.62D-05
 IDIUse=3 WtCom= 9.98D-01 WtEn= 2.48D-03
 Rare condition: small coef for last iteration:  0.000D+00
 Coeff-Com:  0.670D+00-0.243D+00 0.221D+00-0.865D-01 0.147D+01-0.269D+01
 Coeff-Com: -0.241D+01 0.407D+01
 Coeff-En:   0.000D+00 0.000D+00 0.000D+00 0.000D+00 0.000D+00 0.000D+00
 Coeff-En:   0.000D+00 0.100D+01
 Coeff:      0.670D+00-0.243D+00 0.221D+00-0.865D-01 0.147D+01-0.269D+01
 Coeff:     -0.241D+01 0.407D+01
 Gap=     0.259 Goal=   None    Shift=    0.000
 Gap=     0.262 Goal=   None    Shift=    0.000
 RMSDP=1.61D-04 MaxDP=7.77D-03 DE= 1.58D-04 OVMax= 4.05D-02

 Cycle  25  Pass 1  IDiag  1:
 RMSU=  2.88D-05    CP:  1.00D+00 -3.00D+00  3.00D+00  1.70D+00
 CoulSu:  requested number of processors reduced to:  20 ShMem   1 Linda.
 E= -610.472783943758     Delta-E=        0.000341025616 Rises=F Damp=F
 DIIS: error= 3.86D-04 at cycle  25 NSaved=   9.
 NSaved= 9 IEnMin= 4 EnMin= -610.475153472615     IErMin= 1 ErrMin= 2.95D-04
 ErrMax= 3.86D-04  0.00D+00 EMaxC= 1.00D-01 BMatC= 1.09D-04 BMatP= 6.62D-05
 IDIUse=3 WtCom= 9.98D-01 WtEn= 2.48D-03
 Rare condition: small coef for last iteration:  0.000D+00
 Coeff-Com: -0.368D+00-0.231D+00 0.146D+00 0.789D-01 0.185D+01-0.229D+01
 Coeff-Com: -0.365D+01 0.375D+01 0.171D+01
 Coeff-En:   0.000D+00 0.000D+00 0.000D+00 0.000D+00 0.000D+00 0.000D+00
 Coeff-En:   0.000D+00 0.000D+00 0.100D+01
 Coeff:     -0.368D+00-0.231D+00 0.146D+00 0.789D-01 0.185D+01-0.229D+01
 Coeff:     -0.365D+01 0.375D+01 0.171D+01
 Gap=     0.260 Goal=   None    Shift=    0.000
 Gap=     0.264 Goal=   None    Shift=    0.000
 RMSDP=8.12D-05 MaxDP=3.85D-03 DE= 3.41D-04 OVMax= 2.05D-02

 Cycle  26  Pass 1  IDiag  1:
 RMSU=  2.72D-05    CP:  1.00D+00 -3.00D+00  3.00D+00  1.68D+00  3.00D+00
 CoulSu:  requested number of processors reduced to:  20 ShMem   1 Linda.
 E= -610.472633152163     Delta-E=        0.000150791595 Rises=F Damp=F
 DIIS: error= 3.37D-04 at cycle  26 NSaved=  10.
 NSaved=10 IEnMin= 4 EnMin= -610.475153472615     IErMin= 1 ErrMin= 2.95D-04
 ErrMax= 3.37D-04  0.00D+00 EMaxC= 1.00D-01 BMatC= 8.36D-05 BMatP= 6.62D-05
 IDIUse=3 WtCom= 9.98D-01 WtEn= 2.48D-03
 Rare condition: small coef for last iteration:  0.000D+00
 Coeff-Com: -0.162D-01-0.234D+00 0.158D+00 0.220D-01 0.136D+01-0.237D+01
 Coeff-Com: -0.257D+01 0.327D+01 0.655D+00 0.722D+00
 Coeff-En:   0.000D+00 0.000D+00 0.000D+00 0.000D+00 0.000D+00 0.000D+00
 Coeff-En:   0.000D+00 0.000D+00 0.000D+00 0.100D+01
 Coeff:     -0.162D-01-0.234D+00 0.158D+00 0.220D-01 0.136D+01-0.237D+01
 Coeff:     -0.257D+01 0.327D+01 0.655D+00 0.722D+00
 Gap=     0.261 Goal=   None    Shift=    0.000
 Gap=     0.263 Goal=   None    Shift=    0.000
 RMSDP=3.10D-05 MaxDP=1.43D-03 DE= 1.51D-04 OVMax= 7.79D-03

 Cycle  27  Pass 1  IDiag  1:
 RMSU=  1.39D-05    CP:  1.00D+00 -3.00D+00  3.00D+00  1.67D+00  3.00D+00
                    CP:  2.02D+00
 CoulSu:  requested number of processors reduced to:  20 ShMem   1 Linda.
 E= -610.472575509161     Delta-E=        0.000057643002 Rises=F Damp=F
 DIIS: error= 3.43D-04 at cycle  27 NSaved=  11.
 NSaved=11 IEnMin= 4 EnMin= -610.475153472615     IErMin= 1 ErrMin= 2.95D-04
 ErrMax= 3.43D-04  0.00D+00 EMaxC= 1.00D-01 BMatC= 8.63D-05 BMatP= 6.62D-05
 IDIUse=3 WtCom= 9.98D-01 WtEn= 2.48D-03
 Rare condition: small coef for last iteration:  0.000D+00
 Coeff-Com:  0.191D+00-0.241D+00 0.158D+00 0.606D-02 0.137D+01-0.235D+01
 Coeff-Com: -0.225D+01 0.307D+01 0.716D-01-0.375D+00 0.136D+01
 Coeff-En:   0.000D+00 0.000D+00 0.000D+00 0.000D+00 0.000D+00 0.000D+00
 Coeff-En:   0.000D+00 0.000D+00 0.000D+00 0.000D+00 0.100D+01
 Coeff:      0.191D+00-0.241D+00 0.158D+00 0.606D-02 0.137D+01-0.235D+01
 Coeff:     -0.225D+01 0.307D+01 0.716D-01-0.375D+00 0.136D+01
 Gap=     0.262 Goal=   None    Shift=    0.000
 Gap=     0.263 Goal=   None    Shift=    0.000
 RMSDP=3.15D-05 MaxDP=1.45D-03 DE= 5.76D-05 OVMax= 7.95D-03

 Cycle  28  Pass 1  IDiag  1:
 RMSU=  1.59D-06    CP:  1.00D+00 -3.00D+00  3.00D+00  1.51D+00  3.00D+00
                    CP:  3.00D+00  2.03D+00
 CoulSu:  requested number of processors reduced to:  20 ShMem   1 Linda.
 E= -610.472518421982     Delta-E=        0.000057087179 Rises=F Damp=F
 DIIS: error= 3.42D-04 at cycle  28 NSaved=  12.
 NSaved=12 IEnMin= 4 EnMin= -610.475153472615     IErMin= 1 ErrMin= 2.95D-04
 ErrMax= 3.42D-04  0.00D+00 EMaxC= 1.00D-01 BMatC= 8.50D-05 BMatP= 6.62D-05
 IDIUse=3 WtCom= 9.98D-01 WtEn= 2.48D-03
 Rare condition: small coef for last iteration:  0.000D+00
 Coeff-Com:  0.164D+00-0.247D+00 0.167D+00 0.100D-01 0.135D+01-0.230D+01
 Coeff-Com: -0.231D+01 0.307D+01 0.258D+00-0.245D+00-0.202D+00 0.129D+01
 Coeff-En:   0.000D+00 0.000D+00 0.000D+00 0.000D+00 0.000D+00 0.000D+00
 Coeff-En:   0.000D+00 0.000D+00 0.000D+00 0.000D+00 0.000D+00 0.100D+01
 Coeff:      0.164D+00-0.247D+00 0.167D+00 0.100D-01 0.135D+01-0.230D+01
 Coeff:     -0.231D+01 0.307D+01 0.258D+00-0.245D+00-0.202D+00 0.129D+01
 Gap=     0.262 Goal=   None    Shift=    0.000
 Gap=     0.263 Goal=   None    Shift=    0.000
 RMSDP=1.32D-05 MaxDP=6.10D-04 DE= 5.71D-05 OVMax= 3.34D-03

 Cycle  29  Pass 1  IDiag  1:
 RMSU=  9.26D-06    CP:  1.00D+00 -3.00D+00  3.00D+00  1.42D+00  3.00D+00
                    CP:  3.00D+00  2.47D+00  3.00D+00
 CoulSu:  requested number of processors reduced to:  20 ShMem   1 Linda.
 E= -610.472494745838     Delta-E=        0.000023676143 Rises=F Damp=F
 DIIS: error= 3.39D-04 at cycle  29 NSaved=  13.
 NSaved=13 IEnMin= 4 EnMin= -610.475153472615     IErMin= 1 ErrMin= 2.95D-04
 ErrMax= 3.39D-04  0.00D+00 EMaxC= 1.00D-01 BMatC= 8.37D-05 BMatP= 6.62D-05
 IDIUse=3 WtCom= 9.98D-01 WtEn= 2.48D-03
 Rare condition: small coef for last iteration:  0.000D+00
 Coeff-Com:  0.225D+00-0.255D+00 0.186D+00-0.177D-02 0.103D+01-0.242D+01
 Coeff-Com: -0.200D+01 0.308D+01 0.434D+00 0.745D+00-0.159D+01-0.264D+01
 Coeff-Com:  0.419D+01
 Coeff-En:   0.000D+00 0.000D+00 0.000D+00 0.000D+00 0.000D+00 0.000D+00
 Coeff-En:   0.000D+00 0.000D+00 0.000D+00 0.000D+00 0.000D+00 0.000D+00
 Coeff-En:   0.100D+01
 Coeff:      0.225D+00-0.255D+00 0.186D+00-0.177D-02 0.103D+01-0.242D+01
 Coeff:     -0.200D+01 0.308D+01 0.434D+00 0.745D+00-0.159D+01-0.264D+01
 Coeff:      0.419D+01
 Gap=     0.262 Goal=   None    Shift=    0.000
 Gap=     0.263 Goal=   None    Shift=    0.000
 RMSDP=1.91D-05 MaxDP=8.75D-04 DE= 2.37D-05 OVMax= 4.82D-03

 Cycle  30  Pass 1  IDiag  1:
 RMSU=  3.40D-06    CP:  1.00D+00 -3.00D+00  3.00D+00  1.31D+00  3.00D+00
                    CP:  3.00D+00  3.00D+00  3.00D+00  2.79D+00
 CoulSu:  requested number of processors reduced to:  20 ShMem   1 Linda.
 E= -610.472459988490     Delta-E=        0.000034757348 Rises=F Damp=F
 DIIS: error= 3.42D-04 at cycle  30 NSaved=  14.
 NSaved=14 IEnMin= 4 EnMin= -610.475153472615     IErMin= 1 ErrMin= 2.95D-04
 ErrMax= 3.42D-04  0.00D+00 EMaxC= 1.00D-01 BMatC= 8.48D-05 BMatP= 6.62D-05
 IDIUse=3 WtCom= 9.98D-01 WtEn= 2.48D-03
 Large coefficients: NSaved= 14 BigCof=   13.80 CofMax=   10.00 Det=-1.73D-10
 Inversion failed.  Reducing to 13 matrices.
 Large coefficients: NSaved= 13 BigCof=   16.50 CofMax=   10.00 Det=-1.92D-10
 Inversion failed.  Reducing to 12 matrices.
 Rare condition: small coef for last iteration:  0.000D+00
 Coeff-Com: -0.225D+00-0.168D+00 0.335D+00 0.316D+01-0.564D+01-0.479D+01
 Coeff-Com:  0.628D+01 0.147D+01 0.185D+00 0.672D+01 0.268D+01-0.900D+01
 Coeff-En:   0.000D+00 0.000D+00 0.000D+00 0.000D+00 0.000D+00 0.000D+00
 Coeff-En:   0.000D+00 0.000D+00 0.000D+00 0.000D+00 0.000D+00 0.100D+01
 Coeff:     -0.225D+00-0.168D+00 0.335D+00 0.316D+01-0.564D+01-0.479D+01
 Coeff:      0.628D+01 0.147D+01 0.185D+00 0.672D+01 0.268D+01-0.900D+01
 Gap=     0.261 Goal=   None    Shift=    0.000
 Gap=     0.263 Goal=   None    Shift=    0.000
 RMSDP=5.10D-05 MaxDP=2.54D-03 DE= 3.48D-05 OVMax= 1.28D-02

 Cycle  31  Pass 1  IDiag  1:
 RMSU=  7.34D-06    CP:  1.00D+00 -3.00D+00  3.00D+00  1.55D+00  3.00D+00
                    CP:  2.46D+00  1.44D+00 -3.77D-01  5.42D-02 -2.21D-01
 CoulSu:  requested number of processors reduced to:  20 ShMem   1 Linda.
 E= -610.472548992477     Delta-E=       -0.000089003987 Rises=F Damp=F
 DIIS: error= 3.41D-04 at cycle  31 NSaved=  13.
 NSaved=13 IEnMin= 3 EnMin= -610.475153472615     IErMin= 1 ErrMin= 2.95D-04
 ErrMax= 3.41D-04  0.00D+00 EMaxC= 1.00D-01 BMatC= 9.09D-05 BMatP= 6.62D-05
 IDIUse=3 WtCom= 9.98D-01 WtEn= 2.48D-03
 Large coefficients: NSaved= 13 BigCof=   11.22 CofMax=   10.00 Det=-3.08D-10
 Inversion failed.  Reducing to 12 matrices.
 Large coefficients: NSaved= 12 BigCof=   12.05 CofMax=   10.00 Det=-1.63D-09
 Inversion failed.  Reducing to 11 matrices.
 Coeff-Com: -0.219D+00-0.147D-01 0.251D+00 0.117D+01-0.533D+01-0.405D+01
 Coeff-Com:  0.632D+01 0.301D+01 0.651D+01-0.558D+01-0.107D+01
 Coeff-En:   0.000D+00 0.000D+00 0.000D+00 0.000D+00 0.000D+00 0.000D+00
 Coeff-En:   0.000D+00 0.000D+00 0.000D+00 0.000D+00 0.100D+01
 Coeff:     -0.218D+00-0.146D-01 0.250D+00 0.117D+01-0.532D+01-0.404D+01
 Coeff:      0.630D+01 0.300D+01 0.650D+01-0.556D+01-0.107D+01
 Gap=     0.260 Goal=   None    Shift=    0.000
 Gap=     0.264 Goal=   None    Shift=    0.000
 RMSDP=9.54D-05 MaxDP=4.28D-03 DE=-8.90D-05 OVMax= 2.42D-02

 Cycle  32  Pass 1  IDiag  1:
 RMSU=  2.08D-06    CP:  1.00D+00 -3.00D+00  3.00D+00  1.98D+00  2.03D+00
                    CP:  1.24D-01 -3.16D-01 -1.28D+00  2.04D-01 -4.90D-01
                    CP:  1.90D-01
 CoulSu:  requested number of processors reduced to:  20 ShMem   1 Linda.
 E= -610.472722447483     Delta-E=       -0.000173455006 Rises=F Damp=F
 DIIS: error= 3.90D-04 at cycle  32 NSaved=  12.
 NSaved=12 IEnMin= 3 EnMin= -610.475153472615     IErMin= 1 ErrMin= 2.95D-04
 ErrMax= 3.90D-04  0.00D+00 EMaxC= 1.00D-01 BMatC= 1.16D-04 BMatP= 6.62D-05
 IDIUse=3 WtCom= 9.98D-01 WtEn= 2.48D-03
 Coeff-Com: -0.332D+00-0.627D-01 0.294D+00 0.168D+01-0.518D+01-0.468D+01
 Coeff-Com:  0.630D+01 0.274D+01 0.617D+01-0.522D+01-0.172D+01 0.101D+01
 Coeff-En:   0.000D+00 0.000D+00 0.000D+00 0.000D+00 0.000D+00 0.000D+00
 Coeff-En:   0.000D+00 0.000D+00 0.000D+00 0.000D+00 0.000D+00 0.100D+01
 Coeff:     -0.331D+00-0.626D-01 0.294D+00 0.168D+01-0.517D+01-0.467D+01
 Coeff:      0.628D+01 0.274D+01 0.615D+01-0.521D+01-0.172D+01 0.101D+01
 Gap=     0.260 Goal=   None    Shift=    0.000
 Gap=     0.264 Goal=   None    Shift=    0.000
 RMSDP=5.35D-06 MaxDP=1.96D-04 DE=-1.73D-04 OVMax= 1.33D-03

 Cycle  33  Pass 1  IDiag  1:
 RMSU=  5.86D-07    CP:  1.00D+00 -3.00D+00  3.00D+00  1.99D+00  1.88D+00
                    CP:  1.03D-01 -2.65D-01 -9.97D-01  1.62D-01 -3.47D-01
                    CP: -1.47D-01  1.35D+00
 CoulSu:  requested number of processors reduced to:  20 ShMem   1 Linda.
 E= -610.472732254386     Delta-E=       -0.000009806903 Rises=F Damp=F
 DIIS: error= 3.86D-04 at cycle  33 NSaved=  13.
 NSaved=13 IEnMin= 3 EnMin= -610.475153472615     IErMin= 1 ErrMin= 2.95D-04
 ErrMax= 3.86D-04  0.00D+00 EMaxC= 1.00D-01 BMatC= 1.13D-04 BMatP= 6.62D-05
 IDIUse=3 WtCom= 9.98D-01 WtEn= 2.48D-03
 Coeff-Com:  0.135D+00-0.520D-01 0.222D+00 0.863D+00-0.463D+01-0.363D+01
 Coeff-Com:  0.537D+01 0.183D+01 0.722D+01-0.536D+01-0.230D+01 0.355D+01
 Coeff-Com: -0.220D+01
 Coeff-En:   0.000D+00 0.000D+00 0.000D+00 0.000D+00 0.000D+00 0.000D+00
 Coeff-En:   0.000D+00 0.000D+00 0.000D+00 0.000D+00 0.000D+00 0.000D+00
 Coeff-En:   0.100D+01
 Coeff:      0.135D+00-0.519D-01 0.222D+00 0.861D+00-0.462D+01-0.363D+01
 Coeff:      0.536D+01 0.182D+01 0.720D+01-0.534D+01-0.230D+01 0.354D+01
 Coeff:     -0.219D+01
 Gap=     0.260 Goal=   None    Shift=    0.000
 Gap=     0.264 Goal=   None    Shift=    0.000
 RMSDP=1.97D-06 MaxDP=7.82D-05 DE=-9.81D-06 OVMax= 5.01D-04

 Cycle  34  Pass 1  IDiag  1:
 RMSU=  2.70D-07    CP:  1.00D+00 -3.00D+00  3.00D+00  2.06D+00  1.88D+00
                    CP:  1.01D-01 -2.54D-01 -1.34D+00  2.15D-01 -5.02D-01
                    CP:  6.27D-02  1.10D+00 -1.46D-02
 CoulSu:  requested number of processors reduced to:  20 ShMem   1 Linda.
 E= -610.472730566538     Delta-E=        0.000001687848 Rises=F Damp=F
 DIIS: error= 4.01D-04 at cycle  34 NSaved=  14.
 NSaved=14 IEnMin= 3 EnMin= -610.475153472615     IErMin= 1 ErrMin= 2.95D-04
 ErrMax= 4.01D-04  0.00D+00 EMaxC= 1.00D-01 BMatC= 1.21D-04 BMatP= 6.62D-05
 IDIUse=3 WtCom= 9.98D-01 WtEn= 2.48D-03
 Rare condition: small coef for last iteration:  0.000D+00
 Coeff-Com: -0.121D+00-0.328D-01 0.214D+00 0.107D+01-0.312D+01-0.483D+01
 Coeff-Com:  0.469D+01 0.202D+01 0.720D+01-0.531D+01-0.335D+01 0.480D+01
 Coeff-Com: -0.644D+01 0.420D+01
 Coeff-En:   0.000D+00 0.000D+00 0.000D+00 0.000D+00 0.000D+00 0.000D+00
 Coeff-En:   0.000D+00 0.000D+00 0.000D+00 0.000D+00 0.000D+00 0.000D+00
 Coeff-En:   0.000D+00 0.100D+01
 Coeff:     -0.121D+00-0.328D-01 0.214D+00 0.107D+01-0.312D+01-0.483D+01
 Coeff:      0.469D+01 0.202D+01 0.720D+01-0.531D+01-0.335D+01 0.480D+01
 Coeff:     -0.644D+01 0.420D+01
 Gap=     0.259 Goal=   None    Shift=    0.000
 DSYEVD-2 returned Info=         317 IAlg= 4 N=   211 NDim=   211 NE2=      495949 trying  DSYEV.
 Gap=     0.262 Goal=   None    Shift=    0.000
 RMSDP=6.61D-05 MaxDP=3.16D-03 DE= 1.69D-06 OVMax= 1.67D-02

 Cycle  35  Pass 1  IDiag  1:
 RMSU=  1.66D-06    CP:  1.00D+00 -2.71D+00  3.00D+00  1.91D+00  6.71D-02
                    CP: -1.29D-01  3.48D-01 -8.05D-01  1.28D-01 -3.39D-01
                    CP:  1.75D-01  7.21D-01 -2.77D-02  3.00D+00
 CoulSu:  requested number of processors reduced to:  20 ShMem   1 Linda.
 E= -610.472858962129     Delta-E=       -0.000128395591 Rises=F Damp=F
 DIIS: error= 4.40D-04 at cycle  35 NSaved=  15.
 NSaved=15 IEnMin= 3 EnMin= -610.475153472615     IErMin= 1 ErrMin= 2.95D-04
 ErrMax= 4.40D-04  0.00D+00 EMaxC= 1.00D-01 BMatC= 1.45D-04 BMatP= 6.62D-05
 IDIUse=3 WtCom= 9.98D-01 WtEn= 2.48D-03
 Large coefficients: NSaved= 15 BigCof=   10.62 CofMax=   10.00 Det=-3.22D-09
 Inversion failed.  Reducing to 14 matrices.
 Coeff-Com:  0.461D+00-0.199D+00 0.498D+00 0.282D+01-0.494D+01-0.533D+01
 Coeff-Com:  0.529D+01 0.643D+00 0.182D+01-0.326D+01 0.548D+01-0.679D+01
 Coeff-Com:  0.511D+01-0.611D+00
 Coeff-En:   0.000D+00 0.000D+00 0.000D+00 0.000D+00 0.000D+00 0.000D+00
 Coeff-En:   0.000D+00 0.000D+00 0.000D+00 0.000D+00 0.000D+00 0.000D+00
 Coeff-En:   0.000D+00 0.100D+01
 Coeff:      0.460D+00-0.199D+00 0.497D+00 0.281D+01-0.492D+01-0.532D+01
 Coeff:      0.528D+01 0.642D+00 0.182D+01-0.325D+01 0.546D+01-0.677D+01
 Coeff:      0.510D+01-0.607D+00
 Gap=     0.265 Goal=   None    Shift=    0.000
 Gap=     0.270 Goal=   None    Shift=    0.000
 RMSDP=5.22D-04 MaxDP=2.35D-02 DE=-1.28D-04 OVMax= 1.30D-01

 Cycle  36  Pass 1  IDiag  1:
 RMSU=  3.01D-04    CP:  1.00D+00 -3.00D+00  3.00D+00 -3.00D+00  3.00D+00
                    CP:  3.00D+00  3.00D+00  3.00D+00  3.00D+00  3.00D+00
                    CP:  1.97D+00  3.00D+00 -3.00D+00 -3.00D+00  1.50D+00
 CoulSu:  requested number of processors reduced to:  20 ShMem   1 Linda.
 E= -610.471780082457     Delta-E=        0.001078879671 Rises=F Damp=F
 DIIS: error= 4.81D-04 at cycle  36 NSaved=  15.
 NSaved=15 IEnMin= 3 EnMin= -610.475153472615     IErMin= 1 ErrMin= 2.95D-04
 ErrMax= 4.81D-04  0.00D+00 EMaxC= 1.00D-01 BMatC= 1.75D-04 BMatP= 6.62D-05
 IDIUse=3 WtCom= 9.98D-01 WtEn= 2.48D-03
 Rare condition: small coef for last iteration:  0.000D+00
 Coeff-Com:  0.198D+00 0.358D-01-0.108D+00 0.178D-01-0.353D+00-0.830D+00
 Coeff-Com:  0.532D+00-0.498D+00 0.252D+01-0.793D+00 0.100D+01-0.108D+01
 Coeff-Com:  0.142D+01-0.178D+00-0.878D+00
 Coeff-En:   0.000D+00 0.000D+00 0.000D+00 0.000D+00 0.000D+00 0.000D+00
 Coeff-En:   0.000D+00 0.000D+00 0.000D+00 0.000D+00 0.000D+00 0.000D+00
 Coeff-En:   0.000D+00 0.000D+00 0.100D+01
 Coeff:      0.198D+00 0.358D-01-0.108D+00 0.178D-01-0.353D+00-0.830D+00
 Coeff:      0.532D+00-0.498D+00 0.252D+01-0.793D+00 0.100D+01-0.108D+01
 Coeff:      0.142D+01-0.178D+00-0.878D+00
 Gap=     0.254 Goal=   None    Shift=    0.000
 Gap=     0.260 Goal=   None    Shift=    0.000
 RMSDP=5.35D-04 MaxDP=2.40D-02 DE= 1.08D-03 OVMax= 1.35D-01

 Cycle  37  Pass 1  IDiag  1:
 RMSU=  1.11D-06    CP:  1.00D+00 -2.43D+00  3.00D+00  1.69D+00  5.63D-02
                    CP: -1.05D-01  2.77D-01 -3.78D-01  6.16D-02 -1.71D-01
                    CP: -1.75D-01  2.27D-01  3.10D-01  3.00D+00  1.24D+00
                    CP:  5.05D-04
 CoulSu:  requested number of processors reduced to:  20 ShMem   1 Linda.
 E= -610.472886639475     Delta-E=       -0.001106557017 Rises=F Damp=F
 DIIS: error= 4.36D-04 at cycle  37 NSaved=  16.
 NSaved=16 IEnMin= 3 EnMin= -610.475153472615     IErMin= 1 ErrMin= 2.95D-04
 ErrMax= 4.36D-04  0.00D+00 EMaxC= 1.00D-01 BMatC= 1.40D-04 BMatP= 6.62D-05
 IDIUse=3 WtCom= 9.98D-01 WtEn= 2.48D-03
 Coeff-Com:  0.196D+00 0.372D-01-0.107D+00 0.961D-01-0.387D+00-0.108D+01
 Coeff-Com:  0.734D+00-0.435D+00 0.226D+01-0.701D+00 0.709D+00-0.863D+00
 Coeff-Com:  0.131D+01-0.140D+00-0.877D+00 0.240D+00
 Coeff-En:   0.000D+00 0.000D+00 0.000D+00 0.000D+00 0.000D+00 0.000D+00
 Coeff-En:   0.000D+00 0.000D+00 0.000D+00 0.000D+00 0.000D+00 0.000D+00
 Coeff-En:   0.000D+00 0.000D+00 0.000D+00 0.100D+01
 Coeff:      0.196D+00 0.372D-01-0.107D+00 0.958D-01-0.386D+00-0.107D+01
 Coeff:      0.732D+00-0.434D+00 0.225D+01-0.699D+00 0.708D+00-0.861D+00
 Coeff:      0.131D+01-0.140D+00-0.875D+00 0.242D+00
 Gap=     0.259 Goal=   None    Shift=    0.000
 Gap=     0.262 Goal=   None    Shift=    0.000
 RMSDP=1.37D-05 MaxDP=6.56D-04 DE=-1.11D-03 OVMax= 3.48D-03

 Cycle  38  Pass 1  IDiag  1:
 RMSU=  9.22D-08    CP:  1.00D+00 -2.13D+00  3.00D+00  1.61D+00  4.59D-02
                    CP: -8.49D-02  2.23D-01 -3.02D-01  4.93D-02 -1.44D-01
                    CP: -1.68D-01  2.30D-01  5.01D-01  3.00D+00  1.30D+00
                    CP:  5.36D-04  1.03D+00
 CoulSu:  requested number of processors reduced to:  20 ShMem   1 Linda.
 E= -610.472915131007     Delta-E=       -0.000028491532 Rises=F Damp=F
 DIIS: error= 4.44D-04 at cycle  38 NSaved=  17.
 NSaved=17 IEnMin= 3 EnMin= -610.475153472615     IErMin= 1 ErrMin= 2.95D-04
 ErrMax= 4.44D-04  0.00D+00 EMaxC= 1.00D-01 BMatC= 1.45D-04 BMatP= 6.62D-05
 IDIUse=3 WtCom= 9.98D-01 WtEn= 2.48D-03
 Large coefficients: NSaved= 17 BigCof=   33.35 CofMax=   10.00 Det=-9.82D-11
 Inversion failed.  Reducing to 16 matrices.
 Large coefficients: NSaved= 16 BigCof=   45.01 CofMax=   10.00 Det=-9.91D-11
 Inversion failed.  Reducing to 15 matrices.
 Large coefficients: NSaved= 15 BigCof=   33.14 CofMax=   10.00 Det=-1.07D-10
 Inversion failed.  Reducing to 14 matrices.
 Large coefficients: NSaved= 14 BigCof=   23.93 CofMax=   10.00 Det=-1.10D-10
 Inversion failed.  Reducing to 13 matrices.
 Large coefficients: NSaved= 13 BigCof=   14.19 CofMax=   10.00 Det=-1.31D-10
 Inversion failed.  Reducing to 12 matrices.
 Coeff-Com:  0.648D+00-0.239D+00 0.513D+00 0.358D+01-0.797D+01-0.524D+01
 Coeff-Com:  0.774D+01 0.117D+01-0.372D+00-0.566D-01-0.523D+01 0.646D+01
 Coeff-En:   0.000D+00 0.000D+00 0.000D+00 0.000D+00 0.000D+00 0.000D+00
 Coeff-En:   0.000D+00 0.000D+00 0.000D+00 0.000D+00 0.000D+00 0.100D+01
 Coeff:      0.646D+00-0.239D+00 0.512D+00 0.357D+01-0.795D+01-0.522D+01
 Coeff:      0.772D+01 0.116D+01-0.371D+00-0.565D-01-0.522D+01 0.644D+01
 Gap=     0.266 Goal=   None    Shift=    0.000
 Gap=     0.270 Goal=   None    Shift=    0.000
 RMSDP=5.96D-04 MaxDP=2.64D-02 DE=-2.85D-05 OVMax= 1.48D-01

 Cycle  39  Pass 1  IDiag  1:
 RMSU=  4.73D-06    CP:  1.00D+00 -3.00D+00  3.00D+00 -3.00D+00  3.00D+00
                    CP:  3.00D+00  3.00D+00  3.00D+00  3.00D+00  3.00D+00
                    CP:  2.78D+00  3.00D+00 -3.00D+00 -3.00D+00  1.84D+00
                    CP:  1.16D+00  1.85D+00  3.00D+00
 CoulSu:  requested number of processors reduced to:  20 ShMem   1 Linda.
 E= -610.471630375386     Delta-E=        0.001284755621 Rises=F Damp=F
 DIIS: error= 5.26D-04 at cycle  39 NSaved=  13.
 NSaved=13 IEnMin= 3 EnMin= -610.475153472615     IErMin= 1 ErrMin= 2.95D-04
 ErrMax= 5.26D-04  0.00D+00 EMaxC= 1.00D-01 BMatC= 2.16D-04 BMatP= 6.62D-05
 IDIUse=3 WtCom= 9.98D-01 WtEn= 2.48D-03
 Large coefficients: NSaved= 13 BigCof=   24.06 CofMax=   10.00 Det=-1.55D-10
 Inversion failed.  Reducing to 12 matrices.
 Large coefficients: NSaved= 12 BigCof=   22.11 CofMax=   10.00 Det=-1.73D-10
 Inversion failed.  Reducing to 11 matrices.
 Large coefficients: NSaved= 11 BigCof=   21.98 CofMax=   10.00 Det=-1.73D-10
 Inversion failed.  Reducing to 10 matrices.
 Large coefficients: NSaved= 10 BigCof=   10.65 CofMax=   10.00 Det=-2.31D-10
 Inversion failed.  Reducing to  9 matrices.
 Rare condition: small coef for last iteration:  0.000D+00
 Coeff-Com: -0.177D-01-0.112D+00 0.150D+01-0.928D+00-0.383D+01 0.289D+01
 Coeff-Com: -0.636D+01 0.854D+01-0.687D+00
 Coeff-En:   0.000D+00 0.000D+00 0.000D+00 0.000D+00 0.000D+00 0.000D+00
 Coeff-En:   0.000D+00 0.000D+00 0.100D+01
 Coeff:     -0.177D-01-0.112D+00 0.150D+01-0.928D+00-0.383D+01 0.289D+01
 Coeff:     -0.636D+01 0.854D+01-0.687D+00
 Gap=     0.249 Goal=   None    Shift=    0.000
 Gap=     0.259 Goal=   None    Shift=    0.000
 RMSDP=7.22D-04 MaxDP=3.27D-02 DE= 1.28D-03 OVMax= 1.82D-01

 Cycle  40  Pass 1  IDiag  1:
 RMSU=  3.43D-07    CP:  1.00D+00  7.05D-01  2.21D+00  5.38D-01  2.21D-03
                    CP: -1.85D-03 -3.60D-03 -5.01D-02  8.68D-03 -5.34D-02
                    CP: -1.48D-01  3.30D-01  1.49D+00  3.00D+00  1.51D+00
                    CP:  7.29D-04  1.19D+00  3.00D+00  4.60D-03
 CoulSu:  requested number of processors reduced to:  20 ShMem   1 Linda.
 E= -610.473206471179     Delta-E=       -0.001576095793 Rises=F Damp=F
 DIIS: error= 5.68D-04 at cycle  40 NSaved=  10.
 NSaved=10 IEnMin= 2 EnMin= -610.475153472615     IErMin= 7 ErrMin= 4.36D-04
 ErrMax= 5.68D-04  0.00D+00 EMaxC= 1.00D-01 BMatC= 2.39D-04 BMatP= 1.20D-04
 IDIUse=3 WtCom= 9.98D-01 WtEn= 2.48D-03
 Large coefficients: NSaved= 10 BigCof=   12.50 CofMax=   10.00 Det=-8.81D-11
 Inversion failed.  Reducing to  9 matrices.
 Coeff-Com:  0.181D-01-0.101D+00 0.149D+01-0.904D+00-0.418D+01 0.322D+01
 Coeff-Com:  0.159D+01-0.686D+00 0.557D+00
 Coeff-En:   0.000D+00 0.000D+00 0.000D+00 0.000D+00 0.000D+00 0.000D+00
 Coeff-En:   0.000D+00 0.000D+00 0.100D+01
 Coeff:      0.181D-01-0.101D+00 0.149D+01-0.902D+00-0.417D+01 0.321D+01
 Coeff:      0.158D+01-0.685D+00 0.558D+00
 Gap=     0.258 Goal=   None    Shift=    0.000
 Gap=     0.261 Goal=   None    Shift=    0.000
 RMSDP=2.16D-05 MaxDP=1.07D-03 DE=-1.58D-03 OVMax= 5.48D-03

 Cycle  41  Pass 1  IDiag  1:
 Restarting incremental Fock formation.
 CoulSu:  requested number of processors reduced to:  20 ShMem   1 Linda.
 E= -610.473154216507     Delta-E=        0.000052254672 Rises=F Damp=F
 DIIS: error= 5.40D-04 at cycle  41 NSaved=  10.
 NSaved=10 IEnMin= 2 EnMin= -610.475153472615     IErMin= 7 ErrMin= 4.44D-04
 ErrMax= 5.40D-04  0.00D+00 EMaxC= 1.00D-01 BMatC= 2.15D-04 BMatP= 1.20D-04
 IDIUse=3 WtCom= 9.98D-01 WtEn= 2.48D-03
 Rare condition: small coef for last iteration:  0.000D+00
 Coeff-Com:  0.117D-01-0.944D-01 0.145D+01-0.928D+00-0.405D+01 0.314D+01
 Coeff-Com:  0.149D+01-0.684D+00-0.346D+00 0.101D+01
 Coeff-En:   0.000D+00 0.000D+00 0.000D+00 0.000D+00 0.000D+00 0.000D+00
 Coeff-En:   0.000D+00 0.000D+00 0.000D+00 0.100D+01
 Coeff:      0.117D-01-0.944D-01 0.145D+01-0.928D+00-0.405D+01 0.314D+01
 Coeff:      0.149D+01-0.684D+00-0.346D+00 0.101D+01
 Gap=     0.258 Goal=   None    Shift=    0.000
 Gap=     0.261 Goal=   None    Shift=    0.000
 RMSDP=1.67D-06 MaxDP=8.43D-05 DE= 5.23D-05 OVMax= 4.22D-04

 Cycle  42  Pass 1  IDiag  1:
 RMSU=  1.67D-06    CP:  1.00D+00
 CoulSu:  requested number of processors reduced to:  20 ShMem   1 Linda.
 E= -610.473149879927     Delta-E=        0.000004336580 Rises=F Damp=F
 DIIS: error= 5.41D-04 at cycle  42 NSaved=  11.
 NSaved=11 IEnMin= 2 EnMin= -610.475153472615     IErMin= 7 ErrMin= 4.44D-04
 ErrMax= 5.41D-04  0.00D+00 EMaxC= 1.00D-01 BMatC= 2.16D-04 BMatP= 1.20D-04
 IDIUse=3 WtCom= 9.98D-01 WtEn= 2.48D-03
 Large coefficients: NSaved= 11 BigCof=   15.47 CofMax=   10.00 Det=-2.38D-10
 Inversion failed.  Reducing to 10 matrices.
 Large coefficients: NSaved= 10 BigCof=   28.56 CofMax=   10.00 Det=-2.46D-10
 Inversion failed.  Reducing to  9 matrices.
 Large coefficients: NSaved=  9 BigCof=   25.06 CofMax=   10.00 Det=-2.49D-10
 Inversion failed.  Reducing to  8 matrices.
 Large coefficients: NSaved=  8 BigCof=   59.05 CofMax=   10.00 Det=-4.49D-10
 Inversion failed.  Reducing to  7 matrices.
 Large coefficients: NSaved=  7 BigCof=   60.05 CofMax=   10.00 Det=-5.27D-10
 Inversion failed.  Reducing to  6 matrices.
 Large coefficients: NSaved=  6 BigCof=   41.89 CofMax=   10.00 Det=-5.45D-10
 Inversion failed.  Reducing to  5 matrices.
 Large coefficients: NSaved=  5 BigCof=   45.78 CofMax=   10.00 Det=-5.81D-10
 Inversion failed.  Reducing to  4 matrices.
 Large coefficients: NSaved=  4 BigCof=   46.35 CofMax=   10.00 Det=-5.84D-10
 Inversion failed.  Reducing to  3 matrices.
 Large coefficients: NSaved=  3 BigCof=   25.91 CofMax=   10.00 Det=-1.95D-09
 Inversion failed.  Reducing to  2 matrices.
 Large coefficients: NSaved=  2 BigCof=  152.27 CofMax=   10.00 Det=-2.47D-09
 Coeff-Com:  0.152D+03-0.151D+03
 Coeff-En:   0.000D+00 0.100D+01
 Coeff:      0.152D+03-0.151D+03
 Gap=     0.250 Goal=   None    Shift=    0.000
 Gap=     0.252 Goal=   None    Shift=    0.000
 RMSDP=3.09D-04 MaxDP=1.54D-02 DE= 4.34D-06 OVMax= 7.72D-02

 Cycle  43  Pass 1  IDiag  1:
 RMSU=  3.02D-04    CP:  1.00D+00 -3.00D+00
 CoulSu:  requested number of processors reduced to:  20 ShMem   1 Linda.
 E= -610.474191339453     Delta-E=       -0.001041459527 Rises=F Damp=F
 DIIS: error= 5.49D-04 at cycle  43 NSaved=   3.
 NSaved= 3 IEnMin= 3 EnMin= -610.474191339453     IErMin= 1 ErrMin= 5.40D-04
 ErrMax= 5.49D-04  0.00D+00 EMaxC= 1.00D-01 BMatC= 1.54D-04 BMatP= 2.15D-04
 IDIUse=3 WtCom= 9.98D-01 WtEn= 2.48D-03
 Large coefficients: NSaved=  3 BigCof=  191.24 CofMax=   10.00 Det=-6.06D-10
 Inversion failed.  Reducing to  2 matrices.
 Coeff-Com:  0.420D+00 0.580D+00
 Coeff-En:   0.000D+00 0.100D+01
 Coeff:      0.419D+00 0.581D+00
 Gap=     0.251 Goal=   None    Shift=    0.000
 Gap=     0.253 Goal=   None    Shift=    0.000
 RMSDP=7.76D-05 MaxDP=4.18D-03 DE=-1.04D-03 OVMax= 1.98D-02

 Cycle  44  Pass 1  IDiag  1:
 RMSU=  1.47D-05    CP:  1.00D+00 -3.00D+00  7.48D-01
 CoulSu:  requested number of processors reduced to:  20 ShMem   1 Linda.
 E= -610.473901228798     Delta-E=        0.000290110656 Rises=F Damp=F
 DIIS: error= 4.65D-04 at cycle  44 NSaved=   3.
 NSaved= 3 IEnMin= 2 EnMin= -610.474191339453     IErMin= 3 ErrMin= 4.65D-04
 ErrMax= 4.65D-04  0.00D+00 EMaxC= 1.00D-01 BMatC= 8.49D-05 BMatP= 1.54D-04
 IDIUse=3 WtCom= 9.98D-01 WtEn= 2.48D-03
 Rare condition: small coef for last iteration:  0.000D+00
 Coeff-Com:  0.157D+00-0.452D+00 0.129D+01
 Coeff-En:   0.000D+00 0.000D+00 0.100D+01
 Coeff:      0.157D+00-0.452D+00 0.129D+01
 Gap=     0.252 Goal=   None    Shift=    0.000
 Gap=     0.254 Goal=   None    Shift=    0.000
 RMSDP=2.21D-05 MaxDP=1.16D-03 DE= 2.90D-04 OVMax= 5.94D-03

 Cycle  45  Pass 1  IDiag  1:
 RMSU=  5.64D-06    CP:  1.00D+00 -3.00D+00  6.78D-01  1.26D+00
 CoulSu:  requested number of processors reduced to:  20 ShMem   1 Linda.
 E= -610.473825604356     Delta-E=        0.000075624442 Rises=F Damp=F
 DIIS: error= 4.65D-04 at cycle  45 NSaved=   4.
 NSaved= 4 IEnMin= 2 EnMin= -610.474191339453     IErMin= 3 ErrMin= 4.65D-04
 ErrMax= 4.65D-04  0.00D+00 EMaxC= 1.00D-01 BMatC= 8.35D-05 BMatP= 8.49D-05
 IDIUse=3 WtCom= 9.98D-01 WtEn= 2.48D-03
 Rare condition: small coef for last iteration:  0.000D+00
 Coeff-Com:  0.121D+00-0.837D+00-0.239D+00 0.195D+01
 Coeff-En:   0.000D+00 0.000D+00 0.000D+00 0.100D+01
 Coeff:      0.121D+00-0.837D+00-0.239D+00 0.195D+01
 Gap=     0.252 Goal=   None    Shift=    0.000
 Gap=     0.254 Goal=   None    Shift=    0.000
 RMSDP=6.77D-05 MaxDP=3.56D-03 DE= 7.56D-05 OVMax= 1.65D-02

 Cycle  46  Pass 1  IDiag  1:
 RMSU=  6.22D-06    CP:  1.00D+00 -3.00D+00  4.57D-01  1.80D+00  1.52D+00
 CoulSu:  requested number of processors reduced to:  20 ShMem   1 Linda.
 E= -610.473593653236     Delta-E=        0.000231951120 Rises=F Damp=F
 DIIS: error= 4.26D-04 at cycle  46 NSaved=   5.
 NSaved= 5 IEnMin= 2 EnMin= -610.474191339453     IErMin= 5 ErrMin= 4.26D-04
 ErrMax= 4.26D-04  0.00D+00 EMaxC= 1.00D-01 BMatC= 6.98D-05 BMatP= 8.35D-05
 IDIUse=3 WtCom= 9.98D-01 WtEn= 2.48D-03
 Rare condition: small coef for last iteration:  0.000D+00
 Coeff-Com:  0.145D+00-0.586D+00-0.115D+01 0.170D+01 0.897D+00
 Coeff-En:   0.000D+00 0.000D+00 0.000D+00 0.000D+00 0.100D+01
 Coeff:      0.145D+00-0.586D+00-0.115D+01 0.170D+01 0.897D+00
 Gap=     0.253 Goal=   None    Shift=    0.000
 Gap=     0.255 Goal=   None    Shift=    0.000
 RMSDP=6.50D-05 MaxDP=3.46D-03 DE= 2.32D-04 OVMax= 1.75D-02

 Cycle  47  Pass 1  IDiag  1:
 RMSU=  5.35D-06    CP:  1.00D+00 -3.00D+00  2.44D-01  2.20D+00  2.39D+00
                    CP:  7.60D-01
 CoulSu:  requested number of processors reduced to:  20 ShMem   1 Linda.
 E= -610.473393558373     Delta-E=        0.000200094863 Rises=F Damp=F
 DIIS: error= 4.46D-04 at cycle  47 NSaved=   6.
 NSaved= 6 IEnMin= 2 EnMin= -610.474191339453     IErMin= 5 ErrMin= 4.26D-04
 ErrMax= 4.46D-04  0.00D+00 EMaxC= 1.00D-01 BMatC= 5.09D-05 BMatP= 6.98D-05
 IDIUse=3 WtCom= 9.98D-01 WtEn= 2.48D-03
 Rare condition: small coef for last iteration:  0.000D+00
 Coeff-Com:  0.102D+00 0.202D+00-0.123D+01-0.244D+00 0.743D+00 0.142D+01
 Coeff-En:   0.000D+00 0.000D+00 0.000D+00 0.000D+00 0.000D+00 0.100D+01
 Coeff:      0.102D+00 0.202D+00-0.123D+01-0.244D+00 0.743D+00 0.142D+01
 Gap=     0.254 Goal=   None    Shift=    0.000
 Gap=     0.256 Goal=   None    Shift=    0.000
 RMSDP=9.91D-05 MaxDP=5.06D-03 DE= 2.00D-04 OVMax= 2.45D-02

 Cycle  48  Pass 1  IDiag  1:
 RMSU=  6.38D-06    CP:  1.00D+00  3.00D+00 -4.85D-02  2.62D+00  2.58D+00
                    CP:  1.63D+00  1.82D+00
 CoulSu:  requested number of processors reduced to:  20 ShMem   1 Linda.
 E= -610.473123596247     Delta-E=        0.000269962126 Rises=F Damp=F
 DIIS: error= 3.32D-04 at cycle  48 NSaved=   7.
 NSaved= 7 IEnMin= 2 EnMin= -610.474191339453     IErMin= 7 ErrMin= 3.32D-04
 ErrMax= 3.32D-04  0.00D+00 EMaxC= 1.00D-01 BMatC= 3.78D-05 BMatP= 5.09D-05
 IDIUse=3 WtCom= 9.98D-01 WtEn= 2.48D-03
 Rare condition: small coef for last iteration:  0.000D+00
 Coeff-Com: -0.325D+00 0.889D+00 0.194D+01-0.269D+01-0.245D+01 0.138D+00
 Coeff-Com:  0.349D+01
 Coeff-En:   0.000D+00 0.000D+00 0.000D+00 0.000D+00 0.000D+00 0.000D+00
 Coeff-En:   0.100D+01
 Coeff:     -0.325D+00 0.889D+00 0.194D+01-0.269D+01-0.245D+01 0.138D+00
 Coeff:      0.349D+01
 Gap=     0.257 Goal=   None    Shift=    0.000
 Gap=     0.260 Goal=   None    Shift=    0.000
 RMSDP=2.07D-04 MaxDP=9.95D-03 DE= 2.70D-04 OVMax= 5.20D-02

 Cycle  49  Pass 1  IDiag  1:
 RMSU=  2.53D-05    CP:  1.00D+00  3.00D+00 -7.23D-01  3.00D+00  2.01D+00
                    CP:  2.44D+00  3.00D+00  3.00D+00
 CoulSu:  requested number of processors reduced to:  20 ShMem   1 Linda.
 E= -610.472680543691     Delta-E=        0.000443052556 Rises=F Damp=F
 DIIS: error= 2.56D-04 at cycle  49 NSaved=   8.
 NSaved= 8 IEnMin= 2 EnMin= -610.474191339453     IErMin= 8 ErrMin= 2.56D-04
 ErrMax= 2.56D-04  0.00D+00 EMaxC= 1.00D-01 BMatC= 2.42D-05 BMatP= 3.78D-05
 IDIUse=3 WtCom= 9.98D-01 WtEn= 2.48D-03
 Rare condition: small coef for last iteration:  0.000D+00
 Coeff-Com: -0.241D+00 0.320D+00 0.828D+00-0.795D+00-0.833D+00-0.885D+00
 Coeff-Com:  0.641D+00 0.196D+01
 Coeff-En:   0.000D+00 0.000D+00 0.000D+00 0.000D+00 0.000D+00 0.000D+00
 Coeff-En:   0.000D+00 0.100D+01
 Coeff:     -0.241D+00 0.320D+00 0.828D+00-0.795D+00-0.833D+00-0.885D+00
 Coeff:      0.641D+00 0.196D+01
 Gap=     0.263 Goal=   None    Shift=    0.000
 Gap=     0.269 Goal=   None    Shift=    0.000
 RMSDP=2.71D-04 MaxDP=1.23D-02 DE= 4.43D-04 OVMax= 6.69D-02

 Cycle  50  Pass 1  IDiag  1:
 RMSU=  3.66D-05    CP:  1.00D+00  3.00D+00 -1.58D+00  3.00D+00  1.42D+00
                    CP:  3.00D+00  3.00D+00  3.00D+00  3.00D+00
 CoulSu:  requested number of processors reduced to:  20 ShMem   1 Linda.
 E= -610.472166543358     Delta-E=        0.000514000334 Rises=F Damp=F
 DIIS: error= 3.07D-04 at cycle  50 NSaved=   9.
 NSaved= 9 IEnMin= 2 EnMin= -610.474191339453     IErMin= 8 ErrMin= 2.56D-04
 ErrMax= 3.07D-04  0.00D+00 EMaxC= 1.00D-01 BMatC= 5.96D-05 BMatP= 2.42D-05
 IDIUse=3 WtCom= 9.98D-01 WtEn= 2.48D-03
 Rare condition: small coef for last iteration:  0.000D+00
 Coeff-Com:  0.449D-01 0.448D+00 0.161D+01-0.142D+01-0.169D+01-0.969D+00
 Coeff-Com:  0.180D+01 0.225D+01-0.107D+01
 Coeff-En:   0.000D+00 0.000D+00 0.000D+00 0.000D+00 0.000D+00 0.000D+00
 Coeff-En:   0.000D+00 0.000D+00 0.100D+01
 Coeff:      0.449D-01 0.448D+00 0.161D+01-0.142D+01-0.169D+01-0.969D+00
 Coeff:      0.180D+01 0.225D+01-0.107D+01
 Gap=     0.254 Goal=   None    Shift=    0.000
 Gap=     0.261 Goal=   None    Shift=    0.000
 RMSDP=4.02D-04 MaxDP=1.86D-02 DE= 5.14D-04 OVMax= 1.01D-01

 Cycle  51  Pass 1  IDiag  1:
 RMSU=  4.76D-06    CP:  1.00D+00  3.00D+00 -3.01D-01  2.07D+00  1.48D+00
                    CP:  1.51D+00  2.85D+00  1.78D+00  1.71D-02 -1.37D-02
 CoulSu:  requested number of processors reduced to:  20 ShMem   1 Linda.
 E= -610.472945740108     Delta-E=       -0.000779196750 Rises=F Damp=F
 DIIS: error= 3.30D-04 at cycle  51 NSaved=  10.
[...]
 Root      2 :     1.881666332019809   Change is   -0.011897612124081
 Root      3 :     2.022739734752233   Change is   -0.162538107031763
 Iteration     4 Dimension    30 NMult    27 NNew      3
 Estimated number of processors is:   19
 CISAX will form     1 AO SS matrices at one time.
 Spin BB IR=    1 I=  17 J=  13 Mu=   25 Nu=  153 IOp=2 MuP=   -25 NuP=   153
 Err= 4.46D-01 FactIJ= 1.0 Fact=-1.0
 A=-2.2292617940D-01 AP= 2.2292617940D-01 B=-1.6736916511D-03 BP= 1.6736916511D-03
 NMat=     1 NSing=     1 JSym2X= 2.
 CoulSu:  requested number of processors reduced to:  20 ShMem   1 Linda.
 NMat=     1 NSing=     1 JSym2X= 2.
 CoulSu:  requested number of processors reduced to:  20 ShMem   1 Linda.
 NMat=     1 NSing=     1 JSym2X= 2.
 CoulSu:  requested number of processors reduced to:  20 ShMem   1 Linda.
 Root      1 not converged, maximum delta is    0.002345822551247
 Excitation Energies [eV] at current iteration:
 Root      1 :     1.670187405290227   Change is   -0.000509536667804
 Root      2 :     1.880206822694290   Change is   -0.001459509325519
 Root      3 :     2.005533101344823   Change is   -0.017206633407409
 Iteration     5 Dimension    33 NMult    30 NNew      3
 Estimated number of processors is:   19
 CISAX will form     1 AO SS matrices at one time.
 Spin BB IR=    1 I=  17 J=  13 Mu=   25 Nu=   87 IOp=2 MuP=   -25 NuP=    87
 Err= 8.57D-01 FactIJ= 1.0 Fact=-1.0
 A= 4.2834164091D-01 AP=-4.2834164091D-01 B= 7.0422082926D-02 BP=-7.0422082926D-02
 NMat=     1 NSing=     1 JSym2X= 2.
 CoulSu:  requested number of processors reduced to:  20 ShMem   1 Linda.
 NMat=     1 NSing=     1 JSym2X= 2.
 CoulSu:  requested number of processors reduced to:  20 ShMem   1 Linda.
 NMat=     1 NSing=     1 JSym2X= 2.
 CoulSu:  requested number of processors reduced to:  20 ShMem   1 Linda.
 Root      1 not converged, maximum delta is    0.001383617439321
 Excitation Energies [eV] at current iteration:
 Root      1 :     1.670143821863725   Change is   -0.000043583426502
 Root      2 :     1.879910686544077   Change is   -0.000296136150213
 Root      3 :     2.003126907345810   Change is   -0.002406193999013
 Iteration     6 Dimension    36 NMult    33 NNew      3
 Estimated number of processors is:   19
 CISAX will form     1 AO SS matrices at one time.
 Spin BB IR=    1 I=  17 J=  13 Mu=   25 Nu=   87 IOp=2 MuP=   -25 NuP=    87
 Err= 6.25D-01 FactIJ= 1.0 Fact=-1.0
 A= 9.7660210689D-02 AP=-9.7660210689D-02 B=-3.1259739579D-01 BP= 3.1259739579D-01
 NMat=     1 NSing=     1 JSym2X= 2.
 CoulSu:  requested number of processors reduced to:  20 ShMem   1 Linda.
 NMat=     1 NSing=     1 JSym2X= 2.
 CoulSu:  requested number of processors reduced to:  20 ShMem   1 Linda.
 NMat=     1 NSing=     1 JSym2X= 2.
 CoulSu:  requested number of processors reduced to:  20 ShMem   1 Linda.
 Root      1 has converged.
 Excitation Energies [eV] at current iteration:
 Root      1 :     1.670139952372720   Change is   -0.000003869491005
 Root      2 :     1.879847955635588   Change is   -0.000062730908488
 Root      3 :     2.002786152566100   Change is   -0.000340754779710
 Convergence achieved on expansion vectors.
 ***********************************************************************
 Stability analysis using <AA,BB:AA,BB> singles matrix:
 ***********************************************************************
 1PDM for each excited state written to RWF  633
 Ground to excited state transition densities written to RWF  633

 Eigenvectors of the stability matrix:
 
 Eigenvector   1:  2.890-A"   Eigenvalue= 0.0613765  <S**2>=1.838
     17A -> 18A        0.96662
     15B -> 17B       -0.16974
     16B -> 18B       -0.11121
 The wavefunction is stable under the perturbations considered.
 Leave Link  914 at Tue Apr 20 05:22:08 2021, MaxMem=   104857600 cpu:            4354.9 elap:             278.6
 (Enter /opt/g16avx/l508.exe)
 The wavefunction is already stable.
 Leave Link  508 at Tue Apr 20 05:22:08 2021, MaxMem=   104857600 cpu:               1.0 elap:               0.1
 (Enter /opt/g16avx/l601.exe)
 Copying SCF densities to generalized density rwf, IOpCl= 1 IROHF=0.

 **********************************************************************

            Population analysis using the SCF density.

 **********************************************************************

 Orbital symmetries:
 Alpha Orbitals:
       Occupied  (A') (A') (A') (A') (A") (A') (A') (A') (A') (A')
                 (A") (A') (A') (A") (A') (A') (A")
       Virtual   (A') (A') (A') (A") (A') (A') (A") (A') (A") (A')
                 (A') (A') (A') (A") (A') (A") (A') (A') (A') (A")
                 (A') (A') (A') (A") (A") (A') (A") (A') (A') (A")
                 (A") (A') (A') (A') (A") (A') (A') (A") (A') (A")
                 (A') (A') (A') (A') (A') (A') (A") (A") (A') (A')
                 (A") (A') (A') (A") (A') (A") (A') (A') (A") (A")
                 (A") (A') (A") (A') (A') (A") (A') (A') (A') (A')
                 (A') (A") (A") (A') (A') (A') (A') (A') (A") (A')
                 (A") (A') (A') (A") (A') (A") (A') (A") (A') (A')
                 (A") (A') (A') (A") (A') (A") (A") (A') (A') (A')
                 (A") (A') (A') (A") (A') (A") (A') (A") (A") (A')
                 (A") (A') (A') (A") (A') (A") (A") (A') (A') (A')
                 (A") (A') (A') (A') (A") (A') (A') (A") (A') (A')
                 (A') (A") (A') (A') (A") (A') (A') (A") (A') (A")
                 (A') (A") (A') (A') (A") (A') (A") (A') (A") (A')
                 (A') (A") (A') (A") (A') (A") (A') (A") (A') (A")
                 (A') (A') (A") (A') (A") (A') (A") (A') (A') (A')
                 (A") (A') (A") (A') (A") (A') (A") (A') (A') (A')
                 (A") (A') (A') (A') (A') (A") (A') (A') (A') (A')
                 (A') (A') (A') (A')
 Beta  Orbitals:
       Occupied  (A') (A') (A') (A') (A') (A') (A") (A') (A') (A')
                 (A') (A') (A") (A') (A") (A')
       Virtual   (A') (A") (A') (A') (A") (A') (A') (A') (A") (A")
                 (A') (A') (A') (A") (A') (A') (A") (A') (A') (A")
                 (A') (A') (A') (A') (A") (A') (A") (A") (A') (A')
                 (A") (A") (A') (A') (A') (A") (A') (A') (A") (A')
                 (A") (A') (A') (A') (A') (A') (A') (A") (A') (A')
                 (A") (A") (A') (A') (A') (A") (A") (A') (A") (A')
                 (A") (A") (A') (A') (A') (A") (A") (A') (A') (A')
                 (A') (A') (A") (A") (A') (A') (A') (A') (A') (A")
                 (A') (A") (A') (A') (A") (A') (A") (A') (A") (A')
                 (A') (A") (A') (A') (A") (A") (A') (A') (A") (A')
                 (A') (A") (A') (A') (A") (A') (A") (A') (A") (A')
                 (A") (A') (A") (A') (A") (A') (A") (A') (A") (A')
                 (A') (A") (A') (A') (A') (A") (A') (A') (A") (A')
                 (A') (A') (A") (A') (A') (A") (A') (A') (A") (A')
                 (A") (A') (A') (A") (A') (A") (A') (A") (A') (A")
                 (A') (A') (A") (A') (A") (A") (A') (A") (A') (A')
                 (A') (A") (A') (A") (A') (A") (A') (A") (A') (A')
                 (A') (A") (A') (A") (A") (A') (A') (A") (A') (A')
                 (A') (A") (A') (A') (A') (A') (A") (A') (A') (A')
                 (A') (A') (A') (A') (A')
 The electronic state is 2-A".
 Alpha  occ. eigenvalues -- -102.67167 -19.85952 -19.81568  -9.82786  -7.54630
 Alpha  occ. eigenvalues --   -7.54604  -7.54462  -1.48381  -1.01661  -0.88367
 Alpha  occ. eigenvalues --   -0.70926  -0.68773  -0.67862  -0.44690  -0.43017
 Alpha  occ. eigenvalues --   -0.39153  -0.38311
 Alpha virt. eigenvalues --   -0.13187   0.02201   0.02952   0.03266   0.03710
 Alpha virt. eigenvalues --    0.05815   0.07135   0.07353   0.09577   0.10419
 Alpha virt. eigenvalues --    0.12422   0.18495   0.19045   0.19578   0.19868
 Alpha virt. eigenvalues --    0.21853   0.22732   0.23352   0.29206   0.29930
 Alpha virt. eigenvalues --    0.32404   0.33037   0.36492   0.36746   0.40165
 Alpha virt. eigenvalues --    0.40363   0.42579   0.42628   0.43807   0.44682
 Alpha virt. eigenvalues --    0.46386   0.48531   0.49258   0.50260   0.51796
 Alpha virt. eigenvalues --    0.53993   0.58001   0.60416   0.60746   0.63397
 Alpha virt. eigenvalues --    0.64462   0.70366   0.71598   0.73699   0.92738
 Alpha virt. eigenvalues --    1.09524   1.11373   1.18444   1.18629   1.19048
 Alpha virt. eigenvalues --    1.21718   1.25664   1.28579   1.30981   1.31654
 Alpha virt. eigenvalues --    1.35778   1.36289   1.36771   1.36796   1.38229
 Alpha virt. eigenvalues --    1.40651   1.41326   1.42729   1.43029   1.44782
 Alpha virt. eigenvalues --    1.46910   1.50155   1.52041   1.58118   1.63092
 Alpha virt. eigenvalues --    1.70254   1.73178   1.88950   1.99720   2.00718
 Alpha virt. eigenvalues --    2.12939   2.19590   2.42842   2.84757   2.89773
 Alpha virt. eigenvalues --    2.92279   2.94448   3.08467   3.11118   3.15879
 Alpha virt. eigenvalues --    3.19329   3.23216   3.36763   3.37411   3.41806
 Alpha virt. eigenvalues --    3.42417   3.45734   3.53461   3.55229   3.56332
 Alpha virt. eigenvalues --    3.56345   3.56562   3.56815   3.57988   3.67014
 Alpha virt. eigenvalues --    3.70110   3.79187   3.83714   3.84400   3.84989
 Alpha virt. eigenvalues --    3.89179   3.89492   3.92087   3.94988   3.95848
 Alpha virt. eigenvalues --    3.97373   3.98596   4.00623   4.02073   4.07541
 Alpha virt. eigenvalues --    4.09329   4.12574   4.14112   4.19178   4.35635
 Alpha virt. eigenvalues --    4.39558   4.39967   4.55842   4.64254   4.67318
 Alpha virt. eigenvalues --    4.77133   4.89712   4.97107   5.05279   5.11733
 Alpha virt. eigenvalues --    5.26257   5.50938   5.81860   7.83562   8.03611
 Alpha virt. eigenvalues --    8.06985   8.25454   8.25613   8.45471   8.47014
 Alpha virt. eigenvalues --    8.53051   8.59518   8.60185   8.67848   8.72872
 Alpha virt. eigenvalues --    8.76010   9.15241   9.16800  10.20591  10.21349
 Alpha virt. eigenvalues --   10.44190  10.49629  10.52713  10.62678  10.66403
 Alpha virt. eigenvalues --   10.73402  10.75169  10.75204  10.75576  10.76314
 Alpha virt. eigenvalues --   10.78372  10.82128  10.88999  11.10566  11.12081
 Alpha virt. eigenvalues --   11.27158  11.30168  11.32989  11.39499  11.45031
 Alpha virt. eigenvalues --   11.51531  11.60316  11.75855  11.78974  11.78996
 Alpha virt. eigenvalues --   11.85705  11.96556  12.10336  12.24785  13.50022
 Alpha virt. eigenvalues --   13.67191  13.71074  13.86025  15.58272  28.59423
 Alpha virt. eigenvalues --   42.02111  42.02491  42.08107  47.30772  47.96976
 Alpha virt. eigenvalues --   98.35550 250.29816 251.02492 524.18037
  Beta  occ. eigenvalues -- -102.67899 -19.84269 -19.79325  -9.83007  -7.56428
  Beta  occ. eigenvalues --   -7.54853  -7.54830  -1.42790  -0.96770  -0.88054
  Beta  occ. eigenvalues --   -0.64713  -0.61087  -0.58527  -0.40442  -0.40274
  Beta  occ. eigenvalues --   -0.39057
  Beta virt. eigenvalues --   -0.09999  -0.09873   0.02355   0.03096   0.03467
  Beta virt. eigenvalues --    0.03488   0.06004   0.07428   0.07607   0.10269
  Beta virt. eigenvalues --    0.10659   0.12472   0.18833   0.19519   0.19651
  Beta virt. eigenvalues --    0.20599   0.22274   0.23429   0.24873   0.29910
  Beta virt. eigenvalues --    0.31225   0.32329   0.33469   0.36492   0.37081
  Beta virt. eigenvalues --    0.39905   0.39972   0.41627   0.42165   0.43665
  Beta virt. eigenvalues --    0.44842   0.46585   0.48106   0.48885   0.49569
  Beta virt. eigenvalues --    0.51257   0.53130   0.57164   0.59434   0.61051
  Beta virt. eigenvalues --    0.63381   0.63816   0.70496   0.71167   0.73502
  Beta virt. eigenvalues --    0.93346   1.09848   1.12395   1.19086   1.19127
  Beta virt. eigenvalues --    1.19274   1.22668   1.25717   1.28912   1.31860
  Beta virt. eigenvalues --    1.31883   1.35657   1.36000   1.36245   1.36368
  Beta virt. eigenvalues --    1.38132   1.40191   1.40315   1.42395   1.45958
  Beta virt. eigenvalues --    1.46918   1.49136   1.50506   1.52386   1.58426
  Beta virt. eigenvalues --    1.63304   1.70086   1.73420   1.90015   1.99249
  Beta virt. eigenvalues --    2.01069   2.12647   2.18369   2.42402   2.84843
  Beta virt. eigenvalues --    2.89138   2.92379   2.94263   3.09128   3.13383
  Beta virt. eigenvalues --    3.16626   3.19390   3.23176   3.36203   3.36786
  Beta virt. eigenvalues --    3.40303   3.40390   3.45215   3.49873   3.52938
  Beta virt. eigenvalues --    3.54761   3.55071   3.56471   3.56480   3.56743
  Beta virt. eigenvalues --    3.65465   3.68763   3.78912   3.82704   3.84997
  Beta virt. eigenvalues --    3.86138   3.88680   3.89098   3.91395   3.92273
  Beta virt. eigenvalues --    3.93727   3.95693   3.96543   3.98692   4.02335
  Beta virt. eigenvalues --    4.06246   4.08622   4.11576   4.12053   4.17475
  Beta virt. eigenvalues --    4.35336   4.37865   4.38131   4.56944   4.62778
  Beta virt. eigenvalues --    4.68231   4.77271   4.88719   5.01847   5.03668
  Beta virt. eigenvalues --    5.13582   5.28576   5.54490   5.83783   7.84517
  Beta virt. eigenvalues --    8.03912   8.07421   8.26657   8.27394   8.43217
  Beta virt. eigenvalues --    8.44899   8.51227   8.63290   8.63673   8.69765
  Beta virt. eigenvalues --    8.77127   8.79524   9.16720   9.18482  10.19716
  Beta virt. eigenvalues --   10.20800  10.44499  10.50345  10.53089  10.71678
  Beta virt. eigenvalues --   10.73244  10.73976  10.74820  10.75077  10.76410
  Beta virt. eigenvalues --   10.78666  10.80029  10.84305  10.95625  11.13482
  Beta virt. eigenvalues --   11.16526  11.29491  11.33530  11.34754  11.41556
  Beta virt. eigenvalues --   11.47039  11.55679  11.62051  11.83491  11.87134
  Beta virt. eigenvalues --   11.88077  11.93885  12.05298  12.12741  12.31621
  Beta virt. eigenvalues --   13.63615  13.70344  13.72444  13.97283  15.56395
  Beta virt. eigenvalues --   28.54634  42.01471  42.01732  42.03515  47.33995
  Beta virt. eigenvalues --   48.00599  98.33486 250.25976 250.98596 524.18625
          Condensed to atoms (all electrons):
               1          2          3
     1  Cl  17.144865   0.017811  -0.037875
     2  O    0.017811   7.837344   0.011341
     3  O   -0.037875   0.011341   8.035237
          Atomic-Atomic Spin Densities.
               1          2          3
     1  Cl  -0.698441   0.078450   0.013729
     2  O    0.078450   0.893020  -0.275145
     3  O    0.013729  -0.275145   1.171352
 Mulliken charges and spin densities:
               1          2
     1  Cl  -0.124801  -0.606261
     2  O    0.133504   0.696326
     3  O   -0.008703   0.909936
 Sum of Mulliken charges =   0.00000   1.00000
 Mulliken charges and spin densities with hydrogens summed into heavy atoms:
               1          2
     1  Cl  -0.124801  -0.606261
     2  O    0.133504   0.696326
     3  O   -0.008703   0.909936
 Electronic spatial extent (au):  <R**2>=            234.7656
 Charge=              0.0000 electrons
 Dipole moment (field-independent basis, Debye):
    X=              0.3516    Y=              0.8995    Z=             -0.0000  Tot=              0.9658
 Quadrupole moment (field-independent basis, Debye-Ang):
   XX=            -23.3038   YY=            -21.7750   ZZ=            -23.0387
   XY=              0.2702   XZ=              0.0000   YZ=             -0.0000
 Traceless Quadrupole moment (field-independent basis, Debye-Ang):
   XX=             -0.5980   YY=              0.9308   ZZ=             -0.3328
   XY=              0.2702   XZ=              0.0000   YZ=             -0.0000
 Octapole moment (field-independent basis, Debye-Ang**2):
  XXX=              3.9371  YYY=              4.1917  ZZZ=             -0.0000  XYY=             -0.1251
  XXY=              2.1273  XXZ=             -0.0000  XZZ=              1.5761  YZZ=              2.9024
  YYZ=              0.0000  XYZ=              0.0000
 Hexadecapole moment (field-independent basis, Debye-Ang**3):
 XXXX=            -89.8747 YYYY=           -156.6312 ZZZZ=            -22.8471 XXXY=            -41.9009
 XXXZ=              0.0000 YYYX=            -38.7665 YYYZ=             -0.0000 ZZZX=              0.0000
 ZZZY=             -0.0000 XXYY=            -41.4534 XXZZ=            -18.8891 YYZZ=            -31.4457
 XXYZ=             -0.0000 YYXZ=             -0.0000 ZZXY=            -14.0899
 N-N= 8.939174019464D+01 E-N=-1.628567760670D+03  KE= 6.093927944326D+02
                          Isotropic Fermi Contact Couplings
        Atom                 a.u.       MegaHertz       Gauss      10(-4) cm-1
     1  Cl(35)            -0.03226     -14.14333      -5.04669      -4.71771
     2  O(17)             -0.12092      73.30417      26.15675      24.45164
     3  O(17)              0.14405     -87.32162     -31.15853     -29.12736
 PrsmSu:  requested number of processors reduced to:  21 ShMem   1 Linda.
 --------------------------------------------------------
       Center         ----  Spin Dipole Couplings  ----
                      3XX-RR        3YY-RR        3ZZ-RR
 --------------------------------------------------------
     1   Atom        1.489099     -3.633579      2.144479
     2   Atom       -1.899041      0.226235      1.672806
     3   Atom       -2.314444      0.305674      2.008770
 --------------------------------------------------------
                        XY            XZ            YZ
 --------------------------------------------------------
     1   Atom       -1.639848     -0.000000     -0.000000
     2   Atom       -0.484796     -0.000000     -0.000000
     3   Atom       -0.358909     -0.000000     -0.000000
 --------------------------------------------------------


 ---------------------------------------------------------------------------------
              Anisotropic Spin Dipole Couplings in Principal Axis System
 ---------------------------------------------------------------------------------

       Atom             a.u.   MegaHertz   Gauss  10(-4) cm-1        Axes

              Baa    -4.1135  -215.293   -76.822   -71.814  0.2809  0.9597  0.0000
     1 Cl(35) Bbb     1.9691   103.056    36.773    34.376  0.9597 -0.2809  0.0000
              Bcc     2.1445   112.237    40.049    37.438 -0.0000 -0.0000  1.0000
 
              Baa    -2.0044   145.037    51.753    48.379  0.9772  0.2124  0.0000
     2 O(17)  Bbb     0.3316   -23.994    -8.562    -8.004 -0.2124  0.9772  0.0000
              Bcc     1.6728  -121.043   -43.191   -40.376 -0.0000 -0.0000  1.0000
 
              Baa    -2.3627   170.965    61.004    57.028  0.9911  0.1333  0.0000
     3 O(17)  Bbb     0.3539   -25.611    -9.139    -8.543 -0.1333  0.9911  0.0000
              Bcc     2.0088  -145.353   -51.866   -48.485 -0.0000 -0.0000  1.0000
 

 ---------------------------------------------------------------------------------

 PrsmSu:  requested number of processors reduced to:  21 ShMem   1 Linda.
 No NMR shielding tensors so no spin-rotation constants.
 Leave Link  601 at Tue Apr 20 05:22:23 2021, MaxMem=   104857600 cpu:             228.8 elap:              14.6
 (Enter /opt/g16avx/l9999.exe)

 Test job not archived.
 1\1\GINC-VERTEX\Stability\UM062X\Gen\Cl1O2(2)\XRAY\20-Apr-2021\0\\#P M
 062X/GEN Integral=UltraFineGrid scf=(nosymm,xqc,maxconven=155) Stable=
 (RExt, Opt) IOp(1/33=1)\\Database calculations.\\0,2\Cl,0,0.,0.,0.\O,0
 ,0.,0.,2.03230554\O,0,1.09160525,0.,2.5499087976\\Version=ES64L-G16Rev
 A.03\State=2-A"\HF=-610.4827152\S2=1.194381\S2-1=0.\S2A=0.760548\RMSD=
 3.043e-11\Dipole=0.0352874,0.,0.3783427\Quadrupole=-0.4645689,-0.24746
 19,0.7120308,0.,-0.1312679,0.\PG=CS [SG(Cl1O2)]\\@


 GROWING OLD ISN'T SO BAD -- WHEN YOU CONSIDER THE ALTERNATIVE.

                     -- MAURICE CHEVALIER
 Job cpu time:       1 days 12 hours 46 minutes  3.7 seconds.
 Elapsed time:       0 days  2 hours 15 minutes 51.2 seconds.
 File lengths (MBytes):  RWF=    172 Int=      0 D2E=      0 Chk=      7 Scr=      1
 Normal termination of Gaussian 16 at Tue Apr 20 05:22:23 2021.
