 Entering Gaussian System, Link 0=/s/ls4/users/knvvv/bin/g16sse/g16
 Input=data/database/M062X--MG3S--Z_019_MG3S_N.gjf
 Output=data/database/M062X--MG3S--Z_019_MG3S_N.log
 Initial command:
 /s/ls4/users/knvvv/bin/g16sse/l1.exe "/s/ls4/users/knvvv/bin/scratch/Gau-30332.inp" -scrdir="/s/ls4/users/knvvv/bin/scratch/"
 Entering Link 1 = /s/ls4/users/knvvv/bin/g16sse/l1.exe PID=     30333.
  
 Copyright (c) 1988,1990,1992,1993,1995,1998,2003,2009,2016,
            Gaussian, Inc.  All Rights Reserved.
  
 This is part of the Gaussian(R) 16 program.  It is based on
 the Gaussian(R) 09 system (copyright 2009, Gaussian, Inc.),
 the Gaussian(R) 03 system (copyright 2003, Gaussian, Inc.),
 the Gaussian(R) 98 system (copyright 1998, Gaussian, Inc.),
 the Gaussian(R) 94 system (copyright 1995, Gaussian, Inc.),
 the Gaussian 92(TM) system (copyright 1992, Gaussian, Inc.),
 the Gaussian 90(TM) system (copyright 1990, Gaussian, Inc.),
 the Gaussian 88(TM) system (copyright 1988, Gaussian, Inc.),
 the Gaussian 86(TM) system (copyright 1986, Carnegie Mellon
 University), and the Gaussian 82(TM) system (copyright 1983,
 Carnegie Mellon University). Gaussian is a federally registered
 trademark of Gaussian, Inc.
  
 This software contains proprietary and confidential information,
 including trade secrets, belonging to Gaussian, Inc.
  
 This software is provided under written license and may be
 used, copied, transmitted, or stored only in accord with that
 written license.
  
 The following legend is applicable only to US Government
 contracts under FAR:
  
                    RESTRICTED RIGHTS LEGEND
  
 Use, reproduction and disclosure by the US Government is
 subject to restrictions as set forth in subparagraphs (a)
 and (c) of the Commercial Computer Software - Restricted
 Rights clause in FAR 52.227-19.
  
 Gaussian, Inc.
 340 Quinnipiac St., Bldg. 40, Wallingford CT 06492
  
  
 ---------------------------------------------------------------
 Warning -- This program may not be used in any manner that
 competes with the business of Gaussian, Inc. or will provide
 assistance to any competitor of Gaussian, Inc.  The licensee
 of this program is prohibited from giving any competitor of
 Gaussian, Inc. access to this program.  By using this program,
 the user acknowledges that Gaussian, Inc. is engaged in the
 business of creating and licensing software in the field of
 computational chemistry and represents and warrants to the
 licensee that it is not a competitor of Gaussian, Inc. and that
 it will not use this program in any manner prohibited above.
 ---------------------------------------------------------------
  

 Cite this work as:
 Gaussian 16, Revision A.03,
 M. J. Frisch, G. W. Trucks, H. B. Schlegel, G. E. Scuseria, 
 M. A. Robb, J. R. Cheeseman, G. Scalmani, V. Barone, 
 G. A. Petersson, H. Nakatsuji, X. Li, M. Caricato, A. V. Marenich, 
 J. Bloino, B. G. Janesko, R. Gomperts, B. Mennucci, H. P. Hratchian, 
 J. V. Ortiz, A. F. Izmaylov, J. L. Sonnenberg, D. Williams-Young, 
 F. Ding, F. Lipparini, F. Egidi, J. Goings, B. Peng, A. Petrone, 
 T. Henderson, D. Ranasinghe, V. G. Zakrzewski, J. Gao, N. Rega, 
 G. Zheng, W. Liang, M. Hada, M. Ehara, K. Toyota, R. Fukuda, 
 J. Hasegawa, M. Ishida, T. Nakajima, Y. Honda, O. Kitao, H. Nakai, 
 T. Vreven, K. Throssell, J. A. Montgomery, Jr., J. E. Peralta, 
 F. Ogliaro, M. J. Bearpark, J. J. Heyd, E. N. Brothers, K. N. Kudin, 
 V. N. Staroverov, T. A. Keith, R. Kobayashi, J. Normand, 
 K. Raghavachari, A. P. Rendell, J. C. Burant, S. S. Iyengar, 
 J. Tomasi, M. Cossi, J. M. Millam, M. Klene, C. Adamo, R. Cammi, 
 J. W. Ochterski, R. L. Martin, K. Morokuma, O. Farkas, 
 J. B. Foresman, and D. J. Fox, Gaussian, Inc., Wallingford CT, 2016.
 
 ******************************************
 Gaussian 16:  ES64L-G16RevA.03 25-Dec-2016
                18-Apr-2021 
 ******************************************
 %RWF=temp12_28866,70GB
 %nprocshared=48
 Will use up to   48 processors via shared memory.
 Default route: MaxDisk=80GB
 ----------------------------------------------------------------------
 #P M062X/GEN Integral=UltraFineGrid SCF=NoSymm Stable=(RExt, Opt) IOp(
 1/33=1)
 ----------------------------------------------------------------------
 1/33=1,38=1,172=1/1;
 2/12=2,17=6,18=5,40=1/2;
 3/5=7,11=2,25=1,30=1,74=-55,75=-5/1,2,3;
 4/9=2/1;
 5/5=2,38=5/2;
 6/7=2,8=2,9=2,10=2,28=1/1;
 8/6=1,10=90,11=11/1;
 9/8=-3,42=1,46=1/14;
 5/5=2,8=3,17=40,38=5/8(-2);
 6/7=2,8=2,9=2,10=2,28=1/1;
 99/5=1,9=1/99;
 Leave Link    1 at Sun Apr 18 10:09:07 2021, MaxMem=           0 cpu:               8.3 elap:               0.2
 (Enter /s/ls4/users/knvvv/bin/g16sse/l101.exe)
 ONIOM data not found on unit 2.
 ----------------------
 Database calculations.
 ----------------------
 TstMul:  ICh=     0
 TstMul:  Mul=     4
 TstMul:  ICh=     0
 TstMul:  Mul=     4
 Symbolic Z-matrix:
 Charge =  0 Multiplicity = 4
 N                     0.        0.        0. 
 
 RdStrC is calling ZToCFu for IStruc=1 NZ=     1.
 PrtBox:  NBox=     1 Levels=  0 BoxLen=    8.00 SMaxX=        0.00
          Shift=            0.000000            0.000000            0.000000
 Box      1 Number                   0 centers from      1 to      1:
 After GenITR:
 ITRead=  0
 MicOpt= -1
 ITRead=  0
 MicOpt= -1
 NAtoms=      1 NQM=        1 NQMF=       0 NMMI=      0 NMMIF=      0
                NMic=       0 NMicF=      0.
                    Isotopes and Nuclear Properties:
 (Nuclear quadrupole moments (NQMom) in fm**2, nuclear magnetic moments (NMagM)
  in nuclear magnetons)

  Atom         1
 IAtWgt=          14
 AtmWgt=  14.0030740
 NucSpn=           2
 AtZEff=  -0.0000000
 NQMom=    2.0440000
 NMagM=    0.4037610
 AtZNuc=   7.0000000
 No MM parameters found.
 Leave Link  101 at Sun Apr 18 10:09:07 2021, MaxMem=   104857600 cpu:               5.5 elap:               0.1
 (Enter /s/ls4/users/knvvv/bin/g16sse/l202.exe)
                          Input orientation:                          
 ---------------------------------------------------------------------
 Center     Atomic      Atomic             Coordinates (Angstroms)
 Number     Number       Type             X           Y           Z
 ---------------------------------------------------------------------
      1          7           0        0.000000    0.000000    0.000000
 ---------------------------------------------------------------------
 Stoichiometry    N(4)
 Framework group  OH[O(N)]
 Deg. of freedom     0
 Full point group                 OH      NOp  48
 Largest Abelian subgroup         D2H     NOp   8
 Largest concise Abelian subgroup C1      NOp   1
                         Standard orientation:                         
 ---------------------------------------------------------------------
 Center     Atomic      Atomic             Coordinates (Angstroms)
 Number     Number       Type             X           Y           Z
 ---------------------------------------------------------------------
      1          7           0        0.000000    0.000000    0.000000
 ---------------------------------------------------------------------
 Leave Link  202 at Sun Apr 18 10:09:08 2021, MaxMem=   104857600 cpu:              31.0 elap:               0.7
 (Enter /s/ls4/users/knvvv/bin/g16sse/l301.exe)
 General basis read from cards:  (5D, 7F)
 Centers:       1
 S 6 1.00
     Exponent=  6.2934800000D+03 Coefficients=  1.9697900000D-03
     Exponent=  9.4904400000D+02 Coefficients=  1.4961300000D-02
     Exponent=  2.1877600000D+02 Coefficients=  7.3500600000D-02
     Exponent=  6.3691600000D+01 Coefficients=  2.4893700000D-01
     Exponent=  1.8828200000D+01 Coefficients=  6.0246000000D-01
     Exponent=  2.7202300000D+00 Coefficients=  2.5620200000D-01
 S 3 1.00
     Exponent=  3.0633100000D+01 Coefficients=  1.1190600000D-01
     Exponent=  7.0261400000D+00 Coefficients=  9.2166600000D-01
     Exponent=  2.1120500000D+00 Coefficients= -2.5691900000D-03
 S 1 1.00
     Exponent=  6.8400900000D-01 Coefficients=  1.0000000000D+00
 S 1 1.00
     Exponent=  2.0087800000D-01 Coefficients=  1.0000000000D+00
 S 1 1.00
     Exponent=  6.3900000000D-02 Coefficients=  1.0000000000D+00
 P 3 1.00
     Exponent=  3.0633100000D+01 Coefficients=  3.8311900000D-02
     Exponent=  7.0261400000D+00 Coefficients=  2.3740300000D-01
     Exponent=  2.1120500000D+00 Coefficients=  8.1759200000D-01
 P 1 1.00
     Exponent=  6.8400900000D-01 Coefficients=  1.0000000000D+00
 P 1 1.00
     Exponent=  2.0087800000D-01 Coefficients=  1.0000000000D+00
 P 1 1.00
     Exponent=  6.3900000000D-02 Coefficients=  1.0000000000D+00
 D 1 1.00
     Exponent=  1.8260000000D+00 Coefficients=  1.0000000000D+00
 D 1 1.00
     Exponent=  4.5650000000D-01 Coefficients=  1.0000000000D+00
 F 1 1.00
     Exponent=  1.0000000000D+00 Coefficients=  1.0000000000D+00
 ****
 Ernie: Thresh=  0.10000D-02 Tol=  0.10000D-05 Strict=F.
 There are    11 symmetry adapted cartesian basis functions of AG  symmetry.
 There are     2 symmetry adapted cartesian basis functions of B1G symmetry.
 There are     2 symmetry adapted cartesian basis functions of B2G symmetry.
 There are     2 symmetry adapted cartesian basis functions of B3G symmetry.
 There are     1 symmetry adapted cartesian basis functions of AU  symmetry.
 There are     7 symmetry adapted cartesian basis functions of B1U symmetry.
 There are     7 symmetry adapted cartesian basis functions of B2U symmetry.
 There are     7 symmetry adapted cartesian basis functions of B3U symmetry.
 There are     9 symmetry adapted basis functions of AG  symmetry.
 There are     2 symmetry adapted basis functions of B1G symmetry.
 There are     2 symmetry adapted basis functions of B2G symmetry.
 There are     2 symmetry adapted basis functions of B3G symmetry.
 There are     1 symmetry adapted basis functions of AU  symmetry.
 There are     6 symmetry adapted basis functions of B1U symmetry.
 There are     6 symmetry adapted basis functions of B2U symmetry.
 There are     6 symmetry adapted basis functions of B3U symmetry.
    34 basis functions,    52 primitive gaussians,    39 cartesian basis functions
     5 alpha electrons        2 beta electrons
       nuclear repulsion energy         0.0000000000 Hartrees.
 IExCor= 4336 DFT=T Ex+Corr=M062X ExCW=0 ScaHFX=  0.540000
 ScaDFX=  1.000000  1.000000  1.000000  1.000000 ScalE2=  1.000000  1.000000
 IRadAn=      5 IRanWt=     -1 IRanGd=            0 ICorTp=0 IEmpDi=  4
 NAtoms=    1 NActive=    1 NUniq=    1 SFac= 1.00D+00 NAtFMM=   60 NAOKFM=F Big=F
 Integral buffers will be    131072 words long.
 Raffenetti 2 integral format.
 Two-electron integral symmetry is turned on.
 Leave Link  301 at Sun Apr 18 10:09:08 2021, MaxMem=   104857600 cpu:               7.3 elap:               0.2
 (Enter /s/ls4/users/knvvv/bin/g16sse/l302.exe)
 NPDir=0 NMtPBC=     1 NCelOv=     1 NCel=       1 NClECP=     1 NCelD=      1
         NCelK=      1 NCelE2=     1 NClLst=     1 CellRange=     0.0.
 One-electron integrals computed using PRISM.
 One-electron integral symmetry used in STVInt
 PrsmSu:  requested number of processors reduced to:  13 ShMem   1 Linda.
 NBasis=    34 RedAO= T EigKep=  7.52D-02  NBF=     9     2     2     2     1     6     6     6
 NBsUse=    34 1.00D-06 EigRej= -1.00D+00 NBFU=     9     2     2     2     1     6     6     6
 Precomputing XC quadrature grid using
 IXCGrd= 4 IRadAn=           5 IRanWt=          -1 IRanGd=           0 AccXCQ= 0.00D+00.
 Generated NRdTot=       0 NPtTot=           0 NUsed=           0 NTot=          32
 NSgBfM=    39    39    39    39    39 MxSgAt=     1 MxSgA2=     1.
 Leave Link  302 at Sun Apr 18 10:09:11 2021, MaxMem=   104857600 cpu:             141.4 elap:               3.0
 (Enter /s/ls4/users/knvvv/bin/g16sse/l303.exe)
 DipDrv:  MaxL=1.
 Leave Link  303 at Sun Apr 18 10:09:11 2021, MaxMem=   104857600 cpu:              14.7 elap:               0.3
 (Enter /s/ls4/users/knvvv/bin/g16sse/l401.exe)
 SCF N**3 symmetry information disabled.
 ExpMin= 6.39D-02 ExpMax= 6.29D+03 ExpMxC= 9.49D+02 IAcc=3 IRadAn=         5 AccDes= 0.00D+00
 Harris functional with IExCor= 1009 and IRadAn=       5 diagonalized for initial guess.
 HarFok:  IExCor= 1009 AccDes= 0.00D+00 IRadAn=         5 IDoV= 1 UseB2=F ITyADJ=14
 ICtDFT=  3500011 ScaDFX=  1.000000  1.000000  1.000000  1.000000
 FoFCou: FMM=F IPFlag=           0 FMFlag=      100000 FMFlg1=           0
         NFxFlg=           0 DoJE=T BraDBF=F KetDBF=T FulRan=T
         wScrn=  0.000000 ICntrl=       500 IOpCl=  0 I1Cent=   200000004 NGrid=           0
         NMat0=    1 NMatS0=      1 NMatT0=    0 NMatD0=    1 NMtDS0=    0 NMtDT0=    0
 Petite list used in FoFCou.
 Harris En= -54.4060363976725    
 JPrj=0 DoOrth=F DoCkMO=F.
 Initial guess orbital symmetries:
 Alpha Orbitals:
       Occupied  (A1G) (A1G) (T1U) (T1U) (T1U)
       Virtual   (A1G) (T1U) (T1U) (T1U) (T1U) (T1U) (T1U) (A1G)
                 (T2G) (T2G) (T2G) (EG) (EG) (T2U) (T2U) (T2U)
                 (A2U) (T1U) (T1U) (T1U) (T1U) (T1U) (T1U) (T2G)
                 (T2G) (T2G) (EG) (EG) (A1G)
 Beta  Orbitals:
       Occupied  (A1G) (A1G)
       Virtual   (T1U) (T1U) (T1U) (A1G) (T1U) (T1U) (T1U) (T1U)
                 (T1U) (T1U) (A1G) (T2G) (T2G) (T2G) (EG) (EG)
                 (T2U) (T2U) (T2U) (A2U) (T1U) (T1U) (T1U) (T1U)
                 (T1U) (T1U) (T2G) (T2G) (T2G) (EG) (EG) (A1G)
 The electronic state of the initial guess is 4-A1G.
 Initial guess <Sx>= 0.0000 <Sy>= 0.0000 <Sz>= 1.5000 <S**2>= 3.7500 S= 1.5000
 Leave Link  401 at Sun Apr 18 10:09:14 2021, MaxMem=   104857600 cpu:             146.2 elap:               3.1
 (Enter /s/ls4/users/knvvv/bin/g16sse/l502.exe)
 Keep R1 and R2 ints in memory in symmetry-blocked form, NReq=41636680.
 FoFCou: FMM=F IPFlag=           0 FMFlag=           0 FMFlg1=           0
         NFxFlg=           0 DoJE=F BraDBF=F KetDBF=F FulRan=T
         wScrn=  0.000000 ICntrl=       600 IOpCl=  0 I1Cent=           0 NGrid=           0
         NMat0=    1 NMatS0=    595 NMatT0=    0 NMatD0=    1 NMtDS0=    0 NMtDT0=    0
 Petite list used in FoFCou.
 UHF open shell SCF:
 Using DIIS extrapolation, IDIIS=  1040.
 NGot=   104857600 LenX=   104798410 LenY=   104796448
 Requested convergence on RMS density matrix=1.00D-08 within 128 cycles.
 Requested convergence on MAX density matrix=1.00D-06.
 Requested convergence on             energy=1.00D-06.
 No special actions if energy rises.
 Integral accuracy reduced to 1.0D-05 until final iterations.

 Cycle   1  Pass 0  IDiag  1:
 E= -54.5644874928974    
 DIIS: error= 3.66D-02 at cycle   1 NSaved=   1.
 NSaved= 1 IEnMin= 1 EnMin= -54.5644874928974     IErMin= 1 ErrMin= 3.66D-02
 ErrMax= 3.66D-02  0.00D+00 EMaxC= 1.00D-01 BMatC= 7.01D-02 BMatP= 7.01D-02
 IDIUse=3 WtCom= 6.34D-01 WtEn= 3.66D-01
 Coeff-Com:  0.100D+01
 Coeff-En:   0.100D+01
 Coeff:      0.100D+01
 Gap=     0.579 Goal=   None    Shift=    0.000
 Gap=     0.662 Goal=   None    Shift=    0.000
 GapD=    0.579 DampG=2.000 DampE=0.500 DampFc=1.0000 IDamp=-1.
 RMSDP=3.90D-03 MaxDP=7.56D-02              OVMax= 9.37D-02

 Cycle   2  Pass 0  IDiag  1:
 E= -54.5816355979271     Delta-E=       -0.017148105030 Rises=F Damp=F
 DIIS: error= 1.48D-02 at cycle   2 NSaved=   2.
 NSaved= 2 IEnMin= 2 EnMin= -54.5816355979271     IErMin= 2 ErrMin= 1.48D-02
 ErrMax= 1.48D-02  0.00D+00 EMaxC= 1.00D-01 BMatC= 1.52D-02 BMatP= 7.01D-02
 IDIUse=3 WtCom= 8.52D-01 WtEn= 1.48D-01
 Coeff-Com:  0.270D+00 0.730D+00
 Coeff-En:   0.000D+00 0.100D+01
 Coeff:      0.230D+00 0.770D+00
 Gap=     0.530 Goal=   None    Shift=    0.000
 Gap=     0.635 Goal=   None    Shift=    0.000
 RMSDP=1.67D-03 MaxDP=5.00D-02 DE=-1.71D-02 OVMax= 3.14D-02

 Cycle   3  Pass 0  IDiag  1:
 E= -54.5845596788525     Delta-E=       -0.002924080925 Rises=F Damp=F
 DIIS: error= 2.68D-03 at cycle   3 NSaved=   3.
 NSaved= 3 IEnMin= 3 EnMin= -54.5845596788525     IErMin= 3 ErrMin= 2.68D-03
 ErrMax= 2.68D-03  0.00D+00 EMaxC= 1.00D-01 BMatC= 2.91D-04 BMatP= 1.52D-02
 IDIUse=3 WtCom= 9.73D-01 WtEn= 2.68D-02
 Coeff-Com: -0.464D-01 0.355D-01 0.101D+01
 Coeff-En:   0.000D+00 0.000D+00 0.100D+01
 Coeff:     -0.451D-01 0.346D-01 0.101D+01
 Gap=     0.532 Goal=   None    Shift=    0.000
 Gap=     0.628 Goal=   None    Shift=    0.000
 RMSDP=2.75D-04 MaxDP=3.68D-03 DE=-2.92D-03 OVMax= 5.88D-03

 Cycle   4  Pass 0  IDiag  1:
 E= -54.5846771487057     Delta-E=       -0.000117469853 Rises=F Damp=F
 DIIS: error= 3.43D-04 at cycle   4 NSaved=   4.
 NSaved= 4 IEnMin= 4 EnMin= -54.5846771487057     IErMin= 4 ErrMin= 3.43D-04
 ErrMax= 3.43D-04  0.00D+00 EMaxC= 1.00D-01 BMatC= 2.74D-06 BMatP= 2.91D-04
 IDIUse=3 WtCom= 9.97D-01 WtEn= 3.43D-03
 Coeff-Com:  0.475D-02-0.142D-01-0.180D+00 0.119D+01
 Coeff-En:   0.000D+00 0.000D+00 0.000D+00 0.100D+01
 Coeff:      0.473D-02-0.142D-01-0.179D+00 0.119D+01
 Gap=     0.532 Goal=   None    Shift=    0.000
 Gap=     0.627 Goal=   None    Shift=    0.000
 RMSDP=5.01D-05 MaxDP=1.29D-03 DE=-1.17D-04 OVMax= 1.33D-03

 Cycle   5  Pass 0  IDiag  1:
 E= -54.5846789007990     Delta-E=       -0.000001752093 Rises=F Damp=F
 DIIS: error= 1.23D-05 at cycle   5 NSaved=   5.
 NSaved= 5 IEnMin= 5 EnMin= -54.5846789007990     IErMin= 5 ErrMin= 1.23D-05
 ErrMax= 1.23D-05  0.00D+00 EMaxC= 1.00D-01 BMatC= 3.62D-09 BMatP= 2.74D-06
 IDIUse=1 WtCom= 1.00D+00 WtEn= 0.00D+00
 Coeff-Com: -0.134D-03 0.527D-03 0.579D-02-0.692D-01 0.106D+01
 Coeff:     -0.134D-03 0.527D-03 0.579D-02-0.692D-01 0.106D+01
 Gap=     0.532 Goal=   None    Shift=    0.000
 Gap=     0.627 Goal=   None    Shift=    0.000
 RMSDP=1.90D-06 MaxDP=3.95D-05 DE=-1.75D-06 OVMax= 5.10D-05

 Initial convergence to 1.0D-05 achieved.  Increase integral accuracy.
 Cycle   6  Pass 1  IDiag  1:
 E= -54.5846219236254     Delta-E=        0.000056977174 Rises=F Damp=F
 DIIS: error= 2.01D-04 at cycle   1 NSaved=   1.
 NSaved= 1 IEnMin= 1 EnMin= -54.5846219236254     IErMin= 1 ErrMin= 2.01D-04
 ErrMax= 2.01D-04  0.00D+00 EMaxC= 1.00D-01 BMatC= 9.22D-07 BMatP= 9.22D-07
 IDIUse=3 WtCom= 9.98D-01 WtEn= 2.01D-03
 Coeff-Com:  0.100D+01
 Coeff-En:   0.100D+01
 Coeff:      0.100D+01
 Gap=     0.532 Goal=   None    Shift=    0.000
 Gap=     0.627 Goal=   None    Shift=    0.000
 RMSDP=1.90D-06 MaxDP=3.95D-05 DE= 5.70D-05 OVMax= 4.20D-05

 Cycle   7  Pass 1  IDiag  1:
 E= -54.5846219402847     Delta-E=       -0.000000016659 Rises=F Damp=F
 DIIS: error= 5.75D-06 at cycle   2 NSaved=   2.
 NSaved= 2 IEnMin= 2 EnMin= -54.5846219402847     IErMin= 2 ErrMin= 5.75D-06
 ErrMax= 5.75D-06  0.00D+00 EMaxC= 1.00D-01 BMatC= 7.32D-10 BMatP= 9.22D-07
 IDIUse=1 WtCom= 1.00D+00 WtEn= 0.00D+00
 Coeff-Com: -0.146D-01 0.101D+01
 Coeff:     -0.146D-01 0.101D+01
 Gap=     0.532 Goal=   None    Shift=    0.000
 Gap=     0.627 Goal=   None    Shift=    0.000
 RMSDP=4.46D-07 MaxDP=1.29D-05 DE=-1.67D-08 OVMax= 7.34D-06

 Cycle   8  Pass 1  IDiag  1:
 E= -54.5846219403467     Delta-E=       -0.000000000062 Rises=F Damp=F
 DIIS: error= 4.50D-07 at cycle   3 NSaved=   3.
 NSaved= 3 IEnMin= 3 EnMin= -54.5846219403467     IErMin= 3 ErrMin= 4.50D-07
 ErrMax= 4.50D-07  0.00D+00 EMaxC= 1.00D-01 BMatC= 4.39D-12 BMatP= 7.32D-10
 IDIUse=1 WtCom= 1.00D+00 WtEn= 0.00D+00
 Coeff-Com: -0.955D-03 0.150D-02 0.999D+00
 Coeff:     -0.955D-03 0.150D-02 0.999D+00
 Gap=     0.532 Goal=   None    Shift=    0.000
 Gap=     0.627 Goal=   None    Shift=    0.000
 RMSDP=7.30D-08 MaxDP=2.16D-06 DE=-6.20D-11 OVMax= 1.04D-06

 Cycle   9  Pass 1  IDiag  1:
 E= -54.5846219403482     Delta-E=       -0.000000000002 Rises=F Damp=F
 DIIS: error= 9.53D-08 at cycle   4 NSaved=   4.
 NSaved= 4 IEnMin= 4 EnMin= -54.5846219403482     IErMin= 4 ErrMin= 9.53D-08
 ErrMax= 9.53D-08  0.00D+00 EMaxC= 1.00D-01 BMatC= 3.31D-13 BMatP= 4.39D-12
 IDIUse=1 WtCom= 1.00D+00 WtEn= 0.00D+00
 Coeff-Com:  0.712D-04-0.102D-01 0.136D+00 0.874D+00
 Coeff:      0.712D-04-0.102D-01 0.136D+00 0.874D+00
 Gap=     0.532 Goal=   None    Shift=    0.000
 Gap=     0.627 Goal=   None    Shift=    0.000
 RMSDP=1.19D-08 MaxDP=1.98D-07 DE=-1.55D-12 OVMax= 2.83D-07

 Cycle  10  Pass 1  IDiag  1:
 E= -54.5846219403483     Delta-E=       -0.000000000000 Rises=F Damp=F
 DIIS: error= 2.09D-08 at cycle   5 NSaved=   5.
 NSaved= 5 IEnMin= 5 EnMin= -54.5846219403483     IErMin= 5 ErrMin= 2.09D-08
 ErrMax= 2.09D-08  0.00D+00 EMaxC= 1.00D-01 BMatC= 2.07D-14 BMatP= 3.31D-13
 IDIUse=1 WtCom= 1.00D+00 WtEn= 0.00D+00
 Coeff-Com:  0.461D-04-0.752D-04-0.522D-01 0.100D+00 0.952D+00
 Coeff:      0.461D-04-0.752D-04-0.522D-01 0.100D+00 0.952D+00
 Gap=     0.532 Goal=   None    Shift=    0.000
 Gap=     0.627 Goal=   None    Shift=    0.000
 RMSDP=3.54D-09 MaxDP=8.99D-08 DE=-9.95D-14 OVMax= 5.23D-08

 SCF Done:  E(UM062X) =  -54.5846219403     A.U. after   10 cycles
            NFock= 10  Conv=0.35D-08     -V/T= 2.0015
 <Sx>= 0.0000 <Sy>= 0.0000 <Sz>= 1.5000 <S**2>= 3.7541 S= 1.5010
 <L.S>= 0.000000000000E+00
 KE= 5.450366929841D+01 PE=-1.284383299087D+02 EE= 1.935003866991D+01
 Annihilation of the first spin contaminant:
 S**2 before annihilation     3.7541,   after     3.7500
 Leave Link  502 at Sun Apr 18 10:10:10 2021, MaxMem=   104857600 cpu:            2600.1 elap:              55.3
 (Enter /s/ls4/users/knvvv/bin/g16sse/l601.exe)
 Copying SCF densities to generalized density rwf, IOpCl= 1 IROHF=0.

 **********************************************************************

            Population analysis using the SCF density.

 **********************************************************************

 Orbital symmetries:
 Alpha Orbitals:
       Occupied  (A1G) (A1G) (T1U) (T1U) (T1U)
       Virtual   (A1G) (T1U) (T1U) (T1U) (T1U) (T1U) (T1U) (A1G)
                 (T2G) (T2G) (T2G) (EG) (EG) (A2U) (T2U) (T2U)
                 (T2U) (T1U) (T1U) (T1U) (T1U) (T1U) (T1U) (T2G)
                 (T2G) (T2G) (EG) (EG) (A1G)
 Beta  Orbitals:
       Occupied  (A1G) (A1G)
       Virtual   (T1U) (T1U) (T1U) (A1G) (T1U) (T1U) (T1U) (T1U)
                 (T1U) (T1U) (A1G) (T2G) (T2G) (T2G) (EG) (EG)
                 (A2U) (T2U) (T2U) (T2U) (T1U) (T1U) (T1U) (T1U)
                 (T1U) (T1U) (T2G) (T2G) (T2G) (EG) (EG) (A1G)
 The electronic state is 4-A1G.
 Alpha  occ. eigenvalues --  -14.84874  -0.91807  -0.43298  -0.43298  -0.43298
 Alpha virt. eigenvalues --    0.09907   0.12513   0.12513   0.12513   0.77918
 Alpha virt. eigenvalues --    0.77918   0.77918   0.93748   1.01870   1.01870
 Alpha virt. eigenvalues --    1.01870   1.01870   1.01870   3.52032   3.52032
 Alpha virt. eigenvalues --    3.52032   3.52032   3.52032   3.52032   3.52032
 Alpha virt. eigenvalues --    3.76179   3.76179   3.76179   4.60229   4.60229
 Alpha virt. eigenvalues --    4.60229   4.60229   4.60229  35.23718
  Beta  occ. eigenvalues --  -14.80760  -0.68960
  Beta virt. eigenvalues --   -0.06284  -0.06284  -0.06284   0.06577   0.15992
  Beta virt. eigenvalues --    0.15992   0.15992   0.81744   0.81744   0.81744
  Beta virt. eigenvalues --    0.98755   1.05362   1.05362   1.05362   1.05362
  Beta virt. eigenvalues --    1.05362   3.51765   3.51765   3.51765   3.51765
  Beta virt. eigenvalues --    3.51765   3.51765   3.51765   3.81975   3.81975
  Beta virt. eigenvalues --    3.81975   4.80506   4.80506   4.80506   4.80506
  Beta virt. eigenvalues --    4.80506  35.23905
          Condensed to atoms (all electrons):
               1
     1  N    7.000000
          Atomic-Atomic Spin Densities.
               1
     1  N    3.000000
 Mulliken charges and spin densities:
               1          2
     1  N   -0.000000   3.000000
 Sum of Mulliken charges =  -0.00000   3.00000
 Mulliken charges and spin densities with hydrogens summed into heavy atoms:
               1          2
     1  N   -0.000000   3.000000
 Electronic spatial extent (au):  <R**2>=             12.3672
 Charge=             -0.0000 electrons
 Dipole moment (field-independent basis, Debye):
    X=             -0.0000    Y=              0.0000    Z=             -0.0000  Tot=              0.0000
 Quadrupole moment (field-independent basis, Debye-Ang):
   XX=             -5.5448   YY=             -5.5448   ZZ=             -5.5448
   XY=              0.0000   XZ=              0.0000   YZ=             -0.0000
 Traceless Quadrupole moment (field-independent basis, Debye-Ang):
   XX=              0.0000   YY=             -0.0000   ZZ=             -0.0000
   XY=              0.0000   XZ=              0.0000   YZ=             -0.0000
 Octapole moment (field-independent basis, Debye-Ang**2):
  XXX=             -0.0000  YYY=              0.0000  ZZZ=             -0.0000  XYY=             -0.0000
  XXY=              0.0000  XXZ=              0.0000  XZZ=             -0.0000  YZZ=             -0.0000
  YYZ=             -0.0000  XYZ=             -0.0000
 Hexadecapole moment (field-independent basis, Debye-Ang**3):
 XXXX=             -5.1352 YYYY=             -5.1352 ZZZZ=             -5.1352 XXXY=              0.0000
 XXXZ=             -0.0000 YYYX=             -0.0000 YYYZ=              0.0000 ZZZX=              0.0000
 ZZZY=             -0.0000 XXYY=             -1.7117 XXZZ=             -1.7117 YYZZ=             -1.7117
 XXYZ=             -0.0000 YYXZ=              0.0000 ZZXY=              0.0000
 N-N= 0.000000000000D+00 E-N=-1.284383302326D+02  KE= 5.450366929841D+01
                          Isotropic Fermi Contact Couplings
        Atom                 a.u.       MegaHertz       Gauss      10(-4) cm-1
     1  N(14)              0.30353      32.69014      11.66466      10.90426
 --------------------------------------------------------
       Center         ----  Spin Dipole Couplings  ----
                      3XX-RR        3YY-RR        3ZZ-RR
 --------------------------------------------------------
     1   Atom        0.000000      0.000000      0.000000
 --------------------------------------------------------
                        XY            XZ            YZ
 --------------------------------------------------------
     1   Atom        0.000000      0.000000      0.000000
 --------------------------------------------------------


 ---------------------------------------------------------------------------------
              Anisotropic Spin Dipole Couplings in Principal Axis System
 ---------------------------------------------------------------------------------

       Atom             a.u.   MegaHertz   Gauss  10(-4) cm-1        Axes

              Baa     0.0000     0.000     0.000     0.000  1.0000  0.0000  0.0000
     1 N(14)  Bbb     0.0000     0.000     0.000     0.000 -0.0000  1.0000  0.0000
              Bcc     0.0000     0.000     0.000     0.000  0.0000  0.0000  1.0000
 

 ---------------------------------------------------------------------------------

 No NMR shielding tensors so no spin-rotation constants.
 Leave Link  601 at Sun Apr 18 10:10:12 2021, MaxMem=   104857600 cpu:             123.7 elap:               2.7
 (Enter /s/ls4/users/knvvv/bin/g16sse/l801.exe)
 DoSCS=F DFT=T ScalE2(SS,OS)=  1.000000  1.000000
 Range of M.O.s used for correlation:     1    34
 NBasis=    34 NAE=     5 NBE=     2 NFC=     0 NFV=     0
 NROrb=     34 NOA=     5 NOB=     2 NVA=    29 NVB=    32
 Leave Link  801 at Sun Apr 18 10:10:12 2021, MaxMem=   104857600 cpu:               4.6 elap:               0.1
 (Enter /s/ls4/users/knvvv/bin/g16sse/l914.exe)
 UHF ground state
 Doing stability rather than CIS.
 Keep R1 and R2 ints in memory in symmetry-blocked form, NReq=53275628.
 FoFCou: FMM=F IPFlag=           0 FMFlag=           0 FMFlg1=           0
         NFxFlg=           0 DoJE=F BraDBF=F KetDBF=F FulRan=T
         wScrn=  0.000000 ICntrl=       600 IOpCl=  0 I1Cent=           0 NGrid=           0
         NMat0=    1 NMatS0=    595 NMatT0=    0 NMatD0=    1 NMtDS0=    0 NMtDT0=    0
 Petite list used in FoFCou.
 MDV=   104857600 DFT=T DoStab=T Mixed=T DoRPA=F DoScal=F NonHer=F
 Making orbital integer symmetry assigments:
 Orbital symmetries:
 Alpha Orbitals:
       Occupied  (A1G) (A1G) (T1U) (T1U) (T1U)
       Virtual   (A1G) (T1U) (T1U) (T1U) (T1U) (T1U) (T1U) (A1G)
                 (T2G) (T2G) (T2G) (EG) (EG) (A2U) (T2U) (T2U)
                 (T2U) (T1U) (T1U) (T1U) (T1U) (T1U) (T1U) (T2G)
                 (T2G) (T2G) (EG) (EG) (A1G)
 Beta  Orbitals:
       Occupied  (A1G) (A1G)
       Virtual   (T1U) (T1U) (T1U) (A1G) (T1U) (T1U) (T1U) (T1U)
                 (T1U) (T1U) (A1G) (T2G) (T2G) (T2G) (EG) (EG)
                 (A2U) (T2U) (T2U) (T2U) (T1U) (T1U) (T1U) (T1U)
                 (T1U) (T1U) (T2G) (T2G) (T2G) (EG) (EG) (A1G)
    24 initial guesses have been made.
 Convergence on wavefunction:    0.001000000000000
 Davidson Disk Diagonalization:  ConvIn= 1.00D-03 SkipCon=T Conv= 1.00D-03.
 Max sub-space:   418 roots to seek:    24 dimension of matrix:          209
 Iteration     1 Dimension    24 NMult     0 NNew     24
 CISAX will form    24 AO SS matrices at one time.
 NMat=    24 NSing=    24 JSym2X= 2.
 New state      1 was old state      2
 Excitation Energies [eV] at current iteration:
 Root      1 :    10.512881215846510
 Root      2 :    10.512881215846660
 Root      3 :    10.512881215846770
 Root      4 :    11.401770983222590
 Root      5 :    11.544603437301050
 Root      6 :    11.544603437301500
 Root      7 :    11.544603437324670
 Root      8 :    11.544603437350500
 Root      9 :    11.979627372297890
 Root     10 :    11.985711662576430
 Root     11 :    11.985711662576820
 Root     12 :    13.506384037833120
 Root     13 :    13.506384037836680
 Root     14 :    13.506384037837730
 Root     15 :    13.604050165596030
 Root     16 :    17.926721760065360
 Root     17 :    18.748002526224490
 Root     18 :    18.748002526235310
 Root     19 :    18.748002526245540
 Root     20 :    24.047514696354380
 Root     21 :    25.081364847551210
 Root     22 :    25.081364847551360
 Root     23 :    25.081364847551460
 Root     24 :    28.533101238227870
 Iteration     2 Dimension    48 NMult    24 NNew     24
 CISAX will form    24 AO SS matrices at one time.
 NMat=    24 NSing=    24 JSym2X= 2.
 Root      1 not converged, maximum delta is    0.399127013440486
 Excitation Energies [eV] at current iteration:
 Root      1 :    10.209896226358780   Change is   -0.302984989487735
 Root      2 :    10.209896226359670   Change is   -0.302984989487098
 Root      3 :    10.209896226359730   Change is   -0.302984989486929
 Root      4 :    11.265226410389600   Change is   -0.136544572832985
 Root      5 :    11.265561025956430   Change is   -0.279042411344615
 Root      6 :    11.265561025956790   Change is   -0.279042411344709
 Root      7 :    11.265561025980660   Change is   -0.279042411344017
 Root      8 :    11.265561026007600   Change is   -0.279042411342899
 Root      9 :    11.509501313750440   Change is   -1.996882724082682
 Root     10 :    11.509501313752640   Change is   -1.996882724084037
 Root     11 :    11.509501313753500   Change is   -1.996882724084225
 Root     12 :    11.948451978218000   Change is   -0.031175394079894
 Root     13 :    11.948461846102050   Change is   -0.037249816474382
 Root     14 :    11.948461846102450   Change is   -0.037249816474375
 Root     15 :    13.348956019698290   Change is   -0.255094145897741
 Root     16 :    17.285704747446520   Change is   -0.641017012618841
 Root     17 :    18.419240654344860   Change is   -0.328761871879631
 Root     18 :    18.419240654354890   Change is   -0.328761871880423
 Root     19 :    18.419240654365440   Change is   -0.328761871880097
 Root     20 :    23.779586201519860   Change is   -0.267928494834525
 Root     21 :    24.843628981912320   Change is   -0.237735865638884
 Root     22 :    24.843628981912450   Change is   -0.237735865639014
 Root     23 :    24.843628981912460   Change is   -0.237735865638905
 Root     24 :    25.620507787096340   Change is   -2.912593451131527
 Iteration     3 Dimension    51 NMult    48 NNew      3
 CISAX will form     3 AO SS matrices at one time.
 NMat=     3 NSing=     3 JSym2X= 2.
 Root      1 not converged, maximum delta is    0.025015287631235
 Excitation Energies [eV] at current iteration:
 Root      1 :    10.208285312431680   Change is   -0.001610913927095
 Root      2 :    10.208285312432590   Change is   -0.001610913927083
 Root      3 :    10.208285312432660   Change is   -0.001610913927068
 Iteration     4 Dimension    54 NMult    51 NNew      3
 CISAX will form     3 AO SS matrices at one time.
 NMat=     3 NSing=     3 JSym2X= 2.
 Root      1 not converged, maximum delta is    0.035624499216399
 Excitation Energies [eV] at current iteration:
 Root      1 :    10.208283981654300   Change is   -0.000001330777381
 Root      2 :    10.208283981655220   Change is   -0.000001330777371
 Root      3 :    10.208283981655290   Change is   -0.000001330777368
 Iteration     5 Dimension    57 NMult    54 NNew      3
 CISAX will form     3 AO SS matrices at one time.
 NMat=     3 NSing=     3 JSym2X= 2.
 Root      1 not converged, maximum delta is    0.135880358821858
 Excitation Energies [eV] at current iteration:
 Root      1 :    10.208283980017660   Change is   -0.000000001636636
 Root      2 :    10.208283980018550   Change is   -0.000000001636667
 Root      3 :    10.208283980018570   Change is   -0.000000001636721
 Convergence achieved on expansion vectors.
 ***********************************************************************
 Stability analysis using <AA,BB:AA,BB> singles matrix:
 ***********************************************************************
 1PDM for each excited state written to RWF  633
 Ground to excited state transition densities written to RWF  633

 Eigenvectors of the stability matrix:
 
 Eigenvector   1:  4.003-T1U  Eigenvalue= 0.3751475  <S**2>=3.755
      3A ->  6A       -0.55596
      4A ->  6A        0.20699
      5A ->  6A        0.64317
      2B ->  3B       -0.27032
      2B ->  4B        0.24172
      2B ->  5B        0.23825
      2B ->  8B        0.11546
 
 Eigenvector   2:  4.003-T1U  Eigenvalue= 0.3751475  <S**2>=3.755
      3A ->  6A       -0.12270
      4A ->  6A        0.78814
      5A ->  6A       -0.35971
      2B ->  3B       -0.11290
      2B ->  4B        0.22320
      2B ->  5B       -0.35454
      2B ->  9B        0.12299
 
 Eigenvector   3:  4.003-T1U  Eigenvalue= 0.3751475  <S**2>=3.755
      3A ->  6A        0.66442
      4A ->  6A        0.31875
      5A ->  6A        0.47175
      2B ->  3B        0.32007
      2B ->  4B        0.28287
      2B ->  7B       -0.11370
 The wavefunction is stable under the perturbations considered.
 Leave Link  914 at Sun Apr 18 10:10:20 2021, MaxMem=   104857600 cpu:             342.7 elap:               7.3
 (Enter /s/ls4/users/knvvv/bin/g16sse/l508.exe)
 The wavefunction is already stable.
 Leave Link  508 at Sun Apr 18 10:10:20 2021, MaxMem=   104857600 cpu:               2.2 elap:               0.1
 (Enter /s/ls4/users/knvvv/bin/g16sse/l601.exe)
 Copying SCF densities to generalized density rwf, IOpCl= 1 IROHF=0.

 **********************************************************************

            Population analysis using the SCF density.

 **********************************************************************

 Orbital symmetries:
 Alpha Orbitals:
       Occupied  (A1G) (A1G) (T1U) (T1U) (T1U)
       Virtual   (A1G) (T1U) (T1U) (T1U) (T1U) (T1U) (T1U) (A1G)
                 (T2G) (T2G) (T2G) (EG) (EG) (A2U) (T2U) (T2U)
                 (T2U) (T1U) (T1U) (T1U) (T1U) (T1U) (T1U) (T2G)
                 (T2G) (T2G) (EG) (EG) (A1G)
 Beta  Orbitals:
       Occupied  (A1G) (A1G)
       Virtual   (T1U) (T1U) (T1U) (A1G) (T1U) (T1U) (T1U) (T1U)
                 (T1U) (T1U) (A1G) (T2G) (T2G) (T2G) (EG) (EG)
                 (A2U) (T2U) (T2U) (T2U) (T1U) (T1U) (T1U) (T1U)
                 (T1U) (T1U) (T2G) (T2G) (T2G) (EG) (EG) (A1G)
 The electronic state is 4-A1G.
 Alpha  occ. eigenvalues --  -14.84874  -0.91807  -0.43298  -0.43298  -0.43298
 Alpha virt. eigenvalues --    0.09907   0.12513   0.12513   0.12513   0.77918
 Alpha virt. eigenvalues --    0.77918   0.77918   0.93748   1.01870   1.01870
 Alpha virt. eigenvalues --    1.01870   1.01870   1.01870   3.52032   3.52032
 Alpha virt. eigenvalues --    3.52032   3.52032   3.52032   3.52032   3.52032
 Alpha virt. eigenvalues --    3.76179   3.76179   3.76179   4.60229   4.60229
 Alpha virt. eigenvalues --    4.60229   4.60229   4.60229  35.23718
  Beta  occ. eigenvalues --  -14.80760  -0.68960
  Beta virt. eigenvalues --   -0.06284  -0.06284  -0.06284   0.06577   0.15992
  Beta virt. eigenvalues --    0.15992   0.15992   0.81744   0.81744   0.81744
  Beta virt. eigenvalues --    0.98755   1.05362   1.05362   1.05362   1.05362
  Beta virt. eigenvalues --    1.05362   3.51765   3.51765   3.51765   3.51765
  Beta virt. eigenvalues --    3.51765   3.51765   3.51765   3.81975   3.81975
  Beta virt. eigenvalues --    3.81975   4.80506   4.80506   4.80506   4.80506
  Beta virt. eigenvalues --    4.80506  35.23905
          Condensed to atoms (all electrons):
               1
     1  N    7.000000
          Atomic-Atomic Spin Densities.
               1
     1  N    3.000000
 Mulliken charges and spin densities:
               1          2
     1  N   -0.000000   3.000000
 Sum of Mulliken charges =  -0.00000   3.00000
 Mulliken charges and spin densities with hydrogens summed into heavy atoms:
               1          2
     1  N   -0.000000   3.000000
 Electronic spatial extent (au):  <R**2>=             12.3672
 Charge=             -0.0000 electrons
 Dipole moment (field-independent basis, Debye):
    X=             -0.0000    Y=              0.0000    Z=             -0.0000  Tot=              0.0000
 Quadrupole moment (field-independent basis, Debye-Ang):
   XX=             -5.5448   YY=             -5.5448   ZZ=             -5.5448
   XY=              0.0000   XZ=              0.0000   YZ=             -0.0000
 Traceless Quadrupole moment (field-independent basis, Debye-Ang):
   XX=              0.0000   YY=             -0.0000   ZZ=             -0.0000
   XY=              0.0000   XZ=              0.0000   YZ=             -0.0000
 Octapole moment (field-independent basis, Debye-Ang**2):
  XXX=             -0.0000  YYY=              0.0000  ZZZ=             -0.0000  XYY=             -0.0000
  XXY=              0.0000  XXZ=              0.0000  XZZ=             -0.0000  YZZ=             -0.0000
  YYZ=             -0.0000  XYZ=             -0.0000
 Hexadecapole moment (field-independent basis, Debye-Ang**3):
 XXXX=             -5.1352 YYYY=             -5.1352 ZZZZ=             -5.1352 XXXY=              0.0000
 XXXZ=             -0.0000 YYYX=             -0.0000 YYYZ=              0.0000 ZZZX=              0.0000
 ZZZY=             -0.0000 XXYY=             -1.7117 XXZZ=             -1.7117 YYZZ=             -1.7117
 XXYZ=             -0.0000 YYXZ=              0.0000 ZZXY=              0.0000
 N-N= 0.000000000000D+00 E-N=-1.284383302326D+02  KE= 5.450366929841D+01
                          Isotropic Fermi Contact Couplings
        Atom                 a.u.       MegaHertz       Gauss      10(-4) cm-1
     1  N(14)              0.30353      32.69014      11.66466      10.90426
 --------------------------------------------------------
       Center         ----  Spin Dipole Couplings  ----
                      3XX-RR        3YY-RR        3ZZ-RR
 --------------------------------------------------------
     1   Atom        0.000000      0.000000      0.000000
 --------------------------------------------------------
                        XY            XZ            YZ
 --------------------------------------------------------
     1   Atom        0.000000      0.000000      0.000000
 --------------------------------------------------------


 ---------------------------------------------------------------------------------
              Anisotropic Spin Dipole Couplings in Principal Axis System
 ---------------------------------------------------------------------------------

       Atom             a.u.   MegaHertz   Gauss  10(-4) cm-1        Axes

              Baa     0.0000     0.000     0.000     0.000  1.0000  0.0000  0.0000
     1 N(14)  Bbb     0.0000     0.000     0.000     0.000 -0.0000  1.0000  0.0000
              Bcc     0.0000     0.000     0.000     0.000  0.0000  0.0000  1.0000
 

 ---------------------------------------------------------------------------------

 No NMR shielding tensors so no spin-rotation constants.
 Leave Link  601 at Sun Apr 18 10:10:22 2021, MaxMem=   104857600 cpu:             126.1 elap:               2.7
 (Enter /s/ls4/users/knvvv/bin/g16sse/l9999.exe)

 Test job not archived.
 1\1\GINC-N178\Stability\UM062X\Gen\N1(4)\KNVVV\18-Apr-2021\0\\#P M062X
 /GEN Integral=UltraFineGrid SCF=NoSymm Stable=(RExt, Opt) IOp(1/33=1)\
 \Database calculations.\\0,4\N,0,0.,0.,0.\\Version=ES64L-G16RevA.03\St
 ate=4-A1G\HF=-54.5846219\S2=3.754137\S2-1=0.\S2A=3.75\RMSD=3.539e-09\D
 ipole=0.,0.,0.\Quadrupole=0.,0.,0.,0.,0.,0.\PG=OH [O(N1)]\\@


 ... I FELL INTO A REVERIE ... THE ATOMS WERE GAMBOLING BEFORE MY EYES
 ... I SAW HOW TWO SMALL ONES UNITED TO FORM A PAIR;
 HOW THE LARGER ONES SEIZED TWO OF THE SMALLER ONES;
 HOW STILL LARGER ONES KEPT HOLD OF THREE OR FOUR
 SMALLER ONES ... I SAW HOW THE LARGER ONES FORMED A CHAIN ...
 THIS WAS THE ORIGIN OF THE STRUCTURE THEORY.

                                   -- C.F.KEKULE VON STRADONITZ
 Job cpu time:       0 days  0 hours 59 minutes 18.2 seconds.
 Elapsed time:       0 days  0 hours  1 minutes 16.0 seconds.
 File lengths (MBytes):  RWF=      6 Int=      0 D2E=      0 Chk=      1 Scr=      1
 Normal termination of Gaussian 16 at Sun Apr 18 10:10:23 2021.
