 Entering Gaussian System, Link 0=/s/ls4/users/knvvv/bin/g16sse/g16
 Input=data/database/M062X--def2-QZVPPD--17_Isomer7_mon2_FmH2O10.gjf
 Output=data/database/M062X--def2-QZVPPD--17_Isomer7_mon2_FmH2O10.log
 Initial command:
 /s/ls4/users/knvvv/bin/g16sse/l1.exe "/s/ls4/users/knvvv/bin/scratch/Gau-1140.inp" -scrdir="/s/ls4/users/knvvv/bin/scratch/"
 Entering Link 1 = /s/ls4/users/knvvv/bin/g16sse/l1.exe PID=      1141.
  
 Copyright (c) 1988,1990,1992,1993,1995,1998,2003,2009,2016,
            Gaussian, Inc.  All Rights Reserved.
  
 This is part of the Gaussian(R) 16 program.  It is based on
 the Gaussian(R) 09 system (copyright 2009, Gaussian, Inc.),
 the Gaussian(R) 03 system (copyright 2003, Gaussian, Inc.),
 the Gaussian(R) 98 system (copyright 1998, Gaussian, Inc.),
 the Gaussian(R) 94 system (copyright 1995, Gaussian, Inc.),
 the Gaussian 92(TM) system (copyright 1992, Gaussian, Inc.),
 the Gaussian 90(TM) system (copyright 1990, Gaussian, Inc.),
 the Gaussian 88(TM) system (copyright 1988, Gaussian, Inc.),
 the Gaussian 86(TM) system (copyright 1986, Carnegie Mellon
 University), and the Gaussian 82(TM) system (copyright 1983,
 Carnegie Mellon University). Gaussian is a federally registered
 trademark of Gaussian, Inc.
  
 This software contains proprietary and confidential information,
 including trade secrets, belonging to Gaussian, Inc.
  
 This software is provided under written license and may be
 used, copied, transmitted, or stored only in accord with that
 written license.
  
 The following legend is applicable only to US Government
 contracts under FAR:
  
                    RESTRICTED RIGHTS LEGEND
  
 Use, reproduction and disclosure by the US Government is
 subject to restrictions as set forth in subparagraphs (a)
 and (c) of the Commercial Computer Software - Restricted
 Rights clause in FAR 52.227-19.
  
 Gaussian, Inc.
 340 Quinnipiac St., Bldg. 40, Wallingford CT 06492
  
  
 ---------------------------------------------------------------
 Warning -- This program may not be used in any manner that
 competes with the business of Gaussian, Inc. or will provide
 assistance to any competitor of Gaussian, Inc.  The licensee
 of this program is prohibited from giving any competitor of
 Gaussian, Inc. access to this program.  By using this program,
 the user acknowledges that Gaussian, Inc. is engaged in the
 business of creating and licensing software in the field of
 computational chemistry and represents and warrants to the
 licensee that it is not a competitor of Gaussian, Inc. and that
 it will not use this program in any manner prohibited above.
 ---------------------------------------------------------------
  

 Cite this work as:
 Gaussian 16, Revision A.03,
 M. J. Frisch, G. W. Trucks, H. B. Schlegel, G. E. Scuseria, 
 M. A. Robb, J. R. Cheeseman, G. Scalmani, V. Barone, 
 G. A. Petersson, H. Nakatsuji, X. Li, M. Caricato, A. V. Marenich, 
 J. Bloino, B. G. Janesko, R. Gomperts, B. Mennucci, H. P. Hratchian, 
 J. V. Ortiz, A. F. Izmaylov, J. L. Sonnenberg, D. Williams-Young, 
 F. Ding, F. Lipparini, F. Egidi, J. Goings, B. Peng, A. Petrone, 
 T. Henderson, D. Ranasinghe, V. G. Zakrzewski, J. Gao, N. Rega, 
 G. Zheng, W. Liang, M. Hada, M. Ehara, K. Toyota, R. Fukuda, 
 J. Hasegawa, M. Ishida, T. Nakajima, Y. Honda, O. Kitao, H. Nakai, 
 T. Vreven, K. Throssell, J. A. Montgomery, Jr., J. E. Peralta, 
 F. Ogliaro, M. J. Bearpark, J. J. Heyd, E. N. Brothers, K. N. Kudin, 
 V. N. Staroverov, T. A. Keith, R. Kobayashi, J. Normand, 
 K. Raghavachari, A. P. Rendell, J. C. Burant, S. S. Iyengar, 
 J. Tomasi, M. Cossi, J. M. Millam, M. Klene, C. Adamo, R. Cammi, 
 J. W. Ochterski, R. L. Martin, K. Morokuma, O. Farkas, 
 J. B. Foresman, and D. J. Fox, Gaussian, Inc., Wallingford CT, 2016.
 
 ******************************************
 Gaussian 16:  ES64L-G16RevA.03 25-Dec-2016
                17-Apr-2021 
 ******************************************
 %RWF=temp2_91375,70GB
 %nprocshared=48
 Will use up to   48 processors via shared memory.
 Default route: MaxDisk=80GB
 ----------------------------------------------------------------------
 #P M062X/GEN Integral=UltraFineGrid SCF=NoSymm Stable=(RExt, Opt) IOp(
 1/33=1)
 ----------------------------------------------------------------------
 1/33=1,38=1,172=1/1;
 2/12=2,17=6,18=5,40=1/2;
 3/5=7,11=2,25=1,30=1,74=-55,75=-5/1,2,3;
 4/9=2/1;
 5/5=2,38=5/2;
 6/7=2,8=2,9=2,10=2,28=1/1;
 8/6=1,10=90,11=11/1;
 9/8=-3,42=1,46=1/14;
 5/5=2,8=3,17=40,38=5/8(-2);
 6/7=2,8=2,9=2,10=2,28=1/1;
 99/5=1,9=1/99;
 Leave Link    1 at Sat Apr 17 19:14:08 2021, MaxMem=           0 cpu:               8.4 elap:               0.2
 (Enter /s/ls4/users/knvvv/bin/g16sse/l101.exe)
 ONIOM data not found on unit 2.
 ----------------------
 Database calculations.
 ----------------------
 TstMul:  ICh=     0
 TstMul:  Mul=     1
 TstMul:  ICh=     0
 TstMul:  Mul=     1
 Symbolic Z-matrix:
 Charge =  0 Multiplicity = 1
 O                    -0.19144   1.13698  -5.06142 
 H                     0.68669   1.5273   -5.18837 
 H                    -0.39008   1.35698  -4.1162 
 
 RdStrC is calling ZToCFu for IStruc=1 NZ=     3.
 PrtBox:  NBox=     1 Levels=  1 BoxLen=    8.00 SMaxX=        2.03
          Shift=            0.737148           -2.148579            9.804598
 Box      1 Number                   0 centers from      1 to      3:
 After GenITR:
 ITRead=  0  0  0
 MicOpt= -1 -1 -1
 ITRead=  0  0  0
 MicOpt= -1 -1 -1
 NAtoms=      3 NQM=        3 NQMF=       0 NMMI=      0 NMMIF=      0
                NMic=       0 NMicF=      0.
                    Isotopes and Nuclear Properties:
 (Nuclear quadrupole moments (NQMom) in fm**2, nuclear magnetic moments (NMagM)
  in nuclear magnetons)

  Atom         1           2           3
 IAtWgt=          16           1           1
 AtmWgt=  15.9949146   1.0078250   1.0078250
 NucSpn=           0           1           1
 AtZEff=  -0.0000000  -0.0000000  -0.0000000
 NQMom=    0.0000000   0.0000000   0.0000000
 NMagM=    0.0000000   2.7928460   2.7928460
 AtZNuc=   8.0000000   1.0000000   1.0000000
 No MM parameters found.
 Leave Link  101 at Sat Apr 17 19:14:08 2021, MaxMem=   104857600 cpu:               6.9 elap:               0.2
 (Enter /s/ls4/users/knvvv/bin/g16sse/l202.exe)
                          Input orientation:                          
 ---------------------------------------------------------------------
 Center     Atomic      Atomic             Coordinates (Angstroms)
 Number     Number       Type             X           Y           Z
 ---------------------------------------------------------------------
      1          8           0       -0.191435    1.136979   -5.061417
      2          1           0        0.686685    1.527299   -5.188370
      3          1           0       -0.390082    1.356979   -4.116202
 ---------------------------------------------------------------------
                    Distance matrix (angstroms):
                    1          2          3
     1  O    0.000000
     2  H    0.969310   0.000000
     3  H    0.990602   1.529046   0.000000
 Stoichiometry    H2O
 Framework group  CS[SG(H2O)]
 Deg. of freedom     3
 Full point group                 CS      NOp   2
 Largest Abelian subgroup         CS      NOp   2
 Largest concise Abelian subgroup C1      NOp   1
                         Standard orientation:                         
 ---------------------------------------------------------------------
 Center     Atomic      Atomic             Coordinates (Angstroms)
 Number     Number       Type             X           Y           Z
 ---------------------------------------------------------------------
      1          8           0        0.000000    0.122627   -0.000000
      2          1           0        0.764333   -0.473491   -0.000000
      3          1           0       -0.764333   -0.507521    0.000000
 ---------------------------------------------------------------------
 Rotational constants (GHZ):         751.8647408         428.6819404         273.0182899
 Leave Link  202 at Sat Apr 17 19:14:09 2021, MaxMem=   104857600 cpu:               7.6 elap:               0.2
 (Enter /s/ls4/users/knvvv/bin/g16sse/l301.exe)
 General basis read from cards:  (5D, 7F)
 Centers:       2      3
 S 4 1.00
     Exponent=  1.9069169000D+02 Coefficients=  7.0815167000D-04
     Exponent=  2.8605532000D+01 Coefficients=  5.4678827000D-03
     Exponent=  6.5095943000D+00 Coefficients=  2.7966605000D-02
     Exponent=  1.8412455000D+00 Coefficients=  1.0764538000D-01
 S 1 1.00
     Exponent=  5.9853725000D-01 Coefficients=  1.0000000000D+00
 S 1 1.00
     Exponent=  2.1397624000D-01 Coefficients=  1.0000000000D+00
 S 1 1.00
     Exponent=  8.0316286000D-02 Coefficients=  1.0000000000D+00
 P 1 1.00
     Exponent=  2.2920000000D+00 Coefficients=  1.0000000000D+00
 P 1 1.00
     Exponent=  8.3800000000D-01 Coefficients=  1.0000000000D+00
 P 1 1.00
     Exponent=  2.9200000000D-01 Coefficients=  1.0000000000D+00
 P 1 1.00
     Exponent=  8.4063199228D-02 Coefficients=  1.0000000000D+00
 D 1 1.00
     Exponent=  2.0620000000D+00 Coefficients=  1.0000000000D+00
 D 1 1.00
     Exponent=  6.6200000000D-01 Coefficients=  1.0000000000D+00
 F 1 1.00
     Exponent=  1.3970000000D+00 Coefficients=  1.0000000000D+00
 ****
 Centers:       1
 S 8 1.00
     Exponent=  1.1650646908D+05 Coefficients=  4.0383857939D-05
     Exponent=  1.7504349724D+04 Coefficients=  3.1255139004D-04
     Exponent=  3.9934513230D+03 Coefficients=  1.6341473495D-03
     Exponent=  1.1330063186D+03 Coefficients=  6.8283224757D-03
     Exponent=  3.6999569594D+02 Coefficients=  2.4124410221D-02
     Exponent=  1.3362074349D+02 Coefficients=  7.2730206154D-02
     Exponent=  5.2035643649D+01 Coefficients=  1.7934429892D-01
     Exponent=  2.1461939313D+01 Coefficients=  3.3059588895D-01
 S 2 1.00
     Exponent=  8.9835051252D+01 Coefficients=  9.6468652996D-02
     Exponent=  2.6428010844D+01 Coefficients=  9.4117481120D-01
 S 1 1.00
     Exponent=  9.2822824649D+00 Coefficients=  1.0000000000D+00
 S 1 1.00
     Exponent=  4.0947728533D+00 Coefficients=  1.0000000000D+00
 S 1 1.00
     Exponent=  1.3255349078D+00 Coefficients=  1.0000000000D+00
 S 1 1.00
     Exponent=  5.1877230787D-01 Coefficients=  1.0000000000D+00
 S 1 1.00
     Exponent=  1.9772676454D-01 Coefficients=  1.0000000000D+00
 S 1 1.00
     Exponent=  6.9638535104D-02 Coefficients=  1.0000000000D+00
 P 5 1.00
     Exponent=  1.9115255810D+02 Coefficients=  2.5115697705D-03
     Exponent=  4.5233356739D+01 Coefficients=  2.0039240864D-02
     Exponent=  1.4353465922D+01 Coefficients=  9.3609064762D-02
     Exponent=  5.2422371832D+00 Coefficients=  3.0618127124D-01
     Exponent=  2.0792418599D+00 Coefficients=  6.7810501439D-01
 P 1 1.00
     Exponent=  8.4282371424D-01 Coefficients=  1.0000000000D+00
 P 1 1.00
     Exponent=  3.3617694891D-01 Coefficients=  1.0000000000D+00
 P 1 1.00
     Exponent=  1.2863997974D-01 Coefficients=  1.0000000000D+00
 P 1 1.00
     Exponent=  4.3598162776D-02 Coefficients=  1.0000000000D+00
 D 1 1.00
     Exponent=  3.7750000000D+00 Coefficients=  1.0000000000D+00
 D 1 1.00
     Exponent=  1.3000000000D+00 Coefficients=  1.0000000000D+00
 D 1 1.00
     Exponent=  4.4400000000D-01 Coefficients=  1.0000000000D+00
 D 1 1.00
     Exponent=  1.2546378695D-01 Coefficients=  1.0000000000D+00
 F 1 1.00
     Exponent=  2.6660000000D+00 Coefficients=  1.0000000000D+00
 F 1 1.00
     Exponent=  8.5900000000D-01 Coefficients=  1.0000000000D+00
 G 1 1.00
     Exponent=  1.8460000000D+00 Coefficients=  1.0000000000D+00
 ****
 Ernie: Thresh=  0.10000D-02 Tol=  0.10000D-05 Strict=F.
 There are   107 symmetry adapted cartesian basis functions of A'  symmetry.
 There are    51 symmetry adapted cartesian basis functions of A"  symmetry.
 There are    87 symmetry adapted basis functions of A'  symmetry.
 There are    45 symmetry adapted basis functions of A"  symmetry.
   132 basis functions,   184 primitive gaussians,   158 cartesian basis functions
     5 alpha electrons        5 beta electrons
       nuclear repulsion energy         8.9871205457 Hartrees.
 IExCor= 4336 DFT=T Ex+Corr=M062X ExCW=0 ScaHFX=  0.540000
 ScaDFX=  1.000000  1.000000  1.000000  1.000000 ScalE2=  1.000000  1.000000
 IRadAn=      5 IRanWt=     -1 IRanGd=            0 ICorTp=0 IEmpDi=  4
 NAtoms=    3 NActive=    3 NUniq=    3 SFac= 1.00D+00 NAtFMM=   60 NAOKFM=F Big=F
 Integral buffers will be    131072 words long.
 Raffenetti 2 integral format.
 Two-electron integral symmetry is turned on.
 Leave Link  301 at Sat Apr 17 19:14:09 2021, MaxMem=   104857600 cpu:               7.5 elap:               0.2
 (Enter /s/ls4/users/knvvv/bin/g16sse/l302.exe)
 NPDir=0 NMtPBC=     1 NCelOv=     1 NCel=       1 NClECP=     1 NCelD=      1
         NCelK=      1 NCelE2=     1 NClLst=     1 CellRange=     0.0.
 One-electron integrals computed using PRISM.
 One-electron integral symmetry used in STVInt
 PrsmSu:  requested number of processors reduced to:   4 ShMem   1 Linda.
 PrsmSu:  requested number of processors reduced to:  21 ShMem   1 Linda.
 NBasis=   132 RedAO= T EigKep=  1.52D-04  NBF=    87    45
 NBsUse=   132 1.00D-06 EigRej= -1.00D+00 NBFU=    87    45
 Precomputing XC quadrature grid using
 IXCGrd= 4 IRadAn=           5 IRanWt=          -1 IRanGd=           0 AccXCQ= 0.00D+00.
 Generated NRdTot=       0 NPtTot=           0 NUsed=           0 NTot=          32
 NSgBfM=   158   158   158   158   158 MxSgAt=     3 MxSgA2=     3.
 Leave Link  302 at Sat Apr 17 19:14:11 2021, MaxMem=   104857600 cpu:             109.7 elap:               2.4
 (Enter /s/ls4/users/knvvv/bin/g16sse/l303.exe)
 DipDrv:  MaxL=1.
 Leave Link  303 at Sat Apr 17 19:14:12 2021, MaxMem=   104857600 cpu:              20.3 elap:               0.5
 (Enter /s/ls4/users/knvvv/bin/g16sse/l401.exe)
 SCF N**3 symmetry information disabled.
 ExpMin= 4.36D-02 ExpMax= 1.17D+05 ExpMxC= 1.13D+03 IAcc=3 IRadAn=         5 AccDes= 0.00D+00
 Harris functional with IExCor= 1009 and IRadAn=       5 diagonalized for initial guess.
 HarFok:  IExCor= 1009 AccDes= 0.00D+00 IRadAn=         5 IDoV= 1 UseB2=F ITyADJ=14
 ICtDFT=  3500011 ScaDFX=  1.000000  1.000000  1.000000  1.000000
 FoFCou: FMM=F IPFlag=           0 FMFlag=      100000 FMFlg1=           0
         NFxFlg=           0 DoJE=T BraDBF=F KetDBF=T FulRan=T
         wScrn=  0.000000 ICntrl=       500 IOpCl=  0 I1Cent=   200000004 NGrid=           0
         NMat0=    1 NMatS0=      1 NMatT0=    0 NMatD0=    1 NMtDS0=    0 NMtDT0=    0
 Petite list used in FoFCou.
 CoulSu:  requested number of processors reduced to:  21 ShMem   1 Linda.
 CoulSu:  requested number of processors reduced to:  21 ShMem   1 Linda.
 CoulSu:  requested number of processors reduced to:  21 ShMem   1 Linda.
 CoulSu:  requested number of processors reduced to:  21 ShMem   1 Linda.
 Harris En= -76.4294302168235    
 JPrj=0 DoOrth=F DoCkMO=F.
 Initial guess orbital symmetries:
       Occupied  (A') (A') (A') (A') (A")
       Virtual   (A') (A') (A') (A") (A') (A') (A') (A") (A") (A')
                 (A') (A') (A') (A') (A") (A') (A") (A') (A") (A')
                 (A') (A') (A") (A") (A') (A') (A') (A') (A') (A')
                 (A") (A') (A") (A') (A') (A") (A') (A") (A') (A')
                 (A') (A') (A") (A') (A") (A") (A') (A') (A") (A")
                 (A') (A') (A') (A') (A') (A') (A") (A") (A') (A")
                 (A') (A') (A") (A') (A') (A") (A') (A') (A") (A')
                 (A') (A") (A') (A") (A') (A") (A') (A') (A") (A')
                 (A') (A") (A') (A") (A') (A') (A') (A") (A") (A")
                 (A') (A') (A") (A') (A') (A') (A") (A") (A') (A')
                 (A') (A") (A') (A') (A") (A') (A') (A") (A') (A")
                 (A") (A') (A") (A') (A') (A") (A') (A') (A') (A")
                 (A') (A") (A') (A') (A') (A') (A')
 The electronic state of the initial guess is 1-A'.
 Leave Link  401 at Sat Apr 17 19:14:13 2021, MaxMem=   104857600 cpu:              76.3 elap:               1.8
 (Enter /s/ls4/users/knvvv/bin/g16sse/l502.exe)
 Keep R1 ints in memory in symmetry-blocked form, NReq=92806727.
 FoFCou: FMM=F IPFlag=           0 FMFlag=           0 FMFlg1=           0
         NFxFlg=           0 DoJE=F BraDBF=F KetDBF=F FulRan=T
         wScrn=  0.000000 ICntrl=       600 IOpCl=  0 I1Cent=           0 NGrid=           0
         NMat0=    1 NMatS0=   8778 NMatT0=    0 NMatD0=    1 NMtDS0=    0 NMtDT0=    0
 Petite list used in FoFCou.
 CoulSu:  requested number of processors reduced to:  14 ShMem   1 Linda.
 Closed shell SCF:
 Using DIIS extrapolation, IDIIS=  1040.
 NGot=   104857600 LenX=    85286723 LenY=    85261318
 Requested convergence on RMS density matrix=1.00D-08 within 128 cycles.
 Requested convergence on MAX density matrix=1.00D-06.
 Requested convergence on             energy=1.00D-06.
 No special actions if energy rises.

 Cycle   1  Pass 1  IDiag  1:
 E= -76.3587370899695    
 DIIS: error= 4.31D-02 at cycle   1 NSaved=   1.
 NSaved= 1 IEnMin= 1 EnMin= -76.3587370899695     IErMin= 1 ErrMin= 4.31D-02
 ErrMax= 4.31D-02  0.00D+00 EMaxC= 1.00D-01 BMatC= 1.41D-01 BMatP= 1.41D-01
 IDIUse=3 WtCom= 5.69D-01 WtEn= 4.31D-01
 Coeff-Com:  0.100D+01
 Coeff-En:   0.100D+01
 Coeff:      0.100D+01
 Gap=     0.274 Goal=   None    Shift=    0.000
 GapD=    0.274 DampG=1.000 DampE=0.500 DampFc=0.5000 IDamp=-1.
 Damping current iteration by 5.00D-01
 RMSDP=1.89D-03 MaxDP=6.77D-02              OVMax= 1.73D-01

 Cycle   2  Pass 1  IDiag  1:
 E= -76.3899413497566     Delta-E=       -0.031204259787 Rises=F Damp=T
 DIIS: error= 1.83D-02 at cycle   2 NSaved=   2.
 NSaved= 2 IEnMin= 2 EnMin= -76.3899413497566     IErMin= 2 ErrMin= 1.83D-02
 ErrMax= 1.83D-02  0.00D+00 EMaxC= 1.00D-01 BMatC= 1.38D-02 BMatP= 1.41D-01
 IDIUse=3 WtCom= 8.17D-01 WtEn= 1.83D-01
 Coeff-Com:  0.665D-01 0.934D+00
 Coeff-En:   0.201D+00 0.799D+00
 Coeff:      0.912D-01 0.909D+00
 Gap=     0.410 Goal=   None    Shift=    0.000
 RMSDP=6.37D-04 MaxDP=1.30D-02 DE=-3.12D-02 OVMax= 1.05D-01

 Cycle   3  Pass 1  IDiag  1:
 E= -76.4354353904297     Delta-E=       -0.045494040673 Rises=F Damp=F
 DIIS: error= 2.16D-03 at cycle   3 NSaved=   3.
 NSaved= 3 IEnMin= 3 EnMin= -76.4354353904297     IErMin= 3 ErrMin= 2.16D-03
 ErrMax= 2.16D-03  0.00D+00 EMaxC= 1.00D-01 BMatC= 3.11D-04 BMatP= 1.38D-02
 IDIUse=3 WtCom= 9.78D-01 WtEn= 2.16D-02
 Coeff-Com: -0.388D-01 0.733D-01 0.965D+00
 Coeff-En:   0.000D+00 0.000D+00 0.100D+01
 Coeff:     -0.379D-01 0.717D-01 0.966D+00
 Gap=     0.411 Goal=   None    Shift=    0.000
 RMSDP=7.29D-05 MaxDP=2.72D-03 DE=-4.55D-02 OVMax= 4.74D-03

 Cycle   4  Pass 1  IDiag  1:
 E= -76.4356519345563     Delta-E=       -0.000216544127 Rises=F Damp=F
 DIIS: error= 1.98D-04 at cycle   4 NSaved=   4.
 NSaved= 4 IEnMin= 4 EnMin= -76.4356519345563     IErMin= 4 ErrMin= 1.98D-04
 ErrMax= 1.98D-04  0.00D+00 EMaxC= 1.00D-01 BMatC= 3.16D-06 BMatP= 3.11D-04
 IDIUse=3 WtCom= 9.98D-01 WtEn= 1.98D-03
 Coeff-Com: -0.714D-03 0.616D-03 0.643D-01 0.936D+00
 Coeff-En:   0.000D+00 0.000D+00 0.000D+00 0.100D+01
 Coeff:     -0.713D-03 0.615D-03 0.641D-01 0.936D+00
 Gap=     0.411 Goal=   None    Shift=    0.000
 RMSDP=2.36D-05 MaxDP=5.76D-04 DE=-2.17D-04 OVMax= 6.36D-04

 Cycle   5  Pass 1  IDiag  1:
 E= -76.4356538661648     Delta-E=       -0.000001931609 Rises=F Damp=F
 DIIS: error= 5.71D-05 at cycle   5 NSaved=   5.
 NSaved= 5 IEnMin= 5 EnMin= -76.4356538661648     IErMin= 5 ErrMin= 5.71D-05
 ErrMax= 5.71D-05  0.00D+00 EMaxC= 1.00D-01 BMatC= 1.00D-07 BMatP= 3.16D-06
 IDIUse=1 WtCom= 1.00D+00 WtEn= 0.00D+00
 Coeff-Com:  0.175D-02-0.314D-02-0.350D-01 0.239D-01 0.101D+01
 Coeff:      0.175D-02-0.314D-02-0.350D-01 0.239D-01 0.101D+01
 Gap=     0.411 Goal=   None    Shift=    0.000
 RMSDP=5.35D-06 MaxDP=1.36D-04 DE=-1.93D-06 OVMax= 2.14D-04

 Cycle   6  Pass 1  IDiag  1:
 E= -76.4356540105718     Delta-E=       -0.000000144407 Rises=F Damp=F
 DIIS: error= 7.04D-06 at cycle   6 NSaved=   6.
 NSaved= 6 IEnMin= 6 EnMin= -76.4356540105718     IErMin= 6 ErrMin= 7.04D-06
 ErrMax= 7.04D-06  0.00D+00 EMaxC= 1.00D-01 BMatC= 3.10D-09 BMatP= 1.00D-07
 IDIUse=1 WtCom= 1.00D+00 WtEn= 0.00D+00
 Coeff-Com: -0.147D-03 0.196D-03 0.102D-02-0.236D-01-0.117D-01 0.103D+01
 Coeff:     -0.147D-03 0.196D-03 0.102D-02-0.236D-01-0.117D-01 0.103D+01
 Gap=     0.411 Goal=   None    Shift=    0.000
 RMSDP=5.63D-07 MaxDP=2.31D-05 DE=-1.44D-07 OVMax= 3.87D-05

 Cycle   7  Pass 1  IDiag  1:
 E= -76.4356540158261     Delta-E=       -0.000000005254 Rises=F Damp=F
 DIIS: error= 1.60D-06 at cycle   7 NSaved=   7.
 NSaved= 7 IEnMin= 7 EnMin= -76.4356540158261     IErMin= 7 ErrMin= 1.60D-06
 ErrMax= 1.60D-06  0.00D+00 EMaxC= 1.00D-01 BMatC= 1.11D-10 BMatP= 3.10D-09
 IDIUse=1 WtCom= 1.00D+00 WtEn= 0.00D+00
 Coeff-Com: -0.336D-04 0.773D-04 0.491D-03 0.499D-03-0.292D-01-0.818D-01
 Coeff-Com:  0.111D+01
 Coeff:     -0.336D-04 0.773D-04 0.491D-03 0.499D-03-0.292D-01-0.818D-01
 Coeff:      0.111D+01
 Gap=     0.411 Goal=   None    Shift=    0.000
 RMSDP=1.31D-07 MaxDP=5.21D-06 DE=-5.25D-09 OVMax= 1.01D-05

 Cycle   8  Pass 1  IDiag  1:
 E= -76.4356540160843     Delta-E=       -0.000000000258 Rises=F Damp=F
 DIIS: error= 2.44D-07 at cycle   8 NSaved=   8.
 NSaved= 8 IEnMin= 8 EnMin= -76.4356540160843     IErMin= 8 ErrMin= 2.44D-07
 ErrMax= 2.44D-07  0.00D+00 EMaxC= 1.00D-01 BMatC= 2.07D-12 BMatP= 1.11D-10
 IDIUse=1 WtCom= 1.00D+00 WtEn= 0.00D+00
 Coeff-Com:  0.421D-05-0.596D-05-0.164D-04 0.270D-03 0.109D-02-0.818D-02
 Coeff-Com: -0.845D-01 0.109D+01
 Coeff:      0.421D-05-0.596D-05-0.164D-04 0.270D-03 0.109D-02-0.818D-02
 Coeff:     -0.845D-01 0.109D+01
 Gap=     0.411 Goal=   None    Shift=    0.000
 RMSDP=1.35D-08 MaxDP=3.47D-07 DE=-2.58D-10 OVMax= 1.35D-06

 Cycle   9  Pass 1  IDiag  1:
 E= -76.4356540160882     Delta-E=       -0.000000000004 Rises=F Damp=F
 DIIS: error= 4.93D-08 at cycle   9 NSaved=   9.
 NSaved= 9 IEnMin= 9 EnMin= -76.4356540160882     IErMin= 9 ErrMin= 4.93D-08
 ErrMax= 4.93D-08  0.00D+00 EMaxC= 1.00D-01 BMatC= 1.74D-13 BMatP= 2.07D-12
 IDIUse=1 WtCom= 1.00D+00 WtEn= 0.00D+00
 Coeff-Com:  0.237D-05-0.464D-05-0.188D-04 0.725D-04 0.122D-02 0.993D-03
 Coeff-Com: -0.568D-01 0.205D+00 0.850D+00
 Coeff:      0.237D-05-0.464D-05-0.188D-04 0.725D-04 0.122D-02 0.993D-03
 Coeff:     -0.568D-01 0.205D+00 0.850D+00
 Gap=     0.411 Goal=   None    Shift=    0.000
 RMSDP=2.85D-09 MaxDP=7.74D-08 DE=-3.82D-12 OVMax= 1.89D-07

 SCF Done:  E(RM062X) =  -76.4356540161     A.U. after    9 cycles
            NFock=  9  Conv=0.28D-08     -V/T= 2.0041
 KE= 7.612051358144D+01 PE=-1.987853333259D+02 EE= 3.724204518276D+01
 Leave Link  502 at Sat Apr 17 19:14:17 2021, MaxMem=   104857600 cpu:             155.4 elap:               3.8
 (Enter /s/ls4/users/knvvv/bin/g16sse/l601.exe)
 Copying SCF densities to generalized density rwf, IOpCl= 0 IROHF=0.

 **********************************************************************

            Population analysis using the SCF density.

 **********************************************************************

 Orbital symmetries:
       Occupied  (A') (A') (A') (A') (A")
       Virtual   (A') (A') (A') (A") (A') (A') (A") (A') (A") (A')
                 (A') (A') (A') (A') (A") (A') (A") (A') (A") (A')
                 (A') (A') (A") (A") (A') (A') (A') (A') (A') (A')
                 (A') (A") (A") (A') (A') (A") (A') (A") (A') (A')
                 (A') (A') (A") (A") (A') (A") (A') (A') (A") (A')
                 (A") (A') (A') (A') (A') (A') (A") (A') (A") (A")
                 (A') (A') (A") (A') (A') (A") (A') (A') (A") (A')
                 (A') (A") (A') (A") (A') (A") (A') (A') (A") (A')
                 (A') (A") (A') (A") (A') (A') (A") (A') (A") (A')
                 (A') (A") (A") (A') (A') (A') (A") (A') (A") (A')
                 (A') (A") (A') (A') (A") (A') (A') (A") (A') (A")
                 (A") (A') (A") (A') (A') (A") (A') (A') (A') (A")
                 (A') (A") (A') (A') (A') (A') (A')
 The electronic state is 1-A'.
 Alpha  occ. eigenvalues --  -19.63291  -1.12917  -0.59841  -0.47839  -0.40232
 Alpha virt. eigenvalues --    0.00911   0.04185   0.06367   0.06415   0.13188
 Alpha virt. eigenvalues --    0.14852   0.17214   0.18566   0.19273   0.23284
 Alpha virt. eigenvalues --    0.25276   0.27645   0.34845   0.36726   0.40330
 Alpha virt. eigenvalues --    0.44772   0.45934   0.46113   0.51030   0.52235
 Alpha virt. eigenvalues --    0.54300   0.65350   0.76826   0.81031   0.82564
 Alpha virt. eigenvalues --    0.94681   1.00337   1.04287   1.10382   1.14382
 Alpha virt. eigenvalues --    1.32594   1.38888   1.44104   1.46035   1.50333
 Alpha virt. eigenvalues --    1.59878   1.63122   1.87326   1.93729   2.01393
 Alpha virt. eigenvalues --    2.03231   2.24201   2.24777   2.44082   2.44239
 Alpha virt. eigenvalues --    2.45268   2.54784   2.60521   2.63523   2.67588
 Alpha virt. eigenvalues --    2.67808   2.86740   3.11417   3.21501   3.25404
 Alpha virt. eigenvalues --    3.40046   3.66797   3.88910   3.91571   3.94959
 Alpha virt. eigenvalues --    4.05360   4.15303   4.22954   4.24129   4.38621
 Alpha virt. eigenvalues --    4.51713   4.72786   4.76870   5.25896   5.26399
 Alpha virt. eigenvalues --    5.39283   5.58165   5.78993   5.82972   5.93373
 Alpha virt. eigenvalues --    6.28708   6.34308   6.61553   6.84562   6.98275
 Alpha virt. eigenvalues --    7.06068   7.13443   7.20388   7.23887   7.28246
 Alpha virt. eigenvalues --    7.30895   7.52531   7.52881   7.65783   7.69500
 Alpha virt. eigenvalues --    7.70757   7.72087   7.83491   7.97463   8.11659
 Alpha virt. eigenvalues --    8.29777   8.35123   8.50199   8.54543   8.74348
 Alpha virt. eigenvalues --    8.93378   9.67588   9.70668  10.04175  10.05576
 Alpha virt. eigenvalues --   10.43532  10.51250  10.74616  10.84360  10.96520
 Alpha virt. eigenvalues --   11.15016  11.27429  11.47120  11.47162  11.59354
 Alpha virt. eigenvalues --   11.64189  12.07672  12.52842  13.08547  13.32215
 Alpha virt. eigenvalues --   13.42192  13.71992  14.13886  16.11032  16.39089
 Alpha virt. eigenvalues --   48.25368 251.31604
          Condensed to atoms (all electrons):
               1          2          3
     1  O    8.164335   0.270647   0.273946
     2  H    0.270647   0.388469  -0.017873
     3  H    0.273946  -0.017873   0.393757
 Mulliken charges:
               1
     1  O   -0.708928
     2  H    0.358757
     3  H    0.350170
 Sum of Mulliken charges =  -0.00000
 Mulliken charges with hydrogens summed into heavy atoms:
               1
     1  O   -0.000000
 Electronic spatial extent (au):  <R**2>=             20.0912
 Charge=             -0.0000 electrons
 Dipole moment (field-independent basis, Debye):
    X=              0.0089    Y=             -1.9427    Z=              0.0000  Tot=              1.9427
 Quadrupole moment (field-independent basis, Debye-Ang):
   XX=             -4.4420   YY=             -6.3331   ZZ=             -7.7442
   XY=              0.0556   XZ=              0.0000   YZ=              0.0000
 Traceless Quadrupole moment (field-independent basis, Debye-Ang):
   XX=              1.7311   YY=             -0.1600   ZZ=             -1.5711
   XY=              0.0556   XZ=              0.0000   YZ=              0.0000
 Octapole moment (field-independent basis, Debye-Ang**2):
  XXX=              0.0305  YYY=             -1.0420  ZZZ=              0.0000  XYY=             -0.0420
  XXY=             -1.3879  XXZ=              0.0000  XZZ=              0.0109  YZZ=             -0.2098
  YYZ=              0.0000  XYZ=              0.0000
 Hexadecapole moment (field-independent basis, Debye-Ang**3):
 XXXX=             -6.6129 YYYY=             -7.8593 ZZZZ=             -7.3464 XXXY=             -0.0059
 XXXZ=              0.0000 YYYX=              0.0010 YYYZ=              0.0000 ZZZX=              0.0000
 ZZZY=              0.0000 XXYY=             -2.0317 XXZZ=             -2.6586 YYZZ=             -2.5934
 XXYZ=              0.0000 YYXZ=              0.0000 ZZXY=             -0.0159
 N-N= 8.987120545652D+00 E-N=-1.987853341503D+02  KE= 7.612051358144D+01
 PrsmSu:  requested number of processors reduced to:  21 ShMem   1 Linda.
 No NMR shielding tensors so no spin-rotation constants.
 Leave Link  601 at Sat Apr 17 19:14:19 2021, MaxMem=   104857600 cpu:              70.1 elap:               1.6
 (Enter /s/ls4/users/knvvv/bin/g16sse/l801.exe)
 DoSCS=F DFT=T ScalE2(SS,OS)=  1.000000  1.000000
 Range of M.O.s used for correlation:     1   132
 NBasis=   132 NAE=     5 NBE=     5 NFC=     0 NFV=     0
 NROrb=    132 NOA=     5 NOB=     5 NVA=   127 NVB=   127

 **** Warning!!: The largest alpha MO coefficient is  0.25506897D+02

 Leave Link  801 at Sat Apr 17 19:14:19 2021, MaxMem=   104857600 cpu:               3.1 elap:               0.1
 (Enter /s/ls4/users/knvvv/bin/g16sse/l914.exe)
 RHF ground state
 Doing stability rather than CIS.
 Two-electron integrals replicated using symmetry.
 MDV=   104857600 DFT=T DoStab=T Mixed=T DoRPA=F DoScal=F NonHer=F
 Making orbital integer symmetry assigments:
 Orbital symmetries:
       Occupied  (A') (A') (A') (A') (A")
       Virtual   (A') (A') (A') (A") (A') (A') (A") (A') (A") (A')
                 (A') (A') (A') (A') (A") (A') (A") (A') (A") (A')
                 (A') (A') (A") (A") (A') (A') (A') (A') (A') (A')
                 (A') (A") (A") (A') (A') (A") (A') (A") (A') (A')
                 (A') (A') (A") (A") (A') (A") (A') (A') (A") (A')
                 (A") (A') (A') (A') (A') (A') (A") (A') (A") (A")
                 (A') (A') (A") (A') (A') (A") (A') (A') (A") (A')
                 (A') (A") (A') (A") (A') (A") (A') (A') (A") (A')
                 (A') (A") (A') (A") (A') (A') (A") (A') (A") (A')
                 (A') (A") (A") (A') (A') (A') (A") (A') (A") (A')
                 (A') (A") (A') (A') (A") (A') (A') (A") (A') (A")
                 (A") (A') (A") (A') (A') (A") (A') (A') (A') (A")
                 (A') (A") (A') (A') (A') (A') (A')
    24 initial guesses have been made.
 Convergence on wavefunction:    0.001000000000000
 Davidson Disk Diagonalization:  ConvIn= 1.00D-03 SkipCon=T Conv= 1.00D-03.
 Max sub-space:  2000 roots to seek:    24 dimension of matrix:         1270
 Iteration     1 Dimension    24 NMult     0 NNew     24
 Estimated number of processors is:   20
 CISAX will form     1 AO SS matrices at one time.
 NMat=     1 NSing=     1 JSym2X= 2.
 FoFJK:  IHMeth= 1 ICntrl=       0 DoSepK=F KAlg= 0 I1Cent=           0 FoldK=F
 IRaf= 990000000 NMat=       1 IRICut=       1 DoRegI=T DoRafI=F ISym2E= 2 IDoP0=0 IntGTp=1.
 FoFCou: FMM=F IPFlag=           0 FMFlag=      100000 FMFlg1=           0
         NFxFlg=           0 DoJE=F BraDBF=F KetDBF=F FulRan=T
         wScrn=  0.000000 ICntrl=         0 IOpCl=  0 I1Cent=           0 NGrid=           0
         NMat0=    1 NMatS0=      1 NMatT0=    0 NMatD0=    1 NMtDS0=    0 NMtDT0=    0
 Integrals replicated using symmetry in FoFCou.
 CoulSu:  requested number of processors reduced to:  21 ShMem   1 Linda.
 NMat=     1 NSing=     1 JSym2X= 2.
 CoulSu:  requested number of processors reduced to:  21 ShMem   1 Linda.
 NMat=     1 NSing=     1 JSym2X= 2.
 CoulSu:  requested number of processors reduced to:  21 ShMem   1 Linda.
 NMat=     1 NSing=     1 JSym2X= 2.
 CoulSu:  requested number of processors reduced to:  21 ShMem   1 Linda.
 NMat=     1 NSing=     1 JSym2X= 2.
 CoulSu:  requested number of processors reduced to:  21 ShMem   1 Linda.
 NMat=     1 NSing=     1 JSym2X= 2.
 CoulSu:  requested number of processors reduced to:  21 ShMem   1 Linda.
 NMat=     1 NSing=     1 JSym2X= 2.
 CoulSu:  requested number of processors reduced to:  21 ShMem   1 Linda.
 NMat=     1 NSing=     1 JSym2X= 2.
 CoulSu:  requested number of processors reduced to:  21 ShMem   1 Linda.
 NMat=     1 NSing=     1 JSym2X= 2.
 CoulSu:  requested number of processors reduced to:  21 ShMem   1 Linda.
 NMat=     1 NSing=     1 JSym2X= 2.
 CoulSu:  requested number of processors reduced to:  21 ShMem   1 Linda.
 NMat=     1 NSing=     1 JSym2X= 2.
 CoulSu:  requested number of processors reduced to:  21 ShMem   1 Linda.
 NMat=     1 NSing=     1 JSym2X= 2.
 CoulSu:  requested number of processors reduced to:  21 ShMem   1 Linda.
 NMat=     1 NSing=     0 JSym2X= 2.
 CoulSu:  requested number of processors reduced to:  21 ShMem   1 Linda.
 NMat=     1 NSing=     0 JSym2X= 2.
 CoulSu:  requested number of processors reduced to:  21 ShMem   1 Linda.
 NMat=     1 NSing=     0 JSym2X= 2.
 CoulSu:  requested number of processors reduced to:  21 ShMem   1 Linda.
 NMat=     1 NSing=     0 JSym2X= 2.
 CoulSu:  requested number of processors reduced to:  21 ShMem   1 Linda.
 NMat=     1 NSing=     0 JSym2X= 2.
 CoulSu:  requested number of processors reduced to:  21 ShMem   1 Linda.
 NMat=     1 NSing=     0 JSym2X= 2.
 CoulSu:  requested number of processors reduced to:  21 ShMem   1 Linda.
 NMat=     1 NSing=     0 JSym2X= 2.
 CoulSu:  requested number of processors reduced to:  21 ShMem   1 Linda.
 NMat=     1 NSing=     0 JSym2X= 2.
 CoulSu:  requested number of processors reduced to:  21 ShMem   1 Linda.
 NMat=     1 NSing=     0 JSym2X= 2.
 CoulSu:  requested number of processors reduced to:  21 ShMem   1 Linda.
 NMat=     1 NSing=     0 JSym2X= 2.
 CoulSu:  requested number of processors reduced to:  21 ShMem   1 Linda.
 NMat=     1 NSing=     0 JSym2X= 2.
 CoulSu:  requested number of processors reduced to:  21 ShMem   1 Linda.
 NMat=     1 NSing=     0 JSym2X= 2.
 CoulSu:  requested number of processors reduced to:  21 ShMem   1 Linda.
 New state      1 was old state      2
 Excitation Energies [eV] at current iteration:
 Root      1 :     7.646167284727903
 Root      2 :     8.009837227562858
 Root      3 :     9.276429891706034
 Root      4 :     9.438865967749196
 Root      5 :     9.960496078772492
 Root      6 :    10.042009441869930
 Root      7 :    10.145336980784960
 Root      8 :    10.159165706429160
 Root      9 :    10.244990468442230
 Root     10 :    11.297069493849100
 Root     11 :    11.382718158222700
 Root     12 :    11.469709873048180
 Root     13 :    11.517144315991030
 Root     14 :    11.665362410558630
 Root     15 :    12.038645263157530
 Root     16 :    12.125272796845060
 Root     17 :    12.200892612747220
 Root     18 :    12.218492171225770
 Root     19 :    12.238002647527030
 Root     20 :    12.909604896969620
 Root     21 :    13.105278428712400
 Root     22 :    13.138768374013050
 Root     23 :    13.171628658644900
 Root     24 :    13.368351790691960
 Iteration     2 Dimension    48 NMult    24 NNew     24
 Estimated number of processors is:   20
 CISAX will form     1 AO SS matrices at one time.
 NMat=     1 NSing=     1 JSym2X= 2.
 CoulSu:  requested number of processors reduced to:  21 ShMem   1 Linda.
 NMat=     1 NSing=     1 JSym2X= 2.
 CoulSu:  requested number of processors reduced to:  21 ShMem   1 Linda.
 NMat=     1 NSing=     1 JSym2X= 2.
 CoulSu:  requested number of processors reduced to:  21 ShMem   1 Linda.
 NMat=     1 NSing=     1 JSym2X= 2.
 CoulSu:  requested number of processors reduced to:  21 ShMem   1 Linda.
 NMat=     1 NSing=     1 JSym2X= 2.
 CoulSu:  requested number of processors reduced to:  21 ShMem   1 Linda.
 NMat=     1 NSing=     1 JSym2X= 2.
 CoulSu:  requested number of processors reduced to:  21 ShMem   1 Linda.
 NMat=     1 NSing=     1 JSym2X= 2.
 CoulSu:  requested number of processors reduced to:  21 ShMem   1 Linda.
 NMat=     1 NSing=     1 JSym2X= 2.
 CoulSu:  requested number of processors reduced to:  21 ShMem   1 Linda.
 NMat=     1 NSing=     1 JSym2X= 2.
 CoulSu:  requested number of processors reduced to:  21 ShMem   1 Linda.
 NMat=     1 NSing=     1 JSym2X= 2.
 CoulSu:  requested number of processors reduced to:  21 ShMem   1 Linda.
 NMat=     1 NSing=     1 JSym2X= 2.
 CoulSu:  requested number of processors reduced to:  21 ShMem   1 Linda.
 NMat=     1 NSing=     1 JSym2X= 2.
 CoulSu:  requested number of processors reduced to:  21 ShMem   1 Linda.
 NMat=     1 NSing=     0 JSym2X= 2.
 CoulSu:  requested number of processors reduced to:  21 ShMem   1 Linda.
 NMat=     1 NSing=     0 JSym2X= 2.
 CoulSu:  requested number of processors reduced to:  21 ShMem   1 Linda.
 NMat=     1 NSing=     0 JSym2X= 2.
 CoulSu:  requested number of processors reduced to:  21 ShMem   1 Linda.
 NMat=     1 NSing=     0 JSym2X= 2.
 CoulSu:  requested number of processors reduced to:  21 ShMem   1 Linda.
 NMat=     1 NSing=     0 JSym2X= 2.
 CoulSu:  requested number of processors reduced to:  21 ShMem   1 Linda.
 NMat=     1 NSing=     0 JSym2X= 2.
 CoulSu:  requested number of processors reduced to:  21 ShMem   1 Linda.
 NMat=     1 NSing=     0 JSym2X= 2.
 CoulSu:  requested number of processors reduced to:  21 ShMem   1 Linda.
 NMat=     1 NSing=     0 JSym2X= 2.
 CoulSu:  requested number of processors reduced to:  21 ShMem   1 Linda.
 NMat=     1 NSing=     0 JSym2X= 2.
 CoulSu:  requested number of processors reduced to:  21 ShMem   1 Linda.
 NMat=     1 NSing=     0 JSym2X= 2.
 CoulSu:  requested number of processors reduced to:  21 ShMem   1 Linda.
 NMat=     1 NSing=     0 JSym2X= 2.
 CoulSu:  requested number of processors reduced to:  21 ShMem   1 Linda.
 NMat=     1 NSing=     0 JSym2X= 2.
 CoulSu:  requested number of processors reduced to:  21 ShMem   1 Linda.
 Root      1 not converged, maximum delta is    0.147961389402955
 Excitation Energies [eV] at current iteration:
 Root      1 :     7.038531768149898   Change is   -0.607635516578005
 Root      2 :     7.820404747389993   Change is   -0.189432480172864
 Root      3 :     8.786407482550320   Change is   -0.490022409155713
 Root      4 :     9.086507146970680   Change is   -0.873988931801811
 Root      5 :     9.166153213965256   Change is   -0.272712753783941
 Root      6 :     9.780748671164021   Change is   -0.364588309620942
 Root      7 :     9.888873308528945   Change is   -0.153136133340990
 Root      8 :     9.916847774496391   Change is   -0.328142693945839
 Root      9 :    10.075804337349610   Change is   -0.083361369079557
 Root     10 :    10.702648400644310   Change is   -0.594421093204781
 Root     11 :    10.841614043591730   Change is   -0.628095829456445
 Root     12 :    10.908438119747680   Change is   -0.474280038475014
 Root     13 :    11.220939074001800   Change is   -0.296205241989225
 Root     14 :    11.429599104942440   Change is   -0.235763305616194
 Root     15 :    11.792763471285060   Change is   -0.332509325559995
 Root     16 :    11.802061779164880   Change is   -0.236583483992644
 Root     17 :    12.002988869451100   Change is   -0.197903743296122
 Root     18 :    12.076220561452230   Change is   -0.161782086074794
 Root     19 :    12.095905522292150   Change is   -0.122586648933625
 Root     20 :    12.431484465404190   Change is   -0.478120431565431
 Root     21 :    12.458876626463880   Change is   -0.712752032181019
 Root     22 :    12.850644175240310   Change is   -0.254634253472098
 Root     23 :    12.913351836832620   Change is   -0.225416537180428
 Root     24 :    13.085076408889950   Change is   -0.283275381802005
 Iteration     3 Dimension    54 NMult    48 NNew      6
 Estimated number of processors is:   20
 CISAX will form     1 AO SS matrices at one time.
 NMat=     1 NSing=     1 JSym2X= 2.
 CoulSu:  requested number of processors reduced to:  21 ShMem   1 Linda.
 NMat=     1 NSing=     1 JSym2X= 2.
 CoulSu:  requested number of processors reduced to:  21 ShMem   1 Linda.
 NMat=     1 NSing=     1 JSym2X= 2.
 CoulSu:  requested number of processors reduced to:  21 ShMem   1 Linda.
 NMat=     1 NSing=     0 JSym2X= 2.
 CoulSu:  requested number of processors reduced to:  21 ShMem   1 Linda.
 NMat=     1 NSing=     0 JSym2X= 2.
 CoulSu:  requested number of processors reduced to:  21 ShMem   1 Linda.
 NMat=     1 NSing=     0 JSym2X= 2.
 CoulSu:  requested number of processors reduced to:  21 ShMem   1 Linda.
 Root      1 not converged, maximum delta is    0.011637036250736
 Excitation Energies [eV] at current iteration:
 Root      1 :     7.025928554232863   Change is   -0.012603213917036
 Root      2 :     7.808725666537343   Change is   -0.011679080852650
 Root      3 :     8.767451220782942   Change is   -0.018956261767380
 Root      4 :     8.963588867086795   Change is   -0.122918279883885
 Root      5 :     9.160600984447399   Change is   -0.005552229517858
 Root      6 :     9.899882090086983   Change is   -0.016965684409409
 Iteration     4 Dimension    60 NMult    54 NNew      6
 Estimated number of processors is:   20
 CISAX will form     1 AO SS matrices at one time.
 NMat=     1 NSing=     1 JSym2X= 2.
 CoulSu:  requested number of processors reduced to:  21 ShMem   1 Linda.
 NMat=     1 NSing=     1 JSym2X= 2.
 CoulSu:  requested number of processors reduced to:  21 ShMem   1 Linda.
 NMat=     1 NSing=     1 JSym2X= 2.
 CoulSu:  requested number of processors reduced to:  21 ShMem   1 Linda.
 NMat=     1 NSing=     0 JSym2X= 2.
 CoulSu:  requested number of processors reduced to:  21 ShMem   1 Linda.
 NMat=     1 NSing=     0 JSym2X= 2.
 CoulSu:  requested number of processors reduced to:  21 ShMem   1 Linda.
 NMat=     1 NSing=     0 JSym2X= 2.
 CoulSu:  requested number of processors reduced to:  21 ShMem   1 Linda.
 Root      1 has converged.
 Excitation Energies [eV] at current iteration:
 Root      1 :     7.025807153779657   Change is   -0.000121400453206
 Root      2 :     7.808636972019922   Change is   -0.000088694517421
 Root      3 :     8.767075968863722   Change is   -0.000375251919220
 Root      4 :     8.940128315444122   Change is   -0.023460551642675
 Root      5 :     9.160515996875644   Change is   -0.000084987571755
 Root      6 :     9.897985731529051   Change is   -0.001896358557932
 Convergence achieved on expansion vectors.
 ***********************************************************************
 Stability analysis using <AA,BB:AA,BB> singles matrix:
 ***********************************************************************
 1PDM for each excited state written to RWF  633
 Ground to excited state transition densities written to RWF  633

 Eigenvectors of the stability matrix:
 
 Eigenvector   1:      Triplet-A"   Eigenvalue= 0.2581937  <S**2>=2.000
       5 ->  6         0.65130
       5 ->  8        -0.10528
       5 -> 13        -0.15946
       5 -> 16        -0.15593
 The wavefunction is stable under the perturbations considered.
 Leave Link  914 at Sat Apr 17 19:15:47 2021, MaxMem=   104857600 cpu:            3388.6 elap:              88.1
 (Enter /s/ls4/users/knvvv/bin/g16sse/l508.exe)
 The wavefunction is already stable.
 Leave Link  508 at Sat Apr 17 19:15:47 2021, MaxMem=   104857600 cpu:               2.2 elap:               0.1
 (Enter /s/ls4/users/knvvv/bin/g16sse/l601.exe)
 Copying SCF densities to generalized density rwf, IOpCl= 0 IROHF=0.

 **********************************************************************

            Population analysis using the SCF density.

 **********************************************************************

 Orbital symmetries:
       Occupied  (A') (A') (A') (A') (A")
       Virtual   (A') (A') (A') (A") (A') (A') (A") (A') (A") (A')
                 (A') (A') (A') (A') (A") (A') (A") (A') (A") (A')
                 (A') (A') (A") (A") (A') (A') (A') (A') (A') (A')
                 (A') (A") (A") (A') (A') (A") (A') (A") (A') (A')
                 (A') (A') (A") (A") (A') (A") (A') (A') (A") (A')
                 (A") (A') (A') (A') (A') (A') (A") (A') (A") (A")
                 (A') (A') (A") (A') (A') (A") (A') (A') (A") (A')
                 (A') (A") (A') (A") (A') (A") (A') (A') (A") (A')
                 (A') (A") (A') (A") (A') (A') (A") (A') (A") (A')
                 (A') (A") (A") (A') (A') (A') (A") (A') (A") (A')
                 (A') (A") (A') (A') (A") (A') (A') (A") (A') (A")
                 (A") (A') (A") (A') (A') (A") (A') (A') (A') (A")
                 (A') (A") (A') (A') (A') (A') (A')
 The electronic state is 1-A'.
 Alpha  occ. eigenvalues --  -19.63291  -1.12917  -0.59841  -0.47839  -0.40232
 Alpha virt. eigenvalues --    0.00911   0.04185   0.06367   0.06415   0.13188
 Alpha virt. eigenvalues --    0.14852   0.17214   0.18566   0.19273   0.23284
 Alpha virt. eigenvalues --    0.25276   0.27645   0.34845   0.36726   0.40330
 Alpha virt. eigenvalues --    0.44772   0.45934   0.46113   0.51030   0.52235
 Alpha virt. eigenvalues --    0.54300   0.65350   0.76826   0.81031   0.82564
 Alpha virt. eigenvalues --    0.94681   1.00337   1.04287   1.10382   1.14382
 Alpha virt. eigenvalues --    1.32594   1.38888   1.44104   1.46035   1.50333
 Alpha virt. eigenvalues --    1.59878   1.63122   1.87326   1.93729   2.01393
 Alpha virt. eigenvalues --    2.03231   2.24201   2.24777   2.44082   2.44239
 Alpha virt. eigenvalues --    2.45268   2.54784   2.60521   2.63523   2.67588
 Alpha virt. eigenvalues --    2.67808   2.86740   3.11417   3.21501   3.25404
 Alpha virt. eigenvalues --    3.40046   3.66797   3.88910   3.91571   3.94959
 Alpha virt. eigenvalues --    4.05360   4.15303   4.22954   4.24129   4.38621
 Alpha virt. eigenvalues --    4.51713   4.72786   4.76870   5.25896   5.26399
 Alpha virt. eigenvalues --    5.39283   5.58165   5.78993   5.82972   5.93373
 Alpha virt. eigenvalues --    6.28708   6.34308   6.61553   6.84562   6.98275
 Alpha virt. eigenvalues --    7.06068   7.13443   7.20388   7.23887   7.28246
 Alpha virt. eigenvalues --    7.30895   7.52531   7.52881   7.65783   7.69500
 Alpha virt. eigenvalues --    7.70757   7.72087   7.83491   7.97463   8.11659
 Alpha virt. eigenvalues --    8.29777   8.35123   8.50199   8.54543   8.74348
 Alpha virt. eigenvalues --    8.93378   9.67588   9.70668  10.04175  10.05576
 Alpha virt. eigenvalues --   10.43532  10.51250  10.74616  10.84360  10.96520
 Alpha virt. eigenvalues --   11.15016  11.27429  11.47120  11.47162  11.59354
 Alpha virt. eigenvalues --   11.64189  12.07672  12.52842  13.08547  13.32215
 Alpha virt. eigenvalues --   13.42192  13.71992  14.13886  16.11032  16.39089
 Alpha virt. eigenvalues --   48.25368 251.31604
          Condensed to atoms (all electrons):
               1          2          3
     1  O    8.164335   0.270647   0.273946
     2  H    0.270647   0.388469  -0.017873
     3  H    0.273946  -0.017873   0.393757
 Mulliken charges:
               1
     1  O   -0.708928
     2  H    0.358757
     3  H    0.350170
 Sum of Mulliken charges =  -0.00000
 Mulliken charges with hydrogens summed into heavy atoms:
               1
     1  O   -0.000000
 Electronic spatial extent (au):  <R**2>=             20.0912
 Charge=             -0.0000 electrons
 Dipole moment (field-independent basis, Debye):
    X=              0.0089    Y=             -1.9427    Z=              0.0000  Tot=              1.9427
 Quadrupole moment (field-independent basis, Debye-Ang):
   XX=             -4.4420   YY=             -6.3331   ZZ=             -7.7442
   XY=              0.0556   XZ=              0.0000   YZ=              0.0000
 Traceless Quadrupole moment (field-independent basis, Debye-Ang):
   XX=              1.7311   YY=             -0.1600   ZZ=             -1.5711
   XY=              0.0556   XZ=              0.0000   YZ=              0.0000
 Octapole moment (field-independent basis, Debye-Ang**2):
  XXX=              0.0305  YYY=             -1.0420  ZZZ=              0.0000  XYY=             -0.0420
  XXY=             -1.3879  XXZ=              0.0000  XZZ=              0.0109  YZZ=             -0.2098
  YYZ=              0.0000  XYZ=              0.0000
 Hexadecapole moment (field-independent basis, Debye-Ang**3):
 XXXX=             -6.6129 YYYY=             -7.8593 ZZZZ=             -7.3464 XXXY=             -0.0059
 XXXZ=              0.0000 YYYX=              0.0010 YYYZ=              0.0000 ZZZX=              0.0000
 ZZZY=              0.0000 XXYY=             -2.0317 XXZZ=             -2.6586 YYZZ=             -2.5934
 XXYZ=              0.0000 YYXZ=              0.0000 ZZXY=             -0.0159
 N-N= 8.987120545652D+00 E-N=-1.987853341503D+02  KE= 7.612051358144D+01
 PrsmSu:  requested number of processors reduced to:  21 ShMem   1 Linda.
 No NMR shielding tensors so no spin-rotation constants.
 Leave Link  601 at Sat Apr 17 19:15:48 2021, MaxMem=   104857600 cpu:              52.2 elap:               1.2
 (Enter /s/ls4/users/knvvv/bin/g16sse/l9999.exe)

 Test job not archived.
 1\1\GINC-N148\Stability\RM062X\Gen\H2O1\KNVVV\17-Apr-2021\0\\#P M062X/
 GEN Integral=UltraFineGrid SCF=NoSymm Stable=(RExt, Opt) IOp(1/33=1)\\
 Database calculations.\\0,1\O,0,-0.191435,1.136979,-5.061417\H,0,0.686
 685,1.527299,-5.18837\H,0,-0.390082,1.356979,-4.116202\\Version=ES64L-
 G16RevA.03\State=1-A'\HF=-76.435654\RMSD=2.849e-09\Dipole=0.4260065,0.
 3808279,0.507606\Quadrupole=0.3823617,-0.876391,0.4940293,0.4873301,-0
 .8241471,0.1527005\PG=CS [SG(H2O1)]\\@


 HIGGLEDY-PIGGLEDY
 NIC'LAUS COPERNICUS
 LOOKED AT THE UNIVERSE,
 SPOKE TO THE THRONG;
 GIVE UP YOUR PTOLOMY,
 RISE UP AND FOLLOW ME,
 HELIOCENTRICALLY
 PTOLEMY'S WRONG.
   -- NANCY L. STARK
 Job cpu time:       0 days  1 hours  5 minutes 14.7 seconds.
 Elapsed time:       0 days  0 hours  1 minutes 40.5 seconds.
 File lengths (MBytes):  RWF=     56 Int=      0 D2E=      0 Chk=      3 Scr=      1
 Normal termination of Gaussian 16 at Sat Apr 17 19:15:49 2021.
