 Entering Gaussian System, Link 0=/s/ls4/users/knvvv/bin/g16sse/g16
 Input=data/database/M062X--def2-QZVP--BSR36_r8.gjf
 Output=data/database/M062X--def2-QZVP--BSR36_r8.log
 Initial command:
 /s/ls4/users/knvvv/bin/g16sse/l1.exe "/s/ls4/users/knvvv/bin/scratch/Gau-48952.inp" -scrdir="/s/ls4/users/knvvv/bin/scratch/"
 Entering Link 1 = /s/ls4/users/knvvv/bin/g16sse/l1.exe PID=     48953.
  
 Copyright (c) 1988,1990,1992,1993,1995,1998,2003,2009,2016,
            Gaussian, Inc.  All Rights Reserved.
  
 This is part of the Gaussian(R) 16 program.  It is based on
 the Gaussian(R) 09 system (copyright 2009, Gaussian, Inc.),
 the Gaussian(R) 03 system (copyright 2003, Gaussian, Inc.),
 the Gaussian(R) 98 system (copyright 1998, Gaussian, Inc.),
 the Gaussian(R) 94 system (copyright 1995, Gaussian, Inc.),
 the Gaussian 92(TM) system (copyright 1992, Gaussian, Inc.),
 the Gaussian 90(TM) system (copyright 1990, Gaussian, Inc.),
 the Gaussian 88(TM) system (copyright 1988, Gaussian, Inc.),
 the Gaussian 86(TM) system (copyright 1986, Carnegie Mellon
 University), and the Gaussian 82(TM) system (copyright 1983,
 Carnegie Mellon University). Gaussian is a federally registered
 trademark of Gaussian, Inc.
  
 This software contains proprietary and confidential information,
 including trade secrets, belonging to Gaussian, Inc.
  
 This software is provided under written license and may be
 used, copied, transmitted, or stored only in accord with that
 written license.
  
 The following legend is applicable only to US Government
 contracts under FAR:
  
                    RESTRICTED RIGHTS LEGEND
  
 Use, reproduction and disclosure by the US Government is
 subject to restrictions as set forth in subparagraphs (a)
 and (c) of the Commercial Computer Software - Restricted
 Rights clause in FAR 52.227-19.
  
 Gaussian, Inc.
 340 Quinnipiac St., Bldg. 40, Wallingford CT 06492
  
  
 ---------------------------------------------------------------
 Warning -- This program may not be used in any manner that
 competes with the business of Gaussian, Inc. or will provide
 assistance to any competitor of Gaussian, Inc.  The licensee
 of this program is prohibited from giving any competitor of
 Gaussian, Inc. access to this program.  By using this program,
 the user acknowledges that Gaussian, Inc. is engaged in the
 business of creating and licensing software in the field of
 computational chemistry and represents and warrants to the
 licensee that it is not a competitor of Gaussian, Inc. and that
 it will not use this program in any manner prohibited above.
 ---------------------------------------------------------------
  

 Cite this work as:
 Gaussian 16, Revision A.03,
 M. J. Frisch, G. W. Trucks, H. B. Schlegel, G. E. Scuseria, 
 M. A. Robb, J. R. Cheeseman, G. Scalmani, V. Barone, 
 G. A. Petersson, H. Nakatsuji, X. Li, M. Caricato, A. V. Marenich, 
 J. Bloino, B. G. Janesko, R. Gomperts, B. Mennucci, H. P. Hratchian, 
 J. V. Ortiz, A. F. Izmaylov, J. L. Sonnenberg, D. Williams-Young, 
 F. Ding, F. Lipparini, F. Egidi, J. Goings, B. Peng, A. Petrone, 
 T. Henderson, D. Ranasinghe, V. G. Zakrzewski, J. Gao, N. Rega, 
 G. Zheng, W. Liang, M. Hada, M. Ehara, K. Toyota, R. Fukuda, 
 J. Hasegawa, M. Ishida, T. Nakajima, Y. Honda, O. Kitao, H. Nakai, 
 T. Vreven, K. Throssell, J. A. Montgomery, Jr., J. E. Peralta, 
 F. Ogliaro, M. J. Bearpark, J. J. Heyd, E. N. Brothers, K. N. Kudin, 
 V. N. Staroverov, T. A. Keith, R. Kobayashi, J. Normand, 
 K. Raghavachari, A. P. Rendell, J. C. Burant, S. S. Iyengar, 
 J. Tomasi, M. Cossi, J. M. Millam, M. Klene, C. Adamo, R. Cammi, 
 J. W. Ochterski, R. L. Martin, K. Morokuma, O. Farkas, 
 J. B. Foresman, and D. J. Fox, Gaussian, Inc., Wallingford CT, 2016.
 
 ******************************************
 Gaussian 16:  ES64L-G16RevA.03 25-Dec-2016
                16-Apr-2021 
 ******************************************
 %RWF=temp5_41714,70GB
 %nprocshared=48
 Will use up to   48 processors via shared memory.
 Default route: MaxDisk=80GB
 ----------------------------------------------------------------------
 #P M062X/Def2QZVP Integral=UltraFineGrid SCF=NoSymm Stable=(RExt, Opt)
  IOp(1/33=1)
 ----------------------------------------------------------------------
 1/33=1,38=1,172=1/1;
 2/12=2,17=6,18=5,40=1/2;
 3/5=45,7=101,11=2,25=1,30=1,74=-55,75=-5/1,2,3;
 4/9=2/1;
 5/5=2,38=5/2;
 6/7=2,8=2,9=2,10=2,28=1/1;
 8/6=1,10=90,11=11/1;
 9/8=-3,42=1,46=1/14;
 5/5=2,8=3,17=40,38=5/8(-2);
 6/7=2,8=2,9=2,10=2,28=1/1;
 99/5=1,9=1/99;
 Leave Link    1 at Fri Apr 16 23:13:04 2021, MaxMem=           0 cpu:              10.1 elap:               0.2
 (Enter /s/ls4/users/knvvv/bin/g16sse/l101.exe)
 ONIOM data not found on unit 2.
 ----------------------
 Database calculations.
 ----------------------
 TstMul:  ICh=     0
 TstMul:  Mul=     1
 TstMul:  ICh=     0
 TstMul:  Mul=     1
 Symbolic Z-matrix:
 Charge =  0 Multiplicity = 1
 C                    -0.72439  -0.24626  -0.29474 
 C                    -0.85468  -0.88228   1.09097 
 C                     0.72439   0.24626  -0.29474 
 C                     0.85468   0.88228   1.09097 
 C                     0.        0.        2.02773 
 C                    -1.07925  -1.18339  -1.43494 
 C                     1.07925   1.18339  -1.43494 
 H                    -1.36841   0.64066  -0.33785 
 H                    -1.89028  -0.97065   1.41747 
 H                    -0.44341  -1.89345   1.04543 
 H                     1.36841  -0.64066  -0.33785 
 H                     1.89028   0.97065   1.41747 
 H                     0.44341   1.89345   1.04543 
 H                     0.62453  -0.61189   2.67619 
 H                    -0.62453   0.61189   2.67619 
 H                    -0.41923  -2.05274  -1.42461 
 H                    -0.98044  -0.69607  -2.40455 
 H                    -2.10481  -1.54217  -1.34724 
 H                     0.41923   2.05274  -1.42461 
 H                     0.98044   0.69607  -2.40455 
 H                     2.10481   1.54217  -1.34724 
 
 RdStrC is calling ZToCFu for IStruc=1 NZ=    21.
 PrtBox:  NBox=     2 Levels=  1 BoxLen=    8.00 SMaxX=        9.60
          Shift=            3.977521            3.879112            4.543940
 Box      1 Number                   0 centers from      1 to     18:
 Box      2 Number                   1 centers from     19 to     21:
 After GenITR:
 ITRead=  0  0  0  0  0  0  0  0  0  0  0  0  0  0  0  0  0  0  0  0
 ITRead=  0
 MicOpt= -1 -1 -1 -1 -1 -1 -1 -1 -1 -1 -1 -1 -1 -1 -1 -1 -1 -1 -1 -1
 MicOpt= -1
 ITRead=  0  0  0  0  0  0  0  0  0  0  0  0  0  0  0  0  0  0  0  0
 ITRead=  0
 MicOpt= -1 -1 -1 -1 -1 -1 -1 -1 -1 -1 -1 -1 -1 -1 -1 -1 -1 -1 -1 -1
 MicOpt= -1
 NAtoms=     21 NQM=       21 NQMF=       0 NMMI=      0 NMMIF=      0
                NMic=       0 NMicF=      0.
                    Isotopes and Nuclear Properties:
 (Nuclear quadrupole moments (NQMom) in fm**2, nuclear magnetic moments (NMagM)
  in nuclear magnetons)

  Atom         1           2           3           4           5           6           7           8           9          10
 IAtWgt=          12          12          12          12          12          12          12           1           1           1
 AtmWgt=  12.0000000  12.0000000  12.0000000  12.0000000  12.0000000  12.0000000  12.0000000   1.0078250   1.0078250   1.0078250
 NucSpn=           0           0           0           0           0           0           0           1           1           1
 AtZEff=  -0.0000000  -0.0000000  -0.0000000  -0.0000000  -0.0000000  -0.0000000  -0.0000000  -0.0000000  -0.0000000  -0.0000000
 NQMom=    0.0000000   0.0000000   0.0000000   0.0000000   0.0000000   0.0000000   0.0000000   0.0000000   0.0000000   0.0000000
 NMagM=    0.0000000   0.0000000   0.0000000   0.0000000   0.0000000   0.0000000   0.0000000   2.7928460   2.7928460   2.7928460
 AtZNuc=   6.0000000   6.0000000   6.0000000   6.0000000   6.0000000   6.0000000   6.0000000   1.0000000   1.0000000   1.0000000

  Atom        11          12          13          14          15          16          17          18          19          20
 IAtWgt=           1           1           1           1           1           1           1           1           1           1
 AtmWgt=   1.0078250   1.0078250   1.0078250   1.0078250   1.0078250   1.0078250   1.0078250   1.0078250   1.0078250   1.0078250
 NucSpn=           1           1           1           1           1           1           1           1           1           1
 AtZEff=  -0.0000000  -0.0000000  -0.0000000  -0.0000000  -0.0000000  -0.0000000  -0.0000000  -0.0000000  -0.0000000  -0.0000000
 NQMom=    0.0000000   0.0000000   0.0000000   0.0000000   0.0000000   0.0000000   0.0000000   0.0000000   0.0000000   0.0000000
 NMagM=    2.7928460   2.7928460   2.7928460   2.7928460   2.7928460   2.7928460   2.7928460   2.7928460   2.7928460   2.7928460
 AtZNuc=   1.0000000   1.0000000   1.0000000   1.0000000   1.0000000   1.0000000   1.0000000   1.0000000   1.0000000   1.0000000

  Atom        21
 IAtWgt=           1
 AtmWgt=   1.0078250
 NucSpn=           1
 AtZEff=  -0.0000000
 NQMom=    0.0000000
 NMagM=    2.7928460
 AtZNuc=   1.0000000
 No MM parameters found.
 Leave Link  101 at Fri Apr 16 23:13:05 2021, MaxMem=   104857600 cpu:               9.7 elap:               0.2
 (Enter /s/ls4/users/knvvv/bin/g16sse/l202.exe)
                          Input orientation:                          
 ---------------------------------------------------------------------
 Center     Atomic      Atomic             Coordinates (Angstroms)
 Number     Number       Type             X           Y           Z
 ---------------------------------------------------------------------
      1          6           0       -0.724393   -0.246255   -0.294739
      2          6           0       -0.854678   -0.882278    1.090972
      3          6           0        0.724393    0.246255   -0.294739
      4          6           0        0.854678    0.882278    1.090972
      5          6           0        0.000000    0.000000    2.027725
      6          6           0       -1.079252   -1.183392   -1.434940
      7          6           0        1.079252    1.183392   -1.434940
      8          1           0       -1.368406    0.640660   -0.337849
      9          1           0       -1.890281   -0.970654    1.417473
     10          1           0       -0.443413   -1.893453    1.045426
     11          1           0        1.368406   -0.640660   -0.337849
     12          1           0        1.890281    0.970654    1.417473
     13          1           0        0.443413    1.893453    1.045426
     14          1           0        0.624528   -0.611886    2.676187
     15          1           0       -0.624528    0.611886    2.676187
     16          1           0       -0.419231   -2.052738   -1.424606
     17          1           0       -0.980444   -0.696075   -2.404549
     18          1           0       -2.104813   -1.542170   -1.347238
     19          1           0        0.419231    2.052738   -1.424606
     20          1           0        0.980444    0.696075   -2.404549
     21          1           0        2.104813    1.542170   -1.347238
 ---------------------------------------------------------------------
                    Distance matrix (angstroms):
                    1          2          3          4          5
     1  C    0.000000
     2  C    1.530259   0.000000
     3  C    1.530211   2.384795   0.000000
     4  C    2.384795   2.456736   1.530259   0.000000
     5  C    2.445245   1.544796   2.445245   1.544796   0.000000
     6  C    1.517962   2.553690   2.568479   3.793060   3.815134
     7  C    2.568479   3.793060   1.517962   2.553690   3.815134
     8  H    1.096918   2.150532   2.130075   2.653679   2.806942
     9  H    2.194474   1.089443   3.353961   3.327875   2.210823
    10  H    2.142021   1.092561   2.781756   3.064604   2.178691
    11  H    2.130075   2.653679   1.096918   2.150532   2.806942
    12  H    3.353961   3.327875   2.194474   1.089443   2.210823
    13  H    2.781756   3.064604   2.142021   1.092561   2.178691
    14  H    3.283241   2.184964   3.093991   2.190525   1.088550
    15  H    3.093991   2.190525   3.283241   2.184964   1.088550
    16  H    2.152464   2.808509   2.805324   4.070048   4.038326
    17  H    2.172372   3.502736   2.871542   4.251769   4.592477
    18  H    2.166266   2.818362   3.508650   4.536673   4.266017
    19  H    2.805324   4.070048   2.152464   2.808509   4.038326
    20  H    2.871542   4.251769   2.172372   3.502736   4.592477
    21  H    3.508650   4.536673   2.166266   2.818362   4.266017
                    6          7          8          9         10
     6  C    0.000000
     7  C    3.203249   0.000000
     8  H    2.148112   2.736639   0.000000
     9  H    2.973093   4.646966   2.439230   0.000000
    10  H    2.657196   4.235292   3.031632   1.755962   0.000000
    11  H    2.736639   2.148112   3.021907   3.716058   2.601082
    12  H    4.646966   2.973093   3.716058   4.249861   3.713173
    13  H    4.235292   2.657196   2.601082   3.713173   3.889360
    14  H    4.486741   4.509009   3.824274   2.835020   2.332873
    15  H    4.509009   4.486741   3.104609   2.385565   2.994813
    16  H    1.091556   3.566244   3.055546   3.378210   2.475281
    17  H    1.089672   2.952098   2.491711   3.938407   3.691131
    18  H    1.090041   4.192213   2.515136   2.831303   2.934023
    19  H    3.566244   1.091556   2.524014   4.748911   4.734727
    20  H    2.952098   1.089672   3.129123   5.062301   4.542615
    21  H    4.192213   1.090041   3.727578   5.469797   4.901204
                   11         12         13         14         15
    11  H    0.000000
    12  H    2.439230   0.000000
    13  H    3.031632   1.755962   0.000000
    14  H    3.104609   2.385565   2.994813   0.000000
    15  H    3.824274   2.835020   2.332873   1.748644   0.000000
    16  H    2.524014   4.748911   4.734727   4.470122   4.894780
    17  H    3.129123   5.062301   4.542615   5.328875   5.258452
    18  H    3.727578   5.469797   4.901204   4.950018   4.797827
    19  H    3.055546   3.378210   2.475281   4.894780   4.470122
    20  H    2.491711   3.938407   3.691131   5.258452   5.328875
    21  H    2.515136   2.831303   2.934023   4.797827   4.950018
                   16         17         18         19         20
    16  H    0.000000
    17  H    1.765158   0.000000
    18  H    1.762910   1.760112   0.000000
    19  H    4.190220   3.236564   4.393193   0.000000
    20  H    3.236564   2.404820   3.955560   1.765158   0.000000
    21  H    4.393193   3.955560   5.218631   1.762910   1.760112
                   21
    21  H    0.000000
 Stoichiometry    C7H14
 Framework group  C2[C2(C),X(C6H14)]
 Deg. of freedom    29
 Full point group                 C2      NOp   2
 Largest Abelian subgroup         C2      NOp   2
 Largest concise Abelian subgroup C2      NOp   2
                         Standard orientation:                         
 ---------------------------------------------------------------------
 Center     Atomic      Atomic             Coordinates (Angstroms)
 Number     Number       Type             X           Y           Z
 ---------------------------------------------------------------------
      1          6           0       -0.000000    0.765106   -0.361731
      2          6           0       -0.560245    1.093167    1.023980
      3          6           0        0.000000   -0.765106   -0.361731
      4          6           0        0.560245   -1.093167    1.023980
      5          6           0        0.000000    0.000000    1.960733
      6          6           0       -0.773056    1.402707   -1.501932
      7          6           0        0.773056   -1.402707   -1.501932
      8          1           0        1.047001    1.089389   -0.404842
      9          1           0       -0.310602    2.102107    1.350481
     10          1           0       -1.649983    1.029241    0.978434
     11          1           0       -1.047001   -1.089389   -0.404842
     12          1           0        0.310602   -2.102107    1.350481
     13          1           0        1.649983   -1.029241    0.978434
     14          1           0       -0.780335   -0.394355    2.609195
     15          1           0        0.780335    0.394355    2.609195
     16          1           0       -1.808575    1.057613   -1.491598
     17          1           0       -0.343472    1.152309   -2.471542
     18          1           0       -0.782657    2.489172   -1.414230
     19          1           0        1.808575   -1.057613   -1.491598
     20          1           0        0.343472   -1.152309   -2.471542
     21          1           0        0.782657   -2.489172   -1.414230
 ---------------------------------------------------------------------
 Rotational constants (GHZ):           3.1550788           2.7529890           1.6060198
 Leave Link  202 at Fri Apr 16 23:13:05 2021, MaxMem=   104857600 cpu:               6.8 elap:               0.2
 (Enter /s/ls4/users/knvvv/bin/g16sse/l301.exe)
 Standard basis: def2QZVP (5D, 7F)
 Ernie: Thresh=  0.10000D-02 Tol=  0.10000D-05 Strict=F.
 There are   501 symmetry adapted cartesian basis functions of A   symmetry.
 There are   493 symmetry adapted cartesian basis functions of B   symmetry.
 There are   412 symmetry adapted basis functions of A   symmetry.
 There are   407 symmetry adapted basis functions of B   symmetry.
   819 basis functions,  1176 primitive gaussians,   994 cartesian basis functions
    28 alpha electrons       28 beta electrons
       nuclear repulsion energy       329.6014791106 Hartrees.
 IExCor= 4336 DFT=T Ex+Corr=M062X ExCW=0 ScaHFX=  0.540000
 ScaDFX=  1.000000  1.000000  1.000000  1.000000 ScalE2=  1.000000  1.000000
 IRadAn=      5 IRanWt=     -1 IRanGd=            0 ICorTp=0 IEmpDi=  4
 NAtoms=   21 NActive=   21 NUniq=   11 SFac= 3.64D+00 NAtFMM=   60 NAOKFM=F Big=F
 Integral buffers will be    131072 words long.
 Raffenetti 2 integral format.
 Two-electron integral symmetry is turned on.
 Leave Link  301 at Fri Apr 16 23:13:05 2021, MaxMem=   104857600 cpu:               5.7 elap:               0.1
 (Enter /s/ls4/users/knvvv/bin/g16sse/l302.exe)
 NPDir=0 NMtPBC=     1 NCelOv=     1 NCel=       1 NClECP=     1 NCelD=      1
         NCelK=      1 NCelE2=     1 NClLst=     1 CellRange=     0.0.
 One-electron integrals computed using PRISM.
 One-electron integral symmetry used in STVInt
 PrsmSu:  requested number of processors reduced to:   4 ShMem   1 Linda.
 PrsmSu:  requested number of processors reduced to:  17 ShMem   1 Linda.
   2 Symmetry operations used in ECPInt.
 ECPInt:  NShTT=   33670 NPrTT=   74662 LenC2=   32511 LenP2D=   60088.
 LDataN:  DoStor=T MaxTD1= 8 Len=  415
 Number of processors reduced to  10 by ecpmxn.
 NBasis=   819 RedAO= T EigKep=  8.86D-06  NBF=   412   407
 NBsUse=   819 1.00D-06 EigRej= -1.00D+00 NBFU=   412   407
 Precomputing XC quadrature grid using
 IXCGrd= 4 IRadAn=           5 IRanWt=          -1 IRanGd=           0 AccXCQ= 0.00D+00.
 Generated NRdTot=       0 NPtTot=           0 NUsed=           0 NTot=          32
 NSgBfM=   994   994   994   994   994 MxSgAt=    21 MxSgA2=    21.
 Leave Link  302 at Fri Apr 16 23:13:30 2021, MaxMem=   104857600 cpu:            1149.3 elap:              24.6
 (Enter /s/ls4/users/knvvv/bin/g16sse/l303.exe)
 DipDrv:  MaxL=1.
 Leave Link  303 at Fri Apr 16 23:13:37 2021, MaxMem=   104857600 cpu:             347.7 elap:               7.4
 (Enter /s/ls4/users/knvvv/bin/g16sse/l401.exe)
 SCF N**3 symmetry information disabled.
 ExpMin= 7.60D-02 ExpMax= 6.70D+04 ExpMxC= 6.47D+02 IAcc=3 IRadAn=         5 AccDes= 0.00D+00
 Harris functional with IExCor= 1009 and IRadAn=       5 diagonalized for initial guess.
 HarFok:  IExCor= 1009 AccDes= 0.00D+00 IRadAn=         5 IDoV= 1 UseB2=F ITyADJ=14
 ICtDFT=  3500011 ScaDFX=  1.000000  1.000000  1.000000  1.000000
 CalDSu:  requested number of processors reduced to:  44 ShMem   1 Linda.
 FoFCou: FMM=F IPFlag=           0 FMFlag=      100000 FMFlg1=           0
         NFxFlg=           0 DoJE=T BraDBF=F KetDBF=T FulRan=T
         wScrn=  0.000000 ICntrl=       500 IOpCl=  0 I1Cent=   200000004 NGrid=           0
         NMat0=    1 NMatS0=      1 NMatT0=    0 NMatD0=    1 NMtDS0=    0 NMtDT0=    0
 Petite list used in FoFCou.
 CoulSu:  requested number of processors reduced to:  15 ShMem   1 Linda.
 CoulSu:  requested number of processors reduced to:  16 ShMem   1 Linda.
 CoulSu:  requested number of processors reduced to:  21 ShMem   1 Linda.
 CoulSu:  requested number of processors reduced to:  21 ShMem   1 Linda.
 Harris En= -275.154002046180    
 JPrj=0 DoOrth=F DoCkMO=F.
 Initial guess orbital symmetries:
       Occupied  (B) (A) (A) (B) (A) (A) (B) (A) (A) (B) (B) (A)
                 (A) (B) (B) (A) (A) (B) (A) (B) (A) (B) (B) (A)
                 (B) (A) (B) (A)
       Virtual   (A) (B) (A) (B) (A) (B) (B) (A) (A) (B) (B) (A)
                 (A) (B) (A) (B) (A) (B) (B) (B) (B) (A) (A) (A)
                 (B) (A) (B) (A) (B) (A) (B) (A) (A) (B) (B) (A)
                 (B) (A) (A) (B) (B) (A) (A) (B) (A) (A) (B) (B)
                 (A) (B) (A) (B) (A) (B) (B) (A) (A) (B) (B) (A)
                 (A) (B) (A) (B) (B) (A) (A) (B) (B) (A) (B) (A)
                 (A) (B) (A) (B) (A) (A) (B) (B) (B) (A) (B) (A)
                 (B) (A) (A) (B) (A) (B) (A) (B) (B) (A) (B) (B)
                 (A) (B) (A) (B) (B) (A) (A) (A) (A) (B) (B) (A)
                 (B) (A) (A) (B) (B) (B) (A) (B) (A) (A) (B) (A)
                 (A) (B) (A) (A) (B) (A) (B) (B) (B) (B) (A) (A)
                 (B) (B) (A) (A) (B) (B) (A) (A) (A) (B) (A) (B)
                 (A) (B) (A) (B) (A) (A) (B) (A) (B) (A) (B) (B)
                 (B) (A) (B) (A) (B) (A) (B) (B) (A) (A) (B) (A)
                 (A) (B) (A) (A) (B) (B) (B) (A) (A) (B) (B) (B)
                 (A) (B) (A) (A) (A) (A) (B) (B) (A) (A) (B) (B)
                 (A) (B) (A) (B) (B) (B) (A) (A) (B) (A) (B) (A)
                 (B) (A) (B) (B) (A) (A) (B) (A) (B) (B) (A) (A)
                 (B) (A) (A) (B) (A) (B) (B) (A) (B) (A) (B) (A)
                 (B) (A) (A) (B) (A) (B) (A) (B) (A) (B) (B) (A)
                 (A) (B) (B) (A) (B) (A) (B) (A) (A) (B) (A) (B)
                 (B) (A) (A) (A) (B) (A) (B) (A) (B) (A) (B) (A)
                 (B) (A) (B) (B) (A) (B) (B) (A) (A) (B) (A) (B)
                 (A) (B) (A) (B) (B) (A) (B) (A) (B) (A) (B) (A)
                 (A) (B) (A) (B) (B) (A) (B) (A) (A) (B) (A) (B)
                 (B) (A) (B) (A) (A) (B) (A) (A) (B) (A) (B) (B)
                 (A) (A) (A) (B) (B) (A) (B) (A) (A) (B) (B) (A)
                 (B) (A) (B) (B) (A) (B) (B) (A) (B) (A) (B) (A)
                 (A) (B) (A) (B) (B) (A) (B) (A) (A) (B) (A) (B)
                 (B) (A) (B) (B) (A) (A) (A) (B) (A) (B) (A) (B)
                 (A) (B) (A) (B) (A) (B) (A) (A) (B) (B) (A) (A)
                 (B) (B) (A) (B) (A) (A) (B) (A) (B) (B) (A) (A)
                 (B) (B) (B) (A) (B) (A) (A) (B) (B) (A) (B) (B)
                 (B) (A) (A) (A) (B) (A) (B) (A) (B) (A) (B) (A)
                 (B) (A) (B) (A) (A) (B) (A) (B) (A) (B) (A) (A)
                 (B) (A) (B) (A) (B) (B) (B) (A) (B) (A) (B) (A)
                 (A) (B) (A) (B) (B) (A) (B) (A) (B) (A) (B) (A)
                 (B) (A) (B) (A) (B) (A) (B) (A) (B) (A) (A) (B)
                 (B) (B) (A) (A) (B) (A) (B) (B) (A) (B) (A) (A)
                 (A) (B) (B) (B) (A) (A) (A) (B) (B) (A) (B) (B)
                 (A) (A) (B) (A) (A) (B) (B) (A) (B) (A) (B) (A)
                 (A) (A) (B) (A) (B) (A) (B) (A) (B) (A) (B) (A)
                 (B) (A) (A) (B) (B) (A) (B) (A) (B) (B) (A) (A)
                 (B) (A) (B) (A) (B) (A) (B) (B) (A) (B) (A) (B)
                 (A) (A) (B) (B) (A) (B) (A) (B) (A) (A) (B) (B)
                 (A) (A) (B) (A) (B) (A) (B) (B) (B) (A) (B) (B)
                 (A) (A) (A) (B) (A) (A) (B) (A) (A) (B) (B) (B)
                 (A) (A) (B) (A) (B) (A) (B) (B) (A) (A) (B) (A)
                 (B) (A) (B) (A) (B) (A) (A) (B) (A) (B) (A) (B)
                 (B) (B) (A) (A) (A) (A) (B) (A) (B) (B) (A) (A)
                 (B) (B) (B) (A) (B) (A) (B) (A) (B) (A) (A) (B)
                 (A) (A) (B) (A) (B) (B) (A) (B) (A) (B) (A) (B)
                 (A) (A) (B) (A) (B) (B) (B) (A) (A) (B) (B) (A)
                 (A) (B) (A) (B) (A) (B) (A) (B) (B) (A) (A) (A)
                 (B) (B) (A) (A) (B) (A) (B) (A) (B) (A) (A) (B)
                 (B) (B) (A) (B) (B) (A) (B) (A) (B) (A) (A) (B)
                 (B) (A) (B) (B) (A) (A) (B) (B) (A) (B) (B) (A)
                 (A) (B) (A) (B) (A) (B) (A) (A) (B) (A) (B) (A)
                 (B) (A) (B) (B) (A) (B) (A) (B) (A) (A) (A) (B)
                 (B) (B) (A) (A) (B) (A) (B) (B) (A) (A) (B) (B)
                 (A) (B) (A) (A) (B) (A) (B) (B) (A) (B) (B) (A)
                 (B) (A) (B) (A) (A) (B) (B) (A) (B) (A) (A) (B)
                 (A) (B) (A) (B) (A) (A) (B) (A) (B) (A) (A) (B)
                 (B) (A) (B) (A) (B) (A) (B) (A) (B) (A) (B) (B)
                 (A) (B) (A) (B) (A) (B) (B) (A) (A) (B) (A) (A)
                 (A) (B) (B) (A) (B) (A) (A) (A) (B) (B) (A)
 The electronic state of the initial guess is 1-A.
 Leave Link  401 at Fri Apr 16 23:13:48 2021, MaxMem=   104857600 cpu:             502.8 elap:              11.3
 (Enter /s/ls4/users/knvvv/bin/g16sse/l502.exe)
 Integral symmetry usage will be decided dynamically.
 Closed shell SCF:
 Using DIIS extrapolation, IDIIS=  1040.
 NGot=   104857600 LenX=   102823879 LenY=   101834849
 Requested convergence on RMS density matrix=1.00D-08 within 128 cycles.
 Requested convergence on MAX density matrix=1.00D-06.
 Requested convergence on             energy=1.00D-06.
 No special actions if energy rises.
 Fock matrices will be formed incrementally for  20 cycles.
 Integral accuracy reduced to 1.0D-05 until final iterations.

 Cycle   1  Pass 0  IDiag  1:
 FoFJK:  IHMeth= 1 ICntrl=       0 DoSepK=F KAlg= 0 I1Cent=           0 FoldK=F
 IRaf= 930000000 NMat=       1 IRICut=       1 DoRegI=T DoRafI=F ISym2E= 1 IDoP0=0 IntGTp=1.
 FoFCou: FMM=F IPFlag=           0 FMFlag=      100000 FMFlg1=           0
         NFxFlg=           0 DoJE=F BraDBF=F KetDBF=F FulRan=T
         wScrn=  0.000000 ICntrl=         0 IOpCl=  0 I1Cent=           0 NGrid=           0
         NMat0=    1 NMatS0=      1 NMatT0=    0 NMatD0=    1 NMtDS0=    0 NMtDT0=    0
 Petite list used in FoFCou.
 CoulSu:  requested number of processors reduced to:  17 ShMem   1 Linda.
 CalDSu:  requested number of processors reduced to:  44 ShMem   1 Linda.
 E= -274.846751245770    
 DIIS: error= 2.31D-02 at cycle   1 NSaved=   1.
 NSaved= 1 IEnMin= 1 EnMin= -274.846751245770     IErMin= 1 ErrMin= 2.31D-02
 ErrMax= 2.31D-02  0.00D+00 EMaxC= 1.00D-01 BMatC= 4.42D-01 BMatP= 4.42D-01
 IDIUse=3 WtCom= 7.69D-01 WtEn= 2.31D-01
 Coeff-Com:  0.100D+01
 Coeff-En:   0.100D+01
 Coeff:      0.100D+01
 Gap=     0.363 Goal=   None    Shift=    0.000
 GapD=    0.363 DampG=1.000 DampE=0.500 DampFc=0.5000 IDamp=-1.
 Damping current iteration by 5.00D-01
 RMSDP=1.13D-03 MaxDP=8.23D-02              OVMax= 1.70D-01

 Cycle   2  Pass 0  IDiag  1:
 RMSU=  5.58D-04    CP:  9.68D-01
 CoulSu:  requested number of processors reduced to:  18 ShMem   1 Linda.
 CalDSu:  requested number of processors reduced to:  44 ShMem   1 Linda.
 E= -275.006796393530     Delta-E=       -0.160045147761 Rises=F Damp=T
 DIIS: error= 8.03D-03 at cycle   2 NSaved=   2.
 NSaved= 2 IEnMin= 2 EnMin= -275.006796393530     IErMin= 2 ErrMin= 8.03D-03
 ErrMax= 8.03D-03  0.00D+00 EMaxC= 1.00D-01 BMatC= 4.62D-02 BMatP= 4.42D-01
 IDIUse=3 WtCom= 9.20D-01 WtEn= 8.03D-02
 Coeff-Com: -0.147D+00 0.115D+01
 Coeff-En:   0.000D+00 0.100D+01
 Coeff:     -0.135D+00 0.114D+01
 Gap=     0.441 Goal=   None    Shift=    0.000
 RMSDP=7.21D-04 MaxDP=7.19D-02 DE=-1.60D-01 OVMax= 9.87D-02

 Cycle   3  Pass 0  IDiag  1:
 RMSU=  7.21D-04    CP:  9.72D-01  9.61D-01
 CoulSu:  requested number of processors reduced to:  18 ShMem   1 Linda.
 CalDSu:  requested number of processors reduced to:  44 ShMem   1 Linda.
 E= -275.161282224243     Delta-E=       -0.154485830713 Rises=F Damp=F
 DIIS: error= 5.84D-03 at cycle   3 NSaved=   3.
 NSaved= 3 IEnMin= 3 EnMin= -275.161282224243     IErMin= 3 ErrMin= 5.84D-03
 ErrMax= 5.84D-03  0.00D+00 EMaxC= 1.00D-01 BMatC= 8.79D-03 BMatP= 4.62D-02
 IDIUse=3 WtCom= 9.42D-01 WtEn= 5.84D-02
 Coeff-Com: -0.117D+00 0.340D+00 0.777D+00
 Coeff-En:   0.000D+00 0.000D+00 0.100D+01
 Coeff:     -0.110D+00 0.320D+00 0.790D+00
 Gap=     0.399 Goal=   None    Shift=    0.000
 RMSDP=1.08D-04 MaxDP=1.57D-02 DE=-1.54D-01 OVMax= 1.96D-02

 Cycle   4  Pass 0  IDiag  1:
 RMSU=  8.17D-05    CP:  9.63D-01  1.04D+00  9.30D-01
 CoulSu:  requested number of processors reduced to:  18 ShMem   1 Linda.
 CalDSu:  requested number of processors reduced to:  44 ShMem   1 Linda.
 E= -275.168656087891     Delta-E=       -0.007373863649 Rises=F Damp=F
 DIIS: error= 1.87D-03 at cycle   4 NSaved=   4.
 NSaved= 4 IEnMin= 4 EnMin= -275.168656087891     IErMin= 4 ErrMin= 1.87D-03
 ErrMax= 1.87D-03  0.00D+00 EMaxC= 1.00D-01 BMatC= 1.32D-03 BMatP= 8.79D-03
 IDIUse=3 WtCom= 9.81D-01 WtEn= 1.87D-02
 Coeff-Com: -0.412D-01 0.947D-01 0.354D+00 0.593D+00
 Coeff-En:   0.000D+00 0.000D+00 0.328D-02 0.997D+00
 Coeff:     -0.404D-01 0.930D-01 0.347D+00 0.600D+00
 Gap=     0.403 Goal=   None    Shift=    0.000
 RMSDP=4.06D-05 MaxDP=3.55D-03 DE=-7.37D-03 OVMax= 7.04D-03

 Cycle   5  Pass 0  IDiag  1:
 RMSU=  3.66D-05    CP:  9.61D-01  1.01D+00  9.26D-01  9.45D-01
 CoulSu:  requested number of processors reduced to:  18 ShMem   1 Linda.
 CalDSu:  requested number of processors reduced to:  44 ShMem   1 Linda.
 E= -275.169824208598     Delta-E=       -0.001168120707 Rises=F Damp=F
 DIIS: error= 2.03D-04 at cycle   5 NSaved=   5.
 NSaved= 5 IEnMin= 5 EnMin= -275.169824208598     IErMin= 5 ErrMin= 2.03D-04
 ErrMax= 2.03D-04  0.00D+00 EMaxC= 1.00D-01 BMatC= 3.04D-05 BMatP= 1.32D-03
 IDIUse=3 WtCom= 9.98D-01 WtEn= 2.03D-03
 Coeff-Com: -0.295D-02 0.601D-02 0.442D-01 0.170D+00 0.783D+00
 Coeff-En:   0.000D+00 0.000D+00 0.000D+00 0.000D+00 0.100D+01
 Coeff:     -0.295D-02 0.600D-02 0.441D-01 0.170D+00 0.783D+00
 Gap=     0.402 Goal=   None    Shift=    0.000
 RMSDP=2.03D-05 MaxDP=1.20D-03 DE=-1.17D-03 OVMax= 1.02D-03

 Cycle   6  Pass 0  IDiag  1:
 RMSU=  1.40D-05    CP:  9.61D-01  1.00D+00  9.17D-01  1.03D+00  1.27D+00
 CoulSu:  requested number of processors reduced to:  18 ShMem   1 Linda.
 CalDSu:  requested number of processors reduced to:  44 ShMem   1 Linda.
 E= -275.169853072327     Delta-E=       -0.000028863729 Rises=F Damp=F
 DIIS: error= 2.94D-05 at cycle   6 NSaved=   6.
 NSaved= 6 IEnMin= 6 EnMin= -275.169853072327     IErMin= 6 ErrMin= 2.94D-05
 ErrMax= 2.94D-05  0.00D+00 EMaxC= 1.00D-01 BMatC= 6.70D-07 BMatP= 3.04D-05
 IDIUse=1 WtCom= 1.00D+00 WtEn= 0.00D+00
 Coeff-Com:  0.222D-02-0.489D-02-0.151D-01-0.119D-01 0.742D-01 0.955D+00
 Coeff:      0.222D-02-0.489D-02-0.151D-01-0.119D-01 0.742D-01 0.955D+00
 Gap=     0.402 Goal=   None    Shift=    0.000
 RMSDP=1.92D-05 MaxDP=7.68D-04 DE=-2.89D-05 OVMax= 1.96D-04

 Cycle   7  Pass 0  IDiag  1:
 RMSU=  7.85D-06    CP:  9.61D-01  9.94D-01  9.13D-01  1.08D+00  1.51D+00
                    CP:  1.98D+00
 CoulSu:  requested number of processors reduced to:  18 ShMem   1 Linda.
 CalDSu:  requested number of processors reduced to:  44 ShMem   1 Linda.
 E= -275.169854115315     Delta-E=       -0.000001042989 Rises=F Damp=F
 DIIS: error= 3.13D-05 at cycle   7 NSaved=   7.
 NSaved= 7 IEnMin= 7 EnMin= -275.169854115315     IErMin= 6 ErrMin= 2.94D-05
 ErrMax= 3.13D-05  0.00D+00 EMaxC= 1.00D-01 BMatC= 1.80D-07 BMatP= 6.70D-07
 IDIUse=1 WtCom= 1.00D+00 WtEn= 0.00D+00
 Coeff-Com:  0.627D-03-0.145D-02-0.505D-02-0.745D-02-0.478D-04 0.263D+00
 Coeff-Com:  0.751D+00
 Coeff:      0.627D-03-0.145D-02-0.505D-02-0.745D-02-0.478D-04 0.263D+00
 Coeff:      0.751D+00
 Gap=     0.402 Goal=   None    Shift=    0.000
 RMSDP=1.44D-05 MaxDP=6.64D-04 DE=-1.04D-06 OVMax= 6.61D-05

 Cycle   8  Pass 0  IDiag  1:
 RMSU=  3.71D-06    CP:  9.61D-01  9.89D-01  9.12D-01  1.11D+00  1.65D+00
                    CP:  2.72D+00  1.86D+00
 CoulSu:  requested number of processors reduced to:  18 ShMem   1 Linda.
 CalDSu:  requested number of processors reduced to:  44 ShMem   1 Linda.
 E= -275.169854868116     Delta-E=       -0.000000752801 Rises=F Damp=F
 DIIS: error= 3.81D-05 at cycle   8 NSaved=   8.
 NSaved= 8 IEnMin= 8 EnMin= -275.169854868116     IErMin= 6 ErrMin= 2.94D-05
 ErrMax= 3.81D-05  0.00D+00 EMaxC= 1.00D-01 BMatC= 1.64D-07 BMatP= 1.80D-07
 IDIUse=1 WtCom= 1.00D+00 WtEn= 0.00D+00
 Coeff-Com:  0.281D-03-0.678D-03-0.243D-02-0.399D-02-0.234D-02 0.125D+00
 Coeff-Com:  0.482D+00 0.403D+00
 Coeff:      0.281D-03-0.678D-03-0.243D-02-0.399D-02-0.234D-02 0.125D+00
 Coeff:      0.482D+00 0.403D+00
 Gap=     0.402 Goal=   None    Shift=    0.000
 RMSDP=8.85D-06 MaxDP=4.32D-04 DE=-7.53D-07 OVMax= 2.51D-05

 Initial convergence to 1.0D-05 achieved.  Increase integral accuracy.
 Cycle   9  Pass 1  IDiag  1:
 CoulSu:  requested number of processors reduced to:  17 ShMem   1 Linda.
 CalDSu:  requested number of processors reduced to:  43 ShMem   1 Linda.
 E= -275.169910227043     Delta-E=       -0.000055358926 Rises=F Damp=F
 DIIS: error= 1.22D-04 at cycle   1 NSaved=   1.
 NSaved= 1 IEnMin= 1 EnMin= -275.169910227043     IErMin= 1 ErrMin= 1.22D-04
 ErrMax= 1.22D-04  0.00D+00 EMaxC= 1.00D-01 BMatC= 5.69D-06 BMatP= 5.69D-06
 IDIUse=3 WtCom= 9.99D-01 WtEn= 1.22D-03
 Coeff-Com:  0.100D+01
 Coeff-En:   0.100D+01
 Coeff:      0.100D+01
 Gap=     0.402 Goal=   None    Shift=    0.000
 RMSDP=8.85D-06 MaxDP=4.32D-04 DE=-5.54D-05 OVMax= 2.47D-04

 Cycle  10  Pass 1  IDiag  1:
 RMSU=  8.62D-05    CP:  1.00D+00
 CoulSu:  requested number of processors reduced to:  17 ShMem   1 Linda.
 CalDSu:  requested number of processors reduced to:  43 ShMem   1 Linda.
 E= -275.169912554277     Delta-E=       -0.000002327234 Rises=F Damp=F
 DIIS: error= 3.19D-06 at cycle   2 NSaved=   2.
 NSaved= 2 IEnMin= 2 EnMin= -275.169912554277     IErMin= 2 ErrMin= 3.19D-06
 ErrMax= 3.19D-06  0.00D+00 EMaxC= 1.00D-01 BMatC= 1.03D-08 BMatP= 5.69D-06
 IDIUse=1 WtCom= 1.00D+00 WtEn= 0.00D+00
 Coeff-Com: -0.223D-01 0.102D+01
 Coeff:     -0.223D-01 0.102D+01
 Gap=     0.402 Goal=   None    Shift=    0.000
 RMSDP=3.58D-06 MaxDP=1.70D-04 DE=-2.33D-06 OVMax= 2.28D-05

 Cycle  11  Pass 1  IDiag  1:
 RMSU=  9.60D-07    CP:  1.00D+00  1.04D+00
 CoulSu:  requested number of processors reduced to:  17 ShMem   1 Linda.
 CalDSu:  requested number of processors reduced to:  43 ShMem   1 Linda.
 E= -275.169912560288     Delta-E=       -0.000000006011 Rises=F Damp=F
 DIIS: error= 1.55D-06 at cycle   3 NSaved=   3.
 NSaved= 3 IEnMin= 3 EnMin= -275.169912560288     IErMin= 3 ErrMin= 1.55D-06
 ErrMax= 1.55D-06  0.00D+00 EMaxC= 1.00D-01 BMatC= 1.97D-09 BMatP= 1.03D-08
 IDIUse=1 WtCom= 1.00D+00 WtEn= 0.00D+00
 Coeff-Com: -0.752D-02 0.280D+00 0.728D+00
 Coeff:     -0.752D-02 0.280D+00 0.728D+00
 Gap=     0.402 Goal=   None    Shift=    0.000
 RMSDP=1.19D-07 MaxDP=7.88D-06 DE=-6.01D-09 OVMax= 1.05D-05

 Cycle  12  Pass 1  IDiag  1:
 RMSU=  6.11D-08    CP:  1.00D+00  1.04D+00  1.05D+00
 CoulSu:  requested number of processors reduced to:  17 ShMem   1 Linda.
 CalDSu:  requested number of processors reduced to:  43 ShMem   1 Linda.
 E= -275.169912561740     Delta-E=       -0.000000001451 Rises=F Damp=F
 DIIS: error= 8.27D-07 at cycle   4 NSaved=   4.
 NSaved= 4 IEnMin= 4 EnMin= -275.169912561740     IErMin= 4 ErrMin= 8.27D-07
 ErrMax= 8.27D-07  0.00D+00 EMaxC= 1.00D-01 BMatC= 4.51D-10 BMatP= 1.97D-09
 IDIUse=1 WtCom= 1.00D+00 WtEn= 0.00D+00
 Coeff-Com:  0.251D-03-0.416D-01 0.307D+00 0.735D+00
 Coeff:      0.251D-03-0.416D-01 0.307D+00 0.735D+00
 Gap=     0.402 Goal=   None    Shift=    0.000
 RMSDP=4.97D-08 MaxDP=2.90D-06 DE=-1.45D-09 OVMax= 3.72D-06

 Cycle  13  Pass 1  IDiag  1:
 RMSU=  2.18D-08    CP:  1.00D+00  1.04D+00  1.08D+00  9.68D-01
 CoulSu:  requested number of processors reduced to:  17 ShMem   1 Linda.
 CalDSu:  requested number of processors reduced to:  43 ShMem   1 Linda.
 E= -275.169912562150     Delta-E=       -0.000000000410 Rises=F Damp=F
 DIIS: error= 8.59D-08 at cycle   5 NSaved=   5.
 NSaved= 5 IEnMin= 5 EnMin= -275.169912562150     IErMin= 5 ErrMin= 8.59D-08
 ErrMax= 8.59D-08  0.00D+00 EMaxC= 1.00D-01 BMatC= 4.50D-12 BMatP= 4.51D-10
 IDIUse=1 WtCom= 1.00D+00 WtEn= 0.00D+00
 Coeff-Com:  0.183D-03-0.149D-01 0.572D-01 0.173D+00 0.785D+00
 Coeff:      0.183D-03-0.149D-01 0.572D-01 0.173D+00 0.785D+00
 Gap=     0.402 Goal=   None    Shift=    0.000
 RMSDP=3.80D-09 MaxDP=2.26D-07 DE=-4.10D-10 OVMax= 4.86D-07

 SCF Done:  E(RM062X) =  -275.169912562     A.U. after   13 cycles
            NFock= 13  Conv=0.38D-08     -V/T= 2.0047
 KE= 2.738845909210D+02 PE=-1.295930107962D+03 EE= 4.172741253686D+02
 Leave Link  502 at Fri Apr 16 23:25:06 2021, MaxMem=   104857600 cpu:           21718.9 elap:             677.7
 (Enter /s/ls4/users/knvvv/bin/g16sse/l601.exe)
 Copying SCF densities to generalized density rwf, IOpCl= 0 IROHF=0.

 **********************************************************************

            Population analysis using the SCF density.

 **********************************************************************

 Orbital symmetries:
       Occupied  (A) (B) (A) (B) (A) (B) (A) (A) (A) (B) (B) (A)
                 (A) (B) (B) (A) (A) (B) (A) (B) (A) (B) (B) (A)
                 (B) (A) (B) (A)
       Virtual   (A) (B) (A) (B) (A) (B) (A) (B) (A) (A) (B) (B)
                 (A) (B) (A) (B) (A) (B) (B) (B) (A) (B) (A) (A)
                 (B) (A) (A) (A) (B) (B) (A) (A) (B) (B) (B) (B)
                 (A) (A) (A) (B) (A) (A) (B) (A) (B) (A) (B) (B)
                 (A) (A) (B) (B) (B) (B) (A) (A) (B) (A) (B) (A)
                 (B) (A) (A) (B) (B) (A) (A) (B) (B) (A) (A) (B)
                 (A) (B) (A) (B) (A) (A) (B) (B) (B) (A) (B) (A)
                 (A) (B) (A) (B) (A) (B) (B) (A) (B) (A) (B) (A)
                 (B) (A) (B) (B) (A) (B) (A) (A) (A) (B) (B) (A)
                 (A) (B) (B) (A) (B) (B) (B) (A) (A) (A) (A) (B)
                 (B) (A) (A) (A) (B) (A) (B) (B) (B) (A) (B) (B)
                 (A) (A) (B) (A) (B) (B) (A) (A) (B) (A) (B) (A)
                 (A) (B) (A) (B) (A) (A) (B) (A) (B) (B) (A) (B)
                 (B) (A) (B) (A) (B) (A) (B) (A) (B) (A) (B) (A)
                 (A) (B) (A) (B) (A) (B) (A) (B) (A) (B) (B) (B)
                 (A) (A) (B) (A) (A) (B) (A) (B) (A) (B) (A) (B)
                 (A) (B) (B) (A) (B) (A) (B) (A) (B) (A) (B) (B)
                 (A) (A) (B) (B) (A) (A) (B) (A) (A) (B) (A) (B)
                 (B) (A) (A) (B) (A) (B) (A) (B) (A) (B) (B) (A)
                 (B) (A) (A) (B) (B) (A) (A) (B) (B) (A) (B) (A)
                 (B) (A) (B) (A) (B) (A) (B) (A) (B) (A) (A) (B)
                 (B) (A) (A) (A) (A) (B) (B) (A) (B) (A) (B) (A)
                 (B) (A) (B) (A) (B) (B) (B) (A) (A) (B) (B) (A)
                 (B) (A) (B) (A) (B) (A) (B) (B) (A) (A) (B) (A)
                 (A) (B) (A) (B) (B) (A) (B) (A) (A) (B) (A) (A)
                 (B) (B) (B) (A) (A) (B) (A) (A) (B) (A) (B) (B)
                 (A) (A) (B) (A) (B) (A) (B) (A) (B) (B) (A) (A)
                 (B) (B) (A) (B) (A) (B) (B) (A) (A) (B) (B) (A)
                 (A) (B) (A) (B) (B) (A) (A) (B) (A) (B) (A) (B)
                 (B) (A) (B) (A) (B) (A) (A) (B) (B) (A) (A) (B)
                 (A) (B) (A) (B) (B) (A) (A) (B) (A) (B) (A) (A)
                 (B) (B) (A) (A) (B) (A) (B) (B) (B) (A) (A) (A)
                 (B) (B) (B) (A) (B) (A) (A) (B) (B) (A) (B) (B)
                 (A) (B) (A) (A) (A) (B) (B) (A) (B) (A) (B) (A)
                 (B) (A) (B) (A) (A) (B) (A) (B) (A) (B) (A) (A)
                 (B) (B) (A) (B) (A) (B) (B) (A) (A) (B) (B) (A)
                 (A) (B) (B) (A) (B) (A) (B) (A) (A) (B) (A) (B)
                 (B) (A) (A) (B) (B) (B) (A) (B) (A) (A) (B) (A)
                 (B) (A) (B) (A) (B) (A) (B) (B) (A) (B) (A) (A)
                 (A) (B) (B) (A) (B) (A) (B) (B) (A) (A) (B) (A)
                 (B) (B) (A) (A) (A) (B) (B) (A) (B) (A) (B) (A)
                 (A) (A) (A) (B) (B) (A) (A) (B) (B) (A) (B) (B)
                 (A) (A) (B) (A) (B) (A) (B) (B) (A) (B) (A) (A)
                 (B) (B) (A) (A) (B) (B) (A) (B) (B) (A) (B) (A)
                 (A) (A) (B) (A) (B) (B) (A) (B) (A) (A) (B) (A)
                 (B) (B) (A) (A) (B) (A) (B) (B) (B) (A) (B) (A)
                 (B) (A) (B) (A) (A) (B) (A) (A) (A) (B) (B) (B)
                 (A) (B) (A) (B) (A) (A) (B) (B) (A) (B) (A) (A)
                 (B) (B) (A) (A) (B) (A) (A) (A) (B) (B) (A) (B)
                 (B) (A) (B) (A) (A) (A) (A) (B) (B) (B) (A) (A)
                 (B) (B) (B) (A) (A) (B) (A) (B) (B) (A) (A) (B)
                 (A) (B) (A) (A) (B) (B) (A) (B) (B) (A) (B) (A)
                 (A) (A) (B) (B) (B) (A) (A) (B) (A) (A) (B) (A)
                 (B) (B) (B) (A) (B) (A) (B) (A) (B) (A) (A) (B)
                 (A) (A) (B) (A) (B) (B) (A) (A) (B) (A) (B) (A)
                 (B) (B) (A) (B) (B) (A) (A) (B) (B) (A) (B) (A)
                 (B) (A) (B) (B) (A) (B) (A) (B) (A) (B) (B) (A)
                 (A) (B) (A) (B) (A) (B) (A) (B) (A) (A) (B) (A)
                 (A) (B) (B) (A) (B) (A) (B) (B) (A) (A) (B) (A)
                 (B) (A) (A) (B) (B) (A) (B) (B) (A) (A) (B) (B)
                 (A) (B) (A) (A) (B) (A) (A) (B) (B) (B) (A) (B)
                 (A) (B) (B) (A) (A) (B) (B) (A) (B) (A) (A) (B)
                 (B) (A) (A) (A) (B) (A) (B) (A) (B) (A) (A) (B)
                 (B) (A) (B) (A) (B) (A) (B) (A) (B) (A) (B) (B)
                 (A) (B) (A) (B) (A) (B) (B) (A) (A) (B) (A) (A)
                 (A) (B) (B) (A) (B) (A) (A) (A) (B) (B) (A)
 The electronic state is 1-A.
 Alpha  occ. eigenvalues --  -10.53172 -10.53134 -10.52621 -10.52480 -10.52475
 Alpha  occ. eigenvalues --  -10.52169 -10.52169  -0.94752  -0.83849  -0.83731
 Alpha  occ. eigenvalues --   -0.75319  -0.72438  -0.64019  -0.63247  -0.53787
 Alpha  occ. eigenvalues --   -0.52740  -0.50198  -0.49873  -0.48340  -0.44970
 Alpha  occ. eigenvalues --   -0.44238  -0.42277  -0.39030  -0.38706  -0.37880
 Alpha  occ. eigenvalues --   -0.37079  -0.36727  -0.35649
 Alpha virt. eigenvalues --    0.04555   0.05163   0.05350   0.05774   0.09027
 Alpha virt. eigenvalues --    0.09359   0.09518   0.09657   0.10118   0.12130
 Alpha virt. eigenvalues --    0.12147   0.12741   0.13489   0.14536   0.15055
 Alpha virt. eigenvalues --    0.15781   0.16372   0.17353   0.18985   0.19915
 Alpha virt. eigenvalues --    0.20766   0.21389   0.22163   0.22599   0.23190
 Alpha virt. eigenvalues --    0.24131   0.26294   0.27575   0.27639   0.29262
 Alpha virt. eigenvalues --    0.29927   0.31062   0.31086   0.32029   0.32346
 Alpha virt. eigenvalues --    0.32709   0.32715   0.33659   0.33873   0.34413
 Alpha virt. eigenvalues --    0.35782   0.36201   0.36367   0.36845   0.37078
 Alpha virt. eigenvalues --    0.37987   0.38019   0.39087   0.39677   0.39955
 Alpha virt. eigenvalues --    0.40268   0.40694   0.42176   0.43374   0.44337
 Alpha virt. eigenvalues --    0.49688   0.50590   0.50658   0.53060   0.54804
 Alpha virt. eigenvalues --    0.57154   0.57557   0.59819   0.59918   0.60711
 Alpha virt. eigenvalues --    0.60891   0.61551   0.62804   0.64776   0.65181
 Alpha virt. eigenvalues --    0.66150   0.66258   0.67024   0.67868   0.69407
 Alpha virt. eigenvalues --    0.70107   0.70427   0.71668   0.71888   0.73886
 Alpha virt. eigenvalues --    0.75641   0.76725   0.77494   0.78208   0.80130
 Alpha virt. eigenvalues --    0.80389   0.81046   0.81884   0.82283   0.82625
 Alpha virt. eigenvalues --    0.84045   0.84810   0.84867   0.85702   0.86646
 Alpha virt. eigenvalues --    0.87739   0.87986   0.89248   0.89278   0.90172
 Alpha virt. eigenvalues --    0.91022   0.91400   0.92409   0.93865   0.94768
 Alpha virt. eigenvalues --    0.95443   0.95571   0.97059   0.98478   0.98535
 Alpha virt. eigenvalues --    0.99766   1.00940   1.01669   1.02741   1.03496
 Alpha virt. eigenvalues --    1.04246   1.06080   1.06520   1.08178   1.08227
 Alpha virt. eigenvalues --    1.08801   1.09413   1.09905   1.12039   1.14067
 Alpha virt. eigenvalues --    1.15310   1.15545   1.17952   1.20134   1.20658
 Alpha virt. eigenvalues --    1.20756   1.21103   1.21475   1.22769   1.23760
 Alpha virt. eigenvalues --    1.24226   1.24320   1.26067   1.26634   1.28153
 Alpha virt. eigenvalues --    1.31160   1.31295   1.33111   1.33325   1.36671
 Alpha virt. eigenvalues --    1.36854   1.37023   1.40144   1.42324   1.42558
 Alpha virt. eigenvalues --    1.43282   1.44593   1.45677   1.47489   1.47772
 Alpha virt. eigenvalues --    1.50620   1.51444   1.51942   1.52920   1.55190
 Alpha virt. eigenvalues --    1.56377   1.57432   1.58287   1.59297   1.59346
 Alpha virt. eigenvalues --    1.61490   1.63494   1.64177   1.66443   1.68211
 Alpha virt. eigenvalues --    1.69130   1.72131   1.72520   1.74451   1.78847
 Alpha virt. eigenvalues --    1.79832   1.81830   1.81872   1.82918   1.84537
 Alpha virt. eigenvalues --    1.86763   1.88696   1.89046   1.90955   1.93991
 Alpha virt. eigenvalues --    1.94768   1.94890   1.97318   1.97724   1.97815
 Alpha virt. eigenvalues --    1.99042   1.99285   2.01902   2.03220   2.04320
 Alpha virt. eigenvalues --    2.04901   2.05775   2.06835   2.07044   2.08075
 Alpha virt. eigenvalues --    2.08955   2.09031   2.10633   2.12151   2.12368
 Alpha virt. eigenvalues --    2.13536   2.13797   2.14199   2.15429   2.16582
 Alpha virt. eigenvalues --    2.17276   2.17698   2.18438   2.18674   2.20035
 Alpha virt. eigenvalues --    2.20653   2.21974   2.22368   2.22958   2.23333
 Alpha virt. eigenvalues --    2.25486   2.25557   2.27845   2.28177   2.29978
 Alpha virt. eigenvalues --    2.30099   2.30843   2.32266   2.33078   2.33886
 Alpha virt. eigenvalues --    2.34476   2.36611   2.37162   2.37668   2.39218
 Alpha virt. eigenvalues --    2.42374   2.42600   2.43681   2.44003   2.45619
 Alpha virt. eigenvalues --    2.46023   2.46274   2.46977   2.48498   2.49406
 Alpha virt. eigenvalues --    2.49541   2.50142   2.52436   2.53767   2.54232
 Alpha virt. eigenvalues --    2.55619   2.56729   2.56925   2.58223   2.59581
 Alpha virt. eigenvalues --    2.61630   2.62625   2.62974   2.63471   2.64663
 Alpha virt. eigenvalues --    2.65508   2.66063   2.68784   2.69316   2.70725
 Alpha virt. eigenvalues --    2.71520   2.71671   2.72316   2.73109   2.76333
 Alpha virt. eigenvalues --    2.78367   2.78487   2.79480   2.81270   2.83205
 Alpha virt. eigenvalues --    2.83864   2.84239   2.85597   2.86620   2.86945
 Alpha virt. eigenvalues --    2.88080   2.88979   2.89279   2.91514   2.92326
 Alpha virt. eigenvalues --    2.92453   2.94297   2.94564   2.95398   2.96600
 Alpha virt. eigenvalues --    2.97113   2.97402   2.98886   2.99177   3.01029
 Alpha virt. eigenvalues --    3.01786   3.01966   3.02495   3.05433   3.05694
 Alpha virt. eigenvalues --    3.05777   3.06524   3.08393   3.09410   3.10208
 Alpha virt. eigenvalues --    3.11092   3.12204   3.15345   3.15389   3.17325
 Alpha virt. eigenvalues --    3.19015   3.19485   3.20554   3.20862   3.21808
 Alpha virt. eigenvalues --    3.22635   3.24669   3.26810   3.27800   3.29364
 Alpha virt. eigenvalues --    3.29758   3.30541   3.31209   3.33150   3.33540
 Alpha virt. eigenvalues --    3.35910   3.36098   3.39959   3.40273   3.40804
 Alpha virt. eigenvalues --    3.42477   3.44387   3.46254   3.46330   3.48671
 Alpha virt. eigenvalues --    3.48743   3.51677   3.52394   3.52750   3.54946
 Alpha virt. eigenvalues --    3.58411   3.60026   3.60598   3.60615   3.64545
 Alpha virt. eigenvalues --    3.64803   3.65934   3.68336   3.70153   3.71520
 Alpha virt. eigenvalues --    3.73353   3.74502   3.75204   3.75530   3.77208
 Alpha virt. eigenvalues --    3.78236   3.80283   3.80408   3.82877   3.85084
 Alpha virt. eigenvalues --    3.85956   3.86634   3.87224   3.88406   3.88972
 Alpha virt. eigenvalues --    3.89653   3.92078   3.92745   3.93638   3.94725
 Alpha virt. eigenvalues --    3.95736   3.97334   4.00068   4.01785   4.02224
 Alpha virt. eigenvalues --    4.05304   4.06884   4.07406   4.08556   4.20590
 Alpha virt. eigenvalues --    4.22526   4.23972   4.26338   4.30316   4.32444
 Alpha virt. eigenvalues --    4.33153   4.34034   4.39593   4.46140   4.47637
 Alpha virt. eigenvalues --    4.52076   4.64989   4.73594   4.76316   4.78087
 Alpha virt. eigenvalues --    4.81313   4.81981   4.82841   4.83150   4.86878
 Alpha virt. eigenvalues --    4.98606   4.99568   5.01403   5.08812   5.09522
 Alpha virt. eigenvalues --    5.12203   5.14088   5.15706   5.16730   5.23899
 Alpha virt. eigenvalues --    5.24886   5.29146   5.36210   5.38840   5.41374
 Alpha virt. eigenvalues --    5.42331   5.44875   5.46761   5.46918   5.47941
 Alpha virt. eigenvalues --    5.48662   5.53016   5.53251   5.56000   5.56066
 Alpha virt. eigenvalues --    5.57415   5.60243   5.63840   5.64045   5.65274
 Alpha virt. eigenvalues --    5.69817   5.70125   5.70566   5.72619   5.73526
 Alpha virt. eigenvalues --    5.73624   5.75970   5.76225   5.77886   5.78625
 Alpha virt. eigenvalues --    5.79361   5.79491   5.80802   5.80995   5.81178
 Alpha virt. eigenvalues --    5.83172   5.84191   5.84389   5.85842   5.88044
 Alpha virt. eigenvalues --    5.88294   5.90473   5.90803   5.91947   5.92211
 Alpha virt. eigenvalues --    5.93143   5.95272   5.97127   5.97653   5.98528
 Alpha virt. eigenvalues --    5.98806   5.99284   6.00105   6.01678   6.03637
 Alpha virt. eigenvalues --    6.04228   6.05841   6.06274   6.07156   6.07214
 Alpha virt. eigenvalues --    6.08946   6.09856   6.09903   6.12213   6.13977
 Alpha virt. eigenvalues --    6.14948   6.15736   6.16040   6.17220   6.18091
 Alpha virt. eigenvalues --    6.19636   6.20782   6.21770   6.22440   6.24104
 Alpha virt. eigenvalues --    6.24695   6.25511   6.26603   6.27020   6.27529
 Alpha virt. eigenvalues --    6.28292   6.30035   6.32261   6.32597   6.33421
 Alpha virt. eigenvalues --    6.34421   6.36044   6.37298   6.37745   6.37761
 Alpha virt. eigenvalues --    6.38872   6.39049   6.41278   6.42197   6.42813
 Alpha virt. eigenvalues --    6.45099   6.46315   6.46568   6.48630   6.48823
 Alpha virt. eigenvalues --    6.51050   6.52068   6.52204   6.52584   6.53571
 Alpha virt. eigenvalues --    6.57553   6.58491   6.60243   6.60878   6.60952
 Alpha virt. eigenvalues --    6.62635   6.65346   6.66342   6.68600   6.70251
 Alpha virt. eigenvalues --    6.70528   6.71349   6.71977   6.73098   6.75109
 Alpha virt. eigenvalues --    6.75966   6.79002   6.79532   6.80182   6.80765
 Alpha virt. eigenvalues --    6.82914   6.83981   6.86910   6.89042   6.90378
 Alpha virt. eigenvalues --    6.91574   6.92709   6.93574   6.94705   6.97718
 Alpha virt. eigenvalues --    6.98680   6.99952   7.02616   7.03698   7.04699
 Alpha virt. eigenvalues --    7.05854   7.07130   7.08324   7.11383   7.12568
 Alpha virt. eigenvalues --    7.13754   7.15993   7.16439   7.16459   7.20335
 Alpha virt. eigenvalues --    7.22417   7.24510   7.26669   7.28275   7.28604
 Alpha virt. eigenvalues --    7.30675   7.30849   7.32316   7.34094   7.35396
 Alpha virt. eigenvalues --    7.35804   7.37114   7.37896   7.38750   7.39708
 Alpha virt. eigenvalues --    7.40048   7.42503   7.42849   7.44332   7.44932
 Alpha virt. eigenvalues --    7.45262   7.46281   7.47544   7.48095   7.49056
 Alpha virt. eigenvalues --    7.49573   7.50523   7.52460   7.53282   7.53649
 Alpha virt. eigenvalues --    7.54907   7.55996   7.56606   7.57762   7.58270
 Alpha virt. eigenvalues --    7.58631   7.59862   7.61588   7.62792   7.64388
 Alpha virt. eigenvalues --    7.64624   7.65966   7.67754   7.68839   7.70140
 Alpha virt. eigenvalues --    7.71309   7.71799   7.71951   7.75798   7.75908
 Alpha virt. eigenvalues --    7.78350   7.79687   7.79989   7.81729   7.81917
 Alpha virt. eigenvalues --    7.83584   7.85301   7.86173   7.87195   7.88138
 Alpha virt. eigenvalues --    7.89245   7.89403   7.90704   7.92370   7.92878
 Alpha virt. eigenvalues --    7.93325   7.94698   7.96210   7.98430   7.99009
 Alpha virt. eigenvalues --    8.01061   8.01343   8.04838   8.06010   8.06828
 Alpha virt. eigenvalues --    8.09649   8.10116   8.11416   8.12413   8.14856
 Alpha virt. eigenvalues --    8.16759   8.16960   8.17513   8.18972   8.20135
 Alpha virt. eigenvalues --    8.20448   8.23547   8.24972   8.25429   8.26878
 Alpha virt. eigenvalues --    8.27186   8.29433   8.30136   8.31877   8.32347
 Alpha virt. eigenvalues --    8.32823   8.33323   8.36191   8.36871   8.37507
 Alpha virt. eigenvalues --    8.38325   8.39916   8.40887   8.41753   8.43056
 Alpha virt. eigenvalues --    8.43445   8.45010   8.45719   8.45975   8.46075
 Alpha virt. eigenvalues --    8.47163   8.48194   8.52021   8.53094   8.53340
 Alpha virt. eigenvalues --    8.53704   8.54149   8.58880   8.60343   8.60540
 Alpha virt. eigenvalues --    8.61344   8.63694   8.66545   8.68890   8.70779
 Alpha virt. eigenvalues --    8.71578   8.72137   8.72762   8.75693   8.77556
 Alpha virt. eigenvalues --    8.78201   8.80610   8.80786   8.81611   8.82296
 Alpha virt. eigenvalues --    8.83204   8.84233   8.84343   8.86995   8.88398
 Alpha virt. eigenvalues --    8.88963   8.90351   8.91317   8.94197   8.95615
 Alpha virt. eigenvalues --    8.99623   9.00303   9.01383   9.05196   9.05960
 Alpha virt. eigenvalues --    9.07976   9.09727   9.11823   9.24200   9.31801
 Alpha virt. eigenvalues --    9.38003   9.38151   9.39447   9.41021   9.48342
 Alpha virt. eigenvalues --    9.57372   9.58328   9.58648   9.60065   9.60735
 Alpha virt. eigenvalues --    9.62649   9.62843   9.63143   9.65855   9.67571
 Alpha virt. eigenvalues --    9.69061   9.69305   9.69416   9.70425   9.72177
 Alpha virt. eigenvalues --    9.73444   9.75533   9.77501   9.81401   9.83326
 Alpha virt. eigenvalues --    9.85577   9.88862   9.89760   9.90744   9.93366
 Alpha virt. eigenvalues --    9.93629  10.01269  10.02923  10.03378  10.05293
 Alpha virt. eigenvalues --   10.08920  10.10077  10.12610  10.13196  10.17197
 Alpha virt. eigenvalues --   10.18049  10.18459  10.21311  10.24508  10.35503
 Alpha virt. eigenvalues --   10.38344  10.38460  10.39476  11.87703  11.92555
 Alpha virt. eigenvalues --   11.98731  12.05735  12.06740  12.19140  12.31116
 Alpha virt. eigenvalues --   12.78726  12.88844  12.95459  13.05139  13.14533
 Alpha virt. eigenvalues --   13.16347  13.20986  29.04019  29.07103  29.09957
 Alpha virt. eigenvalues --   29.18068  29.24160  29.25412  29.26775 146.55774
 Alpha virt. eigenvalues --  146.60131 146.62818 146.69949 146.76179 146.79546
 Alpha virt. eigenvalues --  146.80497
          Condensed to atoms (all electrons):
               1          2          3          4          5          6
     1  C    5.458610   0.298160   0.284244  -0.125698  -0.068825   0.331931
     2  C    0.298160   5.530123  -0.125698  -0.025923   0.279939  -0.069250
     3  C    0.284244  -0.125698   5.458610   0.298160  -0.068825  -0.084345
     4  C   -0.125698  -0.025923   0.298160   5.530123   0.279939   0.009193
     5  C   -0.068825   0.279939  -0.068825   0.279939   5.434866   0.009683
     6  C    0.331931  -0.069250  -0.084345   0.009193   0.009683   5.452127
     7  C   -0.084345   0.009193   0.331931  -0.069250   0.009683   0.011569
     8  H    0.368784  -0.075554  -0.033721  -0.007549   0.009884  -0.076953
     9  H   -0.056562   0.382716   0.010256   0.009138  -0.040668   0.003188
    10  H   -0.035329   0.359482  -0.008230   0.005607  -0.055541  -0.011047
    11  H   -0.033721  -0.007549   0.368784  -0.075554   0.009884  -0.014988
    12  H    0.010256   0.009138  -0.056562   0.382716  -0.040668  -0.000518
    13  H   -0.008230   0.005607  -0.035329   0.359482  -0.055541  -0.001097
    14  H    0.006156  -0.054644   0.007808  -0.045693   0.382184  -0.000753
    15  H    0.007808  -0.045693   0.006156  -0.054644   0.382184  -0.000394
    16  H   -0.028828  -0.017762  -0.011823  -0.000538   0.000390   0.349907
    17  H   -0.051332   0.011048  -0.000456  -0.000429  -0.000918   0.359814
    18  H   -0.057433   0.000729   0.010048  -0.000950  -0.000105   0.369334
    19  H   -0.011823  -0.000538  -0.028828  -0.017762   0.000390  -0.001223
    20  H   -0.000456  -0.000429  -0.051332   0.011048  -0.000918  -0.000661
    21  H    0.010048  -0.000950  -0.057433   0.000729  -0.000105  -0.000499
               7          8          9         10         11         12
     1  C   -0.084345   0.368784  -0.056562  -0.035329  -0.033721   0.010256
     2  C    0.009193  -0.075554   0.382716   0.359482  -0.007549   0.009138
     3  C    0.331931  -0.033721   0.010256  -0.008230   0.368784  -0.056562
     4  C   -0.069250  -0.007549   0.009138   0.005607  -0.075554   0.382716
     5  C    0.009683   0.009884  -0.040668  -0.055541   0.009884  -0.040668
     6  C    0.011569  -0.076953   0.003188  -0.011047  -0.014988  -0.000518
     7  C    5.452127  -0.014988  -0.000518  -0.001097  -0.076953   0.003188
     8  H   -0.014988   0.563475  -0.008033   0.009863   0.012181  -0.001051
     9  H   -0.000518  -0.008033   0.504457  -0.035630  -0.001051   0.000053
    10  H   -0.001097   0.009863  -0.035630   0.564648   0.001271  -0.000942
    11  H   -0.076953   0.012181  -0.001051   0.001271   0.563475  -0.008033
    12  H    0.003188  -0.001051   0.000053  -0.000942  -0.008033   0.504457
    13  H   -0.011047   0.001271  -0.000942  -0.000356   0.009863  -0.035630
    14  H   -0.000394  -0.000517   0.002707  -0.010455   0.000274  -0.006601
    15  H   -0.000753   0.000274  -0.006601   0.006521  -0.000517   0.002707
    16  H   -0.001223   0.011463  -0.000491   0.005812   0.004608  -0.000010
    17  H   -0.000661  -0.005483  -0.000567   0.000318  -0.000133  -0.000020
    18  H   -0.000499  -0.006111   0.002404  -0.001477  -0.000325   0.000054
    19  H    0.349907   0.004608  -0.000010  -0.000074   0.011463  -0.000491
    20  H    0.359814  -0.000133  -0.000020  -0.000026  -0.005483  -0.000567
    21  H    0.369334  -0.000325   0.000054   0.000057  -0.006111   0.002404
              13         14         15         16         17         18
     1  C   -0.008230   0.006156   0.007808  -0.028828  -0.051332  -0.057433
     2  C    0.005607  -0.054644  -0.045693  -0.017762   0.011048   0.000729
     3  C   -0.035329   0.007808   0.006156  -0.011823  -0.000456   0.010048
     4  C    0.359482  -0.045693  -0.054644  -0.000538  -0.000429  -0.000950
     5  C   -0.055541   0.382184   0.382184   0.000390  -0.000918  -0.000105
     6  C   -0.001097  -0.000753  -0.000394   0.349907   0.359814   0.369334
     7  C   -0.011047  -0.000394  -0.000753  -0.001223  -0.000661  -0.000499
     8  H    0.001271  -0.000517   0.000274   0.011463  -0.005483  -0.006111
     9  H   -0.000942   0.002707  -0.006601  -0.000491  -0.000567   0.002404
    10  H   -0.000356  -0.010455   0.006521   0.005812   0.000318  -0.001477
    11  H    0.009863   0.000274  -0.000517   0.004608  -0.000133  -0.000325
    12  H   -0.035630  -0.006601   0.002707  -0.000010  -0.000020   0.000054
    13  H    0.564648   0.006521  -0.010455  -0.000074  -0.000026   0.000057
    14  H    0.006521   0.520116  -0.028297  -0.000029   0.000054  -0.000024
    15  H   -0.010455  -0.028297   0.520116   0.000009   0.000060  -0.000064
    16  H   -0.000074  -0.000029   0.000009   0.552317  -0.043190  -0.034974
    17  H   -0.000026   0.000054   0.000060  -0.043190   0.556453  -0.032327
    18  H    0.000057  -0.000024  -0.000064  -0.034974  -0.032327   0.543302
    19  H    0.005812   0.000009  -0.000029   0.000198  -0.000037  -0.000078
    20  H    0.000318   0.000060   0.000054  -0.000037  -0.000249  -0.000150
    21  H   -0.001477  -0.000064  -0.000024  -0.000078  -0.000150   0.000078
              19         20         21
     1  C   -0.011823  -0.000456   0.010048
     2  C   -0.000538  -0.000429  -0.000950
     3  C   -0.028828  -0.051332  -0.057433
     4  C   -0.017762   0.011048   0.000729
     5  C    0.000390  -0.000918  -0.000105
     6  C   -0.001223  -0.000661  -0.000499
     7  C    0.349907   0.359814   0.369334
     8  H    0.004608  -0.000133  -0.000325
     9  H   -0.000010  -0.000020   0.000054
    10  H   -0.000074  -0.000026   0.000057
    11  H    0.011463  -0.005483  -0.006111
    12  H   -0.000491  -0.000567   0.002404
    13  H    0.005812   0.000318  -0.001477
    14  H    0.000009   0.000060  -0.000064
    15  H   -0.000029   0.000054  -0.000024
    16  H    0.000198  -0.000037  -0.000078
    17  H   -0.000037  -0.000249  -0.000150
    18  H   -0.000078  -0.000150   0.000078
    19  H    0.552317  -0.043190  -0.034974
    20  H   -0.043190   0.556453  -0.032327
    21  H   -0.034974  -0.032327   0.543302
 Mulliken charges:
               1
     1  C   -0.213416
     2  C   -0.462145
     3  C   -0.213416
     4  C   -0.462145
     5  C   -0.466911
     6  C   -0.635016
     7  C   -0.635016
     8  H    0.248616
     9  H    0.236119
    10  H    0.206623
    11  H    0.248616
    12  H    0.236119
    13  H    0.206623
    14  H    0.221581
    15  H    0.221581
    16  H    0.214353
    17  H    0.208232
    18  H    0.208509
    19  H    0.214353
    20  H    0.208232
    21  H    0.208509
 Sum of Mulliken charges =  -0.00000
 Mulliken charges with hydrogens summed into heavy atoms:
               1
     1  C    0.035200
     2  C   -0.019403
     3  C    0.035200
     4  C   -0.019403
     5  C   -0.023750
     6  C   -0.003922
     7  C   -0.003922
 Electronic spatial extent (au):  <R**2>=            849.5298
 Charge=             -0.0000 electrons
 Dipole moment (field-independent basis, Debye):
    X=             -0.0000    Y=             -0.0000    Z=              0.0100  Tot=              0.0100
 Quadrupole moment (field-independent basis, Debye-Ang):
   XX=            -46.8482   YY=            -47.1196   ZZ=            -47.9209
   XY=              0.8356   XZ=             -0.0000   YZ=              0.0000
 Traceless Quadrupole moment (field-independent basis, Debye-Ang):
   XX=              0.4480   YY=              0.1766   ZZ=             -0.6247
   XY=              0.8356   XZ=             -0.0000   YZ=              0.0000
 Octapole moment (field-independent basis, Debye-Ang**2):
  XXX=             -0.0000  YYY=              0.0000  ZZZ=             -0.6969  XYY=              0.0000
  XXY=             -0.0000  XXZ=              1.1463  XZZ=             -0.0000  YZZ=              0.0000
  YYZ=              1.2785  XYZ=              0.3858
 Hexadecapole moment (field-independent basis, Debye-Ang**3):
 XXXX=           -186.1987 YYYY=           -421.8919 ZZZZ=           -584.1690 XXXY=             80.8669
 XXXZ=              0.0000 YYYX=             81.1599 YYYZ=              0.0000 ZZZX=             -0.0000
 ZZZY=             -0.0000 XXYY=           -108.6246 XXZZ=           -129.7071 YYZZ=           -172.5269
 XXYZ=              0.0000 YYXZ=             -0.0000 ZZXY=             31.0344
 N-N= 3.296014791106D+02 E-N=-1.295930129404D+03  KE= 2.738845909210D+02
 PrsmSu:  requested number of processors reduced to:  19 ShMem   1 Linda.
 No NMR shielding tensors so no spin-rotation constants.
 Leave Link  601 at Fri Apr 16 23:25:20 2021, MaxMem=   104857600 cpu:             650.4 elap:              14.1
 (Enter /s/ls4/users/knvvv/bin/g16sse/l801.exe)
 DoSCS=F DFT=T ScalE2(SS,OS)=  1.000000  1.000000
 Range of M.O.s used for correlation:     1   819
 NBasis=   819 NAE=    28 NBE=    28 NFC=     0 NFV=     0
 NROrb=    819 NOA=    28 NOB=    28 NVA=   791 NVB=   791

 **** Warning!!: The largest alpha MO coefficient is  0.41488005D+02

 Leave Link  801 at Fri Apr 16 23:25:20 2021, MaxMem=   104857600 cpu:               4.8 elap:               0.1
 (Enter /s/ls4/users/knvvv/bin/g16sse/l914.exe)
 RHF ground state
 Doing stability rather than CIS.
 Two-electron integrals replicated using symmetry.
 MDV=   104857600 DFT=T DoStab=T Mixed=T DoRPA=F DoScal=F NonHer=F
 Making orbital integer symmetry assigments:
 Orbital symmetries:
       Occupied  (A) (B) (A) (B) (A) (B) (A) (A) (A) (B) (B) (A)
                 (A) (B) (B) (A) (A) (B) (A) (B) (A) (B) (B) (A)
                 (B) (A) (B) (A)
       Virtual   (A) (B) (A) (B) (A) (B) (A) (B) (A) (A) (B) (B)
                 (A) (B) (A) (B) (A) (B) (B) (B) (A) (B) (A) (A)
                 (B) (A) (A) (A) (B) (B) (A) (A) (B) (B) (B) (B)
                 (A) (A) (A) (B) (A) (A) (B) (A) (B) (A) (B) (B)
                 (A) (A) (B) (B) (B) (B) (A) (A) (B) (A) (B) (A)
                 (B) (A) (A) (B) (B) (A) (A) (B) (B) (A) (A) (B)
                 (A) (B) (A) (B) (A) (A) (B) (B) (B) (A) (B) (A)
                 (A) (B) (A) (B) (A) (B) (B) (A) (B) (A) (B) (A)
                 (B) (A) (B) (B) (A) (B) (A) (A) (A) (B) (B) (A)
                 (A) (B) (B) (A) (B) (B) (B) (A) (A) (A) (A) (B)
                 (B) (A) (A) (A) (B) (A) (B) (B) (B) (A) (B) (B)
                 (A) (A) (B) (A) (B) (B) (A) (A) (B) (A) (B) (A)
                 (A) (B) (A) (B) (A) (A) (B) (A) (B) (B) (A) (B)
                 (B) (A) (B) (A) (B) (A) (B) (A) (B) (A) (B) (A)
                 (A) (B) (A) (B) (A) (B) (A) (B) (A) (B) (B) (B)
                 (A) (A) (B) (A) (A) (B) (A) (B) (A) (B) (A) (B)
                 (A) (B) (B) (A) (B) (A) (B) (A) (B) (A) (B) (B)
                 (A) (A) (B) (B) (A) (A) (B) (A) (A) (B) (A) (B)
                 (B) (A) (A) (B) (A) (B) (A) (B) (A) (B) (B) (A)
                 (B) (A) (A) (B) (B) (A) (A) (B) (B) (A) (B) (A)
                 (B) (A) (B) (A) (B) (A) (B) (A) (B) (A) (A) (B)
                 (B) (A) (A) (A) (A) (B) (B) (A) (B) (A) (B) (A)
                 (B) (A) (B) (A) (B) (B) (B) (A) (A) (B) (B) (A)
                 (B) (A) (B) (A) (B) (A) (B) (B) (A) (A) (B) (A)
                 (A) (B) (A) (B) (B) (A) (B) (A) (A) (B) (A) (A)
                 (B) (B) (B) (A) (A) (B) (A) (A) (B) (A) (B) (B)
                 (A) (A) (B) (A) (B) (A) (B) (A) (B) (B) (A) (A)
                 (B) (B) (A) (B) (A) (B) (B) (A) (A) (B) (B) (A)
                 (A) (B) (A) (B) (B) (A) (A) (B) (A) (B) (A) (B)
                 (B) (A) (B) (A) (B) (A) (A) (B) (B) (A) (A) (B)
                 (A) (B) (A) (B) (B) (A) (A) (B) (A) (B) (A) (A)
                 (B) (B) (A) (A) (B) (A) (B) (B) (B) (A) (A) (A)
                 (B) (B) (B) (A) (B) (A) (A) (B) (B) (A) (B) (B)
                 (A) (B) (A) (A) (A) (B) (B) (A) (B) (A) (B) (A)
                 (B) (A) (B) (A) (A) (B) (A) (B) (A) (B) (A) (A)
                 (B) (B) (A) (B) (A) (B) (B) (A) (A) (B) (B) (A)
                 (A) (B) (B) (A) (B) (A) (B) (A) (A) (B) (A) (B)
                 (B) (A) (A) (B) (B) (B) (A) (B) (A) (A) (B) (A)
                 (B) (A) (B) (A) (B) (A) (B) (B) (A) (B) (A) (A)
                 (A) (B) (B) (A) (B) (A) (B) (B) (A) (A) (B) (A)
                 (B) (B) (A) (A) (A) (B) (B) (A) (B) (A) (B) (A)
                 (A) (A) (A) (B) (B) (A) (A) (B) (B) (A) (B) (B)
                 (A) (A) (B) (A) (B) (A) (B) (B) (A) (B) (A) (A)
                 (B) (B) (A) (A) (B) (B) (A) (B) (B) (A) (B) (A)
                 (A) (A) (B) (A) (B) (B) (A) (B) (A) (A) (B) (A)
                 (B) (B) (A) (A) (B) (A) (B) (B) (B) (A) (B) (A)
                 (B) (A) (B) (A) (A) (B) (A) (A) (A) (B) (B) (B)
                 (A) (B) (A) (B) (A) (A) (B) (B) (A) (B) (A) (A)
                 (B) (B) (A) (A) (B) (A) (A) (A) (B) (B) (A) (B)
                 (B) (A) (B) (A) (A) (A) (A) (B) (B) (B) (A) (A)
                 (B) (B) (B) (A) (A) (B) (A) (B) (B) (A) (A) (B)
                 (A) (B) (A) (A) (B) (B) (A) (B) (B) (A) (B) (A)
                 (A) (A) (B) (B) (B) (A) (A) (B) (A) (A) (B) (A)
                 (B) (B) (B) (A) (B) (A) (B) (A) (B) (A) (A) (B)
                 (A) (A) (B) (A) (B) (B) (A) (A) (B) (A) (B) (A)
                 (B) (B) (A) (B) (B) (A) (A) (B) (B) (A) (B) (A)
                 (B) (A) (B) (B) (A) (B) (A) (B) (A) (B) (B) (A)
                 (A) (B) (A) (B) (A) (B) (A) (B) (A) (A) (B) (A)
                 (A) (B) (B) (A) (B) (A) (B) (B) (A) (A) (B) (A)
                 (B) (A) (A) (B) (B) (A) (B) (B) (A) (A) (B) (B)
                 (A) (B) (A) (A) (B) (A) (A) (B) (B) (B) (A) (B)
                 (A) (B) (B) (A) (A) (B) (B) (A) (B) (A) (A) (B)
                 (B) (A) (A) (A) (B) (A) (B) (A) (B) (A) (A) (B)
                 (B) (A) (B) (A) (B) (A) (B) (A) (B) (A) (B) (B)
                 (A) (B) (A) (B) (A) (B) (B) (A) (A) (B) (A) (A)
                 (A) (B) (B) (A) (B) (A) (A) (A) (B) (B) (A)
    24 initial guesses have been made.
 Convergence on wavefunction:    0.001000000000000
 Davidson Disk Diagonalization:  ConvIn= 1.00D-03 SkipCon=T Conv= 1.00D-03.
 Max sub-space:  2000 roots to seek:    24 dimension of matrix:        44296
 Iteration     1 Dimension    24 NMult     0 NNew     24
 Estimated number of processors is:   10
 CISAX will form     1 AO SS matrices at one time.
 NMat=     1 NSing=     1 JSym2X= 2.
 FoFJK:  IHMeth= 1 ICntrl=       0 DoSepK=F KAlg= 0 I1Cent=           0 FoldK=F
 IRaf= 930000000 NMat=       1 IRICut=       1 DoRegI=T DoRafI=F ISym2E= 2 IDoP0=0 IntGTp=1.
 FoFCou: FMM=F IPFlag=           0 FMFlag=      100000 FMFlg1=           0
         NFxFlg=           0 DoJE=F BraDBF=F KetDBF=F FulRan=T
         wScrn=  0.000000 ICntrl=         0 IOpCl=  0 I1Cent=           0 NGrid=           0
         NMat0=    1 NMatS0=      1 NMatT0=    0 NMatD0=    1 NMtDS0=    0 NMtDT0=    0
 Integrals replicated using symmetry in FoFCou.
 CoulSu:  requested number of processors reduced to:  16 ShMem   1 Linda.
 CalDSu:  requested number of processors reduced to:  32 ShMem   1 Linda.
 NMat=     1 NSing=     1 JSym2X= 2.
 CoulSu:  requested number of processors reduced to:  16 ShMem   1 Linda.
 CalDSu:  requested number of processors reduced to:  32 ShMem   1 Linda.
 NMat=     1 NSing=     1 JSym2X= 2.
 CoulSu:  requested number of processors reduced to:  16 ShMem   1 Linda.
 CalDSu:  requested number of processors reduced to:  32 ShMem   1 Linda.
 NMat=     1 NSing=     1 JSym2X= 2.
 CoulSu:  requested number of processors reduced to:  16 ShMem   1 Linda.
 CalDSu:  requested number of processors reduced to:  32 ShMem   1 Linda.
 NMat=     1 NSing=     1 JSym2X= 2.
 CoulSu:  requested number of processors reduced to:  16 ShMem   1 Linda.
 CalDSu:  requested number of processors reduced to:  32 ShMem   1 Linda.
 NMat=     1 NSing=     1 JSym2X= 2.
 CoulSu:  requested number of processors reduced to:  16 ShMem   1 Linda.
 CalDSu:  requested number of processors reduced to:  32 ShMem   1 Linda.
 NMat=     1 NSing=     1 JSym2X= 2.
 CoulSu:  requested number of processors reduced to:  16 ShMem   1 Linda.
 CalDSu:  requested number of processors reduced to:  32 ShMem   1 Linda.
 NMat=     1 NSing=     1 JSym2X= 2.
 CoulSu:  requested number of processors reduced to:  16 ShMem   1 Linda.
 CalDSu:  requested number of processors reduced to:  32 ShMem   1 Linda.
 NMat=     1 NSing=     1 JSym2X= 2.
 CoulSu:  requested number of processors reduced to:  16 ShMem   1 Linda.
 CalDSu:  requested number of processors reduced to:  32 ShMem   1 Linda.
 NMat=     1 NSing=     1 JSym2X= 2.
 CoulSu:  requested number of processors reduced to:  16 ShMem   1 Linda.
 CalDSu:  requested number of processors reduced to:  32 ShMem   1 Linda.
 NMat=     1 NSing=     1 JSym2X= 2.
 CoulSu:  requested number of processors reduced to:  16 ShMem   1 Linda.
 CalDSu:  requested number of processors reduced to:  32 ShMem   1 Linda.
 NMat=     1 NSing=     1 JSym2X= 2.
 CoulSu:  requested number of processors reduced to:  16 ShMem   1 Linda.
 CalDSu:  requested number of processors reduced to:  32 ShMem   1 Linda.
 NMat=     1 NSing=     0 JSym2X= 2.
 CoulSu:  requested number of processors reduced to:  16 ShMem   1 Linda.
 CalDSu:  requested number of processors reduced to:  32 ShMem   1 Linda.
 NMat=     1 NSing=     0 JSym2X= 2.
 CoulSu:  requested number of processors reduced to:  16 ShMem   1 Linda.
 CalDSu:  requested number of processors reduced to:  32 ShMem   1 Linda.
 NMat=     1 NSing=     0 JSym2X= 2.
 CoulSu:  requested number of processors reduced to:  16 ShMem   1 Linda.
 CalDSu:  requested number of processors reduced to:  32 ShMem   1 Linda.
 NMat=     1 NSing=     0 JSym2X= 2.
 CoulSu:  requested number of processors reduced to:  16 ShMem   1 Linda.
 CalDSu:  requested number of processors reduced to:  32 ShMem   1 Linda.
 NMat=     1 NSing=     0 JSym2X= 2.
 CoulSu:  requested number of processors reduced to:  16 ShMem   1 Linda.
 CalDSu:  requested number of processors reduced to:  32 ShMem   1 Linda.
 NMat=     1 NSing=     0 JSym2X= 2.
 CoulSu:  requested number of processors reduced to:  16 ShMem   1 Linda.
 CalDSu:  requested number of processors reduced to:  32 ShMem   1 Linda.
 NMat=     1 NSing=     0 JSym2X= 2.
 CoulSu:  requested number of processors reduced to:  16 ShMem   1 Linda.
 CalDSu:  requested number of processors reduced to:  32 ShMem   1 Linda.
 NMat=     1 NSing=     0 JSym2X= 2.
 CoulSu:  requested number of processors reduced to:  16 ShMem   1 Linda.
 CalDSu:  requested number of processors reduced to:  32 ShMem   1 Linda.
 NMat=     1 NSing=     0 JSym2X= 2.
 CoulSu:  requested number of processors reduced to:  16 ShMem   1 Linda.
 CalDSu:  requested number of processors reduced to:  32 ShMem   1 Linda.
 NMat=     1 NSing=     0 JSym2X= 2.
 CoulSu:  requested number of processors reduced to:  16 ShMem   1 Linda.
 CalDSu:  requested number of processors reduced to:  32 ShMem   1 Linda.
 NMat=     1 NSing=     0 JSym2X= 2.
 CoulSu:  requested number of processors reduced to:  16 ShMem   1 Linda.
 CalDSu:  requested number of processors reduced to:  32 ShMem   1 Linda.
 NMat=     1 NSing=     0 JSym2X= 2.
 CoulSu:  requested number of processors reduced to:  16 ShMem   1 Linda.
 CalDSu:  requested number of processors reduced to:  32 ShMem   1 Linda.
 New state      1 was old state      2
 Excitation Energies [eV] at current iteration:
 Root      1 :     8.714664790818610
 Root      2 :     8.771491666169506
 Root      3 :     8.841257835865836
 Root      4 :     8.874287270175376
 Root      5 :     8.886594256863747
 Root      6 :     8.942777224040485
 Root      7 :     9.068676178620594
 Root      8 :     9.141121410503327
 Root      9 :     9.142569080550620
 Root     10 :     9.149896140541641
 Root     11 :     9.173677382644470
 Root     12 :     9.195131454662457
 Root     13 :     9.264866151928777
 Root     14 :     9.308971982926669
 Root     15 :     9.365410115966069
 Root     16 :     9.441842139033986
 Root     17 :     9.535923333496953
 Root     18 :     9.550753005010932
 Root     19 :     9.563502749315433
 Root     20 :     9.565543243861212
 Root     21 :     9.609378992120931
 Root     22 :     9.639463166108651
 Root     23 :     9.645228397162684
 Root     24 :     9.650750937457595
 Iteration     2 Dimension    48 NMult    24 NNew     24
 Estimated number of processors is:   10
 CISAX will form     1 AO SS matrices at one time.
 NMat=     1 NSing=     1 JSym2X= 2.
 CoulSu:  requested number of processors reduced to:  16 ShMem   1 Linda.
 CalDSu:  requested number of processors reduced to:  32 ShMem   1 Linda.
 NMat=     1 NSing=     1 JSym2X= 2.
 CoulSu:  requested number of processors reduced to:  16 ShMem   1 Linda.
 CalDSu:  requested number of processors reduced to:  32 ShMem   1 Linda.
 NMat=     1 NSing=     1 JSym2X= 2.
 CoulSu:  requested number of processors reduced to:  16 ShMem   1 Linda.
 CalDSu:  requested number of processors reduced to:  32 ShMem   1 Linda.
 NMat=     1 NSing=     1 JSym2X= 2.
 CoulSu:  requested number of processors reduced to:  16 ShMem   1 Linda.
 CalDSu:  requested number of processors reduced to:  32 ShMem   1 Linda.
 NMat=     1 NSing=     1 JSym2X= 2.
 CoulSu:  requested number of processors reduced to:  16 ShMem   1 Linda.
 CalDSu:  requested number of processors reduced to:  32 ShMem   1 Linda.
 NMat=     1 NSing=     1 JSym2X= 2.
 CoulSu:  requested number of processors reduced to:  16 ShMem   1 Linda.
 CalDSu:  requested number of processors reduced to:  32 ShMem   1 Linda.
 NMat=     1 NSing=     1 JSym2X= 2.
 CoulSu:  requested number of processors reduced to:  16 ShMem   1 Linda.
 CalDSu:  requested number of processors reduced to:  32 ShMem   1 Linda.
 NMat=     1 NSing=     1 JSym2X= 2.
 CoulSu:  requested number of processors reduced to:  16 ShMem   1 Linda.
 CalDSu:  requested number of processors reduced to:  32 ShMem   1 Linda.
 NMat=     1 NSing=     1 JSym2X= 2.
 CoulSu:  requested number of processors reduced to:  16 ShMem   1 Linda.
 CalDSu:  requested number of processors reduced to:  32 ShMem   1 Linda.
 NMat=     1 NSing=     1 JSym2X= 2.
 CoulSu:  requested number of processors reduced to:  16 ShMem   1 Linda.
 CalDSu:  requested number of processors reduced to:  32 ShMem   1 Linda.
 NMat=     1 NSing=     1 JSym2X= 2.
 CoulSu:  requested number of processors reduced to:  16 ShMem   1 Linda.
 CalDSu:  requested number of processors reduced to:  32 ShMem   1 Linda.
 NMat=     1 NSing=     1 JSym2X= 2.
 CoulSu:  requested number of processors reduced to:  16 ShMem   1 Linda.
 CalDSu:  requested number of processors reduced to:  32 ShMem   1 Linda.
 NMat=     1 NSing=     0 JSym2X= 2.
 CoulSu:  requested number of processors reduced to:  16 ShMem   1 Linda.
 CalDSu:  requested number of processors reduced to:  32 ShMem   1 Linda.
 NMat=     1 NSing=     0 JSym2X= 2.
 CoulSu:  requested number of processors reduced to:  16 ShMem   1 Linda.
 CalDSu:  requested number of processors reduced to:  32 ShMem   1 Linda.
 NMat=     1 NSing=     0 JSym2X= 2.
 CoulSu:  requested number of processors reduced to:  16 ShMem   1 Linda.
 CalDSu:  requested number of processors reduced to:  32 ShMem   1 Linda.
 NMat=     1 NSing=     0 JSym2X= 2.
 CoulSu:  requested number of processors reduced to:  16 ShMem   1 Linda.
 CalDSu:  requested number of processors reduced to:  32 ShMem   1 Linda.
 NMat=     1 NSing=     0 JSym2X= 2.
 CoulSu:  requested number of processors reduced to:  16 ShMem   1 Linda.
 CalDSu:  requested number of processors reduced to:  32 ShMem   1 Linda.
 NMat=     1 NSing=     0 JSym2X= 2.
 CoulSu:  requested number of processors reduced to:  16 ShMem   1 Linda.
 CalDSu:  requested number of processors reduced to:  32 ShMem   1 Linda.
 NMat=     1 NSing=     0 JSym2X= 2.
 CoulSu:  requested number of processors reduced to:  16 ShMem   1 Linda.
 CalDSu:  requested number of processors reduced to:  32 ShMem   1 Linda.
 NMat=     1 NSing=     0 JSym2X= 2.
 CoulSu:  requested number of processors reduced to:  16 ShMem   1 Linda.
 CalDSu:  requested number of processors reduced to:  32 ShMem   1 Linda.
 NMat=     1 NSing=     0 JSym2X= 2.
 CoulSu:  requested number of processors reduced to:  16 ShMem   1 Linda.
 CalDSu:  requested number of processors reduced to:  32 ShMem   1 Linda.
 NMat=     1 NSing=     0 JSym2X= 2.
 CoulSu:  requested number of processors reduced to:  16 ShMem   1 Linda.
 CalDSu:  requested number of processors reduced to:  32 ShMem   1 Linda.
 NMat=     1 NSing=     0 JSym2X= 2.
 CoulSu:  requested number of processors reduced to:  16 ShMem   1 Linda.
 CalDSu:  requested number of processors reduced to:  32 ShMem   1 Linda.
 NMat=     1 NSing=     0 JSym2X= 2.
 CoulSu:  requested number of processors reduced to:  16 ShMem   1 Linda.
 CalDSu:  requested number of processors reduced to:  32 ShMem   1 Linda.
 Root      1 not converged, maximum delta is    0.108838388934554
 Excitation Energies [eV] at current iteration:
 Root      1 :     8.432658049699876   Change is   -0.282006741118732
 Root      2 :     8.438476946984311   Change is   -0.435810323191065
 Root      3 :     8.634067642262638   Change is   -0.137424023906867
[...]
 Alpha virt. eigenvalues --    2.04901   2.05775   2.06835   2.07044   2.08075
 Alpha virt. eigenvalues --    2.08955   2.09031   2.10633   2.12151   2.12368
 Alpha virt. eigenvalues --    2.13536   2.13797   2.14199   2.15429   2.16582
 Alpha virt. eigenvalues --    2.17276   2.17698   2.18438   2.18674   2.20035
 Alpha virt. eigenvalues --    2.20653   2.21974   2.22368   2.22958   2.23333
 Alpha virt. eigenvalues --    2.25486   2.25557   2.27845   2.28177   2.29978
 Alpha virt. eigenvalues --    2.30099   2.30843   2.32266   2.33078   2.33886
 Alpha virt. eigenvalues --    2.34476   2.36611   2.37162   2.37668   2.39218
 Alpha virt. eigenvalues --    2.42374   2.42600   2.43681   2.44003   2.45619
 Alpha virt. eigenvalues --    2.46023   2.46274   2.46977   2.48498   2.49406
 Alpha virt. eigenvalues --    2.49541   2.50142   2.52436   2.53767   2.54232
 Alpha virt. eigenvalues --    2.55619   2.56729   2.56925   2.58223   2.59581
 Alpha virt. eigenvalues --    2.61630   2.62625   2.62974   2.63471   2.64663
 Alpha virt. eigenvalues --    2.65508   2.66063   2.68784   2.69316   2.70725
 Alpha virt. eigenvalues --    2.71520   2.71671   2.72316   2.73109   2.76333
 Alpha virt. eigenvalues --    2.78367   2.78487   2.79480   2.81270   2.83205
 Alpha virt. eigenvalues --    2.83864   2.84239   2.85597   2.86620   2.86945
 Alpha virt. eigenvalues --    2.88080   2.88979   2.89279   2.91514   2.92326
 Alpha virt. eigenvalues --    2.92453   2.94297   2.94564   2.95398   2.96600
 Alpha virt. eigenvalues --    2.97113   2.97402   2.98886   2.99177   3.01029
 Alpha virt. eigenvalues --    3.01786   3.01966   3.02495   3.05433   3.05694
 Alpha virt. eigenvalues --    3.05777   3.06524   3.08393   3.09410   3.10208
 Alpha virt. eigenvalues --    3.11092   3.12204   3.15345   3.15389   3.17325
 Alpha virt. eigenvalues --    3.19015   3.19485   3.20554   3.20862   3.21808
 Alpha virt. eigenvalues --    3.22635   3.24669   3.26810   3.27800   3.29364
 Alpha virt. eigenvalues --    3.29758   3.30541   3.31209   3.33150   3.33540
 Alpha virt. eigenvalues --    3.35910   3.36098   3.39959   3.40273   3.40804
 Alpha virt. eigenvalues --    3.42477   3.44387   3.46254   3.46330   3.48671
 Alpha virt. eigenvalues --    3.48743   3.51677   3.52394   3.52750   3.54946
 Alpha virt. eigenvalues --    3.58411   3.60026   3.60598   3.60615   3.64545
 Alpha virt. eigenvalues --    3.64803   3.65934   3.68336   3.70153   3.71520
 Alpha virt. eigenvalues --    3.73353   3.74502   3.75204   3.75530   3.77208
 Alpha virt. eigenvalues --    3.78236   3.80283   3.80408   3.82877   3.85084
 Alpha virt. eigenvalues --    3.85956   3.86634   3.87224   3.88406   3.88972
 Alpha virt. eigenvalues --    3.89653   3.92078   3.92745   3.93638   3.94725
 Alpha virt. eigenvalues --    3.95736   3.97334   4.00068   4.01785   4.02224
 Alpha virt. eigenvalues --    4.05304   4.06884   4.07406   4.08556   4.20590
 Alpha virt. eigenvalues --    4.22526   4.23972   4.26338   4.30316   4.32444
 Alpha virt. eigenvalues --    4.33153   4.34034   4.39593   4.46140   4.47637
 Alpha virt. eigenvalues --    4.52076   4.64989   4.73594   4.76316   4.78087
 Alpha virt. eigenvalues --    4.81313   4.81981   4.82841   4.83150   4.86878
 Alpha virt. eigenvalues --    4.98606   4.99568   5.01403   5.08812   5.09522
 Alpha virt. eigenvalues --    5.12203   5.14088   5.15706   5.16730   5.23899
 Alpha virt. eigenvalues --    5.24886   5.29146   5.36210   5.38840   5.41374
 Alpha virt. eigenvalues --    5.42331   5.44875   5.46761   5.46918   5.47941
 Alpha virt. eigenvalues --    5.48662   5.53016   5.53251   5.56000   5.56066
 Alpha virt. eigenvalues --    5.57415   5.60243   5.63840   5.64045   5.65274
 Alpha virt. eigenvalues --    5.69817   5.70125   5.70566   5.72619   5.73526
 Alpha virt. eigenvalues --    5.73624   5.75970   5.76225   5.77886   5.78625
 Alpha virt. eigenvalues --    5.79361   5.79491   5.80802   5.80995   5.81178
 Alpha virt. eigenvalues --    5.83172   5.84191   5.84389   5.85842   5.88044
 Alpha virt. eigenvalues --    5.88294   5.90473   5.90803   5.91947   5.92211
 Alpha virt. eigenvalues --    5.93143   5.95272   5.97127   5.97653   5.98528
 Alpha virt. eigenvalues --    5.98806   5.99284   6.00105   6.01678   6.03637
 Alpha virt. eigenvalues --    6.04228   6.05841   6.06274   6.07156   6.07214
 Alpha virt. eigenvalues --    6.08946   6.09856   6.09903   6.12213   6.13977
 Alpha virt. eigenvalues --    6.14948   6.15736   6.16040   6.17220   6.18091
 Alpha virt. eigenvalues --    6.19636   6.20782   6.21770   6.22440   6.24104
 Alpha virt. eigenvalues --    6.24695   6.25511   6.26603   6.27020   6.27529
 Alpha virt. eigenvalues --    6.28292   6.30035   6.32261   6.32597   6.33421
 Alpha virt. eigenvalues --    6.34421   6.36044   6.37298   6.37745   6.37761
 Alpha virt. eigenvalues --    6.38872   6.39049   6.41278   6.42197   6.42813
 Alpha virt. eigenvalues --    6.45099   6.46315   6.46568   6.48630   6.48823
 Alpha virt. eigenvalues --    6.51050   6.52068   6.52204   6.52584   6.53571
 Alpha virt. eigenvalues --    6.57553   6.58491   6.60243   6.60878   6.60952
 Alpha virt. eigenvalues --    6.62635   6.65346   6.66342   6.68600   6.70251
 Alpha virt. eigenvalues --    6.70528   6.71349   6.71977   6.73098   6.75109
 Alpha virt. eigenvalues --    6.75966   6.79002   6.79532   6.80182   6.80765
 Alpha virt. eigenvalues --    6.82914   6.83981   6.86910   6.89042   6.90378
 Alpha virt. eigenvalues --    6.91574   6.92709   6.93574   6.94705   6.97718
 Alpha virt. eigenvalues --    6.98680   6.99952   7.02616   7.03698   7.04699
 Alpha virt. eigenvalues --    7.05854   7.07130   7.08324   7.11383   7.12568
 Alpha virt. eigenvalues --    7.13754   7.15993   7.16439   7.16459   7.20335
 Alpha virt. eigenvalues --    7.22417   7.24510   7.26669   7.28275   7.28604
 Alpha virt. eigenvalues --    7.30675   7.30849   7.32316   7.34094   7.35396
 Alpha virt. eigenvalues --    7.35804   7.37114   7.37896   7.38750   7.39708
 Alpha virt. eigenvalues --    7.40048   7.42503   7.42849   7.44332   7.44932
 Alpha virt. eigenvalues --    7.45262   7.46281   7.47544   7.48095   7.49056
 Alpha virt. eigenvalues --    7.49573   7.50523   7.52460   7.53282   7.53649
 Alpha virt. eigenvalues --    7.54907   7.55996   7.56606   7.57762   7.58270
 Alpha virt. eigenvalues --    7.58631   7.59862   7.61588   7.62792   7.64388
 Alpha virt. eigenvalues --    7.64624   7.65966   7.67754   7.68839   7.70140
 Alpha virt. eigenvalues --    7.71309   7.71799   7.71951   7.75798   7.75908
 Alpha virt. eigenvalues --    7.78350   7.79687   7.79989   7.81729   7.81917
 Alpha virt. eigenvalues --    7.83584   7.85301   7.86173   7.87195   7.88138
 Alpha virt. eigenvalues --    7.89245   7.89403   7.90704   7.92370   7.92878
 Alpha virt. eigenvalues --    7.93325   7.94698   7.96210   7.98430   7.99009
 Alpha virt. eigenvalues --    8.01061   8.01343   8.04838   8.06010   8.06828
 Alpha virt. eigenvalues --    8.09649   8.10116   8.11416   8.12413   8.14856
 Alpha virt. eigenvalues --    8.16759   8.16960   8.17513   8.18972   8.20135
 Alpha virt. eigenvalues --    8.20448   8.23547   8.24972   8.25429   8.26878
 Alpha virt. eigenvalues --    8.27186   8.29433   8.30136   8.31877   8.32347
 Alpha virt. eigenvalues --    8.32823   8.33323   8.36191   8.36871   8.37507
 Alpha virt. eigenvalues --    8.38325   8.39916   8.40887   8.41753   8.43056
 Alpha virt. eigenvalues --    8.43445   8.45010   8.45719   8.45975   8.46075
 Alpha virt. eigenvalues --    8.47163   8.48194   8.52021   8.53094   8.53340
 Alpha virt. eigenvalues --    8.53704   8.54149   8.58880   8.60343   8.60540
 Alpha virt. eigenvalues --    8.61344   8.63694   8.66545   8.68890   8.70779
 Alpha virt. eigenvalues --    8.71578   8.72137   8.72762   8.75693   8.77556
 Alpha virt. eigenvalues --    8.78201   8.80610   8.80786   8.81611   8.82296
 Alpha virt. eigenvalues --    8.83204   8.84233   8.84343   8.86995   8.88398
 Alpha virt. eigenvalues --    8.88963   8.90351   8.91317   8.94197   8.95615
 Alpha virt. eigenvalues --    8.99623   9.00303   9.01383   9.05196   9.05960
 Alpha virt. eigenvalues --    9.07976   9.09727   9.11823   9.24200   9.31801
 Alpha virt. eigenvalues --    9.38003   9.38151   9.39447   9.41021   9.48342
 Alpha virt. eigenvalues --    9.57372   9.58328   9.58648   9.60065   9.60735
 Alpha virt. eigenvalues --    9.62649   9.62843   9.63143   9.65855   9.67571
 Alpha virt. eigenvalues --    9.69061   9.69305   9.69416   9.70425   9.72177
 Alpha virt. eigenvalues --    9.73444   9.75533   9.77501   9.81401   9.83326
 Alpha virt. eigenvalues --    9.85577   9.88862   9.89760   9.90744   9.93366
 Alpha virt. eigenvalues --    9.93629  10.01269  10.02923  10.03378  10.05293
 Alpha virt. eigenvalues --   10.08920  10.10077  10.12610  10.13196  10.17197
 Alpha virt. eigenvalues --   10.18049  10.18459  10.21311  10.24508  10.35503
 Alpha virt. eigenvalues --   10.38344  10.38460  10.39476  11.87703  11.92555
 Alpha virt. eigenvalues --   11.98731  12.05735  12.06740  12.19140  12.31116
 Alpha virt. eigenvalues --   12.78726  12.88844  12.95459  13.05139  13.14533
 Alpha virt. eigenvalues --   13.16347  13.20986  29.04019  29.07103  29.09957
 Alpha virt. eigenvalues --   29.18068  29.24160  29.25412  29.26775 146.55774
 Alpha virt. eigenvalues --  146.60131 146.62818 146.69949 146.76179 146.79546
 Alpha virt. eigenvalues --  146.80497
          Condensed to atoms (all electrons):
               1          2          3          4          5          6
     1  C    5.458610   0.298160   0.284244  -0.125698  -0.068825   0.331931
     2  C    0.298160   5.530123  -0.125698  -0.025923   0.279939  -0.069250
     3  C    0.284244  -0.125698   5.458610   0.298160  -0.068825  -0.084345
     4  C   -0.125698  -0.025923   0.298160   5.530123   0.279939   0.009193
     5  C   -0.068825   0.279939  -0.068825   0.279939   5.434866   0.009683
     6  C    0.331931  -0.069250  -0.084345   0.009193   0.009683   5.452127
     7  C   -0.084345   0.009193   0.331931  -0.069250   0.009683   0.011569
     8  H    0.368784  -0.075554  -0.033721  -0.007549   0.009884  -0.076953
     9  H   -0.056562   0.382716   0.010256   0.009138  -0.040668   0.003188
    10  H   -0.035329   0.359482  -0.008230   0.005607  -0.055541  -0.011047
    11  H   -0.033721  -0.007549   0.368784  -0.075554   0.009884  -0.014988
    12  H    0.010256   0.009138  -0.056562   0.382716  -0.040668  -0.000518
    13  H   -0.008230   0.005607  -0.035329   0.359482  -0.055541  -0.001097
    14  H    0.006156  -0.054644   0.007808  -0.045693   0.382184  -0.000753
    15  H    0.007808  -0.045693   0.006156  -0.054644   0.382184  -0.000394
    16  H   -0.028828  -0.017762  -0.011823  -0.000538   0.000390   0.349907
    17  H   -0.051332   0.011048  -0.000456  -0.000429  -0.000918   0.359814
    18  H   -0.057433   0.000729   0.010048  -0.000950  -0.000105   0.369334
    19  H   -0.011823  -0.000538  -0.028828  -0.017762   0.000390  -0.001223
    20  H   -0.000456  -0.000429  -0.051332   0.011048  -0.000918  -0.000661
    21  H    0.010048  -0.000950  -0.057433   0.000729  -0.000105  -0.000499
               7          8          9         10         11         12
     1  C   -0.084345   0.368784  -0.056562  -0.035329  -0.033721   0.010256
     2  C    0.009193  -0.075554   0.382716   0.359482  -0.007549   0.009138
     3  C    0.331931  -0.033721   0.010256  -0.008230   0.368784  -0.056562
     4  C   -0.069250  -0.007549   0.009138   0.005607  -0.075554   0.382716
     5  C    0.009683   0.009884  -0.040668  -0.055541   0.009884  -0.040668
     6  C    0.011569  -0.076953   0.003188  -0.011047  -0.014988  -0.000518
     7  C    5.452127  -0.014988  -0.000518  -0.001097  -0.076953   0.003188
     8  H   -0.014988   0.563475  -0.008033   0.009863   0.012181  -0.001051
     9  H   -0.000518  -0.008033   0.504457  -0.035630  -0.001051   0.000053
    10  H   -0.001097   0.009863  -0.035630   0.564648   0.001271  -0.000942
    11  H   -0.076953   0.012181  -0.001051   0.001271   0.563475  -0.008033
    12  H    0.003188  -0.001051   0.000053  -0.000942  -0.008033   0.504457
    13  H   -0.011047   0.001271  -0.000942  -0.000356   0.009863  -0.035630
    14  H   -0.000394  -0.000517   0.002707  -0.010455   0.000274  -0.006601
    15  H   -0.000753   0.000274  -0.006601   0.006521  -0.000517   0.002707
    16  H   -0.001223   0.011463  -0.000491   0.005812   0.004608  -0.000010
    17  H   -0.000661  -0.005483  -0.000567   0.000318  -0.000133  -0.000020
    18  H   -0.000499  -0.006111   0.002404  -0.001477  -0.000325   0.000054
    19  H    0.349907   0.004608  -0.000010  -0.000074   0.011463  -0.000491
    20  H    0.359814  -0.000133  -0.000020  -0.000026  -0.005483  -0.000567
    21  H    0.369334  -0.000325   0.000054   0.000057  -0.006111   0.002404
              13         14         15         16         17         18
     1  C   -0.008230   0.006156   0.007808  -0.028828  -0.051332  -0.057433
     2  C    0.005607  -0.054644  -0.045693  -0.017762   0.011048   0.000729
     3  C   -0.035329   0.007808   0.006156  -0.011823  -0.000456   0.010048
     4  C    0.359482  -0.045693  -0.054644  -0.000538  -0.000429  -0.000950
     5  C   -0.055541   0.382184   0.382184   0.000390  -0.000918  -0.000105
     6  C   -0.001097  -0.000753  -0.000394   0.349907   0.359814   0.369334
     7  C   -0.011047  -0.000394  -0.000753  -0.001223  -0.000661  -0.000499
     8  H    0.001271  -0.000517   0.000274   0.011463  -0.005483  -0.006111
     9  H   -0.000942   0.002707  -0.006601  -0.000491  -0.000567   0.002404
    10  H   -0.000356  -0.010455   0.006521   0.005812   0.000318  -0.001477
    11  H    0.009863   0.000274  -0.000517   0.004608  -0.000133  -0.000325
    12  H   -0.035630  -0.006601   0.002707  -0.000010  -0.000020   0.000054
    13  H    0.564648   0.006521  -0.010455  -0.000074  -0.000026   0.000057
    14  H    0.006521   0.520116  -0.028297  -0.000029   0.000054  -0.000024
    15  H   -0.010455  -0.028297   0.520116   0.000009   0.000060  -0.000064
    16  H   -0.000074  -0.000029   0.000009   0.552317  -0.043190  -0.034974
    17  H   -0.000026   0.000054   0.000060  -0.043190   0.556453  -0.032327
    18  H    0.000057  -0.000024  -0.000064  -0.034974  -0.032327   0.543302
    19  H    0.005812   0.000009  -0.000029   0.000198  -0.000037  -0.000078
    20  H    0.000318   0.000060   0.000054  -0.000037  -0.000249  -0.000150
    21  H   -0.001477  -0.000064  -0.000024  -0.000078  -0.000150   0.000078
              19         20         21
     1  C   -0.011823  -0.000456   0.010048
     2  C   -0.000538  -0.000429  -0.000950
     3  C   -0.028828  -0.051332  -0.057433
     4  C   -0.017762   0.011048   0.000729
     5  C    0.000390  -0.000918  -0.000105
     6  C   -0.001223  -0.000661  -0.000499
     7  C    0.349907   0.359814   0.369334
     8  H    0.004608  -0.000133  -0.000325
     9  H   -0.000010  -0.000020   0.000054
    10  H   -0.000074  -0.000026   0.000057
    11  H    0.011463  -0.005483  -0.006111
    12  H   -0.000491  -0.000567   0.002404
    13  H    0.005812   0.000318  -0.001477
    14  H    0.000009   0.000060  -0.000064
    15  H   -0.000029   0.000054  -0.000024
    16  H    0.000198  -0.000037  -0.000078
    17  H   -0.000037  -0.000249  -0.000150
    18  H   -0.000078  -0.000150   0.000078
    19  H    0.552317  -0.043190  -0.034974
    20  H   -0.043190   0.556453  -0.032327
    21  H   -0.034974  -0.032327   0.543302
 Mulliken charges:
               1
     1  C   -0.213416
     2  C   -0.462145
     3  C   -0.213416
     4  C   -0.462145
     5  C   -0.466911
     6  C   -0.635016
     7  C   -0.635016
     8  H    0.248616
     9  H    0.236119
    10  H    0.206623
    11  H    0.248616
    12  H    0.236119
    13  H    0.206623
    14  H    0.221581
    15  H    0.221581
    16  H    0.214353
    17  H    0.208232
    18  H    0.208509
    19  H    0.214353
    20  H    0.208232
    21  H    0.208509
 Sum of Mulliken charges =  -0.00000
 Mulliken charges with hydrogens summed into heavy atoms:
               1
     1  C    0.035200
     2  C   -0.019403
     3  C    0.035200
     4  C   -0.019403
     5  C   -0.023750
     6  C   -0.003922
     7  C   -0.003922
 Electronic spatial extent (au):  <R**2>=            849.5298
 Charge=             -0.0000 electrons
 Dipole moment (field-independent basis, Debye):
    X=             -0.0000    Y=             -0.0000    Z=              0.0100  Tot=              0.0100
 Quadrupole moment (field-independent basis, Debye-Ang):
   XX=            -46.8482   YY=            -47.1196   ZZ=            -47.9209
   XY=              0.8356   XZ=             -0.0000   YZ=              0.0000
 Traceless Quadrupole moment (field-independent basis, Debye-Ang):
   XX=              0.4480   YY=              0.1766   ZZ=             -0.6247
   XY=              0.8356   XZ=             -0.0000   YZ=              0.0000
 Octapole moment (field-independent basis, Debye-Ang**2):
  XXX=             -0.0000  YYY=              0.0000  ZZZ=             -0.6969  XYY=              0.0000
  XXY=             -0.0000  XXZ=              1.1463  XZZ=             -0.0000  YZZ=              0.0000
  YYZ=              1.2785  XYZ=              0.3858
 Hexadecapole moment (field-independent basis, Debye-Ang**3):
 XXXX=           -186.1987 YYYY=           -421.8919 ZZZZ=           -584.1690 XXXY=             80.8669
 XXXZ=              0.0000 YYYX=             81.1599 YYYZ=              0.0000 ZZZX=             -0.0000
 ZZZY=             -0.0000 XXYY=           -108.6246 XXZZ=           -129.7071 YYZZ=           -172.5269
 XXYZ=              0.0000 YYXZ=             -0.0000 ZZXY=             31.0344
 N-N= 3.296014791106D+02 E-N=-1.295930129404D+03  KE= 2.738845909210D+02
 PrsmSu:  requested number of processors reduced to:  19 ShMem   1 Linda.
 No NMR shielding tensors so no spin-rotation constants.
 Leave Link  601 at Sat Apr 17 03:15:53 2021, MaxMem=   104857600 cpu:             700.8 elap:              15.3
 (Enter /s/ls4/users/knvvv/bin/g16sse/l9999.exe)

 Test job not archived.
 1\1\GINC-N151\Stability\RM062X\def2QZVP\C7H14\KNVVV\17-Apr-2021\0\\#P 
 M062X/Def2QZVP Integral=UltraFineGrid SCF=NoSymm Stable=(RExt, Opt) IO
 p(1/33=1)\\Database calculations.\\0,1\C,0,-0.7243929173,-0.2462552956
 ,-0.2947386551\C,0,-0.8546775636,-0.8822778333,1.0909723596\C,0,0.7243
 929173,0.2462552956,-0.2947386551\C,0,0.8546775636,0.8822778333,1.0909
 723596\C,0,0.,0.,2.0277250061\C,0,-1.0792516965,-1.1833923886,-1.43493
 9519\C,0,1.0792516965,1.1833923886,-1.434939519\H,0,-1.3684057911,0.64
 06600853,-0.3378494065\H,0,-1.8902805432,-0.9706537493,1.4174728112\H,
 0,-0.4434132397,-1.8934533896,1.0454259884\H,0,1.3684057911,-0.6406600
 853,-0.3378494065\H,0,1.8902805432,0.9706537493,1.4174728112\H,0,0.443
 4132397,1.8934533896,1.0454259884\H,0,0.6245276889,-0.6118856141,2.676
 1869883\H,0,-0.6245276889,0.6118856141,2.6761869883\H,0,-0.4192310135,
 -2.0527376667,-1.4246059464\H,0,-0.980443587,-0.6960747525,-2.40454947
 46\H,0,-2.1048133568,-1.5421698004,-1.3472376488\H,0,0.4192310135,2.05
 27376667,-1.4246059464\H,0,0.980443587,0.6960747525,-2.4045494746\H,0,
 2.1048133568,1.5421698004,-1.3472376488\\Version=ES64L-G16RevA.03\Stat
 e=1-A\HF=-275.1699126\RMSD=3.799e-09\Dipole=0.,0.,0.0039372\Quadrupole
 =0.5308706,-0.0664341,-0.4644365,-0.5540304,0.,0.\PG=C02 [C2(C1),X(C6H
 14)]\\@


 When I told the people of Northern Ireland that I was
 an atheist, a woman in the audience stood up and said,
 "Yes, but is it the God of the Catholics or the God
 of the Protestants in whom you don't believe?"
                               -- Quentin Crisp
 Job cpu time:       4 days 11 hours 48 minutes 31.6 seconds.
 Elapsed time:       0 days  4 hours  2 minutes 48.7 seconds.
 File lengths (MBytes):  RWF=   1134 Int=      0 D2E=      0 Chk=     74 Scr=      1
 Normal termination of Gaussian 16 at Sat Apr 17 03:15:53 2021.
