 Entering Gaussian System, Link 0=/s/ls4/users/knvvv/bin/g16sse/g16
 Input=data/database/M062X--def2-QZVP--PA26_si2h6.gjf
 Output=data/database/M062X--def2-QZVP--PA26_si2h6.log
 Initial command:
 /s/ls4/users/knvvv/bin/g16sse/l1.exe "/s/ls4/users/knvvv/bin/scratch/Gau-3994.inp" -scrdir="/s/ls4/users/knvvv/bin/scratch/"
 Entering Link 1 = /s/ls4/users/knvvv/bin/g16sse/l1.exe PID=      3995.
  
 Copyright (c) 1988,1990,1992,1993,1995,1998,2003,2009,2016,
            Gaussian, Inc.  All Rights Reserved.
  
 This is part of the Gaussian(R) 16 program.  It is based on
 the Gaussian(R) 09 system (copyright 2009, Gaussian, Inc.),
 the Gaussian(R) 03 system (copyright 2003, Gaussian, Inc.),
 the Gaussian(R) 98 system (copyright 1998, Gaussian, Inc.),
 the Gaussian(R) 94 system (copyright 1995, Gaussian, Inc.),
 the Gaussian 92(TM) system (copyright 1992, Gaussian, Inc.),
 the Gaussian 90(TM) system (copyright 1990, Gaussian, Inc.),
 the Gaussian 88(TM) system (copyright 1988, Gaussian, Inc.),
 the Gaussian 86(TM) system (copyright 1986, Carnegie Mellon
 University), and the Gaussian 82(TM) system (copyright 1983,
 Carnegie Mellon University). Gaussian is a federally registered
 trademark of Gaussian, Inc.
  
 This software contains proprietary and confidential information,
 including trade secrets, belonging to Gaussian, Inc.
  
 This software is provided under written license and may be
 used, copied, transmitted, or stored only in accord with that
 written license.
  
 The following legend is applicable only to US Government
 contracts under FAR:
  
                    RESTRICTED RIGHTS LEGEND
  
 Use, reproduction and disclosure by the US Government is
 subject to restrictions as set forth in subparagraphs (a)
 and (c) of the Commercial Computer Software - Restricted
 Rights clause in FAR 52.227-19.
  
 Gaussian, Inc.
 340 Quinnipiac St., Bldg. 40, Wallingford CT 06492
  
  
 ---------------------------------------------------------------
 Warning -- This program may not be used in any manner that
 competes with the business of Gaussian, Inc. or will provide
 assistance to any competitor of Gaussian, Inc.  The licensee
 of this program is prohibited from giving any competitor of
 Gaussian, Inc. access to this program.  By using this program,
 the user acknowledges that Gaussian, Inc. is engaged in the
 business of creating and licensing software in the field of
 computational chemistry and represents and warrants to the
 licensee that it is not a competitor of Gaussian, Inc. and that
 it will not use this program in any manner prohibited above.
 ---------------------------------------------------------------
  

 Cite this work as:
 Gaussian 16, Revision A.03,
 M. J. Frisch, G. W. Trucks, H. B. Schlegel, G. E. Scuseria, 
 M. A. Robb, J. R. Cheeseman, G. Scalmani, V. Barone, 
 G. A. Petersson, H. Nakatsuji, X. Li, M. Caricato, A. V. Marenich, 
 J. Bloino, B. G. Janesko, R. Gomperts, B. Mennucci, H. P. Hratchian, 
 J. V. Ortiz, A. F. Izmaylov, J. L. Sonnenberg, D. Williams-Young, 
 F. Ding, F. Lipparini, F. Egidi, J. Goings, B. Peng, A. Petrone, 
 T. Henderson, D. Ranasinghe, V. G. Zakrzewski, J. Gao, N. Rega, 
 G. Zheng, W. Liang, M. Hada, M. Ehara, K. Toyota, R. Fukuda, 
 J. Hasegawa, M. Ishida, T. Nakajima, Y. Honda, O. Kitao, H. Nakai, 
 T. Vreven, K. Throssell, J. A. Montgomery, Jr., J. E. Peralta, 
 F. Ogliaro, M. J. Bearpark, J. J. Heyd, E. N. Brothers, K. N. Kudin, 
 V. N. Staroverov, T. A. Keith, R. Kobayashi, J. Normand, 
 K. Raghavachari, A. P. Rendell, J. C. Burant, S. S. Iyengar, 
 J. Tomasi, M. Cossi, J. M. Millam, M. Klene, C. Adamo, R. Cammi, 
 J. W. Ochterski, R. L. Martin, K. Morokuma, O. Farkas, 
 J. B. Foresman, and D. J. Fox, Gaussian, Inc., Wallingford CT, 2016.
 
 ******************************************
 Gaussian 16:  ES64L-G16RevA.03 25-Dec-2016
                17-Apr-2021 
 ******************************************
 %RWF=temp12_2580,70GB
 %nprocshared=48
 Will use up to   48 processors via shared memory.
 Default route: MaxDisk=80GB
 ----------------------------------------------------------------------
 #P M062X/Def2QZVP Integral=UltraFineGrid SCF=NoSymm Stable=(RExt, Opt)
  IOp(1/33=1)
 ----------------------------------------------------------------------
 1/33=1,38=1,172=1/1;
 2/12=2,17=6,18=5,40=1/2;
 3/5=45,7=101,11=2,25=1,30=1,74=-55,75=-5/1,2,3;
 4/9=2/1;
 5/5=2,38=5/2;
 6/7=2,8=2,9=2,10=2,28=1/1;
 8/6=1,10=90,11=11/1;
 9/8=-3,42=1,46=1/14;
 5/5=2,8=3,17=40,38=5/8(-2);
 6/7=2,8=2,9=2,10=2,28=1/1;
 99/5=1,9=1/99;
 Leave Link    1 at Sat Apr 17 05:18:53 2021, MaxMem=           0 cpu:              11.1 elap:               0.3
 (Enter /s/ls4/users/knvvv/bin/g16sse/l101.exe)
 ONIOM data not found on unit 2.
 ----------------------
 Database calculations.
 ----------------------
 TstMul:  ICh=     0
 TstMul:  Mul=     1
 TstMul:  ICh=     0
 TstMul:  Mul=     1
 Symbolic Z-matrix:
 Charge =  0 Multiplicity = 1
 SI                    0.        0.        1.16091 
 SI                    0.        0.       -1.16091 
 H                     1.19703   0.69111   1.67796 
 H                     0.       -1.38221   1.67796 
 H                    -1.19703   0.69111   1.67796 
 H                     1.19703  -0.69111  -1.67796 
 H                     0.        1.38221  -1.67796 
 H                    -1.19703  -0.69111  -1.67796 
 
 RdStrC is calling ZToCFu for IStruc=1 NZ=     8.
 PrtBox:  NBox=     1 Levels=  1 BoxLen=    8.00 SMaxX=        6.34
          Shift=            2.262057            2.611999            3.170889
 Box      1 Number                   0 centers from      1 to      8:
 After GenITR:
 ITRead=  0  0  0  0  0  0  0  0
 MicOpt= -1 -1 -1 -1 -1 -1 -1 -1
 ITRead=  0  0  0  0  0  0  0  0
 MicOpt= -1 -1 -1 -1 -1 -1 -1 -1
 NAtoms=      8 NQM=        8 NQMF=       0 NMMI=      0 NMMIF=      0
                NMic=       0 NMicF=      0.
                    Isotopes and Nuclear Properties:
 (Nuclear quadrupole moments (NQMom) in fm**2, nuclear magnetic moments (NMagM)
  in nuclear magnetons)

  Atom         1           2           3           4           5           6           7           8
 IAtWgt=          28          28           1           1           1           1           1           1
 AtmWgt=  27.9769284  27.9769284   1.0078250   1.0078250   1.0078250   1.0078250   1.0078250   1.0078250
 NucSpn=           0           0           1           1           1           1           1           1
 AtZEff=  -0.0000000  -0.0000000  -0.0000000  -0.0000000  -0.0000000  -0.0000000  -0.0000000  -0.0000000
 NQMom=    0.0000000   0.0000000   0.0000000   0.0000000   0.0000000   0.0000000   0.0000000   0.0000000
 NMagM=    0.0000000   0.0000000   2.7928460   2.7928460   2.7928460   2.7928460   2.7928460   2.7928460
 AtZNuc=  14.0000000  14.0000000   1.0000000   1.0000000   1.0000000   1.0000000   1.0000000   1.0000000
 No MM parameters found.
 Leave Link  101 at Sat Apr 17 05:18:53 2021, MaxMem=   104857600 cpu:               8.7 elap:               0.2
 (Enter /s/ls4/users/knvvv/bin/g16sse/l202.exe)
                          Input orientation:                          
 ---------------------------------------------------------------------
 Center     Atomic      Atomic             Coordinates (Angstroms)
 Number     Number       Type             X           Y           Z
 ---------------------------------------------------------------------
      1         14           0        0.000000    0.000000    1.160905
      2         14           0        0.000000    0.000000   -1.160905
      3          1           0        1.197029    0.691105    1.677962
      4          1           0        0.000000   -1.382210    1.677962
      5          1           0       -1.197029    0.691105    1.677962
      6          1           0        1.197029   -0.691105   -1.677962
      7          1           0        0.000000    1.382210   -1.677962
      8          1           0       -1.197029   -0.691105   -1.677962
 ---------------------------------------------------------------------
                    Distance matrix (angstroms):
                    1          2          3          4          5
     1  Si   0.000000
     2  Si   2.321811   0.000000
     3  H    1.475755   3.157479   0.000000
     4  H    1.475755   3.157479   2.394058   0.000000
     5  H    1.475755   3.157479   2.394058   2.394058   0.000000
     6  H    3.157479   1.475755   3.629426   3.629426   4.347901
     7  H    3.157479   1.475755   3.629426   4.347901   3.629426
     8  H    3.157479   1.475755   4.347901   3.629426   3.629426
                    6          7          8
     6  H    0.000000
     7  H    2.394058   0.000000
     8  H    2.394058   2.394058   0.000000
 Stoichiometry    H6Si2
 Framework group  D3D[C3(Si.Si),3SGD(H2)]
 Deg. of freedom     3
 Full point group                 D3D     NOp  12
 Largest Abelian subgroup         C2H     NOp   4
 Largest concise Abelian subgroup C2H     NOp   4
                         Standard orientation:                         
 ---------------------------------------------------------------------
 Center     Atomic      Atomic             Coordinates (Angstroms)
 Number     Number       Type             X           Y           Z
 ---------------------------------------------------------------------
      1         14           0        0.000000    0.000000    1.160905
      2         14           0       -0.000000   -0.000000   -1.160905
      3          1           0       -0.000000    1.382210    1.677962
      4          1           0        1.197029   -0.691105    1.677962
      5          1           0       -1.197029   -0.691105    1.677962
      6          1           0        1.197029    0.691105   -1.677962
      7          1           0       -1.197029    0.691105   -1.677962
      8          1           0       -0.000000   -1.382210   -1.677962
 ---------------------------------------------------------------------
 Rotational constants (GHZ):          43.7454341           5.1458503           5.1458503
 Leave Link  202 at Sat Apr 17 05:18:54 2021, MaxMem=   104857600 cpu:              16.4 elap:               0.4
 (Enter /s/ls4/users/knvvv/bin/g16sse/l301.exe)
 Standard basis: def2QZVP (5D, 7F)
 Ernie: Thresh=  0.10000D-02 Tol=  0.10000D-05 Strict=F.
 There are   117 symmetry adapted cartesian basis functions of AG  symmetry.
 There are    74 symmetry adapted cartesian basis functions of BG  symmetry.
 There are    74 symmetry adapted cartesian basis functions of AU  symmetry.
 There are   117 symmetry adapted cartesian basis functions of BU  symmetry.
 There are    96 symmetry adapted basis functions of AG  symmetry.
 There are    64 symmetry adapted basis functions of BG  symmetry.
 There are    64 symmetry adapted basis functions of AU  symmetry.
 There are    96 symmetry adapted basis functions of BU  symmetry.
   320 basis functions,   470 primitive gaussians,   382 cartesian basis functions
    17 alpha electrons       17 beta electrons
       nuclear repulsion energy        91.4363966989 Hartrees.
 IExCor= 4336 DFT=T Ex+Corr=M062X ExCW=0 ScaHFX=  0.540000
 ScaDFX=  1.000000  1.000000  1.000000  1.000000 ScalE2=  1.000000  1.000000
 IRadAn=      5 IRanWt=     -1 IRanGd=            0 ICorTp=0 IEmpDi=  4
 NAtoms=    8 NActive=    8 NUniq=    2 SFac= 4.00D+00 NAtFMM=   60 NAOKFM=F Big=F
 Integral buffers will be    131072 words long.
 Raffenetti 2 integral format.
 Two-electron integral symmetry is turned on.
 Leave Link  301 at Sat Apr 17 05:18:54 2021, MaxMem=   104857600 cpu:               6.7 elap:               0.2
 (Enter /s/ls4/users/knvvv/bin/g16sse/l302.exe)
 NPDir=0 NMtPBC=     1 NCelOv=     1 NCel=       1 NClECP=     1 NCelD=      1
         NCelK=      1 NCelE2=     1 NClLst=     1 CellRange=     0.0.
 One-electron integrals computed using PRISM.
 One-electron integral symmetry used in STVInt
 PrsmSu:  requested number of processors reduced to:   4 ShMem   1 Linda.
 PrsmSu:  requested number of processors reduced to:  21 ShMem   1 Linda.
  12 Symmetry operations used in ECPInt.
 ECPInt:  NShTT=    5460 NPrTT=   13070 LenC2=    5371 LenP2D=   11057.
 LDataN:  DoStor=T MaxTD1= 8 Len=  415
 Number of processors reduced to  23 by ecpmxn.
 NBasis=   320 RedAO= T EigKep=  1.24D-04  NBF=    96    64    64    96
 NBsUse=   320 1.00D-06 EigRej= -1.00D+00 NBFU=    96    64    64    96
 Precomputing XC quadrature grid using
 IXCGrd= 4 IRadAn=           5 IRanWt=          -1 IRanGd=           0 AccXCQ= 0.00D+00.
 Generated NRdTot=       0 NPtTot=           0 NUsed=           0 NTot=          32
 NSgBfM=   379   379   379   379   379 MxSgAt=     8 MxSgA2=     8.
 Leave Link  302 at Sat Apr 17 05:19:34 2021, MaxMem=   104857600 cpu:            1876.4 elap:              40.0
 (Enter /s/ls4/users/knvvv/bin/g16sse/l303.exe)
 DipDrv:  MaxL=1.
 Leave Link  303 at Sat Apr 17 05:19:35 2021, MaxMem=   104857600 cpu:              69.5 elap:               1.5
 (Enter /s/ls4/users/knvvv/bin/g16sse/l401.exe)
 SCF N**3 symmetry information disabled.
 ExpMin= 5.30D-02 ExpMax= 9.18D+05 ExpMxC= 1.04D+03 IAcc=3 IRadAn=         5 AccDes= 0.00D+00
 Harris functional with IExCor= 1009 and IRadAn=       5 diagonalized for initial guess.
 HarFok:  IExCor= 1009 AccDes= 0.00D+00 IRadAn=         5 IDoV= 1 UseB2=F ITyADJ=14
 ICtDFT=  3500011 ScaDFX=  1.000000  1.000000  1.000000  1.000000
 FoFCou: FMM=F IPFlag=           0 FMFlag=      100000 FMFlg1=           0
         NFxFlg=           0 DoJE=T BraDBF=F KetDBF=T FulRan=T
         wScrn=  0.000000 ICntrl=       500 IOpCl=  0 I1Cent=   200000004 NGrid=           0
         NMat0=    1 NMatS0=      1 NMatT0=    0 NMatD0=    1 NMtDS0=    0 NMtDT0=    0
 Petite list used in FoFCou.
 CoulSu:  requested number of processors reduced to:  20 ShMem   1 Linda.
 CoulSu:  requested number of processors reduced to:  20 ShMem   1 Linda.
 CoulSu:  requested number of processors reduced to:  21 ShMem   1 Linda.
 CoulSu:  requested number of processors reduced to:  21 ShMem   1 Linda.
 Harris En= -582.245022333998    
 JPrj=0 DoOrth=F DoCkMO=F.
 Initial guess orbital symmetries:
       Occupied  (A2U) (A1G) (A1G) (A2U) (EU) (EU) (EG) (EG) (A1G)
                 (A2U) (A1G) (A2U) (EU) (EU) (EG) (EG) (A1G)
       Virtual   (EU) (EU) (A2U) (A1G) (EG) (EG) (A2U) (A1G) (EU)
                 (EU) (EG) (EG) (EU) (EU) (A2U) (A1G) (EG) (EG)
                 (EU) (EU) (A1G) (EG) (EG) (A2U) (A2U) (A1G) (EG)
                 (EG) (A2U) (EU) (EU) (A1U) (A1G) (A2G) (EU) (EU)
                 (EG) (EG) (EU) (EU) (EG) (EG) (A2U) (EU) (EU)
                 (A1G) (EG) (EG) (A1G) (EU) (EU) (A2U) (A2U) (EG)
                 (EG) (A1U) (EU) (EU) (A1G) (EG) (EG) (A2U) (EG)
                 (EG) (EU) (EU) (A2U) (EG) (EG) (A1G) (A2G) (EU)
                 (EU) (A1G) (A2U) (EG) (EG) (EU) (EU) (A2U) (A1G)
                 (EG) (EG) (EU) (EU) (A1G) (A2U) (EU) (EU) (EG)
                 (EG) (EU) (EU) (A1U) (A2G) (EG) (EG) (EU) (EU)
                 (A1G) (EG) (EG) (A2U) (EU) (EU) (A1G) (EG) (EG)
                 (A1U) (A2U) (EU) (EU) (A1G) (EG) (EG) (A2U) (A1U)
                 (EG) (EG) (A2G) (EU) (EU) (A2G) (EU) (EU) (A1G)
                 (A2U) (EG) (EG) (EG) (EG) (A2U) (EU) (EU) (A1G)
                 (A1G) (A1U) (EG) (EG) (EU) (EU) (A2U) (EG) (EG)
                 (A1G) (EU) (EU) (A2G) (EU) (EU) (A2U) (EG) (EG)
                 (A1G) (EU) (EU) (EG) (EG) (A2U) (EG) (EG) (EU)
                 (EU) (A2U) (A1G) (EU) (EU) (EG) (EG) (A1G) (A2U)
                 (EU) (EU) (EG) (EG) (A1U) (EG) (EG) (A2G) (A1G)
                 (EU) (EU) (A2U) (A2U) (A1G) (EU) (EU) (EG) (EG)
                 (EU) (EU) (EG) (EG) (A1G) (A2U) (A2G) (A1U) (EU)
                 (EU) (EG) (EG) (EG) (EG) (EU) (EU) (A1G) (A2U)
                 (A1U) (A2G) (A2U) (A1G) (A2U) (A1G) (EU) (EU)
                 (EG) (EG) (EU) (EU) (EG) (EG) (EG) (EG) (EU) (EU)
                 (EG) (EG) (EU) (EU) (A2U) (A1U) (A1G) (A2G) (EG)
                 (EG) (EU) (EU) (EU) (EU) (A2U) (EG) (EG) (A1G)
                 (A2U) (EG) (EG) (EU) (EU) (A1G) (A1U) (EG) (EG)
                 (EU) (EU) (A2G) (A1U) (EG) (EG) (EU) (EU) (EG)
                 (EG) (A2G) (A1G) (A2U) (EU) (EU) (A1U) (EG) (EG)
                 (EU) (EU) (A2U) (A2G) (A1G) (EU) (EU) (EG) (EG)
                 (EG) (EG) (A2U) (A1G) (EU) (EU) (EG) (EG) (A1G)
                 (EU) (EU) (A2U) (A1G) (EG) (EG) (EU) (EU) (A2U)
                 (A1G) (A2U) (A1G) (A2U) (A1G) (A2U)
 The electronic state of the initial guess is 1-A1G.
 Leave Link  401 at Sat Apr 17 05:19:56 2021, MaxMem=   104857600 cpu:             953.3 elap:              20.5
 (Enter /s/ls4/users/knvvv/bin/g16sse/l502.exe)
 Integral symmetry usage will be decided dynamically.
 Closed shell SCF:
 Using DIIS extrapolation, IDIIS=  1040.
 NGot=   104857600 LenX=   104541030 LenY=   104394665
 Requested convergence on RMS density matrix=1.00D-08 within 128 cycles.
 Requested convergence on MAX density matrix=1.00D-06.
 Requested convergence on             energy=1.00D-06.
 No special actions if energy rises.
 Fock matrices will be formed incrementally for  20 cycles.
 Integral accuracy reduced to 1.0D-05 until final iterations.

 Cycle   1  Pass 0  IDiag  1:
 FoFJK:  IHMeth= 1 ICntrl=       0 DoSepK=F KAlg= 0 I1Cent=           0 FoldK=F
 IRaf= 960000000 NMat=       1 IRICut=       1 DoRegI=T DoRafI=F ISym2E= 1 IDoP0=0 IntGTp=1.
 FoFCou: FMM=F IPFlag=           0 FMFlag=      100000 FMFlg1=           0
         NFxFlg=           0 DoJE=F BraDBF=F KetDBF=F FulRan=T
         wScrn=  0.000000 ICntrl=         0 IOpCl=  0 I1Cent=           0 NGrid=           0
         NMat0=    1 NMatS0=      1 NMatT0=    0 NMatD0=    1 NMtDS0=    0 NMtDT0=    0
 Petite list used in FoFCou.
 CoulSu:  requested number of processors reduced to:  21 ShMem   1 Linda.
 E= -582.528221561739    
 DIIS: error= 1.82D-02 at cycle   1 NSaved=   1.
 NSaved= 1 IEnMin= 1 EnMin= -582.528221561739     IErMin= 1 ErrMin= 1.82D-02
 ErrMax= 1.82D-02  0.00D+00 EMaxC= 1.00D-01 BMatC= 6.01D-02 BMatP= 6.01D-02
 IDIUse=3 WtCom= 8.18D-01 WtEn= 1.82D-01
 Coeff-Com:  0.100D+01
 Coeff-En:   0.100D+01
 Coeff:      0.100D+01
 Gap=     0.393 Goal=   None    Shift=    0.000
 GapD=    0.393 DampG=1.000 DampE=0.500 DampFc=0.5000 IDamp=-1.
 Damping current iteration by 5.00D-01
 RMSDP=6.23D-04 MaxDP=6.05D-02              OVMax= 4.61D-02

 Cycle   2  Pass 0  IDiag  1:
 RMSU=  3.11D-04    CP:  9.98D-01
 CoulSu:  requested number of processors reduced to:  21 ShMem   1 Linda.
 E= -582.541288606217     Delta-E=       -0.013067044478 Rises=F Damp=T
 DIIS: error= 9.91D-03 at cycle   2 NSaved=   2.
 NSaved= 2 IEnMin= 2 EnMin= -582.541288606217     IErMin= 2 ErrMin= 9.91D-03
 ErrMax= 9.91D-03  0.00D+00 EMaxC= 1.00D-01 BMatC= 1.29D-02 BMatP= 6.01D-02
 IDIUse=3 WtCom= 9.01D-01 WtEn= 9.91D-02
 Coeff-Com: -0.766D+00 0.177D+01
 Coeff-En:   0.000D+00 0.100D+01
 Coeff:     -0.690D+00 0.169D+01
 Gap=     0.367 Goal=   None    Shift=    0.000
 RMSDP=3.71D-04 MaxDP=4.97D-02 DE=-1.31D-02 OVMax= 1.31D-02

 Cycle   3  Pass 0  IDiag  1:
 RMSU=  1.26D-04    CP:  9.90D-01  2.11D+00
 CoulSu:  requested number of processors reduced to:  21 ShMem   1 Linda.
 E= -582.553433036691     Delta-E=       -0.012144430473 Rises=F Damp=F
 DIIS: error= 1.43D-03 at cycle   3 NSaved=   3.
 NSaved= 3 IEnMin= 3 EnMin= -582.553433036691     IErMin= 3 ErrMin= 1.43D-03
 ErrMax= 1.43D-03  0.00D+00 EMaxC= 1.00D-01 BMatC= 2.04D-04 BMatP= 1.29D-02
 IDIUse=3 WtCom= 9.86D-01 WtEn= 1.43D-02
 Coeff-Com: -0.193D+00 0.393D+00 0.801D+00
 Coeff-En:   0.000D+00 0.000D+00 0.100D+01
 Coeff:     -0.191D+00 0.387D+00 0.803D+00
 Gap=     0.373 Goal=   None    Shift=    0.000
 RMSDP=3.56D-05 MaxDP=2.61D-03 DE=-1.21D-02 OVMax= 5.23D-03

 Cycle   4  Pass 0  IDiag  1:
 RMSU=  3.36D-05    CP:  9.91D-01  2.14D+00  1.04D+00
 CoulSu:  requested number of processors reduced to:  21 ShMem   1 Linda.
 E= -582.553553200533     Delta-E=       -0.000120163842 Rises=F Damp=F
 DIIS: error= 2.22D-04 at cycle   4 NSaved=   4.
 NSaved= 4 IEnMin= 4 EnMin= -582.553553200533     IErMin= 4 ErrMin= 2.22D-04
 ErrMax= 2.22D-04  0.00D+00 EMaxC= 1.00D-01 BMatC= 4.00D-06 BMatP= 2.04D-04
 IDIUse=3 WtCom= 9.98D-01 WtEn= 2.22D-03
 Coeff-Com: -0.175D-01 0.343D-01 0.149D+00 0.834D+00
 Coeff-En:   0.000D+00 0.000D+00 0.000D+00 0.100D+01
 Coeff:     -0.175D-01 0.343D-01 0.148D+00 0.835D+00
 Gap=     0.372 Goal=   None    Shift=    0.000
 RMSDP=7.60D-06 MaxDP=7.16D-04 DE=-1.20D-04 OVMax= 8.83D-04

 Initial convergence to 1.0D-05 achieved.  Increase integral accuracy.
 Cycle   5  Pass 1  IDiag  1:
 CoulSu:  requested number of processors reduced to:  21 ShMem   1 Linda.
 E= -582.553530862006     Delta-E=        0.000022338527 Rises=F Damp=F
 DIIS: error= 7.30D-05 at cycle   1 NSaved=   1.
 NSaved= 1 IEnMin= 1 EnMin= -582.553530862006     IErMin= 1 ErrMin= 7.30D-05
 ErrMax= 7.30D-05  0.00D+00 EMaxC= 1.00D-01 BMatC= 1.66D-06 BMatP= 1.66D-06
 IDIUse=1 WtCom= 1.00D+00 WtEn= 0.00D+00
 Coeff-Com:  0.100D+01
 Coeff:      0.100D+01
 Gap=     0.372 Goal=   None    Shift=    0.000
 RMSDP=7.60D-06 MaxDP=7.16D-04 DE= 2.23D-05 OVMax= 2.68D-04

 Cycle   6  Pass 1  IDiag  1:
 RMSU=  2.51D-05    CP:  1.00D+00
 CoulSu:  requested number of processors reduced to:  21 ShMem   1 Linda.
 E= -582.553531657158     Delta-E=       -0.000000795152 Rises=F Damp=F
 DIIS: error= 3.31D-05 at cycle   2 NSaved=   2.
 NSaved= 2 IEnMin= 2 EnMin= -582.553531657158     IErMin= 2 ErrMin= 3.31D-05
 ErrMax= 3.31D-05  0.00D+00 EMaxC= 1.00D-01 BMatC= 1.11D-07 BMatP= 1.66D-06
 IDIUse=1 WtCom= 1.00D+00 WtEn= 0.00D+00
 Coeff-Com:  0.105D+00 0.895D+00
 Coeff:      0.105D+00 0.895D+00
 Gap=     0.372 Goal=   None    Shift=    0.000
 RMSDP=2.00D-06 MaxDP=1.83D-04 DE=-7.95D-07 OVMax= 1.59D-04

 Cycle   7  Pass 1  IDiag  1:
 RMSU=  1.17D-06    CP:  1.00D+00  1.06D+00
 CoulSu:  requested number of processors reduced to:  21 ShMem   1 Linda.
 E= -582.553531749032     Delta-E=       -0.000000091874 Rises=F Damp=F
 DIIS: error= 1.76D-05 at cycle   3 NSaved=   3.
 NSaved= 3 IEnMin= 3 EnMin= -582.553531749032     IErMin= 3 ErrMin= 1.76D-05
 ErrMax= 1.76D-05  0.00D+00 EMaxC= 1.00D-01 BMatC= 2.60D-08 BMatP= 1.11D-07
 IDIUse=1 WtCom= 1.00D+00 WtEn= 0.00D+00
 Coeff-Com: -0.248D-01 0.302D+00 0.723D+00
 Coeff:     -0.248D-01 0.302D+00 0.723D+00
 Gap=     0.372 Goal=   None    Shift=    0.000
 RMSDP=3.90D-07 MaxDP=3.43D-05 DE=-9.19D-08 OVMax= 5.45D-05

 Cycle   8  Pass 1  IDiag  1:
 RMSU=  2.24D-07    CP:  1.00D+00  1.07D+00  8.62D-01
 CoulSu:  requested number of processors reduced to:  21 ShMem   1 Linda.
 E= -582.553531771124     Delta-E=       -0.000000022092 Rises=F Damp=F
 DIIS: error= 9.25D-07 at cycle   4 NSaved=   4.
 NSaved= 4 IEnMin= 4 EnMin= -582.553531771124     IErMin= 4 ErrMin= 9.25D-07
 ErrMax= 9.25D-07  0.00D+00 EMaxC= 1.00D-01 BMatC= 1.18D-10 BMatP= 2.60D-08
 IDIUse=1 WtCom= 1.00D+00 WtEn= 0.00D+00
 Coeff-Com: -0.129D-02-0.237D-01-0.472D-01 0.107D+01
 Coeff:     -0.129D-02-0.237D-01-0.472D-01 0.107D+01
 Gap=     0.372 Goal=   None    Shift=    0.000
 RMSDP=1.17D-07 MaxDP=1.72D-05 DE=-2.21D-08 OVMax= 5.61D-06

 Cycle   9  Pass 1  IDiag  1:
 RMSU=  6.61D-08    CP:  1.00D+00  1.08D+00  8.86D-01  1.29D+00
 CoulSu:  requested number of processors reduced to:  21 ShMem   1 Linda.
 E= -582.553531771301     Delta-E=       -0.000000000178 Rises=F Damp=F
 DIIS: error= 2.22D-07 at cycle   5 NSaved=   5.
 NSaved= 5 IEnMin= 5 EnMin= -582.553531771301     IErMin= 5 ErrMin= 2.22D-07
 ErrMax= 2.22D-07  0.00D+00 EMaxC= 1.00D-01 BMatC= 6.92D-12 BMatP= 1.18D-10
 IDIUse=1 WtCom= 1.00D+00 WtEn= 0.00D+00
 Coeff-Com:  0.716D-03-0.142D-01-0.250D-01 0.511D-01 0.987D+00
 Coeff:      0.716D-03-0.142D-01-0.250D-01 0.511D-01 0.987D+00
 Gap=     0.372 Goal=   None    Shift=    0.000
 RMSDP=2.60D-08 MaxDP=3.24D-06 DE=-1.78D-10 OVMax= 2.08D-06

 Cycle  10  Pass 1  IDiag  1:
 RMSU=  6.70D-09    CP:  1.00D+00  1.08D+00  8.97D-01  1.35D+00  1.20D+00
 CoulSu:  requested number of processors reduced to:  21 ShMem   1 Linda.
 E= -582.553531771344     Delta-E=       -0.000000000043 Rises=F Damp=F
 DIIS: error= 6.43D-08 at cycle   6 NSaved=   6.
 NSaved= 6 IEnMin= 6 EnMin= -582.553531771344     IErMin= 6 ErrMin= 6.43D-08
 ErrMax= 6.43D-08  0.00D+00 EMaxC= 1.00D-01 BMatC= 4.12D-13 BMatP= 6.92D-12
 IDIUse=1 WtCom= 1.00D+00 WtEn= 0.00D+00
 Coeff-Com:  0.117D-03-0.146D-03-0.146D-03-0.457D-01 0.951D-01 0.951D+00
 Coeff:      0.117D-03-0.146D-03-0.146D-03-0.457D-01 0.951D-01 0.951D+00
 Gap=     0.372 Goal=   None    Shift=    0.000
 RMSDP=5.37D-09 MaxDP=6.18D-07 DE=-4.26D-11 OVMax= 2.81D-07

 SCF Done:  E(RM062X) =  -582.553531771     A.U. after   10 cycles
            NFock= 10  Conv=0.54D-08     -V/T= 2.0020
 KE= 5.814170342144D+02 PE=-1.569679812340D+03 EE= 3.142728496549D+02
 Leave Link  502 at Sat Apr 17 05:27:32 2021, MaxMem=   104857600 cpu:           20912.4 elap:             456.1
 (Enter /s/ls4/users/knvvv/bin/g16sse/l601.exe)
 Copying SCF densities to generalized density rwf, IOpCl= 0 IROHF=0.

 **********************************************************************

            Population analysis using the SCF density.

 **********************************************************************

 Orbital symmetries:
       Occupied  (A1G) (A2U) (A1G) (A2U) (A1G) (EU) (EU) (EG) (EG)
                 (A2U) (A1G) (A2U) (EU) (EU) (EG) (EG) (A1G)
       Virtual   (A2U) (EU) (EU) (A1G) (EG) (EG) (A1G) (A2U) (EU)
                 (EU) (EG) (EG) (A2U) (EU) (EU) (EG) (EG) (A1G)
                 (EU) (EU) (A1G) (A2U) (EG) (EG) (A2U) (A1G) (EG)
                 (EG) (A2U) (EU) (EU) (A1U) (A1G) (A2G) (EU) (EU)
                 (EG) (EG) (EU) (EU) (EG) (EG) (A2U) (A1G) (EG)
                 (EG) (EU) (EU) (A1G) (EU) (EU) (A2U) (A2U) (EG)
                 (EG) (A1U) (EU) (EU) (A1G) (EG) (EG) (A2U) (EG)
                 (EG) (EU) (EU) (EG) (EG) (A2U) (A1G) (A2G) (EU)
                 (EU) (A1G) (A2U) (EG) (EG) (A2U) (EU) (EU) (A1G)
                 (EG) (EG) (EU) (EU) (A1G) (A2U) (EG) (EG) (EU)
                 (EU) (EU) (EU) (A1U) (A2G) (EG) (EG) (EU) (EU)
                 (A1G) (EG) (EG) (A2U) (EU) (EU) (EG) (EG) (A1G)
                 (A1U) (A1G) (A2U) (EU) (EU) (EG) (EG) (A2U) (A1U)
                 (A2G) (EG) (EG) (EU) (EU) (A2G) (EU) (EU) (A2U)
                 (A1G) (EG) (EG) (EG) (EG) (A2U) (EU) (EU) (A1G)
                 (A1G) (A1U) (EG) (EG) (EU) (EU) (A2U) (EU) (EU)
                 (A1G) (EG) (EG) (A2G) (A2U) (EG) (EG) (EU) (EU)
                 (A1G) (EU) (EU) (EG) (EG) (A2U) (EG) (EG) (EU)
                 (EU) (A2U) (A1G) (EG) (EG) (EU) (EU) (A1G) (EU)
                 (EU) (A2U) (EG) (EG) (A1U) (A2G) (EG) (EG) (A1G)
                 (EU) (EU) (A2U) (A2U) (A1G) (EU) (EU) (EG) (EG)
                 (EU) (EU) (A2G) (A1U) (EG) (EG) (EU) (EU) (EG)
                 (EG) (A2U) (A1G) (EU) (EU) (A1G) (EG) (EG) (A2U)
                 (A1U) (A2G) (A2U) (EU) (EU) (A1G) (EG) (EG) (A1G)
                 (A2U) (EU) (EU) (EG) (EG) (EG) (EG) (EU) (EU)
                 (EG) (EG) (EU) (EU) (A2U) (A1U) (A1G) (A2G) (EG)
                 (EG) (EU) (EU) (EU) (EU) (A2U) (EG) (EG) (A1G)
                 (EG) (EG) (A2U) (EU) (EU) (A1G) (A1U) (EG) (EG)
                 (A2G) (EU) (EU) (A1U) (EG) (EG) (EU) (EU) (EG)
                 (EG) (A1G) (A2U) (EU) (EU) (A2G) (A1U) (EG) (EG)
                 (EU) (EU) (A2U) (A2G) (A1G) (EU) (EU) (EG) (EG)
                 (EG) (EG) (EU) (EU) (A2U) (A1G) (A1G) (A2U) (EG)
                 (EG) (EU) (EU) (A1G) (EG) (EG) (EU) (EU) (A2U)
                 (A1G) (A2U) (A1G) (A2U) (A1G) (A2U)
 The electronic state is 1-A1G.
 Alpha  occ. eigenvalues --  -66.99874 -66.99874  -5.54140  -5.54128  -3.85317
 Alpha  occ. eigenvalues --   -3.85267  -3.85267  -3.85261  -3.85261  -3.85253
 Alpha  occ. eigenvalues --   -0.64582  -0.57784  -0.42305  -0.42305  -0.39666
 Alpha  occ. eigenvalues --   -0.39666  -0.34606
 Alpha virt. eigenvalues --    0.02557   0.03738   0.03738   0.04194   0.06101
 Alpha virt. eigenvalues --    0.06101   0.09475   0.09937   0.09944   0.09944
 Alpha virt. eigenvalues --    0.13563   0.13563   0.14580   0.17562   0.17562
 Alpha virt. eigenvalues --    0.23168   0.23168   0.23895   0.24344   0.24344
 Alpha virt. eigenvalues --    0.25784   0.29797   0.31551   0.31551   0.33122
 Alpha virt. eigenvalues --    0.37032   0.37777   0.37777   0.40487   0.46917
 Alpha virt. eigenvalues --    0.46917   0.52832   0.54041   0.56564   0.58214
 Alpha virt. eigenvalues --    0.58214   0.58674   0.58674   0.62857   0.62857
 Alpha virt. eigenvalues --    0.66775   0.66775   0.68109   0.68309   0.68441
 Alpha virt. eigenvalues --    0.68441   0.69768   0.69768   0.73244   0.74118
 Alpha virt. eigenvalues --    0.74118   0.77835   0.81029   0.82151   0.82151
 Alpha virt. eigenvalues --    0.82236   0.88051   0.88051   0.89028   0.90312
 Alpha virt. eigenvalues --    0.90312   0.94301   0.99784   0.99784   1.03129
 Alpha virt. eigenvalues --    1.03129   1.05523   1.05523   1.05677   1.06906
 Alpha virt. eigenvalues --    1.08471   1.13945   1.13945   1.14511   1.19640
 Alpha virt. eigenvalues --    1.27701   1.27701   1.29537   1.31076   1.31076
 Alpha virt. eigenvalues --    1.32140   1.36175   1.36175   1.38539   1.38539
 Alpha virt. eigenvalues --    1.40878   1.59982   1.70012   1.70012   1.70754
 Alpha virt. eigenvalues --    1.70754   1.71558   1.71558   1.75427   1.81166
 Alpha virt. eigenvalues --    1.85432   1.85432   1.87795   1.87795   1.91294
 Alpha virt. eigenvalues --    1.94852   1.94852   1.97407   2.01260   2.01260
 Alpha virt. eigenvalues --    2.02113   2.02113   2.03798   2.03872   2.10384
 Alpha virt. eigenvalues --    2.10849   2.11857   2.11857   2.16224   2.16224
 Alpha virt. eigenvalues --    2.18914   2.19566   2.20793   2.23263   2.23263
 Alpha virt. eigenvalues --    2.27664   2.27664   2.29601   2.31702   2.31702
 Alpha virt. eigenvalues --    2.33092   2.33144   2.35695   2.35695   2.39042
 Alpha virt. eigenvalues --    2.39042   2.42061   2.46634   2.46634   2.49357
 Alpha virt. eigenvalues --    2.50901   2.54095   2.56111   2.56111   2.57610
 Alpha virt. eigenvalues --    2.57610   2.61432   2.70672   2.70672   2.71596
 Alpha virt. eigenvalues --    2.72092   2.72092   2.74068   2.77110   2.77628
 Alpha virt. eigenvalues --    2.77628   2.80498   2.80498   2.89971   2.93215
 Alpha virt. eigenvalues --    2.93215   2.96723   2.96723   3.08295   3.13128
 Alpha virt. eigenvalues --    3.13128   3.15811   3.15811   3.16812   3.21936
 Alpha virt. eigenvalues --    3.30412   3.30412   3.31074   3.31074   3.32253
 Alpha virt. eigenvalues --    3.39239   3.39239   3.39275   3.46409   3.46409
 Alpha virt. eigenvalues --    3.48754   3.64546   3.67119   3.67119   3.70338
 Alpha virt. eigenvalues --    3.77557   3.77557   4.10358   4.82837   4.86981
 Alpha virt. eigenvalues --    5.38729   5.38729   5.40023   5.40023   5.47384
 Alpha virt. eigenvalues --    5.47384   5.53722   5.53788   5.54250   5.54250
 Alpha virt. eigenvalues --    5.58766   5.58766   5.60179   5.60179   5.62082
 Alpha virt. eigenvalues --    5.62493   5.64815   5.64815   5.67693   5.72796
 Alpha virt. eigenvalues --    5.72796   5.80698   5.81305   5.89753   5.93128
 Alpha virt. eigenvalues --    5.95328   5.95328   5.99376   6.00051   6.00051
 Alpha virt. eigenvalues --    6.04047   6.05031   6.19488   6.19488   6.21010
 Alpha virt. eigenvalues --    6.21010   6.23930   6.23930   6.29918   6.29918
 Alpha virt. eigenvalues --    6.40244   6.40244   6.43834   6.43834   6.50415
 Alpha virt. eigenvalues --    6.64161   6.64813   6.67673   6.74056   6.74056
 Alpha virt. eigenvalues --    6.74512   6.74512   6.94640   6.94640   6.97761
 Alpha virt. eigenvalues --    6.98829   6.98829   7.05581   7.56984   7.56984
 Alpha virt. eigenvalues --    7.58039   7.60254   7.60254   7.62840   7.64596
 Alpha virt. eigenvalues --    7.67535   7.67535   7.69969   7.70291   7.70291
 Alpha virt. eigenvalues --    7.78233   7.80738   7.80738   7.83156   7.83156
 Alpha virt. eigenvalues --    7.83687   7.83687   7.85771   7.88295   7.88482
 Alpha virt. eigenvalues --    7.88482   7.88612   8.33615   8.41847   8.41847
 Alpha virt. eigenvalues --    8.46310   8.46310   8.51237   8.54349   8.57490
 Alpha virt. eigenvalues --    8.60174   8.60174   8.60356   8.60356   8.74050
 Alpha virt. eigenvalues --    8.74050   8.78817   8.78817   8.82098   8.82231
 Alpha virt. eigenvalues --    9.25545   9.28094   9.29278   9.29278   9.32147
 Alpha virt. eigenvalues --    9.32147  11.90814  12.56860  12.56860  12.60363
 Alpha virt. eigenvalues --   12.60363  12.76460  16.61938  16.79822  58.19233
 Alpha virt. eigenvalues --   58.34752 315.38527 315.63185
          Condensed to atoms (all electrons):
               1          2          3          4          5          6
     1  Si  12.241106   0.424321   0.403404   0.403404   0.403404  -0.026699
     2  Si   0.424321  12.241106  -0.026699  -0.026699  -0.026699   0.403404
     3  H    0.403404  -0.026699   0.719460  -0.014907  -0.014907   0.000302
     4  H    0.403404  -0.026699  -0.014907   0.719460  -0.014907   0.000302
     5  H    0.403404  -0.026699  -0.014907  -0.014907   0.719460   0.001197
     6  H   -0.026699   0.403404   0.000302   0.000302   0.001197   0.719460
     7  H   -0.026699   0.403404   0.000302   0.001197   0.000302  -0.014907
     8  H   -0.026699   0.403404   0.001197   0.000302   0.000302  -0.014907
               7          8
     1  Si  -0.026699  -0.026699
     2  Si   0.403404   0.403404
     3  H    0.000302   0.001197
     4  H    0.001197   0.000302
     5  H    0.000302   0.000302
     6  H   -0.014907  -0.014907
     7  H    0.719460  -0.014907
     8  H   -0.014907   0.719460
 Mulliken charges:
               1
     1  Si   0.204458
     2  Si   0.204458
     3  H   -0.068153
     4  H   -0.068153
     5  H   -0.068153
     6  H   -0.068153
     7  H   -0.068153
     8  H   -0.068153
 Sum of Mulliken charges =  -0.00000
 Mulliken charges with hydrogens summed into heavy atoms:
               1
     1  Si  -0.000000
     2  Si  -0.000000
 Electronic spatial extent (au):  <R**2>=            306.2044
 Charge=             -0.0000 electrons
 Dipole moment (field-independent basis, Debye):
    X=              0.0000    Y=             -0.0000    Z=             -0.0000  Tot=              0.0000
 Quadrupole moment (field-independent basis, Debye-Ang):
   XX=            -31.1759   YY=            -31.1759   ZZ=            -32.0503
   XY=              0.0000   XZ=              0.0000   YZ=             -0.0000
 Traceless Quadrupole moment (field-independent basis, Debye-Ang):
   XX=              0.2915   YY=              0.2915   ZZ=             -0.5829
   XY=              0.0000   XZ=              0.0000   YZ=             -0.0000
 Octapole moment (field-independent basis, Debye-Ang**2):
  XXX=             -0.0000  YYY=              0.0000  ZZZ=              0.0000  XYY=              0.0000
  XXY=              0.0000  XXZ=             -0.0000  XZZ=              0.0000  YZZ=              0.0000
  YYZ=              0.0000  XYZ=             -0.0000
 Hexadecapole moment (field-independent basis, Debye-Ang**3):
 XXXX=            -82.3799 YYYY=            -82.3799 ZZZZ=           -349.3458 XXXY=              0.0000
 XXXZ=             -0.0000 YYYX=              0.0000 YYYZ=             -1.4616 ZZZX=              0.0000
 ZZZY=             -0.0000 XXYY=            -27.4600 XXZZ=            -75.6797 YYZZ=            -75.6797
 XXYZ=              1.4616 YYXZ=              0.0000 ZZXY=              0.0000
 N-N= 9.143639669887D+01 E-N=-1.569679814617D+03  KE= 5.814170342144D+02
 PrsmSu:  requested number of processors reduced to:  21 ShMem   1 Linda.
 No NMR shielding tensors so no spin-rotation constants.
 Leave Link  601 at Sat Apr 17 05:27:43 2021, MaxMem=   104857600 cpu:             501.9 elap:              10.8
 (Enter /s/ls4/users/knvvv/bin/g16sse/l801.exe)
 DoSCS=F DFT=T ScalE2(SS,OS)=  1.000000  1.000000
 Range of M.O.s used for correlation:     1   320
 NBasis=   320 NAE=    17 NBE=    17 NFC=     0 NFV=     0
 NROrb=    320 NOA=    17 NOB=    17 NVA=   303 NVB=   303

 **** Warning!!: The largest alpha MO coefficient is  0.29033991D+02

 Leave Link  801 at Sat Apr 17 05:27:43 2021, MaxMem=   104857600 cpu:               3.9 elap:               0.1
 (Enter /s/ls4/users/knvvv/bin/g16sse/l914.exe)
 RHF ground state
 Doing stability rather than CIS.
 Two-electron integrals replicated using symmetry.
 MDV=   104857600 DFT=T DoStab=T Mixed=T DoRPA=F DoScal=F NonHer=F
 Making orbital integer symmetry assigments:
 Orbital symmetries:
       Occupied  (A1G) (A2U) (A1G) (A2U) (A1G) (EU) (EU) (EG) (EG)
                 (A2U) (A1G) (A2U) (EU) (EU) (EG) (EG) (A1G)
       Virtual   (A2U) (EU) (EU) (A1G) (EG) (EG) (A1G) (A2U) (EU)
                 (EU) (EG) (EG) (A2U) (EU) (EU) (EG) (EG) (A1G)
                 (EU) (EU) (A1G) (A2U) (EG) (EG) (A2U) (A1G) (EG)
                 (EG) (A2U) (EU) (EU) (A1U) (A1G) (A2G) (EU) (EU)
                 (EG) (EG) (EU) (EU) (EG) (EG) (A2U) (A1G) (EG)
                 (EG) (EU) (EU) (A1G) (EU) (EU) (A2U) (A2U) (EG)
                 (EG) (A1U) (EU) (EU) (A1G) (EG) (EG) (A2U) (EG)
                 (EG) (EU) (EU) (EG) (EG) (A2U) (A1G) (A2G) (EU)
                 (EU) (A1G) (A2U) (EG) (EG) (A2U) (EU) (EU) (A1G)
                 (EG) (EG) (EU) (EU) (A1G) (A2U) (EG) (EG) (EU)
                 (EU) (EU) (EU) (A1U) (A2G) (EG) (EG) (EU) (EU)
                 (A1G) (EG) (EG) (A2U) (EU) (EU) (EG) (EG) (A1G)
                 (A1U) (A1G) (A2U) (EU) (EU) (EG) (EG) (A2U) (A1U)
                 (A2G) (EG) (EG) (EU) (EU) (A2G) (EU) (EU) (A2U)
                 (A1G) (EG) (EG) (EG) (EG) (A2U) (EU) (EU) (A1G)
                 (A1G) (A1U) (EG) (EG) (EU) (EU) (A2U) (EU) (EU)
                 (A1G) (EG) (EG) (A2G) (A2U) (EG) (EG) (EU) (EU)
                 (A1G) (EU) (EU) (EG) (EG) (A2U) (EG) (EG) (EU)
                 (EU) (A2U) (A1G) (EG) (EG) (EU) (EU) (A1G) (EU)
                 (EU) (A2U) (EG) (EG) (A1U) (A2G) (EG) (EG) (A1G)
                 (EU) (EU) (A2U) (A2U) (A1G) (EU) (EU) (EG) (EG)
                 (EU) (EU) (A2G) (A1U) (EG) (EG) (EU) (EU) (EG)
                 (EG) (A2U) (A1G) (EU) (EU) (A1G) (EG) (EG) (A2U)
                 (A1U) (A2G) (A2U) (EU) (EU) (A1G) (EG) (EG) (A1G)
                 (A2U) (EU) (EU) (EG) (EG) (EG) (EG) (EU) (EU)
                 (EG) (EG) (EU) (EU) (A2U) (A1U) (A1G) (A2G) (EG)
                 (EG) (EU) (EU) (EU) (EU) (A2U) (EG) (EG) (A1G)
                 (EG) (EG) (A2U) (EU) (EU) (A1G) (A1U) (EG) (EG)
                 (A2G) (EU) (EU) (A1U) (EG) (EG) (EU) (EU) (EG)
                 (EG) (A1G) (A2U) (EU) (EU) (A2G) (A1U) (EG) (EG)
                 (EU) (EU) (A2U) (A2G) (A1G) (EU) (EU) (EG) (EG)
                 (EG) (EG) (EU) (EU) (A2U) (A1G) (A1G) (A2U) (EG)
                 (EG) (EU) (EU) (A1G) (EG) (EG) (EU) (EU) (A2U)
                 (A1G) (A2U) (A1G) (A2U) (A1G) (A2U)
    24 initial guesses have been made.
 Convergence on wavefunction:    0.001000000000000
 Davidson Disk Diagonalization:  ConvIn= 1.00D-03 SkipCon=T Conv= 1.00D-03.
 Max sub-space:  2000 roots to seek:    24 dimension of matrix:        10302
 Iteration     1 Dimension    24 NMult     0 NNew     24
 Estimated number of processors is:   18
 CISAX will form     1 AO SS matrices at one time.
 NMat=     1 NSing=     1 JSym2X= 2.
 FoFJK:  IHMeth= 1 ICntrl=       0 DoSepK=F KAlg= 0 I1Cent=           0 FoldK=F
 IRaf= 960000000 NMat=       1 IRICut=       1 DoRegI=T DoRafI=F ISym2E= 2 IDoP0=0 IntGTp=1.
 FoFCou: FMM=F IPFlag=           0 FMFlag=      100000 FMFlg1=           0
         NFxFlg=           0 DoJE=F BraDBF=F KetDBF=F FulRan=T
         wScrn=  0.000000 ICntrl=         0 IOpCl=  0 I1Cent=           0 NGrid=           0
         NMat0=    1 NMatS0=      1 NMatT0=    0 NMatD0=    1 NMtDS0=    0 NMtDT0=    0
 Integrals replicated using symmetry in FoFCou.
 CoulSu:  requested number of processors reduced to:  17 ShMem   1 Linda.
 NMat=     1 NSing=     1 JSym2X= 2.
 CoulSu:  requested number of processors reduced to:  17 ShMem   1 Linda.
 NMat=     1 NSing=     1 JSym2X= 2.
 CoulSu:  requested number of processors reduced to:  17 ShMem   1 Linda.
 NMat=     1 NSing=     1 JSym2X= 2.
 CoulSu:  requested number of processors reduced to:  17 ShMem   1 Linda.
 NMat=     1 NSing=     1 JSym2X= 2.
 CoulSu:  requested number of processors reduced to:  17 ShMem   1 Linda.
 NMat=     1 NSing=     1 JSym2X= 2.
 CoulSu:  requested number of processors reduced to:  17 ShMem   1 Linda.
 NMat=     1 NSing=     1 JSym2X= 2.
 CoulSu:  requested number of processors reduced to:  17 ShMem   1 Linda.
 NMat=     1 NSing=     1 JSym2X= 2.
 CoulSu:  requested number of processors reduced to:  17 ShMem   1 Linda.
 NMat=     1 NSing=     1 JSym2X= 2.
 CoulSu:  requested number of processors reduced to:  17 ShMem   1 Linda.
 NMat=     1 NSing=     1 JSym2X= 2.
 CoulSu:  requested number of processors reduced to:  17 ShMem   1 Linda.
 NMat=     1 NSing=     1 JSym2X= 2.
 CoulSu:  requested number of processors reduced to:  17 ShMem   1 Linda.
 NMat=     1 NSing=     1 JSym2X= 2.
 CoulSu:  requested number of processors reduced to:  17 ShMem   1 Linda.
 NMat=     1 NSing=     0 JSym2X= 2.
 CoulSu:  requested number of processors reduced to:  17 ShMem   1 Linda.
 NMat=     1 NSing=     0 JSym2X= 2.
 CoulSu:  requested number of processors reduced to:  17 ShMem   1 Linda.
 NMat=     1 NSing=     0 JSym2X= 2.
 CoulSu:  requested number of processors reduced to:  17 ShMem   1 Linda.
 NMat=     1 NSing=     0 JSym2X= 2.
 CoulSu:  requested number of processors reduced to:  17 ShMem   1 Linda.
 NMat=     1 NSing=     0 JSym2X= 2.
 CoulSu:  requested number of processors reduced to:  17 ShMem   1 Linda.
 NMat=     1 NSing=     0 JSym2X= 2.
 CoulSu:  requested number of processors reduced to:  17 ShMem   1 Linda.
 NMat=     1 NSing=     0 JSym2X= 2.
 CoulSu:  requested number of processors reduced to:  17 ShMem   1 Linda.
 NMat=     1 NSing=     0 JSym2X= 2.
 CoulSu:  requested number of processors reduced to:  17 ShMem   1 Linda.
 NMat=     1 NSing=     0 JSym2X= 2.
 CoulSu:  requested number of processors reduced to:  17 ShMem   1 Linda.
 NMat=     1 NSing=     0 JSym2X= 2.
 CoulSu:  requested number of processors reduced to:  17 ShMem   1 Linda.
 NMat=     1 NSing=     0 JSym2X= 2.
 CoulSu:  requested number of processors reduced to:  17 ShMem   1 Linda.
 NMat=     1 NSing=     0 JSym2X= 2.
 CoulSu:  requested number of processors reduced to:  17 ShMem   1 Linda.
 New state      1 was old state      6
 Excitation Energies [eV] at current iteration:
 Root      1 :     6.663546643535351
 Root      2 :     6.663745243163610
 Root      3 :     7.525605721463111
 Root      4 :     7.696623243230033
 Root      5 :     7.976161884996031
 Root      6 :     8.160146359072591
 Root      7 :     8.160342591264206
 Root      8 :     8.325799687484247
 Root      9 :     8.325849212686530
 Root     10 :     8.343323381239472
 Root     11 :     8.345364981541660
 Root     12 :     8.404235630206161
 Root     13 :     8.404289943397929
 Root     14 :     8.492425593484629
 Root     15 :     8.492553222170455
 Root     16 :     8.809543494457843
 Root     17 :     8.919370072295136
 Root     18 :     9.103729789001981
 Root     19 :     9.103840201030501
 Root     20 :     9.430794195459519
 Root     21 :     9.430962446787635
 Root     22 :    10.630026658578060
 Root     23 :    10.630228646405610
 Root     24 :    11.099000488361720
 Iteration     2 Dimension    48 NMult    24 NNew     24
 Estimated number of processors is:   18
 CISAX will form     1 AO SS matrices at one time.
 NMat=     1 NSing=     1 JSym2X= 2.
 CoulSu:  requested number of processors reduced to:  17 ShMem   1 Linda.
 NMat=     1 NSing=     1 JSym2X= 2.
 CoulSu:  requested number of processors reduced to:  17 ShMem   1 Linda.
 NMat=     1 NSing=     1 JSym2X= 2.
 CoulSu:  requested number of processors reduced to:  17 ShMem   1 Linda.
 NMat=     1 NSing=     1 JSym2X= 2.
 CoulSu:  requested number of processors reduced to:  17 ShMem   1 Linda.
 NMat=     1 NSing=     1 JSym2X= 2.
 CoulSu:  requested number of processors reduced to:  17 ShMem   1 Linda.
 NMat=     1 NSing=     1 JSym2X= 2.
 CoulSu:  requested number of processors reduced to:  17 ShMem   1 Linda.
 NMat=     1 NSing=     1 JSym2X= 2.
 CoulSu:  requested number of processors reduced to:  17 ShMem   1 Linda.
 NMat=     1 NSing=     1 JSym2X= 2.
 CoulSu:  requested number of processors reduced to:  17 ShMem   1 Linda.
 NMat=     1 NSing=     1 JSym2X= 2.
 CoulSu:  requested number of processors reduced to:  17 ShMem   1 Linda.
 NMat=     1 NSing=     1 JSym2X= 2.
 CoulSu:  requested number of processors reduced to:  17 ShMem   1 Linda.
 NMat=     1 NSing=     1 JSym2X= 2.
 CoulSu:  requested number of processors reduced to:  17 ShMem   1 Linda.
 NMat=     1 NSing=     1 JSym2X= 2.
 CoulSu:  requested number of processors reduced to:  17 ShMem   1 Linda.
 NMat=     1 NSing=     0 JSym2X= 2.
 CoulSu:  requested number of processors reduced to:  17 ShMem   1 Linda.
 NMat=     1 NSing=     0 JSym2X= 2.
 CoulSu:  requested number of processors reduced to:  17 ShMem   1 Linda.
 NMat=     1 NSing=     0 JSym2X= 2.
 CoulSu:  requested number of processors reduced to:  17 ShMem   1 Linda.
 NMat=     1 NSing=     0 JSym2X= 2.
 CoulSu:  requested number of processors reduced to:  17 ShMem   1 Linda.
 NMat=     1 NSing=     0 JSym2X= 2.
 CoulSu:  requested number of processors reduced to:  17 ShMem   1 Linda.
 NMat=     1 NSing=     0 JSym2X= 2.
 CoulSu:  requested number of processors reduced to:  17 ShMem   1 Linda.
 NMat=     1 NSing=     0 JSym2X= 2.
 CoulSu:  requested number of processors reduced to:  17 ShMem   1 Linda.
 NMat=     1 NSing=     0 JSym2X= 2.
 CoulSu:  requested number of processors reduced to:  17 ShMem   1 Linda.
 NMat=     1 NSing=     0 JSym2X= 2.
 CoulSu:  requested number of processors reduced to:  17 ShMem   1 Linda.
 NMat=     1 NSing=     0 JSym2X= 2.
 CoulSu:  requested number of processors reduced to:  17 ShMem   1 Linda.
 NMat=     1 NSing=     0 JSym2X= 2.
 CoulSu:  requested number of processors reduced to:  17 ShMem   1 Linda.
 NMat=     1 NSing=     0 JSym2X= 2.
 CoulSu:  requested number of processors reduced to:  17 ShMem   1 Linda.
 Root      1 not converged, maximum delta is    0.105239784209151
 Excitation Energies [eV] at current iteration:
 Root      1 :     6.218608447504779   Change is   -0.444938196030572
 Root      2 :     6.219048528854796   Change is   -0.444696714308814
 Root      3 :     6.493700376961949   Change is   -1.202922866268084
 Root      4 :     7.040714691912308   Change is   -0.935447193083724
 Root      5 :     7.052810565388676   Change is   -0.472795156074435
 Root      6 :     7.579938947457522   Change is   -0.580207411615069
 Root      7 :     7.580033972116607   Change is   -0.580308619147598
 Root      8 :     7.924135660041428   Change is   -0.568289933443200
 Root      9 :     7.924392747190773   Change is   -0.568160474979682
 Root     10 :     7.956200857928322   Change is   -0.369598829555926
 Root     11 :     7.956523442256516   Change is   -0.369325770430014
 Root     12 :     7.999471308022899   Change is   -0.343852073216572
 Root     13 :     8.085774539389037   Change is   -0.259590442152622
 Root     14 :     8.219500488396653   Change is   -0.184735141809509
 Root     15 :     8.219709774643441   Change is   -0.184580168754488
 Root     16 :     8.337744854455932   Change is   -0.471798640001911
 Root     17 :     8.532152472770118   Change is   -0.571577316231862
 Root     18 :     8.532574901772971   Change is   -0.571265299257529
 Root     19 :     8.707800030609571   Change is   -0.211570041685566
 Root     20 :     9.131060417062427   Change is   -0.299733778397093
 Root     21 :     9.131137968712068   Change is   -0.299824478075568
 Root     22 :     9.231965709759873   Change is   -1.398262936645736
 Root     23 :     9.231979689639044   Change is   -1.398046968939018
 Root     24 :     9.670918602162471   Change is   -1.428081886199248
 Iteration     3 Dimension    54 NMult    48 NNew      6
 Estimated number of processors is:   18
 CISAX will form     1 AO SS matrices at one time.
 NMat=     1 NSing=     1 JSym2X= 2.
 CoulSu:  requested number of processors reduced to:  17 ShMem   1 Linda.
 NMat=     1 NSing=     1 JSym2X= 2.
 CoulSu:  requested number of processors reduced to:  17 ShMem   1 Linda.
 NMat=     1 NSing=     1 JSym2X= 2.
 CoulSu:  requested number of processors reduced to:  17 ShMem   1 Linda.
 NMat=     1 NSing=     0 JSym2X= 2.
 CoulSu:  requested number of processors reduced to:  17 ShMem   1 Linda.
 NMat=     1 NSing=     0 JSym2X= 2.
 CoulSu:  requested number of processors reduced to:  17 ShMem   1 Linda.
 NMat=     1 NSing=     0 JSym2X= 2.
 CoulSu:  requested number of processors reduced to:  17 ShMem   1 Linda.
 Root      1 not converged, maximum delta is    0.027642838116423
 Excitation Energies [eV] at current iteration:
 Root      1 :     6.198038987543806   Change is   -0.020569459960972
 Root      2 :     6.198481239845179   Change is   -0.020567289009617
 Root      3 :     6.321904985645528   Change is   -0.171795391316422
 Root      4 :     7.542951442799915   Change is   -0.036987504657607
 Root      5 :     7.542995376931282   Change is   -0.037038595185325
 Root      6 :     7.948113449879670   Change is   -0.051357858143229
 Iteration     4 Dimension    60 NMult    54 NNew      6
 Estimated number of processors is:   18
 CISAX will form     1 AO SS matrices at one time.
 NMat=     1 NSing=     1 JSym2X= 2.
 CoulSu:  requested number of processors reduced to:  17 ShMem   1 Linda.
 NMat=     1 NSing=     1 JSym2X= 2.
 CoulSu:  requested number of processors reduced to:  17 ShMem   1 Linda.
 NMat=     1 NSing=     1 JSym2X= 2.
 CoulSu:  requested number of processors reduced to:  17 ShMem   1 Linda.
 NMat=     1 NSing=     0 JSym2X= 2.
 CoulSu:  requested number of processors reduced to:  17 ShMem   1 Linda.
 NMat=     1 NSing=     0 JSym2X= 2.
 CoulSu:  requested number of processors reduced to:  17 ShMem   1 Linda.
 NMat=     1 NSing=     0 JSym2X= 2.
 CoulSu:  requested number of processors reduced to:  17 ShMem   1 Linda.
 Root      1 not converged, maximum delta is    0.005324857860275
 Excitation Energies [eV] at current iteration:
 Root      1 :     6.196000134788169   Change is   -0.002038852755638
 Root      2 :     6.196443218756495   Change is   -0.002038021088685
 Root      3 :     6.301601546646210   Change is   -0.020303438999318
 Root      4 :     7.539209982363740   Change is   -0.003741460436175
 Root      5 :     7.539292659080535   Change is   -0.003702717850748
 Root      6 :     7.934013855673861   Change is   -0.014099594205809
 Iteration     5 Dimension    66 NMult    60 NNew      6
 Estimated number of processors is:   18
 CISAX will form     1 AO SS matrices at one time.
 NMat=     1 NSing=     1 JSym2X= 2.
 CoulSu:  requested number of processors reduced to:  17 ShMem   1 Linda.
 NMat=     1 NSing=     1 JSym2X= 2.
 CoulSu:  requested number of processors reduced to:  17 ShMem   1 Linda.
 NMat=     1 NSing=     1 JSym2X= 2.
 CoulSu:  requested number of processors reduced to:  17 ShMem   1 Linda.
 NMat=     1 NSing=     0 JSym2X= 2.
 CoulSu:  requested number of processors reduced to:  17 ShMem   1 Linda.
 NMat=     1 NSing=     0 JSym2X= 2.
 CoulSu:  requested number of processors reduced to:  17 ShMem   1 Linda.
 NMat=     1 NSing=     0 JSym2X= 2.
 CoulSu:  requested number of processors reduced to:  17 ShMem   1 Linda.
 Root      1 not converged, maximum delta is    0.001832385252556
 Excitation Energies [eV] at current iteration:
 Root      1 :     6.195802309829330   Change is   -0.000197824958839
 Root      2 :     6.196245471511364   Change is   -0.000197747245130
 Root      3 :     6.299387521191859   Change is   -0.002214025454351
 Root      4 :     7.538963311606524   Change is   -0.000246670757216
 Root      5 :     7.539047655295037   Change is   -0.000245003785498
 Root      6 :     7.932791983688070   Change is   -0.001221871985791
 Iteration     6 Dimension    72 NMult    66 NNew      6
 Estimated number of processors is:   18
 CISAX will form     1 AO SS matrices at one time.
 NMat=     1 NSing=     1 JSym2X= 2.
 CoulSu:  requested number of processors reduced to:  17 ShMem   1 Linda.
 NMat=     1 NSing=     1 JSym2X= 2.
 CoulSu:  requested number of processors reduced to:  17 ShMem   1 Linda.
 NMat=     1 NSing=     1 JSym2X= 2.
 CoulSu:  requested number of processors reduced to:  17 ShMem   1 Linda.
 NMat=     1 NSing=     0 JSym2X= 2.
 CoulSu:  requested number of processors reduced to:  17 ShMem   1 Linda.
 NMat=     1 NSing=     0 JSym2X= 2.
 CoulSu:  requested number of processors reduced to:  17 ShMem   1 Linda.
 NMat=     1 NSing=     0 JSym2X= 2.
 CoulSu:  requested number of processors reduced to:  17 ShMem   1 Linda.
 Root      1 has converged.
 Excitation Energies [eV] at current iteration:
 Root      1 :     6.195784433666736   Change is   -0.000017876162594
 Root      2 :     6.196227596197929   Change is   -0.000017875313436
 Root      3 :     6.299312121947558   Change is   -0.000075399244300
 Root      4 :     7.538951633410329   Change is   -0.000011678196195
 Root      5 :     7.539036035836892   Change is   -0.000011619458145
 Root      6 :     7.932671996123262   Change is   -0.000119987564808
 Convergence achieved on expansion vectors.
 ***********************************************************************
 Stability analysis using <AA,BB:AA,BB> singles matrix:
 ***********************************************************************
 1PDM for each excited state written to RWF  633
 Ground to excited state transition densities written to RWF  633

 Eigenvectors of the stability matrix:
 
 Eigenvector   1:      Triplet-EU   Eigenvalue= 0.2276909  <S**2>=2.000
      15 -> 19        -0.11454
      16 -> 20         0.11454
      17 -> 19        -0.40139
      17 -> 20         0.51580
      17 -> 26        -0.13696
 The wavefunction is stable under the perturbations considered.
 Leave Link  914 at Sat Apr 17 05:36:09 2021, MaxMem=   104857600 cpu:           19550.5 elap:             506.2
 (Enter /s/ls4/users/knvvv/bin/g16sse/l508.exe)
 The wavefunction is already stable.
 Leave Link  508 at Sat Apr 17 05:36:09 2021, MaxMem=   104857600 cpu:               2.2 elap:               0.1
 (Enter /s/ls4/users/knvvv/bin/g16sse/l601.exe)
 Copying SCF densities to generalized density rwf, IOpCl= 0 IROHF=0.

 **********************************************************************

            Population analysis using the SCF density.

 **********************************************************************

 Orbital symmetries:
       Occupied  (A1G) (A2U) (A1G) (A2U) (A1G) (EU) (EU) (EG) (EG)
                 (A2U) (A1G) (A2U) (EU) (EU) (EG) (EG) (A1G)
       Virtual   (A2U) (EU) (EU) (A1G) (EG) (EG) (A1G) (A2U) (EU)
                 (EU) (EG) (EG) (A2U) (EU) (EU) (EG) (EG) (A1G)
                 (EU) (EU) (A1G) (A2U) (EG) (EG) (A2U) (A1G) (EG)
                 (EG) (A2U) (EU) (EU) (A1U) (A1G) (A2G) (EU) (EU)
                 (EG) (EG) (EU) (EU) (EG) (EG) (A2U) (A1G) (EG)
                 (EG) (EU) (EU) (A1G) (EU) (EU) (A2U) (A2U) (EG)
                 (EG) (A1U) (EU) (EU) (A1G) (EG) (EG) (A2U) (EG)
                 (EG) (EU) (EU) (EG) (EG) (A2U) (A1G) (A2G) (EU)
                 (EU) (A1G) (A2U) (EG) (EG) (A2U) (EU) (EU) (A1G)
                 (EG) (EG) (EU) (EU) (A1G) (A2U) (EG) (EG) (EU)
                 (EU) (EU) (EU) (A1U) (A2G) (EG) (EG) (EU) (EU)
                 (A1G) (EG) (EG) (A2U) (EU) (EU) (EG) (EG) (A1G)
                 (A1U) (A1G) (A2U) (EU) (EU) (EG) (EG) (A2U) (A1U)
                 (A2G) (EG) (EG) (EU) (EU) (A2G) (EU) (EU) (A2U)
                 (A1G) (EG) (EG) (EG) (EG) (A2U) (EU) (EU) (A1G)
                 (A1G) (A1U) (EG) (EG) (EU) (EU) (A2U) (EU) (EU)
                 (A1G) (EG) (EG) (A2G) (A2U) (EG) (EG) (EU) (EU)
                 (A1G) (EU) (EU) (EG) (EG) (A2U) (EG) (EG) (EU)
                 (EU) (A2U) (A1G) (EG) (EG) (EU) (EU) (A1G) (EU)
                 (EU) (A2U) (EG) (EG) (A1U) (A2G) (EG) (EG) (A1G)
                 (EU) (EU) (A2U) (A2U) (A1G) (EU) (EU) (EG) (EG)
                 (EU) (EU) (A2G) (A1U) (EG) (EG) (EU) (EU) (EG)
                 (EG) (A2U) (A1G) (EU) (EU) (A1G) (EG) (EG) (A2U)
                 (A1U) (A2G) (A2U) (EU) (EU) (A1G) (EG) (EG) (A1G)
                 (A2U) (EU) (EU) (EG) (EG) (EG) (EG) (EU) (EU)
                 (EG) (EG) (EU) (EU) (A2U) (A1U) (A1G) (A2G) (EG)
                 (EG) (EU) (EU) (EU) (EU) (A2U) (EG) (EG) (A1G)
                 (EG) (EG) (A2U) (EU) (EU) (A1G) (A1U) (EG) (EG)
                 (A2G) (EU) (EU) (A1U) (EG) (EG) (EU) (EU) (EG)
                 (EG) (A1G) (A2U) (EU) (EU) (A2G) (A1U) (EG) (EG)
                 (EU) (EU) (A2U) (A2G) (A1G) (EU) (EU) (EG) (EG)
                 (EG) (EG) (EU) (EU) (A2U) (A1G) (A1G) (A2U) (EG)
                 (EG) (EU) (EU) (A1G) (EG) (EG) (EU) (EU) (A2U)
                 (A1G) (A2U) (A1G) (A2U) (A1G) (A2U)
 The electronic state is 1-A1G.
 Alpha  occ. eigenvalues --  -66.99874 -66.99874  -5.54140  -5.54128  -3.85317
 Alpha  occ. eigenvalues --   -3.85267  -3.85267  -3.85261  -3.85261  -3.85253
 Alpha  occ. eigenvalues --   -0.64582  -0.57784  -0.42305  -0.42305  -0.39666
 Alpha  occ. eigenvalues --   -0.39666  -0.34606
 Alpha virt. eigenvalues --    0.02557   0.03738   0.03738   0.04194   0.06101
 Alpha virt. eigenvalues --    0.06101   0.09475   0.09937   0.09944   0.09944
 Alpha virt. eigenvalues --    0.13563   0.13563   0.14580   0.17562   0.17562
 Alpha virt. eigenvalues --    0.23168   0.23168   0.23895   0.24344   0.24344
 Alpha virt. eigenvalues --    0.25784   0.29797   0.31551   0.31551   0.33122
 Alpha virt. eigenvalues --    0.37032   0.37777   0.37777   0.40487   0.46917
 Alpha virt. eigenvalues --    0.46917   0.52832   0.54041   0.56564   0.58214
 Alpha virt. eigenvalues --    0.58214   0.58674   0.58674   0.62857   0.62857
 Alpha virt. eigenvalues --    0.66775   0.66775   0.68109   0.68309   0.68441
 Alpha virt. eigenvalues --    0.68441   0.69768   0.69768   0.73244   0.74118
 Alpha virt. eigenvalues --    0.74118   0.77835   0.81029   0.82151   0.82151
 Alpha virt. eigenvalues --    0.82236   0.88051   0.88051   0.89028   0.90312
 Alpha virt. eigenvalues --    0.90312   0.94301   0.99784   0.99784   1.03129
 Alpha virt. eigenvalues --    1.03129   1.05523   1.05523   1.05677   1.06906
 Alpha virt. eigenvalues --    1.08471   1.13945   1.13945   1.14511   1.19640
 Alpha virt. eigenvalues --    1.27701   1.27701   1.29537   1.31076   1.31076
 Alpha virt. eigenvalues --    1.32140   1.36175   1.36175   1.38539   1.38539
 Alpha virt. eigenvalues --    1.40878   1.59982   1.70012   1.70012   1.70754
 Alpha virt. eigenvalues --    1.70754   1.71558   1.71558   1.75427   1.81166
 Alpha virt. eigenvalues --    1.85432   1.85432   1.87795   1.87795   1.91294
 Alpha virt. eigenvalues --    1.94852   1.94852   1.97407   2.01260   2.01260
 Alpha virt. eigenvalues --    2.02113   2.02113   2.03798   2.03872   2.10384
 Alpha virt. eigenvalues --    2.10849   2.11857   2.11857   2.16224   2.16224
 Alpha virt. eigenvalues --    2.18914   2.19566   2.20793   2.23263   2.23263
 Alpha virt. eigenvalues --    2.27664   2.27664   2.29601   2.31702   2.31702
 Alpha virt. eigenvalues --    2.33092   2.33144   2.35695   2.35695   2.39042
 Alpha virt. eigenvalues --    2.39042   2.42061   2.46634   2.46634   2.49357
 Alpha virt. eigenvalues --    2.50901   2.54095   2.56111   2.56111   2.57610
 Alpha virt. eigenvalues --    2.57610   2.61432   2.70672   2.70672   2.71596
 Alpha virt. eigenvalues --    2.72092   2.72092   2.74068   2.77110   2.77628
 Alpha virt. eigenvalues --    2.77628   2.80498   2.80498   2.89971   2.93215
 Alpha virt. eigenvalues --    2.93215   2.96723   2.96723   3.08295   3.13128
 Alpha virt. eigenvalues --    3.13128   3.15811   3.15811   3.16812   3.21936
 Alpha virt. eigenvalues --    3.30412   3.30412   3.31074   3.31074   3.32253
 Alpha virt. eigenvalues --    3.39239   3.39239   3.39275   3.46409   3.46409
 Alpha virt. eigenvalues --    3.48754   3.64546   3.67119   3.67119   3.70338
 Alpha virt. eigenvalues --    3.77557   3.77557   4.10358   4.82837   4.86981
 Alpha virt. eigenvalues --    5.38729   5.38729   5.40023   5.40023   5.47384
 Alpha virt. eigenvalues --    5.47384   5.53722   5.53788   5.54250   5.54250
 Alpha virt. eigenvalues --    5.58766   5.58766   5.60179   5.60179   5.62082
 Alpha virt. eigenvalues --    5.62493   5.64815   5.64815   5.67693   5.72796
 Alpha virt. eigenvalues --    5.72796   5.80698   5.81305   5.89753   5.93128
 Alpha virt. eigenvalues --    5.95328   5.95328   5.99376   6.00051   6.00051
 Alpha virt. eigenvalues --    6.04047   6.05031   6.19488   6.19488   6.21010
 Alpha virt. eigenvalues --    6.21010   6.23930   6.23930   6.29918   6.29918
 Alpha virt. eigenvalues --    6.40244   6.40244   6.43834   6.43834   6.50415
 Alpha virt. eigenvalues --    6.64161   6.64813   6.67673   6.74056   6.74056
 Alpha virt. eigenvalues --    6.74512   6.74512   6.94640   6.94640   6.97761
 Alpha virt. eigenvalues --    6.98829   6.98829   7.05581   7.56984   7.56984
 Alpha virt. eigenvalues --    7.58039   7.60254   7.60254   7.62840   7.64596
 Alpha virt. eigenvalues --    7.67535   7.67535   7.69969   7.70291   7.70291
 Alpha virt. eigenvalues --    7.78233   7.80738   7.80738   7.83156   7.83156
 Alpha virt. eigenvalues --    7.83687   7.83687   7.85771   7.88295   7.88482
 Alpha virt. eigenvalues --    7.88482   7.88612   8.33615   8.41847   8.41847
 Alpha virt. eigenvalues --    8.46310   8.46310   8.51237   8.54349   8.57490
 Alpha virt. eigenvalues --    8.60174   8.60174   8.60356   8.60356   8.74050
 Alpha virt. eigenvalues --    8.74050   8.78817   8.78817   8.82098   8.82231
 Alpha virt. eigenvalues --    9.25545   9.28094   9.29278   9.29278   9.32147
 Alpha virt. eigenvalues --    9.32147  11.90814  12.56860  12.56860  12.60363
 Alpha virt. eigenvalues --   12.60363  12.76460  16.61938  16.79822  58.19233
 Alpha virt. eigenvalues --   58.34752 315.38527 315.63185
          Condensed to atoms (all electrons):
               1          2          3          4          5          6
     1  Si  12.241106   0.424321   0.403404   0.403404   0.403404  -0.026699
     2  Si   0.424321  12.241106  -0.026699  -0.026699  -0.026699   0.403404
     3  H    0.403404  -0.026699   0.719460  -0.014907  -0.014907   0.000302
     4  H    0.403404  -0.026699  -0.014907   0.719460  -0.014907   0.000302
     5  H    0.403404  -0.026699  -0.014907  -0.014907   0.719460   0.001197
     6  H   -0.026699   0.403404   0.000302   0.000302   0.001197   0.719460
     7  H   -0.026699   0.403404   0.000302   0.001197   0.000302  -0.014907
     8  H   -0.026699   0.403404   0.001197   0.000302   0.000302  -0.014907
               7          8
     1  Si  -0.026699  -0.026699
     2  Si   0.403404   0.403404
     3  H    0.000302   0.001197
     4  H    0.001197   0.000302
     5  H    0.000302   0.000302
     6  H   -0.014907  -0.014907
     7  H    0.719460  -0.014907
     8  H   -0.014907   0.719460
 Mulliken charges:
               1
     1  Si   0.204458
     2  Si   0.204458
     3  H   -0.068153
     4  H   -0.068153
     5  H   -0.068153
     6  H   -0.068153
     7  H   -0.068153
     8  H   -0.068153
 Sum of Mulliken charges =  -0.00000
 Mulliken charges with hydrogens summed into heavy atoms:
               1
     1  Si  -0.000000
     2  Si  -0.000000
 Electronic spatial extent (au):  <R**2>=            306.2044
 Charge=             -0.0000 electrons
 Dipole moment (field-independent basis, Debye):
    X=              0.0000    Y=             -0.0000    Z=             -0.0000  Tot=              0.0000
 Quadrupole moment (field-independent basis, Debye-Ang):
   XX=            -31.1759   YY=            -31.1759   ZZ=            -32.0503
   XY=              0.0000   XZ=              0.0000   YZ=             -0.0000
 Traceless Quadrupole moment (field-independent basis, Debye-Ang):
   XX=              0.2915   YY=              0.2915   ZZ=             -0.5829
   XY=              0.0000   XZ=              0.0000   YZ=             -0.0000
 Octapole moment (field-independent basis, Debye-Ang**2):
  XXX=             -0.0000  YYY=              0.0000  ZZZ=              0.0000  XYY=              0.0000
  XXY=              0.0000  XXZ=             -0.0000  XZZ=              0.0000  YZZ=              0.0000
  YYZ=              0.0000  XYZ=             -0.0000
 Hexadecapole moment (field-independent basis, Debye-Ang**3):
 XXXX=            -82.3799 YYYY=            -82.3799 ZZZZ=           -349.3458 XXXY=              0.0000
 XXXZ=             -0.0000 YYYX=              0.0000 YYYZ=             -1.4616 ZZZX=              0.0000
 ZZZY=             -0.0000 XXYY=            -27.4600 XXZZ=            -75.6797 YYZZ=            -75.6797
 XXYZ=              1.4616 YYXZ=              0.0000 ZZXY=              0.0000
 N-N= 9.143639669887D+01 E-N=-1.569679814617D+03  KE= 5.814170342144D+02
 PrsmSu:  requested number of processors reduced to:  21 ShMem   1 Linda.
 No NMR shielding tensors so no spin-rotation constants.
 Leave Link  601 at Sat Apr 17 05:36:21 2021, MaxMem=   104857600 cpu:             546.6 elap:              11.8
 (Enter /s/ls4/users/knvvv/bin/g16sse/l9999.exe)

 Test job not archived.
 1\1\GINC-N178\Stability\RM062X\def2QZVP\H6Si2\KNVVV\17-Apr-2021\0\\#P 
 M062X/Def2QZVP Integral=UltraFineGrid SCF=NoSymm Stable=(RExt, Opt) IO
 p(1/33=1)\\Database calculations.\\0,1\Si,0,0.,0.,1.1609054\Si,0,0.,0.
 ,-1.1609054\H,0,1.197029,0.691105,1.677962\H,0,0.,-1.3822101,1.677962\
 H,0,-1.197029,0.691105,1.677962\H,0,1.197029,-0.691105,-1.677962\H,0,0
 .,1.3822101,-1.677962\H,0,-1.197029,-0.691105,-1.677962\\Version=ES64L
 -G16RevA.03\State=1-A1G\HF=-582.5535318\RMSD=5.371e-09\Dipole=0.,0.,0.
 \Quadrupole=0.2166902,0.2166902,-0.4333805,0.,0.,0.\PG=D03D [C3(Si1.Si
 1),3SGD(H2)]\\@


 THE BEST WAY TO CONVINCE A FOOL THAT HE IS WRONG 
 IS TO LET HIM HAVE HIS OWN WAY.

                                         JOSH BILLINGS
 Job cpu time:       0 days 12 hours 21 minutes  7.8 seconds.
 Elapsed time:       0 days  0 hours 17 minutes 28.2 seconds.
 File lengths (MBytes):  RWF=    272 Int=      0 D2E=      0 Chk=     14 Scr=      1
 Normal termination of Gaussian 16 at Sat Apr 17 05:36:21 2021.
