 Entering Gaussian System, Link 0=/s/ls4/users/knvvv/bin/g16sse/g16
 Input=data/database/M062X--def2-QZVPPD--12_12_G21IP.gjf
 Output=data/database/M062X--def2-QZVPPD--12_12_G21IP.log
 Initial command:
 /s/ls4/users/knvvv/bin/g16sse/l1.exe "/s/ls4/users/knvvv/bin/scratch/Gau-17885.inp" -scrdir="/s/ls4/users/knvvv/bin/scratch/"
 Entering Link 1 = /s/ls4/users/knvvv/bin/g16sse/l1.exe PID=     17886.
  
 Copyright (c) 1988,1990,1992,1993,1995,1998,2003,2009,2016,
            Gaussian, Inc.  All Rights Reserved.
  
 This is part of the Gaussian(R) 16 program.  It is based on
 the Gaussian(R) 09 system (copyright 2009, Gaussian, Inc.),
 the Gaussian(R) 03 system (copyright 2003, Gaussian, Inc.),
 the Gaussian(R) 98 system (copyright 1998, Gaussian, Inc.),
 the Gaussian(R) 94 system (copyright 1995, Gaussian, Inc.),
 the Gaussian 92(TM) system (copyright 1992, Gaussian, Inc.),
 the Gaussian 90(TM) system (copyright 1990, Gaussian, Inc.),
 the Gaussian 88(TM) system (copyright 1988, Gaussian, Inc.),
 the Gaussian 86(TM) system (copyright 1986, Carnegie Mellon
 University), and the Gaussian 82(TM) system (copyright 1983,
 Carnegie Mellon University). Gaussian is a federally registered
 trademark of Gaussian, Inc.
  
 This software contains proprietary and confidential information,
 including trade secrets, belonging to Gaussian, Inc.
  
 This software is provided under written license and may be
 used, copied, transmitted, or stored only in accord with that
 written license.
  
 The following legend is applicable only to US Government
 contracts under FAR:
  
                    RESTRICTED RIGHTS LEGEND
  
 Use, reproduction and disclosure by the US Government is
 subject to restrictions as set forth in subparagraphs (a)
 and (c) of the Commercial Computer Software - Restricted
 Rights clause in FAR 52.227-19.
  
 Gaussian, Inc.
 340 Quinnipiac St., Bldg. 40, Wallingford CT 06492
  
  
 ---------------------------------------------------------------
 Warning -- This program may not be used in any manner that
 competes with the business of Gaussian, Inc. or will provide
 assistance to any competitor of Gaussian, Inc.  The licensee
 of this program is prohibited from giving any competitor of
 Gaussian, Inc. access to this program.  By using this program,
 the user acknowledges that Gaussian, Inc. is engaged in the
 business of creating and licensing software in the field of
 computational chemistry and represents and warrants to the
 licensee that it is not a competitor of Gaussian, Inc. and that
 it will not use this program in any manner prohibited above.
 ---------------------------------------------------------------
  

 Cite this work as:
 Gaussian 16, Revision A.03,
 M. J. Frisch, G. W. Trucks, H. B. Schlegel, G. E. Scuseria, 
 M. A. Robb, J. R. Cheeseman, G. Scalmani, V. Barone, 
 G. A. Petersson, H. Nakatsuji, X. Li, M. Caricato, A. V. Marenich, 
 J. Bloino, B. G. Janesko, R. Gomperts, B. Mennucci, H. P. Hratchian, 
 J. V. Ortiz, A. F. Izmaylov, J. L. Sonnenberg, D. Williams-Young, 
 F. Ding, F. Lipparini, F. Egidi, J. Goings, B. Peng, A. Petrone, 
 T. Henderson, D. Ranasinghe, V. G. Zakrzewski, J. Gao, N. Rega, 
 G. Zheng, W. Liang, M. Hada, M. Ehara, K. Toyota, R. Fukuda, 
 J. Hasegawa, M. Ishida, T. Nakajima, Y. Honda, O. Kitao, H. Nakai, 
 T. Vreven, K. Throssell, J. A. Montgomery, Jr., J. E. Peralta, 
 F. Ogliaro, M. J. Bearpark, J. J. Heyd, E. N. Brothers, K. N. Kudin, 
 V. N. Staroverov, T. A. Keith, R. Kobayashi, J. Normand, 
 K. Raghavachari, A. P. Rendell, J. C. Burant, S. S. Iyengar, 
 J. Tomasi, M. Cossi, J. M. Millam, M. Klene, C. Adamo, R. Cammi, 
 J. W. Ochterski, R. L. Martin, K. Morokuma, O. Farkas, 
 J. B. Foresman, and D. J. Fox, Gaussian, Inc., Wallingford CT, 2016.
 
 ******************************************
 Gaussian 16:  ES64L-G16RevA.03 25-Dec-2016
                17-Apr-2021 
 ******************************************
 %RWF=temp19_26599,70GB
 %nprocshared=48
 Will use up to   48 processors via shared memory.
 Default route: MaxDisk=80GB
 ----------------------------------------------------------------------
 #P M062X/GEN Integral=UltraFineGrid SCF=NoSymm Stable=(RExt, Opt) IOp(
 1/33=1)
 ----------------------------------------------------------------------
 1/33=1,38=1,172=1/1;
 2/12=2,17=6,18=5,40=1/2;
 3/5=7,11=2,25=1,30=1,74=-55,75=-5/1,2,3;
 4/9=2/1;
 5/5=2,38=5/2;
 6/7=2,8=2,9=2,10=2,28=1/1;
 8/6=1,10=90,11=11/1;
 9/8=-3,42=1,46=1/14;
 5/5=2,8=3,17=40,38=5/8(-2);
 6/7=2,8=2,9=2,10=2,28=1/1;
 99/5=1,9=1/99;
 Leave Link    1 at Sat Apr 17 05:31:41 2021, MaxMem=           0 cpu:               8.3 elap:               0.2
 (Enter /s/ls4/users/knvvv/bin/g16sse/l101.exe)
 ONIOM data not found on unit 2.
 ----------------------
 Database calculations.
 ----------------------
 TstMul:  ICh=     0
 TstMul:  Mul=     2
 TstMul:  ICh=     0
 TstMul:  Mul=     2
 Symbolic Z-matrix:
 Charge =  0 Multiplicity = 2
 O                     0.        0.       -0.48734 
 H                     0.        0.        0.48734 
 
 RdStrC is calling ZToCFu for IStruc=1 NZ=     2.
 PrtBox:  NBox=     1 Levels=  1 BoxLen=    8.00 SMaxX=        1.84
          Shift=            0.000000            0.000000            0.920940
 Box      1 Number                   0 centers from      1 to      2:
 After GenITR:
 ITRead=  0  0
 MicOpt= -1 -1
 ITRead=  0  0
 MicOpt= -1 -1
 NAtoms=      2 NQM=        2 NQMF=       0 NMMI=      0 NMMIF=      0
                NMic=       0 NMicF=      0.
                    Isotopes and Nuclear Properties:
 (Nuclear quadrupole moments (NQMom) in fm**2, nuclear magnetic moments (NMagM)
  in nuclear magnetons)

  Atom         1           2
 IAtWgt=          16           1
 AtmWgt=  15.9949146   1.0078250
 NucSpn=           0           1
 AtZEff=  -0.0000000  -0.0000000
 NQMom=    0.0000000   0.0000000
 NMagM=    0.0000000   2.7928460
 AtZNuc=   8.0000000   1.0000000
 No MM parameters found.
 Leave Link  101 at Sat Apr 17 05:31:41 2021, MaxMem=   104857600 cpu:               6.9 elap:               0.2
 (Enter /s/ls4/users/knvvv/bin/g16sse/l202.exe)
                          Input orientation:                          
 ---------------------------------------------------------------------
 Center     Atomic      Atomic             Coordinates (Angstroms)
 Number     Number       Type             X           Y           Z
 ---------------------------------------------------------------------
      1          8           0        0.000000    0.000000   -0.487340
      2          1           0        0.000000    0.000000    0.487340
 ---------------------------------------------------------------------
 Stoichiometry    HO(2)
 Framework group  C*V[C*(HO)]
 Deg. of freedom     1
 Full point group                 C*V     NOp   4
 Largest Abelian subgroup         C2V     NOp   4
 Largest concise Abelian subgroup C1      NOp   1
                         Standard orientation:                         
 ---------------------------------------------------------------------
 Center     Atomic      Atomic             Coordinates (Angstroms)
 Number     Number       Type             X           Y           Z
 ---------------------------------------------------------------------
      1          8           0        0.000000    0.000000    0.108298
      2          1           0        0.000000    0.000000   -0.866383
 ---------------------------------------------------------------------
 Rotational constants (GHZ):           0.0000000         561.1053497         561.1053497
 Leave Link  202 at Sat Apr 17 05:31:42 2021, MaxMem=   104857600 cpu:               5.6 elap:               0.1
 (Enter /s/ls4/users/knvvv/bin/g16sse/l301.exe)
 General basis read from cards:  (5D, 7F)
 Centers:       2
 S 4 1.00
     Exponent=  1.9069169000D+02 Coefficients=  7.0815167000D-04
     Exponent=  2.8605532000D+01 Coefficients=  5.4678827000D-03
     Exponent=  6.5095943000D+00 Coefficients=  2.7966605000D-02
     Exponent=  1.8412455000D+00 Coefficients=  1.0764538000D-01
 S 1 1.00
     Exponent=  5.9853725000D-01 Coefficients=  1.0000000000D+00
 S 1 1.00
     Exponent=  2.1397624000D-01 Coefficients=  1.0000000000D+00
 S 1 1.00
     Exponent=  8.0316286000D-02 Coefficients=  1.0000000000D+00
 P 1 1.00
     Exponent=  2.2920000000D+00 Coefficients=  1.0000000000D+00
 P 1 1.00
     Exponent=  8.3800000000D-01 Coefficients=  1.0000000000D+00
 P 1 1.00
     Exponent=  2.9200000000D-01 Coefficients=  1.0000000000D+00
 P 1 1.00
     Exponent=  8.4063199228D-02 Coefficients=  1.0000000000D+00
 D 1 1.00
     Exponent=  2.0620000000D+00 Coefficients=  1.0000000000D+00
 D 1 1.00
     Exponent=  6.6200000000D-01 Coefficients=  1.0000000000D+00
 F 1 1.00
     Exponent=  1.3970000000D+00 Coefficients=  1.0000000000D+00
 ****
 Centers:       1
 S 8 1.00
     Exponent=  1.1650646908D+05 Coefficients=  4.0383857939D-05
     Exponent=  1.7504349724D+04 Coefficients=  3.1255139004D-04
     Exponent=  3.9934513230D+03 Coefficients=  1.6341473495D-03
     Exponent=  1.1330063186D+03 Coefficients=  6.8283224757D-03
     Exponent=  3.6999569594D+02 Coefficients=  2.4124410221D-02
     Exponent=  1.3362074349D+02 Coefficients=  7.2730206154D-02
     Exponent=  5.2035643649D+01 Coefficients=  1.7934429892D-01
     Exponent=  2.1461939313D+01 Coefficients=  3.3059588895D-01
 S 2 1.00
     Exponent=  8.9835051252D+01 Coefficients=  9.6468652996D-02
     Exponent=  2.6428010844D+01 Coefficients=  9.4117481120D-01
 S 1 1.00
     Exponent=  9.2822824649D+00 Coefficients=  1.0000000000D+00
 S 1 1.00
     Exponent=  4.0947728533D+00 Coefficients=  1.0000000000D+00
 S 1 1.00
     Exponent=  1.3255349078D+00 Coefficients=  1.0000000000D+00
 S 1 1.00
     Exponent=  5.1877230787D-01 Coefficients=  1.0000000000D+00
 S 1 1.00
     Exponent=  1.9772676454D-01 Coefficients=  1.0000000000D+00
 S 1 1.00
     Exponent=  6.9638535104D-02 Coefficients=  1.0000000000D+00
 P 5 1.00
     Exponent=  1.9115255810D+02 Coefficients=  2.5115697705D-03
     Exponent=  4.5233356739D+01 Coefficients=  2.0039240864D-02
     Exponent=  1.4353465922D+01 Coefficients=  9.3609064762D-02
     Exponent=  5.2422371832D+00 Coefficients=  3.0618127124D-01
     Exponent=  2.0792418599D+00 Coefficients=  6.7810501439D-01
 P 1 1.00
     Exponent=  8.4282371424D-01 Coefficients=  1.0000000000D+00
 P 1 1.00
     Exponent=  3.3617694891D-01 Coefficients=  1.0000000000D+00
 P 1 1.00
     Exponent=  1.2863997974D-01 Coefficients=  1.0000000000D+00
 P 1 1.00
     Exponent=  4.3598162776D-02 Coefficients=  1.0000000000D+00
 D 1 1.00
     Exponent=  3.7750000000D+00 Coefficients=  1.0000000000D+00
 D 1 1.00
     Exponent=  1.3000000000D+00 Coefficients=  1.0000000000D+00
 D 1 1.00
     Exponent=  4.4400000000D-01 Coefficients=  1.0000000000D+00
 D 1 1.00
     Exponent=  1.2546378695D-01 Coefficients=  1.0000000000D+00
 F 1 1.00
     Exponent=  2.6660000000D+00 Coefficients=  1.0000000000D+00
 F 1 1.00
     Exponent=  8.5900000000D-01 Coefficients=  1.0000000000D+00
 G 1 1.00
     Exponent=  1.8460000000D+00 Coefficients=  1.0000000000D+00
 ****
 Ernie: Thresh=  0.10000D-02 Tol=  0.10000D-05 Strict=F.
 There are    54 symmetry adapted cartesian basis functions of A1  symmetry.
 There are    12 symmetry adapted cartesian basis functions of A2  symmetry.
 There are    27 symmetry adapted cartesian basis functions of B1  symmetry.
 There are    27 symmetry adapted cartesian basis functions of B2  symmetry.
 There are    42 symmetry adapted basis functions of A1  symmetry.
 There are    11 symmetry adapted basis functions of A2  symmetry.
 There are    23 symmetry adapted basis functions of B1  symmetry.
 There are    23 symmetry adapted basis functions of B2  symmetry.
    99 basis functions,   143 primitive gaussians,   120 cartesian basis functions
     5 alpha electrons        4 beta electrons
       nuclear repulsion energy         4.3433897988 Hartrees.
 IExCor= 4336 DFT=T Ex+Corr=M062X ExCW=0 ScaHFX=  0.540000
 ScaDFX=  1.000000  1.000000  1.000000  1.000000 ScalE2=  1.000000  1.000000
 IRadAn=      5 IRanWt=     -1 IRanGd=            0 ICorTp=0 IEmpDi=  4
 NAtoms=    2 NActive=    2 NUniq=    2 SFac= 1.00D+00 NAtFMM=   60 NAOKFM=F Big=F
 Integral buffers will be    131072 words long.
 Raffenetti 2 integral format.
 Two-electron integral symmetry is turned on.
 Leave Link  301 at Sat Apr 17 05:31:42 2021, MaxMem=   104857600 cpu:               7.2 elap:               0.2
 (Enter /s/ls4/users/knvvv/bin/g16sse/l302.exe)
 NPDir=0 NMtPBC=     1 NCelOv=     1 NCel=       1 NClECP=     1 NCelD=      1
         NCelK=      1 NCelE2=     1 NClLst=     1 CellRange=     0.0.
 One-electron integrals computed using PRISM.
 One-electron integral symmetry used in STVInt
 PrsmSu:  requested number of processors reduced to:   4 ShMem   1 Linda.
 PrsmSu:  requested number of processors reduced to:  21 ShMem   1 Linda.
 NBasis=    99 RedAO= T EigKep=  2.00D-04  NBF=    42    11    23    23
 NBsUse=    99 1.00D-06 EigRej= -1.00D+00 NBFU=    42    11    23    23
 Precomputing XC quadrature grid using
 IXCGrd= 4 IRadAn=           5 IRanWt=          -1 IRanGd=           0 AccXCQ= 0.00D+00.
 Generated NRdTot=       0 NPtTot=           0 NUsed=           0 NTot=          32
 NSgBfM=   120   120   120   120   120 MxSgAt=     2 MxSgA2=     2.
 Leave Link  302 at Sat Apr 17 05:31:44 2021, MaxMem=   104857600 cpu:              96.6 elap:               2.2
 (Enter /s/ls4/users/knvvv/bin/g16sse/l303.exe)
 DipDrv:  MaxL=1.
 Leave Link  303 at Sat Apr 17 05:31:44 2021, MaxMem=   104857600 cpu:              15.7 elap:               0.4
 (Enter /s/ls4/users/knvvv/bin/g16sse/l401.exe)
 SCF N**3 symmetry information disabled.
 ExpMin= 4.36D-02 ExpMax= 1.17D+05 ExpMxC= 1.13D+03 IAcc=3 IRadAn=         5 AccDes= 0.00D+00
 Harris functional with IExCor= 1009 and IRadAn=       5 diagonalized for initial guess.
 HarFok:  IExCor= 1009 AccDes= 0.00D+00 IRadAn=         5 IDoV= 1 UseB2=F ITyADJ=14
 ICtDFT=  3500011 ScaDFX=  1.000000  1.000000  1.000000  1.000000
 FoFCou: FMM=F IPFlag=           0 FMFlag=      100000 FMFlg1=           0
         NFxFlg=           0 DoJE=T BraDBF=F KetDBF=T FulRan=T
         wScrn=  0.000000 ICntrl=       500 IOpCl=  0 I1Cent=   200000004 NGrid=           0
         NMat0=    1 NMatS0=      1 NMatT0=    0 NMatD0=    1 NMtDS0=    0 NMtDT0=    0
 Petite list used in FoFCou.
 CoulSu:  requested number of processors reduced to:  21 ShMem   1 Linda.
 CoulSu:  requested number of processors reduced to:  21 ShMem   1 Linda.
 CoulSu:  requested number of processors reduced to:  21 ShMem   1 Linda.
 CoulSu:  requested number of processors reduced to:  21 ShMem   1 Linda.
 Harris En= -75.6668049976437    
 JPrj=0 DoOrth=F DoCkMO=F.
 Initial guess orbital symmetries:
 Alpha Orbitals:
       Occupied  (SG) (SG) (SG) (PI) (PI)
       Virtual   (SG) (SG) (PI) (PI) (SG) (PI) (PI) (SG) (DLTA)
                 (DLTA) (SG) (PI) (PI) (PI) (PI) (SG) (SG) (PI)
                 (PI) (SG) (SG) (SG) (DLTA) (DLTA) (PI) (PI) (PI)
                 (PI) (SG) (SG) (DLTA) (DLTA) (PI) (PI) (SG) (PI)
                 (PI) (PHI) (PHI) (SG) (SG) (DLTA) (DLTA) (PI)
                 (PI) (DLTA) (DLTA) (SG) (PI) (PI) (SG) (PI) (PI)
                 (SG) (PHI) (PHI) (DLTA) (DLTA) (SG) (PI) (PI)
                 (SG) (PI) (PI) (DLTA) (DLTA) (SG) (PI) (PI) (?A)
                 (?A) (PHI) (PHI) (DLTA) (DLTA) (SG) (PI) (PI)
                 (PHI) (PHI) (DLTA) (DLTA) (SG) (PI) (PI) (SG)
                 (DLTA) (DLTA) (SG) (PI) (PI) (SG) (SG) (SG)
 Beta  Orbitals:
       Occupied  (SG) (SG) (SG) (PI)
       Virtual   (PI) (SG) (SG) (PI) (PI) (SG) (PI) (PI) (SG) (DLTA)
                 (DLTA) (SG) (PI) (PI) (PI) (PI) (SG) (SG) (PI)
                 (PI) (SG) (SG) (SG) (DLTA) (DLTA) (PI) (PI) (PI)
                 (PI) (SG) (SG) (DLTA) (DLTA) (PI) (PI) (SG) (PI)
                 (PI) (PHI) (PHI) (SG) (SG) (DLTA) (DLTA) (PI)
                 (PI) (DLTA) (DLTA) (SG) (PI) (PI) (SG) (PI) (PI)
                 (SG) (PHI) (PHI) (DLTA) (DLTA) (SG) (PI) (PI)
                 (SG) (PI) (PI) (DLTA) (DLTA) (SG) (PI) (PI) (?A)
                 (?A) (PHI) (PHI) (DLTA) (DLTA) (SG) (PI) (PI)
                 (PHI) (PHI) (DLTA) (DLTA) (SG) (PI) (PI) (SG)
                 (DLTA) (DLTA) (SG) (PI) (PI) (SG) (SG) (SG)
 Initial guess <Sx>= 0.0000 <Sy>= 0.0000 <Sz>= 0.5000 <S**2>= 0.7500 S= 0.5000
 Leave Link  401 at Sat Apr 17 05:31:46 2021, MaxMem=   104857600 cpu:              63.4 elap:               1.5
 (Enter /s/ls4/users/knvvv/bin/g16sse/l502.exe)
 Keep R1 and R2 ints in memory in symmetry-blocked form, NReq=66468029.
 FoFCou: FMM=F IPFlag=           0 FMFlag=           0 FMFlg1=           0
         NFxFlg=           0 DoJE=F BraDBF=F KetDBF=F FulRan=T
         wScrn=  0.000000 ICntrl=       600 IOpCl=  0 I1Cent=           0 NGrid=           0
         NMat0=    1 NMatS0=   4950 NMatT0=    0 NMatD0=    1 NMtDS0=    0 NMtDT0=    0
 Petite list used in FoFCou.
 CoulSu:  requested number of processors reduced to:  20 ShMem   1 Linda.
 UHF open shell SCF:
 Using DIIS extrapolation, IDIIS=  1040.
 NGot=   104857600 LenX=    98535459 LenY=    98520618
 Requested convergence on RMS density matrix=1.00D-08 within 128 cycles.
 Requested convergence on MAX density matrix=1.00D-06.
 Requested convergence on             energy=1.00D-06.
 No special actions if energy rises.

 Cycle   1  Pass 1  IDiag  1:
 E= -75.7245704955929    
 DIIS: error= 5.25D-02 at cycle   1 NSaved=   1.
 NSaved= 1 IEnMin= 1 EnMin= -75.7245704955929     IErMin= 1 ErrMin= 5.25D-02
 ErrMax= 5.25D-02  0.00D+00 EMaxC= 1.00D-01 BMatC= 1.92D-01 BMatP= 1.92D-01
 IDIUse=3 WtCom= 4.75D-01 WtEn= 5.25D-01
 Coeff-Com:  0.100D+01
 Coeff-En:   0.100D+01
 Coeff:      0.100D+01
 Gap=     0.476 Goal=   None    Shift=    0.000
 Gap=     0.328 Goal=   None    Shift=    0.000
 GapD=    0.328 DampG=1.000 DampE=0.500 DampFc=0.5000 IDamp=-1.
 Damping current iteration by 5.00D-01
 RMSDP=1.22D-03 MaxDP=4.56D-02              OVMax= 7.90D-02

 Cycle   2  Pass 1  IDiag  1:
 E= -75.7320983687426     Delta-E=       -0.007527873150 Rises=F Damp=T
 DIIS: error= 2.74D-02 at cycle   2 NSaved=   2.
 NSaved= 2 IEnMin= 2 EnMin= -75.7320983687426     IErMin= 2 ErrMin= 2.74D-02
 ErrMax= 2.74D-02  0.00D+00 EMaxC= 1.00D-01 BMatC= 3.87D-02 BMatP= 1.92D-01
 IDIUse=3 WtCom= 7.26D-01 WtEn= 2.74D-01
 Coeff-Com: -0.389D+00 0.139D+01
 Coeff-En:   0.000D+00 0.100D+01
 Coeff:     -0.282D+00 0.128D+01
 Gap=     0.472 Goal=   None    Shift=    0.000
 Gap=     0.306 Goal=   None    Shift=    0.000
 RMSDP=6.28D-04 MaxDP=1.26D-02 DE=-7.53D-03 OVMax= 3.83D-02

 Cycle   3  Pass 1  IDiag  1:
 E= -75.7392981773681     Delta-E=       -0.007199808626 Rises=F Damp=F
 DIIS: error= 5.14D-03 at cycle   3 NSaved=   3.
 NSaved= 3 IEnMin= 3 EnMin= -75.7392981773681     IErMin= 3 ErrMin= 5.14D-03
 ErrMax= 5.14D-03  0.00D+00 EMaxC= 1.00D-01 BMatC= 4.33D-03 BMatP= 3.87D-02
 IDIUse=3 WtCom= 9.49D-01 WtEn= 5.14D-02
 Coeff-Com: -0.213D+00 0.414D+00 0.799D+00
 Coeff-En:   0.000D+00 0.000D+00 0.100D+01
 Coeff:     -0.202D+00 0.392D+00 0.809D+00
 Gap=     0.458 Goal=   None    Shift=    0.000
 Gap=     0.301 Goal=   None    Shift=    0.000
 RMSDP=1.34D-04 MaxDP=4.48D-03 DE=-7.20D-03 OVMax= 1.07D-02

 Cycle   4  Pass 1  IDiag  1:
 E= -75.7400040271803     Delta-E=       -0.000705849812 Rises=F Damp=F
 DIIS: error= 5.71D-04 at cycle   4 NSaved=   4.
 NSaved= 4 IEnMin= 4 EnMin= -75.7400040271803     IErMin= 4 ErrMin= 5.71D-04
 ErrMax= 5.71D-04  0.00D+00 EMaxC= 1.00D-01 BMatC= 3.86D-05 BMatP= 4.33D-03
 IDIUse=3 WtCom= 9.94D-01 WtEn= 5.71D-03
 Coeff-Com:  0.398D-01-0.817D-01-0.105D+00 0.115D+01
 Coeff-En:   0.000D+00 0.000D+00 0.000D+00 0.100D+01
 Coeff:      0.396D-01-0.812D-01-0.105D+00 0.115D+01
 Gap=     0.459 Goal=   None    Shift=    0.000
 Gap=     0.301 Goal=   None    Shift=    0.000
 RMSDP=3.50D-05 MaxDP=9.42D-04 DE=-7.06D-04 OVMax= 2.32D-03

 Cycle   5  Pass 1  IDiag  1:
 E= -75.7400203346670     Delta-E=       -0.000016307487 Rises=F Damp=F
 DIIS: error= 1.64D-04 at cycle   5 NSaved=   5.
 NSaved= 5 IEnMin= 5 EnMin= -75.7400203346670     IErMin= 5 ErrMin= 1.64D-04
 ErrMax= 1.64D-04  0.00D+00 EMaxC= 1.00D-01 BMatC= 3.83D-06 BMatP= 3.86D-05
 IDIUse=3 WtCom= 9.98D-01 WtEn= 1.64D-03
 Coeff-Com:  0.203D-01-0.391D-01-0.717D-01-0.134D-01 0.110D+01
 Coeff-En:   0.000D+00 0.000D+00 0.000D+00 0.000D+00 0.100D+01
 Coeff:      0.203D-01-0.390D-01-0.716D-01-0.134D-01 0.110D+01
 Gap=     0.459 Goal=   None    Shift=    0.000
 Gap=     0.301 Goal=   None    Shift=    0.000
 RMSDP=1.16D-05 MaxDP=3.63D-04 DE=-1.63D-05 OVMax= 7.65D-04

 Cycle   6  Pass 1  IDiag  1:
 E= -75.7400223593117     Delta-E=       -0.000002024645 Rises=F Damp=F
 DIIS: error= 5.25D-05 at cycle   6 NSaved=   6.
 NSaved= 6 IEnMin= 6 EnMin= -75.7400223593117     IErMin= 6 ErrMin= 5.25D-05
 ErrMax= 5.25D-05  0.00D+00 EMaxC= 1.00D-01 BMatC= 2.45D-07 BMatP= 3.83D-06
 IDIUse=1 WtCom= 1.00D+00 WtEn= 0.00D+00
 Coeff-Com: -0.659D-02 0.129D-01 0.228D-01-0.587D-01-0.281D+00 0.131D+01
 Coeff:     -0.659D-02 0.129D-01 0.228D-01-0.587D-01-0.281D+00 0.131D+01
 Gap=     0.459 Goal=   None    Shift=    0.000
 Gap=     0.301 Goal=   None    Shift=    0.000
 RMSDP=3.63D-06 MaxDP=8.51D-05 DE=-2.02D-06 OVMax= 2.92D-04

 Cycle   7  Pass 1  IDiag  1:
 E= -75.7400225128574     Delta-E=       -0.000000153546 Rises=F Damp=F
 DIIS: error= 1.14D-05 at cycle   7 NSaved=   7.
 NSaved= 7 IEnMin= 7 EnMin= -75.7400225128574     IErMin= 7 ErrMin= 1.14D-05
 ErrMax= 1.14D-05  0.00D+00 EMaxC= 1.00D-01 BMatC= 1.14D-08 BMatP= 2.45D-07
 IDIUse=1 WtCom= 1.00D+00 WtEn= 0.00D+00
 Coeff-Com: -0.550D-03 0.110D-02 0.141D-02 0.451D-02-0.339D-01-0.932D-01
 Coeff-Com:  0.112D+01
 Coeff:     -0.550D-03 0.110D-02 0.141D-02 0.451D-02-0.339D-01-0.932D-01
 Coeff:      0.112D+01
 Gap=     0.459 Goal=   None    Shift=    0.000
 Gap=     0.301 Goal=   None    Shift=    0.000
 RMSDP=5.98D-07 MaxDP=1.42D-05 DE=-1.54D-07 OVMax= 6.69D-05

 Cycle   8  Pass 1  IDiag  1:
 E= -75.7400225198739     Delta-E=       -0.000000007017 Rises=F Damp=F
 DIIS: error= 3.26D-06 at cycle   8 NSaved=   8.
 NSaved= 8 IEnMin= 8 EnMin= -75.7400225198739     IErMin= 8 ErrMin= 3.26D-06
 ErrMax= 3.26D-06  0.00D+00 EMaxC= 1.00D-01 BMatC= 6.34D-10 BMatP= 1.14D-08
 IDIUse=1 WtCom= 1.00D+00 WtEn= 0.00D+00
 Coeff-Com:  0.264D-03-0.521D-03-0.711D-03-0.377D-03 0.182D-01-0.284D-01
 Coeff-Com: -0.318D+00 0.133D+01
 Coeff:      0.264D-03-0.521D-03-0.711D-03-0.377D-03 0.182D-01-0.284D-01
 Coeff:     -0.318D+00 0.133D+01
 Gap=     0.459 Goal=   None    Shift=    0.000
 Gap=     0.301 Goal=   None    Shift=    0.000
 RMSDP=2.09D-07 MaxDP=8.21D-06 DE=-7.02D-09 OVMax= 2.02D-05

 Cycle   9  Pass 1  IDiag  1:
 E= -75.7400225203072     Delta-E=       -0.000000000433 Rises=F Damp=F
 DIIS: error= 2.70D-07 at cycle   9 NSaved=   9.
 NSaved= 9 IEnMin= 9 EnMin= -75.7400225203072     IErMin= 9 ErrMin= 2.70D-07
 ErrMax= 2.70D-07  0.00D+00 EMaxC= 1.00D-01 BMatC= 8.90D-12 BMatP= 6.34D-10
 IDIUse=1 WtCom= 1.00D+00 WtEn= 0.00D+00
 Coeff-Com: -0.374D-04 0.715D-04 0.788D-04 0.184D-03-0.311D-02 0.474D-02
 Coeff-Com:  0.623D-01-0.321D+00 0.126D+01
 Coeff:     -0.374D-04 0.715D-04 0.788D-04 0.184D-03-0.311D-02 0.474D-02
 Coeff:      0.623D-01-0.321D+00 0.126D+01
 Gap=     0.459 Goal=   None    Shift=    0.000
 Gap=     0.301 Goal=   None    Shift=    0.000
 RMSDP=2.02D-08 MaxDP=7.57D-07 DE=-4.33D-10 OVMax= 1.59D-06

 Cycle  10  Pass 1  IDiag  1:
 E= -75.7400225203124     Delta-E=       -0.000000000005 Rises=F Damp=F
 DIIS: error= 5.87D-08 at cycle  10 NSaved=  10.
 NSaved=10 IEnMin=10 EnMin= -75.7400225203124     IErMin=10 ErrMin= 5.87D-08
 ErrMax= 5.87D-08  0.00D+00 EMaxC= 1.00D-01 BMatC= 2.99D-13 BMatP= 8.90D-12
 IDIUse=1 WtCom= 1.00D+00 WtEn= 0.00D+00
 Coeff-Com:  0.289D-05-0.484D-05-0.999D-06-0.874D-04 0.469D-03 0.240D-03
 Coeff-Com: -0.131D-01 0.619D-01-0.354D+00 0.130D+01
 Coeff:      0.289D-05-0.484D-05-0.999D-06-0.874D-04 0.469D-03 0.240D-03
 Coeff:     -0.131D-01 0.619D-01-0.354D+00 0.130D+01
 Gap=     0.459 Goal=   None    Shift=    0.000
 Gap=     0.301 Goal=   None    Shift=    0.000
 RMSDP=3.17D-09 MaxDP=1.01D-07 DE=-5.26D-12 OVMax= 3.39D-07

 SCF Done:  E(UM062X) =  -75.7400225203     A.U. after   10 cycles
            NFock= 10  Conv=0.32D-08     -V/T= 2.0029
 <Sx>= 0.0000 <Sy>= 0.0000 <Sz>= 0.5000 <S**2>= 0.7530 S= 0.5015
 <L.S>= 0.000000000000E+00
 KE= 7.552211589238D+01 PE=-1.881215167330D+02 EE= 3.251598852150D+01
 Annihilation of the first spin contaminant:
 S**2 before annihilation     0.7530,   after     0.7500
 Leave Link  502 at Sat Apr 17 05:32:23 2021, MaxMem=   104857600 cpu:            1714.8 elap:              36.8
 (Enter /s/ls4/users/knvvv/bin/g16sse/l601.exe)
 Copying SCF densities to generalized density rwf, IOpCl= 1 IROHF=0.

 **********************************************************************

            Population analysis using the SCF density.

 **********************************************************************

 Orbital symmetries:
 Alpha Orbitals:
       Occupied  (SG) (SG) (SG) (PI) (PI)
       Virtual   (SG) (PI) (PI) (SG) (SG) (PI) (PI) (SG) (?A) (?A)
                 (?A) (PI) (PI) (SG) (PI) (PI) (SG) (PI) (PI) (?B)
                 (SG) (SG) (?B) (?B) (?C) (?C) (?C) (?C) (SG) (?D)
                 (?D) (?D) (PI) (PI) (SG) (PI) (PI) (PHI) (PHI)
                 (SG) (?E) (?E) (?E) (PI) (PI) (?F) (?F) (?F) (PI)
                 (PI) (?F) (PI) (PI) (SG) (PHI) (PHI) (DLTA) (DLTA)
                 (SG) (PI) (PI) (SG) (PI) (DLTA) (DLTA) (PI) (SG)
                 (PI) (PI) (?G) (?G) (PHI) (PHI) (DLTA) (DLTA)
                 (?F) (?H) (?H) (?H) (?H) (?F) (?F) (?F) (PI) (PI)
                 (?F) (?F) (?F) (PI) (PI) (?F) (SG) (SG) (SG)
 Beta  Orbitals:
       Occupied  (SG) (SG) (SG) (?A)
       Virtual   (?A) (?B) (?A) (?B) (?A) (?B) (?A) (?A) (?B) (?B)
                 (?B) (?B) (?A) (?A) (?A) (?B) (?A) (?B) (?A) (?A)
                 (?C) (SG) (?C) (?C) (?C) (PI) (PI) (PI) (PI) (SG)
                 (?D) (?D) (?D) (PI) (PI) (SG) (PI) (PI) (PHI)
                 (PHI) (SG) (?E) (?E) (?E) (PI) (PI) (?F) (?F)
                 (?F) (PI) (PI) (SG) (PI) (PI) (SG) (PHI) (PHI)
                 (DLTA) (DLTA) (SG) (PI) (PI) (SG) (DLTA) (DLTA)
                 (PI) (PI) (SG) (PI) (PI) (?G) (?G) (PHI) (PHI)
                 (DLTA) (DLTA) (SG) (?H) (?H) (?H) (?H) (?I) (?I)
                 (?I) (PI) (PI) (?C) (?C) (?C) (PI) (PI) (?C) (SG)
                 (SG) (SG)
 Unable to determine electronic state:  an orbital has unidentified symmetry.
 Alpha  occ. eigenvalues --  -19.69928  -1.14692  -0.56759  -0.50701  -0.44373
 Alpha virt. eigenvalues --    0.01516   0.05842   0.06519   0.07007   0.15556
 Alpha virt. eigenvalues --    0.17393   0.17605   0.24667   0.34178   0.34201
 Alpha virt. eigenvalues --    0.35892   0.41257   0.41369   0.48232   0.48399
 Alpha virt. eigenvalues --    0.48476   0.51863   0.77461   0.77612   0.93762
 Alpha virt. eigenvalues --    1.05040   1.18302   1.26106   1.26260   1.38986
 Alpha virt. eigenvalues --    1.40994   1.51005   1.54361   1.55985   1.96126
 Alpha virt. eigenvalues --    2.00551   2.00752   2.40073   2.40127   2.58235
 Alpha virt. eigenvalues --    2.61885   2.62771   3.09443   3.09529   3.12411
 Alpha virt. eigenvalues --    3.33163   3.43819   3.43890   3.87349   3.90617
 Alpha virt. eigenvalues --    3.91967   3.92013   4.24904   4.32401   4.35354
 Alpha virt. eigenvalues --    4.47105   5.12701   5.18005   5.28055   5.68596
 Alpha virt. eigenvalues --    5.68599   6.36887   6.36939   6.98340   7.15017
 Alpha virt. eigenvalues --    7.15877   7.25268   7.58594   7.59501   7.59542
 Alpha virt. eigenvalues --    7.59744   8.25054   8.40164   8.42178   8.73070
 Alpha virt. eigenvalues --    8.73097   8.89224   8.89231   9.91826   9.91938
 Alpha virt. eigenvalues --   10.22099  10.63679  10.68448  10.71662  10.71782
 Alpha virt. eigenvalues --   10.82462  10.89076  10.89605  11.43563  11.50049
 Alpha virt. eigenvalues --   11.86418  11.90094  11.90383  13.44497  13.50706
 Alpha virt. eigenvalues --   13.52166  16.21953  47.75294 250.77756
  Beta  occ. eigenvalues --  -19.68251  -1.06311  -0.53557  -0.40770
  Beta virt. eigenvalues --   -0.10717   0.01567   0.06563   0.06828   0.08017
  Beta virt. eigenvalues --    0.15647   0.17505   0.17841   0.23484   0.31043
  Beta virt. eigenvalues --    0.32555   0.35864   0.40247   0.41429   0.45580
  Beta virt. eigenvalues --    0.47652   0.48132   0.52168   0.76024   0.77849
  Beta virt. eigenvalues --    0.93264   1.06132   1.16717   1.28047   1.28228
  Beta virt. eigenvalues --    1.40524   1.41577   1.53317   1.55201   1.56813
  Beta virt. eigenvalues --    1.94631   2.00418   2.00662   2.39213   2.40709
  Beta virt. eigenvalues --    2.58957   2.61131   2.63992   3.10065   3.11180
  Beta virt. eigenvalues --    3.12132   3.37154   3.44424   3.45024   3.87827
  Beta virt. eigenvalues --    3.91314   3.94560   3.95732   4.24039   4.33690
  Beta virt. eigenvalues --    4.35438   4.51547   5.19211   5.19625   5.29777
  Beta virt. eigenvalues --    5.68629   5.68676   6.37985   6.38001   7.00370
  Beta virt. eigenvalues --    7.17072   7.17769   7.26588   7.59439   7.59520
  Beta virt. eigenvalues --    7.61101   7.61955   8.27798   8.43809   8.43877
  Beta virt. eigenvalues --    8.78015   8.79027   8.92541   8.94741   9.94512
  Beta virt. eigenvalues --    9.96848  10.23987  10.67580  10.71025  10.85896
  Beta virt. eigenvalues --   10.89867  10.90685  10.99141  11.02193  11.52423
  Beta virt. eigenvalues --   11.60565  11.91362  12.06354  12.08370  13.53670
  Beta virt. eigenvalues --   13.60918  13.65284  16.26920  47.86596 250.77169
          Condensed to atoms (all electrons):
               1          2
     1  O    8.215559   0.206056
     2  H    0.206056   0.372328
          Atomic-Atomic Spin Densities.
               1          2
     1  O    1.012625   0.023116
     2  H    0.023116  -0.058858
 Mulliken charges and spin densities:
               1          2
     1  O   -0.421616   1.035742
     2  H    0.421616  -0.035742
 Sum of Mulliken charges =  -0.00000   1.00000
 Mulliken charges and spin densities with hydrogens summed into heavy atoms:
               1          2
     1  O   -0.000000   1.000000
 Electronic spatial extent (au):  <R**2>=             15.7015
 Charge=             -0.0000 electrons
 Dipole moment (field-independent basis, Debye):
    X=              0.0000    Y=             -0.0000    Z=             -1.6841  Tot=              1.6841
 Quadrupole moment (field-independent basis, Debye-Ang):
   XX=             -5.5530   YY=             -6.8525   ZZ=             -4.6575
   XY=              0.0000   XZ=              0.0000   YZ=              0.0000
 Traceless Quadrupole moment (field-independent basis, Debye-Ang):
   XX=              0.1347   YY=             -1.1648   ZZ=              1.0302
   XY=              0.0000   XZ=              0.0000   YZ=              0.0000
 Octapole moment (field-independent basis, Debye-Ang**2):
  XXX=              0.0000  YYY=             -0.0000  ZZZ=             -1.9215  XYY=              0.0000
  XXY=              0.0000  XXZ=             -0.1497  XZZ=              0.0000  YZZ=             -0.0000
  YYZ=             -0.1992  XYZ=             -0.0000
 Hexadecapole moment (field-independent basis, Debye-Ang**3):
 XXXX=             -4.1359 YYYY=             -6.3310 ZZZZ=             -5.7997 XXXY=              0.0000
 XXXZ=              0.0000 YYYX=              0.0000 YYYZ=              0.0000 ZZZX=              0.0000
 ZZZY=              0.0000 XXYY=             -1.7457 XXZZ=             -1.8993 YYZZ=             -2.2905
 XXYZ=             -0.0000 YYXZ=              0.0000 ZZXY=              0.0000
 N-N= 4.343389798767D+00 E-N=-1.881215164418D+02  KE= 7.552211589238D+01
                          Isotropic Fermi Contact Couplings
        Atom                 a.u.       MegaHertz       Gauss      10(-4) cm-1
     1  O(17)              0.14682     -88.99867     -31.75694     -29.68676
     2  H(1)              -0.01648     -73.67634     -26.28955     -24.57578
 PrsmSu:  requested number of processors reduced to:  21 ShMem   1 Linda.
 --------------------------------------------------------
       Center         ----  Spin Dipole Couplings  ----
                      3XX-RR        3YY-RR        3ZZ-RR
 --------------------------------------------------------
     1   Atom        3.871309     -1.941880     -1.929429
     2   Atom       -0.035837     -0.133021      0.168858
 --------------------------------------------------------
                        XY            XZ            YZ
 --------------------------------------------------------
     1   Atom        0.000000      0.000000      0.000000
     2   Atom        0.000000      0.000000      0.000000
 --------------------------------------------------------


 ---------------------------------------------------------------------------------
              Anisotropic Spin Dipole Couplings in Principal Axis System
 ---------------------------------------------------------------------------------

       Atom             a.u.   MegaHertz   Gauss  10(-4) cm-1        Axes

              Baa    -1.9419   140.513    50.139    46.870 -0.0000  1.0000  0.0000
     1 O(17)  Bbb    -1.9294   139.612    49.817    46.570  0.0000  0.0000  1.0000
              Bcc     3.8713  -280.125   -99.956   -93.440  1.0000  0.0000  0.0000
 
              Baa    -0.1330   -70.974   -25.325   -23.674 -0.0000  1.0000  0.0000
     2 H(1)   Bbb    -0.0358   -19.121    -6.823    -6.378  1.0000  0.0000  0.0000
              Bcc     0.1689    90.095    32.148    30.052  0.0000  0.0000  1.0000
 

 ---------------------------------------------------------------------------------

 PrsmSu:  requested number of processors reduced to:  21 ShMem   1 Linda.
 No NMR shielding tensors so no spin-rotation constants.
 Leave Link  601 at Sat Apr 17 05:32:25 2021, MaxMem=   104857600 cpu:              89.0 elap:               2.1
 (Enter /s/ls4/users/knvvv/bin/g16sse/l801.exe)
 DoSCS=F DFT=T ScalE2(SS,OS)=  1.000000  1.000000
 Range of M.O.s used for correlation:     1    99
 NBasis=    99 NAE=     5 NBE=     4 NFC=     0 NFV=     0
 NROrb=     99 NOA=     5 NOB=     4 NVA=    94 NVB=    95

 **** Warning!!: The largest alpha MO coefficient is  0.25363064D+02


 **** Warning!!: The largest beta MO coefficient is  0.25030452D+02

 Leave Link  801 at Sat Apr 17 05:32:25 2021, MaxMem=   104857600 cpu:               3.6 elap:               0.1
 (Enter /s/ls4/users/knvvv/bin/g16sse/l914.exe)
 UHF ground state
 Doing stability rather than CIS.
 Keep R1 and R2 ints in memory in symmetry-blocked form, NReq=92131458.
 FoFCou: FMM=F IPFlag=           0 FMFlag=           0 FMFlg1=           0
         NFxFlg=           0 DoJE=F BraDBF=F KetDBF=F FulRan=T
         wScrn=  0.000000 ICntrl=       600 IOpCl=  0 I1Cent=           0 NGrid=           0
         NMat0=    1 NMatS0=   4950 NMatT0=    0 NMatD0=    1 NMtDS0=    0 NMtDT0=    0
 Petite list used in FoFCou.
 CoulSu:  requested number of processors reduced to:  20 ShMem   1 Linda.
 MDV=   104857600 DFT=T DoStab=T Mixed=T DoRPA=F DoScal=F NonHer=F
 Making orbital integer symmetry assigments:
 Orbital symmetries:
 Alpha Orbitals:
       Occupied  (SG) (SG) (SG) (PI) (PI)
       Virtual   (SG) (PI) (PI) (SG) (SG) (PI) (PI) (SG) (?A) (?A)
                 (?A) (PI) (PI) (SG) (PI) (PI) (SG) (PI) (PI) (?B)
                 (SG) (SG) (?B) (?B) (?C) (?C) (?C) (?C) (SG) (?D)
                 (?D) (?D) (PI) (PI) (SG) (PI) (PI) (PHI) (PHI)
                 (SG) (?E) (?E) (?E) (PI) (PI) (?F) (?F) (?F) (PI)
                 (PI) (?F) (PI) (PI) (SG) (PHI) (PHI) (DLTA) (DLTA)
                 (SG) (PI) (PI) (SG) (PI) (DLTA) (DLTA) (PI) (SG)
                 (PI) (PI) (?G) (?G) (PHI) (PHI) (DLTA) (DLTA)
                 (?F) (?H) (?H) (?H) (?H) (?F) (?F) (?F) (PI) (PI)
                 (?F) (?F) (?F) (PI) (PI) (?F) (SG) (SG) (SG)
 Beta  Orbitals:
       Occupied  (SG) (SG) (SG) (?A)
       Virtual   (?A) (?B) (?A) (?B) (?A) (?B) (?A) (?A) (?B) (?B)
                 (?B) (?B) (?A) (?A) (?A) (?B) (?A) (?B) (?A) (?A)
                 (?C) (SG) (?C) (?C) (?C) (PI) (PI) (PI) (PI) (SG)
                 (?D) (?D) (?D) (PI) (PI) (SG) (PI) (PI) (PHI)
                 (PHI) (SG) (?E) (?E) (?E) (PI) (PI) (?F) (?F)
                 (?F) (PI) (PI) (SG) (PI) (PI) (SG) (PHI) (PHI)
                 (DLTA) (DLTA) (SG) (PI) (PI) (SG) (DLTA) (DLTA)
                 (PI) (PI) (SG) (PI) (PI) (?G) (?G) (PHI) (PHI)
                 (DLTA) (DLTA) (SG) (?H) (?H) (?H) (?H) (?I) (?I)
                 (?I) (PI) (PI) (?C) (?C) (?C) (PI) (PI) (?C) (SG)
                 (SG) (SG)
    12 initial guesses have been made.
 Convergence on wavefunction:    0.001000000000000
 Davidson Disk Diagonalization:  ConvIn= 1.00D-03 SkipCon=T Conv= 1.00D-03.
 Max sub-space:  1700 roots to seek:    12 dimension of matrix:          850
 Iteration     1 Dimension    12 NMult     0 NNew     12
 CISAX will form    12 AO SS matrices at one time.
 NMat=    12 NSing=    12 JSym2X= 2.
 Excitation Energies [eV] at current iteration:
 Root      1 :     0.534617524640732
 Root      2 :     4.730017205049948
 Root      3 :     8.372509759585286
 Root      4 :     9.274364125700377
 Root      5 :    10.319157437150170
 Root      6 :    10.379050437266020
 Root      7 :    10.525097717222940
 Root      8 :    10.948478379635110
 Root      9 :    11.058357209196930
 Root     10 :    11.288703524928470
 Root     11 :    11.602130848245980
 Root     12 :    12.636852630969720
 Iteration     2 Dimension    24 NMult    12 NNew     12
 CISAX will form    12 AO SS matrices at one time.
 NMat=    12 NSing=    12 JSym2X= 2.
 Root      1 not converged, maximum delta is    0.095101599153507
 Excitation Energies [eV] at current iteration:
 Root      1 :     0.002647769088173   Change is   -0.531969755552559
 Root      2 :     3.929245124248565   Change is   -0.800772080801384
 Root      3 :     7.761040123046977   Change is   -0.611469636538311
 Root      4 :     8.816482493538317   Change is   -0.457881632162060
 Root      5 :    10.180342698645860   Change is   -0.138814738504314
 Root      6 :    10.189078067347570   Change is   -0.336019649875365
 Root      7 :    10.264860301828300   Change is   -0.114190135437724
 Root      8 :    10.273890776646850   Change is   -0.674587602988254
 Root      9 :    10.889846415290740   Change is   -0.168510793906185
 Root     10 :    11.073594378970480   Change is   -0.528536469275500
 Root     11 :    11.135337009084130   Change is   -0.153366515844337
 Root     12 :    11.565644611485440   Change is   -1.071208019484282
 Iteration     3 Dimension    27 NMult    24 NNew      3
 CISAX will form     3 AO SS matrices at one time.
 NMat=     3 NSing=     3 JSym2X= 2.
 Root      1 not converged, maximum delta is    0.003334861241164
 Excitation Energies [eV] at current iteration:
 Root      1 :    -0.000062599777021   Change is   -0.002710368865194
 Root      2 :     3.874650585158026   Change is   -0.054594539090539
 Root      3 :     7.726737608005435   Change is   -0.034302515041541
 Iteration     4 Dimension    30 NMult    27 NNew      3
 CISAX will form     3 AO SS matrices at one time.
 NMat=     3 NSing=     3 JSym2X= 2.
 Root      1 has converged.
 Excitation Energies [eV] at current iteration:
 Root      1 :    -0.000079540140210   Change is   -0.000016940363189
 Root      2 :     3.871541699344715   Change is   -0.003108885813311
 Root      3 :     7.725629571014433   Change is   -0.001108036991003
 Convergence achieved on expansion vectors.
 ***********************************************************************
 Stability analysis using <AA,BB:AA,BB> singles matrix:
 ***********************************************************************
 1PDM for each excited state written to RWF  633
 Ground to excited state transition densities written to RWF  633

 Eigenvectors of the stability matrix:
 
 Excited state symmetry could not be determined.
 Eigenvector   1:  2.005-?Sym  Eigenvalue=-0.0000029  <S**2>=0.755
      4B ->  5B        0.97115
      4B ->  9B       -0.18101
 The wavefunction is stable under the perturbations considered.
 Leave Link  914 at Sat Apr 17 05:32:41 2021, MaxMem=   104857600 cpu:             729.3 elap:              15.9
 (Enter /s/ls4/users/knvvv/bin/g16sse/l508.exe)
 The wavefunction is already stable.
 Leave Link  508 at Sat Apr 17 05:32:41 2021, MaxMem=   104857600 cpu:               2.2 elap:               0.1
 (Enter /s/ls4/users/knvvv/bin/g16sse/l601.exe)
 Copying SCF densities to generalized density rwf, IOpCl= 1 IROHF=0.

 **********************************************************************

            Population analysis using the SCF density.

 **********************************************************************

 Orbital symmetries:
 Alpha Orbitals:
       Occupied  (SG) (SG) (SG) (PI) (PI)
       Virtual   (SG) (PI) (PI) (SG) (SG) (PI) (PI) (SG) (?A) (?A)
                 (?A) (PI) (PI) (SG) (PI) (PI) (SG) (PI) (PI) (?B)
                 (SG) (SG) (?B) (?B) (?C) (?C) (?C) (?C) (SG) (?D)
                 (?D) (?D) (PI) (PI) (SG) (PI) (PI) (PHI) (PHI)
                 (SG) (?E) (?E) (?E) (PI) (PI) (?F) (?F) (?F) (PI)
                 (PI) (?F) (PI) (PI) (SG) (PHI) (PHI) (DLTA) (DLTA)
                 (SG) (PI) (PI) (SG) (PI) (DLTA) (DLTA) (PI) (SG)
                 (PI) (PI) (?G) (?G) (PHI) (PHI) (DLTA) (DLTA)
                 (?F) (?H) (?H) (?H) (?H) (?F) (?F) (?F) (PI) (PI)
                 (?F) (?F) (?F) (PI) (PI) (?F) (SG) (SG) (SG)
 Beta  Orbitals:
       Occupied  (SG) (SG) (SG) (?A)
       Virtual   (?A) (?B) (?A) (?B) (?A) (?B) (?A) (?A) (?B) (?B)
                 (?B) (?B) (?A) (?A) (?A) (?B) (?A) (?B) (?A) (?A)
                 (?C) (SG) (?C) (?C) (?C) (PI) (PI) (PI) (PI) (SG)
                 (?D) (?D) (?D) (PI) (PI) (SG) (PI) (PI) (PHI)
                 (PHI) (SG) (?E) (?E) (?E) (PI) (PI) (?F) (?F)
                 (?F) (PI) (PI) (SG) (PI) (PI) (SG) (PHI) (PHI)
                 (DLTA) (DLTA) (SG) (PI) (PI) (SG) (DLTA) (DLTA)
                 (PI) (PI) (SG) (PI) (PI) (?G) (?G) (PHI) (PHI)
                 (DLTA) (DLTA) (SG) (?H) (?H) (?H) (?H) (?I) (?I)
                 (?I) (PI) (PI) (?C) (?C) (?C) (PI) (PI) (?C) (SG)
                 (SG) (SG)
 Unable to determine electronic state:  an orbital has unidentified symmetry.
 Alpha  occ. eigenvalues --  -19.69928  -1.14692  -0.56759  -0.50701  -0.44373
 Alpha virt. eigenvalues --    0.01516   0.05842   0.06519   0.07007   0.15556
 Alpha virt. eigenvalues --    0.17393   0.17605   0.24667   0.34178   0.34201
 Alpha virt. eigenvalues --    0.35892   0.41257   0.41369   0.48232   0.48399
 Alpha virt. eigenvalues --    0.48476   0.51863   0.77461   0.77612   0.93762
 Alpha virt. eigenvalues --    1.05040   1.18302   1.26106   1.26260   1.38986
 Alpha virt. eigenvalues --    1.40994   1.51005   1.54361   1.55985   1.96126
 Alpha virt. eigenvalues --    2.00551   2.00752   2.40073   2.40127   2.58235
 Alpha virt. eigenvalues --    2.61885   2.62771   3.09443   3.09529   3.12411
 Alpha virt. eigenvalues --    3.33163   3.43819   3.43890   3.87349   3.90617
 Alpha virt. eigenvalues --    3.91967   3.92013   4.24904   4.32401   4.35354
 Alpha virt. eigenvalues --    4.47105   5.12701   5.18005   5.28055   5.68596
 Alpha virt. eigenvalues --    5.68599   6.36887   6.36939   6.98340   7.15017
 Alpha virt. eigenvalues --    7.15877   7.25268   7.58594   7.59501   7.59542
 Alpha virt. eigenvalues --    7.59744   8.25054   8.40164   8.42178   8.73070
 Alpha virt. eigenvalues --    8.73097   8.89224   8.89231   9.91826   9.91938
 Alpha virt. eigenvalues --   10.22099  10.63679  10.68448  10.71662  10.71782
 Alpha virt. eigenvalues --   10.82462  10.89076  10.89605  11.43563  11.50049
 Alpha virt. eigenvalues --   11.86418  11.90094  11.90383  13.44497  13.50706
 Alpha virt. eigenvalues --   13.52166  16.21953  47.75294 250.77756
  Beta  occ. eigenvalues --  -19.68251  -1.06311  -0.53557  -0.40770
  Beta virt. eigenvalues --   -0.10717   0.01567   0.06563   0.06828   0.08017
  Beta virt. eigenvalues --    0.15647   0.17505   0.17841   0.23484   0.31043
  Beta virt. eigenvalues --    0.32555   0.35864   0.40247   0.41429   0.45580
  Beta virt. eigenvalues --    0.47652   0.48132   0.52168   0.76024   0.77849
  Beta virt. eigenvalues --    0.93264   1.06132   1.16717   1.28047   1.28228
  Beta virt. eigenvalues --    1.40524   1.41577   1.53317   1.55201   1.56813
  Beta virt. eigenvalues --    1.94631   2.00418   2.00662   2.39213   2.40709
  Beta virt. eigenvalues --    2.58957   2.61131   2.63992   3.10065   3.11180
  Beta virt. eigenvalues --    3.12132   3.37154   3.44424   3.45024   3.87827
  Beta virt. eigenvalues --    3.91314   3.94560   3.95732   4.24039   4.33690
  Beta virt. eigenvalues --    4.35438   4.51547   5.19211   5.19625   5.29777
  Beta virt. eigenvalues --    5.68629   5.68676   6.37985   6.38001   7.00370
  Beta virt. eigenvalues --    7.17072   7.17769   7.26588   7.59439   7.59520
  Beta virt. eigenvalues --    7.61101   7.61955   8.27798   8.43809   8.43877
  Beta virt. eigenvalues --    8.78015   8.79027   8.92541   8.94741   9.94512
  Beta virt. eigenvalues --    9.96848  10.23987  10.67580  10.71025  10.85896
  Beta virt. eigenvalues --   10.89867  10.90685  10.99141  11.02193  11.52423
  Beta virt. eigenvalues --   11.60565  11.91362  12.06354  12.08370  13.53670
  Beta virt. eigenvalues --   13.60918  13.65284  16.26920  47.86596 250.77169
          Condensed to atoms (all electrons):
               1          2
     1  O    8.215559   0.206056
     2  H    0.206056   0.372328
          Atomic-Atomic Spin Densities.
               1          2
     1  O    1.012625   0.023116
     2  H    0.023116  -0.058858
 Mulliken charges and spin densities:
               1          2
     1  O   -0.421616   1.035742
     2  H    0.421616  -0.035742
 Sum of Mulliken charges =  -0.00000   1.00000
 Mulliken charges and spin densities with hydrogens summed into heavy atoms:
               1          2
     1  O   -0.000000   1.000000
 Electronic spatial extent (au):  <R**2>=             15.7015
 Charge=             -0.0000 electrons
 Dipole moment (field-independent basis, Debye):
    X=              0.0000    Y=             -0.0000    Z=             -1.6841  Tot=              1.6841
 Quadrupole moment (field-independent basis, Debye-Ang):
   XX=             -5.5530   YY=             -6.8525   ZZ=             -4.6575
   XY=              0.0000   XZ=              0.0000   YZ=              0.0000
 Traceless Quadrupole moment (field-independent basis, Debye-Ang):
   XX=              0.1347   YY=             -1.1648   ZZ=              1.0302
   XY=              0.0000   XZ=              0.0000   YZ=              0.0000
 Octapole moment (field-independent basis, Debye-Ang**2):
  XXX=              0.0000  YYY=             -0.0000  ZZZ=             -1.9215  XYY=              0.0000
  XXY=              0.0000  XXZ=             -0.1497  XZZ=              0.0000  YZZ=             -0.0000
  YYZ=             -0.1992  XYZ=             -0.0000
 Hexadecapole moment (field-independent basis, Debye-Ang**3):
 XXXX=             -4.1359 YYYY=             -6.3310 ZZZZ=             -5.7997 XXXY=              0.0000
 XXXZ=              0.0000 YYYX=              0.0000 YYYZ=              0.0000 ZZZX=              0.0000
 ZZZY=              0.0000 XXYY=             -1.7457 XXZZ=             -1.8993 YYZZ=             -2.2905
 XXYZ=             -0.0000 YYXZ=              0.0000 ZZXY=              0.0000
 N-N= 4.343389798767D+00 E-N=-1.881215164418D+02  KE= 7.552211589238D+01
                          Isotropic Fermi Contact Couplings
        Atom                 a.u.       MegaHertz       Gauss      10(-4) cm-1
     1  O(17)              0.14682     -88.99867     -31.75694     -29.68676
     2  H(1)              -0.01648     -73.67634     -26.28955     -24.57578
 PrsmSu:  requested number of processors reduced to:  21 ShMem   1 Linda.
 --------------------------------------------------------
       Center         ----  Spin Dipole Couplings  ----
                      3XX-RR        3YY-RR        3ZZ-RR
 --------------------------------------------------------
     1   Atom        3.871309     -1.941880     -1.929429
     2   Atom       -0.035837     -0.133021      0.168858
 --------------------------------------------------------
                        XY            XZ            YZ
 --------------------------------------------------------
     1   Atom        0.000000      0.000000      0.000000
     2   Atom        0.000000      0.000000      0.000000
 --------------------------------------------------------


 ---------------------------------------------------------------------------------
              Anisotropic Spin Dipole Couplings in Principal Axis System
 ---------------------------------------------------------------------------------

       Atom             a.u.   MegaHertz   Gauss  10(-4) cm-1        Axes

              Baa    -1.9419   140.513    50.139    46.870 -0.0000  1.0000  0.0000
     1 O(17)  Bbb    -1.9294   139.612    49.817    46.570  0.0000  0.0000  1.0000
              Bcc     3.8713  -280.125   -99.956   -93.440  1.0000  0.0000  0.0000
 
              Baa    -0.1330   -70.974   -25.325   -23.674 -0.0000  1.0000  0.0000
     2 H(1)   Bbb    -0.0358   -19.121    -6.823    -6.378  1.0000  0.0000  0.0000
              Bcc     0.1689    90.095    32.148    30.052  0.0000  0.0000  1.0000
 

 ---------------------------------------------------------------------------------

 PrsmSu:  requested number of processors reduced to:  21 ShMem   1 Linda.
 No NMR shielding tensors so no spin-rotation constants.
 Leave Link  601 at Sat Apr 17 05:32:43 2021, MaxMem=   104857600 cpu:             102.4 elap:               2.4
 (Enter /s/ls4/users/knvvv/bin/g16sse/l9999.exe)

 Test job not archived.
 1\1\GINC-N185\Stability\UM062X\Gen\H1O1(2)\KNVVV\17-Apr-2021\0\\#P M06
 2X/GEN Integral=UltraFineGrid SCF=NoSymm Stable=(RExt, Opt) IOp(1/33=1
 )\\Database calculations.\\0,2\O,0,0.,0.,-0.4873402899\H,0,0.,0.,0.487
 3402899\\Version=ES64L-G16RevA.03\HF=-75.7400225\S2=0.752999\S2-1=0.\S
 2A=0.750007\RMSD=3.175e-09\Dipole=0.,0.,0.6625946\Quadrupole=0.1001105
 ,-0.8660059,0.7658954,0.,0.,0.\PG=C*V [C*(H1O1)]\\@


 LET US LEARN TO DREAM, GENTLEMEN, THEN PERHAPS WE SHALL
 DISCOVER THE TRUTH;  BUT LET US BEWARE OF PUBLISHING
 OUR DREAMS ABROAD BEFORE THEY HAVE BEEN SCRUTINIZED
 BY OUR VIGILANT INTELLECT ... LET US ALWAYS ALLOW
 THE FRUIT TO HANG UNTIL IT IS RIPE.  UNRIPE FRUIT
 BRINGS EVEN THE GROWER BUT LITTLE PROFIT; IT DAMAGES
 THE HEALTH OF THOSE WHO CONSUME IT; IT ENDANGERS
 PARTICULARLY THE YOUTH WHO CANNOT YET DISTINGUISH
 BETWEEN RIPE AND UNRIPE FRUIT.

                                  -- KEKULE, 1890
 Job cpu time:       0 days  0 hours 47 minutes 30.1 seconds.
 Elapsed time:       0 days  0 hours  1 minutes  2.2 seconds.
 File lengths (MBytes):  RWF=     36 Int=      0 D2E=      0 Chk=      2 Scr=      1
 Normal termination of Gaussian 16 at Sat Apr 17 05:32:43 2021.
