 Entering Gaussian System, Link 0=/s/ls4/users/knvvv/bin/g16sse/g16
 Input=data/database/M062X--MG3S--MN_79_RKT02_BH76.gjf
 Output=data/database/M062X--MG3S--MN_79_RKT02_BH76.log
 Initial command:
 /s/ls4/users/knvvv/bin/g16sse/l1.exe "/s/ls4/users/knvvv/bin/scratch/Gau-28800.inp" -scrdir="/s/ls4/users/knvvv/bin/scratch/"
 Entering Link 1 = /s/ls4/users/knvvv/bin/g16sse/l1.exe PID=     28801.
  
 Copyright (c) 1988,1990,1992,1993,1995,1998,2003,2009,2016,
            Gaussian, Inc.  All Rights Reserved.
  
 This is part of the Gaussian(R) 16 program.  It is based on
 the Gaussian(R) 09 system (copyright 2009, Gaussian, Inc.),
 the Gaussian(R) 03 system (copyright 2003, Gaussian, Inc.),
 the Gaussian(R) 98 system (copyright 1998, Gaussian, Inc.),
 the Gaussian(R) 94 system (copyright 1995, Gaussian, Inc.),
 the Gaussian 92(TM) system (copyright 1992, Gaussian, Inc.),
 the Gaussian 90(TM) system (copyright 1990, Gaussian, Inc.),
 the Gaussian 88(TM) system (copyright 1988, Gaussian, Inc.),
 the Gaussian 86(TM) system (copyright 1986, Carnegie Mellon
 University), and the Gaussian 82(TM) system (copyright 1983,
 Carnegie Mellon University). Gaussian is a federally registered
 trademark of Gaussian, Inc.
  
 This software contains proprietary and confidential information,
 including trade secrets, belonging to Gaussian, Inc.
  
 This software is provided under written license and may be
 used, copied, transmitted, or stored only in accord with that
 written license.
  
 The following legend is applicable only to US Government
 contracts under FAR:
  
                    RESTRICTED RIGHTS LEGEND
  
 Use, reproduction and disclosure by the US Government is
 subject to restrictions as set forth in subparagraphs (a)
 and (c) of the Commercial Computer Software - Restricted
 Rights clause in FAR 52.227-19.
  
 Gaussian, Inc.
 340 Quinnipiac St., Bldg. 40, Wallingford CT 06492
  
  
 ---------------------------------------------------------------
 Warning -- This program may not be used in any manner that
 competes with the business of Gaussian, Inc. or will provide
 assistance to any competitor of Gaussian, Inc.  The licensee
 of this program is prohibited from giving any competitor of
 Gaussian, Inc. access to this program.  By using this program,
 the user acknowledges that Gaussian, Inc. is engaged in the
 business of creating and licensing software in the field of
 computational chemistry and represents and warrants to the
 licensee that it is not a competitor of Gaussian, Inc. and that
 it will not use this program in any manner prohibited above.
 ---------------------------------------------------------------
  

 Cite this work as:
 Gaussian 16, Revision A.03,
 M. J. Frisch, G. W. Trucks, H. B. Schlegel, G. E. Scuseria, 
 M. A. Robb, J. R. Cheeseman, G. Scalmani, V. Barone, 
 G. A. Petersson, H. Nakatsuji, X. Li, M. Caricato, A. V. Marenich, 
 J. Bloino, B. G. Janesko, R. Gomperts, B. Mennucci, H. P. Hratchian, 
 J. V. Ortiz, A. F. Izmaylov, J. L. Sonnenberg, D. Williams-Young, 
 F. Ding, F. Lipparini, F. Egidi, J. Goings, B. Peng, A. Petrone, 
 T. Henderson, D. Ranasinghe, V. G. Zakrzewski, J. Gao, N. Rega, 
 G. Zheng, W. Liang, M. Hada, M. Ehara, K. Toyota, R. Fukuda, 
 J. Hasegawa, M. Ishida, T. Nakajima, Y. Honda, O. Kitao, H. Nakai, 
 T. Vreven, K. Throssell, J. A. Montgomery, Jr., J. E. Peralta, 
 F. Ogliaro, M. J. Bearpark, J. J. Heyd, E. N. Brothers, K. N. Kudin, 
 V. N. Staroverov, T. A. Keith, R. Kobayashi, J. Normand, 
 K. Raghavachari, A. P. Rendell, J. C. Burant, S. S. Iyengar, 
 J. Tomasi, M. Cossi, J. M. Millam, M. Klene, C. Adamo, R. Cammi, 
 J. W. Ochterski, R. L. Martin, K. Morokuma, O. Farkas, 
 J. B. Foresman, and D. J. Fox, Gaussian, Inc., Wallingford CT, 2016.
 
 ******************************************
 Gaussian 16:  ES64L-G16RevA.03 25-Dec-2016
                18-Apr-2021 
 ******************************************
 %RWF=temp12_57515,70GB
 %nprocshared=48
 Will use up to   48 processors via shared memory.
 Default route: MaxDisk=80GB
 ----------------------------------------------------------------------
 #P M062X/GEN Integral=UltraFineGrid SCF=NoSymm Stable=(RExt, Opt) IOp(
 1/33=1)
 ----------------------------------------------------------------------
 1/33=1,38=1,172=1/1;
 2/12=2,17=6,18=5,40=1/2;
 3/5=7,11=2,25=1,30=1,74=-55,75=-5/1,2,3;
 4/9=2/1;
 5/5=2,38=5/2;
 6/7=2,8=2,9=2,10=2,28=1/1;
 8/6=1,10=90,11=11/1;
 9/8=-3,42=1,46=1/14;
 5/5=2,8=3,17=40,38=5/8(-2);
 6/7=2,8=2,9=2,10=2,28=1/1;
 99/5=1,9=1/99;
 Leave Link    1 at Sun Apr 18 10:07:31 2021, MaxMem=           0 cpu:               6.3 elap:               0.1
 (Enter /s/ls4/users/knvvv/bin/g16sse/l101.exe)
 ONIOM data not found on unit 2.
 ----------------------
 Database calculations.
 ----------------------
 TstMul:  ICh=     0
 TstMul:  Mul=     2
 TstMul:  ICh=     0
 TstMul:  Mul=     2
 Symbolic Z-matrix:
 Charge =  0 Multiplicity = 2
 O                    -0.30106  -0.10805  -0.00001 
 H                    -0.42794   0.85157   0.00002 
 H                     1.01549  -0.10037   0.00012 
 H                     1.82097   0.11319  -0.00007 
 
 RdStrC is calling ZToCFu for IStruc=1 NZ=     4.
 PrtBox:  NBox=     1 Levels=  1 BoxLen=    8.00 SMaxX=        4.25
          Shift=            0.808697            0.204183            0.000138
 Box      1 Number                   0 centers from      1 to      4:
 After GenITR:
 ITRead=  0  0  0  0
 MicOpt= -1 -1 -1 -1
 ITRead=  0  0  0  0
 MicOpt= -1 -1 -1 -1
 NAtoms=      4 NQM=        4 NQMF=       0 NMMI=      0 NMMIF=      0
                NMic=       0 NMicF=      0.
                    Isotopes and Nuclear Properties:
 (Nuclear quadrupole moments (NQMom) in fm**2, nuclear magnetic moments (NMagM)
  in nuclear magnetons)

  Atom         1           2           3           4
 IAtWgt=          16           1           1           1
 AtmWgt=  15.9949146   1.0078250   1.0078250   1.0078250
 NucSpn=           0           1           1           1
 AtZEff=  -0.0000000  -0.0000000  -0.0000000  -0.0000000
 NQMom=    0.0000000   0.0000000   0.0000000   0.0000000
 NMagM=    0.0000000   2.7928460   2.7928460   2.7928460
 AtZNuc=   8.0000000   1.0000000   1.0000000   1.0000000
 No MM parameters found.
 Leave Link  101 at Sun Apr 18 10:07:31 2021, MaxMem=   104857600 cpu:               6.2 elap:               0.2
 (Enter /s/ls4/users/knvvv/bin/g16sse/l202.exe)
                          Input orientation:                          
 ---------------------------------------------------------------------
 Center     Atomic      Atomic             Coordinates (Angstroms)
 Number     Number       Type             X           Y           Z
 ---------------------------------------------------------------------
      1          8           0       -0.301064   -0.108049   -0.000008
      2          1           0       -0.427944    0.851568    0.000016
      3          1           0        1.015486   -0.100367    0.000119
      4          1           0        1.820968    0.113187   -0.000073
 ---------------------------------------------------------------------
                    Distance matrix (angstroms):
                    1          2          3          4
     1  O    0.000000
     2  H    0.967968   0.000000
     3  H    1.316572   1.729066   0.000000
     4  H    2.133533   2.367025   0.833310   0.000000
 Stoichiometry    H3O(2)
 Framework group  C1[X(H3O)]
 Deg. of freedom     6
 Full point group                 C1      NOp   1
 Largest Abelian subgroup         C1      NOp   1
 Largest concise Abelian subgroup C1      NOp   1
                         Standard orientation:                         
 ---------------------------------------------------------------------
 Center     Atomic      Atomic             Coordinates (Angstroms)
 Number     Number       Type             X           Y           Z
 ---------------------------------------------------------------------
      1          8           0       -0.301064   -0.108048   -0.000008
      2          1           0       -0.427943    0.851569    0.000016
      3          1           0        1.015486   -0.100367    0.000119
      4          1           0        1.820968    0.113186   -0.000073
 ---------------------------------------------------------------------
 Rotational constants (GHZ):         563.2097353          88.3481783          76.3685828
 Leave Link  202 at Sun Apr 18 10:07:31 2021, MaxMem=   104857600 cpu:               5.8 elap:               0.1
 (Enter /s/ls4/users/knvvv/bin/g16sse/l301.exe)
 General basis read from cards:  (5D, 7F)
 Centers:       2      3      4
 S 3 1.00
     Exponent=  3.3865000000D+01 Coefficients=  2.5493800000D-02
     Exponent=  5.0947900000D+00 Coefficients=  1.9037300000D-01
     Exponent=  1.1587900000D+00 Coefficients=  8.5216100000D-01
 S 1 1.00
     Exponent=  3.2584000000D-01 Coefficients=  1.0000000000D+00
 S 1 1.00
     Exponent=  1.0274100000D-01 Coefficients=  1.0000000000D+00
 P 1 1.00
     Exponent=  1.5000000000D+00 Coefficients=  1.0000000000D+00
 P 1 1.00
     Exponent=  3.7500000000D-01 Coefficients=  1.0000000000D+00
 ****
 Centers:       1
 S 6 1.00
     Exponent=  8.5885000000D+03 Coefficients=  1.8951500000D-03
     Exponent=  1.2972300000D+03 Coefficients=  1.4385900000D-02
     Exponent=  2.9929600000D+02 Coefficients=  7.0732000000D-02
     Exponent=  8.7377100000D+01 Coefficients=  2.4000100000D-01
     Exponent=  2.5678900000D+01 Coefficients=  5.9479700000D-01
     Exponent=  3.7400400000D+00 Coefficients=  2.8080200000D-01
 S 3 1.00
     Exponent=  4.2117500000D+01 Coefficients=  1.1388900000D-01
     Exponent=  9.6283700000D+00 Coefficients=  9.2081100000D-01
     Exponent=  2.8533200000D+00 Coefficients= -3.2744700000D-03
 S 1 1.00
     Exponent=  9.0566100000D-01 Coefficients=  1.0000000000D+00
 S 1 1.00
     Exponent=  2.5561100000D-01 Coefficients=  1.0000000000D+00
 S 1 1.00
     Exponent=  8.4500000000D-02 Coefficients=  1.0000000000D+00
 P 3 1.00
     Exponent=  4.2117500000D+01 Coefficients=  3.6511400000D-02
     Exponent=  9.6283700000D+00 Coefficients=  2.3715300000D-01
     Exponent=  2.8533200000D+00 Coefficients=  8.1970200000D-01
 P 1 1.00
     Exponent=  9.0566100000D-01 Coefficients=  1.0000000000D+00
 P 1 1.00
     Exponent=  2.5561100000D-01 Coefficients=  1.0000000000D+00
 P 1 1.00
     Exponent=  8.4500000000D-02 Coefficients=  1.0000000000D+00
 D 1 1.00
     Exponent=  2.5840000000D+00 Coefficients=  1.0000000000D+00
 D 1 1.00
     Exponent=  6.4600000000D-01 Coefficients=  1.0000000000D+00
 F 1 1.00
     Exponent=  1.4000000000D+00 Coefficients=  1.0000000000D+00
 ****
 Ernie: Thresh=  0.10000D-02 Tol=  0.10000D-05 Strict=F.
 There are    66 symmetry adapted cartesian basis functions of A   symmetry.
 There are    61 symmetry adapted basis functions of A   symmetry.
    61 basis functions,    85 primitive gaussians,    66 cartesian basis functions
     6 alpha electrons        5 beta electrons
       nuclear repulsion energy        10.7378605647 Hartrees.
 IExCor= 4336 DFT=T Ex+Corr=M062X ExCW=0 ScaHFX=  0.540000
 ScaDFX=  1.000000  1.000000  1.000000  1.000000 ScalE2=  1.000000  1.000000
 IRadAn=      5 IRanWt=     -1 IRanGd=            0 ICorTp=0 IEmpDi=  4
 NAtoms=    4 NActive=    4 NUniq=    4 SFac= 1.00D+00 NAtFMM=   60 NAOKFM=F Big=F
 Integral buffers will be    131072 words long.
 Raffenetti 2 integral format.
 Two-electron integral symmetry is turned on.
 Leave Link  301 at Sun Apr 18 10:07:31 2021, MaxMem=   104857600 cpu:               6.7 elap:               0.2
 (Enter /s/ls4/users/knvvv/bin/g16sse/l302.exe)
 NPDir=0 NMtPBC=     1 NCelOv=     1 NCel=       1 NClECP=     1 NCelD=      1
         NCelK=      1 NCelE2=     1 NClLst=     1 CellRange=     0.0.
 One-electron integrals computed using PRISM.
 One-electron integral symmetry used in STVInt
 PrsmSu:  requested number of processors reduced to:  13 ShMem   1 Linda.
 NBasis=    61 RedAO= T EigKep=  2.40D-03  NBF=    61
 NBsUse=    61 1.00D-06 EigRej= -1.00D+00 NBFU=    61
 Precomputing XC quadrature grid using
 IXCGrd= 4 IRadAn=           5 IRanWt=          -1 IRanGd=           0 AccXCQ= 0.00D+00.
 Generated NRdTot=       0 NPtTot=           0 NUsed=           0 NTot=          32
 NSgBfM=    66    66    66    66    66 MxSgAt=     4 MxSgA2=     4.
 Leave Link  302 at Sun Apr 18 10:07:32 2021, MaxMem=   104857600 cpu:              47.2 elap:               1.0
 (Enter /s/ls4/users/knvvv/bin/g16sse/l303.exe)
 DipDrv:  MaxL=1.
 Leave Link  303 at Sun Apr 18 10:07:32 2021, MaxMem=   104857600 cpu:              12.9 elap:               0.3
 (Enter /s/ls4/users/knvvv/bin/g16sse/l401.exe)
 SCF N**3 symmetry information disabled.
 ExpMin= 8.45D-02 ExpMax= 8.59D+03 ExpMxC= 1.30D+03 IAcc=3 IRadAn=         5 AccDes= 0.00D+00
 Harris functional with IExCor= 1009 and IRadAn=       5 diagonalized for initial guess.
 HarFok:  IExCor= 1009 AccDes= 0.00D+00 IRadAn=         5 IDoV= 1 UseB2=F ITyADJ=14
 ICtDFT=  3500011 ScaDFX=  1.000000  1.000000  1.000000  1.000000
 FoFCou: FMM=F IPFlag=           0 FMFlag=      100000 FMFlg1=           0
         NFxFlg=           0 DoJE=T BraDBF=F KetDBF=T FulRan=T
         wScrn=  0.000000 ICntrl=       500 IOpCl=  0 I1Cent=   200000004 NGrid=           0
         NMat0=    1 NMatS0=      1 NMatT0=    0 NMatD0=    1 NMtDS0=    0 NMtDT0=    0
 Petite list used in FoFCou.
 Harris En= -76.8547593699699    
 JPrj=0 DoOrth=F DoCkMO=F.
 Initial guess <Sx>= 0.0000 <Sy>= 0.0000 <Sz>= 0.5000 <S**2>= 0.7500 S= 0.5000
 Leave Link  401 at Sun Apr 18 10:07:33 2021, MaxMem=   104857600 cpu:              49.9 elap:               1.1
 (Enter /s/ls4/users/knvvv/bin/g16sse/l502.exe)
 Keep R1 and R2 ints in memory in canonical form, NReq=46239478.
 FoFCou: FMM=F IPFlag=           0 FMFlag=           0 FMFlg1=           0
         NFxFlg=           0 DoJE=F BraDBF=F KetDBF=F FulRan=T
         wScrn=  0.000000 ICntrl=       600 IOpCl=  0 I1Cent=           0 NGrid=           0
         NMat0=    1 NMatS0=   1891 NMatT0=    0 NMatD0=    1 NMtDS0=    0 NMtDT0=    0
 Symmetry not used in FoFCou.
 Two-electron integral symmetry not used.
 UHF open shell SCF:
 Using DIIS extrapolation, IDIIS=  1040.
 NGot=   104857600 LenX=   101267192 LenY=   101262395
 Requested convergence on RMS density matrix=1.00D-08 within 128 cycles.
 Requested convergence on MAX density matrix=1.00D-06.
 Requested convergence on             energy=1.00D-06.
 No special actions if energy rises.
 Integral accuracy reduced to 1.0D-05 until final iterations.

 Cycle   1  Pass 0  IDiag  1:
 E= -76.8374937319533    
 DIIS: error= 3.78D-02 at cycle   1 NSaved=   1.
 NSaved= 1 IEnMin= 1 EnMin= -76.8374937319533     IErMin= 1 ErrMin= 3.78D-02
 ErrMax= 3.78D-02  0.00D+00 EMaxC= 1.00D-01 BMatC= 2.91D-01 BMatP= 2.91D-01
 IDIUse=3 WtCom= 6.22D-01 WtEn= 3.78D-01
 Coeff-Com:  0.100D+01
 Coeff-En:   0.100D+01
 Coeff:      0.100D+01
 Gap=     0.447 Goal=   None    Shift=    0.000
 Gap=     0.195 Goal=   None    Shift=    0.000
 GapD=    0.195 DampG=1.000 DampE=0.500 DampFc=0.5000 IDamp=-1.
 Damping current iteration by 5.00D-01
 RMSDP=4.57D-03 MaxDP=7.79D-02              OVMax= 2.16D-01

 Cycle   2  Pass 0  IDiag  1:
 E= -76.8564840750746     Delta-E=       -0.018990343121 Rises=F Damp=T
 DIIS: error= 1.11D-02 at cycle   2 NSaved=   2.
 NSaved= 2 IEnMin= 2 EnMin= -76.8564840750746     IErMin= 2 ErrMin= 1.11D-02
 ErrMax= 1.11D-02  0.00D+00 EMaxC= 1.00D-01 BMatC= 2.70D-02 BMatP= 2.91D-01
 IDIUse=3 WtCom= 8.89D-01 WtEn= 1.11D-01
 Coeff-Com:  0.123D+00 0.877D+00
 Coeff-En:   0.236D+00 0.764D+00
 Coeff:      0.135D+00 0.865D+00
 Gap=     0.503 Goal=   None    Shift=    0.000
 Gap=     0.268 Goal=   None    Shift=    0.000
 RMSDP=1.01D-03 MaxDP=2.01D-02 DE=-1.90D-02 OVMax= 1.12D-01

 Cycle   3  Pass 0  IDiag  1:
 E= -76.8888489975511     Delta-E=       -0.032364922476 Rises=F Damp=F
 DIIS: error= 4.62D-03 at cycle   3 NSaved=   3.
 NSaved= 3 IEnMin= 3 EnMin= -76.8888489975511     IErMin= 3 ErrMin= 4.62D-03
 ErrMax= 4.62D-03  0.00D+00 EMaxC= 1.00D-01 BMatC= 1.12D-03 BMatP= 2.70D-02
 IDIUse=3 WtCom= 9.54D-01 WtEn= 4.62D-02
 Coeff-Com: -0.336D-01 0.381D-02 0.103D+01
 Coeff-En:   0.000D+00 0.000D+00 0.100D+01
 Coeff:     -0.320D-01 0.364D-02 0.103D+01
 Gap=     0.478 Goal=   None    Shift=    0.000
 Gap=     0.272 Goal=   None    Shift=    0.000
 RMSDP=3.10D-04 MaxDP=5.27D-03 DE=-3.24D-02 OVMax= 2.25D-02

 Cycle   4  Pass 0  IDiag  1:
 E= -76.8895624929239     Delta-E=       -0.000713495373 Rises=F Damp=F
 DIIS: error= 1.61D-03 at cycle   4 NSaved=   4.
 NSaved= 4 IEnMin= 4 EnMin= -76.8895624929239     IErMin= 4 ErrMin= 1.61D-03
 ErrMax= 1.61D-03  0.00D+00 EMaxC= 1.00D-01 BMatC= 2.18D-04 BMatP= 1.12D-03
 IDIUse=3 WtCom= 9.84D-01 WtEn= 1.61D-02
 Coeff-Com:  0.213D-01-0.546D-01-0.362D+00 0.140D+01
 Coeff-En:   0.000D+00 0.000D+00 0.000D+00 0.100D+01
 Coeff:      0.209D-01-0.537D-01-0.356D+00 0.139D+01
 Gap=     0.477 Goal=   None    Shift=    0.000
 Gap=     0.279 Goal=   None    Shift=    0.000
 RMSDP=2.11D-04 MaxDP=2.91D-03 DE=-7.13D-04 OVMax= 1.15D-02

 Cycle   5  Pass 0  IDiag  1:
 E= -76.8897286912378     Delta-E=       -0.000166198314 Rises=F Damp=F
 DIIS: error= 3.60D-04 at cycle   5 NSaved=   5.
 NSaved= 5 IEnMin= 5 EnMin= -76.8897286912378     IErMin= 5 ErrMin= 3.60D-04
 ErrMax= 3.60D-04  0.00D+00 EMaxC= 1.00D-01 BMatC= 1.61D-05 BMatP= 2.18D-04
 IDIUse=3 WtCom= 9.96D-01 WtEn= 3.60D-03
 Coeff-Com:  0.601D-02-0.513D-02-0.111D+00 0.779D-01 0.103D+01
 Coeff-En:   0.000D+00 0.000D+00 0.000D+00 0.000D+00 0.100D+01
 Coeff:      0.599D-02-0.511D-02-0.111D+00 0.776D-01 0.103D+01
 Gap=     0.477 Goal=   None    Shift=    0.000
 Gap=     0.279 Goal=   None    Shift=    0.000
 RMSDP=5.91D-05 MaxDP=8.59D-04 DE=-1.66D-04 OVMax= 4.40D-03

 Cycle   6  Pass 0  IDiag  1:
 E= -76.8897443849830     Delta-E=       -0.000015693745 Rises=F Damp=F
 DIIS: error= 1.21D-04 at cycle   6 NSaved=   6.
 NSaved= 6 IEnMin= 6 EnMin= -76.8897443849830     IErMin= 6 ErrMin= 1.21D-04
 ErrMax= 1.21D-04  0.00D+00 EMaxC= 1.00D-01 BMatC= 2.77D-06 BMatP= 1.61D-05
 IDIUse=3 WtCom= 9.99D-01 WtEn= 1.21D-03
 Coeff-Com: -0.354D-02 0.579D-02 0.881D-01-0.190D+00-0.354D+00 0.145D+01
 Coeff-En:   0.000D+00 0.000D+00 0.000D+00 0.000D+00 0.000D+00 0.100D+01
 Coeff:     -0.354D-02 0.578D-02 0.880D-01-0.189D+00-0.353D+00 0.145D+01
 Gap=     0.477 Goal=   None    Shift=    0.000
 Gap=     0.279 Goal=   None    Shift=    0.000
 RMSDP=3.16D-05 MaxDP=6.78D-04 DE=-1.57D-05 OVMax= 2.34D-03

 Cycle   7  Pass 0  IDiag  1:
 E= -76.8897475006216     Delta-E=       -0.000003115639 Rises=F Damp=F
 DIIS: error= 4.06D-05 at cycle   7 NSaved=   7.
 NSaved= 7 IEnMin= 7 EnMin= -76.8897475006216     IErMin= 7 ErrMin= 4.06D-05
 ErrMax= 4.06D-05  0.00D+00 EMaxC= 1.00D-01 BMatC= 2.76D-07 BMatP= 2.77D-06
 IDIUse=1 WtCom= 1.00D+00 WtEn= 0.00D+00
 Coeff-Com:  0.322D-03-0.101D-02 0.504D-03 0.689D-02-0.287D-01-0.232D+00
 Coeff-Com:  0.125D+01
 Coeff:      0.322D-03-0.101D-02 0.504D-03 0.689D-02-0.287D-01-0.232D+00
 Coeff:      0.125D+01
 Gap=     0.477 Goal=   None    Shift=    0.000
 Gap=     0.280 Goal=   None    Shift=    0.000
 RMSDP=1.06D-05 MaxDP=1.92D-04 DE=-3.12D-06 OVMax= 7.85D-04

 Cycle   8  Pass 0  IDiag  1:
 E= -76.8897477879808     Delta-E=       -0.000000287359 Rises=F Damp=F
 DIIS: error= 1.24D-05 at cycle   8 NSaved=   8.
 NSaved= 8 IEnMin= 8 EnMin= -76.8897477879808     IErMin= 8 ErrMin= 1.24D-05
 ErrMax= 1.24D-05  0.00D+00 EMaxC= 1.00D-01 BMatC= 2.01D-08 BMatP= 2.76D-07
 IDIUse=1 WtCom= 1.00D+00 WtEn= 0.00D+00
 Coeff-Com:  0.362D-03-0.612D-03-0.799D-02 0.178D-01 0.357D-01-0.168D+00
 Coeff-Com:  0.577D-01 0.106D+01
 Coeff:      0.362D-03-0.612D-03-0.799D-02 0.178D-01 0.357D-01-0.168D+00
 Coeff:      0.577D-01 0.106D+01
 Gap=     0.477 Goal=   None    Shift=    0.000
 Gap=     0.280 Goal=   None    Shift=    0.000
 RMSDP=2.63D-06 MaxDP=3.37D-05 DE=-2.87D-07 OVMax= 2.04D-04

 Initial convergence to 1.0D-05 achieved.  Increase integral accuracy.
 Cycle   9  Pass 1  IDiag  1:
 E= -76.8898024743646     Delta-E=       -0.000054686384 Rises=F Damp=F
 DIIS: error= 2.58D-04 at cycle   1 NSaved=   1.
 NSaved= 1 IEnMin= 1 EnMin= -76.8898024743646     IErMin= 1 ErrMin= 2.58D-04
 ErrMax= 2.58D-04  0.00D+00 EMaxC= 1.00D-01 BMatC= 3.64D-06 BMatP= 3.64D-06
 IDIUse=3 WtCom= 9.97D-01 WtEn= 2.58D-03
 Coeff-Com:  0.100D+01
 Coeff-En:   0.100D+01
 Coeff:      0.100D+01
 Gap=     0.477 Goal=   None    Shift=    0.000
 Gap=     0.280 Goal=   None    Shift=    0.000
 RMSDP=2.63D-06 MaxDP=3.37D-05 DE=-5.47D-05 OVMax= 2.49D-04

 Cycle  10  Pass 1  IDiag  1:
 E= -76.8898029438295     Delta-E=       -0.000000469465 Rises=F Damp=F
 DIIS: error= 4.56D-05 at cycle   2 NSaved=   2.
 NSaved= 2 IEnMin= 2 EnMin= -76.8898029438295     IErMin= 2 ErrMin= 4.56D-05
 ErrMax= 4.56D-05  0.00D+00 EMaxC= 1.00D-01 BMatC= 7.80D-08 BMatP= 3.64D-06
 IDIUse=1 WtCom= 1.00D+00 WtEn= 0.00D+00
 Coeff-Com: -0.108D+00 0.111D+01
 Coeff:     -0.108D+00 0.111D+01
 Gap=     0.477 Goal=   None    Shift=    0.000
 Gap=     0.280 Goal=   None    Shift=    0.000
 RMSDP=2.11D-06 MaxDP=3.93D-05 DE=-4.69D-07 OVMax= 9.95D-05

 Cycle  11  Pass 1  IDiag  1:
 E= -76.8898029707840     Delta-E=       -0.000000026954 Rises=F Damp=F
 DIIS: error= 7.21D-06 at cycle   3 NSaved=   3.
 NSaved= 3 IEnMin= 3 EnMin= -76.8898029707840     IErMin= 3 ErrMin= 7.21D-06
 ErrMax= 7.21D-06  0.00D+00 EMaxC= 1.00D-01 BMatC= 7.19D-09 BMatP= 7.80D-08
 IDIUse=1 WtCom= 1.00D+00 WtEn= 0.00D+00
 Coeff-Com:  0.127D-03-0.187D+00 0.119D+01
 Coeff:      0.127D-03-0.187D+00 0.119D+01
 Gap=     0.477 Goal=   None    Shift=    0.000
 Gap=     0.280 Goal=   None    Shift=    0.000
 RMSDP=1.07D-06 MaxDP=2.63D-05 DE=-2.70D-08 OVMax= 5.90D-05

 Cycle  12  Pass 1  IDiag  1:
 E= -76.8898029757472     Delta-E=       -0.000000004963 Rises=F Damp=F
 DIIS: error= 3.95D-06 at cycle   4 NSaved=   4.
 NSaved= 4 IEnMin= 4 EnMin= -76.8898029757472     IErMin= 4 ErrMin= 3.95D-06
 ErrMax= 3.95D-06  0.00D+00 EMaxC= 1.00D-01 BMatC= 2.74D-09 BMatP= 7.19D-09
 IDIUse=1 WtCom= 1.00D+00 WtEn= 0.00D+00
 Coeff-Com:  0.109D-01-0.195D+00 0.474D+00 0.710D+00
 Coeff:      0.109D-01-0.195D+00 0.474D+00 0.710D+00
 Gap=     0.477 Goal=   None    Shift=    0.000
 Gap=     0.280 Goal=   None    Shift=    0.000
 RMSDP=4.35D-07 MaxDP=7.94D-06 DE=-4.96D-09 OVMax= 3.86D-05

 Cycle  13  Pass 1  IDiag  1:
 E= -76.8898029770165     Delta-E=       -0.000000001269 Rises=F Damp=F
 DIIS: error= 2.70D-06 at cycle   5 NSaved=   5.
 NSaved= 5 IEnMin= 5 EnMin= -76.8898029770165     IErMin= 5 ErrMin= 2.70D-06
 ErrMax= 2.70D-06  0.00D+00 EMaxC= 1.00D-01 BMatC= 8.06D-10 BMatP= 2.74D-09
 IDIUse=1 WtCom= 1.00D+00 WtEn= 0.00D+00
 Coeff-Com:  0.354D-02 0.806D-02-0.335D+00 0.249D+00 0.107D+01
 Coeff:      0.354D-02 0.806D-02-0.335D+00 0.249D+00 0.107D+01
 Gap=     0.477 Goal=   None    Shift=    0.000
 Gap=     0.280 Goal=   None    Shift=    0.000
 RMSDP=4.47D-07 MaxDP=8.89D-06 DE=-1.27D-09 OVMax= 2.83D-05

 Cycle  14  Pass 1  IDiag  1:
 E= -76.8898029775557     Delta-E=       -0.000000000539 Rises=F Damp=F
 DIIS: error= 5.42D-07 at cycle   6 NSaved=   6.
 NSaved= 6 IEnMin= 6 EnMin= -76.8898029775557     IErMin= 6 ErrMin= 5.42D-07
 ErrMax= 5.42D-07  0.00D+00 EMaxC= 1.00D-01 BMatC= 2.85D-11 BMatP= 8.06D-10
 IDIUse=1 WtCom= 1.00D+00 WtEn= 0.00D+00
 Coeff-Com: -0.892D-03 0.139D-01-0.142D-01-0.852D-01-0.106D+00 0.119D+01
 Coeff:     -0.892D-03 0.139D-01-0.142D-01-0.852D-01-0.106D+00 0.119D+01
 Gap=     0.477 Goal=   None    Shift=    0.000
 Gap=     0.280 Goal=   None    Shift=    0.000
 RMSDP=1.14D-07 MaxDP=1.36D-06 DE=-5.39D-10 OVMax= 1.03D-05

 Cycle  15  Pass 1  IDiag  1:
 E= -76.8898029775948     Delta-E=       -0.000000000039 Rises=F Damp=F
 DIIS: error= 1.82D-07 at cycle   7 NSaved=   7.
 NSaved= 7 IEnMin= 7 EnMin= -76.8898029775948     IErMin= 7 ErrMin= 1.82D-07
 ErrMax= 1.82D-07  0.00D+00 EMaxC= 1.00D-01 BMatC= 3.64D-12 BMatP= 2.85D-11
 IDIUse=1 WtCom= 1.00D+00 WtEn= 0.00D+00
 Coeff-Com: -0.364D-03-0.167D-02 0.382D-01-0.830D-02-0.127D+00-0.959D-01
 Coeff-Com:  0.120D+01
 Coeff:     -0.364D-03-0.167D-02 0.382D-01-0.830D-02-0.127D+00-0.959D-01
 Coeff:      0.120D+01
 Gap=     0.477 Goal=   None    Shift=    0.000
 Gap=     0.280 Goal=   None    Shift=    0.000
 RMSDP=3.45D-08 MaxDP=4.07D-07 DE=-3.91D-11 OVMax= 2.79D-06

 Cycle  16  Pass 1  IDiag  1:
 E= -76.8898029775988     Delta-E=       -0.000000000004 Rises=F Damp=F
 DIIS: error= 5.09D-08 at cycle   8 NSaved=   8.
 NSaved= 8 IEnMin= 8 EnMin= -76.8898029775988     IErMin= 8 ErrMin= 5.09D-08
 ErrMax= 5.09D-08  0.00D+00 EMaxC= 1.00D-01 BMatC= 3.98D-13 BMatP= 3.64D-12
 IDIUse=1 WtCom= 1.00D+00 WtEn= 0.00D+00
 Coeff-Com:  0.101D-03-0.659D-03-0.489D-02 0.124D-01 0.190D-01-0.126D+00
 Coeff-Com: -0.959D-01 0.120D+01
 Coeff:      0.101D-03-0.659D-03-0.489D-02 0.124D-01 0.190D-01-0.126D+00
 Coeff:     -0.959D-01 0.120D+01
 Gap=     0.477 Goal=   None    Shift=    0.000
 Gap=     0.280 Goal=   None    Shift=    0.000
 RMSDP=1.19D-08 MaxDP=1.55D-07 DE=-3.98D-12 OVMax= 8.57D-07

 Cycle  17  Pass 1  IDiag  1:
 E= -76.8898029775992     Delta-E=       -0.000000000000 Rises=F Damp=F
 DIIS: error= 1.51D-08 at cycle   9 NSaved=   9.
 NSaved= 9 IEnMin= 9 EnMin= -76.8898029775992     IErMin= 9 ErrMin= 1.51D-08
 ErrMax= 1.51D-08  0.00D+00 EMaxC= 1.00D-01 BMatC= 3.54D-14 BMatP= 3.98D-13
 IDIUse=1 WtCom= 1.00D+00 WtEn= 0.00D+00
 Coeff-Com:  0.137D-04 0.267D-03-0.242D-02-0.178D-02 0.118D-01 0.249D-01
 Coeff-Com: -0.614D-01-0.201D+00 0.123D+01
 Coeff:      0.137D-04 0.267D-03-0.242D-02-0.178D-02 0.118D-01 0.249D-01
 Coeff:     -0.614D-01-0.201D+00 0.123D+01
 Gap=     0.477 Goal=   None    Shift=    0.000
 Gap=     0.280 Goal=   None    Shift=    0.000
 RMSDP=3.05D-09 MaxDP=4.26D-08 DE=-3.41D-13 OVMax= 1.88D-07

 SCF Done:  E(UM062X) =  -76.8898029776     A.U. after   17 cycles
            NFock= 17  Conv=0.31D-08     -V/T= 2.0028
 <Sx>= 0.0000 <Sy>= 0.0000 <Sz>= 0.5000 <S**2>= 0.7607 S= 0.5053
 <L.S>= 0.000000000000E+00
 KE= 7.667611645472D+01 PE=-2.031617676838D+02 EE= 3.885798768683D+01
 Annihilation of the first spin contaminant:
 S**2 before annihilation     0.7607,   after     0.7500
 Leave Link  502 at Sun Apr 18 10:07:45 2021, MaxMem=   104857600 cpu:             553.3 elap:              11.9
 (Enter /s/ls4/users/knvvv/bin/g16sse/l601.exe)
 Copying SCF densities to generalized density rwf, IOpCl= 1 IROHF=0.

 **********************************************************************

            Population analysis using the SCF density.

 **********************************************************************

 Orbital symmetries:
 Alpha Orbitals:
       Occupied  (A) (A) (A) (A) (A) (A)
       Virtual   (A) (A) (A) (A) (A) (A) (A) (A) (A) (A) (A) (A)
                 (A) (A) (A) (A) (A) (A) (A) (A) (A) (A) (A) (A)
                 (A) (A) (A) (A) (A) (A) (A) (A) (A) (A) (A) (A)
                 (A) (A) (A) (A) (A) (A) (A) (A) (A) (A) (A) (A)
                 (A) (A) (A) (A) (A) (A) (A)
 Beta  Orbitals:
       Occupied  (A) (A) (A) (A) (A)
       Virtual   (A) (A) (A) (A) (A) (A) (A) (A) (A) (A) (A) (A)
                 (A) (A) (A) (A) (A) (A) (A) (A) (A) (A) (A) (A)
                 (A) (A) (A) (A) (A) (A) (A) (A) (A) (A) (A) (A)
                 (A) (A) (A) (A) (A) (A) (A) (A) (A) (A) (A) (A)
                 (A) (A) (A) (A) (A) (A) (A) (A)
 The electronic state is 2-A.
 Alpha  occ. eigenvalues --  -19.67163  -1.13933  -0.61366  -0.54247  -0.42761
 Alpha  occ. eigenvalues --   -0.39468
 Alpha virt. eigenvalues --    0.08192   0.14063   0.16690   0.16739   0.19687
 Alpha virt. eigenvalues --    0.23075   0.39912   0.48528   0.53903   0.55087
 Alpha virt. eigenvalues --    0.55943   0.72947   0.76344   0.86573   0.93091
 Alpha virt. eigenvalues --    0.97996   1.08496   1.09913   1.17211   1.33326
 Alpha virt. eigenvalues --    1.41860   1.74338   1.76831   1.81760   2.01286
 Alpha virt. eigenvalues --    2.12957   2.21981   2.37482   2.64838   2.73623
 Alpha virt. eigenvalues --    3.47589   3.51661   3.58388   3.59832   3.84983
 Alpha virt. eigenvalues --    4.05013   4.07592   4.11417   4.77337   4.99777
 Alpha virt. eigenvalues --    5.02116   5.05530   5.11302   5.20077   5.25973
 Alpha virt. eigenvalues --    5.49175   5.52283   6.01775   6.76589   6.85829
 Alpha virt. eigenvalues --    6.92588   7.04634   7.22994   7.47951  49.96168
  Beta  occ. eigenvalues --  -19.65906  -1.08885  -0.55824  -0.48491  -0.39867
  Beta virt. eigenvalues --   -0.11886   0.08692   0.11669   0.16615   0.17426
  Beta virt. eigenvalues --    0.19360   0.23853   0.39480   0.49768   0.55567
  Beta virt. eigenvalues --    0.55913   0.56329   0.73071   0.76810   0.86921
  Beta virt. eigenvalues --    0.92040   0.99741   1.06852   1.10665   1.15911
  Beta virt. eigenvalues --    1.34236   1.43408   1.74357   1.78673   1.82668
  Beta virt. eigenvalues --    2.02315   2.18755   2.23933   2.38331   2.65356
  Beta virt. eigenvalues --    2.79246   3.55860   3.59125   3.61527   3.67614
  Beta virt. eigenvalues --    3.85478   4.06831   4.08139   4.11715   4.92993
  Beta virt. eigenvalues --    5.03215   5.04570   5.08720   5.14365   5.23894
  Beta virt. eigenvalues --    5.29158   5.53053   5.54905   6.19607   6.88490
  Beta virt. eigenvalues --    6.88994   7.04115   7.09187   7.27852   7.60274
  Beta virt. eigenvalues --   49.95618
          Condensed to atoms (all electrons):
               1          2          3          4
     1  O    8.115722   0.233767   0.026642  -0.057705
     2  H    0.233767   0.521462   0.000217   0.009082
     3  H    0.026642   0.000217   0.508488   0.374068
     4  H   -0.057705   0.009082   0.374068   0.682186
          Atomic-Atomic Spin Densities.
               1          2          3          4
     1  O    0.754873   0.012276  -0.043808  -0.072189
     2  H    0.012276  -0.027882   0.000401   0.001940
     3  H   -0.043808   0.000401  -0.049449   0.092073
     4  H   -0.072189   0.001940   0.092073   0.341073
 Mulliken charges and spin densities:
               1          2
     1  O   -0.318427   0.651151
     2  H    0.235472  -0.013264
     3  H    0.090585  -0.000784
     4  H   -0.007631   0.362896
 Sum of Mulliken charges =  -0.00000   1.00000
 Mulliken charges and spin densities with hydrogens summed into heavy atoms:
               1          2
     1  O   -0.000000   1.000000
 Electronic spatial extent (au):  <R**2>=             38.3791
 Charge=             -0.0000 electrons
 Dipole moment (field-independent basis, Debye):
    X=              0.6636    Y=              1.5977    Z=              0.0001  Tot=              1.7301
 Quadrupole moment (field-independent basis, Debye-Ang):
   XX=             -6.6307   YY=             -6.7692   ZZ=             -8.9369
   XY=             -0.8213   XZ=             -0.0001   YZ=             -0.0000
 Traceless Quadrupole moment (field-independent basis, Debye-Ang):
   XX=              0.8149   YY=              0.6764   ZZ=             -1.4913
   XY=             -0.8213   XZ=             -0.0001   YZ=             -0.0000
 Octapole moment (field-independent basis, Debye-Ang**2):
  XXX=             -0.5331  YYY=              1.7232  ZZZ=              0.0001  XYY=             -1.4683
  XXY=              0.6696  XXZ=             -0.0003  XZZ=             -0.6923  YZZ=              0.2133
  YYZ=              0.0000  XYZ=             -0.0001
 Hexadecapole moment (field-independent basis, Debye-Ang**3):
 XXXX=            -30.8256 YYYY=             -8.0196 ZZZZ=             -8.3056 XXXY=             -0.0812
 XXXZ=             -0.0007 YYYX=             -1.1888 YYYZ=              0.0000 ZZZX=              0.0000
 ZZZY=              0.0000 XXYY=             -7.4358 XXZZ=             -7.6906 YYZZ=             -2.9816
 XXYZ=             -0.0001 YYXZ=             -0.0000 ZZXY=             -0.2055
 N-N= 1.073786056466D+01 E-N=-2.031617673758D+02  KE= 7.667611645472D+01
                          Isotropic Fermi Contact Couplings
        Atom                 a.u.       MegaHertz       Gauss      10(-4) cm-1
     1  O(17)              0.11090     -67.22903     -23.98899     -22.42519
     2  H(1)              -0.01143     -51.10367     -18.23506     -17.04635
     3  H(1)              -0.02886    -129.00732     -46.03302     -43.03221
     4  H(1)               0.15529     694.13991     247.68638     231.54015
 --------------------------------------------------------
       Center         ----  Spin Dipole Couplings  ----
                      3XX-RR        3YY-RR        3ZZ-RR
 --------------------------------------------------------
     1   Atom        2.753191     -1.348654     -1.404537
     2   Atom       -0.026694      0.127196     -0.100502
     3   Atom        0.246959     -0.118694     -0.128265
     4   Atom        0.011639     -0.004314     -0.007325
 --------------------------------------------------------
                        XY            XZ            YZ
 --------------------------------------------------------
     1   Atom        0.525829     -0.000075     -0.000009
     2   Atom       -0.028357     -0.000002      0.000006
     3   Atom        0.036916     -0.000013     -0.000008
     4   Atom        0.007096     -0.000006     -0.000003
 --------------------------------------------------------


 ---------------------------------------------------------------------------------
              Anisotropic Spin Dipole Couplings in Principal Axis System
 ---------------------------------------------------------------------------------

       Atom             a.u.   MegaHertz   Gauss  10(-4) cm-1        Axes

              Baa    -1.4150   102.388    36.534    34.153 -0.1252  0.9921 -0.0001
     1 O(17)  Bbb    -1.4045   101.631    36.265    33.901  0.0000  0.0001  1.0000
              Bcc     2.8195  -204.019   -72.799   -68.053  0.9921  0.1252 -0.0000
 
              Baa    -0.1005   -53.623   -19.134   -17.887  0.0000 -0.0000  1.0000
     2 H(1)   Bbb    -0.0318   -16.942    -6.045    -5.651  0.9845  0.1756 -0.0000
              Bcc     0.1323    70.565    25.179    23.538 -0.1756  0.9845  0.0000
 
              Baa    -0.1283   -68.436   -24.420   -22.828 -0.0001  0.0011  1.0000
     3 H(1)   Bbb    -0.1224   -65.298   -23.300   -21.781 -0.0995  0.9950 -0.0011
              Bcc     0.2506   133.734    47.720    44.609  0.9950  0.0995 -0.0000
 
              Baa    -0.0073    -3.908    -1.395    -1.304 -0.0003  0.0016  1.0000
     4 H(1)   Bbb    -0.0070    -3.742    -1.335    -1.248 -0.3556  0.9346 -0.0016
              Bcc     0.0143     7.650     2.730     2.552  0.9346  0.3556 -0.0003
 

 ---------------------------------------------------------------------------------

 No NMR shielding tensors so no spin-rotation constants.
 Leave Link  601 at Sun Apr 18 10:07:47 2021, MaxMem=   104857600 cpu:              57.0 elap:               1.2
 (Enter /s/ls4/users/knvvv/bin/g16sse/l801.exe)
 DoSCS=F DFT=T ScalE2(SS,OS)=  1.000000  1.000000
 Range of M.O.s used for correlation:     1    61
 NBasis=    61 NAE=     6 NBE=     5 NFC=     0 NFV=     0
 NROrb=     61 NOA=     6 NOB=     5 NVA=    55 NVB=    56
 Leave Link  801 at Sun Apr 18 10:07:47 2021, MaxMem=   104857600 cpu:               3.2 elap:               0.1
 (Enter /s/ls4/users/knvvv/bin/g16sse/l914.exe)
 UHF ground state
 Doing stability rather than CIS.
 Keep R1 and R2 ints in memory in canonical form, NReq=56793530.
 FoFCou: FMM=F IPFlag=           0 FMFlag=           0 FMFlg1=           0
         NFxFlg=           0 DoJE=F BraDBF=F KetDBF=F FulRan=T
         wScrn=  0.000000 ICntrl=       600 IOpCl=  0 I1Cent=           0 NGrid=           0
         NMat0=    1 NMatS0=   1891 NMatT0=    0 NMatD0=    1 NMtDS0=    0 NMtDT0=    0
 Symmetry not used in FoFCou.
 Two-electron integral symmetry not used.
 MDV=   104857600 DFT=T DoStab=T Mixed=T DoRPA=F DoScal=F NonHer=F
 Making orbital integer symmetry assigments:
 Orbital symmetries:
 Alpha Orbitals:
       Occupied  (A) (A) (A) (A) (A) (A)
       Virtual   (A) (A) (A) (A) (A) (A) (A) (A) (A) (A) (A) (A)
                 (A) (A) (A) (A) (A) (A) (A) (A) (A) (A) (A) (A)
                 (A) (A) (A) (A) (A) (A) (A) (A) (A) (A) (A) (A)
                 (A) (A) (A) (A) (A) (A) (A) (A) (A) (A) (A) (A)
                 (A) (A) (A) (A) (A) (A) (A)
 Beta  Orbitals:
       Occupied  (A) (A) (A) (A) (A)
       Virtual   (A) (A) (A) (A) (A) (A) (A) (A) (A) (A) (A) (A)
                 (A) (A) (A) (A) (A) (A) (A) (A) (A) (A) (A) (A)
                 (A) (A) (A) (A) (A) (A) (A) (A) (A) (A) (A) (A)
                 (A) (A) (A) (A) (A) (A) (A) (A) (A) (A) (A) (A)
                 (A) (A) (A) (A) (A) (A) (A) (A)
    12 initial guesses have been made.
 Convergence on wavefunction:    0.001000000000000
 Davidson Disk Diagonalization:  ConvIn= 1.00D-03 SkipCon=T Conv= 1.00D-03.
 Max sub-space:  1220 roots to seek:    12 dimension of matrix:          610
 Iteration     1 Dimension    12 NMult     0 NNew     12
 CISAX will form    12 AO SS matrices at one time.
 NMat=    12 NSing=    12 JSym2X= 0.
 Excitation Energies [eV] at current iteration:
 Root      1 :     1.663810794908246
 Root      2 :     5.624010730857501
 Root      3 :     8.861409115081761
 Root      4 :     9.032403758506760
 Root      5 :     9.647800152796460
 Root      6 :     9.811092370352288
 Root      7 :    10.985248793442780
 Root      8 :    11.757211368017540
 Root      9 :    12.012126611334800
 Root     10 :    12.043862550227860
 Root     11 :    12.201397841890170
 Root     12 :    12.274604050645180
 Iteration     2 Dimension    24 NMult    12 NNew     12
 CISAX will form    12 AO SS matrices at one time.
 NMat=    12 NSing=    12 JSym2X= 0.
 Root      1 not converged, maximum delta is    0.109669227805960
 Excitation Energies [eV] at current iteration:
 Root      1 :     1.263015855335886   Change is   -0.400794939572360
 Root      2 :     4.799252499736962   Change is   -0.824758231120539
 Root      3 :     6.807717619636389   Change is   -2.224686138870371
 Root      4 :     8.308658115571486   Change is   -0.552750999510275
 Root      5 :     9.140981878064096   Change is   -0.670110492288192
 Root      6 :     9.391318999141633   Change is   -0.256481153654826
 Root      7 :    10.805910611183030   Change is   -0.179338182259750
 Root      8 :    11.083928240240110   Change is   -0.673283127777438
 Root      9 :    11.646448440387630   Change is   -0.365678170947172
 Root     10 :    11.876904981266520   Change is   -0.166957568961345
 Root     11 :    11.989729971156050   Change is   -0.284874079489126
 Root     12 :    12.005900914335860   Change is   -0.195496927554310
 Iteration     3 Dimension    27 NMult    24 NNew      3
 CISAX will form     3 AO SS matrices at one time.
 NMat=     3 NSing=     3 JSym2X= 0.
 Root      1 not converged, maximum delta is    0.006706429561936
 Excitation Energies [eV] at current iteration:
 Root      1 :     1.256124891768796   Change is   -0.006890963567090
 Root      2 :     4.639132626795123   Change is   -0.160119872941840
 Root      3 :     6.473355829015554   Change is   -0.334361790620835
 Iteration     4 Dimension    30 NMult    27 NNew      3
 CISAX will form     3 AO SS matrices at one time.
 NMat=     3 NSing=     3 JSym2X= 0.
 Root      1 has converged.
 Excitation Energies [eV] at current iteration:
 Root      1 :     1.256072515215630   Change is   -0.000052376553166
 Root      2 :     4.632060061170934   Change is   -0.007072565624188
 Root      3 :     6.450759788488734   Change is   -0.022596040526820
 Convergence achieved on expansion vectors.
 ***********************************************************************
 Stability analysis using <AA,BB:AA,BB> singles matrix:
 ***********************************************************************
 1PDM for each excited state written to RWF  633
 Ground to excited state transition densities written to RWF  633

 Eigenvectors of the stability matrix:
 
 Eigenvector   1:  2.021-A    Eigenvalue= 0.0461598  <S**2>=0.771
      5B ->  6B        0.98187
      5B -> 11B        0.11605
 The wavefunction is stable under the perturbations considered.
 Leave Link  914 at Sun Apr 18 10:07:53 2021, MaxMem=   104857600 cpu:             300.0 elap:               6.4
 (Enter /s/ls4/users/knvvv/bin/g16sse/l508.exe)
 The wavefunction is already stable.
 Leave Link  508 at Sun Apr 18 10:07:53 2021, MaxMem=   104857600 cpu:               2.2 elap:               0.1
 (Enter /s/ls4/users/knvvv/bin/g16sse/l601.exe)
 Copying SCF densities to generalized density rwf, IOpCl= 1 IROHF=0.

 **********************************************************************

            Population analysis using the SCF density.

 **********************************************************************

 Orbital symmetries:
 Alpha Orbitals:
       Occupied  (A) (A) (A) (A) (A) (A)
       Virtual   (A) (A) (A) (A) (A) (A) (A) (A) (A) (A) (A) (A)
                 (A) (A) (A) (A) (A) (A) (A) (A) (A) (A) (A) (A)
                 (A) (A) (A) (A) (A) (A) (A) (A) (A) (A) (A) (A)
                 (A) (A) (A) (A) (A) (A) (A) (A) (A) (A) (A) (A)
                 (A) (A) (A) (A) (A) (A) (A)
 Beta  Orbitals:
       Occupied  (A) (A) (A) (A) (A)
       Virtual   (A) (A) (A) (A) (A) (A) (A) (A) (A) (A) (A) (A)
                 (A) (A) (A) (A) (A) (A) (A) (A) (A) (A) (A) (A)
                 (A) (A) (A) (A) (A) (A) (A) (A) (A) (A) (A) (A)
                 (A) (A) (A) (A) (A) (A) (A) (A) (A) (A) (A) (A)
                 (A) (A) (A) (A) (A) (A) (A) (A)
 The electronic state is 2-A.
 Alpha  occ. eigenvalues --  -19.67163  -1.13933  -0.61366  -0.54247  -0.42761
 Alpha  occ. eigenvalues --   -0.39468
 Alpha virt. eigenvalues --    0.08192   0.14063   0.16690   0.16739   0.19687
 Alpha virt. eigenvalues --    0.23075   0.39912   0.48528   0.53903   0.55087
 Alpha virt. eigenvalues --    0.55943   0.72947   0.76344   0.86573   0.93091
 Alpha virt. eigenvalues --    0.97996   1.08496   1.09913   1.17211   1.33326
 Alpha virt. eigenvalues --    1.41860   1.74338   1.76831   1.81760   2.01286
 Alpha virt. eigenvalues --    2.12957   2.21981   2.37482   2.64838   2.73623
 Alpha virt. eigenvalues --    3.47589   3.51661   3.58388   3.59832   3.84983
 Alpha virt. eigenvalues --    4.05013   4.07592   4.11417   4.77337   4.99777
 Alpha virt. eigenvalues --    5.02116   5.05530   5.11302   5.20077   5.25973
 Alpha virt. eigenvalues --    5.49175   5.52283   6.01775   6.76589   6.85829
 Alpha virt. eigenvalues --    6.92588   7.04634   7.22994   7.47951  49.96168
  Beta  occ. eigenvalues --  -19.65906  -1.08885  -0.55824  -0.48491  -0.39867
  Beta virt. eigenvalues --   -0.11886   0.08692   0.11669   0.16615   0.17426
  Beta virt. eigenvalues --    0.19360   0.23853   0.39480   0.49768   0.55567
  Beta virt. eigenvalues --    0.55913   0.56329   0.73071   0.76810   0.86921
  Beta virt. eigenvalues --    0.92040   0.99741   1.06852   1.10665   1.15911
  Beta virt. eigenvalues --    1.34236   1.43408   1.74357   1.78673   1.82668
  Beta virt. eigenvalues --    2.02315   2.18755   2.23933   2.38331   2.65356
  Beta virt. eigenvalues --    2.79246   3.55860   3.59125   3.61527   3.67614
  Beta virt. eigenvalues --    3.85478   4.06831   4.08139   4.11715   4.92993
  Beta virt. eigenvalues --    5.03215   5.04570   5.08720   5.14365   5.23894
  Beta virt. eigenvalues --    5.29158   5.53053   5.54905   6.19607   6.88490
  Beta virt. eigenvalues --    6.88994   7.04115   7.09187   7.27852   7.60274
  Beta virt. eigenvalues --   49.95618
          Condensed to atoms (all electrons):
               1          2          3          4
     1  O    8.115722   0.233767   0.026642  -0.057705
     2  H    0.233767   0.521462   0.000217   0.009082
     3  H    0.026642   0.000217   0.508488   0.374068
     4  H   -0.057705   0.009082   0.374068   0.682186
          Atomic-Atomic Spin Densities.
               1          2          3          4
     1  O    0.754873   0.012276  -0.043808  -0.072189
     2  H    0.012276  -0.027882   0.000401   0.001940
     3  H   -0.043808   0.000401  -0.049449   0.092073
     4  H   -0.072189   0.001940   0.092073   0.341073
 Mulliken charges and spin densities:
               1          2
     1  O   -0.318427   0.651151
     2  H    0.235472  -0.013264
     3  H    0.090585  -0.000784
     4  H   -0.007631   0.362896
 Sum of Mulliken charges =  -0.00000   1.00000
 Mulliken charges and spin densities with hydrogens summed into heavy atoms:
               1          2
     1  O   -0.000000   1.000000
 Electronic spatial extent (au):  <R**2>=             38.3791
 Charge=             -0.0000 electrons
 Dipole moment (field-independent basis, Debye):
    X=              0.6636    Y=              1.5977    Z=              0.0001  Tot=              1.7301
 Quadrupole moment (field-independent basis, Debye-Ang):
   XX=             -6.6307   YY=             -6.7692   ZZ=             -8.9369
   XY=             -0.8213   XZ=             -0.0001   YZ=             -0.0000
 Traceless Quadrupole moment (field-independent basis, Debye-Ang):
   XX=              0.8149   YY=              0.6764   ZZ=             -1.4913
   XY=             -0.8213   XZ=             -0.0001   YZ=             -0.0000
 Octapole moment (field-independent basis, Debye-Ang**2):
  XXX=             -0.5331  YYY=              1.7232  ZZZ=              0.0001  XYY=             -1.4683
  XXY=              0.6696  XXZ=             -0.0003  XZZ=             -0.6923  YZZ=              0.2133
  YYZ=              0.0000  XYZ=             -0.0001
 Hexadecapole moment (field-independent basis, Debye-Ang**3):
 XXXX=            -30.8256 YYYY=             -8.0196 ZZZZ=             -8.3056 XXXY=             -0.0812
 XXXZ=             -0.0007 YYYX=             -1.1888 YYYZ=              0.0000 ZZZX=              0.0000
 ZZZY=              0.0000 XXYY=             -7.4358 XXZZ=             -7.6906 YYZZ=             -2.9816
 XXYZ=             -0.0001 YYXZ=             -0.0000 ZZXY=             -0.2055
 N-N= 1.073786056466D+01 E-N=-2.031617673758D+02  KE= 7.667611645472D+01
                          Isotropic Fermi Contact Couplings
        Atom                 a.u.       MegaHertz       Gauss      10(-4) cm-1
     1  O(17)              0.11090     -67.22903     -23.98899     -22.42519
     2  H(1)              -0.01143     -51.10367     -18.23506     -17.04635
     3  H(1)              -0.02886    -129.00732     -46.03302     -43.03221
     4  H(1)               0.15529     694.13991     247.68638     231.54015
 --------------------------------------------------------
       Center         ----  Spin Dipole Couplings  ----
                      3XX-RR        3YY-RR        3ZZ-RR
 --------------------------------------------------------
     1   Atom        2.753191     -1.348654     -1.404537
     2   Atom       -0.026694      0.127196     -0.100502
     3   Atom        0.246959     -0.118694     -0.128265
     4   Atom        0.011639     -0.004314     -0.007325
 --------------------------------------------------------
                        XY            XZ            YZ
 --------------------------------------------------------
     1   Atom        0.525829     -0.000075     -0.000009
     2   Atom       -0.028357     -0.000002      0.000006
     3   Atom        0.036916     -0.000013     -0.000008
     4   Atom        0.007096     -0.000006     -0.000003
 --------------------------------------------------------


 ---------------------------------------------------------------------------------
              Anisotropic Spin Dipole Couplings in Principal Axis System
 ---------------------------------------------------------------------------------

       Atom             a.u.   MegaHertz   Gauss  10(-4) cm-1        Axes

              Baa    -1.4150   102.388    36.534    34.153 -0.1252  0.9921 -0.0001
     1 O(17)  Bbb    -1.4045   101.631    36.265    33.901  0.0000  0.0001  1.0000
              Bcc     2.8195  -204.019   -72.799   -68.053  0.9921  0.1252 -0.0000
 
              Baa    -0.1005   -53.623   -19.134   -17.887  0.0000 -0.0000  1.0000
     2 H(1)   Bbb    -0.0318   -16.942    -6.045    -5.651  0.9845  0.1756 -0.0000
              Bcc     0.1323    70.565    25.179    23.538 -0.1756  0.9845  0.0000
 
              Baa    -0.1283   -68.436   -24.420   -22.828 -0.0001  0.0011  1.0000
     3 H(1)   Bbb    -0.1224   -65.298   -23.300   -21.781 -0.0995  0.9950 -0.0011
              Bcc     0.2506   133.734    47.720    44.609  0.9950  0.0995 -0.0000
 
              Baa    -0.0073    -3.908    -1.395    -1.304 -0.0003  0.0016  1.0000
     4 H(1)   Bbb    -0.0070    -3.742    -1.335    -1.248 -0.3556  0.9346 -0.0016
              Bcc     0.0143     7.650     2.730     2.552  0.9346  0.3556 -0.0003
 

 ---------------------------------------------------------------------------------

 No NMR shielding tensors so no spin-rotation constants.
 Leave Link  601 at Sun Apr 18 10:07:55 2021, MaxMem=   104857600 cpu:              63.5 elap:               1.4
 (Enter /s/ls4/users/knvvv/bin/g16sse/l9999.exe)

 Test job not archived.
 1\1\GINC-N178\Stability\UM062X\Gen\H3O1(2)\KNVVV\18-Apr-2021\0\\#P M06
 2X/GEN Integral=UltraFineGrid SCF=NoSymm Stable=(RExt, Opt) IOp(1/33=1
 )\\Database calculations.\\0,2\O,0,-0.3010642614,-0.1080489904,-0.0000
 08\H,0,-0.4279440228,0.8515678429,0.000016\H,0,1.0154857758,-0.1003669
 249,0.0001189998\H,0,1.8209675754,0.1131873011,-0.000073\\Version=ES64
 L-G16RevA.03\State=2-A\HF=-76.889803\S2=0.760653\S2-1=0.\S2A=0.750037\
 RMSD=3.051e-09\Dipole=0.2610992,0.628603,0.0000374\Quadrupole=0.605871
 4,0.5029009,-1.1087723,-0.6106243,-0.0000556,-0.0000034\PG=C01 [X(H3O1
 )]\\@


 NOTHING WILL BE ATTEMPTED IF ALL POSSIBLE OBJECTIONS
 MUST FIRST BE OVERCOME.

                               -- THE GOLDEN PRINCIPLE,
                    PAUL DICKSON'S "THE OFFICIAL RULES"
 Job cpu time:       0 days  0 hours 18 minutes 39.5 seconds.
 Elapsed time:       0 days  0 hours  0 minutes 24.3 seconds.
 File lengths (MBytes):  RWF=     20 Int=      0 D2E=      0 Chk=      2 Scr=      1
 Normal termination of Gaussian 16 at Sun Apr 18 10:07:55 2021.
