 Entering Gaussian System, Link 0=/s/ls4/users/knvvv/bin/g16sse/g16
 Input=data/database/M062X--def2-QZVPPD--163_co_W4-11.gjf
 Output=data/database/M062X--def2-QZVPPD--163_co_W4-11.log
 Initial command:
 /s/ls4/users/knvvv/bin/g16sse/l1.exe "/s/ls4/users/knvvv/bin/scratch/Gau-43780.inp" -scrdir="/s/ls4/users/knvvv/bin/scratch/"
 Entering Link 1 = /s/ls4/users/knvvv/bin/g16sse/l1.exe PID=     43781.
  
 Copyright (c) 1988,1990,1992,1993,1995,1998,2003,2009,2016,
            Gaussian, Inc.  All Rights Reserved.
  
 This is part of the Gaussian(R) 16 program.  It is based on
 the Gaussian(R) 09 system (copyright 2009, Gaussian, Inc.),
 the Gaussian(R) 03 system (copyright 2003, Gaussian, Inc.),
 the Gaussian(R) 98 system (copyright 1998, Gaussian, Inc.),
 the Gaussian(R) 94 system (copyright 1995, Gaussian, Inc.),
 the Gaussian 92(TM) system (copyright 1992, Gaussian, Inc.),
 the Gaussian 90(TM) system (copyright 1990, Gaussian, Inc.),
 the Gaussian 88(TM) system (copyright 1988, Gaussian, Inc.),
 the Gaussian 86(TM) system (copyright 1986, Carnegie Mellon
 University), and the Gaussian 82(TM) system (copyright 1983,
 Carnegie Mellon University). Gaussian is a federally registered
 trademark of Gaussian, Inc.
  
 This software contains proprietary and confidential information,
 including trade secrets, belonging to Gaussian, Inc.
  
 This software is provided under written license and may be
 used, copied, transmitted, or stored only in accord with that
 written license.
  
 The following legend is applicable only to US Government
 contracts under FAR:
  
                    RESTRICTED RIGHTS LEGEND
  
 Use, reproduction and disclosure by the US Government is
 subject to restrictions as set forth in subparagraphs (a)
 and (c) of the Commercial Computer Software - Restricted
 Rights clause in FAR 52.227-19.
  
 Gaussian, Inc.
 340 Quinnipiac St., Bldg. 40, Wallingford CT 06492
  
  
 ---------------------------------------------------------------
 Warning -- This program may not be used in any manner that
 competes with the business of Gaussian, Inc. or will provide
 assistance to any competitor of Gaussian, Inc.  The licensee
 of this program is prohibited from giving any competitor of
 Gaussian, Inc. access to this program.  By using this program,
 the user acknowledges that Gaussian, Inc. is engaged in the
 business of creating and licensing software in the field of
 computational chemistry and represents and warrants to the
 licensee that it is not a competitor of Gaussian, Inc. and that
 it will not use this program in any manner prohibited above.
 ---------------------------------------------------------------
  

 Cite this work as:
 Gaussian 16, Revision A.03,
 M. J. Frisch, G. W. Trucks, H. B. Schlegel, G. E. Scuseria, 
 M. A. Robb, J. R. Cheeseman, G. Scalmani, V. Barone, 
 G. A. Petersson, H. Nakatsuji, X. Li, M. Caricato, A. V. Marenich, 
 J. Bloino, B. G. Janesko, R. Gomperts, B. Mennucci, H. P. Hratchian, 
 J. V. Ortiz, A. F. Izmaylov, J. L. Sonnenberg, D. Williams-Young, 
 F. Ding, F. Lipparini, F. Egidi, J. Goings, B. Peng, A. Petrone, 
 T. Henderson, D. Ranasinghe, V. G. Zakrzewski, J. Gao, N. Rega, 
 G. Zheng, W. Liang, M. Hada, M. Ehara, K. Toyota, R. Fukuda, 
 J. Hasegawa, M. Ishida, T. Nakajima, Y. Honda, O. Kitao, H. Nakai, 
 T. Vreven, K. Throssell, J. A. Montgomery, Jr., J. E. Peralta, 
 F. Ogliaro, M. J. Bearpark, J. J. Heyd, E. N. Brothers, K. N. Kudin, 
 V. N. Staroverov, T. A. Keith, R. Kobayashi, J. Normand, 
 K. Raghavachari, A. P. Rendell, J. C. Burant, S. S. Iyengar, 
 J. Tomasi, M. Cossi, J. M. Millam, M. Klene, C. Adamo, R. Cammi, 
 J. W. Ochterski, R. L. Martin, K. Morokuma, O. Farkas, 
 J. B. Foresman, and D. J. Fox, Gaussian, Inc., Wallingford CT, 2016.
 
 ******************************************
 Gaussian 16:  ES64L-G16RevA.03 25-Dec-2016
                17-Apr-2021 
 ******************************************
 %RWF=temp18_25723,70GB
 %nprocshared=48
 Will use up to   48 processors via shared memory.
 Default route: MaxDisk=80GB
 ----------------------------------------------------------------------
 #P M062X/GEN Integral=UltraFineGrid SCF=NoSymm Stable=(RExt, Opt) IOp(
 1/33=1)
 ----------------------------------------------------------------------
 1/33=1,38=1,172=1/1;
 2/12=2,17=6,18=5,40=1/2;
 3/5=7,11=2,25=1,30=1,74=-55,75=-5/1,2,3;
 4/9=2/1;
 5/5=2,38=5/2;
 6/7=2,8=2,9=2,10=2,28=1/1;
 8/6=1,10=90,11=11/1;
 9/8=-3,42=1,46=1/14;
 5/5=2,8=3,17=40,38=5/8(-2);
 6/7=2,8=2,9=2,10=2,28=1/1;
 99/5=1,9=1/99;
 Leave Link    1 at Sat Apr 17 08:53:42 2021, MaxMem=           0 cpu:              11.4 elap:               0.3
 (Enter /s/ls4/users/knvvv/bin/g16sse/l101.exe)
 ONIOM data not found on unit 2.
 ----------------------
 Database calculations.
 ----------------------
 TstMul:  ICh=     0
 TstMul:  Mul=     1
 TstMul:  ICh=     0
 TstMul:  Mul=     1
 Symbolic Z-matrix:
 Charge =  0 Multiplicity = 1
 C                     0.        0.        0. 
 O                     0.        0.        1.1314 
 
 RdStrC is calling ZToCFu for IStruc=1 NZ=     2.
 PrtBox:  NBox=     1 Levels=  1 BoxLen=    8.00 SMaxX=        2.14
          Shift=            0.000000            0.000000            0.000000
 Box      1 Number                   0 centers from      1 to      2:
 After GenITR:
 ITRead=  0  0
 MicOpt= -1 -1
 ITRead=  0  0
 MicOpt= -1 -1
 NAtoms=      2 NQM=        2 NQMF=       0 NMMI=      0 NMMIF=      0
                NMic=       0 NMicF=      0.
                    Isotopes and Nuclear Properties:
 (Nuclear quadrupole moments (NQMom) in fm**2, nuclear magnetic moments (NMagM)
  in nuclear magnetons)

  Atom         1           2
 IAtWgt=          12          16
 AtmWgt=  12.0000000  15.9949146
 NucSpn=           0           0
 AtZEff=  -0.0000000  -0.0000000
 NQMom=    0.0000000   0.0000000
 NMagM=    0.0000000   0.0000000
 AtZNuc=   6.0000000   8.0000000
 No MM parameters found.
 Leave Link  101 at Sat Apr 17 08:53:42 2021, MaxMem=   104857600 cpu:               7.1 elap:               0.2
 (Enter /s/ls4/users/knvvv/bin/g16sse/l202.exe)
                          Input orientation:                          
 ---------------------------------------------------------------------
 Center     Atomic      Atomic             Coordinates (Angstroms)
 Number     Number       Type             X           Y           Z
 ---------------------------------------------------------------------
      1          6           0        0.000000    0.000000    0.000000
      2          8           0        0.000000    0.000000    1.131400
 ---------------------------------------------------------------------
 Stoichiometry    CO
 Framework group  C*V[C*(CO)]
 Deg. of freedom     1
 Full point group                 C*V     NOp   4
 Largest Abelian subgroup         C2V     NOp   4
 Largest concise Abelian subgroup C1      NOp   1
                         Standard orientation:                         
 ---------------------------------------------------------------------
 Center     Atomic      Atomic             Coordinates (Angstroms)
 Number     Number       Type             X           Y           Z
 ---------------------------------------------------------------------
      1          6           0        0.000000    0.000000   -0.646514
      2          8           0        0.000000    0.000000    0.484886
 ---------------------------------------------------------------------
 Rotational constants (GHZ):           0.0000000          57.5838669          57.5838669
 Leave Link  202 at Sat Apr 17 08:53:43 2021, MaxMem=   104857600 cpu:               6.0 elap:               0.2
 (Enter /s/ls4/users/knvvv/bin/g16sse/l301.exe)
 General basis read from cards:  (5D, 7F)
 Centers:       1
 S 8 1.00
     Exponent=  6.7025071029D+04 Coefficients=  3.8736308501D-05
     Exponent=  1.0039986538D+04 Coefficients=  3.0107917575D-04
     Exponent=  2.2849316911D+03 Coefficients=  1.5787918095D-03
     Exponent=  6.4714122130D+02 Coefficients=  6.6087087195D-03
     Exponent=  2.1109472335D+02 Coefficients=  2.3367123250D-02
     Exponent=  7.6177643862D+01 Coefficients=  7.0420716898D-02
     Exponent=  2.9633839163D+01 Coefficients=  1.7360344953D-01
     Exponent=  1.2187785081D+01 Coefficients=  3.2292305648D-01
 S 2 1.00
     Exponent=  5.3026006299D+01 Coefficients=  7.4897404492D-02
     Exponent=  1.5258502776D+01 Coefficients=  7.6136220983D-01
 S 1 1.00
     Exponent=  5.2403957464D+00 Coefficients=  1.0000000000D+00
 S 1 1.00
     Exponent=  2.2905022379D+00 Coefficients=  1.0000000000D+00
 S 1 1.00
     Exponent=  6.9673283006D-01 Coefficients=  1.0000000000D+00
 S 1 1.00
     Exponent=  2.7599337363D-01 Coefficients=  1.0000000000D+00
 S 1 1.00
     Exponent=  1.0739884389D-01 Coefficients=  1.0000000000D+00
 S 1 1.00
     Exponent=  4.4981404899D-02 Coefficients=  1.0000000000D+00
 P 5 1.00
     Exponent=  1.0512555082D+02 Coefficients=  8.4647553844D-04
     Exponent=  2.4884461066D+01 Coefficients=  6.6274038534D-03
     Exponent=  7.8637230826D+00 Coefficients=  3.0120390419D-02
     Exponent=  2.8407001835D+00 Coefficients=  9.9951435476D-02
     Exponent=  1.1227137335D+00 Coefficients=  2.3826299282D-01
 P 1 1.00
     Exponent=  4.6050725555D-01 Coefficients=  1.0000000000D+00
 P 1 1.00
     Exponent=  1.8937530913D-01 Coefficients=  1.0000000000D+00
 P 1 1.00
     Exponent=  7.5983791611D-02 Coefficients=  1.0000000000D+00
 D 1 1.00
     Exponent=  1.8480000000D+00 Coefficients=  1.0000000000D+00
 D 1 1.00
     Exponent=  6.4900000000D-01 Coefficients=  1.0000000000D+00
 D 1 1.00
     Exponent=  2.2800000000D-01 Coefficients=  1.0000000000D+00
 D 1 1.00
     Exponent=  7.6889830417D-02 Coefficients=  1.0000000000D+00
 F 1 1.00
     Exponent=  1.4190000000D+00 Coefficients=  1.0000000000D+00
 F 1 1.00
     Exponent=  4.8500000000D-01 Coefficients=  1.0000000000D+00
 G 1 1.00
     Exponent=  1.0110000000D+00 Coefficients=  1.0000000000D+00
 ****
 Centers:       2
 S 8 1.00
     Exponent=  1.1650646908D+05 Coefficients=  4.0383857939D-05
     Exponent=  1.7504349724D+04 Coefficients=  3.1255139004D-04
     Exponent=  3.9934513230D+03 Coefficients=  1.6341473495D-03
     Exponent=  1.1330063186D+03 Coefficients=  6.8283224757D-03
     Exponent=  3.6999569594D+02 Coefficients=  2.4124410221D-02
     Exponent=  1.3362074349D+02 Coefficients=  7.2730206154D-02
     Exponent=  5.2035643649D+01 Coefficients=  1.7934429892D-01
     Exponent=  2.1461939313D+01 Coefficients=  3.3059588895D-01
 S 2 1.00
     Exponent=  8.9835051252D+01 Coefficients=  9.6468652996D-02
     Exponent=  2.6428010844D+01 Coefficients=  9.4117481120D-01
 S 1 1.00
     Exponent=  9.2822824649D+00 Coefficients=  1.0000000000D+00
 S 1 1.00
     Exponent=  4.0947728533D+00 Coefficients=  1.0000000000D+00
 S 1 1.00
     Exponent=  1.3255349078D+00 Coefficients=  1.0000000000D+00
 S 1 1.00
     Exponent=  5.1877230787D-01 Coefficients=  1.0000000000D+00
 S 1 1.00
     Exponent=  1.9772676454D-01 Coefficients=  1.0000000000D+00
 S 1 1.00
     Exponent=  6.9638535104D-02 Coefficients=  1.0000000000D+00
 P 5 1.00
     Exponent=  1.9115255810D+02 Coefficients=  2.5115697705D-03
     Exponent=  4.5233356739D+01 Coefficients=  2.0039240864D-02
     Exponent=  1.4353465922D+01 Coefficients=  9.3609064762D-02
     Exponent=  5.2422371832D+00 Coefficients=  3.0618127124D-01
     Exponent=  2.0792418599D+00 Coefficients=  6.7810501439D-01
 P 1 1.00
     Exponent=  8.4282371424D-01 Coefficients=  1.0000000000D+00
 P 1 1.00
     Exponent=  3.3617694891D-01 Coefficients=  1.0000000000D+00
 P 1 1.00
     Exponent=  1.2863997974D-01 Coefficients=  1.0000000000D+00
 P 1 1.00
     Exponent=  4.3598162776D-02 Coefficients=  1.0000000000D+00
 D 1 1.00
     Exponent=  3.7750000000D+00 Coefficients=  1.0000000000D+00
 D 1 1.00
     Exponent=  1.3000000000D+00 Coefficients=  1.0000000000D+00
 D 1 1.00
     Exponent=  4.4400000000D-01 Coefficients=  1.0000000000D+00
 D 1 1.00
     Exponent=  1.2546378695D-01 Coefficients=  1.0000000000D+00
 F 1 1.00
     Exponent=  2.6660000000D+00 Coefficients=  1.0000000000D+00
 F 1 1.00
     Exponent=  8.5900000000D-01 Coefficients=  1.0000000000D+00
 G 1 1.00
     Exponent=  1.8460000000D+00 Coefficients=  1.0000000000D+00
 ****
 Ernie: Thresh=  0.10000D-02 Tol=  0.10000D-05 Strict=F.
 There are    73 symmetry adapted cartesian basis functions of A1  symmetry.
 There are    18 symmetry adapted cartesian basis functions of A2  symmetry.
 There are    35 symmetry adapted cartesian basis functions of B1  symmetry.
 There are    35 symmetry adapted cartesian basis functions of B2  symmetry.
 There are    55 symmetry adapted basis functions of A1  symmetry.
 There are    16 symmetry adapted basis functions of A2  symmetry.
 There are    29 symmetry adapted basis functions of B1  symmetry.
 There are    29 symmetry adapted basis functions of B2  symmetry.
   129 basis functions,   201 primitive gaussians,   161 cartesian basis functions
     7 alpha electrons        7 beta electrons
       nuclear repulsion energy        22.4505092135 Hartrees.
 IExCor= 4336 DFT=T Ex+Corr=M062X ExCW=0 ScaHFX=  0.540000
 ScaDFX=  1.000000  1.000000  1.000000  1.000000 ScalE2=  1.000000  1.000000
 IRadAn=      5 IRanWt=     -1 IRanGd=            0 ICorTp=0 IEmpDi=  4
 NAtoms=    2 NActive=    2 NUniq=    2 SFac= 1.00D+00 NAtFMM=   60 NAOKFM=F Big=F
 Integral buffers will be    131072 words long.
 Raffenetti 2 integral format.
 Two-electron integral symmetry is turned on.
 Leave Link  301 at Sat Apr 17 08:53:43 2021, MaxMem=   104857600 cpu:               7.3 elap:               0.2
 (Enter /s/ls4/users/knvvv/bin/g16sse/l302.exe)
 NPDir=0 NMtPBC=     1 NCelOv=     1 NCel=       1 NClECP=     1 NCelD=      1
         NCelK=      1 NCelE2=     1 NClLst=     1 CellRange=     0.0.
 One-electron integrals computed using PRISM.
 One-electron integral symmetry used in STVInt
 PrsmSu:  requested number of processors reduced to:   4 ShMem   1 Linda.
 PrsmSu:  requested number of processors reduced to:  21 ShMem   1 Linda.
 NBasis=   129 RedAO= T EigKep=  5.03D-05  NBF=    55    16    29    29
 NBsUse=   129 1.00D-06 EigRej= -1.00D+00 NBFU=    55    16    29    29
 Precomputing XC quadrature grid using
 IXCGrd= 4 IRadAn=           5 IRanWt=          -1 IRanGd=           0 AccXCQ= 0.00D+00.
 Generated NRdTot=       0 NPtTot=           0 NUsed=           0 NTot=          32
 NSgBfM=   161   161   161   161   161 MxSgAt=     2 MxSgA2=     2.
 Leave Link  302 at Sat Apr 17 08:53:43 2021, MaxMem=   104857600 cpu:              18.0 elap:               0.5
 (Enter /s/ls4/users/knvvv/bin/g16sse/l303.exe)
 DipDrv:  MaxL=1.
 Leave Link  303 at Sat Apr 17 08:53:44 2021, MaxMem=   104857600 cpu:              29.9 elap:               0.7
 (Enter /s/ls4/users/knvvv/bin/g16sse/l401.exe)
 SCF N**3 symmetry information disabled.
 ExpMin= 4.36D-02 ExpMax= 1.17D+05 ExpMxC= 1.13D+03 IAcc=3 IRadAn=         5 AccDes= 0.00D+00
 Harris functional with IExCor= 1009 and IRadAn=       5 diagonalized for initial guess.
 HarFok:  IExCor= 1009 AccDes= 0.00D+00 IRadAn=         5 IDoV= 1 UseB2=F ITyADJ=14
 ICtDFT=  3500011 ScaDFX=  1.000000  1.000000  1.000000  1.000000
 FoFCou: FMM=F IPFlag=           0 FMFlag=      100000 FMFlg1=           0
         NFxFlg=           0 DoJE=T BraDBF=F KetDBF=T FulRan=T
         wScrn=  0.000000 ICntrl=       500 IOpCl=  0 I1Cent=   200000004 NGrid=           0
         NMat0=    1 NMatS0=      1 NMatT0=    0 NMatD0=    1 NMtDS0=    0 NMtDT0=    0
 Petite list used in FoFCou.
 CoulSu:  requested number of processors reduced to:  21 ShMem   1 Linda.
 CoulSu:  requested number of processors reduced to:  21 ShMem   1 Linda.
 CoulSu:  requested number of processors reduced to:  21 ShMem   1 Linda.
 CoulSu:  requested number of processors reduced to:  21 ShMem   1 Linda.
 Harris En= -113.243899987803    
 JPrj=0 DoOrth=F DoCkMO=F.
 Initial guess orbital symmetries:
       Occupied  (SG) (SG) (SG) (SG) (PI) (PI) (SG)
       Virtual   (PI) (PI) (SG) (SG) (PI) (PI) (SG) (DLTA) (DLTA)
                 (PI) (PI) (SG) (PI) (PI) (SG) (SG) (PI) (PI) (DLTA)
                 (DLTA) (SG) (SG) (PI) (PI) (DLTA) (DLTA) (SG)
                 (PI) (PI) (SG) (PI) (PI) (SG) (SG) (DLTA) (DLTA)
                 (PI) (PI) (SG) (PI) (PI) (PHI) (PHI) (DLTA) (DLTA)
                 (DLTA) (DLTA) (SG) (SG) (PI) (PI) (SG) (SG) (PI)
                 (PI) (PI) (PI) (PHI) (PHI) (SG) (DLTA) (DLTA)
                 (PI) (PI) (SG) (DLTA) (DLTA) (SG) (PI) (PI) (?A)
                 (?A) (SG) (PHI) (PHI) (PI) (PI) (SG) (DLTA) (DLTA)
                 (PI) (PI) (DLTA) (DLTA) (PHI) (PHI) (DLTA) (DLTA)
                 (SG) (PI) (PI) (SG) (SG) (PI) (PI) (?A) (?A) (PHI)
                 (PHI) (SG) (DLTA) (DLTA) (SG) (PI) (PI) (PHI)
                 (PHI) (DLTA) (DLTA) (PI) (PI) (SG) (DLTA) (DLTA)
                 (PI) (PI) (SG) (SG) (SG) (SG) (SG) (SG)
 The electronic state of the initial guess is 1-SG.
 Leave Link  401 at Sat Apr 17 08:53:46 2021, MaxMem=   104857600 cpu:             103.3 elap:               2.4
 (Enter /s/ls4/users/knvvv/bin/g16sse/l502.exe)
 Keep R1 ints in memory in symmetry-blocked form, NReq=89442747.
 FoFCou: FMM=F IPFlag=           0 FMFlag=           0 FMFlg1=           0
         NFxFlg=           0 DoJE=F BraDBF=F KetDBF=F FulRan=T
         wScrn=  0.000000 ICntrl=       600 IOpCl=  0 I1Cent=           0 NGrid=           0
         NMat0=    1 NMatS0=   8385 NMatT0=    0 NMatD0=    1 NMtDS0=    0 NMtDT0=    0
 Petite list used in FoFCou.
 CoulSu:  requested number of processors reduced to:  15 ShMem   1 Linda.
 Closed shell SCF:
 Using DIIS extrapolation, IDIIS=  1040.
 NGot=   104857600 LenX=    95808750 LenY=    95782388
 Requested convergence on RMS density matrix=1.00D-08 within 128 cycles.
 Requested convergence on MAX density matrix=1.00D-06.
 Requested convergence on             energy=1.00D-06.
 No special actions if energy rises.

 Cycle   1  Pass 1  IDiag  1:
 E= -113.307432640896    
 DIIS: error= 3.32D-02 at cycle   1 NSaved=   1.
 NSaved= 1 IEnMin= 1 EnMin= -113.307432640896     IErMin= 1 ErrMin= 3.32D-02
 ErrMax= 3.32D-02  0.00D+00 EMaxC= 1.00D-01 BMatC= 8.10D-02 BMatP= 8.10D-02
 IDIUse=3 WtCom= 6.68D-01 WtEn= 3.32D-01
 Coeff-Com:  0.100D+01
 Coeff-En:   0.100D+01
 Coeff:      0.100D+01
 Gap=     0.491 Goal=   None    Shift=    0.000
 GapD=    0.491 DampG=2.000 DampE=0.500 DampFc=1.0000 IDamp=-1.
 RMSDP=2.23D-03 MaxDP=1.14D-01              OVMax= 9.44D-02

 Cycle   2  Pass 1  IDiag  1:
 E= -113.293905552552     Delta-E=        0.013527088344 Rises=F Damp=F
 DIIS: error= 3.03D-02 at cycle   2 NSaved=   2.
 NSaved= 2 IEnMin= 1 EnMin= -113.307432640896     IErMin= 2 ErrMin= 3.03D-02
 ErrMax= 3.03D-02  0.00D+00 EMaxC= 1.00D-01 BMatC= 5.65D-02 BMatP= 8.10D-02
 IDIUse=3 WtCom= 6.97D-01 WtEn= 3.03D-01
 Coeff-Com:  0.442D+00 0.558D+00
 Coeff-En:   0.615D+00 0.385D+00
 Coeff:      0.494D+00 0.506D+00
 Gap=     0.465 Goal=   None    Shift=    0.000
 RMSDP=8.48D-04 MaxDP=2.87D-02 DE= 1.35D-02 OVMax= 8.04D-02

 Cycle   3  Pass 1  IDiag  1:
 E= -113.325168187869     Delta-E=       -0.031262635317 Rises=F Damp=F
 DIIS: error= 1.13D-02 at cycle   3 NSaved=   3.
 NSaved= 3 IEnMin= 3 EnMin= -113.325168187869     IErMin= 3 ErrMin= 1.13D-02
 ErrMax= 1.13D-02  0.00D+00 EMaxC= 1.00D-01 BMatC= 6.92D-03 BMatP= 5.65D-02
 IDIUse=3 WtCom= 8.87D-01 WtEn= 1.13D-01
 Coeff-Com:  0.186D-01 0.259D+00 0.722D+00
 Coeff-En:   0.000D+00 0.126D+00 0.874D+00
 Coeff:      0.165D-01 0.244D+00 0.740D+00
 Gap=     0.468 Goal=   None    Shift=    0.000
 RMSDP=2.67D-04 MaxDP=6.21D-03 DE=-3.13D-02 OVMax= 2.68D-02

 Cycle   4  Pass 1  IDiag  1:
 E= -113.329911625734     Delta-E=       -0.004743437865 Rises=F Damp=F
 DIIS: error= 2.20D-03 at cycle   4 NSaved=   4.
 NSaved= 4 IEnMin= 4 EnMin= -113.329911625734     IErMin= 4 ErrMin= 2.20D-03
 ErrMax= 2.20D-03  0.00D+00 EMaxC= 1.00D-01 BMatC= 2.55D-04 BMatP= 6.92D-03
 IDIUse=3 WtCom= 9.78D-01 WtEn= 2.20D-02
 Coeff-Com: -0.370D-02 0.513D-01 0.267D+00 0.685D+00
 Coeff-En:   0.000D+00 0.000D+00 0.000D+00 0.100D+01
 Coeff:     -0.362D-02 0.501D-01 0.261D+00 0.692D+00
 Gap=     0.465 Goal=   None    Shift=    0.000
 RMSDP=5.54D-05 MaxDP=1.76D-03 DE=-4.74D-03 OVMax= 4.56D-03

 Cycle   5  Pass 1  IDiag  1:
 E= -113.330107453083     Delta-E=       -0.000195827349 Rises=F Damp=F
 DIIS: error= 8.05D-05 at cycle   5 NSaved=   5.
 NSaved= 5 IEnMin= 5 EnMin= -113.330107453083     IErMin= 5 ErrMin= 8.05D-05
 ErrMax= 8.05D-05  0.00D+00 EMaxC= 1.00D-01 BMatC= 3.53D-07 BMatP= 2.55D-04
 IDIUse=1 WtCom= 1.00D+00 WtEn= 0.00D+00
 Coeff-Com: -0.407D-03-0.624D-02-0.247D-01-0.226D-01 0.105D+01
 Coeff:     -0.407D-03-0.624D-02-0.247D-01-0.226D-01 0.105D+01
 Gap=     0.465 Goal=   None    Shift=    0.000
 RMSDP=8.19D-06 MaxDP=3.15D-04 DE=-1.96D-04 OVMax= 2.27D-04

 Cycle   6  Pass 1  IDiag  1:
 E= -113.330107785718     Delta-E=       -0.000000332635 Rises=F Damp=F
 DIIS: error= 1.24D-05 at cycle   6 NSaved=   6.
 NSaved= 6 IEnMin= 6 EnMin= -113.330107785718     IErMin= 6 ErrMin= 1.24D-05
 ErrMax= 1.24D-05  0.00D+00 EMaxC= 1.00D-01 BMatC= 7.42D-09 BMatP= 3.53D-07
 IDIUse=1 WtCom= 1.00D+00 WtEn= 0.00D+00
 Coeff-Com:  0.676D-04-0.908D-03-0.332D-02-0.589D-02 0.575D-01 0.953D+00
 Coeff:      0.676D-04-0.908D-03-0.332D-02-0.589D-02 0.575D-01 0.953D+00
 Gap=     0.465 Goal=   None    Shift=    0.000
 RMSDP=7.80D-07 MaxDP=3.51D-05 DE=-3.33D-07 OVMax= 3.72D-05

 Cycle   7  Pass 1  IDiag  1:
 E= -113.330107792150     Delta-E=       -0.000000006432 Rises=F Damp=F
 DIIS: error= 4.05D-06 at cycle   7 NSaved=   7.
 NSaved= 7 IEnMin= 7 EnMin= -113.330107792150     IErMin= 7 ErrMin= 4.05D-06
 ErrMax= 4.05D-06  0.00D+00 EMaxC= 1.00D-01 BMatC= 5.05D-10 BMatP= 7.42D-09
 IDIUse=1 WtCom= 1.00D+00 WtEn= 0.00D+00
 Coeff-Com:  0.222D-04 0.119D-03 0.631D-03 0.113D-04-0.346D-01-0.158D-01
 Coeff-Com:  0.105D+01
 Coeff:      0.222D-04 0.119D-03 0.631D-03 0.113D-04-0.346D-01-0.158D-01
 Coeff:      0.105D+01
 Gap=     0.465 Goal=   None    Shift=    0.000
 RMSDP=2.06D-07 MaxDP=1.17D-05 DE=-6.43D-09 OVMax= 7.43D-06

 Cycle   8  Pass 1  IDiag  1:
 E= -113.330107792573     Delta-E=       -0.000000000423 Rises=F Damp=F
 DIIS: error= 1.83D-07 at cycle   8 NSaved=   8.
 NSaved= 8 IEnMin= 8 EnMin= -113.330107792573     IErMin= 8 ErrMin= 1.83D-07
 ErrMax= 1.83D-07  0.00D+00 EMaxC= 1.00D-01 BMatC= 1.61D-12 BMatP= 5.05D-10
 IDIUse=1 WtCom= 1.00D+00 WtEn= 0.00D+00
 Coeff-Com: -0.168D-05 0.104D-04 0.330D-04-0.176D-04-0.119D-02-0.115D-01
 Coeff-Com:  0.304D-01 0.982D+00
 Coeff:     -0.168D-05 0.104D-04 0.330D-04-0.176D-04-0.119D-02-0.115D-01
 Coeff:      0.304D-01 0.982D+00
 Gap=     0.465 Goal=   None    Shift=    0.000
 RMSDP=3.22D-08 MaxDP=1.32D-06 DE=-4.23D-10 OVMax= 5.92D-07

 Cycle   9  Pass 1  IDiag  1:
 E= -113.330107792574     Delta-E=       -0.000000000002 Rises=F Damp=F
 DIIS: error= 6.33D-08 at cycle   9 NSaved=   9.
 NSaved= 9 IEnMin= 9 EnMin= -113.330107792574     IErMin= 9 ErrMin= 6.33D-08
 ErrMax= 6.33D-08  0.00D+00 EMaxC= 1.00D-01 BMatC= 2.01D-13 BMatP= 1.61D-12
 IDIUse=1 WtCom= 1.00D+00 WtEn= 0.00D+00
 Coeff-Com: -0.790D-07-0.692D-06 0.188D-05 0.503D-05 0.285D-03 0.577D-03
 Coeff-Com: -0.103D-01-0.132D+00 0.114D+01
 Coeff:     -0.790D-07-0.692D-06 0.188D-05 0.503D-05 0.285D-03 0.577D-03
 Coeff:     -0.103D-01-0.132D+00 0.114D+01
 Gap=     0.465 Goal=   None    Shift=    0.000
 RMSDP=8.77D-09 MaxDP=3.75D-07 DE=-1.53D-12 OVMax= 1.44D-07

 SCF Done:  E(RM062X) =  -113.330107793     A.U. after    9 cycles
            NFock=  9  Conv=0.88D-08     -V/T= 2.0036
 KE= 1.129186382179D+02 PE=-3.111070964052D+02 EE= 6.240784118118D+01
 Leave Link  502 at Sat Apr 17 08:54:28 2021, MaxMem=   104857600 cpu:            1953.6 elap:              42.0
 (Enter /s/ls4/users/knvvv/bin/g16sse/l601.exe)
 Copying SCF densities to generalized density rwf, IOpCl= 0 IROHF=0.

 **********************************************************************

            Population analysis using the SCF density.

 **********************************************************************

 Orbital symmetries:
       Occupied  (SG) (SG) (SG) (SG) (PI) (PI) (SG)
       Virtual   (PI) (PI) (SG) (PI) (PI) (SG) (SG) (DLTA) (DLTA)
                 (PI) (PI) (SG) (PI) (PI) (SG) (SG) (DLTA) (DLTA)
                 (PI) (PI) (SG) (SG) (PI) (PI) (DLTA) (DLTA) (SG)
                 (PI) (PI) (SG) (PI) (PI) (SG) (SG) (DLTA) (DLTA)
                 (PI) (PI) (SG) (PI) (PI) (PHI) (PHI) (DLTA) (DLTA)
                 (DLTA) (DLTA) (SG) (SG) (PI) (PI) (SG) (SG) (PI)
                 (PI) (PI) (PI) (PHI) (PHI) (SG) (DLTA) (DLTA)
                 (PI) (PI) (SG) (DLTA) (DLTA) (SG) (PI) (PI) (?A)
                 (?A) (PHI) (PHI) (SG) (PI) (PI) (SG) (DLTA) (DLTA)
                 (PI) (PI) (PHI) (PHI) (DLTA) (DLTA) (DLTA) (DLTA)
                 (PI) (PI) (SG) (SG) (SG) (PI) (PI) (?A) (?A) (PHI)
                 (PHI) (SG) (DLTA) (DLTA) (SG) (PI) (PI) (PHI)
                 (PHI) (DLTA) (DLTA) (PI) (PI) (SG) (DLTA) (DLTA)
                 (PI) (PI) (SG) (SG) (SG) (SG) (SG) (SG)
 The electronic state is 1-SG.
 Alpha  occ. eigenvalues --  -19.73657 -10.66387  -1.29052  -0.67421  -0.55590
 Alpha  occ. eigenvalues --   -0.55590  -0.45157
 Alpha virt. eigenvalues --    0.01329   0.01329   0.02042   0.05635   0.05635
 Alpha virt. eigenvalues --    0.05722   0.13550   0.17394   0.17394   0.20654
 Alpha virt. eigenvalues --    0.20654   0.21084   0.25207   0.25207   0.27461
 Alpha virt. eigenvalues --    0.36964   0.40386   0.40386   0.40594   0.40594
 Alpha virt. eigenvalues --    0.45435   0.59534   0.61694   0.61694   0.65579
 Alpha virt. eigenvalues --    0.65579   0.69888   0.75715   0.75715   0.88059
 Alpha virt. eigenvalues --    0.97404   0.97404   0.98519   1.11507   1.30822
 Alpha virt. eigenvalues --    1.30822   1.41190   1.41190   1.51128   1.65299
 Alpha virt. eigenvalues --    1.65299   1.67497   1.67497   1.93107   1.93107
 Alpha virt. eigenvalues --    1.96261   1.96261   2.03434   2.10297   2.10697
 Alpha virt. eigenvalues --    2.10697   2.25494   2.41234   2.43224   2.43224
 Alpha virt. eigenvalues --    3.02611   3.02611   3.12293   3.12293   3.35815
 Alpha virt. eigenvalues --    3.60572   3.60572   3.88419   3.88419   3.90687
 Alpha virt. eigenvalues --    3.97548   3.97548   4.41937   4.45227   4.45227
 Alpha virt. eigenvalues --    4.70678   4.70679   4.86365   4.86365   4.91518
 Alpha virt. eigenvalues --    5.16445   5.16445   5.47172   5.56596   5.56598
 Alpha virt. eigenvalues --    5.67825   5.67825   5.80013   5.80013   5.80890
 Alpha virt. eigenvalues --    5.80892   6.05564   6.05565   6.12467   6.12467
 Alpha virt. eigenvalues --    6.14938   6.80996   7.30751   7.67320   7.67320
 Alpha virt. eigenvalues --    8.71212   8.71213   8.97808   8.97808   9.52470
 Alpha virt. eigenvalues --    9.83344   9.83345  10.07799  10.12193  10.12193
 Alpha virt. eigenvalues --   10.77394  10.77394  11.12263  11.12263  11.58554
 Alpha virt. eigenvalues --   11.58554  11.73102  11.97535  11.97537  13.27299
 Alpha virt. eigenvalues --   13.27299  13.44687  14.26089  27.94591  47.96476
 Alpha virt. eigenvalues --  145.34381 251.04379
          Condensed to atoms (all electrons):
               1          2
     1  C    5.079347   0.501745
     2  O    0.501745   7.917163
 Mulliken charges:
               1
     1  C    0.418908
     2  O   -0.418908
 Sum of Mulliken charges =  -0.00000
 Mulliken charges with hydrogens summed into heavy atoms:
               1
     1  C    0.418908
     2  O   -0.418908
 Electronic spatial extent (au):  <R**2>=             40.0205
 Charge=             -0.0000 electrons
 Dipole moment (field-independent basis, Debye):
    X=              0.0000    Y=             -0.0000    Z=              0.0003  Tot=              0.0003
 Quadrupole moment (field-independent basis, Debye-Ang):
   XX=            -10.2837   YY=            -10.2837   ZZ=            -12.1812
   XY=             -0.0000   XZ=              0.0000   YZ=              0.0000
 Traceless Quadrupole moment (field-independent basis, Debye-Ang):
   XX=              0.6325   YY=              0.6325   ZZ=             -1.2650
   XY=             -0.0000   XZ=              0.0000   YZ=              0.0000
 Octapole moment (field-independent basis, Debye-Ang**2):
  XXX=              0.0000  YYY=             -0.0000  ZZZ=              6.1259  XYY=              0.0000
  XXY=             -0.0000  XXZ=              1.1962  XZZ=              0.0000  YZZ=             -0.0000
  YYZ=              1.1962  XYZ=             -0.0000
 Hexadecapole moment (field-independent basis, Debye-Ang**3):
 XXXX=             -9.4462 YYYY=             -9.4462 ZZZZ=            -37.0293 XXXY=              0.0000
 XXXZ=              0.0000 YYYX=              0.0000 YYYZ=              0.0000 ZZZX=              0.0000
 ZZZY=              0.0000 XXYY=             -3.1487 XXZZ=             -7.1777 YYZZ=             -7.1777
 XXYZ=              0.0000 YYXZ=              0.0000 ZZXY=              0.0000
 N-N= 2.245050921351D+01 E-N=-3.111070971875D+02  KE= 1.129186382179D+02
 PrsmSu:  requested number of processors reduced to:  21 ShMem   1 Linda.
 No NMR shielding tensors so no spin-rotation constants.
 Leave Link  601 at Sat Apr 17 08:54:31 2021, MaxMem=   104857600 cpu:             105.0 elap:               2.4
 (Enter /s/ls4/users/knvvv/bin/g16sse/l801.exe)
 DoSCS=F DFT=T ScalE2(SS,OS)=  1.000000  1.000000
 Range of M.O.s used for correlation:     1   129
 NBasis=   129 NAE=     7 NBE=     7 NFC=     0 NFV=     0
 NROrb=    129 NOA=     7 NOB=     7 NVA=   122 NVB=   122

 **** Warning!!: The largest alpha MO coefficient is  0.33430326D+02

 Leave Link  801 at Sat Apr 17 08:54:31 2021, MaxMem=   104857600 cpu:               3.6 elap:               0.1
 (Enter /s/ls4/users/knvvv/bin/g16sse/l914.exe)
 RHF ground state
 Doing stability rather than CIS.
 Two-electron integrals replicated using symmetry.
 MDV=   104857600 DFT=T DoStab=T Mixed=T DoRPA=F DoScal=F NonHer=F
 Making orbital integer symmetry assigments:
 Orbital symmetries:
       Occupied  (SG) (SG) (SG) (SG) (PI) (PI) (SG)
       Virtual   (PI) (PI) (SG) (PI) (PI) (SG) (SG) (DLTA) (DLTA)
                 (PI) (PI) (SG) (PI) (PI) (SG) (SG) (DLTA) (DLTA)
                 (PI) (PI) (SG) (SG) (PI) (PI) (DLTA) (DLTA) (SG)
                 (PI) (PI) (SG) (PI) (PI) (SG) (SG) (DLTA) (DLTA)
                 (PI) (PI) (SG) (PI) (PI) (PHI) (PHI) (DLTA) (DLTA)
                 (DLTA) (DLTA) (SG) (SG) (PI) (PI) (SG) (SG) (PI)
                 (PI) (PI) (PI) (PHI) (PHI) (SG) (DLTA) (DLTA)
                 (PI) (PI) (SG) (DLTA) (DLTA) (SG) (PI) (PI) (?A)
                 (?A) (PHI) (PHI) (SG) (PI) (PI) (SG) (DLTA) (DLTA)
                 (PI) (PI) (PHI) (PHI) (DLTA) (DLTA) (DLTA) (DLTA)
                 (PI) (PI) (SG) (SG) (SG) (PI) (PI) (?A) (?A) (PHI)
                 (PHI) (SG) (DLTA) (DLTA) (SG) (PI) (PI) (PHI)
                 (PHI) (DLTA) (DLTA) (PI) (PI) (SG) (DLTA) (DLTA)
                 (PI) (PI) (SG) (SG) (SG) (SG) (SG) (SG)
    24 initial guesses have been made.
 Convergence on wavefunction:    0.001000000000000
 Davidson Disk Diagonalization:  ConvIn= 1.00D-03 SkipCon=T Conv= 1.00D-03.
 Max sub-space:  2000 roots to seek:    24 dimension of matrix:         1708
 Iteration     1 Dimension    24 NMult     0 NNew     24
 Estimated number of processors is:   20
 CISAX will form     1 AO SS matrices at one time.
 NMat=     1 NSing=     1 JSym2X= 2.
 FoFJK:  IHMeth= 1 ICntrl=       0 DoSepK=F KAlg= 0 I1Cent=           0 FoldK=F
 IRaf= 990000000 NMat=       1 IRICut=       1 DoRegI=T DoRafI=F ISym2E= 2 IDoP0=0 IntGTp=1.
 FoFCou: FMM=F IPFlag=           0 FMFlag=      100000 FMFlg1=           0
         NFxFlg=           0 DoJE=F BraDBF=F KetDBF=F FulRan=T
         wScrn=  0.000000 ICntrl=         0 IOpCl=  0 I1Cent=           0 NGrid=           0
         NMat0=    1 NMatS0=      1 NMatT0=    0 NMatD0=    1 NMtDS0=    0 NMtDT0=    0
 Integrals replicated using symmetry in FoFCou.
 CoulSu:  requested number of processors reduced to:  21 ShMem   1 Linda.
 NMat=     1 NSing=     1 JSym2X= 2.
 CoulSu:  requested number of processors reduced to:  21 ShMem   1 Linda.
 NMat=     1 NSing=     1 JSym2X= 2.
 CoulSu:  requested number of processors reduced to:  21 ShMem   1 Linda.
 NMat=     1 NSing=     1 JSym2X= 2.
 CoulSu:  requested number of processors reduced to:  21 ShMem   1 Linda.
 NMat=     1 NSing=     1 JSym2X= 2.
 CoulSu:  requested number of processors reduced to:  21 ShMem   1 Linda.
 NMat=     1 NSing=     1 JSym2X= 2.
 CoulSu:  requested number of processors reduced to:  21 ShMem   1 Linda.
 NMat=     1 NSing=     1 JSym2X= 2.
 CoulSu:  requested number of processors reduced to:  21 ShMem   1 Linda.
 NMat=     1 NSing=     1 JSym2X= 2.
 CoulSu:  requested number of processors reduced to:  21 ShMem   1 Linda.
 NMat=     1 NSing=     1 JSym2X= 2.
 CoulSu:  requested number of processors reduced to:  21 ShMem   1 Linda.
 NMat=     1 NSing=     1 JSym2X= 2.
 CoulSu:  requested number of processors reduced to:  21 ShMem   1 Linda.
 NMat=     1 NSing=     1 JSym2X= 2.
 CoulSu:  requested number of processors reduced to:  21 ShMem   1 Linda.
 NMat=     1 NSing=     1 JSym2X= 2.
 CoulSu:  requested number of processors reduced to:  21 ShMem   1 Linda.
 NMat=     1 NSing=     0 JSym2X= 2.
 CoulSu:  requested number of processors reduced to:  21 ShMem   1 Linda.
 NMat=     1 NSing=     0 JSym2X= 2.
 CoulSu:  requested number of processors reduced to:  21 ShMem   1 Linda.
 NMat=     1 NSing=     0 JSym2X= 2.
 CoulSu:  requested number of processors reduced to:  21 ShMem   1 Linda.
 NMat=     1 NSing=     0 JSym2X= 2.
 CoulSu:  requested number of processors reduced to:  21 ShMem   1 Linda.
 NMat=     1 NSing=     0 JSym2X= 2.
 CoulSu:  requested number of processors reduced to:  21 ShMem   1 Linda.
 NMat=     1 NSing=     0 JSym2X= 2.
 CoulSu:  requested number of processors reduced to:  21 ShMem   1 Linda.
 NMat=     1 NSing=     0 JSym2X= 2.
 CoulSu:  requested number of processors reduced to:  21 ShMem   1 Linda.
 NMat=     1 NSing=     0 JSym2X= 2.
 CoulSu:  requested number of processors reduced to:  21 ShMem   1 Linda.
 NMat=     1 NSing=     0 JSym2X= 2.
 CoulSu:  requested number of processors reduced to:  21 ShMem   1 Linda.
 NMat=     1 NSing=     0 JSym2X= 2.
 CoulSu:  requested number of processors reduced to:  21 ShMem   1 Linda.
 NMat=     1 NSing=     0 JSym2X= 2.
 CoulSu:  requested number of processors reduced to:  21 ShMem   1 Linda.
 NMat=     1 NSing=     0 JSym2X= 2.
 CoulSu:  requested number of processors reduced to:  21 ShMem   1 Linda.
 New state      1 was old state      4
 Excitation Energies [eV] at current iteration:
 Root      1 :     6.369543585769622
 Root      2 :     6.369543585776674
 Root      3 :     7.832961169483776
 Root      4 :     8.985118055381010
 Root      5 :     8.985251546191089
 Root      6 :    10.309784441327440
 Root      7 :    10.374422185138150
 Root      8 :    10.374545723746500
 Root      9 :    10.861830760223550
 Root     10 :    10.861830760223630
 Root     11 :    10.932251654734320
 Root     12 :    10.932251654739860
 Root     13 :    11.120432014303270
 Root     14 :    11.462681969929820
 Root     15 :    11.462681969972070
 Root     16 :    11.577687170725590
 Root     17 :    11.834718924322900
 Root     18 :    11.834718924330990
 Root     19 :    11.924373548216450
 Root     20 :    13.222610855990790
 Root     21 :    13.222610855996290
 Root     22 :    13.271953766802710
 Root     23 :    13.271953766804310
 Root     24 :    26.912087618477760
 Iteration     2 Dimension    48 NMult    24 NNew     24
 Estimated number of processors is:   20
 CISAX will form     1 AO SS matrices at one time.
 NMat=     1 NSing=     1 JSym2X= 2.
 CoulSu:  requested number of processors reduced to:  21 ShMem   1 Linda.
 NMat=     1 NSing=     1 JSym2X= 2.
 CoulSu:  requested number of processors reduced to:  21 ShMem   1 Linda.
 NMat=     1 NSing=     1 JSym2X= 2.
 CoulSu:  requested number of processors reduced to:  21 ShMem   1 Linda.
 NMat=     1 NSing=     1 JSym2X= 2.
 CoulSu:  requested number of processors reduced to:  21 ShMem   1 Linda.
 NMat=     1 NSing=     1 JSym2X= 2.
 CoulSu:  requested number of processors reduced to:  21 ShMem   1 Linda.
 NMat=     1 NSing=     1 JSym2X= 2.
 CoulSu:  requested number of processors reduced to:  21 ShMem   1 Linda.
 NMat=     1 NSing=     1 JSym2X= 2.
 CoulSu:  requested number of processors reduced to:  21 ShMem   1 Linda.
 NMat=     1 NSing=     1 JSym2X= 2.
 CoulSu:  requested number of processors reduced to:  21 ShMem   1 Linda.
 NMat=     1 NSing=     1 JSym2X= 2.
 CoulSu:  requested number of processors reduced to:  21 ShMem   1 Linda.
 NMat=     1 NSing=     1 JSym2X= 2.
 CoulSu:  requested number of processors reduced to:  21 ShMem   1 Linda.
 NMat=     1 NSing=     1 JSym2X= 2.
 CoulSu:  requested number of processors reduced to:  21 ShMem   1 Linda.
 NMat=     1 NSing=     1 JSym2X= 2.
 CoulSu:  requested number of processors reduced to:  21 ShMem   1 Linda.
 NMat=     1 NSing=     0 JSym2X= 2.
 CoulSu:  requested number of processors reduced to:  21 ShMem   1 Linda.
 NMat=     1 NSing=     0 JSym2X= 2.
 CoulSu:  requested number of processors reduced to:  21 ShMem   1 Linda.
 NMat=     1 NSing=     0 JSym2X= 2.
 CoulSu:  requested number of processors reduced to:  21 ShMem   1 Linda.
 NMat=     1 NSing=     0 JSym2X= 2.
 CoulSu:  requested number of processors reduced to:  21 ShMem   1 Linda.
 NMat=     1 NSing=     0 JSym2X= 2.
 CoulSu:  requested number of processors reduced to:  21 ShMem   1 Linda.
 NMat=     1 NSing=     0 JSym2X= 2.
 CoulSu:  requested number of processors reduced to:  21 ShMem   1 Linda.
 NMat=     1 NSing=     0 JSym2X= 2.
 CoulSu:  requested number of processors reduced to:  21 ShMem   1 Linda.
 NMat=     1 NSing=     0 JSym2X= 2.
 CoulSu:  requested number of processors reduced to:  21 ShMem   1 Linda.
 NMat=     1 NSing=     0 JSym2X= 2.
 CoulSu:  requested number of processors reduced to:  21 ShMem   1 Linda.
 NMat=     1 NSing=     0 JSym2X= 2.
 CoulSu:  requested number of processors reduced to:  21 ShMem   1 Linda.
 NMat=     1 NSing=     0 JSym2X= 2.
 CoulSu:  requested number of processors reduced to:  21 ShMem   1 Linda.
 NMat=     1 NSing=     0 JSym2X= 2.
 CoulSu:  requested number of processors reduced to:  21 ShMem   1 Linda.
 Root      1 not converged, maximum delta is    0.113344710442739
 Excitation Energies [eV] at current iteration:
 Root      1 :     5.737245586362265   Change is   -0.632297999407358
 Root      2 :     5.737245586367965   Change is   -0.632297999408708
 Root      3 :     6.282022928758598   Change is   -1.550938240725178
 Root      4 :     8.097287636312453   Change is   -0.887830419068558
 Root      5 :     8.097474774732090   Change is   -0.887776771458999
 Root      6 :     9.717509533348748   Change is   -1.214742121385572
 Root      7 :     9.717509533351263   Change is   -1.214742121388600
 Root      8 :     9.927767241171741   Change is   -0.446654943966408
 Root      9 :     9.927924672304957   Change is   -0.446621051441547
 Root     10 :    10.067358716603020   Change is   -0.242425724724423
 Root     11 :    10.541790000686660   Change is   -0.320040759536897
 Root     12 :    10.541790000686740   Change is   -0.320040759536889
 Root     13 :    10.919313518966010   Change is   -0.201118495337263
 Root     14 :    11.386217567343060   Change is   -0.076464402586761
 Root     15 :    11.386217567381610   Change is   -0.076464402590462
 Root     16 :    11.456179794809800   Change is   -0.121507375915792
 Root     17 :    11.604925563952970   Change is   -0.229793360369938
 Root     18 :    11.604925563963840   Change is   -0.229793360367152
 Root     19 :    11.768252648666140   Change is   -0.156120899550310
 Root     20 :    12.903715130262680   Change is   -0.318895725728111
 Root     21 :    12.903715130268890   Change is   -0.318895725727399
 Root     22 :    13.101981350671100   Change is   -0.169972416133212
 Root     23 :    13.101981350673040   Change is   -0.169972416129671
 Root     24 :    15.250921260529980   Change is  -11.661166357947780
 Iteration     3 Dimension    54 NMult    48 NNew      6
 Estimated number of processors is:   20
 CISAX will form     1 AO SS matrices at one time.
 NMat=     1 NSing=     1 JSym2X= 2.
 CoulSu:  requested number of processors reduced to:  21 ShMem   1 Linda.
 NMat=     1 NSing=     1 JSym2X= 2.
 CoulSu:  requested number of processors reduced to:  21 ShMem   1 Linda.
 NMat=     1 NSing=     1 JSym2X= 2.
 CoulSu:  requested number of processors reduced to:  21 ShMem   1 Linda.
 NMat=     1 NSing=     0 JSym2X= 2.
 CoulSu:  requested number of processors reduced to:  21 ShMem   1 Linda.
 NMat=     1 NSing=     0 JSym2X= 2.
 CoulSu:  requested number of processors reduced to:  21 ShMem   1 Linda.
 NMat=     1 NSing=     0 JSym2X= 2.
 CoulSu:  requested number of processors reduced to:  21 ShMem   1 Linda.
 Root      1 not converged, maximum delta is    0.005403847100211
 Excitation Energies [eV] at current iteration:
 Root      1 :     5.729048301526191   Change is   -0.008197284836074
 Root      2 :     5.729048301532331   Change is   -0.008197284835634
 Root      3 :     6.260446155975925   Change is   -0.021576772782673
 Root      4 :     9.624496717692251   Change is   -0.093012815659012
 Root      5 :     9.624498131988499   Change is   -0.093011401360248
 Root      6 :     9.916434325992562   Change is   -0.011332915179179
 Iteration     4 Dimension    60 NMult    54 NNew      6
 Estimated number of processors is:   20
 CISAX will form     1 AO SS matrices at one time.
 NMat=     1 NSing=     1 JSym2X= 2.
 CoulSu:  requested number of processors reduced to:  21 ShMem   1 Linda.
 NMat=     1 NSing=     1 JSym2X= 2.
 CoulSu:  requested number of processors reduced to:  21 ShMem   1 Linda.
 NMat=     1 NSing=     1 JSym2X= 2.
 CoulSu:  requested number of processors reduced to:  21 ShMem   1 Linda.
 NMat=     1 NSing=     0 JSym2X= 2.
 CoulSu:  requested number of processors reduced to:  21 ShMem   1 Linda.
 NMat=     1 NSing=     0 JSym2X= 2.
 CoulSu:  requested number of processors reduced to:  21 ShMem   1 Linda.
 NMat=     1 NSing=     0 JSym2X= 2.
 CoulSu:  requested number of processors reduced to:  21 ShMem   1 Linda.
 Vector  11 SDiff=9.69D-01 TDiff=4.22D-03 assumed to be triplet.
 Vector  12 SDiff=4.22D-03 TDiff=9.69D-01 assumed to be singlet.
 Root      1 not converged, maximum delta is    0.002108839430650
 Excitation Energies [eV] at current iteration:
 Root      1 :     5.728681613967902   Change is   -0.000366687558289
 Root      2 :     5.728681613974057   Change is   -0.000366687558274
 Root      3 :     6.259911668748634   Change is   -0.000534487227292
 Root      4 :     9.598485603513724   Change is   -0.026011114178527
 Root      5 :     9.598485661013909   Change is   -0.026012470974592
 Root      6 :     9.915956844154520   Change is   -0.000477481838043
 Iteration     5 Dimension    66 NMult    60 NNew      6
 Estimated number of processors is:   20
 CISAX will form     1 AO SS matrices at one time.
 NMat=     1 NSing=     1 JSym2X= 2.
 CoulSu:  requested number of processors reduced to:  21 ShMem   1 Linda.
 NMat=     1 NSing=     1 JSym2X= 2.
 CoulSu:  requested number of processors reduced to:  21 ShMem   1 Linda.
 NMat=     1 NSing=     1 JSym2X= 2.
 CoulSu:  requested number of processors reduced to:  21 ShMem   1 Linda.
 NMat=     1 NSing=     0 JSym2X= 2.
 CoulSu:  requested number of processors reduced to:  21 ShMem   1 Linda.
 NMat=     1 NSing=     0 JSym2X= 2.
 CoulSu:  requested number of processors reduced to:  21 ShMem   1 Linda.
 NMat=     1 NSing=     0 JSym2X= 2.
 CoulSu:  requested number of processors reduced to:  21 ShMem   1 Linda.
 Root      1 has converged.
 Excitation Energies [eV] at current iteration:
 Root      1 :     5.728654561989149   Change is   -0.000027051978753
 Root      2 :     5.728654561995304   Change is   -0.000027051978753
 Root      3 :     6.259890409958283   Change is   -0.000021258790351
 Root      4 :     9.597501938304010   Change is   -0.000983665209716
 Root      5 :     9.597501940414160   Change is   -0.000983720599748
 Root      6 :     9.915950846536008   Change is   -0.000005997618511
 Convergence achieved on expansion vectors.
 ***********************************************************************
 Stability analysis using <AA,BB:AA,BB> singles matrix:
 ***********************************************************************
 1PDM for each excited state written to RWF  633
 Ground to excited state transition densities written to RWF  633

 Eigenvectors of the stability matrix:
 
 Excited state symmetry could not be determined.
 Eigenvector   1:      Triplet-?Sym  Eigenvalue= 0.2105242  <S**2>=2.000
       7 ->  8         0.48456
       7 ->  9         0.45566
       7 -> 11        -0.13272
       7 -> 12        -0.11426
       7 -> 17         0.11325
 The wavefunction is stable under the perturbations considered.
 Leave Link  914 at Sat Apr 17 08:56:29 2021, MaxMem=   104857600 cpu:            4646.5 elap:             118.1
 (Enter /s/ls4/users/knvvv/bin/g16sse/l508.exe)
 The wavefunction is already stable.
 Leave Link  508 at Sat Apr 17 08:56:29 2021, MaxMem=   104857600 cpu:               2.2 elap:               0.1
 (Enter /s/ls4/users/knvvv/bin/g16sse/l601.exe)
 Copying SCF densities to generalized density rwf, IOpCl= 0 IROHF=0.

 **********************************************************************

            Population analysis using the SCF density.

 **********************************************************************

 Orbital symmetries:
       Occupied  (SG) (SG) (SG) (SG) (PI) (PI) (SG)
       Virtual   (PI) (PI) (SG) (PI) (PI) (SG) (SG) (DLTA) (DLTA)
                 (PI) (PI) (SG) (PI) (PI) (SG) (SG) (DLTA) (DLTA)
                 (PI) (PI) (SG) (SG) (PI) (PI) (DLTA) (DLTA) (SG)
                 (PI) (PI) (SG) (PI) (PI) (SG) (SG) (DLTA) (DLTA)
                 (PI) (PI) (SG) (PI) (PI) (PHI) (PHI) (DLTA) (DLTA)
                 (DLTA) (DLTA) (SG) (SG) (PI) (PI) (SG) (SG) (PI)
                 (PI) (PI) (PI) (PHI) (PHI) (SG) (DLTA) (DLTA)
                 (PI) (PI) (SG) (DLTA) (DLTA) (SG) (PI) (PI) (?A)
                 (?A) (PHI) (PHI) (SG) (PI) (PI) (SG) (DLTA) (DLTA)
                 (PI) (PI) (PHI) (PHI) (DLTA) (DLTA) (DLTA) (DLTA)
                 (PI) (PI) (SG) (SG) (SG) (PI) (PI) (?A) (?A) (PHI)
                 (PHI) (SG) (DLTA) (DLTA) (SG) (PI) (PI) (PHI)
                 (PHI) (DLTA) (DLTA) (PI) (PI) (SG) (DLTA) (DLTA)
                 (PI) (PI) (SG) (SG) (SG) (SG) (SG) (SG)
 The electronic state is 1-SG.
 Alpha  occ. eigenvalues --  -19.73657 -10.66387  -1.29052  -0.67421  -0.55590
 Alpha  occ. eigenvalues --   -0.55590  -0.45157
 Alpha virt. eigenvalues --    0.01329   0.01329   0.02042   0.05635   0.05635
 Alpha virt. eigenvalues --    0.05722   0.13550   0.17394   0.17394   0.20654
 Alpha virt. eigenvalues --    0.20654   0.21084   0.25207   0.25207   0.27461
 Alpha virt. eigenvalues --    0.36964   0.40386   0.40386   0.40594   0.40594
 Alpha virt. eigenvalues --    0.45435   0.59534   0.61694   0.61694   0.65579
 Alpha virt. eigenvalues --    0.65579   0.69888   0.75715   0.75715   0.88059
 Alpha virt. eigenvalues --    0.97404   0.97404   0.98519   1.11507   1.30822
 Alpha virt. eigenvalues --    1.30822   1.41190   1.41190   1.51128   1.65299
 Alpha virt. eigenvalues --    1.65299   1.67497   1.67497   1.93107   1.93107
 Alpha virt. eigenvalues --    1.96261   1.96261   2.03434   2.10297   2.10697
 Alpha virt. eigenvalues --    2.10697   2.25494   2.41234   2.43224   2.43224
 Alpha virt. eigenvalues --    3.02611   3.02611   3.12293   3.12293   3.35815
 Alpha virt. eigenvalues --    3.60572   3.60572   3.88419   3.88419   3.90687
 Alpha virt. eigenvalues --    3.97548   3.97548   4.41937   4.45227   4.45227
 Alpha virt. eigenvalues --    4.70678   4.70679   4.86365   4.86365   4.91518
 Alpha virt. eigenvalues --    5.16445   5.16445   5.47172   5.56596   5.56598
 Alpha virt. eigenvalues --    5.67825   5.67825   5.80013   5.80013   5.80890
 Alpha virt. eigenvalues --    5.80892   6.05564   6.05565   6.12467   6.12467
 Alpha virt. eigenvalues --    6.14938   6.80996   7.30751   7.67320   7.67320
 Alpha virt. eigenvalues --    8.71212   8.71213   8.97808   8.97808   9.52470
 Alpha virt. eigenvalues --    9.83344   9.83345  10.07799  10.12193  10.12193
 Alpha virt. eigenvalues --   10.77394  10.77394  11.12263  11.12263  11.58554
 Alpha virt. eigenvalues --   11.58554  11.73102  11.97535  11.97537  13.27299
 Alpha virt. eigenvalues --   13.27299  13.44687  14.26089  27.94591  47.96476
 Alpha virt. eigenvalues --  145.34381 251.04379
          Condensed to atoms (all electrons):
               1          2
     1  C    5.079347   0.501745
     2  O    0.501745   7.917163
 Mulliken charges:
               1
     1  C    0.418908
     2  O   -0.418908
 Sum of Mulliken charges =  -0.00000
 Mulliken charges with hydrogens summed into heavy atoms:
               1
     1  C    0.418908
     2  O   -0.418908
 Electronic spatial extent (au):  <R**2>=             40.0205
 Charge=             -0.0000 electrons
 Dipole moment (field-independent basis, Debye):
    X=              0.0000    Y=             -0.0000    Z=              0.0003  Tot=              0.0003
 Quadrupole moment (field-independent basis, Debye-Ang):
   XX=            -10.2837   YY=            -10.2837   ZZ=            -12.1812
   XY=             -0.0000   XZ=              0.0000   YZ=              0.0000
 Traceless Quadrupole moment (field-independent basis, Debye-Ang):
   XX=              0.6325   YY=              0.6325   ZZ=             -1.2650
   XY=             -0.0000   XZ=              0.0000   YZ=              0.0000
 Octapole moment (field-independent basis, Debye-Ang**2):
  XXX=              0.0000  YYY=             -0.0000  ZZZ=              6.1259  XYY=              0.0000
  XXY=             -0.0000  XXZ=              1.1962  XZZ=              0.0000  YZZ=             -0.0000
  YYZ=              1.1962  XYZ=             -0.0000
 Hexadecapole moment (field-independent basis, Debye-Ang**3):
 XXXX=             -9.4462 YYYY=             -9.4462 ZZZZ=            -37.0293 XXXY=              0.0000
 XXXZ=              0.0000 YYYX=              0.0000 YYYZ=              0.0000 ZZZX=              0.0000
 ZZZY=              0.0000 XXYY=             -3.1487 XXZZ=             -7.1777 YYZZ=             -7.1777
 XXYZ=              0.0000 YYXZ=              0.0000 ZZXY=              0.0000
 N-N= 2.245050921351D+01 E-N=-3.111070971875D+02  KE= 1.129186382179D+02
 PrsmSu:  requested number of processors reduced to:  21 ShMem   1 Linda.
 No NMR shielding tensors so no spin-rotation constants.
 Leave Link  601 at Sat Apr 17 08:56:31 2021, MaxMem=   104857600 cpu:              95.9 elap:               2.2
 (Enter /s/ls4/users/knvvv/bin/g16sse/l9999.exe)

 Test job not archived.
 1\1\GINC-N184\Stability\RM062X\Gen\C1O1\KNVVV\17-Apr-2021\0\\#P M062X/
 GEN Integral=UltraFineGrid SCF=NoSymm Stable=(RExt, Opt) IOp(1/33=1)\\
 Database calculations.\\0,1\C,0,0.,0.,0.\O,0,0.,0.,1.1314\\Version=ES6
 4L-G16RevA.03\State=1-SG\HF=-113.3301078\RMSD=8.772e-09\Dipole=0.,0.,0
 .0001054\Quadrupole=0.4702501,0.4702501,-0.9405002,0.,0.,0.\PG=C*V [C*
 (C1O1)]\\@


 NOTHING PUZZLES ME MORE THAN TIME AND SPACE; AND YET NOTHING TROUBLES ME LESS
                                                          -- CHARLES LAMB (1810)
 Job cpu time:       0 days  1 hours 56 minutes 36.1 seconds.
 Elapsed time:       0 days  0 hours  2 minutes 49.2 seconds.
 File lengths (MBytes):  RWF=     69 Int=      0 D2E=      0 Chk=      3 Scr=      1
 Normal termination of Gaussian 16 at Sat Apr 17 08:56:31 2021.
