 Entering Gaussian System, Link 0=/s/ls4/users/knvvv/bin/g16sse/g16
 Input=data/database/M062X--def2-QZVPPD--18_ArAr_4p9_RG10.gjf
 Output=data/database/M062X--def2-QZVPPD--18_ArAr_4p9_RG10.log
 Initial command:
 /s/ls4/users/knvvv/bin/g16sse/l1.exe "/s/ls4/users/knvvv/bin/scratch/Gau-25763.inp" -scrdir="/s/ls4/users/knvvv/bin/scratch/"
 Entering Link 1 = /s/ls4/users/knvvv/bin/g16sse/l1.exe PID=     25764.
  
 Copyright (c) 1988,1990,1992,1993,1995,1998,2003,2009,2016,
            Gaussian, Inc.  All Rights Reserved.
  
 This is part of the Gaussian(R) 16 program.  It is based on
 the Gaussian(R) 09 system (copyright 2009, Gaussian, Inc.),
 the Gaussian(R) 03 system (copyright 2003, Gaussian, Inc.),
 the Gaussian(R) 98 system (copyright 1998, Gaussian, Inc.),
 the Gaussian(R) 94 system (copyright 1995, Gaussian, Inc.),
 the Gaussian 92(TM) system (copyright 1992, Gaussian, Inc.),
 the Gaussian 90(TM) system (copyright 1990, Gaussian, Inc.),
 the Gaussian 88(TM) system (copyright 1988, Gaussian, Inc.),
 the Gaussian 86(TM) system (copyright 1986, Carnegie Mellon
 University), and the Gaussian 82(TM) system (copyright 1983,
 Carnegie Mellon University). Gaussian is a federally registered
 trademark of Gaussian, Inc.
  
 This software contains proprietary and confidential information,
 including trade secrets, belonging to Gaussian, Inc.
  
 This software is provided under written license and may be
 used, copied, transmitted, or stored only in accord with that
 written license.
  
 The following legend is applicable only to US Government
 contracts under FAR:
  
                    RESTRICTED RIGHTS LEGEND
  
 Use, reproduction and disclosure by the US Government is
 subject to restrictions as set forth in subparagraphs (a)
 and (c) of the Commercial Computer Software - Restricted
 Rights clause in FAR 52.227-19.
  
 Gaussian, Inc.
 340 Quinnipiac St., Bldg. 40, Wallingford CT 06492
  
  
 ---------------------------------------------------------------
 Warning -- This program may not be used in any manner that
 competes with the business of Gaussian, Inc. or will provide
 assistance to any competitor of Gaussian, Inc.  The licensee
 of this program is prohibited from giving any competitor of
 Gaussian, Inc. access to this program.  By using this program,
 the user acknowledges that Gaussian, Inc. is engaged in the
 business of creating and licensing software in the field of
 computational chemistry and represents and warrants to the
 licensee that it is not a competitor of Gaussian, Inc. and that
 it will not use this program in any manner prohibited above.
 ---------------------------------------------------------------
  

 Cite this work as:
 Gaussian 16, Revision A.03,
 M. J. Frisch, G. W. Trucks, H. B. Schlegel, G. E. Scuseria, 
 M. A. Robb, J. R. Cheeseman, G. Scalmani, V. Barone, 
 G. A. Petersson, H. Nakatsuji, X. Li, M. Caricato, A. V. Marenich, 
 J. Bloino, B. G. Janesko, R. Gomperts, B. Mennucci, H. P. Hratchian, 
 J. V. Ortiz, A. F. Izmaylov, J. L. Sonnenberg, D. Williams-Young, 
 F. Ding, F. Lipparini, F. Egidi, J. Goings, B. Peng, A. Petrone, 
 T. Henderson, D. Ranasinghe, V. G. Zakrzewski, J. Gao, N. Rega, 
 G. Zheng, W. Liang, M. Hada, M. Ehara, K. Toyota, R. Fukuda, 
 J. Hasegawa, M. Ishida, T. Nakajima, Y. Honda, O. Kitao, H. Nakai, 
 T. Vreven, K. Throssell, J. A. Montgomery, Jr., J. E. Peralta, 
 F. Ogliaro, M. J. Bearpark, J. J. Heyd, E. N. Brothers, K. N. Kudin, 
 V. N. Staroverov, T. A. Keith, R. Kobayashi, J. Normand, 
 K. Raghavachari, A. P. Rendell, J. C. Burant, S. S. Iyengar, 
 J. Tomasi, M. Cossi, J. M. Millam, M. Klene, C. Adamo, R. Cammi, 
 J. W. Ochterski, R. L. Martin, K. Morokuma, O. Farkas, 
 J. B. Foresman, and D. J. Fox, Gaussian, Inc., Wallingford CT, 2016.
 
 ******************************************
 Gaussian 16:  ES64L-G16RevA.03 25-Dec-2016
                17-Apr-2021 
 ******************************************
 %RWF=temp10_40395,70GB
 %nprocshared=48
 Will use up to   48 processors via shared memory.
 Default route: MaxDisk=80GB
 ----------------------------------------------------------------------
 #P M062X/GEN Integral=UltraFineGrid SCF=NoSymm Stable=(RExt, Opt) IOp(
 1/33=1)
 ----------------------------------------------------------------------
 1/33=1,38=1,172=1/1;
 2/12=2,17=6,18=5,40=1/2;
 3/5=7,11=2,25=1,30=1,74=-55,75=-5/1,2,3;
 4/9=2/1;
 5/5=2,38=5/2;
 6/7=2,8=2,9=2,10=2,28=1/1;
 8/6=1,10=90,11=11/1;
 9/8=-3,42=1,46=1/14;
 5/5=2,8=3,17=40,38=5/8(-2);
 6/7=2,8=2,9=2,10=2,28=1/1;
 99/5=1,9=1/99;
 Leave Link    1 at Sat Apr 17 13:33:32 2021, MaxMem=           0 cpu:              11.2 elap:               0.3
 (Enter /s/ls4/users/knvvv/bin/g16sse/l101.exe)
 ONIOM data not found on unit 2.
 ----------------------
 Database calculations.
 ----------------------
 TstMul:  ICh=     0
 TstMul:  Mul=     1
 TstMul:  ICh=     0
 TstMul:  Mul=     1
 Symbolic Z-matrix:
 Charge =  0 Multiplicity = 1
 Ar                    0.        0.        0. 
 Ar                    0.        0.        4.9 
 
 RdStrC is calling ZToCFu for IStruc=1 NZ=     2.
 PrtBox:  NBox=     2 Levels=  1 BoxLen=    8.00 SMaxX=        9.26
          Shift=            0.000000            0.000000            0.000000
 Box      1 Number                   0 centers from      1 to      1:
 Box      2 Number                   1 centers from      2 to      2:
 After GenITR:
 ITRead=  0  0
 MicOpt= -1 -1
 ITRead=  0  0
 MicOpt= -1 -1
 NAtoms=      2 NQM=        2 NQMF=       0 NMMI=      0 NMMIF=      0
                NMic=       0 NMicF=      0.
                    Isotopes and Nuclear Properties:
 (Nuclear quadrupole moments (NQMom) in fm**2, nuclear magnetic moments (NMagM)
  in nuclear magnetons)

  Atom         1           2
 IAtWgt=          40          40
 AtmWgt=  39.9623831  39.9623831
 NucSpn=           0           0
 AtZEff=  -0.0000000  -0.0000000
 NQMom=    0.0000000   0.0000000
 NMagM=    0.0000000   0.0000000
 AtZNuc=  18.0000000  18.0000000
 No MM parameters found.
 Leave Link  101 at Sat Apr 17 13:33:32 2021, MaxMem=   104857600 cpu:               6.9 elap:               0.2
 (Enter /s/ls4/users/knvvv/bin/g16sse/l202.exe)
                          Input orientation:                          
 ---------------------------------------------------------------------
 Center     Atomic      Atomic             Coordinates (Angstroms)
 Number     Number       Type             X           Y           Z
 ---------------------------------------------------------------------
      1         18           0        0.000000    0.000000    0.000000
      2         18           0        0.000000    0.000000    4.900000
 ---------------------------------------------------------------------
 Stoichiometry    Ar2
 Framework group  D*H[C*(Ar.Ar)]
 Deg. of freedom     1
 Full point group                 D*H     NOp   8
 Largest Abelian subgroup         D2H     NOp   8
 Largest concise Abelian subgroup C2      NOp   2
                         Standard orientation:                         
 ---------------------------------------------------------------------
 Center     Atomic      Atomic             Coordinates (Angstroms)
 Number     Number       Type             X           Y           Z
 ---------------------------------------------------------------------
      1         18           0        0.000000    0.000000    2.450000
      2         18           0        0.000000    0.000000   -2.450000
 ---------------------------------------------------------------------
 Rotational constants (GHZ):           0.0000000           1.0534251           1.0534251
 Leave Link  202 at Sat Apr 17 13:33:32 2021, MaxMem=   104857600 cpu:              10.3 elap:               0.2
 (Enter /s/ls4/users/knvvv/bin/g16sse/l301.exe)
 General basis read from cards:  (5D, 7F)
 Centers:       1      2
 S 10 1.00
     Exponent=  1.6734219494D+06 Coefficients=  1.1245990413D-05
     Exponent=  2.5060175373D+05 Coefficients=  8.7428115798D-05
     Exponent=  5.7030912120D+04 Coefficients=  4.5961641275D-04
     Exponent=  1.6153303915D+04 Coefficients=  1.9363890742D-03
     Exponent=  5.2694109288D+03 Coefficients=  6.9994046497D-03
     Exponent=  1.9020315541D+03 Coefficients=  2.2312068196D-02
     Exponent=  7.4157677159D+02 Coefficients=  6.2808077697D-02
     Exponent=  3.0720901906D+02 Coefficients=  1.5101140997D-01
     Exponent=  1.3352786203D+02 Coefficients=  2.8713661177D-01
     Exponent=  6.0253381291D+01 Coefficients=  3.6385490107D-01
 S 3 1.00
     Exponent=  5.2202426206D+02 Coefficients=  1.8071323116D-02
     Exponent=  1.6151290469D+02 Coefficients=  1.6449219884D-01
     Exponent=  6.2126369433D+01 Coefficients=  6.3897334899D-01
 S 1 1.00
     Exponent=  2.7590930012D+01 Coefficients=  1.0000000000D+00
 S 1 1.00
     Exponent=  1.1175528881D+01 Coefficients=  1.0000000000D+00
 S 1 1.00
     Exponent=  5.2959065137D+00 Coefficients=  1.0000000000D+00
 S 1 1.00
     Exponent=  2.4782798895D+00 Coefficients=  1.0000000000D+00
 S 1 1.00
     Exponent=  9.1262095059D-01 Coefficients=  1.0000000000D+00
 S 1 1.00
     Exponent=  4.0426067549D-01 Coefficients=  1.0000000000D+00
 S 1 1.00
     Exponent=  1.6562886306D-01 Coefficients=  1.0000000000D+00
 S 1 1.00
     Exponent=  6.5129364729D-02 Coefficients=  1.0000000000D+00
 P 8 1.00
     Exponent=  2.8684504581D+03 Coefficients=  2.4010435121D-04
     Exponent=  6.7971869590D+02 Coefficients=  2.0904788665D-03
     Exponent=  2.2036758824D+02 Coefficients=  1.1369316839D-02
     Exponent=  8.3620439734D+01 Coefficients=  4.4901977398D-02
     Exponent=  3.4964322657D+01 Coefficients=  1.3237156770D-01
     Exponent=  1.5525131784D+01 Coefficients=  2.7709277600D-01
     Exponent=  7.0992979806D+00 Coefficients=  3.8613979646D-01
     Exponent=  3.3021336602D+00 Coefficients=  2.8492925372D-01
 P 2 1.00
     Exponent=  1.2878765667D+02 Coefficients= -3.0509457751D-02
     Exponent=  8.4357867977D+00 Coefficients=  6.4101621070D-01
 P 1 1.00
     Exponent=  1.4618661855D+00 Coefficients=  1.0000000000D+00
 P 1 1.00
     Exponent=  6.4658010096D-01 Coefficients=  1.0000000000D+00
 P 1 1.00
     Exponent=  2.7229295755D-01 Coefficients=  1.0000000000D+00
 P 1 1.00
     Exponent=  1.0905182449D-01 Coefficients=  1.0000000000D+00
 P 1 1.00
     Exponent=  3.0101149684D-02 Coefficients=  1.0000000000D+00
 D 1 1.00
     Exponent=  6.3150000000D+00 Coefficients=  1.0000000000D+00
 D 1 1.00
     Exponent=  1.5620000000D+00 Coefficients=  1.0000000000D+00
 D 1 1.00
     Exponent=  7.1500000000D-01 Coefficients=  1.0000000000D+00
 D 1 1.00
     Exponent=  2.9700000000D-01 Coefficients=  1.0000000000D+00
 D 1 1.00
     Exponent=  1.0105028218D-01 Coefficients=  1.0000000000D+00
 F 1 1.00
     Exponent=  1.3250000000D+00 Coefficients=  1.0000000000D+00
 F 1 1.00
     Exponent=  5.4300000000D-01 Coefficients=  1.0000000000D+00
 G 1 1.00
     Exponent=  1.0070000000D+00 Coefficients=  1.0000000000D+00
 ****
 Ernie: Thresh=  0.10000D-02 Tol=  0.10000D-05 Strict=F.
 There are    44 symmetry adapted cartesian basis functions of AG  symmetry.
 There are    10 symmetry adapted cartesian basis functions of B1G symmetry.
 There are    21 symmetry adapted cartesian basis functions of B2G symmetry.
 There are    21 symmetry adapted cartesian basis functions of B3G symmetry.
 There are    10 symmetry adapted cartesian basis functions of AU  symmetry.
 There are    44 symmetry adapted cartesian basis functions of B1U symmetry.
 There are    21 symmetry adapted cartesian basis functions of B2U symmetry.
 There are    21 symmetry adapted cartesian basis functions of B3U symmetry.
 There are    34 symmetry adapted basis functions of AG  symmetry.
 There are     9 symmetry adapted basis functions of B1G symmetry.
 There are    18 symmetry adapted basis functions of B2G symmetry.
 There are    18 symmetry adapted basis functions of B3G symmetry.
 There are     9 symmetry adapted basis functions of AU  symmetry.
 There are    34 symmetry adapted basis functions of B1U symmetry.
 There are    18 symmetry adapted basis functions of B2U symmetry.
 There are    18 symmetry adapted basis functions of B3U symmetry.
   158 basis functions,   262 primitive gaussians,   192 cartesian basis functions
    18 alpha electrons       18 beta electrons
       nuclear repulsion energy        34.9904931302 Hartrees.
 IExCor= 4336 DFT=T Ex+Corr=M062X ExCW=0 ScaHFX=  0.540000
 ScaDFX=  1.000000  1.000000  1.000000  1.000000 ScalE2=  1.000000  1.000000
 IRadAn=      5 IRanWt=     -1 IRanGd=            0 ICorTp=0 IEmpDi=  4
 NAtoms=    2 NActive=    2 NUniq=    1 SFac= 4.00D+00 NAtFMM=   60 NAOKFM=F Big=F
 Integral buffers will be    131072 words long.
 Raffenetti 2 integral format.
 Two-electron integral symmetry is turned on.
 Leave Link  301 at Sat Apr 17 13:33:32 2021, MaxMem=   104857600 cpu:               6.9 elap:               0.2
 (Enter /s/ls4/users/knvvv/bin/g16sse/l302.exe)
 NPDir=0 NMtPBC=     1 NCelOv=     1 NCel=       1 NClECP=     1 NCelD=      1
         NCelK=      1 NCelE2=     1 NClLst=     1 CellRange=     0.0.
 One-electron integrals computed using PRISM.
 One-electron integral symmetry used in STVInt
 PrsmSu:  requested number of processors reduced to:   4 ShMem   1 Linda.
 PrsmSu:  requested number of processors reduced to:  21 ShMem   1 Linda.
 NBasis=   158 RedAO= T EigKep=  1.50D-03  NBF=    34     9    18    18     9    34    18    18
 NBsUse=   158 1.00D-06 EigRej= -1.00D+00 NBFU=    34     9    18    18     9    34    18    18
 Precomputing XC quadrature grid using
 IXCGrd= 4 IRadAn=           5 IRanWt=          -1 IRanGd=           0 AccXCQ= 0.00D+00.
 Generated NRdTot=       0 NPtTot=           0 NUsed=           0 NTot=          32
 NSgBfM=   157   157   157   157   157 MxSgAt=     2 MxSgA2=     2.
 Leave Link  302 at Sat Apr 17 13:33:40 2021, MaxMem=   104857600 cpu:             376.4 elap:               8.1
 (Enter /s/ls4/users/knvvv/bin/g16sse/l303.exe)
 DipDrv:  MaxL=1.
 Leave Link  303 at Sat Apr 17 13:33:41 2021, MaxMem=   104857600 cpu:              27.9 elap:               0.6
 (Enter /s/ls4/users/knvvv/bin/g16sse/l401.exe)
 SCF N**3 symmetry information disabled.
 ExpMin= 3.01D-02 ExpMax= 1.67D+06 ExpMxC= 1.90D+03 IAcc=3 IRadAn=         5 AccDes= 0.00D+00
 Harris functional with IExCor= 1009 and IRadAn=       5 diagonalized for initial guess.
 HarFok:  IExCor= 1009 AccDes= 0.00D+00 IRadAn=         5 IDoV= 1 UseB2=F ITyADJ=14
 ICtDFT=  3500011 ScaDFX=  1.000000  1.000000  1.000000  1.000000
 FoFCou: FMM=F IPFlag=           0 FMFlag=      100000 FMFlg1=           0
         NFxFlg=           0 DoJE=T BraDBF=F KetDBF=T FulRan=T
         wScrn=  0.000000 ICntrl=       500 IOpCl=  0 I1Cent=   200000004 NGrid=           0
         NMat0=    1 NMatS0=      1 NMatT0=    0 NMatD0=    1 NMtDS0=    0 NMtDT0=    0
 Petite list used in FoFCou.
 CoulSu:  requested number of processors reduced to:  21 ShMem   1 Linda.
 CoulSu:  requested number of processors reduced to:  21 ShMem   1 Linda.
 CoulSu:  requested number of processors reduced to:  21 ShMem   1 Linda.
 CoulSu:  requested number of processors reduced to:  21 ShMem   1 Linda.
 Harris En= -1054.49534444989    
 JPrj=0 DoOrth=F DoCkMO=F.
 Initial guess orbital symmetries:
       Occupied  (SGU) (SGG) (SGU) (SGG) (SGU) (PIG) (PIG) (PIU)
                 (PIU) (SGG) (SGG) (SGU) (SGG) (PIU) (PIU) (PIG)
                 (PIG) (SGU)
       Virtual   (SGG) (SGU) (PIU) (PIU) (SGG) (PIG) (PIG) (SGU)
                 (SGG) (PIU) (PIU) (DLTG) (DLTG) (DLTU) (DLTU)
                 (PIG) (PIG) (SGU) (PIU) (PIU) (SGG) (PIG) (PIG)
                 (SGU) (PIU) (PIU) (DLTG) (DLTG) (DLTU) (DLTU)
                 (SGG) (PIG) (PIG) (SGU) (SGG) (SGU) (SGG) (PIU)
                 (PIU) (PIG) (PIG) (SGU) (PIU) (PIU) (DLTG) (DLTG)
                 (DLTU) (DLTU) (SGG) (PIG) (PIG) (SGU) (PHIU) (PHIU)
                 (PHIG) (PHIG) (DLTG) (DLTU) (DLTG) (DLTU) (PIU)
                 (PIU) (PIG) (PIG) (SGG) (SGU) (SGG) (SGU) (PIU)
                 (PIU) (DLTG) (DLTG) (DLTU) (DLTU) (SGG) (PIG)
                 (PIG) (SGU) (DLTU) (DLTG) (?A) (?A) (?B) (?B)
                 (?C) (?C) (?C) (?C) (?A) (?A) (SGG) (?B) (?B)
                 (DLTG) (DLTU) (SGU) (SGG) (PIU) (PIU) (PIG) (PIG)
                 (SGU) (DLTG) (DLTU) (?A) (?A) (?B) (?B) (DLTG)
                 (DLTU) (?A) (?A) (?B) (?B) (SGG) (SGU) (SGG) (SGU)
                 (PIU) (PIU) (DLTG) (DLTG) (DLTU) (DLTU) (SGG)
                 (PIG) (PIG) (SGU) (SGG) (SGU) (PIU) (PIU) (SGG)
                 (PIG) (PIG) (SGU) (SGG) (SGU) (SGG) (SGU)
 The electronic state of the initial guess is 1-SGG.
 Leave Link  401 at Sat Apr 17 13:33:45 2021, MaxMem=   104857600 cpu:             180.0 elap:               4.0
 (Enter /s/ls4/users/knvvv/bin/g16sse/l502.exe)
 Integral symmetry usage will be decided dynamically.
 Closed shell SCF:
 Using DIIS extrapolation, IDIIS=  1040.
 NGot=   104857600 LenX=   104770274 LenY=   104732969
 Requested convergence on RMS density matrix=1.00D-08 within 128 cycles.
 Requested convergence on MAX density matrix=1.00D-06.
 Requested convergence on             energy=1.00D-06.
 No special actions if energy rises.
 Fock matrices will be formed incrementally for  20 cycles.

 Cycle   1  Pass 1  IDiag  1:
 FoFJK:  IHMeth= 1 ICntrl=       0 DoSepK=F KAlg= 0 I1Cent=           0 FoldK=F
 IRaf= 810000000 NMat=       1 IRICut=       1 DoRegI=T DoRafI=F ISym2E= 1 IDoP0=0 IntGTp=1.
 FoFCou: FMM=F IPFlag=           0 FMFlag=      100000 FMFlg1=           0
         NFxFlg=           0 DoJE=F BraDBF=F KetDBF=F FulRan=T
         wScrn=  0.000000 ICntrl=         0 IOpCl=  0 I1Cent=           0 NGrid=           0
         NMat0=    1 NMatS0=      1 NMatT0=    0 NMatD0=    1 NMtDS0=    0 NMtDT0=    0
 Petite list used in FoFCou.
 CoulSu:  requested number of processors reduced to:  21 ShMem   1 Linda.
 E= -1055.04278245822    
 DIIS: error= 5.09D-02 at cycle   1 NSaved=   1.
 NSaved= 1 IEnMin= 1 EnMin= -1055.04278245822     IErMin= 1 ErrMin= 5.09D-02
 ErrMax= 5.09D-02  0.00D+00 EMaxC= 1.00D-01 BMatC= 1.92D-01 BMatP= 1.92D-01
 IDIUse=3 WtCom= 4.91D-01 WtEn= 5.09D-01
 Coeff-Com:  0.100D+01
 Coeff-En:   0.100D+01
 Coeff:      0.100D+01
 Gap=     0.583 Goal=   None    Shift=    0.000
 GapD=    0.583 DampG=2.000 DampE=0.500 DampFc=1.0000 IDamp=-1.
 RMSDP=1.64D-03 MaxDP=5.60D-02              OVMax= 5.54D-02

 Cycle   2  Pass 1  IDiag  1:
 RMSU=  1.58D-03    CP:  1.02D+00
 CoulSu:  requested number of processors reduced to:  21 ShMem   1 Linda.
 E= -1055.07059854136     Delta-E=       -0.027816083141 Rises=F Damp=F
 DIIS: error= 1.63D-02 at cycle   2 NSaved=   2.
 NSaved= 2 IEnMin= 2 EnMin= -1055.07059854136     IErMin= 2 ErrMin= 1.63D-02
 ErrMax= 1.63D-02  0.00D+00 EMaxC= 1.00D-01 BMatC= 2.58D-02 BMatP= 1.92D-01
 IDIUse=3 WtCom= 8.37D-01 WtEn= 1.63D-01
 Coeff-Com:  0.219D+00 0.781D+00
 Coeff-En:   0.000D+00 0.100D+01
 Coeff:      0.183D+00 0.817D+00
 Gap=     0.512 Goal=   None    Shift=    0.000
 RMSDP=5.96D-04 MaxDP=2.03D-02 DE=-2.78D-02 OVMax= 2.28D-02

 Cycle   3  Pass 1  IDiag  1:
 RMSU=  2.74D-04    CP:  1.01D+00  6.85D-01
 CoulSu:  requested number of processors reduced to:  21 ShMem   1 Linda.
 E= -1055.07868800733     Delta-E=       -0.008089465965 Rises=F Damp=F
 DIIS: error= 4.04D-03 at cycle   3 NSaved=   3.
 NSaved= 3 IEnMin= 3 EnMin= -1055.07868800733     IErMin= 3 ErrMin= 4.04D-03
 ErrMax= 4.04D-03  0.00D+00 EMaxC= 1.00D-01 BMatC= 1.63D-03 BMatP= 2.58D-02
 IDIUse=3 WtCom= 9.60D-01 WtEn= 4.04D-02
 Coeff-Com: -0.441D-02 0.195D+00 0.810D+00
 Coeff-En:   0.000D+00 0.000D+00 0.100D+01
 Coeff:     -0.423D-02 0.187D+00 0.817D+00
 Gap=     0.526 Goal=   None    Shift=    0.000
 RMSDP=1.50D-04 MaxDP=4.93D-03 DE=-8.09D-03 OVMax= 6.22D-03

 Cycle   4  Pass 1  IDiag  1:
 RMSU=  2.11D-05    CP:  1.01D+00  7.68D-01  8.13D-01
 CoulSu:  requested number of processors reduced to:  21 ShMem   1 Linda.
 E= -1055.07942855384     Delta-E=       -0.000740546511 Rises=F Damp=F
 DIIS: error= 3.13D-04 at cycle   4 NSaved=   4.
 NSaved= 4 IEnMin= 4 EnMin= -1055.07942855384     IErMin= 4 ErrMin= 3.13D-04
 ErrMax= 3.13D-04  0.00D+00 EMaxC= 1.00D-01 BMatC= 1.01D-05 BMatP= 1.63D-03
 IDIUse=3 WtCom= 9.97D-01 WtEn= 3.13D-03
 Coeff-Com: -0.986D-03 0.210D-01 0.151D+00 0.828D+00
 Coeff-En:   0.000D+00 0.000D+00 0.000D+00 0.100D+01
 Coeff:     -0.983D-03 0.210D-01 0.151D+00 0.829D+00
 Gap=     0.524 Goal=   None    Shift=    0.000
 RMSDP=1.32D-05 MaxDP=4.38D-04 DE=-7.41D-04 OVMax= 4.92D-04

 Cycle   5  Pass 1  IDiag  1:
 RMSU=  3.48D-06    CP:  1.01D+00  7.62D-01  8.37D-01  9.29D-01
 CoulSu:  requested number of processors reduced to:  21 ShMem   1 Linda.
 E= -1055.07943480530     Delta-E=       -0.000006251464 Rises=F Damp=F
 DIIS: error= 5.77D-06 at cycle   5 NSaved=   5.
 NSaved= 5 IEnMin= 5 EnMin= -1055.07943480530     IErMin= 5 ErrMin= 5.77D-06
 ErrMax= 5.77D-06  0.00D+00 EMaxC= 1.00D-01 BMatC= 3.10D-09 BMatP= 1.01D-05
 IDIUse=1 WtCom= 1.00D+00 WtEn= 0.00D+00
 Coeff-Com:  0.160D-04-0.119D-02-0.752D-02-0.292D-01 0.104D+01
 Coeff:      0.160D-04-0.119D-02-0.752D-02-0.292D-01 0.104D+01
 Gap=     0.524 Goal=   None    Shift=    0.000
 RMSDP=8.96D-07 MaxDP=5.06D-05 DE=-6.25D-06 OVMax= 1.79D-05

 Cycle   6  Pass 1  IDiag  1:
 RMSU=  2.02D-07    CP:  1.01D+00  7.62D-01  8.39D-01  9.39D-01  1.18D+00
 CoulSu:  requested number of processors reduced to:  21 ShMem   1 Linda.
 E= -1055.07943480905     Delta-E=       -0.000000003750 Rises=F Damp=F
 DIIS: error= 8.92D-07 at cycle   6 NSaved=   6.
 NSaved= 6 IEnMin= 6 EnMin= -1055.07943480905     IErMin= 6 ErrMin= 8.92D-07
 ErrMax= 8.92D-07  0.00D+00 EMaxC= 1.00D-01 BMatC= 3.77D-11 BMatP= 3.10D-09
 IDIUse=1 WtCom= 1.00D+00 WtEn= 0.00D+00
 Coeff-Com:  0.147D-05-0.534D-05 0.106D-03 0.126D-03-0.947D-01 0.109D+01
 Coeff:      0.147D-05-0.534D-05 0.106D-03 0.126D-03-0.947D-01 0.109D+01
 Gap=     0.524 Goal=   None    Shift=    0.000
 RMSDP=1.01D-07 MaxDP=6.06D-06 DE=-3.75D-09 OVMax= 1.89D-06

 Cycle   7  Pass 1  IDiag  1:
 RMSU=  9.61D-09    CP:  1.01D+00  7.62D-01  8.39D-01  9.40D-01  1.20D+00
                    CP:  1.14D+00
 CoulSu:  requested number of processors reduced to:  21 ShMem   1 Linda.
 E= -1055.07943480909     Delta-E=       -0.000000000037 Rises=F Damp=F
 DIIS: error= 1.95D-07 at cycle   7 NSaved=   7.
 NSaved= 7 IEnMin= 7 EnMin= -1055.07943480909     IErMin= 7 ErrMin= 1.95D-07
 ErrMax= 1.95D-07  0.00D+00 EMaxC= 1.00D-01 BMatC= 1.92D-12 BMatP= 3.77D-11
 IDIUse=1 WtCom= 1.00D+00 WtEn= 0.00D+00
 Coeff-Com:  0.259D-06 0.537D-05 0.643D-04 0.124D-03-0.294D-01 0.287D+00
 Coeff-Com:  0.742D+00
 Coeff:      0.259D-06 0.537D-05 0.643D-04 0.124D-03-0.294D-01 0.287D+00
 Coeff:      0.742D+00
 Gap=     0.524 Goal=   None    Shift=    0.000
 RMSDP=3.75D-09 MaxDP=1.41D-07 DE=-3.71D-11 OVMax= 2.80D-07

 SCF Done:  E(RM062X) =  -1055.07943481     A.U. after    7 cycles
            NFock=  7  Conv=0.37D-08     -V/T= 2.0013
 KE= 1.053667065836D+03 PE=-2.580527456004D+03 EE= 4.367904622280D+02
 Leave Link  502 at Sat Apr 17 13:35:08 2021, MaxMem=   104857600 cpu:            3816.9 elap:              83.3
 (Enter /s/ls4/users/knvvv/bin/g16sse/l601.exe)
 Copying SCF densities to generalized density rwf, IOpCl= 0 IROHF=0.

 **********************************************************************

            Population analysis using the SCF density.

 **********************************************************************

 Orbital symmetries:
       Occupied  (SGU) (SGG) (SGU) (SGG) (SGU) (SGG) (PIG) (PIG)
                 (PIU) (PIU) (SGG) (SGU) (SGG) (PIU) (PIU) (PIG)
                 (PIG) (SGU)
       Virtual   (SGU) (PIU) (PIU) (SGG) (PIG) (PIG) (SGG) (SGU)
                 (SGG) (PIU) (PIU) (DLTG) (DLTG) (DLTU) (DLTU)
                 (PIG) (PIG) (SGU) (SGG) (PIU) (PIU) (PIG) (PIG)
                 (SGU) (PIU) (PIU) (DLTG) (DLTG) (DLTU) (DLTU)
                 (SGG) (SGU) (PIG) (PIG) (SGG) (SGU) (SGG) (PIU)
                 (PIU) (PIG) (PIG) (SGU) (PIU) (PIU) (DLTG) (DLTG)
                 (DLTU) (DLTU) (SGG) (PIG) (PIG) (SGU) (DLTG) (DLTU)
                 (PHIU) (PHIU) (PHIG) (PHIG) (DLTG) (DLTU) (PIU)
                 (PIU) (PIG) (PIG) (SGG) (SGU) (SGG) (SGU) (PIU)
                 (PIU) (DLTG) (DLTG) (DLTU) (DLTU) (SGG) (PIG)
                 (PIG) (SGU) (DLTG) (DLTU) (?A) (?A) (?B) (?B)
                 (?C) (?D) (?D) (?C) (?A) (?A) (?B) (?B) (DLTG)
                 (DLTU) (?C) (SGU) (SGG) (PIU) (PIU) (PIG) (PIG)
                 (SGU) (DLTG) (DLTU) (?A) (?A) (?B) (?B) (DLTG)
                 (DLTU) (?A) (?A) (?B) (?B) (SGG) (SGU) (SGG) (SGU)
                 (PIU) (PIU) (DLTG) (DLTG) (DLTU) (DLTU) (SGG)
                 (PIG) (PIG) (SGU) (SGG) (SGU) (PIU) (PIU) (PIG)
                 (PIG) (SGG) (SGU) (SGG) (SGU) (SGG) (SGU)
 The electronic state is 1-SGG.
 Alpha  occ. eigenvalues -- -116.28658-116.28658 -11.50423 -11.50423  -9.02487
 Alpha  occ. eigenvalues --   -9.02487  -9.02487  -9.02487  -9.02487  -9.02487
 Alpha  occ. eigenvalues --   -1.07606  -1.07600  -0.49902  -0.49826  -0.49826
 Alpha  occ. eigenvalues --   -0.49807  -0.49807  -0.49732
 Alpha virt. eigenvalues --    0.02710   0.03017   0.03017   0.03470   0.05303
 Alpha virt. eigenvalues --    0.05303   0.06018   0.12620   0.18911   0.19065
 Alpha virt. eigenvalues --    0.19065   0.20787   0.20790   0.21697   0.21699
 Alpha virt. eigenvalues --    0.24472   0.24472   0.26878   0.33681   0.33691
 Alpha virt. eigenvalues --    0.33691   0.34557   0.34557   0.37292   0.55424
 Alpha virt. eigenvalues --    0.55424   0.56562   0.56563   0.57410   0.57410
 Alpha virt. eigenvalues --    0.57917   0.59594   0.60130   0.60130   0.60539
 Alpha virt. eigenvalues --    0.72457   1.31779   1.32947   1.32947   1.34200
 Alpha virt. eigenvalues --    1.34200   1.38152   1.57405   1.57405   1.58337
 Alpha virt. eigenvalues --    1.58339   1.59103   1.59104   1.60551   1.61415
 Alpha virt. eigenvalues --    1.61415   1.63509   1.68745   1.68745   1.68746
 Alpha virt. eigenvalues --    1.68746   1.68746   1.68746   1.68747   1.68747
 Alpha virt. eigenvalues --    1.68771   1.68771   1.68821   1.68821   1.68888
 Alpha virt. eigenvalues --    1.70122   2.51835   2.58485   3.99714   3.99714
 Alpha virt. eigenvalues --    4.00502   4.00504   4.01129   4.01130   4.02178
 Alpha virt. eigenvalues --    4.03088   4.03088   4.04791   4.30491   4.30491
 Alpha virt. eigenvalues --    4.30493   4.30493   4.30494   4.30494   4.30496
 Alpha virt. eigenvalues --    4.30496   4.30496   4.30496   4.30497   4.30497
 Alpha virt. eigenvalues --    4.30497   4.30497   4.30498   4.30498   4.30499
 Alpha virt. eigenvalues --    4.30505   4.51699   4.52227   4.52227   4.53233
 Alpha virt. eigenvalues --    4.53233   4.57060   4.74679   4.74679   4.74680
 Alpha virt. eigenvalues --    4.74680   4.74680   4.74680   4.74680   4.74680
 Alpha virt. eigenvalues --    4.74689   4.74689   4.74699   4.74699   4.74742
 Alpha virt. eigenvalues --    4.75016   9.72241   9.78312  12.90729  12.90729
 Alpha virt. eigenvalues --   12.91265  12.91266  12.91645  12.91645  12.92128
 Alpha virt. eigenvalues --   12.92892  12.92892  12.94344  33.02461  33.08198
 Alpha virt. eigenvalues --   54.61425  54.61425  54.61425  54.61425  54.61426
 Alpha virt. eigenvalues --   54.61427 113.23053 113.28483 601.60190 601.69274
          Condensed to atoms (all electrons):
               1          2
     1  Ar  17.999105   0.000895
     2  Ar   0.000895  17.999105
 Mulliken charges:
               1
     1  Ar  -0.000000
     2  Ar  -0.000000
 Sum of Mulliken charges =  -0.00000
 Mulliken charges with hydrogens summed into heavy atoms:
               1
     1  Ar  -0.000000
     2  Ar  -0.000000
 Electronic spatial extent (au):  <R**2>=            823.8038
 Charge=             -0.0000 electrons
 Dipole moment (field-independent basis, Debye):
    X=             -0.0000    Y=              0.0000    Z=             -0.0000  Tot=              0.0000
 Quadrupole moment (field-independent basis, Debye-Ang):
   XX=            -23.3817   YY=            -23.3817   ZZ=            -23.3565
   XY=             -0.0000   XZ=             -0.0000   YZ=              0.0000
 Traceless Quadrupole moment (field-independent basis, Debye-Ang):
   XX=             -0.0084   YY=             -0.0084   ZZ=              0.0168
   XY=             -0.0000   XZ=             -0.0000   YZ=              0.0000
 Octapole moment (field-independent basis, Debye-Ang**2):
  XXX=             -0.0000  YYY=             -0.0000  ZZZ=             -0.0000  XYY=             -0.0000
  XXY=              0.0000  XXZ=             -0.0000  XZZ=             -0.0000  YZZ=              0.0000
  YYZ=             -0.0000  XYZ=             -0.0000
 Hexadecapole moment (field-independent basis, Debye-Ang**3):
 XXXX=            -22.2200 YYYY=            -22.2200 ZZZZ=           -863.9072 XXXY=             -0.0000
 XXXZ=              0.0000 YYYX=             -0.0000 YYYZ=              0.0000 ZZZX=              0.0000
 ZZZY=              0.0000 XXYY=             -7.4067 XXZZ=           -147.7330 YYZZ=           -147.7330
 XXYZ=              0.0000 YYXZ=              0.0000 ZZXY=             -0.0000
 N-N= 3.499049313022D+01 E-N=-2.580527454293D+03  KE= 1.053667065836D+03
 PrsmSu:  requested number of processors reduced to:  21 ShMem   1 Linda.
 No NMR shielding tensors so no spin-rotation constants.
 Leave Link  601 at Sat Apr 17 13:35:12 2021, MaxMem=   104857600 cpu:             179.0 elap:               3.9
 (Enter /s/ls4/users/knvvv/bin/g16sse/l801.exe)
 DoSCS=F DFT=T ScalE2(SS,OS)=  1.000000  1.000000
 Range of M.O.s used for correlation:     1   158
 NBasis=   158 NAE=    18 NBE=    18 NFC=     0 NFV=     0
 NROrb=    158 NOA=    18 NOB=    18 NVA=   140 NVB=   140
 Leave Link  801 at Sat Apr 17 13:35:12 2021, MaxMem=   104857600 cpu:               3.2 elap:               0.1
 (Enter /s/ls4/users/knvvv/bin/g16sse/l914.exe)
 RHF ground state
 Doing stability rather than CIS.
 Two-electron integrals replicated using symmetry.
 MDV=   104857600 DFT=T DoStab=T Mixed=T DoRPA=F DoScal=F NonHer=F
 Making orbital integer symmetry assigments:
 Orbital symmetries:
       Occupied  (SGU) (SGG) (SGU) (SGG) (SGU) (SGG) (PIG) (PIG)
                 (PIU) (PIU) (SGG) (SGU) (SGG) (PIU) (PIU) (PIG)
                 (PIG) (SGU)
       Virtual   (SGU) (PIU) (PIU) (SGG) (PIG) (PIG) (SGG) (SGU)
                 (SGG) (PIU) (PIU) (DLTG) (DLTG) (DLTU) (DLTU)
                 (PIG) (PIG) (SGU) (SGG) (PIU) (PIU) (PIG) (PIG)
                 (SGU) (PIU) (PIU) (DLTG) (DLTG) (DLTU) (DLTU)
                 (SGG) (SGU) (PIG) (PIG) (SGG) (SGU) (SGG) (PIU)
                 (PIU) (PIG) (PIG) (SGU) (PIU) (PIU) (DLTG) (DLTG)
                 (DLTU) (DLTU) (SGG) (PIG) (PIG) (SGU) (DLTG) (DLTU)
                 (PHIU) (PHIU) (PHIG) (PHIG) (DLTG) (DLTU) (PIU)
                 (PIU) (PIG) (PIG) (SGG) (SGU) (SGG) (SGU) (PIU)
                 (PIU) (DLTG) (DLTG) (DLTU) (DLTU) (SGG) (PIG)
                 (PIG) (SGU) (DLTG) (DLTU) (?A) (?A) (?B) (?B)
                 (?C) (?D) (?D) (?C) (?A) (?A) (?B) (?B) (DLTG)
                 (DLTU) (?C) (SGU) (SGG) (PIU) (PIU) (PIG) (PIG)
                 (SGU) (DLTG) (DLTU) (?A) (?A) (?B) (?B) (DLTG)
                 (DLTU) (?A) (?A) (?B) (?B) (SGG) (SGU) (SGG) (SGU)
                 (PIU) (PIU) (DLTG) (DLTG) (DLTU) (DLTU) (SGG)
                 (PIG) (PIG) (SGU) (SGG) (SGU) (PIU) (PIU) (PIG)
                 (PIG) (SGG) (SGU) (SGG) (SGU) (SGG) (SGU)
    48 initial guesses have been made.
 Convergence on wavefunction:    0.001000000000000
 Davidson Disk Diagonalization:  ConvIn= 1.00D-03 SkipCon=T Conv= 1.00D-03.
 Max sub-space:  2000 roots to seek:    48 dimension of matrix:         5040
 Iteration     1 Dimension    48 NMult     0 NNew     48
 Estimated number of processors is:   20
 CISAX will form     1 AO SS matrices at one time.
 NMat=     1 NSing=     1 JSym2X= 2.
 FoFJK:  IHMeth= 1 ICntrl=       0 DoSepK=F KAlg= 0 I1Cent=           0 FoldK=F
 IRaf= 810000000 NMat=       1 IRICut=       1 DoRegI=T DoRafI=F ISym2E= 2 IDoP0=0 IntGTp=1.
 FoFCou: FMM=F IPFlag=           0 FMFlag=      100000 FMFlg1=           0
         NFxFlg=           0 DoJE=F BraDBF=F KetDBF=F FulRan=T
         wScrn=  0.000000 ICntrl=         0 IOpCl=  0 I1Cent=           0 NGrid=           0
         NMat0=    1 NMatS0=      1 NMatT0=    0 NMatD0=    1 NMtDS0=    0 NMtDT0=    0
 Integrals replicated using symmetry in FoFCou.
 CoulSu:  requested number of processors reduced to:  20 ShMem   1 Linda.
 NMat=     1 NSing=     1 JSym2X= 2.
 CoulSu:  requested number of processors reduced to:  20 ShMem   1 Linda.
 NMat=     1 NSing=     1 JSym2X= 2.
 CoulSu:  requested number of processors reduced to:  20 ShMem   1 Linda.
 NMat=     1 NSing=     1 JSym2X= 2.
 CoulSu:  requested number of processors reduced to:  20 ShMem   1 Linda.
 NMat=     1 NSing=     1 JSym2X= 2.
 CoulSu:  requested number of processors reduced to:  20 ShMem   1 Linda.
 NMat=     1 NSing=     1 JSym2X= 2.
 CoulSu:  requested number of processors reduced to:  20 ShMem   1 Linda.
 NMat=     1 NSing=     1 JSym2X= 2.
 CoulSu:  requested number of processors reduced to:  20 ShMem   1 Linda.
 NMat=     1 NSing=     1 JSym2X= 2.
 CoulSu:  requested number of processors reduced to:  20 ShMem   1 Linda.
 NMat=     1 NSing=     1 JSym2X= 2.
 CoulSu:  requested number of processors reduced to:  20 ShMem   1 Linda.
 NMat=     1 NSing=     1 JSym2X= 2.
 CoulSu:  requested number of processors reduced to:  20 ShMem   1 Linda.
 NMat=     1 NSing=     1 JSym2X= 2.
 CoulSu:  requested number of processors reduced to:  20 ShMem   1 Linda.
 NMat=     1 NSing=     1 JSym2X= 2.
 CoulSu:  requested number of processors reduced to:  20 ShMem   1 Linda.
 NMat=     1 NSing=     1 JSym2X= 2.
 CoulSu:  requested number of processors reduced to:  20 ShMem   1 Linda.
 NMat=     1 NSing=     1 JSym2X= 2.
 CoulSu:  requested number of processors reduced to:  20 ShMem   1 Linda.
 NMat=     1 NSing=     1 JSym2X= 2.
 CoulSu:  requested number of processors reduced to:  20 ShMem   1 Linda.
 NMat=     1 NSing=     1 JSym2X= 2.
 CoulSu:  requested number of processors reduced to:  20 ShMem   1 Linda.
 NMat=     1 NSing=     1 JSym2X= 2.
 CoulSu:  requested number of processors reduced to:  20 ShMem   1 Linda.
 NMat=     1 NSing=     1 JSym2X= 2.
 CoulSu:  requested number of processors reduced to:  20 ShMem   1 Linda.
 NMat=     1 NSing=     1 JSym2X= 2.
 CoulSu:  requested number of processors reduced to:  20 ShMem   1 Linda.
 NMat=     1 NSing=     1 JSym2X= 2.
 CoulSu:  requested number of processors reduced to:  20 ShMem   1 Linda.
 NMat=     1 NSing=     1 JSym2X= 2.
 CoulSu:  requested number of processors reduced to:  20 ShMem   1 Linda.
 NMat=     1 NSing=     1 JSym2X= 2.
 CoulSu:  requested number of processors reduced to:  20 ShMem   1 Linda.
 NMat=     1 NSing=     1 JSym2X= 2.
 CoulSu:  requested number of processors reduced to:  20 ShMem   1 Linda.
 NMat=     1 NSing=     1 JSym2X= 2.
 CoulSu:  requested number of processors reduced to:  20 ShMem   1 Linda.
 NMat=     1 NSing=     0 JSym2X= 2.
 CoulSu:  requested number of processors reduced to:  20 ShMem   1 Linda.
 NMat=     1 NSing=     0 JSym2X= 2.
 CoulSu:  requested number of processors reduced to:  20 ShMem   1 Linda.
 NMat=     1 NSing=     0 JSym2X= 2.
 CoulSu:  requested number of processors reduced to:  20 ShMem   1 Linda.
 NMat=     1 NSing=     0 JSym2X= 2.
 CoulSu:  requested number of processors reduced to:  20 ShMem   1 Linda.
 NMat=     1 NSing=     0 JSym2X= 2.
 CoulSu:  requested number of processors reduced to:  20 ShMem   1 Linda.
 NMat=     1 NSing=     0 JSym2X= 2.
 CoulSu:  requested number of processors reduced to:  20 ShMem   1 Linda.
 NMat=     1 NSing=     0 JSym2X= 2.
 CoulSu:  requested number of processors reduced to:  20 ShMem   1 Linda.
 NMat=     1 NSing=     0 JSym2X= 2.
 CoulSu:  requested number of processors reduced to:  20 ShMem   1 Linda.
 NMat=     1 NSing=     0 JSym2X= 2.
 CoulSu:  requested number of processors reduced to:  20 ShMem   1 Linda.
 NMat=     1 NSing=     0 JSym2X= 2.
 CoulSu:  requested number of processors reduced to:  20 ShMem   1 Linda.
 NMat=     1 NSing=     0 JSym2X= 2.
 CoulSu:  requested number of processors reduced to:  20 ShMem   1 Linda.
 NMat=     1 NSing=     0 JSym2X= 2.
 CoulSu:  requested number of processors reduced to:  20 ShMem   1 Linda.
 NMat=     1 NSing=     0 JSym2X= 2.
 CoulSu:  requested number of processors reduced to:  20 ShMem   1 Linda.
 NMat=     1 NSing=     0 JSym2X= 2.
 CoulSu:  requested number of processors reduced to:  20 ShMem   1 Linda.
 NMat=     1 NSing=     0 JSym2X= 2.
 CoulSu:  requested number of processors reduced to:  20 ShMem   1 Linda.
 NMat=     1 NSing=     0 JSym2X= 2.
 CoulSu:  requested number of processors reduced to:  20 ShMem   1 Linda.
 NMat=     1 NSing=     0 JSym2X= 2.
 CoulSu:  requested number of processors reduced to:  20 ShMem   1 Linda.
 NMat=     1 NSing=     0 JSym2X= 2.
 CoulSu:  requested number of processors reduced to:  20 ShMem   1 Linda.
 NMat=     1 NSing=     0 JSym2X= 2.
 CoulSu:  requested number of processors reduced to:  20 ShMem   1 Linda.
 NMat=     1 NSing=     0 JSym2X= 2.
 CoulSu:  requested number of processors reduced to:  20 ShMem   1 Linda.
 NMat=     1 NSing=     0 JSym2X= 2.
 CoulSu:  requested number of processors reduced to:  20 ShMem   1 Linda.
 NMat=     1 NSing=     0 JSym2X= 2.
 CoulSu:  requested number of processors reduced to:  20 ShMem   1 Linda.
 NMat=     1 NSing=     0 JSym2X= 2.
 CoulSu:  requested number of processors reduced to:  20 ShMem   1 Linda.
 NMat=     1 NSing=     0 JSym2X= 2.
 CoulSu:  requested number of processors reduced to:  20 ShMem   1 Linda.
 New state      1 was old state     38
 Excitation Energies [eV] at current iteration:
 Root      1 :    12.108489574704730
 Root      2 :    12.185340253423880
 Root      3 :    12.185340253431050
 Root      4 :    12.191949000977430
 Root      5 :    12.191949000980160
 Root      6 :    12.220077350176910
 Root      7 :    12.223797872539670
 Root      8 :    12.223797872542260
 Root      9 :    12.240994985450020
 Root     10 :    12.240994985451640
 Root     11 :    12.402892911598190
 Root     12 :    12.456300546398900
 Root     13 :    12.456489295013150
 Root     14 :    12.465384279743740
 Root     15 :    12.470041352073490
 Root     16 :    12.470091929487940
 Root     17 :    12.470133024135800
 Root     18 :    12.470133024154290
 Root     19 :    12.476485385417080
 Root     20 :    12.485045194085730
 Root     21 :    12.487152494631570
 Root     22 :    12.487152494632200
 Root     23 :    12.487451518663940
 Root     24 :    12.487451518667380
 Root     25 :    12.491990110792910
 Root     26 :    12.491990110792970
 Root     27 :    12.509358607204160
 Root     28 :    12.509358607240000
 Root     29 :    12.519939834405720
 Root     30 :    12.524633190638310
 Root     31 :    12.524633190650170
 Root     32 :    12.538112829724510
 Root     33 :    12.538174435120450
 Root     34 :    12.541443790215770
 Root     35 :    12.541544079330140
 Root     36 :    12.552678496850200
 Root     37 :    12.552678496857070
 Root     38 :    12.560784863762280
 Root     39 :    12.560784863774360
 Root     40 :    12.570950523751610
 Root     41 :    12.578973140424190
 Root     42 :    12.578973140440360
 Root     43 :    12.595101784322550
 Root     44 :    12.632578528919950
 Root     45 :    12.632578528929190
 Root     46 :    13.251186421563210
 Root     47 :    13.255074121067810
 Root     48 :    13.307359817189340
 Iteration     2 Dimension    96 NMult    48 NNew     48
 Estimated number of processors is:   20
 CISAX will form     1 AO SS matrices at one time.
 NMat=     1 NSing=     1 JSym2X= 2.
 CoulSu:  requested number of processors reduced to:  20 ShMem   1 Linda.
 NMat=     1 NSing=     1 JSym2X= 2.
 CoulSu:  requested number of processors reduced to:  20 ShMem   1 Linda.
 NMat=     1 NSing=     1 JSym2X= 2.
 CoulSu:  requested number of processors reduced to:  20 ShMem   1 Linda.
 NMat=     1 NSing=     1 JSym2X= 2.
 CoulSu:  requested number of processors reduced to:  20 ShMem   1 Linda.
 NMat=     1 NSing=     1 JSym2X= 2.
 CoulSu:  requested number of processors reduced to:  20 ShMem   1 Linda.
 NMat=     1 NSing=     1 JSym2X= 2.
 CoulSu:  requested number of processors reduced to:  20 ShMem   1 Linda.
 NMat=     1 NSing=     1 JSym2X= 2.
 CoulSu:  requested number of processors reduced to:  20 ShMem   1 Linda.
 NMat=     1 NSing=     1 JSym2X= 2.
 CoulSu:  requested number of processors reduced to:  20 ShMem   1 Linda.
 NMat=     1 NSing=     1 JSym2X= 2.
 CoulSu:  requested number of processors reduced to:  20 ShMem   1 Linda.
 NMat=     1 NSing=     1 JSym2X= 2.
 CoulSu:  requested number of processors reduced to:  20 ShMem   1 Linda.
 NMat=     1 NSing=     1 JSym2X= 2.
 CoulSu:  requested number of processors reduced to:  20 ShMem   1 Linda.
 NMat=     1 NSing=     1 JSym2X= 2.
 CoulSu:  requested number of processors reduced to:  20 ShMem   1 Linda.
 NMat=     1 NSing=     1 JSym2X= 2.
 CoulSu:  requested number of processors reduced to:  20 ShMem   1 Linda.
 NMat=     1 NSing=     1 JSym2X= 2.
 CoulSu:  requested number of processors reduced to:  20 ShMem   1 Linda.
 NMat=     1 NSing=     1 JSym2X= 2.
 CoulSu:  requested number of processors reduced to:  20 ShMem   1 Linda.
 NMat=     1 NSing=     1 JSym2X= 2.
 CoulSu:  requested number of processors reduced to:  20 ShMem   1 Linda.
 NMat=     1 NSing=     1 JSym2X= 2.
 CoulSu:  requested number of processors reduced to:  20 ShMem   1 Linda.
 NMat=     1 NSing=     1 JSym2X= 2.
 CoulSu:  requested number of processors reduced to:  20 ShMem   1 Linda.
 NMat=     1 NSing=     1 JSym2X= 2.
 CoulSu:  requested number of processors reduced to:  20 ShMem   1 Linda.
 NMat=     1 NSing=     1 JSym2X= 2.
 CoulSu:  requested number of processors reduced to:  20 ShMem   1 Linda.
 NMat=     1 NSing=     1 JSym2X= 2.
 CoulSu:  requested number of processors reduced to:  20 ShMem   1 Linda.
 NMat=     1 NSing=     1 JSym2X= 2.
 CoulSu:  requested number of processors reduced to:  20 ShMem   1 Linda.
 NMat=     1 NSing=     1 JSym2X= 2.
 CoulSu:  requested number of processors reduced to:  20 ShMem   1 Linda.
 NMat=     1 NSing=     1 JSym2X= 2.
 CoulSu:  requested number of processors reduced to:  20 ShMem   1 Linda.
 NMat=     1 NSing=     0 JSym2X= 2.
 CoulSu:  requested number of processors reduced to:  20 ShMem   1 Linda.
 NMat=     1 NSing=     0 JSym2X= 2.
 CoulSu:  requested number of processors reduced to:  20 ShMem   1 Linda.
 NMat=     1 NSing=     0 JSym2X= 2.
 CoulSu:  requested number of processors reduced to:  20 ShMem   1 Linda.
 NMat=     1 NSing=     0 JSym2X= 2.
 CoulSu:  requested number of processors reduced to:  20 ShMem   1 Linda.
 NMat=     1 NSing=     0 JSym2X= 2.
 CoulSu:  requested number of processors reduced to:  20 ShMem   1 Linda.
 NMat=     1 NSing=     0 JSym2X= 2.
 CoulSu:  requested number of processors reduced to:  20 ShMem   1 Linda.
 NMat=     1 NSing=     0 JSym2X= 2.
 CoulSu:  requested number of processors reduced to:  20 ShMem   1 Linda.
 NMat=     1 NSing=     0 JSym2X= 2.
 CoulSu:  requested number of processors reduced to:  20 ShMem   1 Linda.
 NMat=     1 NSing=     0 JSym2X= 2.
 CoulSu:  requested number of processors reduced to:  20 ShMem   1 Linda.
 NMat=     1 NSing=     0 JSym2X= 2.
 CoulSu:  requested number of processors reduced to:  20 ShMem   1 Linda.
 NMat=     1 NSing=     0 JSym2X= 2.
 CoulSu:  requested number of processors reduced to:  20 ShMem   1 Linda.
 NMat=     1 NSing=     0 JSym2X= 2.
 CoulSu:  requested number of processors reduced to:  20 ShMem   1 Linda.
 NMat=     1 NSing=     0 JSym2X= 2.
 CoulSu:  requested number of processors reduced to:  20 ShMem   1 Linda.
 NMat=     1 NSing=     0 JSym2X= 2.
 CoulSu:  requested number of processors reduced to:  20 ShMem   1 Linda.
 NMat=     1 NSing=     0 JSym2X= 2.
 CoulSu:  requested number of processors reduced to:  20 ShMem   1 Linda.
 NMat=     1 NSing=     0 JSym2X= 2.
 CoulSu:  requested number of processors reduced to:  20 ShMem   1 Linda.
 NMat=     1 NSing=     0 JSym2X= 2.
 CoulSu:  requested number of processors reduced to:  20 ShMem   1 Linda.
 NMat=     1 NSing=     0 JSym2X= 2.
 CoulSu:  requested number of processors reduced to:  20 ShMem   1 Linda.
 NMat=     1 NSing=     0 JSym2X= 2.
 CoulSu:  requested number of processors reduced to:  20 ShMem   1 Linda.
 NMat=     1 NSing=     0 JSym2X= 2.
 CoulSu:  requested number of processors reduced to:  20 ShMem   1 Linda.
 NMat=     1 NSing=     0 JSym2X= 2.
 CoulSu:  requested number of processors reduced to:  20 ShMem   1 Linda.
 NMat=     1 NSing=     0 JSym2X= 2.
 CoulSu:  requested number of processors reduced to:  20 ShMem   1 Linda.
 NMat=     1 NSing=     0 JSym2X= 2.
 CoulSu:  requested number of processors reduced to:  20 ShMem   1 Linda.
 NMat=     1 NSing=     0 JSym2X= 2.
 CoulSu:  requested number of processors reduced to:  20 ShMem   1 Linda.
 Root      1 not converged, maximum delta is    0.380358440981126
 Excitation Energies [eV] at current iteration:
 Root      1 :    11.520685697663510   Change is   -0.587803877041220
 Root      2 :    11.559445695245700   Change is   -0.625894558178180
 Root      3 :    11.559445695247920   Change is   -0.625894558183121
 Root      4 :    11.579764955737730   Change is   -0.929593651466436
 Root      5 :    11.579764955744970   Change is   -0.929593651495029
 Root      6 :    11.693330318494990   Change is   -0.772053961248751
 Root      7 :    11.740603637136690   Change is   -0.479473713040220
 Root      8 :    11.761266846821680   Change is   -0.430682154155743
 Root      9 :    11.761266846822180   Change is   -0.430682154157979
 Root     10 :    11.804600192371670   Change is   -0.419197680170590
 Root     11 :    11.804600192372740   Change is   -0.419197680166932
 Root     12 :    11.926110860566400   Change is   -0.644839663185210
 Root     13 :    12.043001043760220   Change is   -0.476938790645498
 Root     14 :    12.073511695023590   Change is   -0.329381216574596
 Root     15 :    12.105208998486970   Change is   -0.351091547911931
 Root     16 :    12.105603976372840   Change is   -0.350885318640307
 Root     17 :    12.120752699786330   Change is   -0.349339229701618
 Root     18 :    12.120958063870380   Change is   -0.349083288203099
 Root     19 :    12.132950275427010   Change is   -0.337182748708787
 Root     20 :    12.132950275475740   Change is   -0.337182748678547
 Root     21 :    12.152912535760510   Change is   -0.323572849656579
 Root     22 :    12.181971881456950   Change is   -0.059023103993063
 Root     23 :    12.181971881481020   Change is   -0.059023103970617
 Root     24 :    12.192967165460640   Change is   -0.367817698301644
 Root     25 :    12.192967165463790   Change is   -0.367817698310570
 Root     26 :    12.196657755306730   Change is   -0.327975435331584
 Root     27 :    12.196657755309860   Change is   -0.327975435340307
 Root     28 :    12.197384077241990   Change is   -0.355294419608211
 Root     29 :    12.197384077249690   Change is   -0.355294419607388
 Root     30 :    12.203732445384740   Change is   -0.391369338937815
 Root     31 :    12.218184864623610   Change is   -0.268967630007962
 Root     32 :    12.218184864702620   Change is   -0.268967629929578
 Root     33 :    12.221379907224300   Change is   -0.270610203568616
 Root     34 :    12.221379907292300   Change is   -0.270610203500680
 Root     35 :    12.234864659821430   Change is   -0.252586858842515
 Root     36 :    12.234864659835490   Change is   -0.252586858831891
 Root     37 :    12.253314493048750   Change is   -0.288129297167013
 Root     38 :    12.253678301932690   Change is   -0.287865777397456
 Root     39 :    12.255569012133050   Change is   -0.282605422987395
 Root     40 :    12.255734107366950   Change is   -0.282378722357567
 Root     41 :    12.262668510773030   Change is   -0.369910018146928
 Root     42 :    12.262668510801900   Change is   -0.369910018127289
 Root     43 :    12.292152686234680   Change is   -0.286820454189510
 Root     44 :    12.292152686253630   Change is   -0.286820454186722
 Root     45 :    12.302521605098960   Change is   -0.182523588986767
 Root     46 :    12.659252776236260   Change is   -0.595821344831552
 Root     47 :    12.983901644520920   Change is   -0.267284777042284
 Root     48 :    13.021133457341980   Change is   -0.286226359847364
 Iteration     3 Dimension   102 NMult    96 NNew      6
 Estimated number of processors is:   20
 CISAX will form     1 AO SS matrices at one time.
 NMat=     1 NSing=     1 JSym2X= 2.
 CoulSu:  requested number of processors reduced to:  20 ShMem   1 Linda.
 NMat=     1 NSing=     1 JSym2X= 2.
 CoulSu:  requested number of processors reduced to:  20 ShMem   1 Linda.
 NMat=     1 NSing=     1 JSym2X= 2.
 CoulSu:  requested number of processors reduced to:  20 ShMem   1 Linda.
 NMat=     1 NSing=     0 JSym2X= 2.
 CoulSu:  requested number of processors reduced to:  20 ShMem   1 Linda.
 NMat=     1 NSing=     0 JSym2X= 2.
 CoulSu:  requested number of processors reduced to:  20 ShMem   1 Linda.
 NMat=     1 NSing=     0 JSym2X= 2.
 CoulSu:  requested number of processors reduced to:  20 ShMem   1 Linda.
 Root      1 not converged, maximum delta is    0.019476151039909
 Excitation Energies [eV] at current iteration:
 Root      1 :    11.495060155352120   Change is   -0.025625542311392
 Root      2 :    11.534006299080990   Change is   -0.025439396164716
 Root      3 :    11.534006299083630   Change is   -0.025439396164290
 Root      4 :    11.731525693172790   Change is   -0.009077943963899
 Root      5 :    11.743388153815720   Change is   -0.017878693005962
 Root      6 :    11.743489286949730   Change is   -0.017777559872449
 Iteration     4 Dimension   108 NMult   102 NNew      6
 Estimated number of processors is:   20
 CISAX will form     1 AO SS matrices at one time.
 NMat=     1 NSing=     1 JSym2X= 2.
 CoulSu:  requested number of processors reduced to:  20 ShMem   1 Linda.
 NMat=     1 NSing=     1 JSym2X= 2.
 CoulSu:  requested number of processors reduced to:  20 ShMem   1 Linda.
 NMat=     1 NSing=     1 JSym2X= 2.
 CoulSu:  requested number of processors reduced to:  20 ShMem   1 Linda.
 NMat=     1 NSing=     0 JSym2X= 2.
 CoulSu:  requested number of processors reduced to:  20 ShMem   1 Linda.
 NMat=     1 NSing=     0 JSym2X= 2.
 CoulSu:  requested number of processors reduced to:  20 ShMem   1 Linda.
 NMat=     1 NSing=     0 JSym2X= 2.
 CoulSu:  requested number of processors reduced to:  20 ShMem   1 Linda.
 Root      1 not converged, maximum delta is    0.007976867547894
 Excitation Energies [eV] at current iteration:
 Root      1 :    11.492466585981530   Change is   -0.002593569370596
 Root      2 :    11.532030639739090   Change is   -0.001975659341901
 Root      3 :    11.532030639741730   Change is   -0.001975659341905
 Root      4 :    11.729842329289300   Change is   -0.001683363883488
 Root      5 :    11.741733559779160   Change is   -0.001654594036562
 Root      6 :    11.741736540963990   Change is   -0.001752745985741
 Iteration     5 Dimension   114 NMult   108 NNew      6
 Estimated number of processors is:   20
 CISAX will form     1 AO SS matrices at one time.
 NMat=     1 NSing=     1 JSym2X= 2.
 CoulSu:  requested number of processors reduced to:  20 ShMem   1 Linda.
 NMat=     1 NSing=     1 JSym2X= 2.
 CoulSu:  requested number of processors reduced to:  20 ShMem   1 Linda.
 NMat=     1 NSing=     1 JSym2X= 2.
 CoulSu:  requested number of processors reduced to:  20 ShMem   1 Linda.
 NMat=     1 NSing=     0 JSym2X= 2.
 CoulSu:  requested number of processors reduced to:  20 ShMem   1 Linda.
 NMat=     1 NSing=     0 JSym2X= 2.
 CoulSu:  requested number of processors reduced to:  20 ShMem   1 Linda.
 NMat=     1 NSing=     0 JSym2X= 2.
 CoulSu:  requested number of processors reduced to:  20 ShMem   1 Linda.
 Root      1 not converged, maximum delta is    0.002321446404005
 Excitation Energies [eV] at current iteration:
 Root      1 :    11.491993322270650   Change is   -0.000473263710874
 Root      2 :    11.531686091060820   Change is   -0.000344548678263
 Root      3 :    11.531686091063500   Change is   -0.000344548678228
 Root      4 :    11.729743132895260   Change is   -0.000099196394047
 Root      5 :    11.741648290974250   Change is   -0.000085268804912
 Root      6 :    11.741648337563590   Change is   -0.000088203400399
 Iteration     6 Dimension   120 NMult   114 NNew      6
 Estimated number of processors is:   20
 CISAX will form     1 AO SS matrices at one time.
 NMat=     1 NSing=     1 JSym2X= 2.
 CoulSu:  requested number of processors reduced to:  20 ShMem   1 Linda.
 NMat=     1 NSing=     1 JSym2X= 2.
 CoulSu:  requested number of processors reduced to:  20 ShMem   1 Linda.
 NMat=     1 NSing=     1 JSym2X= 2.
 CoulSu:  requested number of processors reduced to:  20 ShMem   1 Linda.
 NMat=     1 NSing=     0 JSym2X= 2.
 CoulSu:  requested number of processors reduced to:  20 ShMem   1 Linda.
 NMat=     1 NSing=     0 JSym2X= 2.
 CoulSu:  requested number of processors reduced to:  20 ShMem   1 Linda.
 NMat=     1 NSing=     0 JSym2X= 2.
 CoulSu:  requested number of processors reduced to:  20 ShMem   1 Linda.
 Root      1 has converged.
 Excitation Energies [eV] at current iteration:
 Root      1 :    11.491971751232050   Change is   -0.000021571038605
 Root      2 :    11.531673812582450   Change is   -0.000012278478370
 Root      3 :    11.531673812585140   Change is   -0.000012278478360
 Root      4 :    11.729730753001830   Change is   -0.000012379893430
 Root      5 :    11.741637189031410   Change is   -0.000011101942838
 Root      6 :    11.741637273982150   Change is   -0.000011063581442
 Convergence achieved on expansion vectors.
 ***********************************************************************
 Stability analysis using <AA,BB:AA,BB> singles matrix:
 ***********************************************************************
 1PDM for each excited state written to RWF  633
 Ground to excited state transition densities written to RWF  633

 Eigenvectors of the stability matrix:
 
 Eigenvector   1:      Triplet-SGU  Eigenvalue= 0.4223222  <S**2>=2.000
      13 -> 19         0.34486
      13 -> 26         0.19440
      18 -> 22         0.46772
      18 -> 25         0.33097
 The wavefunction is stable under the perturbations considered.
 Leave Link  914 at Sat Apr 17 13:39:02 2021, MaxMem=   104857600 cpu:            8942.7 elap:             229.9
 (Enter /s/ls4/users/knvvv/bin/g16sse/l508.exe)
 The wavefunction is already stable.
 Leave Link  508 at Sat Apr 17 13:39:02 2021, MaxMem=   104857600 cpu:               2.2 elap:               0.1
 (Enter /s/ls4/users/knvvv/bin/g16sse/l601.exe)
 Copying SCF densities to generalized density rwf, IOpCl= 0 IROHF=0.

 **********************************************************************

            Population analysis using the SCF density.

 **********************************************************************

 Orbital symmetries:
       Occupied  (SGU) (SGG) (SGU) (SGG) (SGU) (SGG) (PIG) (PIG)
                 (PIU) (PIU) (SGG) (SGU) (SGG) (PIU) (PIU) (PIG)
                 (PIG) (SGU)
       Virtual   (SGU) (PIU) (PIU) (SGG) (PIG) (PIG) (SGG) (SGU)
                 (SGG) (PIU) (PIU) (DLTG) (DLTG) (DLTU) (DLTU)
                 (PIG) (PIG) (SGU) (SGG) (PIU) (PIU) (PIG) (PIG)
                 (SGU) (PIU) (PIU) (DLTG) (DLTG) (DLTU) (DLTU)
                 (SGG) (SGU) (PIG) (PIG) (SGG) (SGU) (SGG) (PIU)
                 (PIU) (PIG) (PIG) (SGU) (PIU) (PIU) (DLTG) (DLTG)
                 (DLTU) (DLTU) (SGG) (PIG) (PIG) (SGU) (DLTG) (DLTU)
                 (PHIU) (PHIU) (PHIG) (PHIG) (DLTG) (DLTU) (PIU)
                 (PIU) (PIG) (PIG) (SGG) (SGU) (SGG) (SGU) (PIU)
                 (PIU) (DLTG) (DLTG) (DLTU) (DLTU) (SGG) (PIG)
                 (PIG) (SGU) (DLTG) (DLTU) (?A) (?A) (?B) (?B)
                 (?C) (?D) (?D) (?C) (?A) (?A) (?B) (?B) (DLTG)
                 (DLTU) (?C) (SGU) (SGG) (PIU) (PIU) (PIG) (PIG)
                 (SGU) (DLTG) (DLTU) (?A) (?A) (?B) (?B) (DLTG)
                 (DLTU) (?A) (?A) (?B) (?B) (SGG) (SGU) (SGG) (SGU)
                 (PIU) (PIU) (DLTG) (DLTG) (DLTU) (DLTU) (SGG)
                 (PIG) (PIG) (SGU) (SGG) (SGU) (PIU) (PIU) (PIG)
                 (PIG) (SGG) (SGU) (SGG) (SGU) (SGG) (SGU)
 The electronic state is 1-SGG.
 Alpha  occ. eigenvalues -- -116.28658-116.28658 -11.50423 -11.50423  -9.02487
 Alpha  occ. eigenvalues --   -9.02487  -9.02487  -9.02487  -9.02487  -9.02487
 Alpha  occ. eigenvalues --   -1.07606  -1.07600  -0.49902  -0.49826  -0.49826
 Alpha  occ. eigenvalues --   -0.49807  -0.49807  -0.49732
 Alpha virt. eigenvalues --    0.02710   0.03017   0.03017   0.03470   0.05303
 Alpha virt. eigenvalues --    0.05303   0.06018   0.12620   0.18911   0.19065
 Alpha virt. eigenvalues --    0.19065   0.20787   0.20790   0.21697   0.21699
 Alpha virt. eigenvalues --    0.24472   0.24472   0.26878   0.33681   0.33691
 Alpha virt. eigenvalues --    0.33691   0.34557   0.34557   0.37292   0.55424
 Alpha virt. eigenvalues --    0.55424   0.56562   0.56563   0.57410   0.57410
 Alpha virt. eigenvalues --    0.57917   0.59594   0.60130   0.60130   0.60539
 Alpha virt. eigenvalues --    0.72457   1.31779   1.32947   1.32947   1.34200
 Alpha virt. eigenvalues --    1.34200   1.38152   1.57405   1.57405   1.58337
 Alpha virt. eigenvalues --    1.58339   1.59103   1.59104   1.60551   1.61415
 Alpha virt. eigenvalues --    1.61415   1.63509   1.68745   1.68745   1.68746
 Alpha virt. eigenvalues --    1.68746   1.68746   1.68746   1.68747   1.68747
 Alpha virt. eigenvalues --    1.68771   1.68771   1.68821   1.68821   1.68888
 Alpha virt. eigenvalues --    1.70122   2.51835   2.58485   3.99714   3.99714
 Alpha virt. eigenvalues --    4.00502   4.00504   4.01129   4.01130   4.02178
 Alpha virt. eigenvalues --    4.03088   4.03088   4.04791   4.30491   4.30491
 Alpha virt. eigenvalues --    4.30493   4.30493   4.30494   4.30494   4.30496
 Alpha virt. eigenvalues --    4.30496   4.30496   4.30496   4.30497   4.30497
 Alpha virt. eigenvalues --    4.30497   4.30497   4.30498   4.30498   4.30499
 Alpha virt. eigenvalues --    4.30505   4.51699   4.52227   4.52227   4.53233
 Alpha virt. eigenvalues --    4.53233   4.57060   4.74679   4.74679   4.74680
 Alpha virt. eigenvalues --    4.74680   4.74680   4.74680   4.74680   4.74680
 Alpha virt. eigenvalues --    4.74689   4.74689   4.74699   4.74699   4.74742
 Alpha virt. eigenvalues --    4.75016   9.72241   9.78312  12.90729  12.90729
 Alpha virt. eigenvalues --   12.91265  12.91266  12.91645  12.91645  12.92128
 Alpha virt. eigenvalues --   12.92892  12.92892  12.94344  33.02461  33.08198
 Alpha virt. eigenvalues --   54.61425  54.61425  54.61425  54.61425  54.61426
 Alpha virt. eigenvalues --   54.61427 113.23053 113.28483 601.60190 601.69274
          Condensed to atoms (all electrons):
               1          2
     1  Ar  17.999105   0.000895
     2  Ar   0.000895  17.999105
 Mulliken charges:
               1
     1  Ar  -0.000000
     2  Ar  -0.000000
 Sum of Mulliken charges =  -0.00000
 Mulliken charges with hydrogens summed into heavy atoms:
               1
     1  Ar  -0.000000
     2  Ar  -0.000000
 Electronic spatial extent (au):  <R**2>=            823.8038
 Charge=             -0.0000 electrons
 Dipole moment (field-independent basis, Debye):
    X=             -0.0000    Y=              0.0000    Z=             -0.0000  Tot=              0.0000
 Quadrupole moment (field-independent basis, Debye-Ang):
   XX=            -23.3817   YY=            -23.3817   ZZ=            -23.3565
   XY=             -0.0000   XZ=             -0.0000   YZ=              0.0000
 Traceless Quadrupole moment (field-independent basis, Debye-Ang):
   XX=             -0.0084   YY=             -0.0084   ZZ=              0.0168
   XY=             -0.0000   XZ=             -0.0000   YZ=              0.0000
 Octapole moment (field-independent basis, Debye-Ang**2):
  XXX=             -0.0000  YYY=             -0.0000  ZZZ=             -0.0000  XYY=             -0.0000
  XXY=              0.0000  XXZ=             -0.0000  XZZ=             -0.0000  YZZ=              0.0000
  YYZ=             -0.0000  XYZ=             -0.0000
 Hexadecapole moment (field-independent basis, Debye-Ang**3):
 XXXX=            -22.2200 YYYY=            -22.2200 ZZZZ=           -863.9072 XXXY=             -0.0000
 XXXZ=              0.0000 YYYX=             -0.0000 YYYZ=              0.0000 ZZZX=              0.0000
 ZZZY=              0.0000 XXYY=             -7.4067 XXZZ=           -147.7330 YYZZ=           -147.7330
 XXYZ=              0.0000 YYXZ=              0.0000 ZZXY=             -0.0000
 N-N= 3.499049313022D+01 E-N=-2.580527454293D+03  KE= 1.053667065836D+03
 PrsmSu:  requested number of processors reduced to:  21 ShMem   1 Linda.
 No NMR shielding tensors so no spin-rotation constants.
 Leave Link  601 at Sat Apr 17 13:39:06 2021, MaxMem=   104857600 cpu:             175.9 elap:               3.9
 (Enter /s/ls4/users/knvvv/bin/g16sse/l9999.exe)

 Test job not archived.
 1\1\GINC-N156\Stability\RM062X\Gen\Ar2\KNVVV\17-Apr-2021\0\\#P M062X/G
 EN Integral=UltraFineGrid SCF=NoSymm Stable=(RExt, Opt) IOp(1/33=1)\\D
 atabase calculations.\\0,1\Ar,0,0.,0.,0.\Ar,0,0.,0.,4.9\\Version=ES64L
 -G16RevA.03\State=1-SGG\HF=-1055.0794348\RMSD=3.749e-09\Dipole=0.,0.,0
 .\Quadrupole=-0.0062404,-0.0062404,0.0124807,0.,0.,0.\PG=D*H [C*(Ar1.A
 r1)]\\@


 The best way to pay for a lovely moment is to enjoy it.
 -- Richard Bach
 Job cpu time:       0 days  3 hours 49 minutes  5.0 seconds.
 Elapsed time:       0 days  0 hours  5 minutes 34.9 seconds.
 File lengths (MBytes):  RWF=    179 Int=      0 D2E=      0 Chk=      7 Scr=      1
 Normal termination of Gaussian 16 at Sat Apr 17 13:39:06 2021.
