 Entering Gaussian System, Link 0=/s/ls4/users/knvvv/bin/g16sse/g16
 Input=data/database/M062X--def2-QZVPPD--11_Isomer1_Styrene45.gjf
 Output=data/database/M062X--def2-QZVPPD--11_Isomer1_Styrene45.log
 Initial command:
 /s/ls4/users/knvvv/bin/g16sse/l1.exe "/s/ls4/users/knvvv/bin/scratch/Gau-12039.inp" -scrdir="/s/ls4/users/knvvv/bin/scratch/"
 Entering Link 1 = /s/ls4/users/knvvv/bin/g16sse/l1.exe PID=     12040.
  
 Copyright (c) 1988,1990,1992,1993,1995,1998,2003,2009,2016,
            Gaussian, Inc.  All Rights Reserved.
  
 This is part of the Gaussian(R) 16 program.  It is based on
 the Gaussian(R) 09 system (copyright 2009, Gaussian, Inc.),
 the Gaussian(R) 03 system (copyright 2003, Gaussian, Inc.),
 the Gaussian(R) 98 system (copyright 1998, Gaussian, Inc.),
 the Gaussian(R) 94 system (copyright 1995, Gaussian, Inc.),
 the Gaussian 92(TM) system (copyright 1992, Gaussian, Inc.),
 the Gaussian 90(TM) system (copyright 1990, Gaussian, Inc.),
 the Gaussian 88(TM) system (copyright 1988, Gaussian, Inc.),
 the Gaussian 86(TM) system (copyright 1986, Carnegie Mellon
 University), and the Gaussian 82(TM) system (copyright 1983,
 Carnegie Mellon University). Gaussian is a federally registered
 trademark of Gaussian, Inc.
  
 This software contains proprietary and confidential information,
 including trade secrets, belonging to Gaussian, Inc.
  
 This software is provided under written license and may be
 used, copied, transmitted, or stored only in accord with that
 written license.
  
 The following legend is applicable only to US Government
 contracts under FAR:
  
                    RESTRICTED RIGHTS LEGEND
  
 Use, reproduction and disclosure by the US Government is
 subject to restrictions as set forth in subparagraphs (a)
 and (c) of the Commercial Computer Software - Restricted
 Rights clause in FAR 52.227-19.
  
 Gaussian, Inc.
 340 Quinnipiac St., Bldg. 40, Wallingford CT 06492
  
  
 ---------------------------------------------------------------
 Warning -- This program may not be used in any manner that
 competes with the business of Gaussian, Inc. or will provide
 assistance to any competitor of Gaussian, Inc.  The licensee
 of this program is prohibited from giving any competitor of
 Gaussian, Inc. access to this program.  By using this program,
 the user acknowledges that Gaussian, Inc. is engaged in the
 business of creating and licensing software in the field of
 computational chemistry and represents and warrants to the
 licensee that it is not a competitor of Gaussian, Inc. and that
 it will not use this program in any manner prohibited above.
 ---------------------------------------------------------------
  

 Cite this work as:
 Gaussian 16, Revision A.03,
 M. J. Frisch, G. W. Trucks, H. B. Schlegel, G. E. Scuseria, 
 M. A. Robb, J. R. Cheeseman, G. Scalmani, V. Barone, 
 G. A. Petersson, H. Nakatsuji, X. Li, M. Caricato, A. V. Marenich, 
 J. Bloino, B. G. Janesko, R. Gomperts, B. Mennucci, H. P. Hratchian, 
 J. V. Ortiz, A. F. Izmaylov, J. L. Sonnenberg, D. Williams-Young, 
 F. Ding, F. Lipparini, F. Egidi, J. Goings, B. Peng, A. Petrone, 
 T. Henderson, D. Ranasinghe, V. G. Zakrzewski, J. Gao, N. Rega, 
 G. Zheng, W. Liang, M. Hada, M. Ehara, K. Toyota, R. Fukuda, 
 J. Hasegawa, M. Ishida, T. Nakajima, Y. Honda, O. Kitao, H. Nakai, 
 T. Vreven, K. Throssell, J. A. Montgomery, Jr., J. E. Peralta, 
 F. Ogliaro, M. J. Bearpark, J. J. Heyd, E. N. Brothers, K. N. Kudin, 
 V. N. Staroverov, T. A. Keith, R. Kobayashi, J. Normand, 
 K. Raghavachari, A. P. Rendell, J. C. Burant, S. S. Iyengar, 
 J. Tomasi, M. Cossi, J. M. Millam, M. Klene, C. Adamo, R. Cammi, 
 J. W. Ochterski, R. L. Martin, K. Morokuma, O. Farkas, 
 J. B. Foresman, and D. J. Fox, Gaussian, Inc., Wallingford CT, 2016.
 
 ******************************************
 Gaussian 16:  ES64L-G16RevA.03 25-Dec-2016
                17-Apr-2021 
 ******************************************
 %RWF=temp12_73083,70GB
 %nprocshared=48
 Will use up to   48 processors via shared memory.
 Default route: MaxDisk=80GB
 ----------------------------------------------------------------------
 #P M062X/GEN Integral=UltraFineGrid SCF=NoSymm Stable=(RExt, Opt) IOp(
 1/33=1)
 ----------------------------------------------------------------------
 1/33=1,38=1,172=1/1;
 2/12=2,17=6,18=5,40=1/2;
 3/5=7,11=2,25=1,30=1,74=-55,75=-5/1,2,3;
 4/9=2/1;
 5/5=2,38=5/2;
 6/7=2,8=2,9=2,10=2,28=1/1;
 8/6=1,10=90,11=11/1;
 9/8=-3,42=1,46=1/14;
 5/5=2,8=3,17=40,38=5/8(-2);
 6/7=2,8=2,9=2,10=2,28=1/1;
 99/5=1,9=1/99;
 Leave Link    1 at Sat Apr 17 06:04:06 2021, MaxMem=           0 cpu:              10.8 elap:               0.2
 (Enter /s/ls4/users/knvvv/bin/g16sse/l101.exe)
 ONIOM data not found on unit 2.
 ----------------------
 Database calculations.
 ----------------------
 TstMul:  ICh=     0
 TstMul:  Mul=     1
 TstMul:  ICh=     0
 TstMul:  Mul=     1
 Symbolic Z-matrix:
 Charge =  0 Multiplicity = 1
 C                     0.        0.55784   0. 
 C                    -1.00395  -0.42012   0. 
 C                     1.33227   0.12916   0. 
 C                    -0.68404  -1.76833   0. 
 C                     1.65535  -1.22192   0. 
 C                     0.64758  -2.17748   0. 
 C                    -0.28118   1.99902   0. 
 C                    -1.47239   2.59658   0. 
 H                    -2.0442   -0.12496   0. 
 H                     2.12292   0.86914   0. 
 H                    -1.47532  -2.50628   0. 
 H                     2.69335  -1.52681   0. 
 H                     0.89349  -3.23075   0. 
 H                     0.6028    2.62906   0. 
 H                    -1.55028   3.67453   0. 
 H                    -2.40464   2.04759   0. 
 
 RdStrC is calling ZToCFu for IStruc=1 NZ=    16.
 PrtBox:  NBox=     3 Levels=  2 BoxLen=    8.00 SMaxX=       13.05
          Shift=            4.544115            6.105223            0.000000
 Box      1 Number                   0 centers from      1 to      9:
 Box      2 Number                   2 centers from     10 to     14:
 Box      3 Number                   4 centers from     15 to     16:
 After GenITR:
 ITRead=  0  0  0  0  0  0  0  0  0  0  0  0  0  0  0  0
 MicOpt= -1 -1 -1 -1 -1 -1 -1 -1 -1 -1 -1 -1 -1 -1 -1 -1
 ITRead=  0  0  0  0  0  0  0  0  0  0  0  0  0  0  0  0
 MicOpt= -1 -1 -1 -1 -1 -1 -1 -1 -1 -1 -1 -1 -1 -1 -1 -1
 NAtoms=     16 NQM=       16 NQMF=       0 NMMI=      0 NMMIF=      0
                NMic=       0 NMicF=      0.
                    Isotopes and Nuclear Properties:
 (Nuclear quadrupole moments (NQMom) in fm**2, nuclear magnetic moments (NMagM)
  in nuclear magnetons)

  Atom         1           2           3           4           5           6           7           8           9          10
 IAtWgt=          12          12          12          12          12          12          12          12           1           1
 AtmWgt=  12.0000000  12.0000000  12.0000000  12.0000000  12.0000000  12.0000000  12.0000000  12.0000000   1.0078250   1.0078250
 NucSpn=           0           0           0           0           0           0           0           0           1           1
 AtZEff=  -0.0000000  -0.0000000  -0.0000000  -0.0000000  -0.0000000  -0.0000000  -0.0000000  -0.0000000  -0.0000000  -0.0000000
 NQMom=    0.0000000   0.0000000   0.0000000   0.0000000   0.0000000   0.0000000   0.0000000   0.0000000   0.0000000   0.0000000
 NMagM=    0.0000000   0.0000000   0.0000000   0.0000000   0.0000000   0.0000000   0.0000000   0.0000000   2.7928460   2.7928460
 AtZNuc=   6.0000000   6.0000000   6.0000000   6.0000000   6.0000000   6.0000000   6.0000000   6.0000000   1.0000000   1.0000000

  Atom        11          12          13          14          15          16
 IAtWgt=           1           1           1           1           1           1
 AtmWgt=   1.0078250   1.0078250   1.0078250   1.0078250   1.0078250   1.0078250
 NucSpn=           1           1           1           1           1           1
 AtZEff=  -0.0000000  -0.0000000  -0.0000000  -0.0000000  -0.0000000  -0.0000000
 NQMom=    0.0000000   0.0000000   0.0000000   0.0000000   0.0000000   0.0000000
 NMagM=    2.7928460   2.7928460   2.7928460   2.7928460   2.7928460   2.7928460
 AtZNuc=   1.0000000   1.0000000   1.0000000   1.0000000   1.0000000   1.0000000
 No MM parameters found.
 Leave Link  101 at Sat Apr 17 06:04:06 2021, MaxMem=   104857600 cpu:               9.2 elap:               0.2
 (Enter /s/ls4/users/knvvv/bin/g16sse/l202.exe)
                          Input orientation:                          
 ---------------------------------------------------------------------
 Center     Atomic      Atomic             Coordinates (Angstroms)
 Number     Number       Type             X           Y           Z
 ---------------------------------------------------------------------
      1          6           0        0.000000    0.557840    0.000000
      2          6           0       -1.003948   -0.420122    0.000000
      3          6           0        1.332269    0.129163    0.000000
      4          6           0       -0.684035   -1.768332    0.000000
      5          6           0        1.655353   -1.221918    0.000000
      6          6           0        0.647579   -2.177481    0.000000
      7          6           0       -0.281183    1.999019    0.000000
      8          6           0       -1.472389    2.596576    0.000000
      9          1           0       -2.044203   -0.124955    0.000000
     10          1           0        2.122922    0.869138    0.000000
     11          1           0       -1.475319   -2.506276    0.000000
     12          1           0        2.693354   -1.526807    0.000000
     13          1           0        0.893492   -3.230745    0.000000
     14          1           0        0.602798    2.629055    0.000000
     15          1           0       -1.550282    3.674533    0.000000
     16          1           0       -2.404642    2.047585    0.000000
 ---------------------------------------------------------------------
                    Distance matrix (angstroms):
                    1          2          3          4          5
     1  C    0.000000
     2  C    1.401542   0.000000
     3  C    1.399537   2.399922   0.000000
     4  C    2.424661   1.385646   2.768749   0.000000
     5  C    2.430583   2.777545   1.389174   2.402354   0.000000
     6  C    2.810932   2.411608   2.406119   1.393054   1.388780
     7  C    1.468353   2.524803   2.469735   3.788829   3.758272
     8  C    2.514831   3.052852   3.735537   4.435530   4.935956
     9  H    2.155220   1.081320   3.386021   2.133248   3.858762
    10  H    2.145624   3.382234   1.082911   3.851656   2.142694
    11  H    3.400790   2.138745   3.850726   1.081985   3.383886
    12  H    3.405864   3.859377   2.143546   3.386014   1.081852
    13  H    3.892519   3.391147   3.388437   2.151103   2.148446
    14  H    2.157150   3.446609   2.604148   4.581807   3.992226
    15  H    3.480970   4.130942   4.569327   5.511367   5.852463
    16  H    2.828718   2.837520   4.200577   4.185894   5.212793
                    6          7          8          9         10
     6  C    0.000000
     7  C    4.278522   0.000000
     8  C    5.223589   1.332684   0.000000
     9  H    3.385048   2.760345   2.780953   0.000000
    10  H    3.385044   2.656379   3.988772   4.284058   0.000000
    11  H    2.148209   4.660863   5.102853   2.448330   4.933635
    12  H    2.146758   4.612951   5.861374   4.940611   2.462914
    13  H    1.081591   5.360065   6.289282   4.275042   4.280250
    14  H    4.806745   1.085526   2.075441   3.819841   2.325529
    15  H    6.251133   2.101894   1.080768   3.831458   4.621977
    16  H    5.212220   2.124014   1.081890   2.202237   4.678416
                   11         12         13         14         15
    11  H    0.000000
    12  H    4.282195   0.000000
    13  H    2.477119   2.478489   0.000000
    14  H    5.539873   4.652055   5.867006   0.000000
    15  H    6.181264   6.712852   7.324950   2.393487   0.000000
    16  H    4.647719   6.226222   6.224022   3.063136   1.837632
                   16
    16  H    0.000000
 Stoichiometry    C8H8
 Framework group  CS[SG(C8H8)]
 Deg. of freedom    29
 Full point group                 CS      NOp   2
 Largest Abelian subgroup         CS      NOp   2
 Largest concise Abelian subgroup C1      NOp   1
                         Standard orientation:                         
 ---------------------------------------------------------------------
 Center     Atomic      Atomic             Coordinates (Angstroms)
 Number     Number       Type             X           Y           Z
 ---------------------------------------------------------------------
      1          6           0        0.000000    0.557840    0.000000
      2          6           0       -1.003948   -0.420122    0.000000
      3          6           0        1.332269    0.129163    0.000000
      4          6           0       -0.684035   -1.768332    0.000000
      5          6           0        1.655353   -1.221918    0.000000
      6          6           0        0.647579   -2.177481    0.000000
      7          6           0       -0.281183    1.999019    0.000000
      8          6           0       -1.472389    2.596576    0.000000
      9          1           0       -2.044203   -0.124955    0.000000
     10          1           0        2.122922    0.869138    0.000000
     11          1           0       -1.475319   -2.506276    0.000000
     12          1           0        2.693354   -1.526807    0.000000
     13          1           0        0.893492   -3.230745    0.000000
     14          1           0        0.602798    2.629055    0.000000
     15          1           0       -1.550282    3.674533    0.000000
     16          1           0       -2.404642    2.047585    0.000000
 ---------------------------------------------------------------------
 Rotational constants (GHZ):           5.2250520           1.5463292           1.1932057
 Leave Link  202 at Sat Apr 17 06:04:06 2021, MaxMem=   104857600 cpu:               7.5 elap:               0.2
 (Enter /s/ls4/users/knvvv/bin/g16sse/l301.exe)
 General basis read from cards:  (5D, 7F)
 Centers:       9     10     11     12     13     14     15     16
 S 4 1.00
     Exponent=  1.9069169000D+02 Coefficients=  7.0815167000D-04
     Exponent=  2.8605532000D+01 Coefficients=  5.4678827000D-03
     Exponent=  6.5095943000D+00 Coefficients=  2.7966605000D-02
     Exponent=  1.8412455000D+00 Coefficients=  1.0764538000D-01
 S 1 1.00
     Exponent=  5.9853725000D-01 Coefficients=  1.0000000000D+00
 S 1 1.00
     Exponent=  2.1397624000D-01 Coefficients=  1.0000000000D+00
 S 1 1.00
     Exponent=  8.0316286000D-02 Coefficients=  1.0000000000D+00
 P 1 1.00
     Exponent=  2.2920000000D+00 Coefficients=  1.0000000000D+00
 P 1 1.00
     Exponent=  8.3800000000D-01 Coefficients=  1.0000000000D+00
 P 1 1.00
     Exponent=  2.9200000000D-01 Coefficients=  1.0000000000D+00
 P 1 1.00
     Exponent=  8.4063199228D-02 Coefficients=  1.0000000000D+00
 D 1 1.00
     Exponent=  2.0620000000D+00 Coefficients=  1.0000000000D+00
 D 1 1.00
     Exponent=  6.6200000000D-01 Coefficients=  1.0000000000D+00
 F 1 1.00
     Exponent=  1.3970000000D+00 Coefficients=  1.0000000000D+00
 ****
 Centers:       1      2      3      4      5      6      7      8
 S 8 1.00
     Exponent=  6.7025071029D+04 Coefficients=  3.8736308501D-05
     Exponent=  1.0039986538D+04 Coefficients=  3.0107917575D-04
     Exponent=  2.2849316911D+03 Coefficients=  1.5787918095D-03
     Exponent=  6.4714122130D+02 Coefficients=  6.6087087195D-03
     Exponent=  2.1109472335D+02 Coefficients=  2.3367123250D-02
     Exponent=  7.6177643862D+01 Coefficients=  7.0420716898D-02
     Exponent=  2.9633839163D+01 Coefficients=  1.7360344953D-01
     Exponent=  1.2187785081D+01 Coefficients=  3.2292305648D-01
 S 2 1.00
     Exponent=  5.3026006299D+01 Coefficients=  7.4897404492D-02
     Exponent=  1.5258502776D+01 Coefficients=  7.6136220983D-01
 S 1 1.00
     Exponent=  5.2403957464D+00 Coefficients=  1.0000000000D+00
 S 1 1.00
     Exponent=  2.2905022379D+00 Coefficients=  1.0000000000D+00
 S 1 1.00
     Exponent=  6.9673283006D-01 Coefficients=  1.0000000000D+00
 S 1 1.00
     Exponent=  2.7599337363D-01 Coefficients=  1.0000000000D+00
 S 1 1.00
     Exponent=  1.0739884389D-01 Coefficients=  1.0000000000D+00
 S 1 1.00
     Exponent=  4.4981404899D-02 Coefficients=  1.0000000000D+00
 P 5 1.00
     Exponent=  1.0512555082D+02 Coefficients=  8.4647553844D-04
     Exponent=  2.4884461066D+01 Coefficients=  6.6274038534D-03
     Exponent=  7.8637230826D+00 Coefficients=  3.0120390419D-02
     Exponent=  2.8407001835D+00 Coefficients=  9.9951435476D-02
     Exponent=  1.1227137335D+00 Coefficients=  2.3826299282D-01
 P 1 1.00
     Exponent=  4.6050725555D-01 Coefficients=  1.0000000000D+00
 P 1 1.00
     Exponent=  1.8937530913D-01 Coefficients=  1.0000000000D+00
 P 1 1.00
     Exponent=  7.5983791611D-02 Coefficients=  1.0000000000D+00
 D 1 1.00
     Exponent=  1.8480000000D+00 Coefficients=  1.0000000000D+00
 D 1 1.00
     Exponent=  6.4900000000D-01 Coefficients=  1.0000000000D+00
 D 1 1.00
     Exponent=  2.2800000000D-01 Coefficients=  1.0000000000D+00
 D 1 1.00
     Exponent=  7.6889830417D-02 Coefficients=  1.0000000000D+00
 F 1 1.00
     Exponent=  1.4190000000D+00 Coefficients=  1.0000000000D+00
 F 1 1.00
     Exponent=  4.8500000000D-01 Coefficients=  1.0000000000D+00
 G 1 1.00
     Exponent=  1.0110000000D+00 Coefficients=  1.0000000000D+00
 ****
 Ernie: Thresh=  0.10000D-02 Tol=  0.10000D-05 Strict=F.
 There are   632 symmetry adapted cartesian basis functions of A'  symmetry.
 There are   304 symmetry adapted cartesian basis functions of A"  symmetry.
 There are   504 symmetry adapted basis functions of A'  symmetry.
 There are   264 symmetry adapted basis functions of A"  symmetry.
   768 basis functions,  1120 primitive gaussians,   936 cartesian basis functions
    28 alpha electrons       28 beta electrons
       nuclear repulsion energy       320.7236437306 Hartrees.
 IExCor= 4336 DFT=T Ex+Corr=M062X ExCW=0 ScaHFX=  0.540000
 ScaDFX=  1.000000  1.000000  1.000000  1.000000 ScalE2=  1.000000  1.000000
 IRadAn=      5 IRanWt=     -1 IRanGd=            0 ICorTp=0 IEmpDi=  4
 NAtoms=   16 NActive=   16 NUniq=   16 SFac= 1.00D+00 NAtFMM=   60 NAOKFM=F Big=F
 Integral buffers will be    131072 words long.
 Raffenetti 2 integral format.
 Two-electron integral symmetry is turned on.
 Leave Link  301 at Sat Apr 17 06:04:07 2021, MaxMem=   104857600 cpu:               7.0 elap:               0.2
 (Enter /s/ls4/users/knvvv/bin/g16sse/l302.exe)
 NPDir=0 NMtPBC=     1 NCelOv=     1 NCel=       1 NClECP=     1 NCelD=      1
         NCelK=      1 NCelE2=     1 NClLst=     1 CellRange=     0.0.
 One-electron integrals computed using PRISM.
 One-electron integral symmetry used in STVInt
 PrsmSu:  requested number of processors reduced to:   4 ShMem   1 Linda.
 PrsmSu:  requested number of processors reduced to:  18 ShMem   1 Linda.
 NBasis=   768 RedAO= T EigKep=  1.30D-06  NBF=   504   264
 NBsUse=   757 1.00D-06 EigRej=  8.59D-07 NBFU=   493   264
 Precomputing XC quadrature grid using
 IXCGrd= 4 IRadAn=           5 IRanWt=          -1 IRanGd=           0 AccXCQ= 0.00D+00.
 Generated NRdTot=       0 NPtTot=           0 NUsed=           0 NTot=          32
 NSgBfM=   933   933   933   933   933 MxSgAt=    16 MxSgA2=    16.
 Leave Link  302 at Sat Apr 17 06:04:26 2021, MaxMem=   104857600 cpu:             888.2 elap:              19.0
 (Enter /s/ls4/users/knvvv/bin/g16sse/l303.exe)
 DipDrv:  MaxL=1.
 Leave Link  303 at Sat Apr 17 06:04:34 2021, MaxMem=   104857600 cpu:             377.2 elap:               8.1
 (Enter /s/ls4/users/knvvv/bin/g16sse/l401.exe)
 SCF N**3 symmetry information disabled.
 ExpMin= 4.50D-02 ExpMax= 6.70D+04 ExpMxC= 6.47D+02 IAcc=3 IRadAn=         5 AccDes= 0.00D+00
 Harris functional with IExCor= 1009 and IRadAn=       5 diagonalized for initial guess.
 HarFok:  IExCor= 1009 AccDes= 0.00D+00 IRadAn=         5 IDoV= 1 UseB2=F ITyADJ=14
 ICtDFT=  3500011 ScaDFX=  1.000000  1.000000  1.000000  1.000000
 CalDSu:  requested number of processors reduced to:  46 ShMem   1 Linda.
 FoFCou: FMM=F IPFlag=           0 FMFlag=      100000 FMFlg1=           0
         NFxFlg=           0 DoJE=T BraDBF=F KetDBF=T FulRan=T
         wScrn=  0.000000 ICntrl=       500 IOpCl=  0 I1Cent=   200000004 NGrid=           0
         NMat0=    1 NMatS0=      1 NMatT0=    0 NMatD0=    1 NMtDS0=    0 NMtDT0=    0
 Petite list used in FoFCou.
 CoulSu:  requested number of processors reduced to:  16 ShMem   1 Linda.
 CoulSu:  requested number of processors reduced to:  17 ShMem   1 Linda.
 CoulSu:  requested number of processors reduced to:  21 ShMem   1 Linda.
 CoulSu:  requested number of processors reduced to:  21 ShMem   1 Linda.
 Harris En= -309.553288427199    
 JPrj=0 DoOrth=F DoCkMO=F.
 Initial guess orbital symmetries:
       Occupied  (A') (A') (A') (A') (A') (A') (A') (A') (A') (A')
                 (A') (A') (A') (A') (A') (A') (A') (A') (A') (A')
                 (A') (A') (A") (A') (A') (A") (A") (A")
       Virtual   (A") (A") (A") (A') (A') (A') (A") (A') (A') (A')
                 (A') (A') (A') (A") (A') (A') (A") (A") (A') (A')
                 (A') (A') (A") (A') (A') (A') (A") (A') (A") (A')
                 (A') (A') (A') (A') (A") (A') (A") (A') (A') (A")
                 (A') (A') (A') (A') (A") (A") (A') (A") (A') (A')
                 (A') (A") (A') (A') (A') (A') (A") (A") (A') (A')
                 (A') (A") (A') (A') (A') (A") (A') (A') (A") (A")
                 (A") (A') (A') (A") (A') (A') (A") (A') (A') (A')
                 (A") (A') (A") (A") (A') (A') (A') (A") (A') (A')
                 (A') (A") (A") (A') (A') (A') (A") (A') (A") (A')
                 (A") (A") (A') (A") (A') (A") (A') (A') (A") (A')
                 (A') (A') (A') (A') (A") (A') (A") (A') (A") (A')
                 (A') (A") (A') (A') (A') (A') (A') (A") (A") (A')
                 (A') (A") (A") (A') (A') (A') (A') (A") (A') (A")
                 (A') (A') (A") (A') (A") (A') (A') (A") (A') (A")
                 (A') (A') (A") (A') (A") (A') (A') (A") (A') (A")
                 (A') (A') (A') (A") (A') (A') (A") (A") (A') (A")
                 (A') (A") (A') (A') (A") (A') (A") (A') (A') (A')
                 (A") (A') (A') (A') (A') (A') (A") (A') (A') (A')
                 (A') (A") (A') (A') (A') (A') (A') (A') (A') (A')
                 (A') (A') (A') (A") (A') (A') (A") (A') (A') (A")
                 (A') (A') (A') (A") (A') (A") (A") (A') (A") (A')
                 (A') (A") (A') (A") (A') (A") (A') (A') (A") (A')
                 (A") (A') (A") (A') (A') (A") (A') (A') (A") (A")
                 (A') (A') (A") (A") (A') (A') (A") (A') (A") (A")
                 (A') (A") (A') (A') (A") (A') (A") (A") (A') (A")
                 (A') (A") (A') (A') (A') (A") (A") (A') (A') (A")
                 (A') (A') (A") (A') (A') (A") (A') (A') (A") (A')
                 (A") (A') (A") (A') (A") (A') (A") (A') (A") (A')
                 (A") (A") (A') (A") (A') (A') (A") (A') (A") (A')
                 (A') (A") (A') (A") (A") (A') (A') (A') (A") (A')
                 (A') (A") (A') (A') (A') (A') (A") (A') (A") (A')
                 (A') (A") (A') (A') (A') (A') (A') (A") (A') (A')
                 (A") (A') (A') (A') (A") (A') (A') (A') (A') (A")
                 (A") (A') (A") (A') (A') (A") (A') (A') (A') (A')
                 (A") (A') (A") (A') (A") (A') (A') (A") (A') (A')
                 (A') (A") (A") (A') (A') (A') (A") (A') (A') (A")
                 (A") (A') (A") (A') (A') (A") (A') (A") (A') (A')
                 (A") (A') (A') (A') (A") (A') (A') (A') (A') (A')
                 (A') (A') (A") (A') (A') (A') (A') (A') (A') (A')
                 (A') (A") (A') (A') (A') (A') (A") (A') (A") (A')
                 (A") (A') (A") (A') (A") (A") (A') (A") (A') (A')
                 (A") (A') (A") (A') (A') (A') (A") (A') (A") (A')
                 (A") (A') (A") (A") (A") (A') (A') (A") (A') (A")
                 (A") (A') (A') (A") (A") (A") (A') (A') (A") (A")
                 (A') (A") (A") (A") (A') (A") (A') (A') (A") (A")
                 (A') (A') (A") (A') (A") (A') (A') (A') (A') (A")
                 (A') (A") (A') (A") (A') (A") (A") (A") (A") (A')
                 (A') (A") (A') (A') (A") (A') (A") (A") (A") (A')
                 (A') (A') (A") (A') (A') (A') (A") (A') (A') (A")
                 (A') (A') (A") (A") (A') (A') (A') (A') (A') (A')
                 (A") (A") (A') (A") (A') (A') (A") (A') (A') (A")
                 (A') (A') (A") (A') (A') (A") (A') (A') (A") (A')
                 (A") (A') (A") (A') (A') (A") (A") (A') (A') (A")
                 (A') (A") (A') (A') (A") (A") (A') (A") (A") (A")
                 (A') (A') (A") (A') (A') (A') (A") (A") (A') (A')
                 (A") (A') (A') (A') (A") (A') (A') (A') (A") (A')
                 (A') (A') (A') (A") (A') (A') (A") (A') (A") (A")
                 (A') (A") (A") (A') (A') (A') (A") (A") (A') (A')
                 (A") (A') (A') (A") (A') (A') (A') (A') (A") (A")
                 (A') (A') (A") (A') (A') (A') (A") (A') (A") (A')
                 (A") (A') (A") (A") (A') (A') (A') (A") (A') (A")
                 (A') (A") (A') (A") (A') (A') (A") (A") (A') (A')
                 (A') (A") (A") (A') (A") (A') (A") (A') (A') (A")
                 (A') (A') (A') (A") (A") (A') (A") (A') (A") (A')
                 (A') (A") (A') (A") (A") (A') (A') (A') (A') (A")
                 (A") (A') (A') (A') (A') (A') (A') (A') (A') (A')
                 (A') (A') (A") (A') (A") (A') (A") (A') (A') (A')
                 (A') (A") (A') (A") (A") (A') (A') (A") (A') (A')
                 (A') (A') (A') (A") (A') (A') (A') (A') (A') (A')
                 (A') (A') (A') (A') (A') (A') (A') (A') (A') (A')
                 (A') (A') (A') (A') (A') (A') (A') (A') (A') (A')
                 (A') (A') (A') (A') (A') (A') (A') (A') (A')
 The electronic state of the initial guess is 1-A'.
 Leave Link  401 at Sat Apr 17 06:04:43 2021, MaxMem=   104857600 cpu:             428.4 elap:               9.4
 (Enter /s/ls4/users/knvvv/bin/g16sse/l502.exe)
 Integral symmetry usage will be decided dynamically.
 Closed shell SCF:
 Using DIIS extrapolation, IDIIS=  1040.
 NGot=   104857600 LenX=   103051276 LenY=   102174244
 Requested convergence on RMS density matrix=1.00D-08 within 128 cycles.
 Requested convergence on MAX density matrix=1.00D-06.
 Requested convergence on             energy=1.00D-06.
 No special actions if energy rises.
 Fock matrices will be formed incrementally for  20 cycles.

 Cycle   1  Pass 1  IDiag  1:
 FoFJK:  IHMeth= 1 ICntrl=       0 DoSepK=F KAlg= 0 I1Cent=           0 FoldK=F
 IRaf= 910000000 NMat=       1 IRICut=       1 DoRegI=T DoRafI=F ISym2E= 1 IDoP0=0 IntGTp=1.
 FoFCou: FMM=F IPFlag=           0 FMFlag=      100000 FMFlg1=           0
         NFxFlg=           0 DoJE=F BraDBF=F KetDBF=F FulRan=T
         wScrn=  0.000000 ICntrl=         0 IOpCl=  0 I1Cent=           0 NGrid=           0
         NMat0=    1 NMatS0=      1 NMatT0=    0 NMatD0=    1 NMtDS0=    0 NMtDT0=    0
 Petite list used in FoFCou.
 CoulSu:  requested number of processors reduced to:  18 ShMem   1 Linda.
 CalDSu:  requested number of processors reduced to:  46 ShMem   1 Linda.
 E= -309.402476445606    
 DIIS: error= 2.56D-02 at cycle   1 NSaved=   1.
 NSaved= 1 IEnMin= 1 EnMin= -309.402476445606     IErMin= 1 ErrMin= 2.56D-02
 ErrMax= 2.56D-02  0.00D+00 EMaxC= 1.00D-01 BMatC= 3.79D-01 BMatP= 3.79D-01
 IDIUse=3 WtCom= 7.44D-01 WtEn= 2.56D-01
 Coeff-Com:  0.100D+01
 Coeff-En:   0.100D+01
 Coeff:      0.100D+01
 Gap=     0.268 Goal=   None    Shift=    0.000
 GapD=    0.268 DampG=1.000 DampE=0.500 DampFc=0.5000 IDamp=-1.
 Damping current iteration by 5.00D-01
 RMSDP=2.09D-03 MaxDP=2.18D-01              OVMax= 1.56D-01

 Cycle   2  Pass 1  IDiag  1:
 RMSU=  8.71D-04    CP:  8.60D-01
 CoulSu:  requested number of processors reduced to:  18 ShMem   1 Linda.
 CalDSu:  requested number of processors reduced to:  46 ShMem   1 Linda.
 E= -309.528743847934     Delta-E=       -0.126267402328 Rises=F Damp=T
 DIIS: error= 1.31D-02 at cycle   2 NSaved=   2.
 NSaved= 2 IEnMin= 2 EnMin= -309.528743847934     IErMin= 2 ErrMin= 1.31D-02
 ErrMax= 1.31D-02  0.00D+00 EMaxC= 1.00D-01 BMatC= 4.66D-02 BMatP= 3.79D-01
 IDIUse=3 WtCom= 8.69D-01 WtEn= 1.31D-01
 Coeff-Com: -0.286D+00 0.129D+01
 Coeff-En:   0.000D+00 0.100D+01
 Coeff:     -0.249D+00 0.125D+01
 Gap=     0.307 Goal=   None    Shift=    0.000
 RMSDP=1.59D-03 MaxDP=9.13D-02 DE=-1.26D-01 OVMax= 8.09D-02

 Cycle   3  Pass 1  IDiag  1:
 RMSU=  1.46D-03    CP:  7.48D-01  1.48D+00
 CoulSu:  requested number of processors reduced to:  18 ShMem   1 Linda.
 CalDSu:  requested number of processors reduced to:  46 ShMem   1 Linda.
 E= -309.639835017904     Delta-E=       -0.111091169970 Rises=F Damp=F
 DIIS: error= 6.42D-03 at cycle   3 NSaved=   3.
 NSaved= 3 IEnMin= 3 EnMin= -309.639835017904     IErMin= 3 ErrMin= 6.42D-03
 ErrMax= 6.42D-03  0.00D+00 EMaxC= 1.00D-01 BMatC= 5.26D-03 BMatP= 4.66D-02
 IDIUse=3 WtCom= 9.36D-01 WtEn= 6.42D-02
 Coeff-Com: -0.143D+00 0.355D+00 0.788D+00
 Coeff-En:   0.000D+00 0.000D+00 0.100D+01
 Coeff:     -0.134D+00 0.333D+00 0.801D+00
 Gap=     0.267 Goal=   None    Shift=    0.000
 RMSDP=2.25D-04 MaxDP=2.83D-02 DE=-1.11D-01 OVMax= 1.66D-02

 Cycle   4  Pass 1  IDiag  1:
 RMSU=  1.64D-04    CP:  7.25D-01  1.54D+00  9.24D-01
 CoulSu:  requested number of processors reduced to:  18 ShMem   1 Linda.
 CalDSu:  requested number of processors reduced to:  46 ShMem   1 Linda.
 E= -309.644620878729     Delta-E=       -0.004785860824 Rises=F Damp=F
 DIIS: error= 1.39D-03 at cycle   4 NSaved=   4.
 NSaved= 4 IEnMin= 4 EnMin= -309.644620878729     IErMin= 4 ErrMin= 1.39D-03
 ErrMax= 1.39D-03  0.00D+00 EMaxC= 1.00D-01 BMatC= 3.89D-04 BMatP= 5.26D-03
 IDIUse=3 WtCom= 9.86D-01 WtEn= 1.39D-02
 Coeff-Com: -0.434D-01 0.981D-01 0.307D+00 0.639D+00
 Coeff-En:   0.000D+00 0.000D+00 0.000D+00 0.100D+01
 Coeff:     -0.428D-01 0.967D-01 0.302D+00 0.644D+00
 Gap=     0.267 Goal=   None    Shift=    0.000
 RMSDP=7.25D-05 MaxDP=8.08D-03 DE=-4.79D-03 OVMax= 7.55D-03

 Cycle   5  Pass 1  IDiag  1:
 RMSU=  5.53D-05    CP:  7.21D-01  1.54D+00  9.00D-01  1.15D+00
 CoulSu:  requested number of processors reduced to:  18 ShMem   1 Linda.
 CalDSu:  requested number of processors reduced to:  46 ShMem   1 Linda.
 E= -309.644961756375     Delta-E=       -0.000340877647 Rises=F Damp=F
 DIIS: error= 2.53D-04 at cycle   5 NSaved=   5.
 NSaved= 5 IEnMin= 5 EnMin= -309.644961756375     IErMin= 5 ErrMin= 2.53D-04
 ErrMax= 2.53D-04  0.00D+00 EMaxC= 1.00D-01 BMatC= 3.19D-05 BMatP= 3.89D-04
 IDIUse=3 WtCom= 9.97D-01 WtEn= 2.53D-03
 Coeff-Com: -0.809D-02 0.174D-01 0.728D-01 0.276D+00 0.642D+00
 Coeff-En:   0.000D+00 0.000D+00 0.000D+00 0.000D+00 0.100D+01
 Coeff:     -0.807D-02 0.174D-01 0.726D-01 0.275D+00 0.643D+00
 Gap=     0.267 Goal=   None    Shift=    0.000
 RMSDP=2.42D-05 MaxDP=3.12D-03 DE=-3.41D-04 OVMax= 2.34D-03

 Cycle   6  Pass 1  IDiag  1:
 RMSU=  1.39D-05    CP:  7.20D-01  1.54D+00  8.92D-01  1.24D+00  1.11D+00
 CoulSu:  requested number of processors reduced to:  18 ShMem   1 Linda.
 CalDSu:  requested number of processors reduced to:  46 ShMem   1 Linda.
 E= -309.644993189051     Delta-E=       -0.000031432676 Rises=F Damp=F
 DIIS: error= 6.68D-05 at cycle   6 NSaved=   6.
 NSaved= 6 IEnMin= 6 EnMin= -309.644993189051     IErMin= 6 ErrMin= 6.68D-05
 ErrMax= 6.68D-05  0.00D+00 EMaxC= 1.00D-01 BMatC= 1.57D-06 BMatP= 3.19D-05
 IDIUse=1 WtCom= 1.00D+00 WtEn= 0.00D+00
 Coeff-Com:  0.114D-02-0.261D-02-0.181D-02 0.406D-01 0.207D+00 0.756D+00
 Coeff:      0.114D-02-0.261D-02-0.181D-02 0.406D-01 0.207D+00 0.756D+00
 Gap=     0.267 Goal=   None    Shift=    0.000
 RMSDP=7.06D-06 MaxDP=9.49D-04 DE=-3.14D-05 OVMax= 6.22D-04

 Cycle   7  Pass 1  IDiag  1:
 RMSU=  2.95D-06    CP:  7.20D-01  1.54D+00  8.90D-01  1.27D+00  1.16D+00
                    CP:  1.10D+00
 CoulSu:  requested number of processors reduced to:  18 ShMem   1 Linda.
 CalDSu:  requested number of processors reduced to:  46 ShMem   1 Linda.
 E= -309.644994465667     Delta-E=       -0.000001276616 Rises=F Damp=F
 DIIS: error= 3.60D-05 at cycle   7 NSaved=   7.
 NSaved= 7 IEnMin= 7 EnMin= -309.644994465667     IErMin= 7 ErrMin= 3.60D-05
 ErrMax= 3.60D-05  0.00D+00 EMaxC= 1.00D-01 BMatC= 4.17D-07 BMatP= 1.57D-06
 IDIUse=1 WtCom= 1.00D+00 WtEn= 0.00D+00
 Coeff-Com:  0.160D-02-0.354D-02-0.102D-01-0.141D-01 0.225D-01 0.384D+00
 Coeff-Com:  0.619D+00
 Coeff:      0.160D-02-0.354D-02-0.102D-01-0.141D-01 0.225D-01 0.384D+00
 Coeff:      0.619D+00
 Gap=     0.267 Goal=   None    Shift=    0.000
 RMSDP=1.55D-06 MaxDP=1.49D-04 DE=-1.28D-06 OVMax= 2.33D-04

 Cycle   8  Pass 1  IDiag  1:
 RMSU=  1.28D-06    CP:  7.20D-01  1.54D+00  8.90D-01  1.27D+00  1.17D+00
                    CP:  1.09D+00  1.06D+00
 CoulSu:  requested number of processors reduced to:  18 ShMem   1 Linda.
 CalDSu:  requested number of processors reduced to:  46 ShMem   1 Linda.
 E= -309.644994901703     Delta-E=       -0.000000436036 Rises=F Damp=F
 DIIS: error= 6.27D-06 at cycle   8 NSaved=   8.
 NSaved= 8 IEnMin= 8 EnMin= -309.644994901703     IErMin= 8 ErrMin= 6.27D-06
 ErrMax= 6.27D-06  0.00D+00 EMaxC= 1.00D-01 BMatC= 9.06D-09 BMatP= 4.17D-07
 IDIUse=1 WtCom= 1.00D+00 WtEn= 0.00D+00
 Coeff-Com:  0.216D-03-0.516D-03-0.178D-02-0.409D-02-0.442D-02 0.428D-01
 Coeff-Com:  0.140D+00 0.828D+00
 Coeff:      0.216D-03-0.516D-03-0.178D-02-0.409D-02-0.442D-02 0.428D-01
 Coeff:      0.140D+00 0.828D+00
 Gap=     0.267 Goal=   None    Shift=    0.000
 RMSDP=9.35D-07 MaxDP=1.30D-04 DE=-4.36D-07 OVMax= 5.47D-05

 Cycle   9  Pass 1  IDiag  1:
 RMSU=  3.86D-07    CP:  7.20D-01  1.54D+00  8.91D-01  1.27D+00  1.17D+00
                    CP:  1.08D+00  1.12D+00  1.18D+00
 CoulSu:  requested number of processors reduced to:  18 ShMem   1 Linda.
 CalDSu:  requested number of processors reduced to:  46 ShMem   1 Linda.
 E= -309.644994909927     Delta-E=       -0.000000008224 Rises=F Damp=F
 DIIS: error= 4.43D-06 at cycle   9 NSaved=   9.
 NSaved= 9 IEnMin= 9 EnMin= -309.644994909927     IErMin= 9 ErrMin= 4.43D-06
 ErrMax= 4.43D-06  0.00D+00 EMaxC= 1.00D-01 BMatC= 3.74D-09 BMatP= 9.06D-09
 IDIUse=1 WtCom= 1.00D+00 WtEn= 0.00D+00
 Coeff-Com: -0.805D-04 0.153D-03 0.262D-03-0.448D-03-0.465D-02-0.206D-01
 Coeff-Com:  0.197D-02 0.428D+00 0.595D+00
 Coeff:     -0.805D-04 0.153D-03 0.262D-03-0.448D-03-0.465D-02-0.206D-01
 Coeff:      0.197D-02 0.428D+00 0.595D+00
 Gap=     0.267 Goal=   None    Shift=    0.000
 RMSDP=2.46D-07 MaxDP=3.19D-05 DE=-8.22D-09 OVMax= 3.44D-05

 Cycle  10  Pass 1  IDiag  1:
 RMSU=  9.12D-08    CP:  7.20D-01  1.54D+00  8.91D-01  1.27D+00  1.17D+00
                    CP:  1.07D+00  1.13D+00  1.25D+00  1.20D+00
 CoulSu:  requested number of processors reduced to:  18 ShMem   1 Linda.
 CalDSu:  requested number of processors reduced to:  46 ShMem   1 Linda.
 E= -309.644994913849     Delta-E=       -0.000000003922 Rises=F Damp=F
 DIIS: error= 6.81D-07 at cycle  10 NSaved=  10.
 NSaved=10 IEnMin=10 EnMin= -309.644994913849     IErMin=10 ErrMin= 6.81D-07
 ErrMax= 6.81D-07  0.00D+00 EMaxC= 1.00D-01 BMatC= 1.11D-10 BMatP= 3.74D-09
 IDIUse=1 WtCom= 1.00D+00 WtEn= 0.00D+00
 Coeff-Com: -0.290D-04 0.620D-04 0.144D-03 0.488D-04-0.951D-03-0.783D-02
 Coeff-Com: -0.112D-01 0.267D-01 0.150D+00 0.843D+00
 Coeff:     -0.290D-04 0.620D-04 0.144D-03 0.488D-04-0.951D-03-0.783D-02
 Coeff:     -0.112D-01 0.267D-01 0.150D+00 0.843D+00
 Gap=     0.267 Goal=   None    Shift=    0.000
 RMSDP=6.03D-08 MaxDP=6.99D-06 DE=-3.92D-09 OVMax= 7.80D-06

 Cycle  11  Pass 1  IDiag  1:
 RMSU=  3.61D-08    CP:  7.20D-01  1.54D+00  8.91D-01  1.27D+00  1.17D+00
                    CP:  1.07D+00  1.13D+00  1.26D+00  1.28D+00  1.23D+00
 CoulSu:  requested number of processors reduced to:  18 ShMem   1 Linda.
 CalDSu:  requested number of processors reduced to:  46 ShMem   1 Linda.
 E= -309.644994914016     Delta-E=       -0.000000000167 Rises=F Damp=F
 DIIS: error= 2.79D-07 at cycle  11 NSaved=  11.
 NSaved=11 IEnMin=11 EnMin= -309.644994914016     IErMin=11 ErrMin= 2.79D-07
 ErrMax= 2.79D-07  0.00D+00 EMaxC= 1.00D-01 BMatC= 2.73D-11 BMatP= 1.11D-10
 IDIUse=1 WtCom= 1.00D+00 WtEn= 0.00D+00
 Coeff-Com: -0.629D-05 0.156D-04 0.388D-04 0.340D-04-0.116D-03-0.191D-02
 Coeff-Com: -0.552D-02-0.250D-01 0.261D-01 0.402D+00 0.604D+00
 Coeff:     -0.629D-05 0.156D-04 0.388D-04 0.340D-04-0.116D-03-0.191D-02
 Coeff:     -0.552D-02-0.250D-01 0.261D-01 0.402D+00 0.604D+00
 Gap=     0.267 Goal=   None    Shift=    0.000
 RMSDP=1.66D-08 MaxDP=1.61D-06 DE=-1.67D-10 OVMax= 2.55D-06

 Cycle  12  Pass 1  IDiag  1:
 RMSU=  8.20D-09    CP:  7.20D-01  1.54D+00  8.91D-01  1.27D+00  1.17D+00
                    CP:  1.07D+00  1.13D+00  1.27D+00  1.30D+00  1.30D+00
                    CP:  1.22D+00
 CoulSu:  requested number of processors reduced to:  18 ShMem   1 Linda.
 CalDSu:  requested number of processors reduced to:  46 ShMem   1 Linda.
 E= -309.644994914061     Delta-E=       -0.000000000045 Rises=F Damp=F
 DIIS: error= 1.21D-07 at cycle  12 NSaved=  12.
 NSaved=12 IEnMin=12 EnMin= -309.644994914061     IErMin=12 ErrMin= 1.21D-07
 ErrMax= 1.21D-07  0.00D+00 EMaxC= 1.00D-01 BMatC= 1.19D-12 BMatP= 2.73D-11
 IDIUse=1 WtCom= 1.00D+00 WtEn= 0.00D+00
 Coeff-Com:  0.253D-05-0.486D-05-0.109D-04-0.522D-05 0.543D-04 0.585D-03
 Coeff-Com:  0.246D-03-0.852D-02-0.826D-02-0.255D-01 0.117D+00 0.924D+00
 Coeff:      0.253D-05-0.486D-05-0.109D-04-0.522D-05 0.543D-04 0.585D-03
 Coeff:      0.246D-03-0.852D-02-0.826D-02-0.255D-01 0.117D+00 0.924D+00
 Gap=     0.267 Goal=   None    Shift=    0.000
 RMSDP=8.95D-09 MaxDP=7.99D-07 DE=-4.54D-11 OVMax= 1.07D-06

 SCF Done:  E(RM062X) =  -309.644994914     A.U. after   12 cycles
            NFock= 12  Conv=0.90D-08     -V/T= 2.0046
 KE= 3.082400372201D+02 PE=-1.359032447365D+03 EE= 4.204237715004D+02
 Leave Link  502 at Sat Apr 17 06:22:23 2021, MaxMem=   104857600 cpu:           28894.8 elap:            1059.9
 (Enter /s/ls4/users/knvvv/bin/g16sse/l601.exe)
 Copying SCF densities to generalized density rwf, IOpCl= 0 IROHF=0.

 **********************************************************************

            Population analysis using the SCF density.

 **********************************************************************

 Orbital symmetries:
       Occupied  (A') (A') (A') (A') (A') (A') (A') (A') (A') (A')
                 (A') (A') (A') (A') (A') (A') (A') (A') (A') (A')
                 (A') (A") (A') (A') (A') (A") (A") (A")
       Virtual   (A") (A') (A") (A') (A') (A') (A') (A') (A') (A")
                 (A') (A") (A') (A') (A") (A') (A") (A') (A') (A")
                 (A') (A") (A') (A') (A") (A') (A') (A') (A') (A")
                 (A') (A') (A') (A") (A") (A') (A') (A") (A') (A")
                 (A') (A') (A') (A") (A") (A') (A') (A") (A') (A')
                 (A") (A') (A") (A') (A') (A') (A") (A') (A') (A")
                 (A') (A') (A') (A") (A') (A") (A') (A') (A") (A")
                 (A') (A') (A') (A") (A') (A') (A") (A') (A') (A")
                 (A') (A') (A") (A') (A') (A") (A') (A') (A') (A")
                 (A') (A") (A') (A') (A") (A') (A") (A') (A') (A")
                 (A') (A') (A") (A') (A') (A') (A") (A") (A') (A')
                 (A') (A") (A') (A') (A') (A') (A') (A") (A') (A")
                 (A') (A') (A") (A') (A") (A") (A') (A') (A") (A')
                 (A') (A') (A") (A') (A") (A') (A') (A") (A') (A')
                 (A") (A') (A") (A') (A') (A') (A") (A') (A") (A')
                 (A") (A') (A') (A") (A') (A") (A') (A") (A') (A")
                 (A') (A') (A') (A") (A') (A") (A') (A") (A") (A')
                 (A') (A") (A') (A') (A") (A') (A') (A") (A') (A')
                 (A") (A') (A') (A') (A') (A') (A') (A") (A') (A')
                 (A') (A") (A') (A') (A') (A') (A') (A') (A') (A')
                 (A') (A") (A') (A') (A') (A') (A') (A') (A") (A')
                 (A") (A') (A') (A') (A') (A") (A") (A') (A") (A')
                 (A") (A") (A') (A') (A") (A') (A') (A") (A") (A')
                 (A') (A') (A") (A") (A') (A') (A') (A") (A") (A")
                 (A') (A') (A") (A') (A") (A") (A') (A') (A") (A")
                 (A') (A") (A') (A") (A') (A') (A") (A") (A') (A")
                 (A') (A") (A') (A') (A") (A') (A") (A') (A') (A')
                 (A") (A') (A") (A') (A') (A") (A') (A') (A") (A')
                 (A") (A') (A') (A") (A') (A") (A') (A") (A') (A")
                 (A") (A') (A') (A") (A') (A") (A") (A') (A') (A")
                 (A') (A') (A') (A") (A") (A") (A') (A') (A') (A")
                 (A') (A") (A') (A') (A') (A") (A') (A') (A") (A')
                 (A") (A') (A') (A') (A') (A') (A') (A') (A") (A')
                 (A') (A") (A') (A') (A") (A') (A') (A') (A') (A")
                 (A') (A") (A") (A') (A') (A") (A') (A') (A') (A')
                 (A") (A') (A') (A") (A') (A') (A") (A') (A") (A')
                 (A') (A') (A') (A') (A") (A") (A') (A") (A') (A")
                 (A") (A') (A") (A') (A') (A") (A') (A") (A') (A")
                 (A') (A') (A') (A') (A') (A") (A') (A') (A') (A')
                 (A') (A') (A") (A') (A') (A') (A') (A') (A') (A')
                 (A') (A") (A') (A') (A') (A") (A') (A') (A") (A')
                 (A") (A') (A") (A') (A") (A") (A") (A') (A') (A')
                 (A") (A") (A') (A') (A") (A') (A') (A") (A') (A')
                 (A") (A") (A') (A") (A") (A') (A') (A") (A") (A')
                 (A") (A') (A") (A') (A") (A") (A') (A") (A') (A")
                 (A') (A") (A") (A') (A") (A") (A') (A') (A") (A")
                 (A') (A') (A') (A") (A') (A") (A') (A') (A") (A")
                 (A') (A") (A") (A") (A') (A") (A") (A') (A') (A')
                 (A") (A') (A') (A") (A') (A") (A') (A") (A') (A")
                 (A') (A') (A") (A') (A') (A') (A") (A') (A') (A")
                 (A") (A') (A') (A') (A") (A') (A') (A') (A') (A')
                 (A") (A") (A') (A") (A') (A') (A") (A') (A') (A")
                 (A') (A") (A') (A') (A') (A') (A") (A') (A') (A")
                 (A') (A') (A") (A') (A") (A") (A") (A') (A') (A")
                 (A') (A") (A') (A") (A') (A") (A") (A') (A") (A")
                 (A') (A') (A") (A') (A") (A') (A") (A') (A') (A")
                 (A') (A') (A") (A') (A') (A") (A') (A') (A') (A')
                 (A") (A") (A') (A') (A") (A") (A') (A") (A") (A')
                 (A') (A') (A') (A") (A') (A') (A") (A') (A") (A')
                 (A') (A') (A") (A') (A') (A') (A") (A') (A") (A')
                 (A") (A') (A') (A') (A') (A") (A") (A') (A") (A')
                 (A") (A') (A") (A') (A') (A') (A") (A') (A') (A")
                 (A') (A") (A') (A") (A') (A') (A") (A') (A") (A')
                 (A") (A") (A') (A") (A') (A") (A') (A") (A') (A')
                 (A') (A") (A') (A') (A") (A') (A") (A') (A") (A')
                 (A') (A") (A") (A') (A") (A') (A') (A') (A") (A")
                 (A') (A') (A') (A') (A') (A') (A') (A') (A') (A')
                 (A') (A") (A') (A") (A") (A') (A') (A') (A') (A")
                 (A') (A") (A') (A') (A") (A") (A') (A') (A') (A')
                 (A") (A') (A') (A') (A') (A') (A') (A') (A') (A')
                 (A') (A') (A') (A') (A') (A') (A') (A') (A') (A')
                 (A') (A') (A') (A') (A') (A') (A') (A') (A') (A')
                 (A') (A') (A') (A') (A') (A') (A') (A') (A')
 The electronic state is 1-A'.
 Alpha  occ. eigenvalues --  -10.55791 -10.55134 -10.54869 -10.54843 -10.54792
 Alpha  occ. eigenvalues --  -10.54759 -10.54719 -10.53986  -0.96930  -0.89372
 Alpha  occ. eigenvalues --   -0.84727  -0.82368  -0.71242  -0.69095  -0.64199
 Alpha  occ. eigenvalues --   -0.59317  -0.54888  -0.52798  -0.51035  -0.48961
 Alpha  occ. eigenvalues --   -0.47892  -0.45251  -0.43556  -0.40525  -0.39871
 Alpha  occ. eigenvalues --   -0.36830  -0.31259  -0.28211
 Alpha virt. eigenvalues --   -0.01502   0.00991   0.01714   0.02232   0.02385
 Alpha virt. eigenvalues --    0.04122   0.04312   0.05789   0.07117   0.07500
 Alpha virt. eigenvalues --    0.07798   0.10927   0.11281   0.13270   0.13347
 Alpha virt. eigenvalues --    0.13885   0.14531   0.14605   0.15466   0.16698
 Alpha virt. eigenvalues --    0.17497   0.17904   0.18040   0.18555   0.18778
 Alpha virt. eigenvalues --    0.19442   0.19706   0.20111   0.20586   0.20717
 Alpha virt. eigenvalues --    0.21588   0.22194   0.22514   0.22727   0.22859
 Alpha virt. eigenvalues --    0.23133   0.24489   0.24703   0.24884   0.25705
 Alpha virt. eigenvalues --    0.26154   0.26815   0.27221   0.27543   0.28032
 Alpha virt. eigenvalues --    0.28768   0.29053   0.29681   0.29988   0.30956
 Alpha virt. eigenvalues --    0.31234   0.31365   0.32113   0.32465   0.34178
 Alpha virt. eigenvalues --    0.34476   0.34713   0.35611   0.35833   0.36381
 Alpha virt. eigenvalues --    0.36562   0.36783   0.37823   0.38008   0.38261
 Alpha virt. eigenvalues --    0.39692   0.39731   0.40441   0.40861   0.41783
 Alpha virt. eigenvalues --    0.42052   0.42446   0.43099   0.43700   0.44243
 Alpha virt. eigenvalues --    0.44737   0.45390   0.45450   0.46203   0.46615
 Alpha virt. eigenvalues --    0.46859   0.47723   0.47844   0.48717   0.49966
 Alpha virt. eigenvalues --    0.50597   0.51198   0.51720   0.51906   0.52164
 Alpha virt. eigenvalues --    0.52701   0.52897   0.54389   0.54574   0.55019
 Alpha virt. eigenvalues --    0.56185   0.56400   0.56767   0.57236   0.57674
 Alpha virt. eigenvalues --    0.57726   0.58656   0.58884   0.59888   0.60936
 Alpha virt. eigenvalues --    0.61651   0.61739   0.62314   0.63012   0.63734
 Alpha virt. eigenvalues --    0.64576   0.65875   0.66652   0.68761   0.69693
 Alpha virt. eigenvalues --    0.71053   0.71395   0.71717   0.72543   0.73180
 Alpha virt. eigenvalues --    0.74230   0.74528   0.74793   0.76662   0.76838
 Alpha virt. eigenvalues --    0.78419   0.78591   0.78808   0.80132   0.80576
 Alpha virt. eigenvalues --    0.81335   0.82946   0.84807   0.85283   0.85930
 Alpha virt. eigenvalues --    0.86443   0.87591   0.88661   0.88783   0.91081
 Alpha virt. eigenvalues --    0.91349   0.91721   0.92322   0.92633   0.94568
 Alpha virt. eigenvalues --    0.95139   0.95800   0.95866   0.96055   0.96835
 Alpha virt. eigenvalues --    0.97532   0.98438   0.98907   0.99152   1.00975
 Alpha virt. eigenvalues --    1.01610   1.04930   1.05256   1.05570   1.05805
 Alpha virt. eigenvalues --    1.08089   1.09076   1.10510   1.11907   1.12478
 Alpha virt. eigenvalues --    1.12599   1.13095   1.13643   1.16473   1.16868
 Alpha virt. eigenvalues --    1.18809   1.19385   1.19494   1.21372   1.21624
 Alpha virt. eigenvalues --    1.22530   1.23321   1.24090   1.24930   1.26017
 Alpha virt. eigenvalues --    1.27163   1.28628   1.30055   1.31845   1.33086
 Alpha virt. eigenvalues --    1.34515   1.35618   1.36202   1.36596   1.37927
 Alpha virt. eigenvalues --    1.38833   1.39807   1.40362   1.41259   1.44625
 Alpha virt. eigenvalues --    1.44728   1.48568   1.49418   1.50693   1.53363
 Alpha virt. eigenvalues --    1.55047   1.59416   1.60219   1.61436   1.62058
 Alpha virt. eigenvalues --    1.65401   1.68568   1.69921   1.70916   1.72803
 Alpha virt. eigenvalues --    1.74188   1.74281   1.77512   1.79923   1.80586
 Alpha virt. eigenvalues --    1.80724   1.82298   1.83894   1.84575   1.84851
 Alpha virt. eigenvalues --    1.85358   1.88909   1.89121   1.90616   1.91821
 Alpha virt. eigenvalues --    1.92638   1.93282   1.94222   1.96716   1.97172
 Alpha virt. eigenvalues --    1.97675   1.98604   1.98904   2.00004   2.00378
 Alpha virt. eigenvalues --    2.01487   2.02000   2.03053   2.03740   2.04800
 Alpha virt. eigenvalues --    2.05191   2.07118   2.07253   2.08640   2.08667
 Alpha virt. eigenvalues --    2.10726   2.11240   2.11609   2.12821   2.14353
 Alpha virt. eigenvalues --    2.15300   2.16069   2.17626   2.18997   2.19207
 Alpha virt. eigenvalues --    2.19751   2.20206   2.23155   2.23589   2.24166
 Alpha virt. eigenvalues --    2.24265   2.25628   2.26797   2.28246   2.30514
 Alpha virt. eigenvalues --    2.31022   2.32699   2.32801   2.33541   2.35456
 Alpha virt. eigenvalues --    2.35725   2.36161   2.39002   2.40983   2.41448
 Alpha virt. eigenvalues --    2.42380   2.43598   2.46944   2.48992   2.50845
 Alpha virt. eigenvalues --    2.51367   2.53839   2.55120   2.55708   2.56460
 Alpha virt. eigenvalues --    2.56745   2.57953   2.58190   2.58936   2.59618
 Alpha virt. eigenvalues --    2.60596   2.62140   2.62447   2.63097   2.64305
 Alpha virt. eigenvalues --    2.65601   2.65926   2.66521   2.67280   2.68795
 Alpha virt. eigenvalues --    2.69365   2.71023   2.72280   2.72807   2.73443
 Alpha virt. eigenvalues --    2.74844   2.75245   2.75848   2.77235   2.77698
 Alpha virt. eigenvalues --    2.79647   2.79842   2.80100   2.80748   2.81537
 Alpha virt. eigenvalues --    2.82232   2.82884   2.83804   2.84053   2.85336
 Alpha virt. eigenvalues --    2.86924   2.87910   2.88128   2.89689   2.91826
 Alpha virt. eigenvalues --    2.93598   2.95478   2.97410   2.98323   3.00729
 Alpha virt. eigenvalues --    3.02034   3.02055   3.05490   3.06363   3.09460
 Alpha virt. eigenvalues --    3.10340   3.11647   3.14487   3.18278   3.19756
 Alpha virt. eigenvalues --    3.21520   3.22779   3.25065   3.26565   3.30744
 Alpha virt. eigenvalues --    3.30817   3.31944   3.33609   3.39466   3.40466
 Alpha virt. eigenvalues --    3.41003   3.41272   3.42578   3.44520   3.45547
 Alpha virt. eigenvalues --    3.47204   3.47293   3.49302   3.49905   3.50469
 Alpha virt. eigenvalues --    3.51225   3.55154   3.55575   3.55863   3.59774
 Alpha virt. eigenvalues --    3.60142   3.60599   3.61913   3.63264   3.67130
 Alpha virt. eigenvalues --    3.70266   3.72693   3.74879   3.78191   3.84721
 Alpha virt. eigenvalues --    3.86059   3.89113   3.92271   3.93021   3.93810
 Alpha virt. eigenvalues --    3.95082   3.96879   4.03620   4.04912   4.08286
 Alpha virt. eigenvalues --    4.09516   4.10273   4.13897   4.17907   4.22039
 Alpha virt. eigenvalues --    4.23938   4.29211   4.30742   4.32020   4.38484
 Alpha virt. eigenvalues --    4.41965   4.50704   4.54456   4.55690   4.58330
 Alpha virt. eigenvalues --    4.61912   4.67842   4.70673   4.73914   4.77598
 Alpha virt. eigenvalues --    4.81975   4.82787   4.84869   4.85111   4.95303
 Alpha virt. eigenvalues --    4.96269   4.98078   5.00783   5.01725   5.01935
 Alpha virt. eigenvalues --    5.03722   5.05240   5.05374   5.08111   5.08642
 Alpha virt. eigenvalues --    5.09490   5.12366   5.14395   5.17614   5.19793
 Alpha virt. eigenvalues --    5.19884   5.21038   5.22083   5.25497   5.26074
 Alpha virt. eigenvalues --    5.27709   5.30512   5.31063   5.34607   5.36155
 Alpha virt. eigenvalues --    5.36806   5.38535   5.40576   5.42604   5.44686
 Alpha virt. eigenvalues --    5.44952   5.45715   5.47860   5.48152   5.49881
 Alpha virt. eigenvalues --    5.52600   5.53234   5.54624   5.54979   5.58234
 Alpha virt. eigenvalues --    5.59248   5.60314   5.64942   5.67947   5.68341
 Alpha virt. eigenvalues --    5.68865   5.69985   5.73758   5.75923   5.76411
 Alpha virt. eigenvalues --    5.78038   5.79043   5.81215   5.81643   5.83537
 Alpha virt. eigenvalues --    5.84679   5.85256   5.87907   5.88938   5.89428
 Alpha virt. eigenvalues --    5.89491   5.90665   5.91542   5.92653   5.93652
 Alpha virt. eigenvalues --    5.94350   5.95643   5.96179   5.97148   5.99730
 Alpha virt. eigenvalues --    6.01468   6.02838   6.04317   6.04959   6.06397
 Alpha virt. eigenvalues --    6.06438   6.09411   6.09691   6.10308   6.10788
 Alpha virt. eigenvalues --    6.12722   6.13278   6.15037   6.16065   6.16810
 Alpha virt. eigenvalues --    6.18842   6.18948   6.20937   6.21575   6.22617
 Alpha virt. eigenvalues --    6.23926   6.24605   6.26109   6.26335   6.27223
 Alpha virt. eigenvalues --    6.28395   6.30328   6.31655   6.31891   6.34544
 Alpha virt. eigenvalues --    6.36568   6.37269   6.37365   6.38677   6.39759
 Alpha virt. eigenvalues --    6.40271   6.42756   6.43447   6.43668   6.47296
 Alpha virt. eigenvalues --    6.47759   6.50742   6.52472   6.53219   6.54058
 Alpha virt. eigenvalues --    6.54662   6.55526   6.56848   6.58958   6.59998
 Alpha virt. eigenvalues --    6.61243   6.61636   6.62204   6.63475   6.64298
 Alpha virt. eigenvalues --    6.67362   6.67943   6.67990   6.68537   6.71818
 Alpha virt. eigenvalues --    6.75640   6.77352   6.79211   6.80436   6.80531
 Alpha virt. eigenvalues --    6.85302   6.85563   6.86261   6.88085   6.91785
 Alpha virt. eigenvalues --    6.91935   6.94293   6.97636   7.01940   7.03461
 Alpha virt. eigenvalues --    7.04363   7.05504   7.06420   7.09799   7.09834
 Alpha virt. eigenvalues --    7.14874   7.20097   7.22208   7.23652   7.26645
 Alpha virt. eigenvalues --    7.26649   7.29740   7.30114   7.32716   7.34323
 Alpha virt. eigenvalues --    7.34976   7.37411   7.37959   7.38886   7.41114
 Alpha virt. eigenvalues --    7.41181   7.41734   7.42405   7.43433   7.44855
 Alpha virt. eigenvalues --    7.45404   7.48150   7.51388   7.54106   7.54489
 Alpha virt. eigenvalues --    7.55768   7.56692   7.57497   7.59167   7.60894
 Alpha virt. eigenvalues --    7.63268   7.66461   7.69138   7.71069   7.72980
 Alpha virt. eigenvalues --    7.75499   7.75844   7.78890   7.79189   7.81296
 Alpha virt. eigenvalues --    7.82556   7.84250   7.87650   7.88801   7.91313
 Alpha virt. eigenvalues --    7.92849   7.93484   7.96846   7.97571   7.97932
 Alpha virt. eigenvalues --    7.98771   7.99960   8.01446   8.02023   8.03801
 Alpha virt. eigenvalues --    8.06726   8.07085   8.08007   8.10399   8.10903
 Alpha virt. eigenvalues --    8.12786   8.13217   8.14404   8.14909   8.15338
 Alpha virt. eigenvalues --    8.18599   8.19479   8.20949   8.22260   8.24226
 Alpha virt. eigenvalues --    8.24260   8.28009   8.28569   8.28985   8.29548
 Alpha virt. eigenvalues --    8.31534   8.32697   8.33572   8.37140   8.38183
 Alpha virt. eigenvalues --    8.39248   8.39957   8.44765   8.47384   8.47447
 Alpha virt. eigenvalues --    8.49708   8.51741   8.52654   8.52844   8.56094
 Alpha virt. eigenvalues --    8.58580   8.60044   8.62299   8.65225   8.69155
 Alpha virt. eigenvalues --    8.71983   8.73770   8.77543   8.79800   8.81623
 Alpha virt. eigenvalues --    8.83931   8.90599   8.92282   9.01768   9.04384
 Alpha virt. eigenvalues --    9.17459   9.22021   9.31435   9.35442   9.40120
 Alpha virt. eigenvalues --    9.45759   9.50722   9.53258   9.53941   9.54705
 Alpha virt. eigenvalues --    9.59346   9.61339   9.63075   9.64150   9.66767
 Alpha virt. eigenvalues --    9.68889   9.70539   9.73086   9.76516   9.79452
 Alpha virt. eigenvalues --    9.86189   9.87589   9.90960   9.97412  10.03247
 Alpha virt. eigenvalues --   10.04802  10.07664  10.08729  10.14657  10.18764
 Alpha virt. eigenvalues --   10.23707  10.37414  10.48181  10.53787  10.57336
 Alpha virt. eigenvalues --   10.61750  10.74108  10.76879  11.07374  11.49898
 Alpha virt. eigenvalues --   11.76454  12.02467  12.48600  12.61256  12.67194
 Alpha virt. eigenvalues --   12.82107  12.92160  13.09049  28.11815  28.44822
 Alpha virt. eigenvalues --   28.55605  28.60622  28.91989  29.06706  29.24777
 Alpha virt. eigenvalues --   29.41810 145.63827 145.93163 146.05126 146.09399
 Alpha virt. eigenvalues --  146.37826 146.52820 146.72800 146.91088
          Condensed to atoms (all electrons):
               1          2          3          4          5          6
     1  C    5.088270   0.134895   0.322506  -0.025110  -0.039500   0.200390
     2  C    0.134895   6.125142   0.139044   0.054574   0.037825  -0.167468
     3  C    0.322506   0.139044   5.895444   0.020445   0.191461  -0.158640
     4  C   -0.025110   0.054574   0.020445   5.997779  -0.017646   0.142201
     5  C   -0.039500   0.037825   0.191461  -0.017646   5.967434   0.140949
     6  C    0.200390  -0.167468  -0.158640   0.142201   0.140949   5.983493
     7  C    0.234682   0.006648  -0.140737   0.001713  -0.042103   0.036793
     8  C    0.086454  -0.133632  -0.005659   0.005117   0.014275  -0.000225
     9  H   -0.056593   0.335385   0.003115  -0.032248  -0.001585   0.005849
    10  H   -0.048788  -0.002489   0.327368   0.003546  -0.031253   0.002943
    11  H   -0.000223  -0.082082  -0.001118   0.301739  -0.004027  -0.025638
    12  H   -0.002127  -0.004247  -0.077304  -0.000378   0.296622  -0.020096
    13  H   -0.011813   0.010983   0.012639  -0.042581  -0.049550   0.256624
    14  H   -0.118583   0.000416   0.000576  -0.001379  -0.000211  -0.000996
    15  H   -0.025065  -0.016136  -0.002098  -0.001365  -0.002271   0.002839
    16  H   -0.022726   0.022723   0.009717   0.007920   0.004687  -0.010041
               7          8          9         10         11         12
     1  C    0.234682   0.086454  -0.056593  -0.048788  -0.000223  -0.002127
     2  C    0.006648  -0.133632   0.335385  -0.002489  -0.082082  -0.004247
     3  C   -0.140737  -0.005659   0.003115   0.327368  -0.001118  -0.077304
     4  C    0.001713   0.005117  -0.032248   0.003546   0.301739  -0.000378
     5  C   -0.042103   0.014275  -0.001585  -0.031253  -0.004027   0.296622
     6  C    0.036793  -0.000225   0.005849   0.002943  -0.025638  -0.020096
     7  C    5.657059   0.118486   0.025059   0.005978   0.000242   0.002075
     8  C    0.118486   5.879996  -0.000342   0.000938   0.000663  -0.000162
     9  H    0.025059  -0.000342   0.417600  -0.000172   0.003730  -0.000121
    10  H    0.005978   0.000938  -0.000172   0.410698   0.000090  -0.005492
    11  H    0.000242   0.000663   0.003730   0.000090   0.367132  -0.001407
    12  H    0.002075  -0.000162  -0.000121  -0.005492  -0.001407   0.348252
    13  H   -0.001871  -0.000056  -0.001290  -0.001552  -0.009746  -0.005456
    14  H    0.479151  -0.067743   0.002107   0.007001   0.000055  -0.000728
    15  H   -0.006197   0.289914   0.005199  -0.000520   0.000073   0.000004
    16  H   -0.079797   0.327478   0.000473   0.000552  -0.000321  -0.000025
              13         14         15         16
     1  C   -0.011813  -0.118583  -0.025065  -0.022726
     2  C    0.010983   0.000416  -0.016136   0.022723
     3  C    0.012639   0.000576  -0.002098   0.009717
     4  C   -0.042581  -0.001379  -0.001365   0.007920
     5  C   -0.049550  -0.000211  -0.002271   0.004687
     6  C    0.256624  -0.000996   0.002839  -0.010041
     7  C   -0.001871   0.479151  -0.006197  -0.079797
     8  C   -0.000056  -0.067743   0.289914   0.327478
     9  H   -0.001290   0.002107   0.005199   0.000473
    10  H   -0.001552   0.007001  -0.000520   0.000552
    11  H   -0.009746   0.000055   0.000073  -0.000321
    12  H   -0.005456  -0.000728   0.000004  -0.000025
    13  H    0.335604  -0.000161  -0.000017   0.000100
    14  H   -0.000161   0.476221   0.027155  -0.012747
    15  H   -0.000017   0.027155   0.630357  -0.160599
    16  H    0.000100  -0.012747  -0.160599   0.639657
 Mulliken charges:
               1
     1  C    0.283330
     2  C   -0.461582
     3  C   -0.536758
     4  C   -0.414326
     5  C   -0.465107
     6  C   -0.388975
     7  C   -0.297182
     8  C   -0.515501
     9  H    0.293832
    10  H    0.331154
    11  H    0.450840
    12  H    0.470589
    13  H    0.508142
    14  H    0.209865
    15  H    0.258731
    16  H    0.272949
 Sum of Mulliken charges =  -0.00000
 Mulliken charges with hydrogens summed into heavy atoms:
               1
     1  C    0.283330
     2  C   -0.167749
     3  C   -0.205605
     4  C    0.036514
     5  C    0.005481
     6  C    0.119167
     7  C   -0.087317
     8  C    0.016179
 Electronic spatial extent (au):  <R**2>=            986.8927
 Charge=             -0.0000 electrons
 Dipole moment (field-independent basis, Debye):
    X=              0.0533    Y=             -0.1563    Z=              0.0000  Tot=              0.1651
 Quadrupole moment (field-independent basis, Debye-Ang):
   XX=            -42.5399   YY=            -42.9978   ZZ=            -53.2637
   XY=              0.1265   XZ=              0.0000   YZ=              0.0000
 Traceless Quadrupole moment (field-independent basis, Debye-Ang):
   XX=              3.7273   YY=              3.2693   ZZ=             -6.9966
   XY=              0.1265   XZ=              0.0000   YZ=              0.0000
 Octapole moment (field-independent basis, Debye-Ang**2):
  XXX=              0.3517  YYY=             -2.6105  ZZZ=              0.0000  XYY=              0.4996
  XXY=             -0.5613  XXZ=              0.0000  XZZ=              0.3213  YZZ=             -0.6641
  YYZ=              0.0000  XYZ=              0.0000
 Hexadecapole moment (field-independent basis, Debye-Ang**3):
 XXXX=           -404.7319 YYYY=           -812.5570 ZZZZ=            -63.1675 XXXY=            109.2350
 XXXZ=              0.0000 YYYX=            106.7841 YYYZ=              0.0000 ZZZX=              0.0000
 ZZZY=              0.0000 XXYY=           -203.8717 XXZZ=            -93.6313 YYZZ=           -180.2052
 XXYZ=              0.0000 YYXZ=              0.0000 ZZXY=             45.0211
 N-N= 3.207236437306D+02 E-N=-1.359032440399D+03  KE= 3.082400372201D+02
 PrsmSu:  requested number of processors reduced to:  19 ShMem   1 Linda.
 No NMR shielding tensors so no spin-rotation constants.
 Leave Link  601 at Sat Apr 17 06:22:36 2021, MaxMem=   104857600 cpu:             611.1 elap:              13.3
 (Enter /s/ls4/users/knvvv/bin/g16sse/l801.exe)
 DoSCS=F DFT=T ScalE2(SS,OS)=  1.000000  1.000000
 Range of M.O.s used for correlation:     1   757
 NBasis=   768 NAE=    28 NBE=    28 NFC=     0 NFV=     0
 NROrb=    757 NOA=    28 NOB=    28 NVA=   729 NVB=   729

 **** Warning!!: The largest alpha MO coefficient is  0.14376611D+03

 Leave Link  801 at Sat Apr 17 06:22:37 2021, MaxMem=   104857600 cpu:               4.4 elap:               0.2
 (Enter /s/ls4/users/knvvv/bin/g16sse/l914.exe)
 RHF ground state
 Doing stability rather than CIS.
 Two-electron integrals replicated using symmetry.
 MDV=   104857600 DFT=T DoStab=T Mixed=T DoRPA=F DoScal=F NonHer=F
 Making orbital integer symmetry assigments:
 Orbital symmetries:
       Occupied  (A') (A') (A') (A') (A') (A') (A') (A') (A') (A')
                 (A') (A') (A') (A') (A') (A') (A') (A') (A') (A')
                 (A') (A") (A') (A') (A') (A") (A") (A")
       Virtual   (A") (A') (A") (A') (A') (A') (A') (A') (A') (A")
                 (A') (A") (A') (A') (A") (A') (A") (A') (A') (A")
                 (A') (A") (A') (A') (A") (A') (A') (A') (A') (A")
                 (A') (A') (A') (A") (A") (A') (A') (A") (A') (A")
                 (A') (A') (A') (A") (A") (A') (A') (A") (A') (A')
                 (A") (A') (A") (A') (A') (A') (A") (A') (A') (A")
                 (A') (A') (A') (A") (A') (A") (A') (A') (A") (A")
                 (A') (A') (A') (A") (A') (A') (A") (A') (A') (A")
                 (A') (A') (A") (A') (A') (A") (A') (A') (A') (A")
                 (A') (A") (A') (A') (A") (A') (A") (A') (A') (A")
                 (A') (A') (A") (A') (A') (A') (A") (A") (A') (A')
                 (A') (A") (A') (A') (A') (A') (A') (A") (A') (A")
                 (A') (A') (A") (A') (A") (A") (A') (A') (A") (A')
                 (A') (A') (A") (A') (A") (A') (A') (A") (A') (A')
                 (A") (A') (A") (A') (A') (A') (A") (A') (A") (A')
                 (A") (A') (A') (A") (A') (A") (A') (A") (A') (A")
                 (A') (A') (A') (A") (A') (A") (A') (A") (A") (A')
                 (A') (A") (A') (A') (A") (A') (A') (A") (A') (A')
                 (A") (A') (A') (A') (A') (A') (A') (A") (A') (A')
                 (A') (A") (A') (A') (A') (A') (A') (A') (A') (A')
                 (A') (A") (A') (A') (A') (A') (A') (A') (A") (A')
                 (A") (A') (A') (A') (A') (A") (A") (A') (A") (A')
                 (A") (A") (A') (A') (A") (A') (A') (A") (A") (A')
                 (A') (A') (A") (A") (A') (A') (A') (A") (A") (A")
                 (A') (A') (A") (A') (A") (A") (A') (A') (A") (A")
                 (A') (A") (A') (A") (A') (A') (A") (A") (A') (A")
                 (A') (A") (A') (A') (A") (A') (A") (A') (A') (A')
                 (A") (A') (A") (A') (A') (A") (A') (A') (A") (A')
                 (A") (A') (A') (A") (A') (A") (A') (A") (A') (A")
                 (A") (A') (A') (A") (A') (A") (A") (A') (A') (A")
                 (A') (A') (A') (A") (A") (A") (A') (A') (A') (A")
                 (A') (A") (A') (A') (A') (A") (A') (A') (A") (A')
                 (A") (A') (A') (A') (A') (A') (A') (A') (A") (A')
                 (A') (A") (A') (A') (A") (A') (A') (A') (A') (A")
                 (A') (A") (A") (A') (A') (A") (A') (A') (A') (A')
                 (A") (A') (A') (A") (A') (A') (A") (A') (A") (A')
                 (A') (A') (A') (A') (A") (A") (A') (A") (A') (A")
                 (A") (A') (A") (A') (A') (A") (A') (A") (A') (A")
                 (A') (A') (A') (A') (A') (A") (A') (A') (A') (A')
                 (A') (A') (A") (A') (A') (A') (A') (A') (A') (A')
                 (A') (A") (A') (A') (A') (A") (A') (A') (A") (A')
                 (A") (A') (A") (A') (A") (A") (A") (A') (A') (A')
                 (A") (A") (A') (A') (A") (A') (A') (A") (A') (A')
                 (A") (A") (A') (A") (A") (A') (A') (A") (A") (A')
                 (A") (A') (A") (A') (A") (A") (A') (A") (A') (A")
                 (A') (A") (A") (A') (A") (A") (A') (A') (A") (A")
                 (A') (A') (A') (A") (A') (A") (A') (A') (A") (A")
                 (A') (A") (A") (A") (A') (A") (A") (A') (A') (A')
                 (A") (A') (A') (A") (A') (A") (A') (A") (A') (A")
                 (A') (A') (A") (A') (A') (A') (A") (A') (A') (A")
                 (A") (A') (A') (A') (A") (A') (A') (A') (A') (A')
                 (A") (A") (A') (A") (A') (A') (A") (A') (A') (A")
                 (A') (A") (A') (A') (A') (A') (A") (A') (A') (A")
                 (A') (A') (A") (A') (A") (A") (A") (A') (A') (A")
                 (A') (A") (A') (A") (A') (A") (A") (A') (A") (A")
                 (A') (A') (A") (A') (A") (A') (A") (A') (A') (A")
                 (A') (A') (A") (A') (A') (A") (A') (A') (A') (A')
                 (A") (A") (A') (A') (A") (A") (A') (A") (A") (A')
                 (A') (A') (A') (A") (A') (A') (A") (A') (A") (A')
                 (A') (A') (A") (A') (A') (A') (A") (A') (A") (A')
                 (A") (A') (A') (A') (A') (A") (A") (A') (A") (A')
                 (A") (A') (A") (A') (A') (A') (A") (A') (A') (A")
                 (A') (A") (A') (A") (A') (A') (A") (A') (A") (A')
                 (A") (A") (A') (A") (A') (A") (A') (A") (A') (A')
                 (A') (A") (A') (A') (A") (A') (A") (A') (A") (A')
                 (A') (A") (A") (A') (A") (A') (A') (A') (A") (A")
                 (A') (A') (A') (A') (A') (A') (A') (A') (A') (A')
                 (A') (A") (A') (A") (A") (A') (A') (A') (A') (A")
                 (A') (A") (A') (A') (A") (A") (A') (A') (A') (A')
                 (A") (A') (A') (A') (A') (A') (A') (A') (A') (A')
                 (A') (A') (A') (A') (A') (A') (A') (A') (A') (A')
                 (A') (A') (A') (A') (A') (A') (A') (A') (A') (A')
                 (A') (A') (A') (A') (A') (A') (A') (A') (A')
    24 initial guesses have been made.
 Convergence on wavefunction:    0.001000000000000
 Davidson Disk Diagonalization:  ConvIn= 1.00D-03 SkipCon=T Conv= 1.00D-03.
 Max sub-space:  2000 roots to seek:    24 dimension of matrix:        40824
 Iteration     1 Dimension    24 NMult     0 NNew     24
 Estimated number of processors is:   11
 CISAX will form     1 AO SS matrices at one time.
 NMat=     1 NSing=     1 JSym2X= 2.
 FoFJK:  IHMeth= 1 ICntrl=       0 DoSepK=F KAlg= 0 I1Cent=           0 FoldK=F
 IRaf= 910000000 NMat=       1 IRICut=       1 DoRegI=T DoRafI=F ISym2E= 2 IDoP0=0 IntGTp=1.
 FoFCou: FMM=F IPFlag=           0 FMFlag=      100000 FMFlg1=           0
         NFxFlg=           0 DoJE=F BraDBF=F KetDBF=F FulRan=T
         wScrn=  0.000000 ICntrl=         0 IOpCl=  0 I1Cent=           0 NGrid=           0
         NMat0=    1 NMatS0=      1 NMatT0=    0 NMatD0=    1 NMtDS0=    0 NMtDT0=    0
 Integrals replicated using symmetry in FoFCou.
 CoulSu:  requested number of processors reduced to:  17 ShMem   1 Linda.
 CalDSu:  requested number of processors reduced to:  34 ShMem   1 Linda.
 NMat=     1 NSing=     1 JSym2X= 2.
 CoulSu:  requested number of processors reduced to:  17 ShMem   1 Linda.
 CalDSu:  requested number of processors reduced to:  34 ShMem   1 Linda.
 NMat=     1 NSing=     1 JSym2X= 2.
 CoulSu:  requested number of processors reduced to:  17 ShMem   1 Linda.
 CalDSu:  requested number of processors reduced to:  34 ShMem   1 Linda.
 NMat=     1 NSing=     1 JSym2X= 2.
 CoulSu:  requested number of processors reduced to:  17 ShMem   1 Linda.
 CalDSu:  requested number of processors reduced to:  34 ShMem   1 Linda.
 NMat=     1 NSing=     1 JSym2X= 2.
 CoulSu:  requested number of processors reduced to:  17 ShMem   1 Linda.
 CalDSu:  requested number of processors reduced to:  34 ShMem   1 Linda.
 NMat=     1 NSing=     1 JSym2X= 2.
 CoulSu:  requested number of processors reduced to:  17 ShMem   1 Linda.
 CalDSu:  requested number of processors reduced to:  34 ShMem   1 Linda.
 NMat=     1 NSing=     1 JSym2X= 2.
 CoulSu:  requested number of processors reduced to:  17 ShMem   1 Linda.
 CalDSu:  requested number of processors reduced to:  34 ShMem   1 Linda.
 NMat=     1 NSing=     1 JSym2X= 2.
 CoulSu:  requested number of processors reduced to:  17 ShMem   1 Linda.
 CalDSu:  requested number of processors reduced to:  34 ShMem   1 Linda.
 NMat=     1 NSing=     1 JSym2X= 2.
 CoulSu:  requested number of processors reduced to:  17 ShMem   1 Linda.
 CalDSu:  requested number of processors reduced to:  34 ShMem   1 Linda.
 NMat=     1 NSing=     1 JSym2X= 2.
 CoulSu:  requested number of processors reduced to:  17 ShMem   1 Linda.
 CalDSu:  requested number of processors reduced to:  34 ShMem   1 Linda.
 NMat=     1 NSing=     1 JSym2X= 2.
 CoulSu:  requested number of processors reduced to:  17 ShMem   1 Linda.
 CalDSu:  requested number of processors reduced to:  34 ShMem   1 Linda.
 NMat=     1 NSing=     1 JSym2X= 2.
 CoulSu:  requested number of processors reduced to:  17 ShMem   1 Linda.
 CalDSu:  requested number of processors reduced to:  34 ShMem   1 Linda.
 NMat=     1 NSing=     0 JSym2X= 2.
 CoulSu:  requested number of processors reduced to:  17 ShMem   1 Linda.
 CalDSu:  requested number of processors reduced to:  34 ShMem   1 Linda.
 NMat=     1 NSing=     0 JSym2X= 2.
 CoulSu:  requested number of processors reduced to:  17 ShMem   1 Linda.
 CalDSu:  requested number of processors reduced to:  34 ShMem   1 Linda.
 NMat=     1 NSing=     0 JSym2X= 2.
 CoulSu:  requested number of processors reduced to:  17 ShMem   1 Linda.
 CalDSu:  requested number of processors reduced to:  34 ShMem   1 Linda.
 NMat=     1 NSing=     0 JSym2X= 2.
 CoulSu:  requested number of processors reduced to:  17 ShMem   1 Linda.
 CalDSu:  requested number of processors reduced to:  34 ShMem   1 Linda.
 NMat=     1 NSing=     0 JSym2X= 2.
 CoulSu:  requested number of processors reduced to:  17 ShMem   1 Linda.
 CalDSu:  requested number of processors reduced to:  34 ShMem   1 Linda.
 NMat=     1 NSing=     0 JSym2X= 2.
 CoulSu:  requested number of processors reduced to:  17 ShMem   1 Linda.
 CalDSu:  requested number of processors reduced to:  34 ShMem   1 Linda.
 NMat=     1 NSing=     0 JSym2X= 2.
 CoulSu:  requested number of processors reduced to:  17 ShMem   1 Linda.
 CalDSu:  requested number of processors reduced to:  34 ShMem   1 Linda.
 NMat=     1 NSing=     0 JSym2X= 2.
 CoulSu:  requested number of processors reduced to:  17 ShMem   1 Linda.
 CalDSu:  requested number of processors reduced to:  34 ShMem   1 Linda.
 NMat=     1 NSing=     0 JSym2X= 2.
 CoulSu:  requested number of processors reduced to:  17 ShMem   1 Linda.
 CalDSu:  requested number of processors reduced to:  34 ShMem   1 Linda.
 NMat=     1 NSing=     0 JSym2X= 2.
 CoulSu:  requested number of processors reduced to:  17 ShMem   1 Linda.
 CalDSu:  requested number of processors reduced to:  34 ShMem   1 Linda.
 NMat=     1 NSing=     0 JSym2X= 2.
 CoulSu:  requested number of processors reduced to:  17 ShMem   1 Linda.
 CalDSu:  requested number of processors reduced to:  34 ShMem   1 Linda.
 NMat=     1 NSing=     0 JSym2X= 2.
 CoulSu:  requested number of processors reduced to:  17 ShMem   1 Linda.
 CalDSu:  requested number of processors reduced to:  34 ShMem   1 Linda.
 New state      1 was old state      2
 Excitation Energies [eV] at current iteration:
 Root      1 :     3.341862584142446
 Root      2 :     4.613215246739857
 Root      3 :     4.706880907145449
 Root      4 :     4.788484886636580
 Root      5 :     5.053146586842010
 Root      6 :     6.171385498410224
 Root      7 :     6.196183135626885
 Root      8 :     6.550813191365132
 Root      9 :     6.552089267547448
 Root     10 :     6.682490948572643
 Root     11 :     6.703204561094307
 Root     12 :     6.932464176700652
 Root     13 :     6.986323483600373
 Root     14 :     7.202464376146757
 Root     15 :     7.215540132459283
 Root     16 :     7.228024696323880
 Root     17 :     7.233803307321953
 Root     18 :     7.395637046124746
 Root     19 :     7.415374235535119
 Root     20 :     7.512275651500214
 Root     21 :     7.576269172436031
 Root     22 :     7.586036883707179
 Root     23 :    10.449861964250110
 Root     24 :    11.264507841699920
 Iteration     2 Dimension    48 NMult    24 NNew     24
 Estimated number of processors is:   11
 CISAX will form     1 AO SS matrices at one time.
 NMat=     1 NSing=     1 JSym2X= 2.
 CoulSu:  requested number of processors reduced to:  17 ShMem   1 Linda.
 CalDSu:  requested number of processors reduced to:  34 ShMem   1 Linda.
 NMat=     1 NSing=     1 JSym2X= 2.
 CoulSu:  requested number of processors reduced to:  17 ShMem   1 Linda.
 CalDSu:  requested number of processors reduced to:  34 ShMem   1 Linda.
 NMat=     1 NSing=     1 JSym2X= 2.
 CoulSu:  requested number of processors reduced to:  17 ShMem   1 Linda.
 CalDSu:  requested number of processors reduced to:  34 ShMem   1 Linda.
 NMat=     1 NSing=     1 JSym2X= 2.
 CoulSu:  requested number of processors reduced to:  17 ShMem   1 Linda.
 CalDSu:  requested number of processors reduced to:  34 ShMem   1 Linda.
 NMat=     1 NSing=     1 JSym2X= 2.
 CoulSu:  requested number of processors reduced to:  17 ShMem   1 Linda.
 CalDSu:  requested number of processors reduced to:  34 ShMem   1 Linda.
 NMat=     1 NSing=     1 JSym2X= 2.
 CoulSu:  requested number of processors reduced to:  17 ShMem   1 Linda.
 CalDSu:  requested number of processors reduced to:  34 ShMem   1 Linda.
 NMat=     1 NSing=     1 JSym2X= 2.
 CoulSu:  requested number of processors reduced to:  17 ShMem   1 Linda.
 CalDSu:  requested number of processors reduced to:  34 ShMem   1 Linda.
 NMat=     1 NSing=     1 JSym2X= 2.
 CoulSu:  requested number of processors reduced to:  17 ShMem   1 Linda.
 CalDSu:  requested number of processors reduced to:  34 ShMem   1 Linda.
 NMat=     1 NSing=     1 JSym2X= 2.
 CoulSu:  requested number of processors reduced to:  17 ShMem   1 Linda.
 CalDSu:  requested number of processors reduced to:  34 ShMem   1 Linda.
 NMat=     1 NSing=     1 JSym2X= 2.
 CoulSu:  requested number of processors reduced to:  17 ShMem   1 Linda.
 CalDSu:  requested number of processors reduced to:  34 ShMem   1 Linda.
 NMat=     1 NSing=     1 JSym2X= 2.
 CoulSu:  requested number of processors reduced to:  17 ShMem   1 Linda.
 CalDSu:  requested number of processors reduced to:  34 ShMem   1 Linda.
 NMat=     1 NSing=     1 JSym2X= 2.
 CoulSu:  requested number of processors reduced to:  17 ShMem   1 Linda.
 CalDSu:  requested number of processors reduced to:  34 ShMem   1 Linda.
 NMat=     1 NSing=     0 JSym2X= 2.
 CoulSu:  requested number of processors reduced to:  17 ShMem   1 Linda.
 CalDSu:  requested number of processors reduced to:  34 ShMem   1 Linda.
 NMat=     1 NSing=     0 JSym2X= 2.
 CoulSu:  requested number of processors reduced to:  17 ShMem   1 Linda.
 CalDSu:  requested number of processors reduced to:  34 ShMem   1 Linda.
 NMat=     1 NSing=     0 JSym2X= 2.
 CoulSu:  requested number of processors reduced to:  17 ShMem   1 Linda.
 CalDSu:  requested number of processors reduced to:  34 ShMem   1 Linda.
 NMat=     1 NSing=     0 JSym2X= 2.
 CoulSu:  requested number of processors reduced to:  17 ShMem   1 Linda.
 CalDSu:  requested number of processors reduced to:  34 ShMem   1 Linda.
 NMat=     1 NSing=     0 JSym2X= 2.
 CoulSu:  requested number of processors reduced to:  17 ShMem   1 Linda.
 CalDSu:  requested number of processors reduced to:  34 ShMem   1 Linda.
 NMat=     1 NSing=     0 JSym2X= 2.
 CoulSu:  requested number of processors reduced to:  17 ShMem   1 Linda.
 CalDSu:  requested number of processors reduced to:  34 ShMem   1 Linda.
 NMat=     1 NSing=     0 JSym2X= 2.
 CoulSu:  requested number of processors reduced to:  17 ShMem   1 Linda.
 CalDSu:  requested number of processors reduced to:  34 ShMem   1 Linda.
 NMat=     1 NSing=     0 JSym2X= 2.
 CoulSu:  requested number of processors reduced to:  17 ShMem   1 Linda.
 CalDSu:  requested number of processors reduced to:  34 ShMem   1 Linda.
 NMat=     1 NSing=     0 JSym2X= 2.
 CoulSu:  requested number of processors reduced to:  17 ShMem   1 Linda.
 CalDSu:  requested number of processors reduced to:  34 ShMem   1 Linda.
 NMat=     1 NSing=     0 JSym2X= 2.
 CoulSu:  requested number of processors reduced to:  17 ShMem   1 Linda.
 CalDSu:  requested number of processors reduced to:  34 ShMem   1 Linda.
 NMat=     1 NSing=     0 JSym2X= 2.
 CoulSu:  requested number of processors reduced to:  17 ShMem   1 Linda.
 CalDSu:  requested number of processors reduced to:  34 ShMem   1 Linda.
 NMat=     1 NSing=     0 JSym2X= 2.
 CoulSu:  requested number of processors reduced to:  17 ShMem   1 Linda.
 CalDSu:  requested number of processors reduced to:  34 ShMem   1 Linda.
 Root      1 not converged, maximum delta is    0.158733239424259
 Excitation Energies [eV] at current iteration:
 Root      1 :     2.500132524221699   Change is   -0.841730059920747
 Root      2 :     4.050469213254901   Change is   -0.562746033484956
 Root      3 :     4.284446346890917   Change is   -0.422434560254533
 Root      4 :     4.420024251705586   Change is   -0.368460634930993
 Root      5 :     4.739605198962415   Change is   -0.313541387879596
 Root      6 :     5.848286988850704   Change is   -1.663988662649510
 Root      7 :     6.059566909007123   Change is   -0.111818589403101
 Root      8 :     6.063134280704398   Change is   -0.133048854922487
 Root      9 :     6.454171494742100   Change is   -0.096641696623032
 Root     10 :     6.466961892343062   Change is   -0.085127375204386
 Root     11 :     6.558793747820959   Change is   -0.123697200751684
 Root     12 :     6.565769066676732   Change is   -0.137435494417575
 Root     13 :     6.822070912792707   Change is   -0.110393263907945
 Root     14 :     6.852519100512706   Change is   -0.133804383087667
 Root     15 :     7.084787521606848   Change is   -0.117676854539909
 Root     16 :     7.117073687267563   Change is   -0.110951009056317
 Root     17 :     7.124222603311009   Change is   -0.091317529148275
 Root     18 :     7.127886775021174   Change is   -0.105916532300779
 Root     19 :     7.295907364792763   Change is   -0.099729681331983
 Root     20 :     7.296708955174513   Change is   -0.118665280360607
[...]
                 (A') (A") (A") (A') (A") (A') (A') (A') (A") (A")
                 (A') (A') (A') (A') (A') (A') (A') (A') (A') (A')
                 (A') (A") (A') (A") (A") (A') (A') (A') (A') (A")
                 (A') (A") (A') (A') (A") (A") (A') (A') (A') (A')
                 (A") (A') (A') (A') (A') (A') (A') (A') (A') (A')
                 (A') (A') (A') (A') (A') (A') (A') (A') (A') (A')
                 (A') (A') (A') (A') (A') (A') (A') (A') (A') (A')
                 (A') (A') (A') (A') (A') (A') (A') (A') (A')
 The electronic state is 1-A'.
 Alpha  occ. eigenvalues --  -10.55791 -10.55134 -10.54869 -10.54843 -10.54792
 Alpha  occ. eigenvalues --  -10.54759 -10.54719 -10.53986  -0.96930  -0.89372
 Alpha  occ. eigenvalues --   -0.84727  -0.82368  -0.71242  -0.69095  -0.64199
 Alpha  occ. eigenvalues --   -0.59317  -0.54888  -0.52798  -0.51035  -0.48961
 Alpha  occ. eigenvalues --   -0.47892  -0.45251  -0.43556  -0.40525  -0.39871
 Alpha  occ. eigenvalues --   -0.36830  -0.31259  -0.28211
 Alpha virt. eigenvalues --   -0.01502   0.00991   0.01714   0.02232   0.02385
 Alpha virt. eigenvalues --    0.04122   0.04312   0.05789   0.07117   0.07500
 Alpha virt. eigenvalues --    0.07798   0.10927   0.11281   0.13270   0.13347
 Alpha virt. eigenvalues --    0.13885   0.14531   0.14605   0.15466   0.16698
 Alpha virt. eigenvalues --    0.17497   0.17904   0.18040   0.18555   0.18778
 Alpha virt. eigenvalues --    0.19442   0.19706   0.20111   0.20586   0.20717
 Alpha virt. eigenvalues --    0.21588   0.22194   0.22514   0.22727   0.22859
 Alpha virt. eigenvalues --    0.23133   0.24489   0.24703   0.24884   0.25705
 Alpha virt. eigenvalues --    0.26154   0.26815   0.27221   0.27543   0.28032
 Alpha virt. eigenvalues --    0.28768   0.29053   0.29681   0.29988   0.30956
 Alpha virt. eigenvalues --    0.31234   0.31365   0.32113   0.32465   0.34178
 Alpha virt. eigenvalues --    0.34476   0.34713   0.35611   0.35833   0.36381
 Alpha virt. eigenvalues --    0.36562   0.36783   0.37823   0.38008   0.38261
 Alpha virt. eigenvalues --    0.39692   0.39731   0.40441   0.40861   0.41783
 Alpha virt. eigenvalues --    0.42052   0.42446   0.43099   0.43700   0.44243
 Alpha virt. eigenvalues --    0.44737   0.45390   0.45450   0.46203   0.46615
 Alpha virt. eigenvalues --    0.46859   0.47723   0.47844   0.48717   0.49966
 Alpha virt. eigenvalues --    0.50597   0.51198   0.51720   0.51906   0.52164
 Alpha virt. eigenvalues --    0.52701   0.52897   0.54389   0.54574   0.55019
 Alpha virt. eigenvalues --    0.56185   0.56400   0.56767   0.57236   0.57674
 Alpha virt. eigenvalues --    0.57726   0.58656   0.58884   0.59888   0.60936
 Alpha virt. eigenvalues --    0.61651   0.61739   0.62314   0.63012   0.63734
 Alpha virt. eigenvalues --    0.64576   0.65875   0.66652   0.68761   0.69693
 Alpha virt. eigenvalues --    0.71053   0.71395   0.71717   0.72543   0.73180
 Alpha virt. eigenvalues --    0.74230   0.74528   0.74793   0.76662   0.76838
 Alpha virt. eigenvalues --    0.78419   0.78591   0.78808   0.80132   0.80576
 Alpha virt. eigenvalues --    0.81335   0.82946   0.84807   0.85283   0.85930
 Alpha virt. eigenvalues --    0.86443   0.87591   0.88661   0.88783   0.91081
 Alpha virt. eigenvalues --    0.91349   0.91721   0.92322   0.92633   0.94568
 Alpha virt. eigenvalues --    0.95139   0.95800   0.95866   0.96055   0.96835
 Alpha virt. eigenvalues --    0.97532   0.98438   0.98907   0.99152   1.00975
 Alpha virt. eigenvalues --    1.01610   1.04930   1.05256   1.05570   1.05805
 Alpha virt. eigenvalues --    1.08089   1.09076   1.10510   1.11907   1.12478
 Alpha virt. eigenvalues --    1.12599   1.13095   1.13643   1.16473   1.16868
 Alpha virt. eigenvalues --    1.18809   1.19385   1.19494   1.21372   1.21624
 Alpha virt. eigenvalues --    1.22530   1.23321   1.24090   1.24930   1.26017
 Alpha virt. eigenvalues --    1.27163   1.28628   1.30055   1.31845   1.33086
 Alpha virt. eigenvalues --    1.34515   1.35618   1.36202   1.36596   1.37927
 Alpha virt. eigenvalues --    1.38833   1.39807   1.40362   1.41259   1.44625
 Alpha virt. eigenvalues --    1.44728   1.48568   1.49418   1.50693   1.53363
 Alpha virt. eigenvalues --    1.55047   1.59416   1.60219   1.61436   1.62058
 Alpha virt. eigenvalues --    1.65401   1.68568   1.69921   1.70916   1.72803
 Alpha virt. eigenvalues --    1.74188   1.74281   1.77512   1.79923   1.80586
 Alpha virt. eigenvalues --    1.80724   1.82298   1.83894   1.84575   1.84851
 Alpha virt. eigenvalues --    1.85358   1.88909   1.89121   1.90616   1.91821
 Alpha virt. eigenvalues --    1.92638   1.93282   1.94222   1.96716   1.97172
 Alpha virt. eigenvalues --    1.97675   1.98604   1.98904   2.00004   2.00378
 Alpha virt. eigenvalues --    2.01487   2.02000   2.03053   2.03740   2.04800
 Alpha virt. eigenvalues --    2.05191   2.07118   2.07253   2.08640   2.08667
 Alpha virt. eigenvalues --    2.10726   2.11240   2.11609   2.12821   2.14353
 Alpha virt. eigenvalues --    2.15300   2.16069   2.17626   2.18997   2.19207
 Alpha virt. eigenvalues --    2.19751   2.20206   2.23155   2.23589   2.24166
 Alpha virt. eigenvalues --    2.24265   2.25628   2.26797   2.28246   2.30514
 Alpha virt. eigenvalues --    2.31022   2.32699   2.32801   2.33541   2.35456
 Alpha virt. eigenvalues --    2.35725   2.36161   2.39002   2.40983   2.41448
 Alpha virt. eigenvalues --    2.42380   2.43598   2.46944   2.48992   2.50845
 Alpha virt. eigenvalues --    2.51367   2.53839   2.55120   2.55708   2.56460
 Alpha virt. eigenvalues --    2.56745   2.57953   2.58190   2.58936   2.59618
 Alpha virt. eigenvalues --    2.60596   2.62140   2.62447   2.63097   2.64305
 Alpha virt. eigenvalues --    2.65601   2.65926   2.66521   2.67280   2.68795
 Alpha virt. eigenvalues --    2.69365   2.71023   2.72280   2.72807   2.73443
 Alpha virt. eigenvalues --    2.74844   2.75245   2.75848   2.77235   2.77698
 Alpha virt. eigenvalues --    2.79647   2.79842   2.80100   2.80748   2.81537
 Alpha virt. eigenvalues --    2.82232   2.82884   2.83804   2.84053   2.85336
 Alpha virt. eigenvalues --    2.86924   2.87910   2.88128   2.89689   2.91826
 Alpha virt. eigenvalues --    2.93598   2.95478   2.97410   2.98323   3.00729
 Alpha virt. eigenvalues --    3.02034   3.02055   3.05490   3.06363   3.09460
 Alpha virt. eigenvalues --    3.10340   3.11647   3.14487   3.18278   3.19756
 Alpha virt. eigenvalues --    3.21520   3.22779   3.25065   3.26565   3.30744
 Alpha virt. eigenvalues --    3.30817   3.31944   3.33609   3.39466   3.40466
 Alpha virt. eigenvalues --    3.41003   3.41272   3.42578   3.44520   3.45547
 Alpha virt. eigenvalues --    3.47204   3.47293   3.49302   3.49905   3.50469
 Alpha virt. eigenvalues --    3.51225   3.55154   3.55575   3.55863   3.59774
 Alpha virt. eigenvalues --    3.60142   3.60599   3.61913   3.63264   3.67130
 Alpha virt. eigenvalues --    3.70266   3.72693   3.74879   3.78191   3.84721
 Alpha virt. eigenvalues --    3.86059   3.89113   3.92271   3.93021   3.93810
 Alpha virt. eigenvalues --    3.95082   3.96879   4.03620   4.04912   4.08286
 Alpha virt. eigenvalues --    4.09516   4.10273   4.13897   4.17907   4.22039
 Alpha virt. eigenvalues --    4.23938   4.29211   4.30742   4.32020   4.38484
 Alpha virt. eigenvalues --    4.41965   4.50704   4.54456   4.55690   4.58330
 Alpha virt. eigenvalues --    4.61912   4.67842   4.70673   4.73914   4.77598
 Alpha virt. eigenvalues --    4.81975   4.82787   4.84869   4.85111   4.95303
 Alpha virt. eigenvalues --    4.96269   4.98078   5.00783   5.01725   5.01935
 Alpha virt. eigenvalues --    5.03722   5.05240   5.05374   5.08111   5.08642
 Alpha virt. eigenvalues --    5.09490   5.12366   5.14395   5.17614   5.19793
 Alpha virt. eigenvalues --    5.19884   5.21038   5.22083   5.25497   5.26074
 Alpha virt. eigenvalues --    5.27709   5.30512   5.31063   5.34607   5.36155
 Alpha virt. eigenvalues --    5.36806   5.38535   5.40576   5.42604   5.44686
 Alpha virt. eigenvalues --    5.44952   5.45715   5.47860   5.48152   5.49881
 Alpha virt. eigenvalues --    5.52600   5.53234   5.54624   5.54979   5.58234
 Alpha virt. eigenvalues --    5.59248   5.60314   5.64942   5.67947   5.68341
 Alpha virt. eigenvalues --    5.68865   5.69985   5.73758   5.75923   5.76411
 Alpha virt. eigenvalues --    5.78038   5.79043   5.81215   5.81643   5.83537
 Alpha virt. eigenvalues --    5.84679   5.85256   5.87907   5.88938   5.89428
 Alpha virt. eigenvalues --    5.89491   5.90665   5.91542   5.92653   5.93652
 Alpha virt. eigenvalues --    5.94350   5.95643   5.96179   5.97148   5.99730
 Alpha virt. eigenvalues --    6.01468   6.02838   6.04317   6.04959   6.06397
 Alpha virt. eigenvalues --    6.06438   6.09411   6.09691   6.10308   6.10788
 Alpha virt. eigenvalues --    6.12722   6.13278   6.15037   6.16065   6.16810
 Alpha virt. eigenvalues --    6.18842   6.18948   6.20937   6.21575   6.22617
 Alpha virt. eigenvalues --    6.23926   6.24605   6.26109   6.26335   6.27223
 Alpha virt. eigenvalues --    6.28395   6.30328   6.31655   6.31891   6.34544
 Alpha virt. eigenvalues --    6.36568   6.37269   6.37365   6.38677   6.39759
 Alpha virt. eigenvalues --    6.40271   6.42756   6.43447   6.43668   6.47296
 Alpha virt. eigenvalues --    6.47759   6.50742   6.52472   6.53219   6.54058
 Alpha virt. eigenvalues --    6.54662   6.55526   6.56848   6.58958   6.59998
 Alpha virt. eigenvalues --    6.61243   6.61636   6.62204   6.63475   6.64298
 Alpha virt. eigenvalues --    6.67362   6.67943   6.67990   6.68537   6.71818
 Alpha virt. eigenvalues --    6.75640   6.77352   6.79211   6.80436   6.80531
 Alpha virt. eigenvalues --    6.85302   6.85563   6.86261   6.88085   6.91785
 Alpha virt. eigenvalues --    6.91935   6.94293   6.97636   7.01940   7.03461
 Alpha virt. eigenvalues --    7.04363   7.05504   7.06420   7.09799   7.09834
 Alpha virt. eigenvalues --    7.14874   7.20097   7.22208   7.23652   7.26645
 Alpha virt. eigenvalues --    7.26649   7.29740   7.30114   7.32716   7.34323
 Alpha virt. eigenvalues --    7.34976   7.37411   7.37959   7.38886   7.41114
 Alpha virt. eigenvalues --    7.41181   7.41734   7.42405   7.43433   7.44855
 Alpha virt. eigenvalues --    7.45404   7.48150   7.51388   7.54106   7.54489
 Alpha virt. eigenvalues --    7.55768   7.56692   7.57497   7.59167   7.60894
 Alpha virt. eigenvalues --    7.63268   7.66461   7.69138   7.71069   7.72980
 Alpha virt. eigenvalues --    7.75499   7.75844   7.78890   7.79189   7.81296
 Alpha virt. eigenvalues --    7.82556   7.84250   7.87650   7.88801   7.91313
 Alpha virt. eigenvalues --    7.92849   7.93484   7.96846   7.97571   7.97932
 Alpha virt. eigenvalues --    7.98771   7.99960   8.01446   8.02023   8.03801
 Alpha virt. eigenvalues --    8.06726   8.07085   8.08007   8.10399   8.10903
 Alpha virt. eigenvalues --    8.12786   8.13217   8.14404   8.14909   8.15338
 Alpha virt. eigenvalues --    8.18599   8.19479   8.20949   8.22260   8.24226
 Alpha virt. eigenvalues --    8.24260   8.28009   8.28569   8.28985   8.29548
 Alpha virt. eigenvalues --    8.31534   8.32697   8.33572   8.37140   8.38183
 Alpha virt. eigenvalues --    8.39248   8.39957   8.44765   8.47384   8.47447
 Alpha virt. eigenvalues --    8.49708   8.51741   8.52654   8.52844   8.56094
 Alpha virt. eigenvalues --    8.58580   8.60044   8.62299   8.65225   8.69155
 Alpha virt. eigenvalues --    8.71983   8.73770   8.77543   8.79800   8.81623
 Alpha virt. eigenvalues --    8.83931   8.90599   8.92282   9.01768   9.04384
 Alpha virt. eigenvalues --    9.17459   9.22021   9.31435   9.35442   9.40120
 Alpha virt. eigenvalues --    9.45759   9.50722   9.53258   9.53941   9.54705
 Alpha virt. eigenvalues --    9.59346   9.61339   9.63075   9.64150   9.66767
 Alpha virt. eigenvalues --    9.68889   9.70539   9.73086   9.76516   9.79452
 Alpha virt. eigenvalues --    9.86189   9.87589   9.90960   9.97412  10.03247
 Alpha virt. eigenvalues --   10.04802  10.07664  10.08729  10.14657  10.18764
 Alpha virt. eigenvalues --   10.23707  10.37414  10.48181  10.53787  10.57336
 Alpha virt. eigenvalues --   10.61750  10.74108  10.76879  11.07374  11.49898
 Alpha virt. eigenvalues --   11.76454  12.02467  12.48600  12.61256  12.67194
 Alpha virt. eigenvalues --   12.82107  12.92160  13.09049  28.11815  28.44822
 Alpha virt. eigenvalues --   28.55605  28.60622  28.91989  29.06706  29.24777
 Alpha virt. eigenvalues --   29.41810 145.63827 145.93163 146.05126 146.09399
 Alpha virt. eigenvalues --  146.37826 146.52820 146.72800 146.91088
          Condensed to atoms (all electrons):
               1          2          3          4          5          6
     1  C    5.088270   0.134895   0.322506  -0.025110  -0.039500   0.200390
     2  C    0.134895   6.125142   0.139044   0.054574   0.037825  -0.167468
     3  C    0.322506   0.139044   5.895444   0.020445   0.191461  -0.158640
     4  C   -0.025110   0.054574   0.020445   5.997779  -0.017646   0.142201
     5  C   -0.039500   0.037825   0.191461  -0.017646   5.967434   0.140949
     6  C    0.200390  -0.167468  -0.158640   0.142201   0.140949   5.983493
     7  C    0.234682   0.006648  -0.140737   0.001713  -0.042103   0.036793
     8  C    0.086454  -0.133632  -0.005659   0.005117   0.014275  -0.000225
     9  H   -0.056593   0.335385   0.003115  -0.032248  -0.001585   0.005849
    10  H   -0.048788  -0.002489   0.327368   0.003546  -0.031253   0.002943
    11  H   -0.000223  -0.082082  -0.001118   0.301739  -0.004027  -0.025638
    12  H   -0.002127  -0.004247  -0.077304  -0.000378   0.296622  -0.020096
    13  H   -0.011813   0.010983   0.012639  -0.042581  -0.049550   0.256624
    14  H   -0.118583   0.000416   0.000576  -0.001379  -0.000211  -0.000996
    15  H   -0.025065  -0.016136  -0.002098  -0.001365  -0.002271   0.002839
    16  H   -0.022726   0.022723   0.009717   0.007920   0.004687  -0.010041
               7          8          9         10         11         12
     1  C    0.234682   0.086454  -0.056593  -0.048788  -0.000223  -0.002127
     2  C    0.006648  -0.133632   0.335385  -0.002489  -0.082082  -0.004247
     3  C   -0.140737  -0.005659   0.003115   0.327368  -0.001118  -0.077304
     4  C    0.001713   0.005117  -0.032248   0.003546   0.301739  -0.000378
     5  C   -0.042103   0.014275  -0.001585  -0.031253  -0.004027   0.296622
     6  C    0.036793  -0.000225   0.005849   0.002943  -0.025638  -0.020096
     7  C    5.657059   0.118486   0.025059   0.005978   0.000242   0.002075
     8  C    0.118486   5.879996  -0.000342   0.000938   0.000663  -0.000162
     9  H    0.025059  -0.000342   0.417600  -0.000172   0.003730  -0.000121
    10  H    0.005978   0.000938  -0.000172   0.410698   0.000090  -0.005492
    11  H    0.000242   0.000663   0.003730   0.000090   0.367132  -0.001407
    12  H    0.002075  -0.000162  -0.000121  -0.005492  -0.001407   0.348252
    13  H   -0.001871  -0.000056  -0.001290  -0.001552  -0.009746  -0.005456
    14  H    0.479151  -0.067743   0.002107   0.007001   0.000055  -0.000728
    15  H   -0.006197   0.289914   0.005199  -0.000520   0.000073   0.000004
    16  H   -0.079797   0.327478   0.000473   0.000552  -0.000321  -0.000025
              13         14         15         16
     1  C   -0.011813  -0.118583  -0.025065  -0.022726
     2  C    0.010983   0.000416  -0.016136   0.022723
     3  C    0.012639   0.000576  -0.002098   0.009717
     4  C   -0.042581  -0.001379  -0.001365   0.007920
     5  C   -0.049550  -0.000211  -0.002271   0.004687
     6  C    0.256624  -0.000996   0.002839  -0.010041
     7  C   -0.001871   0.479151  -0.006197  -0.079797
     8  C   -0.000056  -0.067743   0.289914   0.327478
     9  H   -0.001290   0.002107   0.005199   0.000473
    10  H   -0.001552   0.007001  -0.000520   0.000552
    11  H   -0.009746   0.000055   0.000073  -0.000321
    12  H   -0.005456  -0.000728   0.000004  -0.000025
    13  H    0.335604  -0.000161  -0.000017   0.000100
    14  H   -0.000161   0.476221   0.027155  -0.012747
    15  H   -0.000017   0.027155   0.630357  -0.160599
    16  H    0.000100  -0.012747  -0.160599   0.639657
 Mulliken charges:
               1
     1  C    0.283330
     2  C   -0.461582
     3  C   -0.536758
     4  C   -0.414326
     5  C   -0.465107
     6  C   -0.388975
     7  C   -0.297182
     8  C   -0.515501
     9  H    0.293832
    10  H    0.331154
    11  H    0.450840
    12  H    0.470589
    13  H    0.508142
    14  H    0.209865
    15  H    0.258731
    16  H    0.272949
 Sum of Mulliken charges =  -0.00000
 Mulliken charges with hydrogens summed into heavy atoms:
               1
     1  C    0.283330
     2  C   -0.167749
     3  C   -0.205605
     4  C    0.036514
     5  C    0.005481
     6  C    0.119167
     7  C   -0.087317
     8  C    0.016179
 Electronic spatial extent (au):  <R**2>=            986.8927
 Charge=             -0.0000 electrons
 Dipole moment (field-independent basis, Debye):
    X=              0.0533    Y=             -0.1563    Z=              0.0000  Tot=              0.1651
 Quadrupole moment (field-independent basis, Debye-Ang):
   XX=            -42.5399   YY=            -42.9978   ZZ=            -53.2637
   XY=              0.1265   XZ=              0.0000   YZ=              0.0000
 Traceless Quadrupole moment (field-independent basis, Debye-Ang):
   XX=              3.7273   YY=              3.2693   ZZ=             -6.9966
   XY=              0.1265   XZ=              0.0000   YZ=              0.0000
 Octapole moment (field-independent basis, Debye-Ang**2):
  XXX=              0.3517  YYY=             -2.6105  ZZZ=              0.0000  XYY=              0.4996
  XXY=             -0.5613  XXZ=              0.0000  XZZ=              0.3213  YZZ=             -0.6641
  YYZ=              0.0000  XYZ=              0.0000
 Hexadecapole moment (field-independent basis, Debye-Ang**3):
 XXXX=           -404.7319 YYYY=           -812.5570 ZZZZ=            -63.1675 XXXY=            109.2350
 XXXZ=              0.0000 YYYX=            106.7841 YYYZ=              0.0000 ZZZX=              0.0000
 ZZZY=              0.0000 XXYY=           -203.8717 XXZZ=            -93.6313 YYZZ=           -180.2052
 XXYZ=              0.0000 YYXZ=              0.0000 ZZXY=             45.0211
 N-N= 3.207236437306D+02 E-N=-1.359032440399D+03  KE= 3.082400372201D+02
 PrsmSu:  requested number of processors reduced to:  19 ShMem   1 Linda.
 No NMR shielding tensors so no spin-rotation constants.
 Leave Link  601 at Sat Apr 17 08:37:38 2021, MaxMem=   104857600 cpu:             668.3 elap:              14.6
 (Enter /s/ls4/users/knvvv/bin/g16sse/l9999.exe)

 Test job not archived.
 1\1\GINC-N178\Stability\RM062X\Gen\C8H8\KNVVV\17-Apr-2021\0\\#P M062X/
 GEN Integral=UltraFineGrid SCF=NoSymm Stable=(RExt, Opt) IOp(1/33=1)\\
 Database calculations.\\0,1\C,0,0.,0.55784,0.\C,0,-1.003948,-0.420122,
 0.\C,0,1.332269,0.129163,0.\C,0,-0.684035,-1.768332,0.\C,0,1.655353,-1
 .221918,0.\C,0,0.647579,-2.177481,0.\C,0,-0.281183,1.999019,0.\C,0,-1.
 472389,2.596576,0.\H,0,-2.044203,-0.124955,0.\H,0,2.122922,0.869138,0.
 \H,0,-1.475319,-2.506276,0.\H,0,2.693354,-1.526807,0.\H,0,0.893492,-3.
 230745,0.\H,0,0.602798,2.629055,0.\H,0,-1.550282,3.674533,0.\H,0,-2.40
 4642,2.047585,0.\\Version=ES64L-G16RevA.03\State=1-A'\HF=-309.6449949\
 RMSD=8.953e-09\Dipole=0.0209792,-0.0614827,0.\Quadrupole=2.7711246,2.4
 306583,-5.2017829,0.0940135,0.,0.\PG=CS [SG(C8H8)]\\@


 EVANS BOLDLY PUT 50 ATM. OF ETHYLENE IN A CELL WITH 25 ATM. OF OXYGEN.
 THE APPARATUS SUBSEQUENTLY BLEW UP, BUT LUCKILY NOT BEFORE HE
 OBTAINED THE SPECTRA SHOWN IN FIGURE 8.
 A.J.MERER AND R.S.MULLIKEN, CHEM.REV. 69, 645 (1969)
 Job cpu time:       2 days 15 hours 35 minutes 28.5 seconds.
 Elapsed time:       0 days  2 hours 33 minutes 32.1 seconds.
 File lengths (MBytes):  RWF=   1008 Int=      0 D2E=      0 Chk=     65 Scr=      1
 Normal termination of Gaussian 16 at Sat Apr 17 08:37:38 2021.
