 Entering Gaussian System, Link 0=/opt/g16avx/g16
 Input=M062X--cc-pVTZ-DK--07_Ru+_gs_4dAEE5.gjf
 Output=M062X--cc-pVTZ-DK--07_Ru+_gs_4dAEE5.log
 Initial command:
 /opt/g16avx/l1.exe "/scratch/gaussian/Gau-27711.inp" -scrdir="/scratch/gaussian/"
 Entering Link 1 = /opt/g16avx/l1.exe PID=     27713.
  
 Copyright (c) 1988,1990,1992,1993,1995,1998,2003,2009,2016,
            Gaussian, Inc.  All Rights Reserved.
  
 This is part of the Gaussian(R) 16 program.  It is based on
 the Gaussian(R) 09 system (copyright 2009, Gaussian, Inc.),
 the Gaussian(R) 03 system (copyright 2003, Gaussian, Inc.),
 the Gaussian(R) 98 system (copyright 1998, Gaussian, Inc.),
 the Gaussian(R) 94 system (copyright 1995, Gaussian, Inc.),
 the Gaussian 92(TM) system (copyright 1992, Gaussian, Inc.),
 the Gaussian 90(TM) system (copyright 1990, Gaussian, Inc.),
 the Gaussian 88(TM) system (copyright 1988, Gaussian, Inc.),
 the Gaussian 86(TM) system (copyright 1986, Carnegie Mellon
 University), and the Gaussian 82(TM) system (copyright 1983,
 Carnegie Mellon University). Gaussian is a federally registered
 trademark of Gaussian, Inc.
  
 This software contains proprietary and confidential information,
 including trade secrets, belonging to Gaussian, Inc.
  
 This software is provided under written license and may be
 used, copied, transmitted, or stored only in accord with that
 written license.
  
 The following legend is applicable only to US Government
 contracts under FAR:
  
                    RESTRICTED RIGHTS LEGEND
  
 Use, reproduction and disclosure by the US Government is
 subject to restrictions as set forth in subparagraphs (a)
 and (c) of the Commercial Computer Software - Restricted
 Rights clause in FAR 52.227-19.
  
 Gaussian, Inc.
 340 Quinnipiac St., Bldg. 40, Wallingford CT 06492
  
  
 ---------------------------------------------------------------
 Warning -- This program may not be used in any manner that
 competes with the business of Gaussian, Inc. or will provide
 assistance to any competitor of Gaussian, Inc.  The licensee
 of this program is prohibited from giving any competitor of
 Gaussian, Inc. access to this program.  By using this program,
 the user acknowledges that Gaussian, Inc. is engaged in the
 business of creating and licensing software in the field of
 computational chemistry and represents and warrants to the
 licensee that it is not a competitor of Gaussian, Inc. and that
 it will not use this program in any manner prohibited above.
 ---------------------------------------------------------------
  

 Cite this work as:
 Gaussian 16, Revision A.03,
 M. J. Frisch, G. W. Trucks, H. B. Schlegel, G. E. Scuseria, 
 M. A. Robb, J. R. Cheeseman, G. Scalmani, V. Barone, 
 G. A. Petersson, H. Nakatsuji, X. Li, M. Caricato, A. V. Marenich, 
 J. Bloino, B. G. Janesko, R. Gomperts, B. Mennucci, H. P. Hratchian, 
 J. V. Ortiz, A. F. Izmaylov, J. L. Sonnenberg, D. Williams-Young, 
 F. Ding, F. Lipparini, F. Egidi, J. Goings, B. Peng, A. Petrone, 
 T. Henderson, D. Ranasinghe, V. G. Zakrzewski, J. Gao, N. Rega, 
 G. Zheng, W. Liang, M. Hada, M. Ehara, K. Toyota, R. Fukuda, 
 J. Hasegawa, M. Ishida, T. Nakajima, Y. Honda, O. Kitao, H. Nakai, 
 T. Vreven, K. Throssell, J. A. Montgomery, Jr., J. E. Peralta, 
 F. Ogliaro, M. J. Bearpark, J. J. Heyd, E. N. Brothers, K. N. Kudin, 
 V. N. Staroverov, T. A. Keith, R. Kobayashi, J. Normand, 
 K. Raghavachari, A. P. Rendell, J. C. Burant, S. S. Iyengar, 
 J. Tomasi, M. Cossi, J. M. Millam, M. Klene, C. Adamo, R. Cammi, 
 J. W. Ochterski, R. L. Martin, K. Morokuma, O. Farkas, 
 J. B. Foresman, and D. J. Fox, Gaussian, Inc., Wallingford CT, 2016.
 
 ******************************************
 Gaussian 16:  ES64L-G16RevA.03 25-Dec-2016
                20-Apr-2021 
 ******************************************
 %nprocshared=24
 Will use up to   24 processors via shared memory.
 ----------------------------------------------------------------------
 #P M062X/GEN Integral=UltraFineGrid scf=(nosymm,xqc,maxconven=155) Sta
 ble=(RExt, Opt) IOp(1/33=1)
 ----------------------------------------------------------------------
 1/33=1,38=1,172=1/1;
 2/12=2,17=6,18=5,40=1/2;
 3/5=7,11=2,25=1,30=1,74=-55,75=-5/1,2,3;
 4/9=2/1;
 5/5=2,8=3,13=1,38=5,85=155/2,8;
 6/7=2,8=2,9=2,10=2,28=1/1;
 8/6=1,10=90,11=11/1;
 9/8=-3,42=1,46=1/14;
 5/5=2,8=3,17=40,38=5/8(-2);
 6/7=2,8=2,9=2,10=2,28=1/1;
 99/5=1,9=1/99;
 Leave Link    1 at Tue Apr 20 05:22:24 2021, MaxMem=           0 cpu:               2.0 elap:               0.1
 (Enter /opt/g16avx/l101.exe)
 ONIOM data not found on unit 2.
 ----------------------
 Database calculations.
 ----------------------
 TstMul:  ICh=     1
 TstMul:  Mul=     4
 TstMul:  ICh=     1
 TstMul:  Mul=     4
 Symbolic Z-matrix:
 Charge =  1 Multiplicity = 4
 Ru                    0.        0.        0. 
 
 RdStrC is calling ZToCFu for IStruc=1 NZ=     1.
 PrtBox:  NBox=     1 Levels=  0 BoxLen=    8.00 SMaxX=        0.00
          Shift=            0.000000            0.000000            0.000000
 Box      1 Number                   0 centers from      1 to      1:
 After GenITR:
 ITRead=  0
 MicOpt= -1
 ITRead=  0
 MicOpt= -1
 NAtoms=      1 NQM=        1 NQMF=       0 NMMI=      0 NMMIF=      0
                NMic=       0 NMicF=      0.
                    Isotopes and Nuclear Properties:
 (Nuclear quadrupole moments (NQMom) in fm**2, nuclear magnetic moments (NMagM)
  in nuclear magnetons)

  Atom         1
 IAtWgt=         102
 AtmWgt= 101.9037000
 NucSpn=           0
 AtZEff=  -0.0000000
 NQMom=    0.0000000
 NMagM=    0.0000000
 AtZNuc=  44.0000000
 No MM parameters found.
 Leave Link  101 at Tue Apr 20 05:22:24 2021, MaxMem=   104857600 cpu:               5.5 elap:               0.4
 (Enter /opt/g16avx/l202.exe)
                          Input orientation:                          
 ---------------------------------------------------------------------
 Center     Atomic      Atomic             Coordinates (Angstroms)
 Number     Number       Type             X           Y           Z
 ---------------------------------------------------------------------
      1         44           0        0.000000    0.000000    0.000000
 ---------------------------------------------------------------------
 Stoichiometry    Ru(1+,4)
 Framework group  OH[O(Ru)]
 Deg. of freedom     0
 Full point group                 OH      NOp  48
 Largest Abelian subgroup         D2H     NOp   8
 Largest concise Abelian subgroup C1      NOp   1
                         Standard orientation:                         
 ---------------------------------------------------------------------
 Center     Atomic      Atomic             Coordinates (Angstroms)
 Number     Number       Type             X           Y           Z
 ---------------------------------------------------------------------
      1         44           0        0.000000    0.000000    0.000000
 ---------------------------------------------------------------------
 Leave Link  202 at Tue Apr 20 05:22:26 2021, MaxMem=   104857600 cpu:              31.4 elap:               2.0
 (Enter /opt/g16avx/l301.exe)
 General basis read from cards:  (5D, 7F)
 Centers:       1
 S 25 1.00
     Exponent=  1.9270800000D+08 Coefficients=  4.3000000000D-05
     Exponent=  3.0168800000D+07 Coefficients=  1.1400000000D-04
     Exponent=  6.3390700000D+06 Coefficients=  3.1300000000D-04
     Exponent=  1.6689400000D+06 Coefficients=  7.1000000000D-04
     Exponent=  5.2045500000D+05 Coefficients=  1.5130000000D-03
     Exponent=  1.8380000000D+05 Coefficients=  3.0630000000D-03
     Exponent=  7.0986500000D+04 Coefficients=  6.1410000000D-03
     Exponent=  2.9211000000D+04 Coefficients=  1.2376000000D-02
     Exponent=  1.2572000000D+04 Coefficients=  2.5427000000D-02
     Exponent=  5.5903500000D+03 Coefficients=  5.2784000000D-02
     Exponent=  2.5499300000D+03 Coefficients=  1.0718800000D-01
     Exponent=  1.1890600000D+03 Coefficients=  1.9716800000D-01
     Exponent=  5.6638400000D+02 Coefficients=  2.8753700000D-01
     Exponent=  2.7571400000D+02 Coefficients=  2.6336600000D-01
     Exponent=  1.3724200000D+02 Coefficients=  1.1266400000D-01
     Exponent=  6.9809600000D+01 Coefficients=  5.5188000000D-02
     Exponent=  3.6175100000D+01 Coefficients=  7.3522000000D-02
     Exponent=  1.8968600000D+01 Coefficients=  3.4576000000D-02
     Exponent=  9.9474900000D+00 Coefficients=  1.1321000000D-02
     Exponent=  5.1249000000D+00 Coefficients=  1.0233000000D-02
     Exponent=  2.5290800000D+00 Coefficients=  2.5890000000D-03
     Exponent=  1.2282400000D+00 Coefficients= -5.5000000000D-05
     Exponent=  5.5766600000D-01 Coefficients=  1.9000000000D-05
     Exponent=  1.4121900000D-01 Coefficients= -1.1000000000D-05
     Exponent=  6.7797000000D-02 Coefficients=  7.0000000000D-06
 S 25 1.00
     Exponent=  1.9270800000D+08 Coefficients= -2.2000000000D-05
     Exponent=  3.0168800000D+07 Coefficients= -5.7000000000D-05
     Exponent=  6.3390700000D+06 Coefficients= -1.5600000000D-04
     Exponent=  1.6689400000D+06 Coefficients= -3.5500000000D-04
     Exponent=  5.2045500000D+05 Coefficients= -7.5800000000D-04
     Exponent=  1.8380000000D+05 Coefficients= -1.5390000000D-03
     Exponent=  7.0986500000D+04 Coefficients= -3.0990000000D-03
     Exponent=  2.9211000000D+04 Coefficients= -6.2850000000D-03
     Exponent=  1.2572000000D+04 Coefficients= -1.3061000000D-02
     Exponent=  5.5903500000D+03 Coefficients= -2.7633000000D-02
     Exponent=  2.5499300000D+03 Coefficients= -5.8225000000D-02
     Exponent=  1.1890600000D+03 Coefficients= -1.1492600000D-01
     Exponent=  5.6638400000D+02 Coefficients= -1.9350600000D-01
     Exponent=  2.7571400000D+02 Coefficients= -2.2602400000D-01
     Exponent=  1.3724200000D+02 Coefficients= -7.5190000000D-02
     Exponent=  6.9809600000D+01 Coefficients=  3.0721900000D-01
     Exponent=  3.6175100000D+01 Coefficients=  5.2831300000D-01
     Exponent=  1.8968600000D+01 Coefficients=  2.5872700000D-01
     Exponent=  9.9474900000D+00 Coefficients=  4.7955000000D-02
     Exponent=  5.1249000000D+00 Coefficients=  2.5136000000D-02
     Exponent=  2.5290800000D+00 Coefficients=  5.7370000000D-03
     Exponent=  1.2282400000D+00 Coefficients= -1.6600000000D-04
     Exponent=  5.5766600000D-01 Coefficients= -4.0000000000D-05
     Exponent=  1.4121900000D-01 Coefficients= -1.7000000000D-05
     Exponent=  6.7797000000D-02 Coefficients=  9.0000000000D-06
 S 25 1.00
     Exponent=  1.9270800000D+08 Coefficients=  7.0000000000D-06
     Exponent=  3.0168800000D+07 Coefficients=  1.8000000000D-05
     Exponent=  6.3390700000D+06 Coefficients=  4.8000000000D-05
     Exponent=  1.6689400000D+06 Coefficients=  1.1000000000D-04
     Exponent=  5.2045500000D+05 Coefficients=  2.3400000000D-04
     Exponent=  1.8380000000D+05 Coefficients=  4.7600000000D-04
     Exponent=  7.0986500000D+04 Coefficients=  9.6200000000D-04
     Exponent=  2.9211000000D+04 Coefficients=  1.9580000000D-03
     Exponent=  1.2572000000D+04 Coefficients=  4.1060000000D-03
     Exponent=  5.5903500000D+03 Coefficients=  8.7800000000D-03
     Exponent=  2.5499300000D+03 Coefficients=  1.8983000000D-02
     Exponent=  1.1890600000D+03 Coefficients=  3.8978000000D-02
     Exponent=  5.6638400000D+02 Coefficients=  7.1221000000D-02
     Exponent=  2.7571400000D+02 Coefficients=  9.2547000000D-02
     Exponent=  1.3724200000D+02 Coefficients=  3.0635000000D-02
     Exponent=  6.9809600000D+01 Coefficients= -2.2073800000D-01
     Exponent=  3.6175100000D+01 Coefficients= -5.0594100000D-01
     Exponent=  1.8968600000D+01 Coefficients= -2.9861100000D-01
     Exponent=  9.9474900000D+00 Coefficients=  4.4929400000D-01
     Exponent=  5.1249000000D+00 Coefficients=  7.3958900000D-01
     Exponent=  2.5290800000D+00 Coefficients=  1.8260200000D-01
     Exponent=  1.2282400000D+00 Coefficients=  3.4490000000D-03
     Exponent=  5.5766600000D-01 Coefficients=  2.9330000000D-03
     Exponent=  1.4121900000D-01 Coefficients= -2.3800000000D-04
     Exponent=  6.7797000000D-02 Coefficients=  2.0200000000D-04
 S 25 1.00
     Exponent=  1.9270800000D+08 Coefficients= -3.0000000000D-06
     Exponent=  3.0168800000D+07 Coefficients= -7.0000000000D-06
     Exponent=  6.3390700000D+06 Coefficients= -1.9000000000D-05
     Exponent=  1.6689400000D+06 Coefficients= -4.4000000000D-05
     Exponent=  5.2045500000D+05 Coefficients= -9.4000000000D-05
     Exponent=  1.8380000000D+05 Coefficients= -1.9100000000D-04
     Exponent=  7.0986500000D+04 Coefficients= -3.8500000000D-04
     Exponent=  2.9211000000D+04 Coefficients= -7.8300000000D-04
     Exponent=  1.2572000000D+04 Coefficients= -1.6400000000D-03
     Exponent=  5.5903500000D+03 Coefficients= -3.5080000000D-03
     Exponent=  2.5499300000D+03 Coefficients= -7.5650000000D-03
     Exponent=  1.1890600000D+03 Coefficients= -1.5534000000D-02
     Exponent=  5.6638400000D+02 Coefficients= -2.8256000000D-02
     Exponent=  2.7571400000D+02 Coefficients= -3.6927000000D-02
     Exponent=  1.3724200000D+02 Coefficients= -1.2177000000D-02
     Exponent=  6.9809600000D+01 Coefficients=  9.1845000000D-02
     Exponent=  3.6175100000D+01 Coefficients=  2.3022300000D-01
     Exponent=  1.8968600000D+01 Coefficients=  1.3963900000D-01
     Exponent=  9.9474900000D+00 Coefficients= -2.6419300000D-01
     Exponent=  5.1249000000D+00 Coefficients= -7.3963200000D-01
     Exponent=  2.5290800000D+00 Coefficients= -1.0409000000D-01
     Exponent=  1.2282400000D+00 Coefficients=  8.1856600000D-01
     Exponent=  5.5766600000D-01 Coefficients=  5.2107500000D-01
     Exponent=  1.4121900000D-01 Coefficients=  3.4706000000D-02
     Exponent=  6.7797000000D-02 Coefficients= -1.1930000000D-02
 S 25 1.00
     Exponent=  1.9270800000D+08 Coefficients=  1.0000000000D-06
     Exponent=  3.0168800000D+07 Coefficients=  2.0000000000D-06
     Exponent=  6.3390700000D+06 Coefficients=  5.0000000000D-06
     Exponent=  1.6689400000D+06 Coefficients=  1.2000000000D-05
     Exponent=  5.2045500000D+05 Coefficients=  2.5000000000D-05
     Exponent=  1.8380000000D+05 Coefficients=  5.0000000000D-05
     Exponent=  7.0986500000D+04 Coefficients=  1.0100000000D-04
     Exponent=  2.9211000000D+04 Coefficients=  2.0700000000D-04
     Exponent=  1.2572000000D+04 Coefficients=  4.3200000000D-04
     Exponent=  5.5903500000D+03 Coefficients=  9.2500000000D-04
     Exponent=  2.5499300000D+03 Coefficients=  1.9940000000D-03
     Exponent=  1.1890600000D+03 Coefficients=  4.0990000000D-03
     Exponent=  5.6638400000D+02 Coefficients=  7.4550000000D-03
     Exponent=  2.7571400000D+02 Coefficients=  9.7680000000D-03
     Exponent=  1.3724200000D+02 Coefficients=  3.2110000000D-03
     Exponent=  6.9809600000D+01 Coefficients= -2.4499000000D-02
     Exponent=  3.6175100000D+01 Coefficients= -6.2145000000D-02
     Exponent=  1.8968600000D+01 Coefficients= -3.8023000000D-02
     Exponent=  9.9474900000D+00 Coefficients=  7.4258000000D-02
     Exponent=  5.1249000000D+00 Coefficients=  2.2718800000D-01
     Exponent=  2.5290800000D+00 Coefficients=  2.3251000000D-02
     Exponent=  1.2282400000D+00 Coefficients= -3.3137000000D-01
     Exponent=  5.5766600000D-01 Coefficients= -3.3316800000D-01
     Exponent=  1.4121900000D-01 Coefficients=  2.7618900000D-01
     Exponent=  6.7797000000D-02 Coefficients=  6.2177200000D-01
 S 25 1.00
     Exponent=  1.9270800000D+08 Coefficients=  1.0000000000D-06
     Exponent=  3.0168800000D+07 Coefficients=  4.0000000000D-06
     Exponent=  6.3390700000D+06 Coefficients=  1.0000000000D-05
     Exponent=  1.6689400000D+06 Coefficients=  2.4000000000D-05
     Exponent=  5.2045500000D+05 Coefficients=  5.1000000000D-05
     Exponent=  1.8380000000D+05 Coefficients=  1.0200000000D-04
     Exponent=  7.0986500000D+04 Coefficients=  2.0900000000D-04
     Exponent=  2.9211000000D+04 Coefficients=  4.1300000000D-04
     Exponent=  1.2572000000D+04 Coefficients=  9.0300000000D-04
     Exponent=  5.5903500000D+03 Coefficients=  1.8220000000D-03
     Exponent=  2.5499300000D+03 Coefficients=  4.2320000000D-03
     Exponent=  1.1890600000D+03 Coefficients=  7.9160000000D-03
     Exponent=  5.6638400000D+02 Coefficients=  1.6324000000D-02
     Exponent=  2.7571400000D+02 Coefficients=  1.7137000000D-02
     Exponent=  1.3724200000D+02 Coefficients=  1.3387000000D-02
     Exponent=  6.9809600000D+01 Coefficients= -6.6185000000D-02
     Exponent=  3.6175100000D+01 Coefficients= -9.4292000000D-02
     Exponent=  1.8968600000D+01 Coefficients= -1.4766700000D-01
     Exponent=  9.9474900000D+00 Coefficients=  2.8968100000D-01
     Exponent=  5.1249000000D+00 Coefficients=  2.7572900000D-01
     Exponent=  2.5290800000D+00 Coefficients=  4.4518300000D-01
     Exponent=  1.2282400000D+00 Coefficients= -1.7607630000D+00
     Exponent=  5.5766600000D-01 Coefficients=  5.5542400000D-01
     Exponent=  1.4121900000D-01 Coefficients=  2.0537870000D+00
     Exponent=  6.7797000000D-02 Coefficients= -1.3630430000D+00
 S 25 1.00
     Exponent=  1.9270800000D+08 Coefficients=  2.0000000000D-06
     Exponent=  3.0168800000D+07 Coefficients=  5.0000000000D-06
     Exponent=  6.3390700000D+06 Coefficients=  1.5000000000D-05
     Exponent=  1.6689400000D+06 Coefficients=  3.4000000000D-05
     Exponent=  5.2045500000D+05 Coefficients=  7.2000000000D-05
     Exponent=  1.8380000000D+05 Coefficients=  1.4700000000D-04
     Exponent=  7.0986500000D+04 Coefficients=  2.9900000000D-04
     Exponent=  2.9211000000D+04 Coefficients=  5.9900000000D-04
     Exponent=  1.2572000000D+04 Coefficients=  1.2830000000D-03
     Exponent=  5.5903500000D+03 Coefficients=  2.6640000000D-03
     Exponent=  2.5499300000D+03 Coefficients=  5.9650000000D-03
     Exponent=  1.1890600000D+03 Coefficients=  1.1705000000D-02
     Exponent=  5.6638400000D+02 Coefficients=  2.2695000000D-02
     Exponent=  2.7571400000D+02 Coefficients=  2.6780000000D-02
     Exponent=  1.3724200000D+02 Coefficients=  1.4322000000D-02
     Exponent=  6.9809600000D+01 Coefficients= -8.4570000000D-02
     Exponent=  3.6175100000D+01 Coefficients= -1.6926200000D-01
     Exponent=  1.8968600000D+01 Coefficients= -1.5466100000D-01
     Exponent=  9.9474900000D+00 Coefficients=  3.4094100000D-01
     Exponent=  5.1249000000D+00 Coefficients=  6.7676800000D-01
     Exponent=  2.5290800000D+00 Coefficients=  2.5553800000D-01
     Exponent=  1.2282400000D+00 Coefficients= -3.5119980000D+00
     Exponent=  5.5766600000D-01 Coefficients=  3.7906500000D+00
     Exponent=  1.4121900000D-01 Coefficients= -1.5455260000D+00
     Exponent=  6.7797000000D-02 Coefficients= -6.5543900000D-01
 S 1 1.00
     Exponent=  2.9950000000D-02 Coefficients=  1.0000000000D+00
 P 20 1.00
     Exponent=  1.4520000000D+06 Coefficients=  1.6000000000D-05
     Exponent=  2.4244000000D+05 Coefficients=  5.5000000000D-05
     Exponent=  5.4514600000D+04 Coefficients=  2.0700000000D-04
     Exponent=  1.5468700000D+04 Coefficients=  7.3700000000D-04
     Exponent=  5.2483500000D+03 Coefficients=  2.5880000000D-03
     Exponent=  2.0376900000D+03 Coefficients=  8.7400000000D-03
     Exponent=  8.7406800000D+02 Coefficients=  2.7233000000D-02
     Exponent=  4.0300300000D+02 Coefficients=  7.5229000000D-02
     Exponent=  1.9557100000D+02 Coefficients=  1.7240100000D-01
     Exponent=  9.8339400000D+01 Coefficients=  3.0264500000D-01
     Exponent=  5.0649000000D+01 Coefficients=  3.5165000000D-01
     Exponent=  2.6493200000D+01 Coefficients=  2.0784400000D-01
     Exponent=  1.3980300000D+01 Coefficients=  4.1711000000D-02
     Exponent=  7.3979000000D+00 Coefficients= -6.4740000000D-03
     Exponent=  3.9002600000D+00 Coefficients= -5.4520000000D-03
     Exponent=  2.0320700000D+00 Coefficients= -7.6300000000D-04
     Exponent=  1.0086100000D+00 Coefficients=  2.4000000000D-05
     Exponent=  4.8195500000D-01 Coefficients=  8.7000000000D-05
     Exponent=  1.8504000000D-01 Coefficients= -1.0000000000D-06
     Exponent=  7.6242000000D-02 Coefficients=  3.0000000000D-06
 P 20 1.00
     Exponent=  1.4520000000D+06 Coefficients= -7.0000000000D-06
     Exponent=  2.4244000000D+05 Coefficients= -2.3000000000D-05
     Exponent=  5.4514600000D+04 Coefficients= -8.7000000000D-05
     Exponent=  1.5468700000D+04 Coefficients= -3.1100000000D-04
     Exponent=  5.2483500000D+03 Coefficients= -1.0960000000D-03
     Exponent=  2.0376900000D+03 Coefficients= -3.7280000000D-03
     Exponent=  8.7406800000D+02 Coefficients= -1.1768000000D-02
     Exponent=  4.0300300000D+02 Coefficients= -3.3329000000D-02
     Exponent=  1.9557100000D+02 Coefficients= -7.9517000000D-02
     Exponent=  9.8339400000D+01 Coefficients= -1.4746800000D-01
     Exponent=  5.0649000000D+01 Coefficients= -1.7625200000D-01
     Exponent=  2.6493200000D+01 Coefficients= -1.9699000000D-02
     Exponent=  1.3980300000D+01 Coefficients=  3.0331900000D-01
     Exponent=  7.3979000000D+00 Coefficients=  4.9809400000D-01
     Exponent=  3.9002600000D+00 Coefficients=  2.8159300000D-01
     Exponent=  2.0320700000D+00 Coefficients=  4.0423000000D-02
     Exponent=  1.0086100000D+00 Coefficients= -3.9500000000D-04
     Exponent=  4.8195500000D-01 Coefficients= -2.2270000000D-03
     Exponent=  1.8504000000D-01 Coefficients= -5.3000000000D-05
     Exponent=  7.6242000000D-02 Coefficients= -7.2000000000D-05
 P 20 1.00
     Exponent=  1.4520000000D+06 Coefficients=  3.0000000000D-06
     Exponent=  2.4244000000D+05 Coefficients=  9.0000000000D-06
     Exponent=  5.4514600000D+04 Coefficients=  3.4000000000D-05
     Exponent=  1.5468700000D+04 Coefficients=  1.2100000000D-04
     Exponent=  5.2483500000D+03 Coefficients=  4.2500000000D-04
     Exponent=  2.0376900000D+03 Coefficients=  1.4470000000D-03
     Exponent=  8.7406800000D+02 Coefficients=  4.5760000000D-03
     Exponent=  4.0300300000D+02 Coefficients=  1.2994000000D-02
     Exponent=  1.9557100000D+02 Coefficients=  3.1191000000D-02
     Exponent=  9.8339400000D+01 Coefficients=  5.8260000000D-02
     Exponent=  5.0649000000D+01 Coefficients=  7.0104000000D-02
     Exponent=  2.6493200000D+01 Coefficients= -3.6400000000D-04
     Exponent=  1.3980300000D+01 Coefficients= -1.5196700000D-01
     Exponent=  7.3979000000D+00 Coefficients= -2.8399300000D-01
     Exponent=  3.9002600000D+00 Coefficients= -1.3290900000D-01
     Exponent=  2.0320700000D+00 Coefficients=  3.3704200000D-01
     Exponent=  1.0086100000D+00 Coefficients=  5.3864100000D-01
     Exponent=  4.8195500000D-01 Coefficients=  2.9945800000D-01
     Exponent=  1.8504000000D-01 Coefficients=  4.0939000000D-02
     Exponent=  7.6242000000D-02 Coefficients= -3.1450000000D-03
 P 20 1.00
     Exponent=  1.4520000000D+06 Coefficients= -1.0000000000D-06
     Exponent=  2.4244000000D+05 Coefficients= -2.0000000000D-06
     Exponent=  5.4514600000D+04 Coefficients= -9.0000000000D-06
     Exponent=  1.5468700000D+04 Coefficients= -3.1000000000D-05
     Exponent=  5.2483500000D+03 Coefficients= -1.0900000000D-04
     Exponent=  2.0376900000D+03 Coefficients= -3.7100000000D-04
     Exponent=  8.7406800000D+02 Coefficients= -1.1790000000D-03
     Exponent=  4.0300300000D+02 Coefficients= -3.3370000000D-03
     Exponent=  1.9557100000D+02 Coefficients= -8.0470000000D-03
     Exponent=  9.8339400000D+01 Coefficients= -1.4974000000D-02
     Exponent=  5.0649000000D+01 Coefficients= -1.8195000000D-02
     Exponent=  2.6493200000D+01 Coefficients=  6.2400000000D-04
     Exponent=  1.3980300000D+01 Coefficients=  3.9940000000D-02
     Exponent=  7.3979000000D+00 Coefficients=  7.7864000000D-02
     Exponent=  3.9002600000D+00 Coefficients=  3.2127000000D-02
     Exponent=  2.0320700000D+00 Coefficients= -1.0725600000D-01
     Exponent=  1.0086100000D+00 Coefficients= -2.0392900000D-01
     Exponent=  4.8195500000D-01 Coefficients= -8.3274000000D-02
     Exponent=  1.8504000000D-01 Coefficients=  3.0003200000D-01
     Exponent=  7.6242000000D-02 Coefficients=  5.7367400000D-01
 P 20 1.00
     Exponent=  1.4520000000D+06 Coefficients= -1.0000000000D-06
     Exponent=  2.4244000000D+05 Coefficients= -4.0000000000D-06
     Exponent=  5.4514600000D+04 Coefficients= -1.6000000000D-05
     Exponent=  1.5468700000D+04 Coefficients= -5.6000000000D-05
     Exponent=  5.2483500000D+03 Coefficients= -1.9900000000D-04
     Exponent=  2.0376900000D+03 Coefficients= -6.6900000000D-04
     Exponent=  8.7406800000D+02 Coefficients= -2.1410000000D-03
     Exponent=  4.0300300000D+02 Coefficients= -6.0000000000D-03
     Exponent=  1.9557100000D+02 Coefficients= -1.4649000000D-02
     Exponent=  9.8339400000D+01 Coefficients= -2.6834000000D-02
     Exponent=  5.0649000000D+01 Coefficients= -3.3555000000D-02
     Exponent=  2.6493200000D+01 Coefficients=  2.6000000000D-03
     Exponent=  1.3980300000D+01 Coefficients=  6.9941000000D-02
     Exponent=  7.3979000000D+00 Coefficients=  1.4735200000D-01
     Exponent=  3.9002600000D+00 Coefficients=  5.0738000000D-02
     Exponent=  2.0320700000D+00 Coefficients= -1.9325500000D-01
     Exponent=  1.0086100000D+00 Coefficients= -4.4912100000D-01
     Exponent=  4.8195500000D-01 Coefficients=  5.7943000000D-02
     Exponent=  1.8504000000D-01 Coefficients=  7.1290200000D-01
     Exponent=  7.6242000000D-02 Coefficients=  3.5858300000D-01
 P 20 1.00
     Exponent=  1.4520000000D+06 Coefficients= -2.0000000000D-06
     Exponent=  2.4244000000D+05 Coefficients= -6.0000000000D-06
     Exponent=  5.4514600000D+04 Coefficients= -2.4000000000D-05
     Exponent=  1.5468700000D+04 Coefficients= -8.6000000000D-05
     Exponent=  5.2483500000D+03 Coefficients= -3.1000000000D-04
     Exponent=  2.0376900000D+03 Coefficients= -1.0280000000D-03
     Exponent=  8.7406800000D+02 Coefficients= -3.3530000000D-03
     Exponent=  4.0300300000D+02 Coefficients= -9.2050000000D-03
     Exponent=  1.9557100000D+02 Coefficients= -2.3036000000D-02
     Exponent=  9.8339400000D+01 Coefficients= -4.0939000000D-02
     Exponent=  5.0649000000D+01 Coefficients= -5.4262000000D-02
     Exponent=  2.6493200000D+01 Coefficients=  9.0420000000D-03
     Exponent=  1.3980300000D+01 Coefficients=  1.0613600000D-01
     Exponent=  7.3979000000D+00 Coefficients=  2.5032600000D-01
     Exponent=  3.9002600000D+00 Coefficients=  7.1279000000D-02
     Exponent=  2.0320700000D+00 Coefficients= -4.2983900000D-01
     Exponent=  1.0086100000D+00 Coefficients= -9.5022700000D-01
     Exponent=  4.8195500000D-01 Coefficients=  1.4174230000D+00
     Exponent=  1.8504000000D-01 Coefficients=  3.2559500000D-01
     Exponent=  7.6242000000D-02 Coefficients= -1.0012110000D+00
 P 1 1.00
     Exponent=  3.0654000000D-02 Coefficients=  1.0000000000D+00
 D 13 1.00
     Exponent=  2.5423500000D+03 Coefficients=  1.5500000000D-04
     Exponent=  7.4300800000D+02 Coefficients=  1.2990000000D-03
     Exponent=  2.7695200000D+02 Coefficients=  7.7890000000D-03
     Exponent=  1.1966900000D+02 Coefficients=  3.1919000000D-02
     Exponent=  5.6344800000D+01 Coefficients=  9.6772000000D-02
     Exponent=  2.7856800000D+01 Coefficients=  2.1476300000D-01
     Exponent=  1.4159100000D+01 Coefficients=  3.2811100000D-01
     Exponent=  7.2956800000D+00 Coefficients=  3.3753000000D-01
     Exponent=  3.7509000000D+00 Coefficients=  1.8933400000D-01
     Exponent=  1.8552600000D+00 Coefficients=  4.1793000000D-02
     Exponent=  8.8205900000D-01 Coefficients=  2.1340000000D-03
     Exponent=  4.0062200000D-01 Coefficients=  5.0900000000D-04
     Exponent=  1.7133100000D-01 Coefficients=  1.7000000000D-05
 D 13 1.00
     Exponent=  2.5423500000D+03 Coefficients= -4.5000000000D-05
     Exponent=  7.4300800000D+02 Coefficients= -3.7500000000D-04
     Exponent=  2.7695200000D+02 Coefficients= -2.2530000000D-03
     Exponent=  1.1966900000D+02 Coefficients= -9.3050000000D-03
     Exponent=  5.6344800000D+01 Coefficients= -2.8464000000D-02
     Exponent=  2.7856800000D+01 Coefficients= -6.3860000000D-02
     Exponent=  1.4159100000D+01 Coefficients= -9.4166000000D-02
     Exponent=  7.2956800000D+00 Coefficients= -8.7808000000D-02
     Exponent=  3.7509000000D+00 Coefficients=  2.7267000000D-02
     Exponent=  1.8552600000D+00 Coefficients=  2.4113600000D-01
     Exponent=  8.8205900000D-01 Coefficients=  3.7601500000D-01
     Exponent=  4.0062200000D-01 Coefficients=  3.4791900000D-01
     Exponent=  1.7133100000D-01 Coefficients=  2.0772400000D-01
 D 13 1.00
     Exponent=  2.5423500000D+03 Coefficients=  4.4000000000D-05
     Exponent=  7.4300800000D+02 Coefficients=  3.6800000000D-04
     Exponent=  2.7695200000D+02 Coefficients=  2.2170000000D-03
     Exponent=  1.1966900000D+02 Coefficients=  9.1350000000D-03
     Exponent=  5.6344800000D+01 Coefficients=  2.8138000000D-02
     Exponent=  2.7856800000D+01 Coefficients=  6.3096000000D-02
     Exponent=  1.4159100000D+01 Coefficients=  9.2046000000D-02
     Exponent=  7.2956800000D+00 Coefficients=  7.7982000000D-02
     Exponent=  3.7509000000D+00 Coefficients= -4.1517000000D-02
     Exponent=  1.8552600000D+00 Coefficients= -3.0244600000D-01
     Exponent=  8.8205900000D-01 Coefficients= -3.9084600000D-01
     Exponent=  4.0062200000D-01 Coefficients=  8.9314000000D-02
     Exponent=  1.7133100000D-01 Coefficients=  5.6648900000D-01
 D 13 1.00
     Exponent=  2.5423500000D+03 Coefficients= -6.8000000000D-05
     Exponent=  7.4300800000D+02 Coefficients= -5.6000000000D-04
     Exponent=  2.7695200000D+02 Coefficients= -3.4280000000D-03
     Exponent=  1.1966900000D+02 Coefficients= -1.3995000000D-02
     Exponent=  5.6344800000D+01 Coefficients= -4.3926000000D-02
     Exponent=  2.7856800000D+01 Coefficients= -9.7602000000D-02
     Exponent=  1.4159100000D+01 Coefficients= -1.3828300000D-01
     Exponent=  7.2956800000D+00 Coefficients= -9.1001000000D-02
     Exponent=  3.7509000000D+00 Coefficients=  1.2251500000D-01
     Exponent=  1.8552600000D+00 Coefficients=  6.4967600000D-01
     Exponent=  8.8205900000D-01 Coefficients=  3.0089000000D-02
     Exponent=  4.0062200000D-01 Coefficients= -9.1564500000D-01
     Exponent=  1.7133100000D-01 Coefficients=  7.8068000000D-02
 D 1 1.00
     Exponent=  6.6865000000D-02 Coefficients=  1.0000000000D+00
 F 1 1.00
     Exponent=  1.5074000000D+00 Coefficients=  1.0000000000D+00
 F 1 1.00
     Exponent=  4.3860000000D-01 Coefficients=  1.0000000000D+00
 G 1 1.00
     Exponent=  1.0050000000D+00 Coefficients=  1.0000000000D+00
 ****
 Ernie: Thresh=  0.10000D-02 Tol=  0.10000D-05 Strict=F.
 Ernie:  141 primitive shells out of 353 were deleted.
 There are    29 symmetry adapted cartesian basis functions of AG  symmetry.
 There are     8 symmetry adapted cartesian basis functions of B1G symmetry.
 There are     8 symmetry adapted cartesian basis functions of B2G symmetry.
 There are     8 symmetry adapted cartesian basis functions of B3G symmetry.
 There are     2 symmetry adapted cartesian basis functions of AU  symmetry.
 There are    13 symmetry adapted cartesian basis functions of B1U symmetry.
 There are    13 symmetry adapted cartesian basis functions of B2U symmetry.
 There are    13 symmetry adapted cartesian basis functions of B3U symmetry.
 There are    21 symmetry adapted basis functions of AG  symmetry.
 There are     7 symmetry adapted basis functions of B1G symmetry.
 There are     7 symmetry adapted basis functions of B2G symmetry.
 There are     7 symmetry adapted basis functions of B3G symmetry.
 There are     2 symmetry adapted basis functions of AU  symmetry.
 There are    11 symmetry adapted basis functions of B1U symmetry.
 There are    11 symmetry adapted basis functions of B2U symmetry.
 There are    11 symmetry adapted basis functions of B3U symmetry.
    77 basis functions,   578 primitive gaussians,    94 cartesian basis functions
    23 alpha electrons       20 beta electrons
       nuclear repulsion energy         0.0000000000 Hartrees.
 IExCor= 4336 DFT=T Ex+Corr=M062X ExCW=0 ScaHFX=  0.540000
 ScaDFX=  1.000000  1.000000  1.000000  1.000000 ScalE2=  1.000000  1.000000
 IRadAn=      5 IRanWt=     -1 IRanGd=            0 ICorTp=0 IEmpDi=  4
 NAtoms=    1 NActive=    1 NUniq=    1 SFac= 1.00D+00 NAtFMM=   60 NAOKFM=F Big=F
 Integral buffers will be    131072 words long.
 Raffenetti 2 integral format.
 Two-electron integral symmetry is turned on.
 Leave Link  301 at Tue Apr 20 05:22:26 2021, MaxMem=   104857600 cpu:               3.3 elap:               0.2
 (Enter /opt/g16avx/l302.exe)
 NPDir=0 NMtPBC=     1 NCelOv=     1 NCel=       1 NClECP=     1 NCelD=      1
         NCelK=      1 NCelE2=     1 NClLst=     1 CellRange=     0.0.
 One-electron integrals computed using PRISM.
 One-electron integral symmetry used in STVInt
 PrsmSu:  requested number of processors reduced to:   1 ShMem   1 Linda.
 PrsmSu:  requested number of processors reduced to:   8 ShMem   1 Linda.
 NBasis=    77 RedAO= T EigKep=  1.20D-02  NBF=    21     7     7     7     2    11    11    11
 NBsUse=    77 1.00D-06 EigRej= -1.00D+00 NBFU=    21     7     7     7     2    11    11    11
 Precomputing XC quadrature grid using
 IXCGrd= 4 IRadAn=           5 IRanWt=          -1 IRanGd=           0 AccXCQ= 0.00D+00.
 Defaulting to unpruned grid for atomic number  44.
 Generated NRdTot=       0 NPtTot=           0 NUsed=           0 NTot=          32
 NSgBfM=    94    94    94    94    94 MxSgAt=     1 MxSgA2=     1.
 Leave Link  302 at Tue Apr 20 05:23:09 2021, MaxMem=   104857600 cpu:             676.7 elap:              42.4
 (Enter /opt/g16avx/l303.exe)
 DipDrv:  MaxL=1.
 Leave Link  303 at Tue Apr 20 05:23:10 2021, MaxMem=   104857600 cpu:              13.5 elap:               0.9
 (Enter /opt/g16avx/l401.exe)
 SCF N**3 symmetry information disabled.
 ExpMin= 3.00D-02 ExpMax= 1.93D+08 ExpMxC= 2.92D+04 IAcc=3 IRadAn=         5 AccDes= 0.00D+00
 Harris functional with IExCor= 1009 and IRadAn=       5 diagonalized for initial guess.
 HarFok:  IExCor= 1009 AccDes= 0.00D+00 IRadAn=         5 IDoV= 1 UseB2=F ITyADJ=14
 ICtDFT=  3500011 ScaDFX=  1.000000  1.000000  1.000000  1.000000
 Defaulting to unpruned grid for atomic number  44.
 FoFCou: FMM=F IPFlag=           0 FMFlag=      100000 FMFlg1=           0
         NFxFlg=           0 DoJE=T BraDBF=F KetDBF=T FulRan=T
         wScrn=  0.000000 ICntrl=       500 IOpCl=  0 I1Cent=   200000004 NGrid=           0
         NMat0=    1 NMatS0=      1 NMatT0=    0 NMatD0=    1 NMtDS0=    0 NMtDT0=    0
 Petite list used in FoFCou.
 CoulSu:  requested number of processors reduced to:   8 ShMem   1 Linda.
 CoulSu:  requested number of processors reduced to:   7 ShMem   1 Linda.
 CoulSu:  requested number of processors reduced to:   8 ShMem   1 Linda.
 CoulSu:  requested number of processors reduced to:   8 ShMem   1 Linda.
 Harris En= -4360.82349629045    
 JPrj=0 DoOrth=F DoCkMO=F.
 Initial guess orbital symmetries:
 Alpha Orbitals:
       Occupied  (A1G) (A1G) (T1U) (T1U) (T1U) (A1G) (T1U) (T1U)
                 (T1U) (T2G) (T2G) (T2G) (EG) (EG) (A1G) (T1U)
                 (T1U) (T1U) (T2G) (T2G) (T2G) (EG) (EG)
       Virtual   (A1G) (T1U) (T1U) (T1U) (A1G) (T1U) (T1U) (T1U)
                 (T2G) (T2G) (T2G) (EG) (EG) (A1G) (T1U) (T1U)
                 (T1U) (T2G) (T2G) (T2G) (EG) (EG) (T2U) (T2U)
                 (T2U) (A2U) (T1U) (T1U) (T1U) (T1U) (T1U) (T1U)
                 (T2G) (T2G) (T2G) (EG) (EG) (A1G) (T2U) (T2U)
                 (T2U) (A2U) (T1U) (T1U) (T1U) (T1G) (T1G) (T1G)
                 (T2G) (T2G) (T2G) (EG) (EG) (A1G)
 Beta  Orbitals:
       Occupied  (A1G) (A1G) (T1U) (T1U) (T1U) (A1G) (T1U) (T1U)
                 (T1U) (T2G) (T2G) (T2G) (EG) (EG) (A1G) (T1U)
                 (T1U) (T1U) (T2G) (T2G)
       Virtual   (T2G) (EG) (EG) (A1G) (T1U) (T1U) (T1U) (A1G)
                 (T1U) (T1U) (T1U) (T2G) (T2G) (T2G) (EG) (EG)
                 (A1G) (T1U) (T1U) (T1U) (T2G) (T2G) (T2G) (EG)
                 (EG) (T2U) (T2U) (T2U) (A2U) (T1U) (T1U) (T1U)
                 (T1U) (T1U) (T1U) (T2G) (T2G) (T2G) (EG) (EG)
                 (A1G) (T2U) (T2U) (T2U) (A2U) (T1U) (T1U) (T1U)
                 (T1G) (T1G) (T1G) (T2G) (T2G) (T2G) (EG) (EG)
                 (A1G)
 Initial guess <Sx>= 0.0000 <Sy>= 0.0000 <Sz>= 1.5000 <S**2>= 3.7500 S= 1.5000
 Leave Link  401 at Tue Apr 20 05:23:39 2021, MaxMem=   104857600 cpu:             477.0 elap:              29.8
 (Enter /opt/g16avx/l502.exe)
 Keep R1 and R2 ints in memory in symmetry-blocked form, NReq=80215748.
 FoFCou: FMM=F IPFlag=           0 FMFlag=           0 FMFlg1=           0
         NFxFlg=           0 DoJE=F BraDBF=F KetDBF=F FulRan=T
         wScrn=  0.000000 ICntrl=       600 IOpCl=  0 I1Cent=           0 NGrid=           0
         NMat0=    1 NMatS0=   3003 NMatT0=    0 NMatD0=    1 NMtDS0=    0 NMtDT0=    0
 Petite list used in FoFCou.
 CoulSu:  requested number of processors reduced to:   7 ShMem   1 Linda.
 UHF open shell SCF:
 Using DIIS extrapolation, IDIIS=  1040.
 NGot=   104857600 LenX=   103654442 LenY=   103645165
 Requested convergence on RMS density matrix=1.00D-08 within 155 cycles.
 Requested convergence on MAX density matrix=1.00D-06.
 Requested convergence on             energy=1.00D-06.
 No special actions if energy rises.

 Cycle   1  Pass 1  IDiag  1:
 Density matrix breaks symmetry, PCut= 1.00D-04
 Density matrix has no symmetry -- integrals replicated.
 Defaulting to unpruned grid for atomic number  44.
 Defaulting to unpruned grid for atomic number  44.
 Defaulting to unpruned grid for atomic number  44.
 Defaulting to unpruned grid for atomic number  44.
 Defaulting to unpruned grid for atomic number  44.
 Defaulting to unpruned grid for atomic number  44.
 Defaulting to unpruned grid for atomic number  44.
 Defaulting to unpruned grid for atomic number  44.
 Defaulting to unpruned grid for atomic number  44.
 Defaulting to unpruned grid for atomic number  44.
 Defaulting to unpruned grid for atomic number  44.
 Defaulting to unpruned grid for atomic number  44.
 Defaulting to unpruned grid for atomic number  44.
 Defaulting to unpruned grid for atomic number  44.
 Defaulting to unpruned grid for atomic number  44.
 Defaulting to unpruned grid for atomic number  44.
 Defaulting to unpruned grid for atomic number  44.
 Defaulting to unpruned grid for atomic number  44.
 Defaulting to unpruned grid for atomic number  44.
 Defaulting to unpruned grid for atomic number  44.
 Defaulting to unpruned grid for atomic number  44.
 Defaulting to unpruned grid for atomic number  44.
 Defaulting to unpruned grid for atomic number  44.
 Defaulting to unpruned grid for atomic number  44.
 E= -4361.49554747077    
 DIIS: error= 1.10D-01 at cycle   1 NSaved=   1.
 NSaved= 1 IEnMin= 1 EnMin= -4361.49554747077     IErMin= 1 ErrMin= 1.10D-01
 ErrMax= 1.10D-01  0.00D+00 EMaxC= 1.00D-01 BMatC= 2.63D+00 BMatP= 2.63D+00
 IDIUse=3 WtCom= 0.00D+00 WtEn= 1.00D+00
 Coeff-Com:  0.100D+01
 Coeff-En:   0.100D+01
 Coeff:      0.100D+01
 Gap=     0.482 Goal=   None    Shift=    0.000
 Gap=     0.223 Goal=   None    Shift=    0.000
 GapD=    0.223 DampG=1.000 DampE=0.125 DampFc=0.1250 IDamp=-1.
 Damping current iteration by 1.25D-01
 RMSDP=1.19D-02 MaxDP=2.77D-01              OVMax= 1.93D-01

 Cycle   2  Pass 1  IDiag  1:
 Density matrix breaks symmetry, PCut= 1.00D-04
 Density matrix has no symmetry -- integrals replicated.
 E= -4361.53671455808     Delta-E=       -0.041167087307 Rises=F Damp=T
 DIIS: error= 8.69D-02 at cycle   2 NSaved=   2.
 NSaved= 2 IEnMin= 2 EnMin= -4361.53671455808     IErMin= 2 ErrMin= 8.69D-02
 ErrMax= 8.69D-02  0.00D+00 EMaxC= 1.00D-01 BMatC= 1.59D+00 BMatP= 2.63D+00
 IDIUse=3 WtCom= 1.31D-01 WtEn= 8.69D-01
 Coeff-Com: -0.338D+01 0.438D+01
 Coeff-En:   0.000D+00 0.100D+01
 Coeff:     -0.442D+00 0.144D+01
 Gap=     0.428 Goal=   None    Shift=    0.000
 Gap=     0.233 Goal=   None    Shift=    0.000
 RMSDP=8.16D-03 MaxDP=1.84D-01 DE=-4.12D-02 OVMax= 2.98D-02

 Cycle   3  Pass 1  IDiag  1:
 Density matrix breaks symmetry, PCut= 1.00D-04
 Density matrix has no symmetry -- integrals replicated.
 E= -4361.63103111295     Delta-E=       -0.094316554865 Rises=F Damp=F
 DIIS: error= 4.98D-02 at cycle   3 NSaved=   3.
 NSaved= 3 IEnMin= 3 EnMin= -4361.63103111295     IErMin= 3 ErrMin= 4.98D-02
 ErrMax= 4.98D-02  0.00D+00 EMaxC= 1.00D-01 BMatC= 7.49D-01 BMatP= 1.59D+00
 IDIUse=3 WtCom= 5.02D-01 WtEn= 4.98D-01
 EnCoef did   100 forward-backward iterations
 Coeff-Com:  0.590D+00-0.293D+00 0.703D+00
 Coeff-En:   0.192D+00 0.652D-02 0.801D+00
 Coeff:      0.392D+00-0.144D+00 0.752D+00
 Gap=     0.312 Goal=   None    Shift=    0.000
 Gap=     0.230 Goal=   None    Shift=    0.000
 RMSDP=5.68D-03 MaxDP=1.36D-01 DE=-9.43D-02 OVMax= 8.24D-02

 Cycle   4  Pass 1  IDiag  1:
 Density matrix breaks symmetry, PCut= 1.00D-04
 Density matrix has no symmetry -- integrals replicated.
 E= -4361.69360043949     Delta-E=       -0.062569326540 Rises=F Damp=F
 DIIS: error= 1.25D-02 at cycle   4 NSaved=   4.
 NSaved= 4 IEnMin= 4 EnMin= -4361.69360043949     IErMin= 4 ErrMin= 1.25D-02
 ErrMax= 1.25D-02  0.00D+00 EMaxC= 1.00D-01 BMatC= 5.28D-02 BMatP= 7.49D-01
 IDIUse=3 WtCom= 8.75D-01 WtEn= 1.25D-01
 Coeff-Com: -0.603D+00 0.704D+00 0.976D-01 0.802D+00
 Coeff-En:   0.000D+00 0.000D+00 0.000D+00 0.100D+01
 Coeff:     -0.528D+00 0.616D+00 0.854D-01 0.826D+00
 Gap=     0.340 Goal=   None    Shift=    0.000
 Gap=     0.234 Goal=   None    Shift=    0.000
 RMSDP=1.35D-03 MaxDP=3.25D-02 DE=-6.26D-02 OVMax= 2.77D-02

 Cycle   5  Pass 1  IDiag  1:
 Density matrix breaks symmetry, PCut= 1.00D-04
 Density matrix has no symmetry -- integrals replicated.
 E= -4361.69884689900     Delta-E=       -0.005246459514 Rises=F Damp=F
 DIIS: error= 1.93D-03 at cycle   5 NSaved=   5.
 NSaved= 5 IEnMin= 5 EnMin= -4361.69884689900     IErMin= 5 ErrMin= 1.93D-03
 ErrMax= 1.93D-03  0.00D+00 EMaxC= 1.00D-01 BMatC= 1.32D-03 BMatP= 5.28D-02
 IDIUse=3 WtCom= 9.81D-01 WtEn= 1.93D-02
 Coeff-Com:  0.123D+00-0.146D+00-0.635D-01-0.130D+00 0.122D+01
 Coeff-En:   0.000D+00 0.000D+00 0.000D+00 0.000D+00 0.100D+01
 Coeff:      0.120D+00-0.144D+00-0.623D-01-0.128D+00 0.121D+01
 Gap=     0.335 Goal=   None    Shift=    0.000
 Gap=     0.228 Goal=   None    Shift=    0.000
 RMSDP=4.48D-04 MaxDP=1.44D-02 DE=-5.25D-03 OVMax= 3.37D-02

 Cycle   6  Pass 1  IDiag  1:
 Density matrix breaks symmetry, PCut= 1.00D-04
 Density matrix has no symmetry -- integrals replicated.
 E= -4361.69944226057     Delta-E=       -0.000595361572 Rises=F Damp=F
 DIIS: error= 1.39D-03 at cycle   6 NSaved=   6.
 NSaved= 6 IEnMin= 6 EnMin= -4361.69944226057     IErMin= 6 ErrMin= 1.39D-03
 ErrMax= 1.39D-03  0.00D+00 EMaxC= 1.00D-01 BMatC= 1.41D-04 BMatP= 1.32D-03
 IDIUse=3 WtCom= 9.86D-01 WtEn= 1.39D-02
 Coeff-Com:  0.949D-01-0.110D+00-0.362D-01-0.140D+00 0.502D+00 0.689D+00
 Coeff-En:   0.000D+00 0.000D+00 0.000D+00 0.000D+00 0.000D+00 0.100D+01
 Coeff:      0.936D-01-0.109D+00-0.357D-01-0.138D+00 0.495D+00 0.694D+00
 Gap=     0.336 Goal=   None    Shift=    0.000
 Gap=     0.228 Goal=   None    Shift=    0.000
 RMSDP=2.65D-04 MaxDP=9.18D-03 DE=-5.95D-04 OVMax= 2.20D-02

 Cycle   7  Pass 1  IDiag  1:
 Density matrix breaks symmetry, PCut= 1.00D-04
 Density matrix has no symmetry -- integrals replicated.
 E= -4361.69975992521     Delta-E=       -0.000317664641 Rises=F Damp=F
 DIIS: error= 1.39D-03 at cycle   7 NSaved=   7.
 NSaved= 7 IEnMin= 7 EnMin= -4361.69975992521     IErMin= 7 ErrMin= 1.39D-03
 ErrMax= 1.39D-03  0.00D+00 EMaxC= 1.00D-01 BMatC= 1.36D-04 BMatP= 1.41D-04
 IDIUse=3 WtCom= 9.86D-01 WtEn= 1.39D-02
 Coeff-Com:  0.949D-01-0.111D+00-0.375D-01-0.127D+00 0.573D+00-0.279D+00
 Coeff-Com:  0.887D+00
 Coeff-En:   0.000D+00 0.000D+00 0.000D+00 0.000D+00 0.000D+00 0.000D+00
 Coeff-En:   0.100D+01
 Coeff:      0.936D-01-0.109D+00-0.370D-01-0.125D+00 0.565D+00-0.275D+00
 Coeff:      0.888D+00
 Gap=     0.336 Goal=   None    Shift=    0.000
 Gap=     0.228 Goal=   None    Shift=    0.000
 RMSDP=2.02D-04 MaxDP=6.89D-03 DE=-3.18D-04 OVMax= 1.68D-02

 Cycle   8  Pass 1  IDiag  1:
 Density matrix breaks symmetry, PCut= 1.00D-04
 Density matrix has no symmetry -- integrals replicated.
 E= -4361.70000176058     Delta-E=       -0.000241835363 Rises=F Damp=F
 DIIS: error= 1.39D-03 at cycle   8 NSaved=   8.
 NSaved= 8 IEnMin= 8 EnMin= -4361.70000176058     IErMin= 8 ErrMin= 1.39D-03
 ErrMax= 1.39D-03  0.00D+00 EMaxC= 1.00D-01 BMatC= 1.37D-04 BMatP= 1.36D-04
 IDIUse=3 WtCom= 9.86D-01 WtEn= 1.39D-02
 Large coefficients: NSaved=  8 BigCof=   15.02 CofMax=   10.00 Det=-1.03D-08
 Inversion failed.  Reducing to  7 matrices.
 Large coefficients: NSaved=  7 BigCof=   12.06 CofMax=   10.00 Det=-1.05D-08
 Inversion failed.  Reducing to  6 matrices.
 Large coefficients: NSaved=  6 BigCof=   11.61 CofMax=   10.00 Det=-8.75D-09
 Inversion failed.  Reducing to  5 matrices.
 Large coefficients: NSaved=  5 BigCof=   20.90 CofMax=   10.00 Det=-1.09D-08
 Inversion failed.  Reducing to  4 matrices.
 Large coefficients: NSaved=  4 BigCof=   17.21 CofMax=   10.00 Det=-1.28D-08
 Inversion failed.  Reducing to  3 matrices.
 Large coefficients: NSaved=  3 BigCof=   11.65 CofMax=   10.00 Det=-3.66D-08
 Inversion failed.  Reducing to  2 matrices.
 Large coefficients: NSaved=  2 BigCof=   11.71 CofMax=   10.00 Det=-3.66D-08
 Coeff-Com:  0.117D+02-0.107D+02
 Coeff-En:   0.000D+00 0.100D+01
 Coeff:      0.115D+02-0.105D+02
 Gap=     0.333 Goal=   None    Shift=    0.000
 Gap=     0.228 Goal=   None    Shift=    0.000
 RMSDP=1.95D-03 MaxDP=6.86D-02 DE=-2.42D-04 OVMax= 1.61D-01

 Cycle   9  Pass 1  IDiag  1:
 Density matrix breaks symmetry, PCut= 1.00D-04
 Density matrix has no symmetry -- integrals replicated.
 E= -4361.69772472692     Delta-E=        0.002277033659 Rises=F Damp=F
 DIIS: error= 1.31D-03 at cycle   9 NSaved=   3.
 NSaved= 3 IEnMin= 2 EnMin= -4361.70000176058     IErMin= 3 ErrMin= 1.31D-03
 ErrMax= 1.31D-03  0.00D+00 EMaxC= 1.00D-01 BMatC= 1.91D-04 BMatP= 1.36D-04
 IDIUse=3 WtCom= 9.86D-01 WtEn= 1.39D-02
 Large coefficients: NSaved=  3 BigCof=   12.75 CofMax=   10.00 Det=-3.39D-08
 Inversion failed.  Reducing to  2 matrices.
 Coeff-Com:  0.975D+00 0.247D-01
 Coeff-En:   0.000D+00 0.100D+01
 Coeff:      0.962D+00 0.383D-01
 Gap=     0.338 Goal=   None    Shift=    0.000
 Gap=     0.221 Goal=   None    Shift=    0.000
 RMSDP=2.20D-03 MaxDP=7.71D-02 DE= 2.28D-03 OVMax= 1.82D-01

 Cycle  10  Pass 1  IDiag  1:
 Density matrix breaks symmetry, PCut= 1.00D-04
 Density matrix has no symmetry -- integrals replicated.
 E= -4361.70030511186     Delta-E=       -0.002580384945 Rises=F Damp=F
 DIIS: error= 1.39D-03 at cycle  10 NSaved=   3.
 NSaved= 3 IEnMin= 3 EnMin= -4361.70030511186     IErMin= 2 ErrMin= 1.31D-03
 ErrMax= 1.39D-03  0.00D+00 EMaxC= 1.00D-01 BMatC= 1.33D-04 BMatP= 1.37D-04
 IDIUse=3 WtCom= 9.86D-01 WtEn= 1.39D-02
 Coeff-Com:  0.273D+00-0.881D-01 0.815D+00
 Coeff-En:   0.000D+00 0.000D+00 0.100D+01
 Coeff:      0.269D+00-0.869D-01 0.818D+00
 Gap=     0.338 Goal=   None    Shift=    0.000
 Gap=     0.230 Goal=   None    Shift=    0.000
 RMSDP=4.45D-04 MaxDP=1.46D-02 DE=-2.58D-03 OVMax= 3.68D-02

 Cycle  11  Pass 1  IDiag  1:
 Density matrix breaks symmetry, PCut= 1.00D-04
 Density matrix has no symmetry -- integrals replicated.
 E= -4361.70083233409     Delta-E=       -0.000527222223 Rises=F Damp=F
 DIIS: error= 1.37D-03 at cycle  11 NSaved=   4.
 NSaved= 4 IEnMin= 4 EnMin= -4361.70083233409     IErMin= 2 ErrMin= 1.31D-03
 ErrMax= 1.37D-03  0.00D+00 EMaxC= 1.00D-01 BMatC= 1.32D-04 BMatP= 1.33D-04
 IDIUse=3 WtCom= 9.86D-01 WtEn= 1.37D-02
 Coeff-Com: -0.158D+01-0.775D+00-0.185D-01 0.338D+01
 Coeff-En:   0.000D+00 0.000D+00 0.000D+00 0.100D+01
 Coeff:     -0.156D+01-0.764D+00-0.182D-01 0.335D+01
 Gap=     0.343 Goal=   None    Shift=    0.000
 Gap=     0.240 Goal=   None    Shift=    0.000
 RMSDP=2.86D-03 MaxDP=8.03D-02 DE=-5.27D-04 OVMax= 2.34D-01

 Cycle  12  Pass 1  IDiag  1:
 Density matrix breaks symmetry, PCut= 1.00D-04
 Density matrix has no symmetry -- integrals replicated.
 E= -4361.70310086953     Delta-E=       -0.002268535443 Rises=F Damp=F
 DIIS: error= 1.80D-03 at cycle  12 NSaved=   5.
 NSaved= 5 IEnMin= 5 EnMin= -4361.70310086953     IErMin= 2 ErrMin= 1.31D-03
 ErrMax= 1.80D-03  0.00D+00 EMaxC= 1.00D-01 BMatC= 7.25D-04 BMatP= 1.32D-04
 IDIUse=3 WtCom= 9.86D-01 WtEn= 1.37D-02
 Coeff-Com:  0.180D+01-0.629D+00 0.122D+01-0.173D+01 0.340D+00
 Coeff-En:   0.000D+00 0.000D+00 0.000D+00 0.000D+00 0.100D+01
 Coeff:      0.178D+01-0.620D+00 0.120D+01-0.170D+01 0.349D+00
 Gap=     0.341 Goal=   None    Shift=    0.000
 Gap=     0.241 Goal=   None    Shift=    0.000
 RMSDP=1.82D-03 MaxDP=5.68D-02 DE=-2.27D-03 OVMax= 1.48D-01

 Cycle  13  Pass 1  IDiag  1:
 Density matrix breaks symmetry, PCut= 1.00D-04
 Density matrix has no symmetry -- integrals replicated.
 E= -4361.70201524533     Delta-E=        0.001085624196 Rises=F Damp=F
 DIIS: error= 1.06D-03 at cycle  13 NSaved=   6.
 NSaved= 6 IEnMin= 5 EnMin= -4361.70310086953     IErMin= 6 ErrMin= 1.06D-03
 ErrMax= 1.06D-03  0.00D+00 EMaxC= 1.00D-01 BMatC= 1.18D-04 BMatP= 1.32D-04
 IDIUse=3 WtCom= 9.89D-01 WtEn= 1.06D-02
 Rare condition: small coef for last iteration:  0.000D+00
 Coeff-Com:  0.523D+01-0.143D+00 0.298D+01-0.950D+01 0.392D+00 0.205D+01
 Coeff-En:   0.000D+00 0.000D+00 0.000D+00 0.000D+00 0.000D+00 0.100D+01
 Coeff:      0.523D+01-0.143D+00 0.298D+01-0.950D+01 0.392D+00 0.205D+01
 Gap=     0.339 Goal=   None    Shift=    0.000
 Gap=     0.226 Goal=   None    Shift=    0.000
 RMSDP=2.16D-03 MaxDP=7.03D-02 DE= 1.09D-03 OVMax= 1.81D-01

 Cycle  14  Pass 1  IDiag  1:
 Density matrix breaks symmetry, PCut= 1.00D-04
 Density matrix has no symmetry -- integrals replicated.
 E= -4361.69952741402     Delta-E=        0.002487831313 Rises=F Damp=F
 DIIS: error= 1.15D-03 at cycle  14 NSaved=   7.
 NSaved= 7 IEnMin= 5 EnMin= -4361.70310086953     IErMin= 6 ErrMin= 1.06D-03
 ErrMax= 1.15D-03  0.00D+00 EMaxC= 1.00D-01 BMatC= 2.29D-04 BMatP= 1.18D-04
 IDIUse=3 WtCom= 9.89D-01 WtEn= 1.06D-02
 Rare condition: small coef for last iteration:  0.000D+00
 Coeff-Com:  0.214D+01 0.702D+00 0.148D+01-0.580D+01 0.479D+00 0.102D+01
 Coeff-Com:  0.986D+00
 Coeff-En:   0.000D+00 0.000D+00 0.000D+00 0.000D+00 0.000D+00 0.000D+00
 Coeff-En:   0.100D+01
 Coeff:      0.214D+01 0.702D+00 0.148D+01-0.580D+01 0.479D+00 0.102D+01
 Coeff:      0.986D+00
 Gap=     0.335 Goal=   None    Shift=    0.000
 Gap=     0.214 Goal=   None    Shift=    0.000
 RMSDP=1.41D-03 MaxDP=5.07D-02 DE= 2.49D-03 OVMax= 1.21D-01

 Cycle  15  Pass 1  IDiag  1:
 Density matrix breaks symmetry, PCut= 1.00D-04
 Density matrix has no symmetry -- integrals replicated.
 E= -4361.69789080908     Delta-E=        0.001636604944 Rises=F Damp=F
 DIIS: error= 1.21D-03 at cycle  15 NSaved=   8.
 NSaved= 8 IEnMin= 5 EnMin= -4361.70310086953     IErMin= 6 ErrMin= 1.06D-03
 ErrMax= 1.21D-03  0.00D+00 EMaxC= 1.00D-01 BMatC= 1.89D-04 BMatP= 1.18D-04
 IDIUse=3 WtCom= 9.89D-01 WtEn= 1.06D-02
 Rare condition: small coef for last iteration:  0.000D+00
 Coeff-Com:  0.175D+01 0.955D+00 0.144D+01-0.568D+01 0.639D+00 0.593D+00
 Coeff-Com:  0.227D+01-0.965D+00
 Coeff-En:   0.000D+00 0.000D+00 0.000D+00 0.000D+00 0.000D+00 0.000D+00
 Coeff-En:   0.000D+00 0.100D+01
 Coeff:      0.175D+01 0.955D+00 0.144D+01-0.568D+01 0.639D+00 0.593D+00
 Coeff:      0.227D+01-0.965D+00
 Gap=     0.336 Goal=   None    Shift=    0.000
 Gap=     0.219 Goal=   None    Shift=    0.000
 RMSDP=6.61D-04 MaxDP=2.35D-02 DE= 1.64D-03 OVMax= 5.66D-02

 Cycle  16  Pass 1  IDiag  1:
 Density matrix breaks symmetry, PCut= 1.00D-04
 Density matrix has no symmetry -- integrals replicated.
 E= -4361.69863452110     Delta-E=       -0.000743712019 Rises=F Damp=F
 DIIS: error= 1.17D-03 at cycle  16 NSaved=   9.
 NSaved= 9 IEnMin= 5 EnMin= -4361.70310086953     IErMin= 6 ErrMin= 1.06D-03
 ErrMax= 1.17D-03  0.00D+00 EMaxC= 1.00D-01 BMatC= 2.21D-04 BMatP= 1.18D-04
 IDIUse=3 WtCom= 9.89D-01 WtEn= 1.06D-02
 Coeff-Com:  0.204D+00 0.101D+01 0.512D+00-0.358D+01 0.598D+00 0.481D+00
 Coeff-Com:  0.395D+01 0.135D+01-0.352D+01
 Coeff-En:   0.000D+00 0.000D+00 0.000D+00 0.000D+00 0.000D+00 0.000D+00
 Coeff-En:   0.000D+00 0.000D+00 0.100D+01
 Coeff:      0.202D+00 0.100D+01 0.506D+00-0.354D+01 0.592D+00 0.476D+00
 Coeff:      0.390D+01 0.134D+01-0.348D+01
 Gap=     0.336 Goal=   None    Shift=    0.000
 Gap=     0.208 Goal=   None    Shift=    0.000
 RMSDP=2.17D-04 MaxDP=7.54D-03 DE=-7.44D-04 OVMax= 1.45D-02

 Cycle  17  Pass 1  IDiag  1:
 Density matrix breaks symmetry, PCut= 1.00D-04
 Density matrix has no symmetry -- integrals replicated.
 E= -4361.69852972167     Delta-E=        0.000104799429 Rises=F Damp=F
 DIIS: error= 1.32D-03 at cycle  17 NSaved=  10.
 NSaved=10 IEnMin= 5 EnMin= -4361.70310086953     IErMin= 6 ErrMin= 1.06D-03
 ErrMax= 1.32D-03  0.00D+00 EMaxC= 1.00D-01 BMatC= 3.83D-04 BMatP= 1.18D-04
 IDIUse=3 WtCom= 9.89D-01 WtEn= 1.06D-02
 Rare condition: small coef for last iteration:  0.000D+00
 Coeff-Com: -0.132D+01 0.327D+01-0.947D+00-0.205D+01 0.605D+00 0.574D+00
 Coeff-Com:  0.146D+01-0.323D+01-0.923D+00 0.356D+01
 Coeff-En:   0.000D+00 0.000D+00 0.000D+00 0.000D+00 0.000D+00 0.000D+00
 Coeff-En:   0.000D+00 0.000D+00 0.000D+00 0.100D+01
 Coeff:     -0.132D+01 0.327D+01-0.947D+00-0.205D+01 0.605D+00 0.574D+00
 Coeff:      0.146D+01-0.323D+01-0.923D+00 0.356D+01
 Gap=     0.332 Goal=   None    Shift=    0.000
 Gap=     0.214 Goal=   None    Shift=    0.000
 RMSDP=1.70D-03 MaxDP=5.79D-02 DE= 1.05D-04 OVMax= 1.46D-01

 Cycle  18  Pass 1  IDiag  1:
 Density matrix breaks symmetry, PCut= 1.00D-04
 Density matrix has no symmetry -- integrals replicated.
 E= -4361.69671602986     Delta-E=        0.001813691803 Rises=F Damp=F
 DIIS: error= 1.20D-03 at cycle  18 NSaved=  11.
 NSaved=11 IEnMin= 5 EnMin= -4361.70310086953     IErMin= 6 ErrMin= 1.06D-03
 ErrMax= 1.20D-03  0.00D+00 EMaxC= 1.00D-01 BMatC= 1.64D-04 BMatP= 1.18D-04
 IDIUse=3 WtCom= 9.89D-01 WtEn= 1.06D-02
 Rare condition: small coef for last iteration:  0.000D+00
 Coeff-Com: -0.135D+01 0.325D+01-0.920D+00-0.203D+01 0.604D+00 0.566D+00
 Coeff-Com:  0.161D+01-0.328D+01-0.108D+01 0.354D+01 0.907D-01
 Coeff-En:   0.000D+00 0.000D+00 0.000D+00 0.000D+00 0.000D+00 0.000D+00
 Coeff-En:   0.000D+00 0.000D+00 0.000D+00 0.000D+00 0.100D+01
 Coeff:     -0.135D+01 0.325D+01-0.920D+00-0.203D+01 0.604D+00 0.566D+00
 Coeff:      0.161D+01-0.328D+01-0.108D+01 0.354D+01 0.907D-01
 Gap=     0.332 Goal=   None    Shift=    0.000
 Gap=     0.222 Goal=   None    Shift=    0.000
 RMSDP=4.00D-05 MaxDP=1.33D-03 DE= 1.81D-03 OVMax= 2.60D-03

 Cycle  19  Pass 1  IDiag  1:
 Density matrix breaks symmetry, PCut= 1.00D-04
 Density matrix has no symmetry -- integrals replicated.
 E= -4361.69673827169     Delta-E=       -0.000022241831 Rises=F Damp=F
 DIIS: error= 1.20D-03 at cycle  19 NSaved=  12.
 NSaved=12 IEnMin= 5 EnMin= -4361.70310086953     IErMin= 6 ErrMin= 1.06D-03
 ErrMax= 1.20D-03  0.00D+00 EMaxC= 1.00D-01 BMatC= 1.75D-04 BMatP= 1.18D-04
 IDIUse=3 WtCom= 9.89D-01 WtEn= 1.06D-02
 Large coefficients: NSaved= 12 BigCof=   10.90 CofMax=   10.00 Det=-1.77D-08
 Inversion failed.  Reducing to 11 matrices.
 Large coefficients: NSaved= 11 BigCof=   20.50 CofMax=   10.00 Det=-2.35D-08
 Inversion failed.  Reducing to 10 matrices.
 Large coefficients: NSaved= 10 BigCof=   20.54 CofMax=   10.00 Det=-2.35D-08
 Inversion failed.  Reducing to  9 matrices.
 Coeff-Com:  0.561D+00 0.153D+01-0.392D+01 0.648D+00 0.458D+00 0.519D+01
 Coeff-Com: -0.434D+01 0.658D+01-0.570D+01
 Coeff-En:   0.000D+00 0.000D+00 0.000D+00 0.000D+00 0.000D+00 0.000D+00
 Coeff-En:   0.000D+00 0.000D+00 0.100D+01
 Coeff:      0.555D+00 0.152D+01-0.388D+01 0.641D+00 0.453D+00 0.513D+01
 Coeff:     -0.430D+01 0.651D+01-0.563D+01
 Gap=     0.344 Goal=   None    Shift=    0.000
 Gap=     0.160 Goal=   None    Shift=    0.000
 RMSDP=4.14D-03 MaxDP=1.45D-01 DE=-2.22D-05 OVMax= 3.52D-01

 Cycle  20  Pass 1  IDiag  1:
 Density matrix breaks symmetry, PCut= 1.00D-04
 Density matrix has no symmetry -- integrals replicated.
 E= -4361.70153535465     Delta-E=       -0.004797082960 Rises=F Damp=F
 DIIS: error= 1.17D-03 at cycle  20 NSaved=  10.
 NSaved=10 IEnMin= 4 EnMin= -4361.70310086953     IErMin= 5 ErrMin= 1.06D-03
 ErrMax= 1.17D-03  0.00D+00 EMaxC= 1.00D-01 BMatC= 4.31D-04 BMatP= 1.18D-04
 IDIUse=3 WtCom= 9.89D-01 WtEn= 1.06D-02
 Coeff-Com:  0.472D+00 0.297D+00-0.232D+01 0.763D+00 0.561D+00 0.349D+00
 Coeff-Com: -0.876D+00 0.623D+01-0.588D+01 0.141D+01
 Coeff-En:   0.000D+00 0.000D+00 0.000D+00 0.000D+00 0.000D+00 0.000D+00
 Coeff-En:   0.000D+00 0.000D+00 0.000D+00 0.100D+01
 Coeff:      0.467D+00 0.294D+00-0.230D+01 0.755D+00 0.555D+00 0.346D+00
 Coeff:     -0.866D+00 0.616D+01-0.582D+01 0.141D+01
 Gap=     0.342 Goal=   None    Shift=    0.000
 Gap=     0.223 Goal=   None    Shift=    0.000
 RMSDP=2.57D-03 MaxDP=7.88D-02 DE=-4.80D-03 OVMax= 2.12D-01

 Cycle  21  Pass 1  IDiag  1:
 Density matrix breaks symmetry, PCut= 1.00D-04
 Density matrix has no symmetry -- integrals replicated.
 E= -4361.70341439227     Delta-E=       -0.001879037620 Rises=F Damp=F
 DIIS: error= 5.00D-04 at cycle  21 NSaved=  11.
 NSaved=11 IEnMin=11 EnMin= -4361.70341439227     IErMin=11 ErrMin= 5.00D-04
 ErrMax= 5.00D-04  0.00D+00 EMaxC= 1.00D-01 BMatC= 3.59D-05 BMatP= 1.18D-04
 IDIUse=3 WtCom= 9.95D-01 WtEn= 5.00D-03
 Coeff-Com:  0.801D+00-0.669D+00-0.963D+00-0.249D+00 0.120D+01-0.999D+00
 Coeff-Com:  0.176D+01-0.319D+01 0.290D+01-0.771D+00 0.118D+01
 Coeff-En:   0.000D+00 0.000D+00 0.000D+00 0.000D+00 0.000D+00 0.000D+00
 Coeff-En:   0.000D+00 0.000D+00 0.000D+00 0.000D+00 0.100D+01
 Coeff:      0.797D+00-0.666D+00-0.958D+00-0.248D+00 0.119D+01-0.994D+00
 Coeff:      0.175D+01-0.318D+01 0.289D+01-0.767D+00 0.117D+01
 Gap=     0.341 Goal=   None    Shift=    0.000
 Gap=     0.231 Goal=   None    Shift=    0.000
 RMSDP=5.35D-04 MaxDP=1.78D-02 DE=-1.88D-03 OVMax= 4.11D-02

 Cycle  22  Pass 1  IDiag  1:
 Density matrix breaks symmetry, PCut= 1.00D-04
 Density matrix has no symmetry -- integrals replicated.
 E= -4361.70324459628     Delta-E=        0.000169795997 Rises=F Damp=F
 DIIS: error= 6.14D-04 at cycle  22 NSaved=  12.
 NSaved=12 IEnMin=11 EnMin= -4361.70341439227     IErMin=11 ErrMin= 5.00D-04
 ErrMax= 6.14D-04  0.00D+00 EMaxC= 1.00D-01 BMatC= 1.06D-04 BMatP= 3.59D-05
 IDIUse=3 WtCom= 9.95D-01 WtEn= 5.00D-03
 Rare condition: small coef for last iteration:  0.000D+00
 Coeff-Com:  0.103D+00 0.202D+00-0.421D+00 0.318D+00-0.256D+00-0.887D+00
 Coeff-Com:  0.128D+01-0.586D+00 0.150D+00-0.169D+00 0.194D+00 0.108D+01
 Coeff-En:   0.000D+00 0.000D+00 0.000D+00 0.000D+00 0.000D+00 0.000D+00
 Coeff-En:   0.000D+00 0.000D+00 0.000D+00 0.000D+00 0.000D+00 0.100D+01
 Coeff:      0.103D+00 0.202D+00-0.421D+00 0.318D+00-0.256D+00-0.887D+00
 Coeff:      0.128D+01-0.586D+00 0.150D+00-0.169D+00 0.194D+00 0.108D+01
 Gap=     0.343 Goal=   None    Shift=    0.000
 Gap=     0.263 Goal=   None    Shift=    0.000
 RMSDP=1.13D-03 MaxDP=4.36D-02 DE= 1.70D-04 OVMax= 9.38D-02

 Cycle  23  Pass 1  IDiag  1:
 Density matrix breaks symmetry, PCut= 1.00D-04
 Density matrix has no symmetry -- integrals replicated.
 E= -4361.70345664934     Delta-E=       -0.000212053065 Rises=F Damp=F
 DIIS: error= 7.60D-04 at cycle  23 NSaved=  13.
 NSaved=13 IEnMin=13 EnMin= -4361.70345664934     IErMin=11 ErrMin= 5.00D-04
 ErrMax= 7.60D-04  0.00D+00 EMaxC= 1.00D-01 BMatC= 1.18D-04 BMatP= 3.59D-05
 IDIUse=3 WtCom= 9.95D-01 WtEn= 5.00D-03
 Coeff-Com:  0.184D+00 0.198D+00-0.478D+00 0.316D+00-0.239D+00-0.102D+01
 Coeff-Com:  0.133D+01-0.528D+00 0.968D-01-0.103D+00 0.168D+00 0.105D+01
 Coeff-Com:  0.268D-01
 Coeff-En:   0.000D+00 0.000D+00 0.000D+00 0.000D+00 0.000D+00 0.000D+00
 Coeff-En:   0.000D+00 0.000D+00 0.000D+00 0.000D+00 0.000D+00 0.000D+00
 Coeff-En:   0.100D+01
 Coeff:      0.183D+00 0.197D+00-0.476D+00 0.314D+00-0.238D+00-0.102D+01
 Coeff:      0.133D+01-0.525D+00 0.963D-01-0.102D+00 0.167D+00 0.105D+01
 Coeff:      0.317D-01
 Gap=     0.341 Goal=   None    Shift=    0.000
 Gap=     0.248 Goal=   None    Shift=    0.000
 RMSDP=1.48D-05 MaxDP=5.98D-04 DE=-2.12D-04 OVMax= 1.20D-03

 Cycle  24  Pass 1  IDiag  1:
 Density matrix breaks symmetry, PCut= 1.00D-04
 Density matrix has no symmetry -- integrals replicated.
 E= -4361.70345981520     Delta-E=       -0.000003165862 Rises=F Damp=F
 DIIS: error= 7.19D-04 at cycle  24 NSaved=  14.
 NSaved=14 IEnMin=14 EnMin= -4361.70345981520     IErMin=11 ErrMin= 5.00D-04
 ErrMax= 7.19D-04  0.00D+00 EMaxC= 1.00D-01 BMatC= 1.06D-04 BMatP= 3.59D-05
 IDIUse=3 WtCom= 9.95D-01 WtEn= 5.00D-03
 Coeff-Com:  0.158D+00 0.217D+00-0.520D+00 0.235D+00-0.911D-01-0.868D+00
 Coeff-Com:  0.110D+01-0.612D+00 0.244D+00-0.337D-01 0.853D-01 0.762D+00
 Coeff-Com: -0.515D+01 0.547D+01
 Coeff-En:   0.000D+00 0.000D+00 0.000D+00 0.000D+00 0.000D+00 0.000D+00
 Coeff-En:   0.000D+00 0.000D+00 0.000D+00 0.000D+00 0.000D+00 0.000D+00
 Coeff-En:   0.000D+00 0.100D+01
 Coeff:      0.157D+00 0.216D+00-0.517D+00 0.234D+00-0.906D-01-0.863D+00
 Coeff:      0.110D+01-0.609D+00 0.243D+00-0.336D-01 0.848D-01 0.758D+00
 Coeff:     -0.512D+01 0.545D+01
 Gap=     0.341 Goal=   None    Shift=    0.000
 Gap=     0.248 Goal=   None    Shift=    0.000
 RMSDP=3.83D-05 MaxDP=1.30D-03 DE=-3.17D-06 OVMax= 3.02D-03

 Cycle  25  Pass 1  IDiag  1:
 Density matrix breaks symmetry, PCut= 1.00D-04
 Density matrix has no symmetry -- integrals replicated.
 E= -4361.70346201129     Delta-E=       -0.000002196082 Rises=F Damp=F
 DIIS: error= 6.82D-04 at cycle  25 NSaved=  15.
 NSaved=15 IEnMin=15 EnMin= -4361.70346201129     IErMin=11 ErrMin= 5.00D-04
 ErrMax= 6.82D-04  0.00D+00 EMaxC= 1.00D-01 BMatC= 9.35D-05 BMatP= 3.59D-05
 IDIUse=3 WtCom= 9.95D-01 WtEn= 5.00D-03
 Coeff-Com:  0.632D-01 0.121D+00-0.700D-01 0.129D+00-0.266D+00-0.337D+00
 Coeff-Com:  0.780D+00-0.873D+00 0.533D+00-0.390D+00 0.214D+00 0.984D+00
 Coeff-Com:  0.564D+01-0.992D+01 0.438D+01
 Coeff-En:   0.000D+00 0.000D+00 0.000D+00 0.000D+00 0.000D+00 0.000D+00
 Coeff-En:   0.000D+00 0.000D+00 0.000D+00 0.000D+00 0.000D+00 0.000D+00
 Coeff-En:   0.000D+00 0.000D+00 0.100D+01
 Coeff:      0.629D-01 0.120D+00-0.696D-01 0.128D+00-0.265D+00-0.336D+00
 Coeff:      0.776D+00-0.868D+00 0.530D+00-0.388D+00 0.213D+00 0.979D+00
 Coeff:      0.562D+01-0.987D+01 0.437D+01
 Gap=     0.341 Goal=   None    Shift=    0.000
 Gap=     0.246 Goal=   None    Shift=    0.000
 RMSDP=1.29D-04 MaxDP=4.49D-03 DE=-2.20D-06 OVMax= 8.89D-03

 Cycle  26  Pass 1  IDiag  1:
 Density matrix breaks symmetry, PCut= 1.00D-04
 Density matrix has no symmetry -- integrals replicated.
 E= -4361.70347778652     Delta-E=       -0.000015775237 Rises=F Damp=F
 DIIS: error= 4.50D-04 at cycle  26 NSaved=  16.
 NSaved=16 IEnMin=16 EnMin= -4361.70347778652     IErMin=16 ErrMin= 4.50D-04
 ErrMax= 4.50D-04  0.00D+00 EMaxC= 1.00D-01 BMatC= 4.38D-05 BMatP= 3.59D-05
 IDIUse=3 WtCom= 9.95D-01 WtEn= 5.00D-03
 Coeff-Com:  0.468D-01 0.825D-02 0.170D+00-0.117D+00-0.264D+00 0.605D-01
 Coeff-Com:  0.512D+00-0.238D+00-0.534D-01-0.381D+00 0.515D+00-0.932D-01
 Coeff-Com:  0.325D+00-0.303D+01 0.161D+01 0.193D+01
 Coeff-En:   0.000D+00 0.000D+00 0.000D+00 0.000D+00 0.000D+00 0.000D+00
 Coeff-En:   0.000D+00 0.000D+00 0.000D+00 0.000D+00 0.000D+00 0.000D+00
 Coeff-En:   0.000D+00 0.000D+00 0.000D+00 0.100D+01
 Coeff:      0.466D-01 0.821D-02 0.169D+00-0.117D+00-0.262D+00 0.602D-01
 Coeff:      0.509D+00-0.237D+00-0.532D-01-0.379D+00 0.513D+00-0.927D-01
 Coeff:      0.324D+00-0.301D+01 0.160D+01 0.192D+01
 Gap=     0.342 Goal=   None    Shift=    0.000
 Gap=     0.245 Goal=   None    Shift=    0.000
 RMSDP=1.98D-04 MaxDP=6.60D-03 DE=-1.58D-05 OVMax= 1.22D-02

 Cycle  27  Pass 1  IDiag  1:
 Density matrix breaks symmetry, PCut= 1.00D-04
 Density matrix has no symmetry -- integrals replicated.
 E= -4361.70348198305     Delta-E=       -0.000004196528 Rises=F Damp=F
 DIIS: error= 3.46D-04 at cycle  27 NSaved=  17.
 NSaved=17 IEnMin=17 EnMin= -4361.70348198305     IErMin=17 ErrMin= 3.46D-04
 ErrMax= 3.46D-04  0.00D+00 EMaxC= 1.00D-01 BMatC= 1.41D-05 BMatP= 3.59D-05
 IDIUse=3 WtCom= 9.97D-01 WtEn= 3.46D-03
 Coeff-Com:  0.124D+00-0.718D-01 0.224D+00-0.485D-01-0.380D+00 0.198D+00
 Coeff-Com:  0.307D+00 0.271D-01-0.270D+00-0.352D+00 0.456D+00 0.725D-02
 Coeff-Com:  0.351D+01-0.654D+01 0.358D+01-0.109D+01 0.131D+01
 Coeff-En:   0.000D+00 0.000D+00 0.000D+00 0.000D+00 0.000D+00 0.000D+00
 Coeff-En:   0.000D+00 0.000D+00 0.000D+00 0.000D+00 0.000D+00 0.000D+00
 Coeff-En:   0.000D+00 0.000D+00 0.000D+00 0.000D+00 0.100D+01
 Coeff:      0.124D+00-0.716D-01 0.224D+00-0.483D-01-0.378D+00 0.197D+00
 Coeff:      0.306D+00 0.270D-01-0.269D+00-0.351D+00 0.455D+00 0.722D-02
 Coeff:      0.350D+01-0.651D+01 0.356D+01-0.109D+01 0.131D+01
 Gap=     0.342 Goal=   None    Shift=    0.000
 Gap=     0.245 Goal=   None    Shift=    0.000
 RMSDP=5.33D-05 MaxDP=1.81D-03 DE=-4.20D-06 OVMax= 3.39D-03

 Cycle  28  Pass 1  IDiag  1:
 Density matrix breaks symmetry, PCut= 1.00D-04
 Density matrix has no symmetry -- integrals replicated.
 E= -4361.70348583026     Delta-E=       -0.000003847210 Rises=F Damp=F
 DIIS: error= 3.20D-04 at cycle  28 NSaved=  18.
 NSaved=18 IEnMin=18 EnMin= -4361.70348583026     IErMin=18 ErrMin= 3.20D-04
 ErrMax= 3.20D-04  0.00D+00 EMaxC= 1.00D-01 BMatC= 1.23D-05 BMatP= 1.41D-05
 IDIUse=3 WtCom= 9.97D-01 WtEn= 3.20D-03
 Coeff-Com: -0.167D+00 0.107D+00 0.833D-01 0.858D-02-0.126D+00 0.392D+00
 Coeff-Com: -0.845D-01-0.161D+00 0.110D+00-0.332D+00 0.242D+00 0.273D+00
 Coeff-Com:  0.473D+00-0.231D+01 0.262D+01-0.124D+01-0.349D+01 0.459D+01
 Coeff-En:   0.000D+00 0.000D+00 0.000D+00 0.000D+00 0.000D+00 0.000D+00
 Coeff-En:   0.000D+00 0.000D+00 0.000D+00 0.000D+00 0.000D+00 0.000D+00
 Coeff-En:   0.000D+00 0.000D+00 0.000D+00 0.000D+00 0.000D+00 0.100D+01
 Coeff:     -0.167D+00 0.107D+00 0.831D-01 0.856D-02-0.126D+00 0.391D+00
 Coeff:     -0.843D-01-0.161D+00 0.109D+00-0.331D+00 0.242D+00 0.272D+00
 Coeff:      0.472D+00-0.230D+01 0.261D+01-0.123D+01-0.348D+01 0.458D+01
 Gap=     0.342 Goal=   None    Shift=    0.000
 Gap=     0.246 Goal=   None    Shift=    0.000
 RMSDP=1.83D-04 MaxDP=5.44D-03 DE=-3.85D-06 OVMax= 1.27D-02

 Cycle  29  Pass 1  IDiag  1:
 Density matrix breaks symmetry, PCut= 1.00D-04
 Density matrix has no symmetry -- integrals replicated.
 E= -4361.70349665116     Delta-E=       -0.000010820903 Rises=F Damp=F
 DIIS: error= 1.50D-04 at cycle  29 NSaved=  19.
 NSaved=19 IEnMin=19 EnMin= -4361.70349665116     IErMin=19 ErrMin= 1.50D-04
 ErrMax= 1.50D-04  0.00D+00 EMaxC= 1.00D-01 BMatC= 1.64D-06 BMatP= 1.23D-05
 IDIUse=3 WtCom= 9.99D-01 WtEn= 1.50D-03
 Coeff-Com:  0.160D-01 0.118D-01-0.454D-01 0.373D-01-0.411D-01 0.621D-01
 Coeff-Com:  0.197D-02-0.375D-01 0.324D-01-0.601D-01 0.247D-01 0.612D-01
 Coeff-Com:  0.753D-02-0.813D+00 0.828D+00-0.157D+00 0.667D+00-0.943D+00
 Coeff-Com:  0.135D+01
 Coeff-En:   0.000D+00 0.000D+00 0.000D+00 0.000D+00 0.000D+00 0.000D+00
 Coeff-En:   0.000D+00 0.000D+00 0.000D+00 0.000D+00 0.000D+00 0.000D+00
 Coeff-En:   0.000D+00 0.000D+00 0.000D+00 0.000D+00 0.000D+00 0.000D+00
 Coeff-En:   0.100D+01
 Coeff:      0.159D-01 0.118D-01-0.454D-01 0.372D-01-0.411D-01 0.620D-01
 Coeff:      0.197D-02-0.375D-01 0.324D-01-0.600D-01 0.247D-01 0.611D-01
 Coeff:      0.752D-02-0.812D+00 0.827D+00-0.157D+00 0.666D+00-0.941D+00
 Coeff:      0.135D+01
 Gap=     0.342 Goal=   None    Shift=    0.000
 Gap=     0.247 Goal=   None    Shift=    0.000
 RMSDP=3.92D-05 MaxDP=1.00D-03 DE=-1.08D-05 OVMax= 2.24D-03

 Cycle  30  Pass 1  IDiag  1:
 Density matrix breaks symmetry, PCut= 1.00D-04
 Density matrix has no symmetry -- integrals replicated.
 E= -4361.70349785818     Delta-E=       -0.000001207019 Rises=F Damp=F
 DIIS: error= 4.45D-05 at cycle  30 NSaved=  20.
 NSaved=20 IEnMin=20 EnMin= -4361.70349785818     IErMin=20 ErrMin= 4.45D-05
 ErrMax= 4.45D-05  0.00D+00 EMaxC= 1.00D-01 BMatC= 4.07D-07 BMatP= 1.64D-06
 IDIUse=1 WtCom= 1.00D+00 WtEn= 0.00D+00
 Coeff-Com:  0.291D-02 0.307D-02-0.177D-01 0.163D-01-0.263D-01 0.626D-01
 Coeff-Com: -0.234D-01 0.453D-01-0.426D-01-0.230D-01 0.168D-01-0.320D-01
 Coeff-Com:  0.592D+00-0.589D+00-0.689D-01 0.999D-01-0.340D-01 0.100D+00
 Coeff-Com: -0.557D+00 0.147D+01
 Coeff:      0.291D-02 0.307D-02-0.177D-01 0.163D-01-0.263D-01 0.626D-01
 Coeff:     -0.234D-01 0.453D-01-0.426D-01-0.230D-01 0.168D-01-0.320D-01
 Coeff:      0.592D+00-0.589D+00-0.689D-01 0.999D-01-0.340D-01 0.100D+00
 Coeff:     -0.557D+00 0.147D+01
 Gap=     0.342 Goal=   None    Shift=    0.000
 Gap=     0.246 Goal=   None    Shift=    0.000
 RMSDP=1.69D-05 MaxDP=6.55D-04 DE=-1.21D-06 OVMax= 1.42D-03

 Cycle  31  Pass 1  IDiag  1:
 Density matrix breaks symmetry, PCut= 1.00D-04
 Density matrix has no symmetry -- integrals replicated.
 E= -4361.70349819109     Delta-E=       -0.000000332911 Rises=F Damp=F
 DIIS: error= 3.54D-05 at cycle  31 NSaved=  20.
 NSaved=20 IEnMin=20 EnMin= -4361.70349819109     IErMin=20 ErrMin= 3.54D-05
 ErrMax= 3.54D-05  0.00D+00 EMaxC= 1.00D-01 BMatC= 2.88D-07 BMatP= 4.07D-07
 IDIUse=1 WtCom= 1.00D+00 WtEn= 0.00D+00
 Coeff-Com:  0.299D-02 0.528D-02-0.136D-01 0.551D-02-0.138D-02 0.122D-01
 Coeff-Com: -0.247D-02-0.141D-03-0.120D-01-0.212D-02 0.253D-01-0.179D-01
 Coeff-Com: -0.130D+00 0.155D+00 0.503D-01-0.779D-01-0.434D-01 0.269D+00
 Coeff-Com: -0.158D+01 0.235D+01
 Coeff:      0.299D-02 0.528D-02-0.136D-01 0.551D-02-0.138D-02 0.122D-01
 Coeff:     -0.247D-02-0.141D-03-0.120D-01-0.212D-02 0.253D-01-0.179D-01
 Coeff:     -0.130D+00 0.155D+00 0.503D-01-0.779D-01-0.434D-01 0.269D+00
 Coeff:     -0.158D+01 0.235D+01
 Gap=     0.342 Goal=   None    Shift=    0.000
 Gap=     0.247 Goal=   None    Shift=    0.000
 RMSDP=2.56D-05 MaxDP=1.01D-03 DE=-3.33D-07 OVMax= 2.11D-03

 Cycle  32  Pass 1  IDiag  1:
 Density matrix breaks symmetry, PCut= 1.00D-04
 Density matrix has no symmetry -- integrals replicated.
 E= -4361.70349846981     Delta-E=       -0.000000278712 Rises=F Damp=F
 DIIS: error= 6.65D-06 at cycle  32 NSaved=  20.
 NSaved=20 IEnMin=20 EnMin= -4361.70349846981     IErMin=20 ErrMin= 6.65D-06
 ErrMax= 6.65D-06  0.00D+00 EMaxC= 1.00D-01 BMatC= 1.16D-08 BMatP= 2.88D-07
 IDIUse=1 WtCom= 1.00D+00 WtEn= 0.00D+00
 Coeff-Com:  0.126D-02-0.148D-02-0.257D-02 0.278D-02 0.716D-03-0.120D-03
 Coeff-Com: -0.242D-03 0.308D-03 0.418D-05 0.242D-02 0.619D-01-0.634D-01
 Coeff-Com:  0.381D-01-0.789D-01 0.257D-01 0.197D-01-0.309D-01 0.218D+00
 Coeff-Com: -0.581D+00 0.139D+01
 Coeff:      0.126D-02-0.148D-02-0.257D-02 0.278D-02 0.716D-03-0.120D-03
 Coeff:     -0.242D-03 0.308D-03 0.418D-05 0.242D-02 0.619D-01-0.634D-01
 Coeff:      0.381D-01-0.789D-01 0.257D-01 0.197D-01-0.309D-01 0.218D+00
 Coeff:     -0.581D+00 0.139D+01
 Gap=     0.342 Goal=   None    Shift=    0.000
 Gap=     0.247 Goal=   None    Shift=    0.000
 RMSDP=8.94D-06 MaxDP=3.66D-04 DE=-2.79D-07 OVMax= 7.57D-04

 Cycle  33  Pass 1  IDiag  1:
 Density matrix breaks symmetry, PCut= 1.00D-04
 Density matrix has no symmetry -- integrals replicated.
 E= -4361.70349848288     Delta-E=       -0.000000013078 Rises=F Damp=F
 DIIS: error= 3.79D-06 at cycle  33 NSaved=  20.
 NSaved=20 IEnMin=20 EnMin= -4361.70349848288     IErMin=20 ErrMin= 3.79D-06
 ErrMax= 3.79D-06  0.00D+00 EMaxC= 1.00D-01 BMatC= 3.29D-09 BMatP= 1.16D-08
 IDIUse=1 WtCom= 1.00D+00 WtEn= 0.00D+00
 Coeff-Com: -0.245D-02 0.140D-02 0.184D-02-0.208D-03-0.138D-02 0.644D-03
 Coeff-Com: -0.903D-03 0.164D-02 0.950D-03-0.425D-02-0.472D-02-0.309D-02
 Coeff-Com:  0.613D-02-0.390D-02 0.208D-01-0.270D-01 0.112D+00-0.261D-01
 Coeff-Com: -0.593D+00 0.152D+01
 Coeff:     -0.245D-02 0.140D-02 0.184D-02-0.208D-03-0.138D-02 0.644D-03
 Coeff:     -0.903D-03 0.164D-02 0.950D-03-0.425D-02-0.472D-02-0.309D-02
 Coeff:      0.613D-02-0.390D-02 0.208D-01-0.270D-01 0.112D+00-0.261D-01
 Coeff:     -0.593D+00 0.152D+01
 Gap=     0.342 Goal=   None    Shift=    0.000
 Gap=     0.247 Goal=   None    Shift=    0.000
 RMSDP=1.82D-06 MaxDP=7.31D-05 DE=-1.31D-08 OVMax= 1.55D-04

 Cycle  34  Pass 1  IDiag  1:
 Density matrix breaks symmetry, PCut= 1.00D-04
 Density matrix has no symmetry -- integrals replicated.
 E= -4361.70349848430     Delta-E=       -0.000000001414 Rises=F Damp=F
 DIIS: error= 2.73D-07 at cycle  34 NSaved=  20.
 NSaved=20 IEnMin=20 EnMin= -4361.70349848430     IErMin=20 ErrMin= 2.73D-07
 ErrMax= 2.73D-07  0.00D+00 EMaxC= 1.00D-01 BMatC= 1.42D-11 BMatP= 3.29D-09
 IDIUse=1 WtCom= 1.00D+00 WtEn= 0.00D+00
 Coeff-Com: -0.144D-03 0.144D-03-0.176D-04 0.777D-04-0.826D-04-0.101D-03
 Coeff-Com: -0.842D-04 0.844D-03-0.869D-02 0.879D-02 0.601D-03 0.349D-04
 Coeff-Com: -0.589D-02 0.217D-02 0.143D-01-0.325D-01-0.379D-02 0.879D-01
 Coeff-Com: -0.204D+00 0.114D+01
 Coeff:     -0.144D-03 0.144D-03-0.176D-04 0.777D-04-0.826D-04-0.101D-03
 Coeff:     -0.842D-04 0.844D-03-0.869D-02 0.879D-02 0.601D-03 0.349D-04
 Coeff:     -0.589D-02 0.217D-02 0.143D-01-0.325D-01-0.379D-02 0.879D-01
 Coeff:     -0.204D+00 0.114D+01
 Gap=     0.342 Goal=   None    Shift=    0.000
 Gap=     0.247 Goal=   None    Shift=    0.000
 RMSDP=1.87D-07 MaxDP=7.09D-06 DE=-1.41D-09 OVMax= 1.50D-05

 Cycle  35  Pass 1  IDiag  1:
 Density matrix breaks symmetry, PCut= 1.00D-04
 Density matrix has no symmetry -- integrals replicated.
 E= -4361.70349848431     Delta-E=       -0.000000000014 Rises=F Damp=F
 DIIS: error= 3.17D-07 at cycle  35 NSaved=  20.
 NSaved=20 IEnMin=20 EnMin= -4361.70349848431     IErMin=19 ErrMin= 2.73D-07
 ErrMax= 3.17D-07  0.00D+00 EMaxC= 1.00D-01 BMatC= 1.43D-11 BMatP= 1.42D-11
 IDIUse=1 WtCom= 1.00D+00 WtEn= 0.00D+00
 Coeff-Com: -0.141D-04-0.994D-05 0.917D-04-0.658D-04-0.432D-04 0.111D-03
 Coeff-Com:  0.147D-03 0.198D-02-0.428D-02 0.258D-02-0.187D-02 0.256D-02
 Coeff-Com: -0.120D-02 0.425D-03 0.110D-01-0.133D-01-0.320D-02 0.360D-01
 Coeff-Com: -0.277D+00 0.125D+01
 Coeff:     -0.141D-04-0.994D-05 0.917D-04-0.658D-04-0.432D-04 0.111D-03
 Coeff:      0.147D-03 0.198D-02-0.428D-02 0.258D-02-0.187D-02 0.256D-02
 Coeff:     -0.120D-02 0.425D-03 0.110D-01-0.133D-01-0.320D-02 0.360D-01
 Coeff:     -0.277D+00 0.125D+01
 Gap=     0.342 Goal=   None    Shift=    0.000
 Gap=     0.247 Goal=   None    Shift=    0.000
 RMSDP=1.29D-07 MaxDP=4.08D-06 DE=-1.36D-11 OVMax= 1.02D-05

 Cycle  36  Pass 1  IDiag  1:
 Density matrix breaks symmetry, PCut= 1.00D-04
 Density matrix has no symmetry -- integrals replicated.
 E= -4361.70349848436     Delta-E=       -0.000000000051 Rises=F Damp=F
 DIIS: error= 3.20D-07 at cycle  36 NSaved=  20.
 NSaved=20 IEnMin=20 EnMin= -4361.70349848436     IErMin=18 ErrMin= 2.73D-07
 ErrMax= 3.20D-07  0.00D+00 EMaxC= 1.00D-01 BMatC= 1.14D-11 BMatP= 1.42D-11
 IDIUse=1 WtCom= 1.00D+00 WtEn= 0.00D+00
 Large coefficients: NSaved= 20 BigCof=    0.00 CofMax=   10.00 Det=-5.67D-15
 Inversion failed.  Reducing to 19 matrices.
 Large coefficients: NSaved= 19 BigCof=    0.00 CofMax=   10.00 Det=-5.72D-15
 Inversion failed.  Reducing to 18 matrices.
 Large coefficients: NSaved= 18 BigCof=    0.00 CofMax=   10.00 Det=-5.75D-15
 Inversion failed.  Reducing to 17 matrices.
 Large coefficients: NSaved= 17 BigCof=    0.00 CofMax=   10.00 Det=-5.76D-15
 Inversion failed.  Reducing to 16 matrices.
 Large coefficients: NSaved= 16 BigCof=    0.00 CofMax=   10.00 Det=-5.79D-15
 Inversion failed.  Reducing to 15 matrices.
 Coeff-Com:  0.417D-04-0.332D-02 0.207D-02 0.101D-02-0.303D-04 0.157D-02
 Coeff-Com: -0.220D-02 0.407D-02-0.392D-02-0.122D-02 0.328D-02-0.884D-02
 Coeff-Com:  0.235D-01 0.254D+00 0.730D+00
 Coeff:      0.417D-04-0.332D-02 0.207D-02 0.101D-02-0.303D-04 0.157D-02
 Coeff:     -0.220D-02 0.407D-02-0.392D-02-0.122D-02 0.328D-02-0.884D-02
 Coeff:      0.235D-01 0.254D+00 0.730D+00
 Gap=     0.342 Goal=   None    Shift=    0.000
 Gap=     0.247 Goal=   None    Shift=    0.000
 RMSDP=8.00D-08 MaxDP=2.54D-06 DE=-5.09D-11 OVMax= 7.04D-06

 Cycle  37  Pass 1  IDiag  1:
 Density matrix breaks symmetry, PCut= 1.00D-04
 Density matrix has no symmetry -- integrals replicated.
 E= -4361.70349848439     Delta-E=       -0.000000000024 Rises=F Damp=F
 DIIS: error= 2.95D-07 at cycle  37 NSaved=  16.
 NSaved=16 IEnMin=16 EnMin= -4361.70349848439     IErMin=13 ErrMin= 2.73D-07
 ErrMax= 2.95D-07  0.00D+00 EMaxC= 1.00D-01 BMatC= 8.61D-12 BMatP= 1.14D-11
 IDIUse=1 WtCom= 1.00D+00 WtEn= 0.00D+00
 Large coefficients: NSaved= 16 BigCof=    0.00 CofMax=   10.00 Det=-2.21D-15
 Inversion failed.  Reducing to 15 matrices.
 Coeff-Com: -0.413D-02 0.321D-02 0.621D-03 0.199D-03 0.170D-02-0.268D-02
 Coeff-Com:  0.463D-02-0.685D-02 0.414D-03 0.993D-02-0.365D-01 0.111D+00
 Coeff-Com:  0.110D+00 0.147D+01-0.663D+00
 Coeff:     -0.413D-02 0.321D-02 0.621D-03 0.199D-03 0.170D-02-0.268D-02
 Coeff:      0.463D-02-0.685D-02 0.414D-03 0.993D-02-0.365D-01 0.111D+00
 Coeff:      0.110D+00 0.147D+01-0.663D+00
 Gap=     0.342 Goal=   None    Shift=    0.000
 Gap=     0.247 Goal=   None    Shift=    0.000
 RMSDP=3.79D-08 MaxDP=1.25D-06 DE=-2.36D-11 OVMax= 3.27D-06

 Cycle  38  Pass 1  IDiag  1:
 Density matrix breaks symmetry, PCut= 1.00D-04
 Density matrix has no symmetry -- integrals replicated.
 E= -4361.70349848437     Delta-E=        0.000000000013 Rises=F Damp=F
 DIIS: error= 3.05D-07 at cycle  38 NSaved=  16.
 NSaved=16 IEnMin=15 EnMin= -4361.70349848439     IErMin=12 ErrMin= 2.73D-07
 ErrMax= 3.05D-07  0.00D+00 EMaxC= 1.00D-01 BMatC= 8.62D-12 BMatP= 8.61D-12
 IDIUse=1 WtCom= 1.00D+00 WtEn= 0.00D+00
 Large coefficients: NSaved= 16 BigCof=    0.00 CofMax=   10.00 Det=-1.46D-15
 Inversion failed.  Reducing to 15 matrices.
 Coeff-Com: -0.154D-02 0.793D-03 0.491D-03 0.232D-02-0.263D-02 0.175D-02
 Coeff-Com: -0.158D-02 0.335D-03-0.151D-02-0.302D-01-0.146D-01 0.889D+00
 Coeff-Com:  0.202D+01 0.778D+00-0.264D+01
 Coeff:     -0.154D-02 0.793D-03 0.491D-03 0.232D-02-0.263D-02 0.175D-02
 Coeff:     -0.158D-02 0.335D-03-0.151D-02-0.302D-01-0.146D-01 0.889D+00
 Coeff:      0.202D+01 0.778D+00-0.264D+01
 Gap=     0.342 Goal=   None    Shift=    0.000
 Gap=     0.247 Goal=   None    Shift=    0.000
 RMSDP=4.39D-08 MaxDP=1.21D-06 DE= 1.27D-11 OVMax= 3.20D-06

 Cycle  39  Pass 1  IDiag  1:
 Density matrix breaks symmetry, PCut= 1.00D-04
 Density matrix has no symmetry -- integrals replicated.
 E= -4361.70349848436     Delta-E=        0.000000000014 Rises=F Damp=F
 DIIS: error= 2.96D-07 at cycle  39 NSaved=  16.
 NSaved=16 IEnMin=14 EnMin= -4361.70349848439     IErMin=11 ErrMin= 2.73D-07
 ErrMax= 2.96D-07  0.00D+00 EMaxC= 1.00D-01 BMatC= 8.62D-12 BMatP= 8.61D-12
 IDIUse=1 WtCom= 1.00D+00 WtEn= 0.00D+00
 Large coefficients: NSaved= 16 BigCof=    0.00 CofMax=   10.00 Det=-9.32D-16
 Inversion failed.  Reducing to 15 matrices.
 Coeff-Com: -0.119D-02 0.942D-03 0.248D-02-0.316D-02 0.301D-02-0.142D-01
 Coeff-Com:  0.138D-02 0.394D-01-0.181D+00 0.477D+00 0.150D+00 0.752D+01
 Coeff-Com:  0.734D+01-0.497D+01-0.936D+01
 Coeff:     -0.119D-02 0.942D-03 0.248D-02-0.316D-02 0.301D-02-0.142D-01
 Coeff:      0.138D-02 0.394D-01-0.181D+00 0.477D+00 0.150D+00 0.752D+01
 Coeff:      0.734D+01-0.497D+01-0.936D+01
 Gap=     0.342 Goal=   None    Shift=    0.000
 Gap=     0.247 Goal=   None    Shift=    0.000
 RMSDP=4.88D-07 MaxDP=1.47D-05 DE= 1.36D-11 OVMax= 3.77D-05

 Cycle  40  Pass 1  IDiag  1:
 Density matrix breaks symmetry, PCut= 1.00D-04
 Density matrix has no symmetry -- integrals replicated.
 E= -4361.70349848453     Delta-E=       -0.000000000171 Rises=F Damp=F
 DIIS: error= 3.00D-07 at cycle  40 NSaved=  16.
 NSaved=16 IEnMin=16 EnMin= -4361.70349848453     IErMin=10 ErrMin= 2.73D-07
 ErrMax= 3.00D-07  0.00D+00 EMaxC= 1.00D-01 BMatC= 8.61D-12 BMatP= 8.61D-12
 IDIUse=1 WtCom= 1.00D+00 WtEn= 0.00D+00
 Large coefficients: NSaved= 16 BigCof=    0.00 CofMax=   10.00 Det=-6.02D-16
 Inversion failed.  Reducing to 15 matrices.
 Coeff-Com: -0.759D-03 0.148D-02-0.109D-02 0.180D-02-0.926D-02-0.700D-02
 Coeff-Com:  0.526D-01-0.156D+00 0.294D+00 0.376D-01 0.601D+01 0.398D+01
 Coeff-Com: -0.766D+01-0.517D+01 0.362D+01
 Coeff:     -0.759D-03 0.148D-02-0.109D-02 0.180D-02-0.926D-02-0.700D-02
 Coeff:      0.526D-01-0.156D+00 0.294D+00 0.376D-01 0.601D+01 0.398D+01
 Coeff:     -0.766D+01-0.517D+01 0.362D+01
 Gap=     0.342 Goal=   None    Shift=    0.000
 Gap=     0.247 Goal=   None    Shift=    0.000
[...]
 Octapole moment (field-independent basis, Debye-Ang**2):
  XXX=             -0.0000  YYY=             -0.0000  ZZZ=             -0.0000  XYY=             -0.0000
  XXY=             -0.0000  XXZ=             -0.0000  XZZ=             -0.0000  YZZ=              0.0000
  YYZ=             -0.0000  XYZ=              0.0000
 Hexadecapole moment (field-independent basis, Debye-Ang**3):
 XXXX=            -12.7512 YYYY=            -12.5306 ZZZZ=            -12.5307 XXXY=             -0.0000
 XXXZ=             -0.0000 YYYX=             -0.0000 YYYZ=              0.2203 ZZZX=             -0.0000
 ZZZY=              0.2203 XXYY=             -4.3970 XXZZ=             -4.3970 YYZZ=             -4.6170
 XXYZ=             -0.4402 YYXZ=              0.0000 ZZXY=             -0.0000
 N-N= 0.000000000000D+00 E-N=-1.108306105684D+04  KE= 5.027803750771D+03
                          Isotropic Fermi Contact Couplings
        Atom                 a.u.       MegaHertz       Gauss      10(-4) cm-1
     1  Ru(99)            -8.54063     584.39817     208.52780     194.93425
 PrsmSu:  requested number of processors reduced to:   8 ShMem   1 Linda.
 --------------------------------------------------------
       Center         ----  Spin Dipole Couplings  ----
                      3XX-RR        3YY-RR        3ZZ-RR
 --------------------------------------------------------
     1   Atom       -0.000679      0.000339      0.000340
 --------------------------------------------------------
                        XY            XZ            YZ
 --------------------------------------------------------
     1   Atom       -0.000000     -0.000000      0.000234
 --------------------------------------------------------


 ---------------------------------------------------------------------------------
              Anisotropic Spin Dipole Couplings in Principal Axis System
 ---------------------------------------------------------------------------------

       Atom             a.u.   MegaHertz   Gauss  10(-4) cm-1        Axes

              Baa    -0.0007     0.017     0.006     0.006  1.0000  0.0000  0.0001
     1 Ru(99) Bbb     0.0001    -0.003    -0.001    -0.001  0.0001  0.7076 -0.7066
              Bcc     0.0006    -0.014    -0.005    -0.005 -0.0001  0.7066  0.7076
 

 ---------------------------------------------------------------------------------

 PrsmSu:  requested number of processors reduced to:   8 ShMem   1 Linda.
 No NMR shielding tensors so no spin-rotation constants.
 Leave Link  601 at Tue Apr 20 07:16:03 2021, MaxMem=   104857600 cpu:             460.4 elap:              28.9
 (Enter /opt/g16avx/l801.exe)
 DoSCS=F DFT=T ScalE2(SS,OS)=  1.000000  1.000000
 Range of M.O.s used for correlation:     1    77
 NBasis=    77 NAE=    23 NBE=    20 NFC=     0 NFV=     0
 NROrb=     77 NOA=    23 NOB=    20 NVA=    54 NVB=    57
 Leave Link  801 at Tue Apr 20 07:16:03 2021, MaxMem=   104857600 cpu:               1.5 elap:               0.1
 (Enter /opt/g16avx/l914.exe)
 UHF ground state
 Doing stability rather than CIS.
 Keep R1 and R2 ints in memory in symmetry-blocked form, NReq=80216088.
 FoFCou: FMM=F IPFlag=           0 FMFlag=           0 FMFlg1=           0
         NFxFlg=           0 DoJE=F BraDBF=F KetDBF=F FulRan=T
         wScrn=  0.000000 ICntrl=       600 IOpCl=  0 I1Cent=           0 NGrid=           0
         NMat0=    1 NMatS0=   3003 NMatT0=    0 NMatD0=    1 NMtDS0=    0 NMtDT0=    0
 Petite list used in FoFCou.
 CoulSu:  requested number of processors reduced to:   7 ShMem   1 Linda.
 MDV=   104857600 DFT=T DoStab=T Mixed=T DoRPA=F DoScal=F NonHer=F
 Making orbital integer symmetry assigments:
 Orbital symmetries:
 Alpha Orbitals:
       Occupied  (A1G) (A1G) (T1U) (T1U) (T1U) (A1G) (T1U) (T1U)
                 (T1U) (?A) (?A) (?A) (?A) (?A) (A1G) (T1U) (T1U)
                 (T1U) (?B) (?B) (?B) (?B) (?B)
       Virtual   (A1G) (T1U) (T1U) (T1U) (A1G) (T1U) (T1U) (T1U)
                 (?C) (?C) (?C) (?C) (?C) (A1G) (?D) (?D) (?D)
                 (?E) (?E) (?E) (?E) (?E) (?D) (?D) (?D) (?D) (?D)
                 (?D) (?D) (T1U) (T1U) (T1U) (?F) (?F) (?F) (?F)
                 (?F) (A1G) (?F) (?F) (?F) (?F) (?F) (?F) (?F)
                 (?F) (?F) (?F) (?F) (?F) (?F) (?F) (?F) (?F)
 Beta  Orbitals:
       Occupied  (A1G) (A1G) (T1U) (T1U) (T1U) (A1G) (T1U) (T1U)
                 (T1U) (?A) (?A) (?A) (?A) (?A) (A1G) (T1U) (T1U)
                 (T1U) (?B) (?B)
       Virtual   (?B) (?B) (?B) (A1G) (T1U) (T1U) (T1U) (A1G) (T1U)
                 (T1U) (T1U) (?B) (?B) (?B) (?B) (?B) (A1G) (?C)
                 (?C) (?C) (?B) (?B) (?B) (?B) (?B) (?C) (?C) (?C)
                 (?C) (?C) (?C) (?C) (?C) (?C) (?C) (?D) (?D) (?D)
                 (?D) (?D) (?E) (?C) (?C) (?C) (?C) (?C) (?C) (?C)
                 (?E) (?E) (?E) (?E) (?E) (?E) (?E) (?E) (?E)
    24 initial guesses have been made.
 Convergence on wavefunction:    0.001000000000000
 Davidson Disk Diagonalization:  ConvIn= 1.00D-03 SkipCon=T Conv= 1.00D-03.
 Max sub-space:  2000 roots to seek:    24 dimension of matrix:         2382
 Iteration     1 Dimension    24 NMult     0 NNew     24
 CISAX will form    24 AO SS matrices at one time.
 NMat=    24 NSing=    24 JSym2X= 2.
 Defaulting to unpruned grid for atomic number  44.
 Defaulting to unpruned grid for atomic number  44.
 Defaulting to unpruned grid for atomic number  44.
 Defaulting to unpruned grid for atomic number  44.
 Defaulting to unpruned grid for atomic number  44.
 Defaulting to unpruned grid for atomic number  44.
 Defaulting to unpruned grid for atomic number  44.
 Defaulting to unpruned grid for atomic number  44.
 Defaulting to unpruned grid for atomic number  44.
 Defaulting to unpruned grid for atomic number  44.
 Defaulting to unpruned grid for atomic number  44.
 Defaulting to unpruned grid for atomic number  44.
 Defaulting to unpruned grid for atomic number  44.
 Defaulting to unpruned grid for atomic number  44.
 Defaulting to unpruned grid for atomic number  44.
 Defaulting to unpruned grid for atomic number  44.
 Defaulting to unpruned grid for atomic number  44.
 Defaulting to unpruned grid for atomic number  44.
 Defaulting to unpruned grid for atomic number  44.
 Defaulting to unpruned grid for atomic number  44.
 Defaulting to unpruned grid for atomic number  44.
 Defaulting to unpruned grid for atomic number  44.
 Defaulting to unpruned grid for atomic number  44.
 Defaulting to unpruned grid for atomic number  44.
 New state      1 was old state      2
 Excitation Energies [eV] at current iteration:
 Root      1 :     0.398766555173897
 Root      2 :     0.402377737696390
 Root      3 :     0.406692196800860
 Root      4 :     1.383492720454548
 Root      5 :     1.383614179359516
 Root      6 :     1.394651128812933
 Root      7 :     3.814545704273398
 Root      8 :     3.832059878266702
 Root      9 :     5.032178974192559
 Root     10 :     5.033099698218730
 Root     11 :     5.449019600760605
 Root     12 :     5.453304104530952
 Root     13 :     5.461826795078791
 Root     14 :     7.103441717690733
 Root     15 :     7.129627656056837
 Root     16 :     7.135279460804596
 Root     17 :     7.150378436991918
 Root     18 :     7.175573691793597
 Root     19 :     7.192846634643503
 Root     20 :     8.687236839726877
 Root     21 :     8.688150392165459
 Root     22 :     8.726135996435177
 Root     23 :     8.841663428823342
 Root     24 :     8.848149227532526
 Iteration     2 Dimension    48 NMult    24 NNew     24
 CISAX will form    24 AO SS matrices at one time.
 NMat=    24 NSing=    24 JSym2X= 2.
 Root      1 not converged, maximum delta is    0.114362780837199
 Excitation Energies [eV] at current iteration:
 Root      1 :     0.005011339110485   Change is   -0.393755216063412
 Root      2 :     0.005282977676276   Change is   -0.397094760020113
 Root      3 :     0.007964029310216   Change is   -0.398728167490644
 Root      4 :     0.730622149185717   Change is   -0.652992030173799
 Root      5 :     0.730979495937559   Change is   -0.652513224516989
 Root      6 :     0.734293476139939   Change is   -0.660357652672994
 Root      7 :     3.546418671029123   Change is   -0.268127033244275
 Root      8 :     3.559301670583134   Change is   -0.272758207683568
 Root      9 :     4.792392817636555   Change is   -0.239786156556003
 Root     10 :     4.795356769944595   Change is   -0.237742928274135
 Root     11 :     5.181203505367458   Change is   -0.267816095393146
 Root     12 :     5.182855969751729   Change is   -0.270448134779224
 Root     13 :     5.186016374719754   Change is   -0.275810420359036
 Root     14 :     6.841117373471202   Change is   -0.294162087333395
 Root     15 :     6.867696188712335   Change is   -0.325150445931168
 Root     16 :     6.903927467063305   Change is   -0.225700188993533
 Root     17 :     7.049135373100775   Change is   -0.054306344589958
 Root     18 :     7.068588977362838   Change is   -0.106984714430760
 Root     19 :     7.069686631568763   Change is   -0.080691805423154
 Root     20 :     8.215979256240523   Change is   -0.471257583486354
 Root     21 :     8.216638597476829   Change is   -0.471511794688630
 Root     22 :     8.222489688008197   Change is   -0.503646308426980
 Root     23 :     8.236461503052718   Change is   -0.611687724479808
 Root     24 :     8.242096656036976   Change is   -0.599566772786365
 Iteration     3 Dimension    51 NMult    48 NNew      3
 CISAX will form     3 AO SS matrices at one time.
 NMat=     3 NSing=     3 JSym2X= 2.
 Root      1 not converged, maximum delta is    0.003970667447321
 Excitation Energies [eV] at current iteration:
 Root      1 :     0.004070492448826   Change is   -0.000940846661659
 Root      2 :     0.004390348944841   Change is   -0.000892628731436
 Root      3 :     0.007069285930498   Change is   -0.000894743379718
 Iteration     4 Dimension    54 NMult    51 NNew      3
 CISAX will form     3 AO SS matrices at one time.
 NMat=     3 NSing=     3 JSym2X= 2.
 Root      1 has converged.
 Excitation Energies [eV] at current iteration:
 Root      1 :     0.004068325951582   Change is   -0.000002166497244
 Root      2 :     0.004388187725027   Change is   -0.000002161219814
 Root      3 :     0.007067126364721   Change is   -0.000002159565778
 Convergence achieved on expansion vectors.
 ***********************************************************************
 Stability analysis using <AA,BB:AA,BB> singles matrix:
 ***********************************************************************
 1PDM for each excited state written to RWF  633
 Ground to excited state transition densities written to RWF  633

 Eigenvectors of the stability matrix:
 
 Excited state symmetry could not be determined.
 Eigenvector   1:  4.003-?Sym  Eigenvalue= 0.0001495  <S**2>=3.757
     19B -> 21B        0.85630
     19B -> 34B       -0.11833
     20B -> 23B        0.49062
 The wavefunction is stable under the perturbations considered.
 Leave Link  914 at Tue Apr 20 07:16:43 2021, MaxMem=   104857600 cpu:             567.2 elap:              40.5
 (Enter /opt/g16avx/l508.exe)
 The wavefunction is already stable.
 Leave Link  508 at Tue Apr 20 07:16:44 2021, MaxMem=   104857600 cpu:               0.9 elap:               0.1
 (Enter /opt/g16avx/l601.exe)
 Copying SCF densities to generalized density rwf, IOpCl= 1 IROHF=0.
 SCF density gives NOpUse=  1 NOpAll= 48.
 Marking SCF density as not fully symmetric.

 **********************************************************************

            Population analysis using the SCF density.

 **********************************************************************

 Orbital symmetries:
 Alpha Orbitals:
       Occupied  (A1G) (A1G) (T1U) (T1U) (T1U) (A1G) (T1U) (T1U)
                 (T1U) (?A) (?A) (?A) (?A) (?A) (A1G) (T1U) (T1U)
                 (T1U) (?B) (?B) (?B) (?B) (?B)
       Virtual   (A1G) (T1U) (T1U) (T1U) (A1G) (T1U) (T1U) (T1U)
                 (?C) (?C) (?C) (?C) (?C) (A1G) (?D) (?D) (?D)
                 (?E) (?E) (?E) (?E) (?E) (?D) (?D) (?D) (?D) (?D)
                 (?D) (?D) (T1U) (T1U) (T1U) (?F) (?F) (?F) (?F)
                 (?F) (A1G) (?F) (?F) (?F) (?F) (?F) (?F) (?F)
                 (?F) (?F) (?F) (?F) (?F) (?F) (?F) (?F) (?F)
 Beta  Orbitals:
       Occupied  (A1G) (A1G) (T1U) (T1U) (T1U) (A1G) (T1U) (T1U)
                 (T1U) (?A) (?A) (?A) (?A) (?A) (A1G) (T1U) (T1U)
                 (T1U) (?B) (?B)
       Virtual   (?B) (?B) (?B) (A1G) (T1U) (T1U) (T1U) (A1G) (T1U)
                 (T1U) (T1U) (?B) (?B) (?B) (?B) (?B) (A1G) (?C)
                 (?C) (?C) (?B) (?B) (?B) (?B) (?B) (?C) (?C) (?C)
                 (?C) (?C) (?C) (?C) (?C) (?C) (?C) (?D) (?D) (?D)
                 (?D) (?D) (?E) (?C) (?C) (?C) (?C) (?C) (?C) (?C)
                 (?E) (?E) (?E) (?E) (?E) (?E) (?E) (?E) (?E)
 Unable to determine electronic state:  an orbital has unidentified symmetry.
 Alpha  occ. eigenvalues -- -753.49770-107.16560-103.72594-103.72594-103.72593
 Alpha  occ. eigenvalues --  -19.26214 -17.12783 -17.12783 -17.12782 -11.08959
 Alpha  occ. eigenvalues --  -11.08959 -11.08958 -11.08203 -11.08203  -2.99910
 Alpha  occ. eigenvalues --   -2.21300  -2.21299  -2.21299  -0.63826  -0.63826
 Alpha  occ. eigenvalues --   -0.63825  -0.61672  -0.61672
 Alpha virt. eigenvalues --   -0.27440  -0.17128  -0.17128  -0.17128  -0.07260
 Alpha virt. eigenvalues --   -0.02742  -0.02740  -0.02740  -0.02579  -0.02579
 Alpha virt. eigenvalues --   -0.02522  -0.02520  -0.02519   0.30060   0.36552
 Alpha virt. eigenvalues --    0.36553   0.36553   0.49410   0.49411   0.49412
 Alpha virt. eigenvalues --    0.50071   0.50071   0.80823   0.82004   0.82004
 Alpha virt. eigenvalues --    0.82004   0.83056   0.83056   0.83056   2.10037
 Alpha virt. eigenvalues --    2.10038   2.10038   2.65506   2.65506   2.65506
 Alpha virt. eigenvalues --    2.66794   2.66795   2.85277   2.98206   2.99599
 Alpha virt. eigenvalues --    2.99600   2.99600   3.00959   3.00959   3.00960
 Alpha virt. eigenvalues --    3.44748   3.44749   3.44749   3.45964   3.45964
 Alpha virt. eigenvalues --    3.46522   3.46522   3.46522   3.46818
  Beta  occ. eigenvalues -- -753.49801-107.14731-103.70783-103.70783-103.70783
  Beta  occ. eigenvalues --  -19.24926 -17.11482 -17.11482 -17.11481 -11.07037
  Beta  occ. eigenvalues --  -11.07037 -11.05373 -11.05373 -11.05373  -2.91510
  Beta  occ. eigenvalues --   -2.09755  -2.09754  -2.09754  -0.56070  -0.56070
  Beta virt. eigenvalues --   -0.31384  -0.31384  -0.31383  -0.30844  -0.20338
  Beta virt. eigenvalues --   -0.20336  -0.20333  -0.07611  -0.04548  -0.04547
  Beta virt. eigenvalues --   -0.04546  -0.03078  -0.03060  -0.03045  -0.03013
  Beta virt. eigenvalues --   -0.03013   0.29328   0.35769   0.35778   0.35788
  Beta virt. eigenvalues --    0.45923   0.45929   0.45935   0.49557   0.49558
  Beta virt. eigenvalues --    0.80494   0.84339   0.84340   0.84340   0.87242
  Beta virt. eigenvalues --    0.87243   0.87244   2.14597   2.14598   2.14599
  Beta virt. eigenvalues --    2.69192   2.69192   2.72949   2.72950   2.72952
  Beta virt. eigenvalues --    2.90517   3.02312   3.05714   3.05714   3.05714
  Beta virt. eigenvalues --    3.07011   3.07012   3.07012   3.51145   3.51145
  Beta virt. eigenvalues --    3.51145   3.52127   3.52335   3.52335   3.52614
  Beta virt. eigenvalues --    3.52615   3.52615
          Condensed to atoms (all electrons):
               1
     1  Ru  43.000000
          Atomic-Atomic Spin Densities.
               1
     1  Ru   3.000000
 Mulliken charges and spin densities:
               1          2
     1  Ru   1.000000   3.000000
 Sum of Mulliken charges =   1.00000   3.00000
 Mulliken charges and spin densities with hydrogens summed into heavy atoms:
               1          2
     1  Ru   1.000000   3.000000
 Electronic spatial extent (au):  <R**2>=             37.1706
 Charge=              1.0000 electrons
 Dipole moment (field-independent basis, Debye):
    X=             -0.0000    Y=              0.0000    Z=             -0.0000  Tot=              0.0000
 Quadrupole moment (field-independent basis, Debye-Ang):
   XX=            -16.6654   YY=            -16.6652   ZZ=            -16.6652
   XY=             -0.0000   XZ=             -0.0000   YZ=              0.0001
 Traceless Quadrupole moment (field-independent basis, Debye-Ang):
   XX=             -0.0001   YY=              0.0001   ZZ=              0.0001
   XY=             -0.0000   XZ=             -0.0000   YZ=              0.0001
 Octapole moment (field-independent basis, Debye-Ang**2):
  XXX=             -0.0000  YYY=             -0.0000  ZZZ=             -0.0000  XYY=             -0.0000
  XXY=             -0.0000  XXZ=             -0.0000  XZZ=             -0.0000  YZZ=              0.0000
  YYZ=             -0.0000  XYZ=              0.0000
 Hexadecapole moment (field-independent basis, Debye-Ang**3):
 XXXX=            -12.7512 YYYY=            -12.5306 ZZZZ=            -12.5307 XXXY=             -0.0000
 XXXZ=             -0.0000 YYYX=             -0.0000 YYYZ=              0.2203 ZZZX=             -0.0000
 ZZZY=              0.2203 XXYY=             -4.3970 XXZZ=             -4.3970 YYZZ=             -4.6170
 XXYZ=             -0.4402 YYXZ=              0.0000 ZZXY=             -0.0000
 N-N= 0.000000000000D+00 E-N=-1.108306105684D+04  KE= 5.027803750771D+03
                          Isotropic Fermi Contact Couplings
        Atom                 a.u.       MegaHertz       Gauss      10(-4) cm-1
     1  Ru(99)            -8.54063     584.39817     208.52780     194.93425
 PrsmSu:  requested number of processors reduced to:   8 ShMem   1 Linda.
 --------------------------------------------------------
       Center         ----  Spin Dipole Couplings  ----
                      3XX-RR        3YY-RR        3ZZ-RR
 --------------------------------------------------------
     1   Atom       -0.000679      0.000339      0.000340
 --------------------------------------------------------
                        XY            XZ            YZ
 --------------------------------------------------------
     1   Atom       -0.000000     -0.000000      0.000234
 --------------------------------------------------------


 ---------------------------------------------------------------------------------
              Anisotropic Spin Dipole Couplings in Principal Axis System
 ---------------------------------------------------------------------------------

       Atom             a.u.   MegaHertz   Gauss  10(-4) cm-1        Axes

              Baa    -0.0007     0.017     0.006     0.006  1.0000  0.0000  0.0001
     1 Ru(99) Bbb     0.0001    -0.003    -0.001    -0.001  0.0001  0.7076 -0.7066
              Bcc     0.0006    -0.014    -0.005    -0.005 -0.0001  0.7066  0.7076
 

 ---------------------------------------------------------------------------------

 PrsmSu:  requested number of processors reduced to:   8 ShMem   1 Linda.
 No NMR shielding tensors so no spin-rotation constants.
 Leave Link  601 at Tue Apr 20 07:17:14 2021, MaxMem=   104857600 cpu:             478.3 elap:              30.2
 (Enter /opt/g16avx/l9999.exe)

 Test job not archived.
 1\1\GINC-VERTEX\Stability\UM062X\Gen\Ru1(1+,4)\XRAY\20-Apr-2021\0\\#P 
 M062X/GEN Integral=UltraFineGrid scf=(nosymm,xqc,maxconven=155) Stable
 =(RExt, Opt) IOp(1/33=1)\\Database calculations.\\1,4\Ru,0,0.,0.,0.\\V
 ersion=ES64L-G16RevA.03\HF=-4361.7034988\S2=3.755829\S2-1=0.\S2A=3.750
 011\RMSD=9.954e-09\Dipole=0.,0.,0.\Quadrupole=0.0000538,0.0000536,-0.0
 001074,0.0001114,0.,0.\PG=OH [O(Ru1)]\\@


 "PERFECTION IS NOT AN ACCIDENT"
         --  EAGLE ELECTRIC MANUFACTURING CO.,INC. NY
 Job cpu time:       1 days  6 hours 21 minutes 38.1 seconds.
 Elapsed time:       0 days  1 hours 54 minutes 50.2 seconds.
 File lengths (MBytes):  RWF=     86 Int=      0 D2E=      0 Chk=      3 Scr=      1
 Normal termination of Gaussian 16 at Tue Apr 20 07:17:14 2021.
