 Entering Gaussian System, Link 0=/s/ls4/users/knvvv/bin/g16sse/g16
 Input=data/database/M062X--def2-QZVPPD--19_C24CoronaD6h_C20C24.gjf
 Output=data/database/M062X--def2-QZVPPD--19_C24CoronaD6h_C20C24.log
 Initial command:
 /s/ls4/users/knvvv/bin/g16sse/l1.exe "/s/ls4/users/knvvv/bin/scratch/Gau-33121.inp" -scrdir="/s/ls4/users/knvvv/bin/scratch/"
 Entering Link 1 = /s/ls4/users/knvvv/bin/g16sse/l1.exe PID=     33122.
  
 Copyright (c) 1988,1990,1992,1993,1995,1998,2003,2009,2016,
            Gaussian, Inc.  All Rights Reserved.
  
 This is part of the Gaussian(R) 16 program.  It is based on
 the Gaussian(R) 09 system (copyright 2009, Gaussian, Inc.),
 the Gaussian(R) 03 system (copyright 2003, Gaussian, Inc.),
 the Gaussian(R) 98 system (copyright 1998, Gaussian, Inc.),
 the Gaussian(R) 94 system (copyright 1995, Gaussian, Inc.),
 the Gaussian 92(TM) system (copyright 1992, Gaussian, Inc.),
 the Gaussian 90(TM) system (copyright 1990, Gaussian, Inc.),
 the Gaussian 88(TM) system (copyright 1988, Gaussian, Inc.),
 the Gaussian 86(TM) system (copyright 1986, Carnegie Mellon
 University), and the Gaussian 82(TM) system (copyright 1983,
 Carnegie Mellon University). Gaussian is a federally registered
 trademark of Gaussian, Inc.
  
 This software contains proprietary and confidential information,
 including trade secrets, belonging to Gaussian, Inc.
  
 This software is provided under written license and may be
 used, copied, transmitted, or stored only in accord with that
 written license.
  
 The following legend is applicable only to US Government
 contracts under FAR:
  
                    RESTRICTED RIGHTS LEGEND
  
 Use, reproduction and disclosure by the US Government is
 subject to restrictions as set forth in subparagraphs (a)
 and (c) of the Commercial Computer Software - Restricted
 Rights clause in FAR 52.227-19.
  
 Gaussian, Inc.
 340 Quinnipiac St., Bldg. 40, Wallingford CT 06492
  
  
 ---------------------------------------------------------------
 Warning -- This program may not be used in any manner that
 competes with the business of Gaussian, Inc. or will provide
 assistance to any competitor of Gaussian, Inc.  The licensee
 of this program is prohibited from giving any competitor of
 Gaussian, Inc. access to this program.  By using this program,
 the user acknowledges that Gaussian, Inc. is engaged in the
 business of creating and licensing software in the field of
 computational chemistry and represents and warrants to the
 licensee that it is not a competitor of Gaussian, Inc. and that
 it will not use this program in any manner prohibited above.
 ---------------------------------------------------------------
  

 Cite this work as:
 Gaussian 16, Revision A.03,
 M. J. Frisch, G. W. Trucks, H. B. Schlegel, G. E. Scuseria, 
 M. A. Robb, J. R. Cheeseman, G. Scalmani, V. Barone, 
 G. A. Petersson, H. Nakatsuji, X. Li, M. Caricato, A. V. Marenich, 
 J. Bloino, B. G. Janesko, R. Gomperts, B. Mennucci, H. P. Hratchian, 
 J. V. Ortiz, A. F. Izmaylov, J. L. Sonnenberg, D. Williams-Young, 
 F. Ding, F. Lipparini, F. Egidi, J. Goings, B. Peng, A. Petrone, 
 T. Henderson, D. Ranasinghe, V. G. Zakrzewski, J. Gao, N. Rega, 
 G. Zheng, W. Liang, M. Hada, M. Ehara, K. Toyota, R. Fukuda, 
 J. Hasegawa, M. Ishida, T. Nakajima, Y. Honda, O. Kitao, H. Nakai, 
 T. Vreven, K. Throssell, J. A. Montgomery, Jr., J. E. Peralta, 
 F. Ogliaro, M. J. Bearpark, J. J. Heyd, E. N. Brothers, K. N. Kudin, 
 V. N. Staroverov, T. A. Keith, R. Kobayashi, J. Normand, 
 K. Raghavachari, A. P. Rendell, J. C. Burant, S. S. Iyengar, 
 J. Tomasi, M. Cossi, J. M. Millam, M. Klene, C. Adamo, R. Cammi, 
 J. W. Ochterski, R. L. Martin, K. Morokuma, O. Farkas, 
 J. B. Foresman, and D. J. Fox, Gaussian, Inc., Wallingford CT, 2016.
 
 ******************************************
 Gaussian 16:  ES64L-G16RevA.03 25-Dec-2016
                17-Apr-2021 
 ******************************************
 %RWF=temp10_99143,70GB
 %nprocshared=48
 Will use up to   48 processors via shared memory.
 Default route: MaxDisk=80GB
 ----------------------------------------------------------------------
 #P M062X/GEN Integral=UltraFineGrid SCF=NoSymm Stable=(RExt, Opt) IOp(
 1/33=1)
 ----------------------------------------------------------------------
 1/33=1,38=1,172=1/1;
 2/12=2,17=6,18=5,40=1/2;
 3/5=7,11=2,25=1,30=1,74=-55,75=-5/1,2,3;
 4/9=2/1;
 5/5=2,38=5/2;
 6/7=2,8=2,9=2,10=2,28=1/1;
 8/6=1,10=90,11=11/1;
 9/8=-3,42=1,46=1/14;
 5/5=2,8=3,17=40,38=5/8(-2);
 6/7=2,8=2,9=2,10=2,28=1/1;
 99/5=1,9=1/99;
 Leave Link    1 at Sat Apr 17 13:59:58 2021, MaxMem=           0 cpu:               8.3 elap:               0.2
 (Enter /s/ls4/users/knvvv/bin/g16sse/l101.exe)
 ONIOM data not found on unit 2.
 ----------------------
 Database calculations.
 ----------------------
 TstMul:  ICh=     0
 TstMul:  Mul=     1
 TstMul:  ICh=     0
 TstMul:  Mul=     1
 Symbolic Z-matrix:
 Charge =  0 Multiplicity = 1
 C                     0.        0.        1.44059 
 C                     0.        1.2476    0.72033 
 C                     0.        1.2476   -0.72033 
 C                     0.        0.       -1.44059 
 C                     0.       -1.2476   -0.72033 
 C                     0.       -1.2476    0.72033 
 C                     0.        0.        2.91724 
 C                     0.        2.52651   1.45872 
 C                     0.        2.52651  -1.45872 
 C                     0.        0.       -2.91724 
 C                     0.       -2.52651  -1.45872 
 C                     0.       -2.52651   1.45872 
 C                     0.        1.27754   3.44083 
 C                     0.        3.61862   0.61401 
 C                     0.        2.34106  -2.82685 
 C                     0.       -1.27754  -3.44083 
 C                     0.       -3.61862  -0.61401 
 C                     0.       -2.34106   2.82685 
 C                     0.       -1.27754   3.44083 
 C                     0.        2.34106   2.82685 
 C                     0.        3.61862  -0.61401 
 C                     0.        1.27754  -3.44083 
 C                     0.       -2.34106  -2.82685 
 C                     0.       -3.61862   0.61401 
 
 RdStrC is calling ZToCFu for IStruc=1 NZ=    24.
 PrtBox:  NBox=     4 Levels=  2 BoxLen=    8.00 SMaxX=       13.68
          Shift=            0.000000            6.838206            6.502232
 Box      1 Number                   0 centers from      1 to      9:
 Box      2 Number                   1 centers from     10 to     14:
 Box      3 Number                   2 centers from     15 to     21:
 Box      4 Number                   3 centers from     22 to     24:
 After GenITR:
 ITRead=  0  0  0  0  0  0  0  0  0  0  0  0  0  0  0  0  0  0  0  0
 ITRead=  0  0  0  0
 MicOpt= -1 -1 -1 -1 -1 -1 -1 -1 -1 -1 -1 -1 -1 -1 -1 -1 -1 -1 -1 -1
 MicOpt= -1 -1 -1 -1
 ITRead=  0  0  0  0  0  0  0  0  0  0  0  0  0  0  0  0  0  0  0  0
 ITRead=  0  0  0  0
 MicOpt= -1 -1 -1 -1 -1 -1 -1 -1 -1 -1 -1 -1 -1 -1 -1 -1 -1 -1 -1 -1
 MicOpt= -1 -1 -1 -1
 NAtoms=     24 NQM=       24 NQMF=       0 NMMI=      0 NMMIF=      0
                NMic=       0 NMicF=      0.
                    Isotopes and Nuclear Properties:
 (Nuclear quadrupole moments (NQMom) in fm**2, nuclear magnetic moments (NMagM)
  in nuclear magnetons)

  Atom         1           2           3           4           5           6           7           8           9          10
 IAtWgt=          12          12          12          12          12          12          12          12          12          12
 AtmWgt=  12.0000000  12.0000000  12.0000000  12.0000000  12.0000000  12.0000000  12.0000000  12.0000000  12.0000000  12.0000000
 NucSpn=           0           0           0           0           0           0           0           0           0           0
 AtZEff=  -0.0000000  -0.0000000  -0.0000000  -0.0000000  -0.0000000  -0.0000000  -0.0000000  -0.0000000  -0.0000000  -0.0000000
 NQMom=    0.0000000   0.0000000   0.0000000   0.0000000   0.0000000   0.0000000   0.0000000   0.0000000   0.0000000   0.0000000
 NMagM=    0.0000000   0.0000000   0.0000000   0.0000000   0.0000000   0.0000000   0.0000000   0.0000000   0.0000000   0.0000000
 AtZNuc=   6.0000000   6.0000000   6.0000000   6.0000000   6.0000000   6.0000000   6.0000000   6.0000000   6.0000000   6.0000000

  Atom        11          12          13          14          15          16          17          18          19          20
 IAtWgt=          12          12          12          12          12          12          12          12          12          12
 AtmWgt=  12.0000000  12.0000000  12.0000000  12.0000000  12.0000000  12.0000000  12.0000000  12.0000000  12.0000000  12.0000000
 NucSpn=           0           0           0           0           0           0           0           0           0           0
 AtZEff=  -0.0000000  -0.0000000  -0.0000000  -0.0000000  -0.0000000  -0.0000000  -0.0000000  -0.0000000  -0.0000000  -0.0000000
 NQMom=    0.0000000   0.0000000   0.0000000   0.0000000   0.0000000   0.0000000   0.0000000   0.0000000   0.0000000   0.0000000
 NMagM=    0.0000000   0.0000000   0.0000000   0.0000000   0.0000000   0.0000000   0.0000000   0.0000000   0.0000000   0.0000000
 AtZNuc=   6.0000000   6.0000000   6.0000000   6.0000000   6.0000000   6.0000000   6.0000000   6.0000000   6.0000000   6.0000000

  Atom        21          22          23          24
 IAtWgt=          12          12          12          12
 AtmWgt=  12.0000000  12.0000000  12.0000000  12.0000000
 NucSpn=           0           0           0           0
 AtZEff=  -0.0000000  -0.0000000  -0.0000000  -0.0000000
 NQMom=    0.0000000   0.0000000   0.0000000   0.0000000
 NMagM=    0.0000000   0.0000000   0.0000000   0.0000000
 AtZNuc=   6.0000000   6.0000000   6.0000000   6.0000000
 No MM parameters found.
 Leave Link  101 at Sat Apr 17 13:59:58 2021, MaxMem=   104857600 cpu:               8.4 elap:               0.2
 (Enter /s/ls4/users/knvvv/bin/g16sse/l202.exe)
                          Input orientation:                          
 ---------------------------------------------------------------------
 Center     Atomic      Atomic             Coordinates (Angstroms)
 Number     Number       Type             X           Y           Z
 ---------------------------------------------------------------------
      1          6           0        0.000000    0.000000    1.440593
      2          6           0        0.000000    1.247598    0.720333
      3          6           0        0.000000    1.247598   -0.720333
      4          6           0        0.000000    0.000000   -1.440593
      5          6           0        0.000000   -1.247598   -0.720333
      6          6           0        0.000000   -1.247598    0.720333
      7          6           0        0.000000    0.000000    2.917240
      8          6           0        0.000000    2.526509    1.458723
      9          6           0        0.000000    2.526509   -1.458723
     10          6           0        0.000000    0.000000   -2.917240
     11          6           0        0.000000   -2.526509   -1.458723
     12          6           0        0.000000   -2.526509    1.458723
     13          6           0        0.000000    1.277541    3.440833
     14          6           0        0.000000    3.618623    0.614014
     15          6           0        0.000000    2.341063   -2.826850
     16          6           0        0.000000   -1.277541   -3.440833
     17          6           0        0.000000   -3.618623   -0.614014
     18          6           0        0.000000   -2.341063    2.826850
     19          6           0        0.000000   -1.277541    3.440833
     20          6           0        0.000000    2.341063    2.826850
     21          6           0        0.000000    3.618623   -0.614014
     22          6           0        0.000000    1.277541   -3.440833
     23          6           0        0.000000   -2.341063   -2.826850
     24          6           0        0.000000   -3.618623    0.614014
 ---------------------------------------------------------------------
                    Distance matrix (angstroms):
                    1          2          3          4          5
     1  C    0.000000
     2  C    1.440582   0.000000
     3  C    2.495216   1.440666   0.000000
     4  C    2.881186   2.495216   1.440582   0.000000
     5  C    2.495216   2.881236   2.495196   1.440582   0.000000
     6  C    1.440582   2.495196   2.881236   2.495216   1.440666
     7  C    1.476647   2.526440   3.845574   4.357833   3.845574
     8  C    2.526574   1.476764   2.526638   3.845683   4.358001
     9  C    3.845683   2.526638   1.476764   2.526574   3.845660
    10  C    4.357833   3.845574   2.526440   1.476647   2.526440
    11  C    3.845683   4.358001   3.845660   2.526574   1.476764
    12  C    2.526574   3.845660   4.358001   3.845683   2.526638
    13  C    2.373409   2.720665   4.161274   5.045833   4.867405
    14  C    3.711828   2.373408   2.720706   4.161231   5.045849
    15  C    4.867406   3.711896   2.373411   2.720714   4.161238
    16  C    5.045833   4.867405   3.711798   2.373409   2.720665
    17  C    4.161231   5.045849   4.867382   3.711828   2.373408
    18  C    2.720714   4.161238   5.045889   4.867406   3.711896
    19  C    2.373409   3.711798   4.867405   5.045833   4.161274
    20  C    2.720714   2.373411   3.711896   4.867406   5.045889
    21  C    4.161231   2.720706   2.373408   3.711828   4.867382
    22  C    5.045833   4.161274   2.720665   2.373409   3.711798
    23  C    4.867406   5.045889   4.161238   2.720714   2.373411
    24  C    3.711828   4.867382   5.045849   4.161231   2.720706
                    6          7          8          9         10
     6  C    0.000000
     7  C    2.526440   0.000000
     8  C    3.845660   2.917279   0.000000
     9  C    4.358001   5.052950   2.917446   0.000000
    10  C    3.845574   5.834480   5.052950   2.917279   0.000000
    11  C    2.526638   5.052950   5.834765   5.053018   2.917279
    12  C    1.476764   2.917279   5.053018   5.834765   5.052950
    13  C    3.711798   1.380674   2.342793   5.056241   6.485153
    14  C    4.867382   4.289438   1.380669   2.342851   5.056104
    15  C    5.045889   6.202834   4.289583   1.380638   2.342807
    16  C    4.161274   6.485153   6.202938   4.289470   1.380674
    17  C    2.720706   5.056104   6.485282   6.202917   4.289438
    18  C    2.373411   2.342807   5.056187   6.485321   6.202834
    19  C    2.720665   1.380674   4.289470   6.202938   6.485153
    20  C    4.161238   2.342807   1.380638   4.289583   6.202834
    21  C    5.045849   5.056104   2.342851   1.380669   4.289438
    22  C    4.867405   6.485153   5.056241   2.342793   1.380674
    23  C    3.711896   6.202834   6.485321   5.056187   2.342807
    24  C    2.373408   4.289438   6.202917   6.485282   5.056104
                   11         12         13         14         15
    11  C    0.000000
    12  C    2.917446   0.000000
    13  C    6.202938   4.289470   0.000000
    14  C    6.485282   6.202917   3.670364   0.000000
    15  C    5.056187   6.485321   6.357274   3.670382   0.000000
    16  C    2.342793   5.056241   7.340693   6.357217   3.670323
    17  C    1.380669   2.342851   6.357217   7.340694   6.357240
    18  C    4.289583   1.380638   3.670323   6.357240   7.340751
    19  C    5.056241   2.342793   2.555082   5.653612   7.237275
    20  C    6.485321   5.056187   1.228029   2.555152   5.653700
    21  C    6.202917   6.485282   4.682142   1.228028   2.555152
    22  C    4.289470   6.202938   6.881666   4.682142   1.228029
    23  C    1.380638   4.289583   7.237275   6.881671   4.682126
    24  C    2.342851   1.380669   5.653612   7.237246   6.881671
                   16         17         18         19         20
    16  C    0.000000
    17  C    3.670364   0.000000
    18  C    6.357274   3.670382   0.000000
    19  C    6.881666   4.682142   1.228029   0.000000
    20  C    7.237275   6.881671   4.682126   3.670323   0.000000
    21  C    5.653612   7.237246   6.881671   6.357217   3.670382
    22  C    2.555082   5.653612   7.237275   7.340693   6.357274
    23  C    1.228029   2.555152   5.653700   6.357274   7.340751
    24  C    4.682142   1.228028   2.555152   3.670364   6.357240
                   21         22         23         24
    21  C    0.000000
    22  C    3.670364   0.000000
    23  C    6.357240   3.670323   0.000000
    24  C    7.340694   6.357217   3.670382   0.000000
 Stoichiometry    C24
 Framework group  D2H[C2"(CC.CC),SG(C20)]
 Deg. of freedom    12
 Full point group                 D2H     NOp   8
 Largest Abelian subgroup         D2H     NOp   8
 Largest concise Abelian subgroup D2      NOp   4
                         Standard orientation:                         
 ---------------------------------------------------------------------
 Center     Atomic      Atomic             Coordinates (Angstroms)
 Number     Number       Type             X           Y           Z
 ---------------------------------------------------------------------
      1          6           0        0.000000    0.000000    1.440593
      2          6           0        0.000000    1.247598    0.720333
      3          6           0        0.000000    1.247598   -0.720333
      4          6           0        0.000000    0.000000   -1.440593
      5          6           0       -0.000000   -1.247598   -0.720333
      6          6           0       -0.000000   -1.247598    0.720333
      7          6           0        0.000000    0.000000    2.917240
      8          6           0        0.000000    2.526509    1.458723
      9          6           0        0.000000    2.526509   -1.458723
     10          6           0        0.000000    0.000000   -2.917240
     11          6           0       -0.000000   -2.526509   -1.458723
     12          6           0       -0.000000   -2.526509    1.458723
     13          6           0        0.000000    1.277541    3.440833
     14          6           0        0.000000    3.618623    0.614014
     15          6           0        0.000000    2.341063   -2.826850
     16          6           0       -0.000000   -1.277541   -3.440833
     17          6           0       -0.000000   -3.618623   -0.614014
     18          6           0       -0.000000   -2.341063    2.826850
     19          6           0       -0.000000   -1.277541    3.440833
     20          6           0       -0.000000    2.341063    2.826850
     21          6           0        0.000000    3.618623   -0.614014
     22          6           0        0.000000    1.277541   -3.440833
     23          6           0       -0.000000   -2.341063   -2.826850
     24          6           0       -0.000000   -3.618623    0.614014
 ---------------------------------------------------------------------
 Rotational constants (GHZ):           0.3740640           0.3740625           0.1870316
 Leave Link  202 at Sat Apr 17 13:59:58 2021, MaxMem=   104857600 cpu:              12.3 elap:               0.3
 (Enter /s/ls4/users/knvvv/bin/g16sse/l301.exe)
 General basis read from cards:  (5D, 7F)
 Centers:       1      2      3      4      5      6      7      8      9     10
 Centers:      11     12     13     14     15     16     17     18     19     20
 Centers:      21     22     23     24
 S 8 1.00
     Exponent=  6.7025071029D+04 Coefficients=  3.8736308501D-05
     Exponent=  1.0039986538D+04 Coefficients=  3.0107917575D-04
     Exponent=  2.2849316911D+03 Coefficients=  1.5787918095D-03
     Exponent=  6.4714122130D+02 Coefficients=  6.6087087195D-03
     Exponent=  2.1109472335D+02 Coefficients=  2.3367123250D-02
     Exponent=  7.6177643862D+01 Coefficients=  7.0420716898D-02
     Exponent=  2.9633839163D+01 Coefficients=  1.7360344953D-01
     Exponent=  1.2187785081D+01 Coefficients=  3.2292305648D-01
 S 2 1.00
     Exponent=  5.3026006299D+01 Coefficients=  7.4897404492D-02
     Exponent=  1.5258502776D+01 Coefficients=  7.6136220983D-01
 S 1 1.00
     Exponent=  5.2403957464D+00 Coefficients=  1.0000000000D+00
 S 1 1.00
     Exponent=  2.2905022379D+00 Coefficients=  1.0000000000D+00
 S 1 1.00
     Exponent=  6.9673283006D-01 Coefficients=  1.0000000000D+00
 S 1 1.00
     Exponent=  2.7599337363D-01 Coefficients=  1.0000000000D+00
 S 1 1.00
     Exponent=  1.0739884389D-01 Coefficients=  1.0000000000D+00
 S 1 1.00
     Exponent=  4.4981404899D-02 Coefficients=  1.0000000000D+00
 P 5 1.00
     Exponent=  1.0512555082D+02 Coefficients=  8.4647553844D-04
     Exponent=  2.4884461066D+01 Coefficients=  6.6274038534D-03
     Exponent=  7.8637230826D+00 Coefficients=  3.0120390419D-02
     Exponent=  2.8407001835D+00 Coefficients=  9.9951435476D-02
     Exponent=  1.1227137335D+00 Coefficients=  2.3826299282D-01
 P 1 1.00
     Exponent=  4.6050725555D-01 Coefficients=  1.0000000000D+00
 P 1 1.00
     Exponent=  1.8937530913D-01 Coefficients=  1.0000000000D+00
 P 1 1.00
     Exponent=  7.5983791611D-02 Coefficients=  1.0000000000D+00
 D 1 1.00
     Exponent=  1.8480000000D+00 Coefficients=  1.0000000000D+00
 D 1 1.00
     Exponent=  6.4900000000D-01 Coefficients=  1.0000000000D+00
 D 1 1.00
     Exponent=  2.2800000000D-01 Coefficients=  1.0000000000D+00
 D 1 1.00
     Exponent=  7.6889830417D-02 Coefficients=  1.0000000000D+00
 F 1 1.00
     Exponent=  1.4190000000D+00 Coefficients=  1.0000000000D+00
 F 1 1.00
     Exponent=  4.8500000000D-01 Coefficients=  1.0000000000D+00
 G 1 1.00
     Exponent=  1.0110000000D+00 Coefficients=  1.0000000000D+00
 ****
 Ernie: Thresh=  0.10000D-02 Tol=  0.10000D-05 Strict=F.
 There are   337 symmetry adapted cartesian basis functions of AG  symmetry.
 There are   148 symmetry adapted cartesian basis functions of B1G symmetry.
 There are   164 symmetry adapted cartesian basis functions of B2G symmetry.
 There are   299 symmetry adapted cartesian basis functions of B3G symmetry.
 There are   148 symmetry adapted cartesian basis functions of AU  symmetry.
 There are   337 symmetry adapted cartesian basis functions of B1U symmetry.
 There are   299 symmetry adapted cartesian basis functions of B2U symmetry.
 There are   164 symmetry adapted cartesian basis functions of B3U symmetry.
 There are   259 symmetry adapted basis functions of AG  symmetry.
 There are   126 symmetry adapted basis functions of B1G symmetry.
 There are   138 symmetry adapted basis functions of B2G symmetry.
 There are   233 symmetry adapted basis functions of B3G symmetry.
 There are   126 symmetry adapted basis functions of AU  symmetry.
 There are   259 symmetry adapted basis functions of B1U symmetry.
 There are   233 symmetry adapted basis functions of B2U symmetry.
 There are   138 symmetry adapted basis functions of B3U symmetry.
  1512 basis functions,  2376 primitive gaussians,  1896 cartesian basis functions
    72 alpha electrons       72 beta electrons
       nuclear repulsion energy      1621.7050170961 Hartrees.
 IExCor= 4336 DFT=T Ex+Corr=M062X ExCW=0 ScaHFX=  0.540000
 ScaDFX=  1.000000  1.000000  1.000000  1.000000 ScalE2=  1.000000  1.000000
 IRadAn=      5 IRanWt=     -1 IRanGd=            0 ICorTp=0 IEmpDi=  4
 NAtoms=   24 NActive=   24 NUniq=    7 SFac= 4.00D+00 NAtFMM=   60 NAOKFM=F Big=F
 Integral buffers will be    131072 words long.
 Raffenetti 2 integral format.
 Two-electron integral symmetry is turned on.
 Leave Link  301 at Sat Apr 17 13:59:58 2021, MaxMem=   104857600 cpu:               6.9 elap:               0.2
 (Enter /s/ls4/users/knvvv/bin/g16sse/l302.exe)
 NPDir=0 NMtPBC=     1 NCelOv=     1 NCel=       1 NClECP=     1 NCelD=      1
         NCelK=      1 NCelE2=     1 NClLst=     1 CellRange=     0.0.
 One-electron integrals computed using PRISM.
 One-electron integral symmetry used in STVInt
 PrsmSu:  requested number of processors reduced to:   3 ShMem   1 Linda.
 PrsmSu:  requested number of processors reduced to:  12 ShMem   1 Linda.
 NBasis=  1512 RedAO= T EigKep=  1.10D-06  NBF=   259   126   138   233   126   259   233   138
 NBsUse=  1481 1.00D-06 EigRej=  8.70D-07 NBFU=   253   126   137   224   125   250   228   138
 Precomputing XC quadrature grid using
 IXCGrd= 4 IRadAn=           5 IRanWt=          -1 IRanGd=           0 AccXCQ= 0.00D+00.
 Generated NRdTot=       0 NPtTot=           0 NUsed=           0 NTot=          32
 NSgBfM=  1862  1862  1862  1862  1862 MxSgAt=    24 MxSgA2=    24.
 Leave Link  302 at Sat Apr 17 14:02:55 2021, MaxMem=   104857600 cpu:            8308.6 elap:             176.8
 (Enter /s/ls4/users/knvvv/bin/g16sse/l303.exe)
 DipDrv:  MaxL=1.
 Leave Link  303 at Sat Apr 17 14:03:48 2021, MaxMem=   104857600 cpu:            2467.0 elap:              52.5
 (Enter /s/ls4/users/knvvv/bin/g16sse/l401.exe)
 SCF N**3 symmetry information disabled.
 ExpMin= 4.50D-02 ExpMax= 6.70D+04 ExpMxC= 6.47D+02 IAcc=3 IRadAn=         5 AccDes= 0.00D+00
 Harris functional with IExCor= 1009 and IRadAn=       5 diagonalized for initial guess.
 HarFok:  IExCor= 1009 AccDes= 0.00D+00 IRadAn=         5 IDoV= 1 UseB2=F ITyADJ=14
 ICtDFT=  3500011 ScaDFX=  1.000000  1.000000  1.000000  1.000000
 CalDSu:  requested number of processors reduced to:  22 ShMem   1 Linda.
 FoFCou: FMM=F IPFlag=           0 FMFlag=      100000 FMFlg1=           0
         NFxFlg=           0 DoJE=T BraDBF=F KetDBF=T FulRan=T
         wScrn=  0.000000 ICntrl=       500 IOpCl=  0 I1Cent=   200000004 NGrid=           0
         NMat0=    1 NMatS0=      1 NMatT0=    0 NMatD0=    1 NMtDS0=    0 NMtDT0=    0
 Petite list used in FoFCou.
 CoulSu:  requested number of processors reduced to:   8 ShMem   1 Linda.
 CoulSu:  requested number of processors reduced to:   9 ShMem   1 Linda.
 CoulSu:  requested number of processors reduced to:  19 ShMem   1 Linda.
 CoulSu:  requested number of processors reduced to:  19 ShMem   1 Linda.
 Harris En= -913.484650000606    
 JPrj=0 DoOrth=F DoCkMO=F.
 Initial guess orbital symmetries:
       Occupied  (AG) (B1U) (B2U) (B3G) (AG) (B2U) (B1U) (AG) (B3G)
                 (B2U) (B1U) (B3G) (B1U) (AG) (B2U) (AG) (B3G)
                 (B1U) (AG) (B1U) (B2U) (AG) (B3G) (B1U) (AG) (B1U)
                 (B2U) (B3G) (AG) (B2U) (AG) (B1U) (B1U) (B2U)
                 (AG) (B3G) (B2U) (B1U) (AG) (B3G) (AG) (B3G) (B2U)
                 (B1U) (B2U) (AG) (AG) (B3G) (B1U) (B1U) (B2U)
                 (B2U) (B3U) (B2G) (B1G) (B3G) (AG) (AU) (B3U)
                 (B3U) (B1G) (AG) (AG) (B3G) (B1U) (B2U) (B2G)
                 (B2U) (B2G) (B1G) (B3U) (AU)
       Virtual   (B3G) (B2U) (B1U) (B1G) (B2G) (B1U) (AG) (B3G)
                 (B3U) (AU) (B3U) (AU) (B2G) (B2G) (B1G) (AG) (B1U)
                 (B2U) (AG) (B3G) (AG) (B1U) (B2U) (B2U) (AG) (AU)
                 (B3U) (B1U) (B3U) (B3G) (AG) (B1G) (B2G) (B3G)
                 (AG) (AG) (B1U) (B2U) (B3U) (B1U) (B3G) (AG) (B2U)
                 (B1U) (B2G) (B3U) (AU) (AG) (B2U) (B1U) (B1U)
                 (B1G) (B1G) (B2G) (B2U) (B1U) (B2U) (B3G) (AG)
                 (AG) (B3G) (AG) (B2G) (B3G) (AG) (AU) (B3U) (B1U)
                 (B2U) (B1U) (B2U) (B2U) (B3G) (AG) (B1U) (B2U)
                 (B1U) (B3U) (B3U) (AU) (B3G) (AG) (AG) (B1G) (B3G)
                 (AG) (AG) (B2G) (B1G) (B2U) (B1U) (B2U) (B3G)
                 (AG) (B1U) (B3U) (B3G) (AG) (B1U) (B2U) (B2G)
                 (B1U) (AG) (AU) (B2G) (B1G) (B3G) (B1U) (B2U)
                 (B2U) (B3U) (B1U) (B2U) (B1G) (B3U) (AU) (B3G)
                 (AG) (B2G) (B1G) (B3U) (AU) (B1U) (B3G) (B3G)
                 (AG) (B3G) (AG) (B1U) (B2U) (B1U) (B2G) (B1G)
                 (B2U) (B3G) (AG) (AU) (B3U) (B1U) (B2U) (B3G)
                 (AG) (B1G) (B2G) (AG) (B1U) (B2U) (B2G) (B2U)
                 (B3U) (AU) (B3U) (B1U) (B3G) (AG) (B1U) (B2U)
                 (AG) (B3G) (AG) (AG) (B3G) (B3G) (B3U) (B2U) (B1U)
                 (B2U) (AU) (AG) (B2G) (B1G) (B2G) (B3G) (AG) (B1U)
                 (B2U) (B1U) (B3U) (AU) (B1G) (AG) (B2G) (B1G)
                 (B3G) (AG) (B1U) (B2U) (B3G) (B1U) (AG) (B2G)
                 (B1G) (AU) (B3U) (B1G) (B2U) (B1U) (AG) (B3G)
                 (B1U) (B3U) (AU) (B2G) (B1G) (B2U) (B1U) (B1G)
                 (B1U) (B2U) (B3U) (B3U) (AU) (B2U) (AG) (B3G)
                 (B3G) (B3U) (AG) (B3G) (B2U) (B1U) (B2U) (B1G)
                 (B2G) (B3G) (B1U) (AG) (AG) (B3U) (AU) (B2G) (B1U)
                 (B2U) (AU) (B3G) (B2G) (B1G) (B2U) (B1U) (B2G)
                 (B1G) (AG) (B3G) (AG) (AG) (B3G) (B3U) (AU) (B1U)
                 (B2U) (B3U) (AG) (AU) (B1U) (AU) (B3U) (AG) (B3G)
                 (B1U) (B2U) (B2G) (B1G) (AG) (B3G) (B2G) (B1G)
                 (B3U) (AG) (B3G) (B3U) (B1U) (B2U) (B3U) (AU)
                 (B2G) (B1G) (B2U) (B1U) (AG) (B3G) (B2U) (AG)
                 (B1U) (B2U) (AU) (B2G) (B1G) (B1U) (B2G) (B3G)
                 (B3U) (AU) (B1U) (B2U) (AG) (B3G) (B1U) (B2U)
                 (B3U) (AU) (B1G) (B2G) (B1G) (B2G) (B1G) (B2U)
                 (AG) (B2G) (AG) (B3G) (B3U) (AU) (B2U) (B3G) (B1U)
                 (AU) (B3U) (B1U) (B2U) (AU) (B2G) (B1G) (B3G)
                 (AG) (AG) (B1U) (B2U) (AG) (B3G) (B3U) (B2G) (B1G)
                 (B3G) (AG) (B3U) (B1U) (B1U) (B2U) (B3U) (AU)
                 (B1U) (B2U) (B2G) (B1G) (B1U) (B1G) (B3U) (AU)
                 (AG) (B3G) (AG) (B1U) (B2U) (B2G) (B1G) (B1U)
                 (B2U) (AG) (B3U) (AU) (B2G) (B3G) (AG) (B1U) (B2U)
                 (AU) (AG) (B3G) (B3G) (B1U) (B2U) (AG) (B3G) (B2U)
                 (B1U) (AG) (B3G) (AG) (B3G) (AG) (B2U) (B1U) (B2U)
                 (B3G) (AU) (B2G) (B2G) (B1G) (B2U) (B1U) (AG)
                 (B3G) (B2G) (B3U) (AU) (B1U) (AG) (B3G) (B1U)
                 (B2U) (B2U) (B3G) (B1U) (B2U) (B2U) (B2G) (B1G)
                 (B1U) (B2U) (AG) (AG) (B3G) (B1U) (AG) (B3G) (B3U)
                 (AU) (B3U) (AG) (B1U) (B2U) (B1G) (AG) (B3G) (B3U)
                 (B2U) (B1U) (B1U) (B2U) (AG) (AG) (B3G) (B2G)
                 (B1G) (B3G) (B3U) (AU) (B2G) (B3G) (AG) (B1G)
                 (B2G) (AU) (B1G) (B1U) (B1U) (B2U) (B3G) (B3U)
                 (AG) (B2U) (B1U) (B3G) (AG) (B3G) (B2U) (B3U)
                 (B3U) (AU) (AU) (B3U) (B1U) (B2U) (B1G) (B2G)
                 (B3G) (AG) (B2U) (B1U) (B2U) (AG) (B1G) (B1U)
                 (B3G) (AG) (AU) (B3U) (B1G) (B2G) (B2G) (B1G)
                 (B2G) (B1U) (B2U) (AG) (B3G) (AG) (B2G) (B1G)
                 (B3U) (AU) (B2G) (B1G) (B1U) (B2U) (B1G) (B3G)
                 (B3U) (AU) (B3U) (AG) (AU) (B3U) (B3G) (AG) (B1U)
                 (B2U) (B2U) (B1U) (AG) (B3G) (B2G) (B1G) (B3U)
                 (B2U) (AU) (B3U) (B3U) (AU) (AU) (B1U) (B2U) (B1G)
                 (B2G) (AG) (B1U) (B2U) (B1U) (B3U) (AU) (B3G)
                 (AG) (B1G) (AG) (B3G) (AG) (B2G) (B1G) (B3G) (B1U)
                 (B2U) (B2G) (B2G) (B1G) (B3G) (AG) (B1U) (B2U)
                 (B3U) (B1U) (B2U) (B3G) (AG) (AG) (AU) (B2G) (B1G)
                 (B1U) (B2U) (AG) (AU) (B3U) (B1U) (B1U) (B2U)
                 (B2G) (B3G) (B1G) (AG) (B3G) (AG) (AU) (B3U) (B1U)
                 (AG) (B3G) (B2U) (B3U) (B1U) (B2U) (AG) (B3G)
                 (B1U) (B1G) (B2G) (B2U) (B1U) (B3U) (AU) (AG)
                 (AG) (B3G) (B2U) (AU) (B1U) (B2G) (B2G) (B1G)
                 (B3G) (B2U) (B1U) (B3U) (B2U) (B3G) (AG) (AU)
                 (B3U) (AG) (B1U) (B2U) (B1G) (B3G) (AG) (B3G)
                 (B1G) (B2G) (B2G) (B1G) (B2U) (B1U) (B1U) (B2G)
                 (AU) (B3U) (B3G) (AG) (B2U) (B1U) (B3U) (AU) (AG)
                 (B3G) (B3U) (B2U) (B1U) (B2G) (B3G) (B2U) (B2G)
                 (B1G) (AU) (B3G) (AG) (B3U) (AU) (AG) (B2G) (AU)
                 (B1G) (AU) (B3U) (AG) (B3G) (B3G) (B2U) (B2U)
                 (B1U) (B1U) (B2U) (B1G) (B2G) (B1U) (AG) (B2U)
                 (AG) (B3G) (B1U) (B2U) (B2G) (B3U) (B2U) (B1U)
                 (AG) (B3G) (B1U) (B3G) (B3G) (AG) (B2G) (B1G)
                 (AG) (AU) (B2U) (B2U) (B1U) (B1U) (B3G) (AG) (AG)
                 (B1U) (B2U) (B2G) (B1G) (B3G) (B3G) (AG) (B3G)
                 (AG) (AU) (B3U) (B1U) (B2U) (AG) (B3G) (B2U) (B1U)
                 (B1U) (B2U) (AG) (AU) (B3U) (B1U) (B3G) (B1U)
                 (B1U) (B2U) (B2G) (B1G) (B2G) (B3U) (B3G) (AG)
                 (B2U) (B1U) (AU) (B3U) (B3G) (AG) (AG) (B1G) (B2U)
                 (B1U) (B3G) (AU) (B3U) (B2U) (B2G) (B1G) (B3G)
                 (AG) (AG) (B3G) (B3U) (B1U) (B2U) (B1U) (AU) (B3G)
                 (AG) (B2G) (B3U) (AU) (B2G) (B1G) (B2U) (B1U)
                 (AU) (B1U) (B2U) (B2U) (B3G) (B2G) (B1G) (AG)
                 (AG) (B3G) (B2G) (B3U) (AU) (B3G) (B1U) (B1G)
                 (B2G) (B1U) (B2U) (AG) (B3G) (B3G) (AG) (AG) (B1U)
                 (B2U) (AU) (B3U) (B1U) (B3G) (B2G) (AU) (B1U)
                 (B2U) (AG) (B3G) (AG) (B1U) (B2U) (B2G) (B2U)
                 (AG) (B3G) (B1U) (B1G) (B1U) (B3U) (AG) (B3G)
                 (AG) (B2U) (B1U) (B1G) (B2G) (B1G) (B2U) (B3G)
                 (AG) (B3U) (AU) (B2U) (B1U) (AG) (B3U) (B1U) (B2U)
                 (B1U) (B3G) (B1G) (B2G) (AG) (AG) (B3G) (B1G)
                 (AU) (B3U) (B2U) (B1U) (B2U) (B2U) (B1U) (B3U)
                 (B3G) (AG) (B3G) (B1U) (B2U) (AU) (B3U) (B3G)
                 (B3G) (AG) (B3U) (B2U) (B2G) (B1G) (B1U) (B1G)
                 (B2G) (B1G) (B3G) (AG) (B3U) (AU) (AG) (B3U) (B1U)
                 (B2U) (B1G) (AU) (B1G) (B2G) (AG) (B3G) (AG) (B1U)
                 (B2U) (B3U) (AU) (B2G) (B1G) (B2G) (B1U) (B2U)
                 (AU) (B3U) (B2U) (B1U) (B3G) (AG) (AG) (B3G) (B2U)
                 (AU) (AU) (B3U) (AG) (B3G) (AG) (B2G) (B2G) (B1G)
                 (B2U) (B1U) (B3U) (AU) (B3U) (B1U) (B2U) (B1G)
                 (B2G) (B3G) (B1U) (B1G) (B2G) (B3G) (AG) (B3U)
                 (AU) (B2U) (B1U) (B3U) (AU) (B1G) (B2G) (B3G)
                 (AG) (B1U) (B2U) (B3U) (AG) (B1U) (B1G) (B2U)
                 (B2G) (B1G) (AG) (B3G) (B2G) (B1U) (B3U) (B3U)
                 (AU) (B3G) (AU) (B2U) (B1U) (AG) (AG) (B3G) (B2G)
                 (B1G) (AU) (B3U) (B2U) (B1U) (B2U) (AG) (B3G)
                 (B3G) (AG) (B1G) (B2G) (B1G) (B2U) (B2U) (B1U)
                 (AG) (B3G) (B1G) (B2G) (B3U) (AU) (AG) (B3U) (B2G)
                 (B2U) (B1U) (AU) (AU) (B3U) (AG) (B3G) (B2G) (B1G)
                 (AU) (B2U) (B2G) (B1G) (B3U) (B2G) (B1G) (B3G)
                 (AG) (B2U) (B1U) (B1G) (AU) (B1U) (B2U) (B3U)
                 (AU) (AU) (B3U) (AG) (B3G) (AG) (B1U) (B2U) (B2U)
                 (B1U) (B3U) (B2G) (B1G) (AG) (B3G) (AG) (B3G)
                 (B2G) (B1G) (B1U) (B2U) (B3U) (B1U) (B3G) (AG)
                 (AU) (B3U) (B2U) (B1U) (B3G) (B3G) (AG) (B2G)
                 (AU) (B1G) (B2G) (B1U) (B3G) (AG) (AG) (B1U) (B2U)
                 (B1G) (B2G) (B1G) (AU) (B3U) (B2G) (B1U) (AG)
                 (B3G) (B1G) (AU) (B3U) (B2U) (B1U) (B2U) (B2U)
                 (B2G) (B1G) (B1U) (B2U) (AU) (B3U) (AG) (B3G)
                 (B3U) (B1U) (AG) (B3G) (AG) (B2G) (B1G) (B1G)
                 (AG) (B3G) (B2U) (B1U) (B3U) (B3U) (AU) (B2U)
                 (B1U) (B2G) (B3G) (AU) (AU) (B3U) (B2U) (B3G)
                 (AG) (B2G) (B1G) (B3U) (AU) (B1U) (B2G) (B3G)
                 (AG) (AG) (B3G) (B2U) (B2G) (B1G) (AG) (B3G) (B1U)
                 (B2U) (B3U) (B1U) (B2U) (B1U) (AU) (B1G) (B2G)
                 (B1G) (B2G) (AU) (B3U) (AG) (B3G) (B1U) (B2U)
                 (B1U) (B3G) (B3G) (AG) (AG) (B1U) (B2U) (B3G)
                 (AG) (AU) (B2U) (B1U) (B2U) (AU) (B3U) (B1U) (B1G)
                 (B2G) (B1G) (B2U) (B1U) (B3G) (AG) (B3G) (B3U)
                 (AU) (AG) (B2U) (AG) (B3U) (B1U) (B2U) (B2G) (B1G)
                 (AG) (B3G) (B1U) (AU) (B2G) (B1G) (B3G) (B3U)
                 (AU) (B2G) (B1U) (B2U) (B2G) (B1G) (B3G) (B2U)
                 (B1U) (AU) (B3U) (B2G) (B1U) (AU) (B3U) (AG) (B3G)
                 (B2U) (B1U) (B2U) (B1U) (AG) (B3G) (AG) (B3U)
                 (B2G) (B1G) (B3G) (B2G) (B3G) (AG) (AU) (B3G)
                 (AG) (B2U) (B1U) (AU) (B3U) (B1U) (B2G) (B1G)
                 (AG) (B3G) (B3G) (AG) (B3G) (B2U) (AG) (B2U) (B1U)
                 (B1U) (B2U) (B1U) (B2G) (AG) (B2U) (B1U) (B1U)
                 (B1G) (B1U) (B2U) (AG) (B3G) (AU) (B3G) (AG) (AG)
                 (B3G) (B1G) (B2G) (B2U) (AU) (B3U) (B3U) (B1U)
                 (B2U) (B3G) (AG) (B2U) (B1U) (AU) (B3U) (B1U)
                 (B3G) (B3G) (AG) (B2U) (B2G) (B1G) (B3G) (AU)
                 (B3U) (B1U) (B2G) (B1U) (B2U) (B2G) (B1G) (B2G)
                 (B3U) (AG) (B3G) (B3G) (B1U) (B2U) (AG) (B3G)
                 (AG) (B2U) (AU) (B2G) (B1G) (AU) (AG) (B1G) (AU)
                 (B3U) (AG) (B3G) (AG) (B3G) (B1U) (B2U) (B2U)
                 (B2U) (B1U) (AU) (B3U) (B3G) (AG) (B1G) (B2G)
                 (B1U) (B2G) (B2U) (B1U) (AU) (B1U) (B1U) (B2U)
                 (B3G) (B3G) (AG) (AG) (B3G) (AG) (AU) (B3U) (B2G)
                 (B2U) (B1G) (B2G) (B1U) (B2U) (AU) (B1U) (B1U)
                 (AG) (B2U) (B1U) (AG) (B3G) (AG) (B3G) (B3G) (AG)
                 (B2U) (B1U) (B1U) (B1U) (B2U) (B3G) (AG) (B3G)
                 (B1U) (B2U) (B2U) (AG) (B3G) (B1U) (B3G) (B3G)
                 (AG) (AG) (B2U) (B1U) (B1U) (B1U) (B2U) (AG) (B3G)
                 (B3G) (B1U) (B2U) (B1U) (B3G) (AG) (B3G) (B1U)
                 (AG) (B1U) (B2U) (B3G) (AG) (B2U) (AG) (B1U) (B2U)
                 (B3G) (AG) (B1U) (B1U) (B2U) (B3G) (AG) (AG) (B1U)
                 (B3G) (B1U) (B2U) (AG) (B3G) (B1U) (AG) (B2U)
                 (B1U) (B2U) (B3G) (AG) (AG) (B1U) (B2U) (B3G)
                 (AG) (B1U) (AG) (B1U) (B2U) (AG) (B3G) (B1U) (B3G)
                 (B1U) (B2U) (AG) (B3G) (B1U)
 The electronic state of the initial guess is 1-AG.
 Leave Link  401 at Sat Apr 17 14:04:24 2021, MaxMem=   104857600 cpu:            1638.4 elap:              36.6
 (Enter /s/ls4/users/knvvv/bin/g16sse/l502.exe)
 Integral symmetry usage will be decided dynamically.
 Closed shell SCF:
 Using DIIS extrapolation, IDIIS=  1040.
 NGot=   104857600 LenX=    97535700 LenY=    93938988
 Requested convergence on RMS density matrix=1.00D-08 within 128 cycles.
 Requested convergence on MAX density matrix=1.00D-06.
 Requested convergence on             energy=1.00D-06.
 No special actions if energy rises.
 Fock matrices will be formed incrementally for  20 cycles.

 Cycle   1  Pass 1  IDiag  1:
 FoFJK:  IHMeth= 1 ICntrl=       0 DoSepK=F KAlg= 0 I1Cent=           0 FoldK=F
 IRaf= 830000000 NMat=       1 IRICut=       1 DoRegI=T DoRafI=F ISym2E= 1 IDoP0=0 IntGTp=1.
 FoFCou: FMM=F IPFlag=           0 FMFlag=      100000 FMFlg1=           0
         NFxFlg=           0 DoJE=F BraDBF=F KetDBF=F FulRan=T
         wScrn=  0.000000 ICntrl=         0 IOpCl=  0 I1Cent=           0 NGrid=           0
         NMat0=    1 NMatS0=      1 NMatT0=    0 NMatD0=    1 NMtDS0=    0 NMtDT0=    0
 Petite list used in FoFCou.
 CoulSu:  requested number of processors reduced to:  11 ShMem   1 Linda.
 CalDSu:  requested number of processors reduced to:  21 ShMem   1 Linda.
 E= -913.518743932024    
 DIIS: error= 2.96D-02 at cycle   1 NSaved=   1.
 NSaved= 1 IEnMin= 1 EnMin= -913.518743932024     IErMin= 1 ErrMin= 2.96D-02
 ErrMax= 2.96D-02  0.00D+00 EMaxC= 1.00D-01 BMatC= 8.69D-01 BMatP= 8.69D-01
 IDIUse=3 WtCom= 7.04D-01 WtEn= 2.96D-01
 Coeff-Com:  0.100D+01
 Coeff-En:   0.100D+01
 Coeff:      0.100D+01
 Gap=     0.203 Goal=   None    Shift=    0.000
 GapD=    0.203 DampG=1.000 DampE=0.500 DampFc=0.5000 IDamp=-1.
 Damping current iteration by 5.00D-01
 RMSDP=5.11D-03 MaxDP=6.20D-01              OVMax= 1.28D-01

 Cycle   2  Pass 1  IDiag  1:
 RMSU=  1.05D-03    CP:  6.45D-01
 CoulSu:  requested number of processors reduced to:  11 ShMem   1 Linda.
 CalDSu:  requested number of processors reduced to:  21 ShMem   1 Linda.
 E= -913.743422985913     Delta-E=       -0.224679053889 Rises=F Damp=T
 DIIS: error= 1.49D-02 at cycle   2 NSaved=   2.
 NSaved= 2 IEnMin= 2 EnMin= -913.743422985913     IErMin= 2 ErrMin= 1.49D-02
 ErrMax= 1.49D-02  0.00D+00 EMaxC= 1.00D-01 BMatC= 1.34D-01 BMatP= 8.69D-01
 IDIUse=3 WtCom= 8.51D-01 WtEn= 1.49D-01
 Coeff-Com: -0.513D+00 0.151D+01
 Coeff-En:   0.000D+00 0.100D+01
 Coeff:     -0.437D+00 0.144D+01
 Gap=     0.226 Goal=   None    Shift=    0.000
 RMSDP=2.88D-03 MaxDP=3.93D-01 DE=-2.25D-01 OVMax= 6.04D-02

 Cycle   3  Pass 1  IDiag  1:
 RMSU=  8.67D-04    CP:  2.65D-01  2.10D+00
 CoulSu:  requested number of processors reduced to:  11 ShMem   1 Linda.
 CalDSu:  requested number of processors reduced to:  21 ShMem   1 Linda.
 E= -913.925664740419     Delta-E=       -0.182241754506 Rises=F Damp=F
 DIIS: error= 3.39D-03 at cycle   3 NSaved=   3.
 NSaved= 3 IEnMin= 3 EnMin= -913.925664740419     IErMin= 3 ErrMin= 3.39D-03
 ErrMax= 3.39D-03  0.00D+00 EMaxC= 1.00D-01 BMatC= 5.05D-03 BMatP= 1.34D-01
 IDIUse=3 WtCom= 9.66D-01 WtEn= 3.39D-02
 Coeff-Com: -0.153D+00 0.362D+00 0.791D+00
 Coeff-En:   0.000D+00 0.000D+00 0.100D+01
 Coeff:     -0.148D+00 0.349D+00 0.798D+00
 Gap=     0.212 Goal=   None    Shift=    0.000
 RMSDP=1.87D-04 MaxDP=1.89D-02 DE=-1.82D-01 OVMax= 1.59D-02

 Cycle   4  Pass 1  IDiag  1:
 RMSU=  1.53D-04    CP:  2.60D-01  2.09D+00  8.84D-01
 CoulSu:  requested number of processors reduced to:  11 ShMem   1 Linda.
 CalDSu:  requested number of processors reduced to:  21 ShMem   1 Linda.
 E= -913.928800515052     Delta-E=       -0.003135774633 Rises=F Damp=F
 DIIS: error= 2.12D-03 at cycle   4 NSaved=   4.
 NSaved= 4 IEnMin= 4 EnMin= -913.928800515052     IErMin= 4 ErrMin= 2.12D-03
 ErrMax= 2.12D-03  0.00D+00 EMaxC= 1.00D-01 BMatC= 1.59D-03 BMatP= 5.05D-03
 IDIUse=3 WtCom= 9.79D-01 WtEn= 2.12D-02
 Coeff-Com: -0.654D-01 0.146D+00 0.432D+00 0.487D+00
 Coeff-En:   0.000D+00 0.000D+00 0.185D+00 0.815D+00
 Coeff:     -0.640D-01 0.143D+00 0.427D+00 0.494D+00
 Gap=     0.211 Goal=   None    Shift=    0.000
 RMSDP=4.07D-05 MaxDP=3.38D-03 DE=-3.14D-03 OVMax= 9.83D-03

 Cycle   5  Pass 1  IDiag  1:
 RMSU=  3.34D-05    CP:  2.59D-01  2.08D+00  8.65D-01  1.10D+00
 CoulSu:  requested number of processors reduced to:  11 ShMem   1 Linda.
 CalDSu:  requested number of processors reduced to:  21 ShMem   1 Linda.
 E= -913.930188186266     Delta-E=       -0.001387671213 Rises=F Damp=F
 DIIS: error= 7.30D-04 at cycle   5 NSaved=   5.
 NSaved= 5 IEnMin= 5 EnMin= -913.930188186266     IErMin= 5 ErrMin= 7.30D-04
 ErrMax= 7.30D-04  0.00D+00 EMaxC= 1.00D-01 BMatC= 1.03D-04 BMatP= 1.59D-03
 IDIUse=3 WtCom= 9.93D-01 WtEn= 7.30D-03
 Coeff-Com: -0.201D-01 0.441D-01 0.151D+00 0.253D+00 0.571D+00
 Coeff-En:   0.000D+00 0.000D+00 0.000D+00 0.000D+00 0.100D+01
 Coeff:     -0.199D-01 0.437D-01 0.150D+00 0.251D+00 0.575D+00
 Gap=     0.212 Goal=   None    Shift=    0.000
 RMSDP=2.20D-05 MaxDP=2.41D-03 DE=-1.39D-03 OVMax= 3.27D-03

 Cycle   6  Pass 1  IDiag  1:
 RMSU=  1.25D-05    CP:  2.59D-01  2.08D+00  8.55D-01  1.20D+00  1.13D+00
 CoulSu:  requested number of processors reduced to:  11 ShMem   1 Linda.
 CalDSu:  requested number of processors reduced to:  21 ShMem   1 Linda.
 E= -913.930286546709     Delta-E=       -0.000098360444 Rises=F Damp=F
 DIIS: error= 2.30D-04 at cycle   6 NSaved=   6.
 NSaved= 6 IEnMin= 6 EnMin= -913.930286546709     IErMin= 6 ErrMin= 2.30D-04
 ErrMax= 2.30D-04  0.00D+00 EMaxC= 1.00D-01 BMatC= 1.42D-05 BMatP= 1.03D-04
 IDIUse=3 WtCom= 9.98D-01 WtEn= 2.30D-03
 Coeff-Com: -0.906D-03 0.181D-02 0.201D-01 0.637D-01 0.312D+00 0.603D+00
 Coeff-En:   0.000D+00 0.000D+00 0.000D+00 0.000D+00 0.807D-01 0.919D+00
 Coeff:     -0.904D-03 0.181D-02 0.201D-01 0.636D-01 0.312D+00 0.604D+00
 Gap=     0.212 Goal=   None    Shift=    0.000
 RMSDP=9.51D-06 MaxDP=4.80D-04 DE=-9.84D-05 OVMax= 9.96D-04

 Cycle   7  Pass 1  IDiag  1:
 RMSU=  3.92D-06    CP:  2.59D-01  2.08D+00  8.52D-01  1.24D+00  1.27D+00
                    CP:  1.04D+00
 CoulSu:  requested number of processors reduced to:  11 ShMem   1 Linda.
 CalDSu:  requested number of processors reduced to:  21 ShMem   1 Linda.
 E= -913.930301324523     Delta-E=       -0.000014777814 Rises=F Damp=F
 DIIS: error= 3.94D-05 at cycle   7 NSaved=   7.
 NSaved= 7 IEnMin= 7 EnMin= -913.930301324523     IErMin= 7 ErrMin= 3.94D-05
 ErrMax= 3.94D-05  0.00D+00 EMaxC= 1.00D-01 BMatC= 4.22D-07 BMatP= 1.42D-05
 IDIUse=1 WtCom= 1.00D+00 WtEn= 0.00D+00
 Coeff-Com:  0.254D-02-0.549D-02-0.142D-01-0.188D-01 0.362D-02 0.145D+00
 Coeff-Com:  0.887D+00
 Coeff:      0.254D-02-0.549D-02-0.142D-01-0.188D-01 0.362D-02 0.145D+00
 Coeff:      0.887D+00
 Gap=     0.212 Goal=   None    Shift=    0.000
 RMSDP=3.75D-06 MaxDP=1.86D-04 DE=-1.48D-05 OVMax= 2.85D-04

 Cycle   8  Pass 1  IDiag  1:
 RMSU=  1.18D-06    CP:  2.59D-01  2.08D+00  8.51D-01  1.26D+00  1.32D+00
                    CP:  1.08D+00  1.20D+00
 CoulSu:  requested number of processors reduced to:  12 ShMem   1 Linda.
 CalDSu:  requested number of processors reduced to:  21 ShMem   1 Linda.
 E= -913.930301887672     Delta-E=       -0.000000563149 Rises=F Damp=F
 DIIS: error= 7.09D-06 at cycle   8 NSaved=   8.
 NSaved= 8 IEnMin= 8 EnMin= -913.930301887672     IErMin= 8 ErrMin= 7.09D-06
 ErrMax= 7.09D-06  0.00D+00 EMaxC= 1.00D-01 BMatC= 1.01D-08 BMatP= 4.22D-07
 IDIUse=1 WtCom= 1.00D+00 WtEn= 0.00D+00
 Coeff-Com:  0.321D-03-0.705D-03-0.200D-02-0.382D-02-0.683D-02 0.139D-02
 Coeff-Com:  0.106D+00 0.905D+00
 Coeff:      0.321D-03-0.705D-03-0.200D-02-0.382D-02-0.683D-02 0.139D-02
 Coeff:      0.106D+00 0.905D+00
 Gap=     0.212 Goal=   None    Shift=    0.000
 RMSDP=6.06D-07 MaxDP=7.37D-05 DE=-5.63D-07 OVMax= 8.14D-05

 Cycle   9  Pass 1  IDiag  1:
 RMSU=  3.59D-07    CP:  2.59D-01  2.08D+00  8.51D-01  1.26D+00  1.31D+00
                    CP:  1.06D+00  1.22D+00  1.25D+00
 CoulSu:  requested number of processors reduced to:  12 ShMem   1 Linda.
 CalDSu:  requested number of processors reduced to:  21 ShMem   1 Linda.
 E= -913.930301905499     Delta-E=       -0.000000017827 Rises=F Damp=F
 DIIS: error= 5.51D-06 at cycle   9 NSaved=   9.
 NSaved= 9 IEnMin= 9 EnMin= -913.930301905499     IErMin= 9 ErrMin= 5.51D-06
 ErrMax= 5.51D-06  0.00D+00 EMaxC= 1.00D-01 BMatC= 9.37D-09 BMatP= 1.01D-08
 IDIUse=1 WtCom= 1.00D+00 WtEn= 0.00D+00
 Coeff-Com:  0.256D-04-0.631D-04-0.263D-03-0.984D-03-0.391D-02-0.847D-02
 Coeff-Com: -0.663D-03 0.523D+00 0.491D+00
 Coeff:      0.256D-04-0.631D-04-0.263D-03-0.984D-03-0.391D-02-0.847D-02
 Coeff:     -0.663D-03 0.523D+00 0.491D+00
 Gap=     0.212 Goal=   None    Shift=    0.000
 RMSDP=1.33D-07 MaxDP=1.07D-05 DE=-1.78D-08 OVMax= 3.18D-05

 Cycle  10  Pass 1  IDiag  1:
 RMSU=  9.09D-08    CP:  2.59D-01  2.08D+00  8.51D-01  1.26D+00  1.31D+00
                    CP:  1.06D+00  1.22D+00  1.31D+00  1.11D+00
 CoulSu:  requested number of processors reduced to:  12 ShMem   1 Linda.
 CalDSu:  requested number of processors reduced to:  21 ShMem   1 Linda.
 E= -913.930301914330     Delta-E=       -0.000000008831 Rises=F Damp=F
 DIIS: error= 2.81D-06 at cycle  10 NSaved=  10.
 NSaved=10 IEnMin=10 EnMin= -913.930301914330     IErMin=10 ErrMin= 2.81D-06
 ErrMax= 2.81D-06  0.00D+00 EMaxC= 1.00D-01 BMatC= 2.54D-09 BMatP= 9.37D-09
 IDIUse=1 WtCom= 1.00D+00 WtEn= 0.00D+00
 Coeff-Com: -0.119D-03 0.253D-03 0.637D-03 0.926D-03 0.181D-03-0.712D-02
 Coeff-Com: -0.518D-01-0.724D-02 0.361D+00 0.703D+00
 Coeff:     -0.119D-03 0.253D-03 0.637D-03 0.926D-03 0.181D-03-0.712D-02
 Coeff:     -0.518D-01-0.724D-02 0.361D+00 0.703D+00
 Gap=     0.212 Goal=   None    Shift=    0.000
 RMSDP=1.05D-07 MaxDP=5.10D-06 DE=-8.83D-09 OVMax= 2.30D-05

 Cycle  11  Pass 1  IDiag  1:
 RMSU=  6.20D-08    CP:  2.59D-01  2.08D+00  8.51D-01  1.26D+00  1.31D+00
                    CP:  1.06D+00  1.22D+00  1.36D+00  1.24D+00  1.14D+00
 CoulSu:  requested number of processors reduced to:  12 ShMem   1 Linda.
 CalDSu:  requested number of processors reduced to:  21 ShMem   1 Linda.
 E= -913.930301918058     Delta-E=       -0.000000003728 Rises=F Damp=F
 DIIS: error= 4.15D-07 at cycle  11 NSaved=  11.
 NSaved=11 IEnMin=11 EnMin= -913.930301918058     IErMin=11 ErrMin= 4.15D-07
 ErrMax= 4.15D-07  0.00D+00 EMaxC= 1.00D-01 BMatC= 2.19D-11 BMatP= 2.54D-09
 IDIUse=1 WtCom= 1.00D+00 WtEn= 0.00D+00
 Coeff-Com:  0.106D-04-0.216D-04-0.701D-04-0.264D-04 0.266D-03 0.117D-02
 Coeff-Com:  0.311D-02-0.241D-01-0.592D-01-0.579D-01 0.114D+01
 Coeff:      0.106D-04-0.216D-04-0.701D-04-0.264D-04 0.266D-03 0.117D-02
 Coeff:      0.311D-02-0.241D-01-0.592D-01-0.579D-01 0.114D+01
 Gap=     0.212 Goal=   None    Shift=    0.000
 RMSDP=4.65D-08 MaxDP=3.25D-06 DE=-3.73D-09 OVMax= 6.33D-06

 Cycle  12  Pass 1  IDiag  1:
 RMSU=  2.53D-08    CP:  2.59D-01  2.08D+00  8.51D-01  1.26D+00  1.31D+00
                    CP:  1.06D+00  1.22D+00  1.36D+00  1.25D+00  1.26D+00
                    CP:  1.38D+00
 CoulSu:  requested number of processors reduced to:  12 ShMem   1 Linda.
 CalDSu:  requested number of processors reduced to:  21 ShMem   1 Linda.
 E= -913.930301918287     Delta-E=       -0.000000000229 Rises=F Damp=F
 DIIS: error= 7.83D-08 at cycle  12 NSaved=  12.
 NSaved=12 IEnMin=12 EnMin= -913.930301918287     IErMin=12 ErrMin= 7.83D-08
 ErrMax= 7.83D-08  0.00D+00 EMaxC= 1.00D-01 BMatC= 1.42D-12 BMatP= 2.19D-11
 IDIUse=1 WtCom= 1.00D+00 WtEn= 0.00D+00
 Coeff-Com:  0.212D-05-0.448D-05-0.106D-04-0.764D-05 0.427D-04 0.397D-03
 Coeff-Com:  0.150D-02 0.200D-03-0.188D-01-0.379D-01-0.298D-02 0.106D+01
 Coeff:      0.212D-05-0.448D-05-0.106D-04-0.764D-05 0.427D-04 0.397D-03
 Coeff:      0.150D-02 0.200D-03-0.188D-01-0.379D-01-0.298D-02 0.106D+01
 Gap=     0.212 Goal=   None    Shift=    0.000
 RMSDP=8.60D-09 MaxDP=5.87D-07 DE=-2.29D-10 OVMax= 1.42D-06

 SCF Done:  E(RM062X) =  -913.930301918     A.U. after   12 cycles
            NFock= 12  Conv=0.86D-08     -V/T= 2.0041
 KE= 9.102136283607D+02 PE=-5.361226327533D+03 EE= 1.915377380158D+03
 Leave Link  502 at Sat Apr 17 15:48:14 2021, MaxMem=   104857600 cpu:          171595.6 elap:            6229.7
 (Enter /s/ls4/users/knvvv/bin/g16sse/l601.exe)
 Copying SCF densities to generalized density rwf, IOpCl= 0 IROHF=0.

 **********************************************************************

            Population analysis using the SCF density.

 **********************************************************************

 Orbital symmetries:
       Occupied  (B1U) (B3G) (AG) (B2U) (B1U) (AG) (AG) (B2U) (B1U)
                 (B3G) (AG) (B1U) (B2U) (B3G) (AG) (B1U) (B2U)
                 (AG) (B3G) (B2U) (B1U) (AG) (B3G) (B1U) (AG) (B1U)
                 (B2U) (B3G) (AG) (AG) (B2U) (B1U) (B1U) (B2U)
                 (AG) (B3G) (B2U) (B1U) (AG) (B3G) (AG) (B3G) (B2U)
                 (AG) (B1U) (B2U) (B1U) (AG) (B3G) (B1U) (B2U)
                 (B3U) (B2G) (B1G) (B2U) (B3G) (AG) (AU) (B3U)
                 (B3U) (B1G) (B2G) (AG) (B3G) (AG) (B2U) (B1U)
                 (B2U) (B2G) (B1G) (B3U) (AU)
       Virtual   (B3G) (B2U) (B1U) (B1G) (B2G) (B1U) (AG) (B3G)
                 (AU) (B3U) (B3U) (AG) (B1U) (B2U) (AG) (AG) (B3G)
                 (B2U) (B1U) (B2U) (B1U) (AU) (B3G) (AG) (B2G)
                 (B3G) (AG) (B2G) (B1G) (B3U) (AG) (B2U) (B1U)
                 (B3U) (AU) (B3U) (B1G) (B2G) (B1U) (B3G) (AG)
                 (B1U) (B2U) (AG) (B2U) (B1U) (B2U) (B1G) (B2G)
                 (B1G) (B2G) (AG) (AG) (B3G) (B3U) (AU) (B3G) (AG)
                 (B2U) (B1U) (B2U) (AG) (B1U) (B2U) (AU) (B3U)
                 (B1U) (B3G) (AG) (B3G) (AG) (B3U) (AG) (AU) (B3U)
                 (B2G) (B1G) (B3G) (AG) (B1G) (B2U) (B1U) (B1U)
                 (B1U) (B2U) (B3G) (AG) (B2G) (B1U) (B3U) (AG)
                 (B2U) (B1U) (B3G) (AG) (AU) (B2G) (B1G) (B2U)
                 (B2G) (B1U) (B2U) (B1U) (B3G) (AG) (B3G) (B3U)
                 (AU) (B3U) (B3G) (B2U) (B1U) (B2G) (B1G) (AG)
                 (B1G) (B3U) (AU) (B2U) (B1U) (B2U) (B1U) (B3G)
                 (AG) (AG) (AG) (B3G) (B2G) (B1G) (B1U) (B2U) (AU)
                 (B3U) (B2U) (B1U) (B2U) (AG) (B3G) (B1G) (B2G)
                 (B2G) (B1U) (AG) (B3G) (B2U) (B1U) (AG) (B3G)
                 (B3U) (AU) (AG) (B2U) (B3U) (AU) (B2G) (AG) (B3G)
                 (AG) (B1U) (B2U) (B3U) (B3G) (B3G) (AG) (AG) (B1U)
                 (B2U) (B1U) (B2G) (B1G) (B1G) (B3U) (AU) (B3G)
                 (B2U) (AG) (B1U) (B3G) (AG) (B2G) (B1G) (B1U)
                 (B1U) (B2U) (B3U) (AU) (B2G) (B1G) (B2U) (B1U)
                 (AG) (B3G) (AG) (B2U) (B1U) (B1G) (B3G) (AU) (B3U)
                 (AG) (B3G) (B3U) (AU) (B2U) (B2G) (B1G) (B1U)
                 (B2U) (B3U) (B1U) (B2G) (B1G) (B1U) (B2U) (B3G)
                 (B1G) (AG) (B3G) (B1U) (B3U) (AU) (B2G) (AU) (AG)
                 (B3G) (B3U) (B3G) (B1U) (B2U) (B2U) (AG) (B2G)
                 (B1G) (B2G) (AG) (B3G) (B1G) (AG) (AU) (B1U) (AG)
                 (B1U) (B2U) (B3G) (AG) (B2U) (B2U) (B1U) (AU)
                 (B3U) (AU) (B3U) (B3U) (AG) (AG) (B3G) (B1U) (B2U)
                 (B2G) (B2G) (B1G) (AG) (B3G) (B3G) (B1U) (B2U)
                 (B3U) (B3U) (AU) (AG) (B3G) (B1U) (B2U) (B1G)
                 (AG) (B3U) (B1U) (B2U) (B1U) (B2G) (B1G) (AU)
                 (B1U) (B2U) (B3G) (AG) (B3G) (B1G) (B2G) (B1U)
                 (B2U) (B2G) (B3U) (AU) (B3G) (AG) (B2U) (B1G)
                 (B3U) (AU) (B2G) (B1G) (B1U) (B2U) (B2G) (B1G)
                 (AG) (B3G) (AG) (B2G) (B2U) (B3U) (AU) (B3G) (AU)
                 (B3U) (AU) (B1U) (B2U) (B1U) (B3G) (AG) (B2G)
                 (B1G) (AG) (B3G) (B3U) (B2U) (B1U) (AG) (B3G)
                 (AG) (B2G) (B1G) (B1U) (B1U) (B2U) (B3U) (AU)
                 (B1U) (B3U) (B1U) (B2U) (B2G) (B1G) (AG) (B3G)
                 (AU) (B3U) (B1G) (AG) (B2G) (B1G) (B1U) (B2G)
                 (AG) (B2U) (B1U) (B2U) (B3U) (AU) (B3G) (AG) (B1U)
                 (B2U) (AU) (B3G) (AG) (B3G) (B1U) (B2U) (AG) (B3G)
                 (B1U) (AG) (B3G) (AU) (B2U) (B1U) (B2U) (AG) (B3G)
                 (B2U) (AG) (B2G) (B2G) (B1G) (B3G) (AG) (B3G)
                 (B1U) (B2G) (B2U) (B1U) (AU) (B3U) (AG) (B3G)
                 (B1U) (B2U) (B2U) (B2U) (B1U) (B2U) (B1G) (B2G)
                 (B3G) (B1U) (AG) (AG) (B3G) (B1U) (B2U) (AU) (B3U)
                 (AG) (AG) (B3G) (B3U) (B1U) (B2U) (AG) (B3G) (B2U)
                 (B1G) (AG) (B3G) (B3G) (B1U) (B2U) (B1U) (B3U)
                 (B2G) (B3G) (AG) (B2G) (B1G) (AU) (B1U) (B2U)
                 (B3G) (AG) (B1U) (B3U) (AU) (AG) (B1G) (B1G) (B2G)
                 (B3U) (AG) (B3G) (B3G) (B2U) (B1U) (B3U) (B2U)
                 (B1U) (B2U) (B3U) (AU) (B3U) (AU) (B3G) (AG) (B1G)
                 (B2G) (B2U) (B1U) (AG) (B1U) (B2U) (B2G) (B1G)
                 (B1G) (AU) (B3U) (B1G) (B2G) (AG) (B3G) (B1U)
                 (B2U) (B2G) (B3U) (B2G) (AU) (AG) (B2G) (B1G)
                 (B1G) (B3G) (AG) (B1U) (B2U) (B1G) (AU) (B3U)
                 (B1U) (B3U) (B3G) (AG) (B3U) (AU) (B3G) (AG) (B2U)
                 (B1U) (AG) (B3G) (B2G) (B1G) (B2U) (AU) (B3U)
                 (B3U) (B3U) (AU) (B1G) (B2G) (AU) (B2U) (AG) (B1U)
                 (B2U) (B1U) (B3U) (AU) (B1U) (B2U) (AG) (B3G)
                 (B1G) (AG) (B3G) (AG) (B2G) (B1G) (B2G) (B1U)
                 (B2U) (B3G) (B3G) (AG) (B2G) (B1G) (B1U) (B2U)
                 (B1U) (AG) (B3U) (B3G) (AG) (B2U) (AU) (B1G) (B2G)
                 (AG) (B1U) (B2U) (B1U) (B3G) (AU) (B3U) (B1U)
                 (B2U) (B2G) (AG) (B3G) (B1U) (B1G) (AG) (AU) (B3U)
                 (B1U) (B3G) (AG) (B2U) (AG) (B3G) (B1U) (B2U)
                 (B2U) (B1U) (B2U) (AG) (B1G) (B2G) (AU) (B3U)
                 (B3U) (AG) (B3G) (B3G) (B1U) (AU) (B2U) (B1U)
                 (AG) (B3G) (B2G) (B1U) (B2U) (B3G) (B2G) (B1G)
                 (AG) (B3G) (AG) (B1U) (B2U) (B2U) (AU) (B3U) (B3G)
                 (AG) (B1G) (B2G) (B2U) (B1U) (B2G) (B1U) (B3U)
                 (B1G) (B2G) (AU) (B3U) (B1G) (B3U) (AU) (B3G)
                 (B2G) (B3G) (AG) (AU) (B1U) (B2U) (B2U) (B3U)
                 (AG) (B3G) (B2G) (B1G) (B2G) (AU) (B3U) (AG) (AU)
                 (B3U) (AU) (B2U) (B1G) (B1U) (B2U) (AG) (B3G)
                 (B2U) (B1U) (B3G) (B1G) (B2G) (B1U) (AG) (AG)
                 (B3G) (B1U) (B2U) (B2G) (AG) (B3G) (B2U) (B1U)
                 (B3U) (B2U) (B1U) (B3G) (B2U) (AG) (B3G) (AU)
                 (B2U) (B1U) (B2G) (B1G) (AG) (B3G) (AG) (B1U)
                 (B2U) (B3G) (B1U) (B3G) (AG) (AG) (B3G) (AG) (B2G)
                 (B1G) (AU) (B3U) (B1U) (AG) (B3G) (B2U) (B2U)
                 (B1U) (B1U) (AU) (B3U) (B1U) (B2U) (B1U) (AG)
                 (B3G) (B1U) (B2U) (B2G) (B3U) (B3G) (AG) (B2U)
                 (B1U) (B1G) (B2G) (AU) (B3U) (B3G) (B3G) (AG)
                 (B1G) (AG) (B2U) (B1U) (AU) (B3U) (B2G) (B1G)
                 (B2U) (B3G) (AG) (B1U) (AG) (B3G) (B2U) (B1U)
                 (AU) (B3U) (AU) (B3U) (B3G) (AG) (B1U) (B2G) (B2G)
                 (B1G) (B2U) (B3G) (B1U) (B2U) (B2G) (B1G) (AU)
                 (B2U) (B2G) (AG) (B3U) (AU) (AG) (B3G) (B3G) (B1U)
                 (B1G) (B2G) (B1U) (B2U) (AG) (B3G) (B3G) (AG)
                 (AG) (B1U) (B1U) (B2U) (B2G) (AU) (B3U) (AU) (B3G)
                 (B1U) (B2U) (AG) (B3G) (B2U) (B1U) (B2U) (AG)
                 (B2G) (AG) (B3G) (B1G) (B1U) (B1U) (B3U) (AG)
                 (B2U) (B1G) (B1G) (B2G) (B3G) (AG) (B2U) (B1U)
                 (B3U) (AU) (B3G) (AG) (AG) (B1U) (B2U) (B3U) (B1U)
                 (B2U) (B1U) (B1G) (B2G) (B3G) (B1G) (AG) (B3G)
                 (AU) (B3U) (AG) (B2U) (B1U) (B3U) (B2U) (B2U)
                 (B1U) (B3G) (AG) (B1U) (B2U) (B3G) (AU) (B3U)
                 (B3G) (AG) (B2G) (B1G) (B3G) (B3U) (B2U) (AU)
                 (B3U) (B1G) (B2G) (AG) (B1U) (B1G) (AU) (B3G)
                 (AG) (B1G) (B3U) (AG) (B1G) (B2G) (B2G) (B2U)
                 (B1U) (B1G) (B2G) (B3G) (AG) (B3U) (AU) (B2U)
                 (B1U) (AU) (B3U) (B2U) (B1U) (B2U) (B3G) (AG)
                 (B3G) (AU) (B1U) (AG) (AU) (B3U) (AG) (B2U) (B2G)
                 (B3G) (AG) (B3U) (AU) (B1G) (B2G) (B1U) (B2U)
                 (B3U) (B1U) (B1G) (B2G) (B1U) (B2U) (B3G) (B2G)
                 (B1G) (B3G) (AG) (AU) (B3U) (B3U) (AU) (B2U) (B1U)
                 (B1G) (B2G) (AG) (B3U) (B3G) (AG) (B1G) (B2U)
                 (B1U) (B1U) (B2G) (B1G) (B2G) (B3G) (AG) (B2U)
                 (B1U) (B3U) (AU) (B3U) (AU) (AG) (B3G) (B2G) (B1G)
                 (B2U) (B1U) (AU) (B3U) (B3G) (AG) (B2U) (B2U)
                 (B1U) (B2G) (B1G) (B3G) (AG) (AG) (B1G) (B3G)
                 (B2U) (B2U) (B1U) (AG) (B3G) (B1G) (B2G) (B3U)
                 (AU) (B3U) (AG) (B2G) (AU) (B3U) (B2U) (B1U) (AU)
                 (AU) (B2G) (B1G) (AG) (B3G) (B2G) (B2U) (B1U)
                 (B3G) (AG) (B1G) (B2U) (AU) (B2G) (B1G) (B3U)
                 (B1G) (B3U) (AU) (B1U) (B2U) (AU) (B3U) (B3G)
                 (AG) (AG) (B2U) (B1U) (B2U) (B3G) (B1U) (B3U)
                 (B1G) (B2G) (AG) (B3G) (AG) (B2G) (B1G) (B1U)
                 (B2U) (B3U) (B1U) (B3G) (AG) (B1U) (B2U) (B3G)
                 (AG) (B3G) (B1U) (B3U) (AU) (B2G) (B1G) (B2G)
                 (B3G) (AG) (AG) (AU) (B1U) (B2U) (B1G) (AU) (B3U)
                 (B1G) (B2G) (B2G) (B1U) (AG) (B1G) (B3G) (B2U)
                 (B1U) (B2U) (AU) (B3U) (B2U) (B2G) (B1G) (B1U)
                 (B2U) (AU) (B3U) (AG) (B3G) (B1U) (AG) (B3G) (AG)
                 (B3U) (B3U) (B2U) (B1U) (B1G) (B2G) (AG) (B3G)
                 (B1G) (B3U) (AU) (B2U) (B1U) (B3G) (B2G) (AU)
                 (B3U) (AU) (B3G) (AG) (B2U) (B2G) (B1G) (B3U)
                 (AU) (AG) (B3G) (B2U) (B1U) (B2G) (AG) (B3G) (B1U)
                 (B2U) (B3G) (B1G) (B2G) (AG) (B3U) (B1U) (AU)
                 (B1G) (B2G) (B2U) (B1U) (B1G) (AG) (B3G) (AU)
                 (B3U) (B1U) (B2G) (B3G) (B2U) (B1U) (AG) (B3G)
                 (AG) (AU) (B1U) (B2U) (B3G) (AG) (B2U) (B1U) (B2U)
                 (AU) (B3U) (B1U) (B2G) (B1G) (B1G) (AG) (B3G)
                 (B3G) (B1U) (B2U) (B2U) (B3U) (AU) (B3U) (B1U)
                 (B2U) (AG) (B2G) (B1G) (B3U) (AU) (AG) (B2G) (B1G)
                 (B1U) (AG) (B3G) (AU) (B2G) (B3G) (B3G) (B2G)
                 (B1G) (B1U) (B2U) (B2G) (AU) (B3U) (AU) (B3U)
                 (B2U) (B1U) (B2U) (B1U) (AG) (B3G) (B1U) (B3G)
                 (AG) (B2G) (B1G) (B3U) (B2U) (B1U) (B3G) (B2G)
                 (AG) (AU) (B3G) (AG) (B3G) (AG) (B2G) (B1G) (B2U)
                 (B1U) (AU) (B3U) (AG) (B3G) (B3G) (B1U) (B2U)
                 (B3G) (AG) (B2U) (B1U) (AG) (B2G) (B2U) (B1U)
                 (B1U) (AG) (B2U) (B1U) (B1G) (B1U) (B1U) (B2U)
                 (AU) (AG) (B3G) (B1G) (B2G) (AG) (B3G) (B3G) (AG)
                 (B3U) (AU) (B3U) (B1U) (B2U) (AU) (B3U) (B2U)
                 (B3G) (AG) (B1U) (B2U) (B1U) (B3G) (B3G) (AG)
                 (B2U) (B3G) (B2G) (B1G) (AU) (B3U) (B2G) (B1U)
                 (B2G) (B1G) (B2G) (B3U) (B1U) (B2U) (AG) (B3G)
                 (B3G) (AU) (B1U) (B2U) (B3G) (AG) (B2U) (B2G)
                 (B1G) (AG) (AU) (B1G) (AU) (B3U) (AG) (B3G) (AG)
                 (AG) (B3G) (B1U) (B2U) (B2U) (AU) (B3U) (B2U)
                 (B1U) (B2G) (B1G) (B2G) (B3G) (AG) (B1U) (AU)
                 (B2U) (B1U) (B1U) (B2U) (B1U) (B3G) (B3G) (AG)
                 (AG) (B3G) (AG) (AU) (B3U) (B2G) (B1G) (B2G) (B2U)
                 (AU) (B1U) (B2U) (B1U) (B1U) (B2U) (B1U) (AG)
                 (B3G) (AG) (AG) (B3G) (B3G) (AG) (B2U) (B1U) (B1U)
                 (B1U) (B2U) (B3G) (AG) (B3G) (B1U) (B2U) (AG)
                 (B3G) (B2U) (B3G) (B1U) (B3G) (AG) (B1U) (AG)
                 (B2U) (B1U) (B1U) (B2U) (B3G) (AG) (B3G) (B1U)
                 (B2U) (B1U) (B3G) (AG) (B3G) (B1U) (AG) (B2U)
                 (B1U) (B3G) (AG) (B2U) (AG) (B1U) (B2U) (B3G)
                 (AG) (B1U) (B1U) (B2U) (B3G) (AG) (AG) (B1U) (B3G)
                 (B1U) (B2U) (AG) (B3G) (B1U) (AG) (B2U) (B1U)
                 (B2U) (B3G) (AG) (AG) (B1U) (B2U) (B3G) (AG) (B1U)
                 (B1U) (B2U) (AG) (B3G) (AG) (B1U) (B3G) (B1U)
                 (B2U) (AG) (B3G) (B1U)
 The electronic state is 1-AG.
 Alpha  occ. eigenvalues --  -10.63973 -10.63972 -10.63972 -10.63972 -10.63971
 Alpha  occ. eigenvalues --  -10.63971 -10.61995 -10.61967 -10.61965 -10.61904
 Alpha  occ. eigenvalues --  -10.61903 -10.61872 -10.58805 -10.58805 -10.58804
 Alpha  occ. eigenvalues --  -10.58804 -10.58803 -10.58803 -10.58565 -10.58565
 Alpha  occ. eigenvalues --  -10.58565 -10.58564 -10.58564 -10.58563  -1.06042
 Alpha  occ. eigenvalues --   -1.02651  -1.02650  -0.97765  -0.97764  -0.94449
 Alpha  occ. eigenvalues --   -0.93067  -0.90086  -0.86514  -0.86512  -0.84988
 Alpha  occ. eigenvalues --   -0.84987  -0.76062  -0.76062  -0.73667  -0.72595
 Alpha  occ. eigenvalues --   -0.72594  -0.65608  -0.62702  -0.62658  -0.62083
 Alpha  occ. eigenvalues --   -0.62082  -0.60493  -0.57582  -0.57581  -0.55605
 Alpha  occ. eigenvalues --   -0.55602  -0.55127  -0.51225  -0.51224  -0.50658
 Alpha  occ. eigenvalues --   -0.48349  -0.48347  -0.45444  -0.45443  -0.42970
 Alpha  occ. eigenvalues --   -0.38936  -0.37004  -0.36873  -0.36872  -0.36809
 Alpha  occ. eigenvalues --   -0.36048  -0.35861  -0.35859  -0.34737  -0.34735
 Alpha  occ. eigenvalues --   -0.29373  -0.29372
 Alpha virt. eigenvalues --   -0.08150  -0.08079  -0.08078  -0.07306  -0.07306
 Alpha virt. eigenvalues --   -0.06137  -0.05554  -0.05553  -0.01667  -0.01665
 Alpha virt. eigenvalues --   -0.01330  -0.00143   0.01848   0.01848   0.02882
 Alpha virt. eigenvalues --    0.03788   0.03788   0.05314   0.05418   0.05418
 Alpha virt. eigenvalues --    0.06133   0.06409   0.08069   0.08069   0.08945
 Alpha virt. eigenvalues --    0.09243   0.09244   0.09945   0.09946   0.10400
 Alpha virt. eigenvalues --    0.10427   0.10823   0.10823   0.12428   0.12428
 Alpha virt. eigenvalues --    0.13443   0.13685   0.13686   0.13919   0.14167
 Alpha virt. eigenvalues --    0.14461   0.15234   0.15234   0.16555   0.17121
 Alpha virt. eigenvalues --    0.17266   0.17267   0.17464   0.17464   0.17580
 Alpha virt. eigenvalues --    0.18174   0.19289   0.19379   0.19379   0.20138
 Alpha virt. eigenvalues --    0.20138   0.20273   0.20274   0.20924   0.20925
 Alpha virt. eigenvalues --    0.21051   0.21673   0.22025   0.22027   0.22367
 Alpha virt. eigenvalues --    0.22368   0.22541   0.22655   0.22656   0.23562
 Alpha virt. eigenvalues --    0.23563   0.25018   0.25433   0.25489   0.25489
 Alpha virt. eigenvalues --    0.25566   0.25566   0.25970   0.25972   0.26102
 Alpha virt. eigenvalues --    0.26232   0.26232   0.27177   0.28493   0.28494
 Alpha virt. eigenvalues --    0.28754   0.28756   0.28962   0.29093   0.29275
 Alpha virt. eigenvalues --    0.29350   0.29377   0.29378   0.29489   0.29489
 Alpha virt. eigenvalues --    0.30017   0.30845   0.30846   0.31820   0.32009
 Alpha virt. eigenvalues --    0.32027   0.32045   0.32046   0.32604   0.32607
 Alpha virt. eigenvalues --    0.32728   0.33664   0.33664   0.34095   0.34190
 Alpha virt. eigenvalues --    0.34459   0.34459   0.34505   0.34505   0.35040
 Alpha virt. eigenvalues --    0.35059   0.35764   0.35764   0.36039   0.36040
 Alpha virt. eigenvalues --    0.36466   0.36527   0.38106   0.38107   0.38120
 Alpha virt. eigenvalues --    0.38950   0.38950   0.39244   0.39245   0.39432
 Alpha virt. eigenvalues --    0.39434   0.40643   0.40643   0.41955   0.41955
 Alpha virt. eigenvalues --    0.42688   0.42928   0.42929   0.43745   0.43746
 Alpha virt. eigenvalues --    0.43887   0.44029   0.44362   0.44363   0.45061
 Alpha virt. eigenvalues --    0.45061   0.46103   0.46103   0.46248   0.46249
 Alpha virt. eigenvalues --    0.46379   0.46651   0.47444   0.48433   0.48464
 Alpha virt. eigenvalues --    0.48467   0.49287   0.49288   0.49412   0.49413
 Alpha virt. eigenvalues --    0.50014   0.50469   0.50514   0.50516   0.50699
 Alpha virt. eigenvalues --    0.50751   0.51224   0.51224   0.51765   0.51765
 Alpha virt. eigenvalues --    0.52139   0.53830   0.53831   0.53897   0.54414
 Alpha virt. eigenvalues --    0.55134   0.55194   0.55517   0.55517   0.55547
 Alpha virt. eigenvalues --    0.55548   0.56235   0.56423   0.56424   0.57519
 Alpha virt. eigenvalues --    0.57519   0.57942   0.57944   0.58497   0.58497
 Alpha virt. eigenvalues --    0.58697   0.59582   0.59584   0.60277   0.60279
 Alpha virt. eigenvalues --    0.60951   0.61386   0.61622   0.61622   0.62108
 Alpha virt. eigenvalues --    0.62108   0.63231   0.63233   0.63408   0.63853
 Alpha virt. eigenvalues --    0.63853   0.64012   0.64013   0.65115   0.65447
 Alpha virt. eigenvalues --    0.65877   0.65878   0.65997   0.65999   0.66683
 Alpha virt. eigenvalues --    0.66865   0.67679   0.67680   0.67869   0.69031
 Alpha virt. eigenvalues --    0.69034   0.69067   0.69186   0.69291   0.69291
 Alpha virt. eigenvalues --    0.70170   0.70666   0.71128   0.71129   0.71250
 Alpha virt. eigenvalues --    0.71568   0.72023   0.72238   0.72238   0.73073
 Alpha virt. eigenvalues --    0.73076   0.74492   0.75407   0.75495   0.75537
 Alpha virt. eigenvalues --    0.75641   0.75773   0.75775   0.76876   0.76876
 Alpha virt. eigenvalues --    0.77140   0.77731   0.77732   0.79229   0.79230
 Alpha virt. eigenvalues --    0.79346   0.79348   0.79478   0.79755   0.79785
 Alpha virt. eigenvalues --    0.79786   0.80303   0.80304   0.80810   0.80939
 Alpha virt. eigenvalues --    0.80941   0.81337   0.81338   0.81372   0.81751
 Alpha virt. eigenvalues --    0.81753   0.82843   0.86513   0.86520   0.86687
 Alpha virt. eigenvalues --    0.86689   0.86900   0.87249   0.87281   0.87845
 Alpha virt. eigenvalues --    0.87878   0.89251   0.89252   0.89618   0.89728
 Alpha virt. eigenvalues --    0.89729   0.90097   0.90397   0.90398   0.90479
 Alpha virt. eigenvalues --    0.90575   0.90578   0.91360   0.91361   0.92355
 Alpha virt. eigenvalues --    0.92360   0.92951   0.94334   0.94336   0.96146
 Alpha virt. eigenvalues --    0.96146   0.96448   0.98494   0.98553   0.98555
 Alpha virt. eigenvalues --    0.98590   0.98591   0.98652   0.98652   0.99858
 Alpha virt. eigenvalues --    0.99859   1.01412   1.01415   1.01462   1.01591
 Alpha virt. eigenvalues --    1.02381   1.03649   1.03649   1.05188   1.05863
 Alpha virt. eigenvalues --    1.05863   1.07528   1.08360   1.08360   1.09600
 Alpha virt. eigenvalues --    1.09681   1.09681   1.10072   1.10074   1.10249
 Alpha virt. eigenvalues --    1.10249   1.10327   1.10378   1.10380   1.10627
 Alpha virt. eigenvalues --    1.11341   1.12280   1.13625   1.13626   1.14867
 Alpha virt. eigenvalues --    1.15251   1.15254   1.15620   1.15622   1.16304
 Alpha virt. eigenvalues --    1.17367   1.17496   1.17498   1.17661   1.17663
 Alpha virt. eigenvalues --    1.18982   1.18985   1.19645   1.19645   1.19674
 Alpha virt. eigenvalues --    1.21159   1.22392   1.22393   1.22604   1.23462
 Alpha virt. eigenvalues --    1.24048   1.24082   1.25367   1.25368   1.25704
 Alpha virt. eigenvalues --    1.25706   1.26093   1.26095   1.26280   1.26280
 Alpha virt. eigenvalues --    1.27493   1.27649   1.27650   1.27851   1.29817
 Alpha virt. eigenvalues --    1.29821   1.29824   1.29826   1.32502   1.33398
 Alpha virt. eigenvalues --    1.33398   1.34838   1.35873   1.36609   1.36609
 Alpha virt. eigenvalues --    1.36889   1.36892   1.38017   1.38186   1.38306
 Alpha virt. eigenvalues --    1.38519   1.38521   1.40052   1.40362   1.40363
 Alpha virt. eigenvalues --    1.40819   1.41178   1.41183   1.41185   1.42047
 Alpha virt. eigenvalues --    1.42047   1.43683   1.43685   1.46051   1.46053
 Alpha virt. eigenvalues --    1.46214   1.49170   1.49227   1.49230   1.50195
 Alpha virt. eigenvalues --    1.50195   1.51295   1.52114   1.53082   1.53775
 Alpha virt. eigenvalues --    1.53777   1.54132   1.54135   1.56079   1.56080
 Alpha virt. eigenvalues --    1.59548   1.60205   1.60205   1.61758   1.63249
 Alpha virt. eigenvalues --    1.63254   1.65915   1.65919   1.66213   1.66577
 Alpha virt. eigenvalues --    1.69308   1.69309   1.70148   1.70538   1.70933
 Alpha virt. eigenvalues --    1.70934   1.71357   1.73450   1.73606   1.75399
 Alpha virt. eigenvalues --    1.75576   1.75576   1.75843   1.76132   1.76139
 Alpha virt. eigenvalues --    1.76570   1.76573   1.76842   1.76979   1.76980
 Alpha virt. eigenvalues --    1.80000   1.80030   1.80774   1.80774   1.81372
 Alpha virt. eigenvalues --    1.82776   1.82781   1.82880   1.83175   1.83177
 Alpha virt. eigenvalues --    1.87190   1.87907   1.89963   1.89963   1.91108
 Alpha virt. eigenvalues --    1.91109   1.92551   1.92552   1.94279   1.94279
 Alpha virt. eigenvalues --    1.94521   1.94523   1.96564   1.96565   1.97419
 Alpha virt. eigenvalues --    1.97577   1.99198   1.99435   1.99435   1.99975
 Alpha virt. eigenvalues --    2.00446   2.00447   2.01630   2.01630   2.01669
 Alpha virt. eigenvalues --    2.01671   2.02117   2.02118   2.03120   2.03620
 Alpha virt. eigenvalues --    2.04703   2.04806   2.05191   2.06493   2.06495
 Alpha virt. eigenvalues --    2.06501   2.06686   2.06690   2.08298   2.08299
 Alpha virt. eigenvalues --    2.09543   2.10536   2.10539   2.11182   2.11332
 Alpha virt. eigenvalues --    2.11366   2.11371   2.11696   2.11698   2.13111
 Alpha virt. eigenvalues --    2.13112   2.14045   2.14046   2.14422   2.14424
 Alpha virt. eigenvalues --    2.14814   2.14815   2.15165   2.18208   2.18209
 Alpha virt. eigenvalues --    2.18320   2.19696   2.19698   2.19713   2.19714
 Alpha virt. eigenvalues --    2.19751   2.20306   2.20332   2.20498   2.20499
 Alpha virt. eigenvalues --    2.20696   2.23391   2.23391   2.23601   2.23602
 Alpha virt. eigenvalues --    2.24134   2.24134   2.26358   2.26367   2.27824
 Alpha virt. eigenvalues --    2.27824   2.28377   2.28379   2.28954   2.29432
 Alpha virt. eigenvalues --    2.29434   2.30214   2.32018   2.32021   2.32357
 Alpha virt. eigenvalues --    2.32359   2.32619   2.32621   2.33248   2.34410
 Alpha virt. eigenvalues --    2.35368   2.36345   2.36347   2.36592   2.36749
 Alpha virt. eigenvalues --    2.37218   2.37218   2.37286   2.37766   2.37767
 Alpha virt. eigenvalues --    2.37839   2.39260   2.40034   2.40035   2.40641
 Alpha virt. eigenvalues --    2.40644   2.41550   2.42284   2.42285   2.42861
 Alpha virt. eigenvalues --    2.43813   2.44475   2.45215   2.45216   2.47404
 Alpha virt. eigenvalues --    2.47584   2.47586   2.48005   2.48789   2.48795
 Alpha virt. eigenvalues --    2.48833   2.48835   2.51477   2.51477   2.52253
 Alpha virt. eigenvalues --    2.52974   2.53402   2.53404   2.53641   2.53641
 Alpha virt. eigenvalues --    2.53697   2.54713   2.54717   2.56055   2.56087
 Alpha virt. eigenvalues --    2.56271   2.58641   2.58642   2.59710   2.59711
 Alpha virt. eigenvalues --    2.60930   2.61167   2.61172   2.61184   2.61478
 Alpha virt. eigenvalues --    2.61482   2.62889   2.62892   2.63400   2.63953
 Alpha virt. eigenvalues --    2.63956   2.64712   2.65256   2.65257   2.66753
 Alpha virt. eigenvalues --    2.66757   2.66875   2.66877   2.67345   2.67351
 Alpha virt. eigenvalues --    2.67451   2.67845   2.68963   2.69394   2.69394
 Alpha virt. eigenvalues --    2.69587   2.69588   2.69750   2.71335   2.71339
 Alpha virt. eigenvalues --    2.72302   2.73228   2.73883   2.73887   2.74270
 Alpha virt. eigenvalues --    2.74440   2.74441   2.74560   2.75121   2.75262
 Alpha virt. eigenvalues --    2.75266   2.79163   2.80198   2.80199   2.80558
 Alpha virt. eigenvalues --    2.80560   2.80877   2.81838   2.81839   2.83141
 Alpha virt. eigenvalues --    2.83646   2.84065   2.85699   2.85704   2.86387
 Alpha virt. eigenvalues --    2.86389   2.86969   2.86971   2.88138   2.89083
 Alpha virt. eigenvalues --    2.89084   2.89722   2.91365   2.93534   2.93538
 Alpha virt. eigenvalues --    2.93709   2.93712   2.96383   2.97955   2.97960
 Alpha virt. eigenvalues --    2.98356   3.00309   3.01000   3.01797   3.01802
 Alpha virt. eigenvalues --    3.02147   3.03466   3.04265   3.04265   3.04381
 Alpha virt. eigenvalues --    3.04385   3.04389   3.05349   3.05351   3.08695
 Alpha virt. eigenvalues --    3.09447   3.09449   3.09484   3.09489   3.09747
 Alpha virt. eigenvalues --    3.09848   3.10795   3.10799   3.13185   3.13479
 Alpha virt. eigenvalues --    3.13480   3.15173   3.15174   3.17326   3.17327
 Alpha virt. eigenvalues --    3.19001   3.21289   3.21294   3.24687   3.25033
 Alpha virt. eigenvalues --    3.25042   3.27099   3.30128   3.30130   3.30198
 Alpha virt. eigenvalues --    3.30204   3.31918   3.32310   3.32891   3.36627
 Alpha virt. eigenvalues --    3.36628   3.36872   3.39296   3.39781   3.39784
 Alpha virt. eigenvalues --    3.40629   3.40638   3.41328   3.41340   3.46139
 Alpha virt. eigenvalues --    3.46142   3.47565   3.47652   3.47653   3.48220
 Alpha virt. eigenvalues --    3.48758   3.49225   3.49230   3.51899   3.51912
 Alpha virt. eigenvalues --    3.53545   3.53548   3.55568   3.59404   3.59407
 Alpha virt. eigenvalues --    3.61137   3.61652   3.61656   3.62536   3.62537
 Alpha virt. eigenvalues --    3.63699   3.65951   3.68162   3.68163   3.68467
 Alpha virt. eigenvalues --    3.68474   3.68705   3.70601   3.73711   3.73717
 Alpha virt. eigenvalues --    3.74147   3.80084   3.81714   3.81719   3.83270
 Alpha virt. eigenvalues --    3.83277   3.83665   3.87868   3.89426   3.89804
 Alpha virt. eigenvalues --    3.92487   3.92494   3.93219   3.93221   3.94751
 Alpha virt. eigenvalues --    4.02336   4.09127   4.09130   4.13234   4.13240
 Alpha virt. eigenvalues --    4.13639   4.13643   4.21202   4.21206   4.22792
 Alpha virt. eigenvalues --    4.24381   4.24994   4.24997   4.25109   4.25761
 Alpha virt. eigenvalues --    4.25764   4.26236   4.27706   4.30132   4.30136
 Alpha virt. eigenvalues --    4.34470   4.34472   4.40403   4.40403   4.41387
 Alpha virt. eigenvalues --    4.42530   4.44646   4.45651   4.45655   4.46020
 Alpha virt. eigenvalues --    4.46113   4.48588   4.50201   4.51508   4.55539
 Alpha virt. eigenvalues --    4.56359   4.56739   4.56740   4.57701   4.57703
 Alpha virt. eigenvalues --    4.57743   4.57744   4.59241   4.59244   4.60790
 Alpha virt. eigenvalues --    4.60798   4.61766   4.62567   4.62568   4.63209
 Alpha virt. eigenvalues --    4.68381   4.68529   4.68533   4.74053   4.74061
 Alpha virt. eigenvalues --    4.75066   4.76951   4.78138   4.78139   4.78605
 Alpha virt. eigenvalues --    4.78609   4.78815   4.82878   4.82885   4.83189
 Alpha virt. eigenvalues --    4.84565   4.84742   4.84743   4.86269   4.86271
 Alpha virt. eigenvalues --    4.90208   4.90214   4.90654   4.93046   4.93050
 Alpha virt. eigenvalues --    4.95289   4.95291   4.95907   4.95908   4.96041
 Alpha virt. eigenvalues --    4.96470   4.96725   4.98806   4.98807   5.00178
 Alpha virt. eigenvalues --    5.00180   5.00556   5.00780   5.01141   5.04551
 Alpha virt. eigenvalues --    5.05494   5.05513   5.07092   5.07286   5.07998
 Alpha virt. eigenvalues --    5.08095   5.08100   5.08284   5.08772   5.08775
 Alpha virt. eigenvalues --    5.09565   5.09566   5.09750   5.09758   5.10408
 Alpha virt. eigenvalues --    5.10408   5.11341   5.11344   5.11809   5.11814
 Alpha virt. eigenvalues --    5.13280   5.13981   5.13991   5.19152   5.19841
 Alpha virt. eigenvalues --    5.19844   5.20968   5.21045   5.21916   5.26299
 Alpha virt. eigenvalues --    5.26303   5.26546   5.27475   5.27520   5.27767
 Alpha virt. eigenvalues --    5.27770   5.28516   5.28517   5.28730   5.28730
 Alpha virt. eigenvalues --    5.28838   5.28838   5.30396   5.31137   5.32950
 Alpha virt. eigenvalues --    5.32952   5.33489   5.33493   5.34490   5.36945
 Alpha virt. eigenvalues --    5.38799   5.40326   5.40332   5.42598   5.42600
 Alpha virt. eigenvalues --    5.45404   5.45406   5.46058   5.46058   5.46511
 Alpha virt. eigenvalues --    5.46518   5.50047   5.50510   5.50869   5.50870
 Alpha virt. eigenvalues --    5.51548   5.51667   5.51668   5.51747   5.52751
 Alpha virt. eigenvalues --    5.52751   5.53063   5.54068   5.54068   5.57183
 Alpha virt. eigenvalues --    5.57568   5.58784   5.58789   5.59249   5.60157
 Alpha virt. eigenvalues --    5.62824   5.63798   5.63936   5.63939   5.64327
 Alpha virt. eigenvalues --    5.64333   5.66299   5.66302   5.67045   5.67050
 Alpha virt. eigenvalues --    5.68902   5.68958   5.68961   5.69900   5.69903
 Alpha virt. eigenvalues --    5.70705   5.70707   5.70865   5.72063   5.73387
 Alpha virt. eigenvalues --    5.73831   5.74940   5.74943   5.78896   5.78897
 Alpha virt. eigenvalues --    5.80759   5.80761   5.80837   5.80837   5.84948
 Alpha virt. eigenvalues --    5.85359   5.85486   5.86699   5.86700   5.86946
 Alpha virt. eigenvalues --    5.86951   5.88679   5.88852   5.89055   5.89060
 Alpha virt. eigenvalues --    5.91110   5.91110   5.92889   5.95088   5.95089
 Alpha virt. eigenvalues --    5.95634   5.95643   5.95805   5.95815   5.95925
 Alpha virt. eigenvalues --    5.96859   5.96860   5.97181   5.97644   5.98377
 Alpha virt. eigenvalues --    5.98378   5.99327   5.99328   5.99914   5.99915
 Alpha virt. eigenvalues --    6.00452   6.00454   6.01598   6.04961   6.05536
 Alpha virt. eigenvalues --    6.05536   6.05752   6.05821   6.06065   6.06267
 Alpha virt. eigenvalues --    6.06268   6.07300   6.09184   6.09189   6.10385
 Alpha virt. eigenvalues --    6.10391   6.11152   6.11156   6.11380   6.11694
 Alpha virt. eigenvalues --    6.13262   6.13269   6.15756   6.15758   6.16573
 Alpha virt. eigenvalues --    6.16574   6.16590   6.16711   6.17033   6.17034
 Alpha virt. eigenvalues --    6.17571   6.18445   6.18448   6.19958   6.19960
 Alpha virt. eigenvalues --    6.20940   6.21198   6.21487   6.21492   6.22557
 Alpha virt. eigenvalues --    6.22750   6.22751   6.24563   6.24564   6.25447
 Alpha virt. eigenvalues --    6.27357   6.28812   6.29609   6.29674   6.30924
 Alpha virt. eigenvalues --    6.32734   6.32737   6.33028   6.33028   6.33206
 Alpha virt. eigenvalues --    6.35033   6.35036   6.35624   6.35632   6.38718
 Alpha virt. eigenvalues --    6.38720   6.39078   6.39081   6.39314   6.39578
 Alpha virt. eigenvalues --    6.39582   6.40155   6.40412   6.41178   6.41580
 Alpha virt. eigenvalues --    6.41580   6.41889   6.41890   6.42172   6.42175
 Alpha virt. eigenvalues --    6.43609   6.45325   6.45326   6.45464   6.45466
 Alpha virt. eigenvalues --    6.46809   6.47351   6.49024   6.49026   6.49029
[...]
 Alpha virt. eigenvalues --    5.38799   5.40326   5.40332   5.42598   5.42600
 Alpha virt. eigenvalues --    5.45404   5.45406   5.46058   5.46058   5.46511
 Alpha virt. eigenvalues --    5.46518   5.50047   5.50510   5.50869   5.50870
 Alpha virt. eigenvalues --    5.51548   5.51667   5.51668   5.51747   5.52751
 Alpha virt. eigenvalues --    5.52751   5.53063   5.54068   5.54068   5.57183
 Alpha virt. eigenvalues --    5.57568   5.58784   5.58789   5.59249   5.60157
 Alpha virt. eigenvalues --    5.62824   5.63798   5.63936   5.63939   5.64327
 Alpha virt. eigenvalues --    5.64333   5.66299   5.66302   5.67045   5.67050
 Alpha virt. eigenvalues --    5.68902   5.68958   5.68961   5.69900   5.69903
 Alpha virt. eigenvalues --    5.70705   5.70707   5.70865   5.72063   5.73387
 Alpha virt. eigenvalues --    5.73831   5.74940   5.74943   5.78896   5.78897
 Alpha virt. eigenvalues --    5.80759   5.80761   5.80837   5.80837   5.84948
 Alpha virt. eigenvalues --    5.85359   5.85486   5.86699   5.86700   5.86946
 Alpha virt. eigenvalues --    5.86951   5.88679   5.88852   5.89055   5.89060
 Alpha virt. eigenvalues --    5.91110   5.91110   5.92889   5.95088   5.95089
 Alpha virt. eigenvalues --    5.95634   5.95643   5.95805   5.95815   5.95925
 Alpha virt. eigenvalues --    5.96859   5.96860   5.97181   5.97644   5.98377
 Alpha virt. eigenvalues --    5.98378   5.99327   5.99328   5.99914   5.99915
 Alpha virt. eigenvalues --    6.00452   6.00454   6.01598   6.04961   6.05536
 Alpha virt. eigenvalues --    6.05536   6.05752   6.05821   6.06065   6.06267
 Alpha virt. eigenvalues --    6.06268   6.07300   6.09184   6.09189   6.10385
 Alpha virt. eigenvalues --    6.10391   6.11152   6.11156   6.11380   6.11694
 Alpha virt. eigenvalues --    6.13262   6.13269   6.15756   6.15758   6.16573
 Alpha virt. eigenvalues --    6.16574   6.16590   6.16711   6.17033   6.17034
 Alpha virt. eigenvalues --    6.17571   6.18445   6.18448   6.19958   6.19960
 Alpha virt. eigenvalues --    6.20940   6.21198   6.21487   6.21492   6.22557
 Alpha virt. eigenvalues --    6.22750   6.22751   6.24563   6.24564   6.25447
 Alpha virt. eigenvalues --    6.27357   6.28812   6.29609   6.29674   6.30924
 Alpha virt. eigenvalues --    6.32734   6.32737   6.33028   6.33028   6.33206
 Alpha virt. eigenvalues --    6.35033   6.35036   6.35624   6.35632   6.38718
 Alpha virt. eigenvalues --    6.38720   6.39078   6.39081   6.39314   6.39578
 Alpha virt. eigenvalues --    6.39582   6.40155   6.40412   6.41178   6.41580
 Alpha virt. eigenvalues --    6.41580   6.41889   6.41890   6.42172   6.42175
 Alpha virt. eigenvalues --    6.43609   6.45325   6.45326   6.45464   6.45466
 Alpha virt. eigenvalues --    6.46809   6.47351   6.49024   6.49026   6.49029
 Alpha virt. eigenvalues --    6.50801   6.50803   6.50907   6.51709   6.51711
 Alpha virt. eigenvalues --    6.51776   6.51781   6.53061   6.53065   6.54947
 Alpha virt. eigenvalues --    6.55080   6.55485   6.55723   6.55726   6.56974
 Alpha virt. eigenvalues --    6.56983   6.57004   6.57636   6.57637   6.58372
 Alpha virt. eigenvalues --    6.58459   6.58566   6.61685   6.62338   6.62340
 Alpha virt. eigenvalues --    6.62342   6.62342   6.63255   6.64845   6.64846
 Alpha virt. eigenvalues --    6.66685   6.66685   6.67489   6.68035   6.69335
 Alpha virt. eigenvalues --    6.69684   6.69688   6.71580   6.71580   6.72129
 Alpha virt. eigenvalues --    6.75455   6.75501   6.75501   6.76102   6.76107
 Alpha virt. eigenvalues --    6.76601   6.76603   6.76885   6.77673   6.77676
 Alpha virt. eigenvalues --    6.79405   6.79563   6.79564   6.80094   6.82571
 Alpha virt. eigenvalues --    6.82574   6.82726   6.83359   6.83359   6.84995
 Alpha virt. eigenvalues --    6.85595   6.85597   6.86172   6.88033   6.88035
 Alpha virt. eigenvalues --    6.89304   6.89364   6.89368   6.90158   6.90159
 Alpha virt. eigenvalues --    6.92581   6.92737   6.92744   6.92909   6.93277
 Alpha virt. eigenvalues --    6.93284   6.93760   6.97770   6.98175   6.98729
 Alpha virt. eigenvalues --    6.99143   6.99148   6.99523   6.99530   7.03610
 Alpha virt. eigenvalues --    7.03705   7.03705   7.05767   7.05771   7.06709
 Alpha virt. eigenvalues --    7.06713   7.07439   7.09720   7.10284   7.10287
 Alpha virt. eigenvalues --    7.15971   7.16916   7.16917   7.17163   7.17169
 Alpha virt. eigenvalues --    7.19236   7.19306   7.19311   7.20695   7.20756
 Alpha virt. eigenvalues --    7.21356   7.24607   7.28656   7.28659   7.30352
 Alpha virt. eigenvalues --    7.30355   7.32763   7.32768   7.32969   7.32970
 Alpha virt. eigenvalues --    7.33533   7.33539   7.36258   7.36269   7.36360
 Alpha virt. eigenvalues --    7.37282   7.39104   7.39864   7.39865   7.43265
 Alpha virt. eigenvalues --    7.43266   7.44428   7.45032   7.46707   7.46708
 Alpha virt. eigenvalues --    7.46954   7.48788   7.49801   7.49806   7.55168
 Alpha virt. eigenvalues --    7.57674   7.60771   7.60790   7.63693   7.67546
 Alpha virt. eigenvalues --    7.67551   7.69152   7.69168   7.72463   7.72464
 Alpha virt. eigenvalues --    7.72711   7.72980   7.73182   7.74083   7.74101
 Alpha virt. eigenvalues --    7.76340   7.76345   7.77305   7.77334   7.83532
 Alpha virt. eigenvalues --    7.83967   7.83978   7.85950   7.85951   7.89392
 Alpha virt. eigenvalues --    7.91120   7.96724   7.96728   7.96779   7.98601
 Alpha virt. eigenvalues --    7.99045   7.99052   8.01185   8.01209   8.02149
 Alpha virt. eigenvalues --    8.07678   8.07926   8.07944   8.09241   8.10819
 Alpha virt. eigenvalues --    8.12670   8.12682   8.15493   8.15502   8.18949
 Alpha virt. eigenvalues --    8.22695   8.25137   8.25143   8.27715   8.27719
 Alpha virt. eigenvalues --    8.27908   8.31108   8.31116   8.33782   8.35793
 Alpha virt. eigenvalues --    8.38317   8.40538   8.40547   8.41087   8.41091
 Alpha virt. eigenvalues --    8.43293   8.44869   8.44883   8.50452   8.50460
 Alpha virt. eigenvalues --    8.51127   8.57355   8.57359   8.58083   8.58084
 Alpha virt. eigenvalues --    8.62967   8.63087   8.63105   8.63246   8.63252
 Alpha virt. eigenvalues --    8.69907   8.70583   8.73088   8.73091   8.78580
 Alpha virt. eigenvalues --    8.78581   8.80648   8.86128   8.94181   8.94195
 Alpha virt. eigenvalues --    8.98115   8.98500   8.98505   9.07744   9.07747
 Alpha virt. eigenvalues --    9.08065   9.12745   9.12751   9.16018   9.18811
 Alpha virt. eigenvalues --    9.21622   9.21629   9.22661   9.30509   9.39864
 Alpha virt. eigenvalues --    9.39868   9.42032   9.45626   9.45648   9.45721
 Alpha virt. eigenvalues --    9.50740   9.59249   9.59284   9.67059   9.67069
 Alpha virt. eigenvalues --    9.68810   9.87807   9.87829   9.91311   9.91356
 Alpha virt. eigenvalues --    9.93881   9.98788   9.98815  10.02455  10.02459
 Alpha virt. eigenvalues --   10.08248  10.08844  10.10360  10.23359  10.23370
 Alpha virt. eigenvalues --   10.31483  10.34130  10.37330  10.37333  10.49717
 Alpha virt. eigenvalues --   10.49732  10.54784  10.58112  10.58127  10.65927
 Alpha virt. eigenvalues --   11.19497  11.19503  11.21764  11.22409  11.22417
 Alpha virt. eigenvalues --   11.28746  27.61804  27.94788  27.94790  28.07233
 Alpha virt. eigenvalues --   28.07236  28.07791  28.14694  28.42156  28.42163
 Alpha virt. eigenvalues --   28.52603  28.52613  28.64345  28.71424  28.71425
 Alpha virt. eigenvalues --   28.73005  28.73010  28.73444  29.07651  29.24993
 Alpha virt. eigenvalues --   29.26531  29.26534  29.42112  29.42113  29.54329
 Alpha virt. eigenvalues --  145.08091 145.42625 145.42626 145.52837 145.53555
 Alpha virt. eigenvalues --  145.53560 145.68330 145.95412 145.95416 146.00989
 Alpha virt. eigenvalues --  146.01008 146.16906 146.18602 146.18606 146.18859
 Alpha virt. eigenvalues --  146.21969 146.21970 146.54972 146.81845 146.83664
 Alpha virt. eigenvalues --  146.83665 147.00828 147.00832 147.14876
          Condensed to atoms (all electrons):
               1          2          3          4          5          6
     1  C    4.821047   0.466316  -0.089397   0.166278  -0.089397   0.466316
     2  C    0.466316   4.821267   0.465529  -0.089397   0.166323  -0.089982
     3  C   -0.089397   0.465529   4.821267   0.466316  -0.089982   0.166323
     4  C    0.166278  -0.089397   0.466316   4.821047   0.466316  -0.089397
     5  C   -0.089397   0.166323  -0.089982   0.466316   4.821267   0.465529
     6  C    0.466316  -0.089982   0.166323  -0.089397   0.465529   4.821267
     7  C    0.512954  -0.008878  -0.021084  -0.007277  -0.021084  -0.008878
     8  C   -0.008726   0.512661  -0.008591  -0.021134  -0.007271  -0.021027
     9  C   -0.021134  -0.008591   0.512661  -0.008726  -0.021027  -0.007271
    10  C   -0.007277  -0.021084  -0.008878   0.512954  -0.008878  -0.021084
    11  C   -0.021134  -0.007271  -0.021027  -0.008726   0.512661  -0.008591
    12  C   -0.008726  -0.021027  -0.007271  -0.021134  -0.008591   0.512661
    13  C    0.010054  -0.042692  -0.015661   0.006955   0.002452  -0.005344
    14  C   -0.005276   0.009908  -0.042824  -0.015537   0.006938   0.002434
    15  C    0.002429  -0.005413   0.010305  -0.042750  -0.015720   0.006983
    16  C    0.006955   0.002452  -0.005344   0.010054  -0.042692  -0.015661
    17  C   -0.015537   0.006938   0.002434  -0.005276   0.009908  -0.042824
    18  C   -0.042750  -0.015720   0.006983   0.002429  -0.005413   0.010305
    19  C    0.010054  -0.005344   0.002452   0.006955  -0.015661  -0.042692
    20  C   -0.042750   0.010305  -0.005413   0.002429   0.006983  -0.015720
    21  C   -0.015537  -0.042824   0.009908  -0.005276   0.002434   0.006938
    22  C    0.006955  -0.015661  -0.042692   0.010054  -0.005344   0.002452
    23  C    0.002429   0.006983  -0.015720  -0.042750   0.010305  -0.005413
    24  C   -0.005276   0.002434   0.006938  -0.015537  -0.042824   0.009908
               7          8          9         10         11         12
     1  C    0.512954  -0.008726  -0.021134  -0.007277  -0.021134  -0.008726
     2  C   -0.008878   0.512661  -0.008591  -0.021084  -0.007271  -0.021027
     3  C   -0.021084  -0.008591   0.512661  -0.008878  -0.021027  -0.007271
     4  C   -0.007277  -0.021134  -0.008726   0.512954  -0.008726  -0.021134
     5  C   -0.021084  -0.007271  -0.021027  -0.008878   0.512661  -0.008591
     6  C   -0.008878  -0.021027  -0.007271  -0.021084  -0.008591   0.512661
     7  C    4.920413   0.027196   0.010672   0.004116   0.010672   0.027196
     8  C    0.027196   4.921789   0.027204   0.010672   0.004106   0.010681
     9  C    0.010672   0.027204   4.921789   0.027196   0.010681   0.004106
    10  C    0.004116   0.010672   0.027196   4.920413   0.027196   0.010672
    11  C    0.010672   0.004106   0.010681   0.027196   4.921789   0.027204
    12  C    0.027196   0.010681   0.004106   0.010672   0.027204   4.921789
    13  C    0.168466  -0.091917  -0.006067  -0.000440   0.000008   0.011739
    14  C    0.011777   0.168303  -0.092184  -0.006047  -0.000441   0.000004
    15  C    0.000004   0.011735   0.168145  -0.091941  -0.006070  -0.000442
    16  C   -0.000440   0.000008   0.011739   0.168466  -0.091917  -0.006067
    17  C   -0.006047  -0.000441   0.000004   0.011777   0.168303  -0.092184
    18  C   -0.091941  -0.006070  -0.000442   0.000004   0.011735   0.168145
    19  C    0.168466   0.011739   0.000008  -0.000440  -0.006067  -0.091917
    20  C   -0.091941   0.168145   0.011735   0.000004  -0.000442  -0.006070
    21  C   -0.006047  -0.092184   0.168303   0.011777   0.000004  -0.000441
    22  C   -0.000440  -0.006067  -0.091917   0.168466   0.011739   0.000008
    23  C    0.000004  -0.000442  -0.006070  -0.091941   0.168145   0.011735
    24  C    0.011777   0.000004  -0.000441  -0.006047  -0.092184   0.168303
              13         14         15         16         17         18
     1  C    0.010054  -0.005276   0.002429   0.006955  -0.015537  -0.042750
     2  C   -0.042692   0.009908  -0.005413   0.002452   0.006938  -0.015720
     3  C   -0.015661  -0.042824   0.010305  -0.005344   0.002434   0.006983
     4  C    0.006955  -0.015537  -0.042750   0.010054  -0.005276   0.002429
     5  C    0.002452   0.006938  -0.015720  -0.042692   0.009908  -0.005413
     6  C   -0.005344   0.002434   0.006983  -0.015661  -0.042824   0.010305
     7  C    0.168466   0.011777   0.000004  -0.000440  -0.006047  -0.091941
     8  C   -0.091917   0.168303   0.011735   0.000008  -0.000441  -0.006070
     9  C   -0.006067  -0.092184   0.168145   0.011739   0.000004  -0.000442
    10  C   -0.000440  -0.006047  -0.091941   0.168466   0.011777   0.000004
    11  C    0.000008  -0.000441  -0.006070  -0.091917   0.168303   0.011735
    12  C    0.011739   0.000004  -0.000442  -0.006067  -0.092184   0.168145
    13  C    5.987228  -0.012915  -0.000455  -0.000083  -0.000453  -0.012863
    14  C   -0.012915   5.987126  -0.012858  -0.000453  -0.000083  -0.000456
    15  C   -0.000455  -0.012858   5.987241  -0.012863  -0.000456  -0.000084
    16  C   -0.000083  -0.000453  -0.012863   5.987228  -0.012915  -0.000455
    17  C   -0.000453  -0.000083  -0.000456  -0.012915   5.987126  -0.012858
    18  C   -0.012863  -0.000456  -0.000084  -0.000455  -0.012858   5.987241
    19  C   -0.161816  -0.001924  -0.000453   0.000563   0.003685   0.308090
    20  C    0.308090  -0.161719  -0.001925  -0.000453   0.000562   0.003674
    21  C    0.003685   0.308387  -0.161719  -0.001924  -0.000453   0.000562
    22  C    0.000563   0.003685   0.308090  -0.161816  -0.001924  -0.000453
    23  C   -0.000453   0.000562   0.003674   0.308090  -0.161719  -0.001925
    24  C   -0.001924  -0.000453   0.000562   0.003685   0.308387  -0.161719
              19         20         21         22         23         24
     1  C    0.010054  -0.042750  -0.015537   0.006955   0.002429  -0.005276
     2  C   -0.005344   0.010305  -0.042824  -0.015661   0.006983   0.002434
     3  C    0.002452  -0.005413   0.009908  -0.042692  -0.015720   0.006938
     4  C    0.006955   0.002429  -0.005276   0.010054  -0.042750  -0.015537
     5  C   -0.015661   0.006983   0.002434  -0.005344   0.010305  -0.042824
     6  C   -0.042692  -0.015720   0.006938   0.002452  -0.005413   0.009908
     7  C    0.168466  -0.091941  -0.006047  -0.000440   0.000004   0.011777
     8  C    0.011739   0.168145  -0.092184  -0.006067  -0.000442   0.000004
     9  C    0.000008   0.011735   0.168303  -0.091917  -0.006070  -0.000441
    10  C   -0.000440   0.000004   0.011777   0.168466  -0.091941  -0.006047
    11  C   -0.006067  -0.000442   0.000004   0.011739   0.168145  -0.092184
    12  C   -0.091917  -0.006070  -0.000441   0.000008   0.011735   0.168303
    13  C   -0.161816   0.308090   0.003685   0.000563  -0.000453  -0.001924
    14  C   -0.001924  -0.161719   0.308387   0.003685   0.000562  -0.000453
    15  C   -0.000453  -0.001925  -0.161719   0.308090   0.003674   0.000562
    16  C    0.000563  -0.000453  -0.001924  -0.161816   0.308090   0.003685
    17  C    0.003685   0.000562  -0.000453  -0.001924  -0.161719   0.308387
    18  C    0.308090   0.003674   0.000562  -0.000453  -0.001925  -0.161719
    19  C    5.987228  -0.012863  -0.000453  -0.000083  -0.000455  -0.012915
    20  C   -0.012863   5.987241  -0.012858  -0.000455  -0.000084  -0.000456
    21  C   -0.000453  -0.012858   5.987126  -0.012915  -0.000456  -0.000083
    22  C   -0.000083  -0.000455  -0.012915   5.987228  -0.012863  -0.000453
    23  C   -0.000455  -0.000084  -0.000456  -0.012863   5.987241  -0.012858
    24  C   -0.012915  -0.000456  -0.000083  -0.000453  -0.012858   5.987126
 Mulliken charges:
               1
     1  C   -0.098872
     2  C   -0.097231
     3  C   -0.097231
     4  C   -0.098872
     5  C   -0.097231
     6  C   -0.097231
     7  C    0.390346
     8  C    0.389625
     9  C    0.389625
    10  C    0.390346
    11  C    0.389625
    12  C    0.389625
    13  C   -0.146158
    14  C   -0.145954
    15  C   -0.146019
    16  C   -0.146158
    17  C   -0.145954
    18  C   -0.146019
    19  C   -0.146158
    20  C   -0.146019
    21  C   -0.145954
    22  C   -0.146158
    23  C   -0.146019
    24  C   -0.145954
 Sum of Mulliken charges =  -0.00000
 Mulliken charges with hydrogens summed into heavy atoms:
               1
     1  C   -0.098872
     2  C   -0.097231
     3  C   -0.097231
     4  C   -0.098872
     5  C   -0.097231
     6  C   -0.097231
     7  C    0.390346
     8  C    0.389625
     9  C    0.389625
    10  C    0.390346
    11  C    0.389625
    12  C    0.389625
    13  C   -0.146158
    14  C   -0.145954
    15  C   -0.146019
    16  C   -0.146158
    17  C   -0.145954
    18  C   -0.146019
    19  C   -0.146158
    20  C   -0.146019
    21  C   -0.145954
    22  C   -0.146158
    23  C   -0.146019
    24  C   -0.145954
 Electronic spatial extent (au):  <R**2>=           5126.4355
 Charge=             -0.0000 electrons
 Dipole moment (field-independent basis, Debye):
    X=              0.0000    Y=             -0.0000    Z=             -0.0000  Tot=              0.0000
 Quadrupole moment (field-independent basis, Debye-Ang):
   XX=           -133.3784   YY=           -136.2371   ZZ=           -136.2354
   XY=              0.0000   XZ=             -0.0000   YZ=              0.0000
 Traceless Quadrupole moment (field-independent basis, Debye-Ang):
   XX=              1.9053   YY=             -0.9535   ZZ=             -0.9518
   XY=              0.0000   XZ=             -0.0000   YZ=              0.0000
 Octapole moment (field-independent basis, Debye-Ang**2):
  XXX=              0.0000  YYY=             -0.0000  ZZZ=             -0.0000  XYY=              0.0000
  XXY=              0.0000  XXZ=              0.0000  XZZ=              0.0000  YZZ=              0.0000
  YYZ=             -0.0000  XYZ=              0.0000
 Hexadecapole moment (field-independent basis, Debye-Ang**3):
 XXXX=           -151.5613 YYYY=          -3996.5996 ZZZZ=          -3996.5746 XXXY=             -0.0000
 XXXZ=              0.0000 YYYX=             -0.0000 YYYZ=             -0.0000 ZZZX=              0.0000
 ZZZY=              0.0000 XXYY=           -688.1692 XXZZ=           -688.1681 YYZZ=          -1332.1591
 XXYZ=             -0.0000 YYXZ=              0.0000 ZZXY=             -0.0000
 N-N= 1.621705017096D+03 E-N=-5.361226329588D+03  KE= 9.102136283607D+02
 PrsmSu:  requested number of processors reduced to:  15 ShMem   1 Linda.
 No NMR shielding tensors so no spin-rotation constants.
 Leave Link  601 at Mon Apr 19 16:05:43 2021, MaxMem=   104857600 cpu:            4948.4 elap:             106.3
 (Enter /s/ls4/users/knvvv/bin/g16sse/l9999.exe)

 Test job not archived.
 1\1\GINC-N156\Stability\RM062X\Gen\C24\KNVVV\19-Apr-2021\0\\#P M062X/G
 EN Integral=UltraFineGrid SCF=NoSymm Stable=(RExt, Opt) IOp(1/33=1)\\D
 atabase calculations.\\0,1\C,0,0.,0.,1.440593\C,0,0.,1.247598,0.720333
 \C,0,0.,1.247598,-0.720333\C,0,0.,0.,-1.440593\C,0,0.,-1.247598,-0.720
 333\C,0,0.,-1.247598,0.720333\C,0,0.,0.,2.91724\C,0,0.,2.526509,1.4587
 23\C,0,0.,2.526509,-1.458723\C,0,0.,0.,-2.91724\C,0,0.,-2.526509,-1.45
 8723\C,0,0.,-2.526509,1.458723\C,0,0.,1.277541,3.440833\C,0,0.,3.61862
 3,0.614014\C,0,0.,2.341063,-2.82685\C,0,0.,-1.277541,-3.440833\C,0,0.,
 -3.618623,-0.614014\C,0,0.,-2.341063,2.82685\C,0,0.,-1.277541,3.440833
 \C,0,0.,2.341063,2.82685\C,0,0.,3.618623,-0.614014\C,0,0.,1.277541,-3.
 440833\C,0,0.,-2.341063,-2.82685\C,0,0.,-3.618623,0.614014\\Version=ES
 64L-G16RevA.03\State=1-AG\HF=-913.9303019\RMSD=8.604e-09\Dipole=0.,0.,
 0.\Quadrupole=1.4165115,-0.7089001,-0.7076114,0.,0.,0.\PG=D02H [C2"(C1
 C1.C1C1),SG(C20)]\\@


 MEMORIES ARE LIKE AN ENGLISH GRAMMER LESSON -
 PRESENT TENSE, AND PAST PERFECT.
 Job cpu time:      23 days 23 hours 21 minutes  1.9 seconds.
 Elapsed time:       2 days  2 hours  5 minutes 46.0 seconds.
 File lengths (MBytes):  RWF=   6106 Int=      0 D2E=      0 Chk=    340 Scr=      1
 Normal termination of Gaussian 16 at Mon Apr 19 16:05:44 2021.
