 Entering Gaussian System, Link 0=/s/ls4/users/knvvv/bin/g16sse/g16
 Input=data/database/M062X--def2-QZVPPD--187_hco_W4-11.gjf
 Output=data/database/M062X--def2-QZVPPD--187_hco_W4-11.log
 Initial command:
 /s/ls4/users/knvvv/bin/g16sse/l1.exe "/s/ls4/users/knvvv/bin/scratch/Gau-24812.inp" -scrdir="/s/ls4/users/knvvv/bin/scratch/"
 Entering Link 1 = /s/ls4/users/knvvv/bin/g16sse/l1.exe PID=     24813.
  
 Copyright (c) 1988,1990,1992,1993,1995,1998,2003,2009,2016,
            Gaussian, Inc.  All Rights Reserved.
  
 This is part of the Gaussian(R) 16 program.  It is based on
 the Gaussian(R) 09 system (copyright 2009, Gaussian, Inc.),
 the Gaussian(R) 03 system (copyright 2003, Gaussian, Inc.),
 the Gaussian(R) 98 system (copyright 1998, Gaussian, Inc.),
 the Gaussian(R) 94 system (copyright 1995, Gaussian, Inc.),
 the Gaussian 92(TM) system (copyright 1992, Gaussian, Inc.),
 the Gaussian 90(TM) system (copyright 1990, Gaussian, Inc.),
 the Gaussian 88(TM) system (copyright 1988, Gaussian, Inc.),
 the Gaussian 86(TM) system (copyright 1986, Carnegie Mellon
 University), and the Gaussian 82(TM) system (copyright 1983,
 Carnegie Mellon University). Gaussian is a federally registered
 trademark of Gaussian, Inc.
  
 This software contains proprietary and confidential information,
 including trade secrets, belonging to Gaussian, Inc.
  
 This software is provided under written license and may be
 used, copied, transmitted, or stored only in accord with that
 written license.
  
 The following legend is applicable only to US Government
 contracts under FAR:
  
                    RESTRICTED RIGHTS LEGEND
  
 Use, reproduction and disclosure by the US Government is
 subject to restrictions as set forth in subparagraphs (a)
 and (c) of the Commercial Computer Software - Restricted
 Rights clause in FAR 52.227-19.
  
 Gaussian, Inc.
 340 Quinnipiac St., Bldg. 40, Wallingford CT 06492
  
  
 ---------------------------------------------------------------
 Warning -- This program may not be used in any manner that
 competes with the business of Gaussian, Inc. or will provide
 assistance to any competitor of Gaussian, Inc.  The licensee
 of this program is prohibited from giving any competitor of
 Gaussian, Inc. access to this program.  By using this program,
 the user acknowledges that Gaussian, Inc. is engaged in the
 business of creating and licensing software in the field of
 computational chemistry and represents and warrants to the
 licensee that it is not a competitor of Gaussian, Inc. and that
 it will not use this program in any manner prohibited above.
 ---------------------------------------------------------------
  

 Cite this work as:
 Gaussian 16, Revision A.03,
 M. J. Frisch, G. W. Trucks, H. B. Schlegel, G. E. Scuseria, 
 M. A. Robb, J. R. Cheeseman, G. Scalmani, V. Barone, 
 G. A. Petersson, H. Nakatsuji, X. Li, M. Caricato, A. V. Marenich, 
 J. Bloino, B. G. Janesko, R. Gomperts, B. Mennucci, H. P. Hratchian, 
 J. V. Ortiz, A. F. Izmaylov, J. L. Sonnenberg, D. Williams-Young, 
 F. Ding, F. Lipparini, F. Egidi, J. Goings, B. Peng, A. Petrone, 
 T. Henderson, D. Ranasinghe, V. G. Zakrzewski, J. Gao, N. Rega, 
 G. Zheng, W. Liang, M. Hada, M. Ehara, K. Toyota, R. Fukuda, 
 J. Hasegawa, M. Ishida, T. Nakajima, Y. Honda, O. Kitao, H. Nakai, 
 T. Vreven, K. Throssell, J. A. Montgomery, Jr., J. E. Peralta, 
 F. Ogliaro, M. J. Bearpark, J. J. Heyd, E. N. Brothers, K. N. Kudin, 
 V. N. Staroverov, T. A. Keith, R. Kobayashi, J. Normand, 
 K. Raghavachari, A. P. Rendell, J. C. Burant, S. S. Iyengar, 
 J. Tomasi, M. Cossi, J. M. Millam, M. Klene, C. Adamo, R. Cammi, 
 J. W. Ochterski, R. L. Martin, K. Morokuma, O. Farkas, 
 J. B. Foresman, and D. J. Fox, Gaussian, Inc., Wallingford CT, 2016.
 
 ******************************************
 Gaussian 16:  ES64L-G16RevA.03 25-Dec-2016
                17-Apr-2021 
 ******************************************
 %RWF=temp10_89978,70GB
 %nprocshared=48
 Will use up to   48 processors via shared memory.
 Default route: MaxDisk=80GB
 ----------------------------------------------------------------------
 #P M062X/GEN Integral=UltraFineGrid SCF=NoSymm Stable=(RExt, Opt) IOp(
 1/33=1)
 ----------------------------------------------------------------------
 1/33=1,38=1,172=1/1;
 2/12=2,17=6,18=5,40=1/2;
 3/5=7,11=2,25=1,30=1,74=-55,75=-5/1,2,3;
 4/9=2/1;
 5/5=2,38=5/2;
 6/7=2,8=2,9=2,10=2,28=1/1;
 8/6=1,10=90,11=11/1;
 9/8=-3,42=1,46=1/14;
 5/5=2,8=3,17=40,38=5/8(-2);
 6/7=2,8=2,9=2,10=2,28=1/1;
 99/5=1,9=1/99;
 Leave Link    1 at Sat Apr 17 13:30:41 2021, MaxMem=           0 cpu:              10.8 elap:               0.3
 (Enter /s/ls4/users/knvvv/bin/g16sse/l101.exe)
 ONIOM data not found on unit 2.
 ----------------------
 Database calculations.
 ----------------------
 TstMul:  ICh=     0
 TstMul:  Mul=     2
 TstMul:  ICh=     0
 TstMul:  Mul=     2
 Symbolic Z-matrix:
 Charge =  0 Multiplicity = 2
 O                     0.        0.        0. 
 C                     0.        0.        1.17849 
 H                     0.92328   0.        1.81187 
 
 RdStrC is calling ZToCFu for IStruc=1 NZ=     3.
 PrtBox:  NBox=     1 Levels=  1 BoxLen=    8.00 SMaxX=        3.42
          Shift=            0.000000            0.000000            0.000000
 Box      1 Number                   0 centers from      1 to      3:
 After GenITR:
 ITRead=  0  0  0
 MicOpt= -1 -1 -1
 ITRead=  0  0  0
 MicOpt= -1 -1 -1
 NAtoms=      3 NQM=        3 NQMF=       0 NMMI=      0 NMMIF=      0
                NMic=       0 NMicF=      0.
                    Isotopes and Nuclear Properties:
 (Nuclear quadrupole moments (NQMom) in fm**2, nuclear magnetic moments (NMagM)
  in nuclear magnetons)

  Atom         1           2           3
 IAtWgt=          16          12           1
 AtmWgt=  15.9949146  12.0000000   1.0078250
 NucSpn=           0           0           1
 AtZEff=  -0.0000000  -0.0000000  -0.0000000
 NQMom=    0.0000000   0.0000000   0.0000000
 NMagM=    0.0000000   0.0000000   2.7928460
 AtZNuc=   8.0000000   6.0000000   1.0000000
 No MM parameters found.
 Leave Link  101 at Sat Apr 17 13:30:42 2021, MaxMem=   104857600 cpu:               6.7 elap:               0.2
 (Enter /s/ls4/users/knvvv/bin/g16sse/l202.exe)
                          Input orientation:                          
 ---------------------------------------------------------------------
 Center     Atomic      Atomic             Coordinates (Angstroms)
 Number     Number       Type             X           Y           Z
 ---------------------------------------------------------------------
      1          8           0        0.000000    0.000000    0.000000
      2          6           0        0.000000    0.000000    1.178487
      3          1           0        0.923279    0.000000    1.811871
 ---------------------------------------------------------------------
                    Distance matrix (angstroms):
                    1          2          3
     1  O    0.000000
     2  C    1.178487   0.000000
     3  H    2.033549   1.119652   0.000000
 Stoichiometry    CHO(2)
 Framework group  CS[SG(CHO)]
 Deg. of freedom     3
 Full point group                 CS      NOp   2
 Largest Abelian subgroup         CS      NOp   2
 Largest concise Abelian subgroup C1      NOp   1
                         Standard orientation:                         
 ---------------------------------------------------------------------
 Center     Atomic      Atomic             Coordinates (Angstroms)
 Number     Number       Type             X           Y           Z
 ---------------------------------------------------------------------
      1          8           0        0.061552   -0.592186    0.000000
      2          6           0        0.061552    0.586301    0.000000
      3          1           0       -0.861727    1.219685    0.000000
 ---------------------------------------------------------------------
 Rotational constants (GHZ):         724.1516137          44.6662953          42.0713012
 Leave Link  202 at Sat Apr 17 13:30:42 2021, MaxMem=   104857600 cpu:               8.5 elap:               0.2
 (Enter /s/ls4/users/knvvv/bin/g16sse/l301.exe)
 General basis read from cards:  (5D, 7F)
 Centers:       3
 S 4 1.00
     Exponent=  1.9069169000D+02 Coefficients=  7.0815167000D-04
     Exponent=  2.8605532000D+01 Coefficients=  5.4678827000D-03
     Exponent=  6.5095943000D+00 Coefficients=  2.7966605000D-02
     Exponent=  1.8412455000D+00 Coefficients=  1.0764538000D-01
 S 1 1.00
     Exponent=  5.9853725000D-01 Coefficients=  1.0000000000D+00
 S 1 1.00
     Exponent=  2.1397624000D-01 Coefficients=  1.0000000000D+00
 S 1 1.00
     Exponent=  8.0316286000D-02 Coefficients=  1.0000000000D+00
 P 1 1.00
     Exponent=  2.2920000000D+00 Coefficients=  1.0000000000D+00
 P 1 1.00
     Exponent=  8.3800000000D-01 Coefficients=  1.0000000000D+00
 P 1 1.00
     Exponent=  2.9200000000D-01 Coefficients=  1.0000000000D+00
 P 1 1.00
     Exponent=  8.4063199228D-02 Coefficients=  1.0000000000D+00
 D 1 1.00
     Exponent=  2.0620000000D+00 Coefficients=  1.0000000000D+00
 D 1 1.00
     Exponent=  6.6200000000D-01 Coefficients=  1.0000000000D+00
 F 1 1.00
     Exponent=  1.3970000000D+00 Coefficients=  1.0000000000D+00
 ****
 Centers:       2
 S 8 1.00
     Exponent=  6.7025071029D+04 Coefficients=  3.8736308501D-05
     Exponent=  1.0039986538D+04 Coefficients=  3.0107917575D-04
     Exponent=  2.2849316911D+03 Coefficients=  1.5787918095D-03
     Exponent=  6.4714122130D+02 Coefficients=  6.6087087195D-03
     Exponent=  2.1109472335D+02 Coefficients=  2.3367123250D-02
     Exponent=  7.6177643862D+01 Coefficients=  7.0420716898D-02
     Exponent=  2.9633839163D+01 Coefficients=  1.7360344953D-01
     Exponent=  1.2187785081D+01 Coefficients=  3.2292305648D-01
 S 2 1.00
     Exponent=  5.3026006299D+01 Coefficients=  7.4897404492D-02
     Exponent=  1.5258502776D+01 Coefficients=  7.6136220983D-01
 S 1 1.00
     Exponent=  5.2403957464D+00 Coefficients=  1.0000000000D+00
 S 1 1.00
     Exponent=  2.2905022379D+00 Coefficients=  1.0000000000D+00
 S 1 1.00
     Exponent=  6.9673283006D-01 Coefficients=  1.0000000000D+00
 S 1 1.00
     Exponent=  2.7599337363D-01 Coefficients=  1.0000000000D+00
 S 1 1.00
     Exponent=  1.0739884389D-01 Coefficients=  1.0000000000D+00
 S 1 1.00
     Exponent=  4.4981404899D-02 Coefficients=  1.0000000000D+00
 P 5 1.00
     Exponent=  1.0512555082D+02 Coefficients=  8.4647553844D-04
     Exponent=  2.4884461066D+01 Coefficients=  6.6274038534D-03
     Exponent=  7.8637230826D+00 Coefficients=  3.0120390419D-02
     Exponent=  2.8407001835D+00 Coefficients=  9.9951435476D-02
     Exponent=  1.1227137335D+00 Coefficients=  2.3826299282D-01
 P 1 1.00
     Exponent=  4.6050725555D-01 Coefficients=  1.0000000000D+00
 P 1 1.00
     Exponent=  1.8937530913D-01 Coefficients=  1.0000000000D+00
 P 1 1.00
     Exponent=  7.5983791611D-02 Coefficients=  1.0000000000D+00
 D 1 1.00
     Exponent=  1.8480000000D+00 Coefficients=  1.0000000000D+00
 D 1 1.00
     Exponent=  6.4900000000D-01 Coefficients=  1.0000000000D+00
 D 1 1.00
     Exponent=  2.2800000000D-01 Coefficients=  1.0000000000D+00
 D 1 1.00
     Exponent=  7.6889830417D-02 Coefficients=  1.0000000000D+00
 F 1 1.00
     Exponent=  1.4190000000D+00 Coefficients=  1.0000000000D+00
 F 1 1.00
     Exponent=  4.8500000000D-01 Coefficients=  1.0000000000D+00
 G 1 1.00
     Exponent=  1.0110000000D+00 Coefficients=  1.0000000000D+00
 ****
 Centers:       1
 S 8 1.00
     Exponent=  1.1650646908D+05 Coefficients=  4.0383857939D-05
     Exponent=  1.7504349724D+04 Coefficients=  3.1255139004D-04
     Exponent=  3.9934513230D+03 Coefficients=  1.6341473495D-03
     Exponent=  1.1330063186D+03 Coefficients=  6.8283224757D-03
     Exponent=  3.6999569594D+02 Coefficients=  2.4124410221D-02
     Exponent=  1.3362074349D+02 Coefficients=  7.2730206154D-02
     Exponent=  5.2035643649D+01 Coefficients=  1.7934429892D-01
     Exponent=  2.1461939313D+01 Coefficients=  3.3059588895D-01
 S 2 1.00
     Exponent=  8.9835051252D+01 Coefficients=  9.6468652996D-02
     Exponent=  2.6428010844D+01 Coefficients=  9.4117481120D-01
 S 1 1.00
     Exponent=  9.2822824649D+00 Coefficients=  1.0000000000D+00
 S 1 1.00
     Exponent=  4.0947728533D+00 Coefficients=  1.0000000000D+00
 S 1 1.00
     Exponent=  1.3255349078D+00 Coefficients=  1.0000000000D+00
 S 1 1.00
     Exponent=  5.1877230787D-01 Coefficients=  1.0000000000D+00
 S 1 1.00
     Exponent=  1.9772676454D-01 Coefficients=  1.0000000000D+00
 S 1 1.00
     Exponent=  6.9638535104D-02 Coefficients=  1.0000000000D+00
 P 5 1.00
     Exponent=  1.9115255810D+02 Coefficients=  2.5115697705D-03
     Exponent=  4.5233356739D+01 Coefficients=  2.0039240864D-02
     Exponent=  1.4353465922D+01 Coefficients=  9.3609064762D-02
     Exponent=  5.2422371832D+00 Coefficients=  3.0618127124D-01
     Exponent=  2.0792418599D+00 Coefficients=  6.7810501439D-01
 P 1 1.00
     Exponent=  8.4282371424D-01 Coefficients=  1.0000000000D+00
 P 1 1.00
     Exponent=  3.3617694891D-01 Coefficients=  1.0000000000D+00
 P 1 1.00
     Exponent=  1.2863997974D-01 Coefficients=  1.0000000000D+00
 P 1 1.00
     Exponent=  4.3598162776D-02 Coefficients=  1.0000000000D+00
 D 1 1.00
     Exponent=  3.7750000000D+00 Coefficients=  1.0000000000D+00
 D 1 1.00
     Exponent=  1.3000000000D+00 Coefficients=  1.0000000000D+00
 D 1 1.00
     Exponent=  4.4400000000D-01 Coefficients=  1.0000000000D+00
 D 1 1.00
     Exponent=  1.2546378695D-01 Coefficients=  1.0000000000D+00
 F 1 1.00
     Exponent=  2.6660000000D+00 Coefficients=  1.0000000000D+00
 F 1 1.00
     Exponent=  8.5900000000D-01 Coefficients=  1.0000000000D+00
 G 1 1.00
     Exponent=  1.8460000000D+00 Coefficients=  1.0000000000D+00
 ****
 Ernie: Thresh=  0.10000D-02 Tol=  0.10000D-05 Strict=F.
 There are   134 symmetry adapted cartesian basis functions of A'  symmetry.
 There are    65 symmetry adapted cartesian basis functions of A"  symmetry.
 There are   106 symmetry adapted basis functions of A'  symmetry.
 There are    56 symmetry adapted basis functions of A"  symmetry.
   162 basis functions,   242 primitive gaussians,   199 cartesian basis functions
     8 alpha electrons        7 beta electrons
       nuclear repulsion energy        26.4710390901 Hartrees.
 IExCor= 4336 DFT=T Ex+Corr=M062X ExCW=0 ScaHFX=  0.540000
 ScaDFX=  1.000000  1.000000  1.000000  1.000000 ScalE2=  1.000000  1.000000
 IRadAn=      5 IRanWt=     -1 IRanGd=            0 ICorTp=0 IEmpDi=  4
 NAtoms=    3 NActive=    3 NUniq=    3 SFac= 1.00D+00 NAtFMM=   60 NAOKFM=F Big=F
 Integral buffers will be    131072 words long.
 Raffenetti 2 integral format.
 Two-electron integral symmetry is turned on.
 Leave Link  301 at Sat Apr 17 13:30:42 2021, MaxMem=   104857600 cpu:               8.1 elap:               0.2
 (Enter /s/ls4/users/knvvv/bin/g16sse/l302.exe)
 NPDir=0 NMtPBC=     1 NCelOv=     1 NCel=       1 NClECP=     1 NCelD=      1
         NCelK=      1 NCelE2=     1 NClLst=     1 CellRange=     0.0.
 One-electron integrals computed using PRISM.
 One-electron integral symmetry used in STVInt
 PrsmSu:  requested number of processors reduced to:   4 ShMem   1 Linda.
 PrsmSu:  requested number of processors reduced to:  21 ShMem   1 Linda.
 NBasis=   162 RedAO= T EigKep=  3.17D-05  NBF=   106    56
 NBsUse=   162 1.00D-06 EigRej= -1.00D+00 NBFU=   106    56
 Precomputing XC quadrature grid using
 IXCGrd= 4 IRadAn=           5 IRanWt=          -1 IRanGd=           0 AccXCQ= 0.00D+00.
 Generated NRdTot=       0 NPtTot=           0 NUsed=           0 NTot=          32
 NSgBfM=   199   199   199   199   199 MxSgAt=     3 MxSgA2=     3.
 Leave Link  302 at Sat Apr 17 13:30:45 2021, MaxMem=   104857600 cpu:             154.3 elap:               3.4
 (Enter /s/ls4/users/knvvv/bin/g16sse/l303.exe)
 DipDrv:  MaxL=1.
 Leave Link  303 at Sat Apr 17 13:30:46 2021, MaxMem=   104857600 cpu:              37.3 elap:               0.8
 (Enter /s/ls4/users/knvvv/bin/g16sse/l401.exe)
 SCF N**3 symmetry information disabled.
 ExpMin= 4.36D-02 ExpMax= 1.17D+05 ExpMxC= 1.13D+03 IAcc=3 IRadAn=         5 AccDes= 0.00D+00
 Harris functional with IExCor= 1009 and IRadAn=       5 diagonalized for initial guess.
 HarFok:  IExCor= 1009 AccDes= 0.00D+00 IRadAn=         5 IDoV= 1 UseB2=F ITyADJ=14
 ICtDFT=  3500011 ScaDFX=  1.000000  1.000000  1.000000  1.000000
 FoFCou: FMM=F IPFlag=           0 FMFlag=      100000 FMFlg1=           0
         NFxFlg=           0 DoJE=T BraDBF=F KetDBF=T FulRan=T
         wScrn=  0.000000 ICntrl=       500 IOpCl=  0 I1Cent=   200000004 NGrid=           0
         NMat0=    1 NMatS0=      1 NMatT0=    0 NMatD0=    1 NMtDS0=    0 NMtDT0=    0
 Petite list used in FoFCou.
 CoulSu:  requested number of processors reduced to:  21 ShMem   1 Linda.
 CoulSu:  requested number of processors reduced to:  21 ShMem   1 Linda.
 CoulSu:  requested number of processors reduced to:  21 ShMem   1 Linda.
 CoulSu:  requested number of processors reduced to:  21 ShMem   1 Linda.
 Harris En= -113.775108617743    
 JPrj=0 DoOrth=F DoCkMO=F.
 Initial guess orbital symmetries:
 Alpha Orbitals:
       Occupied  (A') (A') (A') (A') (A') (A") (A') (A')
       Virtual   (A") (A') (A') (A') (A") (A') (A') (A") (A') (A")
                 (A') (A') (A') (A") (A') (A") (A') (A') (A') (A')
                 (A") (A") (A') (A') (A') (A') (A") (A") (A') (A')
                 (A') (A") (A') (A') (A') (A") (A') (A") (A') (A')
                 (A') (A') (A") (A") (A') (A') (A') (A") (A') (A")
                 (A') (A") (A') (A') (A") (A') (A") (A') (A') (A')
                 (A") (A') (A') (A") (A') (A") (A') (A") (A') (A")
                 (A') (A') (A') (A') (A") (A') (A") (A') (A") (A')
                 (A") (A') (A') (A") (A') (A') (A') (A") (A') (A")
                 (A') (A') (A") (A") (A') (A") (A') (A") (A') (A")
                 (A') (A') (A') (A') (A") (A") (A') (A') (A") (A')
                 (A') (A') (A") (A') (A") (A") (A') (A') (A') (A")
                 (A') (A") (A') (A") (A') (A') (A") (A') (A') (A')
                 (A") (A') (A") (A") (A') (A') (A") (A') (A") (A')
                 (A") (A') (A') (A") (A') (A') (A") (A') (A') (A')
                 (A') (A') (A') (A')
 Beta  Orbitals:
       Occupied  (A') (A') (A') (A') (A') (A") (A')
       Virtual   (A') (A") (A') (A') (A') (A") (A') (A') (A") (A')
                 (A") (A') (A') (A') (A") (A') (A") (A') (A') (A')
                 (A') (A") (A") (A') (A') (A') (A') (A") (A") (A')
                 (A') (A') (A") (A') (A') (A') (A") (A') (A") (A')
                 (A') (A') (A') (A") (A") (A') (A') (A') (A") (A')
                 (A") (A') (A") (A') (A') (A") (A') (A") (A') (A')
                 (A') (A") (A') (A') (A") (A') (A") (A') (A") (A')
                 (A") (A') (A') (A') (A') (A") (A') (A") (A') (A")
                 (A') (A") (A') (A') (A") (A') (A') (A') (A") (A')
                 (A") (A') (A') (A") (A") (A') (A") (A') (A") (A')
                 (A") (A') (A') (A') (A') (A") (A") (A') (A') (A")
                 (A') (A') (A') (A") (A') (A") (A") (A') (A') (A')
                 (A") (A') (A") (A') (A") (A') (A') (A") (A') (A')
                 (A') (A") (A') (A") (A") (A') (A') (A") (A') (A")
                 (A') (A") (A') (A') (A") (A') (A') (A") (A') (A')
                 (A') (A') (A') (A') (A')
 The electronic state of the initial guess is 2-A'.
 Initial guess <Sx>= 0.0000 <Sy>= 0.0000 <Sz>= 0.5000 <S**2>= 0.7500 S= 0.5000
 Leave Link  401 at Sat Apr 17 13:30:49 2021, MaxMem=   104857600 cpu:              98.0 elap:               2.3
 (Enter /s/ls4/users/knvvv/bin/g16sse/l502.exe)
 Integral symmetry usage will be decided dynamically.
 UHF open shell SCF:
 Using DIIS extrapolation, IDIIS=  1040.
 NGot=   104857600 LenX=   104766776 LenY=   104726734
 Requested convergence on RMS density matrix=1.00D-08 within 128 cycles.
 Requested convergence on MAX density matrix=1.00D-06.
 Requested convergence on             energy=1.00D-06.
 No special actions if energy rises.
 Fock matrices will be formed incrementally for  20 cycles.

 Cycle   1  Pass 1  IDiag  1:
 FoFJK:  IHMeth= 1 ICntrl=       0 DoSepK=F KAlg= 0 I1Cent=           0 FoldK=F
 IRaf= 990000000 NMat=       1 IRICut=       1 DoRegI=T DoRafI=F ISym2E= 1 IDoP0=0 IntGTp=1.
 FoFCou: FMM=F IPFlag=           0 FMFlag=      100000 FMFlg1=           0
         NFxFlg=           0 DoJE=F BraDBF=F KetDBF=F FulRan=T
         wScrn=  0.000000 ICntrl=         0 IOpCl=  1 I1Cent=           0 NGrid=           0
         NMat0=    1 NMatS0=      1 NMatT0=    0 NMatD0=    1 NMtDS0=    0 NMtDT0=    0
 Petite list used in FoFCou.
 CoulSu:  requested number of processors reduced to:  20 ShMem   1 Linda.
 E= -113.826200729735    
 DIIS: error= 3.73D-02 at cycle   1 NSaved=   1.
 NSaved= 1 IEnMin= 1 EnMin= -113.826200729735     IErMin= 1 ErrMin= 3.73D-02
 ErrMax= 3.73D-02  0.00D+00 EMaxC= 1.00D-01 BMatC= 3.71D-01 BMatP= 3.71D-01
 IDIUse=3 WtCom= 6.27D-01 WtEn= 3.73D-01
 Coeff-Com:  0.100D+01
 Coeff-En:   0.100D+01
 Coeff:      0.100D+01
 Gap=     0.283 Goal=   None    Shift=    0.000
 Gap=     0.393 Goal=   None    Shift=    0.000
 GapD=    0.283 DampG=1.000 DampE=0.500 DampFc=0.5000 IDamp=-1.
 Damping current iteration by 5.00D-01
 RMSDP=1.68D-03 MaxDP=8.17D-02              OVMax= 1.32D-01

 Cycle   2  Pass 1  IDiag  1:
 RMSU=  7.95D-04    CP:  9.66D-01
 CoulSu:  requested number of processors reduced to:  20 ShMem   1 Linda.
 E= -113.837649536332     Delta-E=       -0.011448806597 Rises=F Damp=T
 DIIS: error= 1.98D-02 at cycle   2 NSaved=   2.
 NSaved= 2 IEnMin= 2 EnMin= -113.837649536332     IErMin= 2 ErrMin= 1.98D-02
 ErrMax= 1.98D-02  0.00D+00 EMaxC= 1.00D-01 BMatC= 7.52D-02 BMatP= 3.71D-01
 IDIUse=3 WtCom= 8.02D-01 WtEn= 1.98D-01
 Coeff-Com: -0.455D-01 0.105D+01
 Coeff-En:   0.234D+00 0.766D+00
 Coeff:      0.975D-02 0.990D+00
 Gap=     0.304 Goal=   None    Shift=    0.000
 Gap=     0.425 Goal=   None    Shift=    0.000
 RMSDP=8.49D-04 MaxDP=4.79D-02 DE=-1.14D-02 OVMax= 1.09D-01

 Cycle   3  Pass 1  IDiag  1:
 RMSU=  7.15D-04    CP:  9.41D-01  1.52D+00
 CoulSu:  requested number of processors reduced to:  20 ShMem   1 Linda.
 E= -113.852856782020     Delta-E=       -0.015207245688 Rises=F Damp=F
 DIIS: error= 7.09D-03 at cycle   3 NSaved=   3.
 NSaved= 3 IEnMin= 3 EnMin= -113.852856782020     IErMin= 3 ErrMin= 7.09D-03
 ErrMax= 7.09D-03  0.00D+00 EMaxC= 1.00D-01 BMatC= 3.57D-02 BMatP= 7.52D-02
 IDIUse=3 WtCom= 9.29D-01 WtEn= 7.09D-02
 Coeff-Com: -0.217D+00 0.500D+00 0.718D+00
 Coeff-En:   0.000D+00 0.000D+00 0.100D+01
 Coeff:     -0.202D+00 0.464D+00 0.738D+00
 Gap=     0.273 Goal=   None    Shift=    0.000
 Gap=     0.416 Goal=   None    Shift=    0.000
 RMSDP=2.76D-04 MaxDP=8.51D-03 DE=-1.52D-02 OVMax= 3.92D-02

 Cycle   4  Pass 1  IDiag  1:
 RMSU=  2.03D-04    CP:  9.38D-01  1.65D+00  7.85D-01
 CoulSu:  requested number of processors reduced to:  20 ShMem   1 Linda.
 E= -113.858861298609     Delta-E=       -0.006004516589 Rises=F Damp=F
 DIIS: error= 2.15D-03 at cycle   4 NSaved=   4.
 NSaved= 4 IEnMin= 4 EnMin= -113.858861298609     IErMin= 4 ErrMin= 2.15D-03
 ErrMax= 2.15D-03  0.00D+00 EMaxC= 1.00D-01 BMatC= 2.34D-03 BMatP= 3.57D-02
 IDIUse=3 WtCom= 9.79D-01 WtEn= 2.15D-02
 Coeff-Com: -0.593D-01 0.115D+00 0.309D+00 0.636D+00
 Coeff-En:   0.000D+00 0.000D+00 0.515D-02 0.995D+00
 Coeff:     -0.581D-01 0.113D+00 0.302D+00 0.643D+00
 Gap=     0.272 Goal=   None    Shift=    0.000
 Gap=     0.417 Goal=   None    Shift=    0.000
 RMSDP=8.28D-05 MaxDP=4.35D-03 DE=-6.00D-03 OVMax= 8.95D-03

 Cycle   5  Pass 1  IDiag  1:
 RMSU=  6.56D-05    CP:  9.37D-01  1.64D+00  8.26D-01  8.08D-01
 CoulSu:  requested number of processors reduced to:  20 ShMem   1 Linda.
 E= -113.859327252056     Delta-E=       -0.000465953447 Rises=F Damp=F
 DIIS: error= 1.85D-04 at cycle   5 NSaved=   5.
 NSaved= 5 IEnMin= 5 EnMin= -113.859327252056     IErMin= 5 ErrMin= 1.85D-04
 ErrMax= 1.85D-04  0.00D+00 EMaxC= 1.00D-01 BMatC= 1.19D-05 BMatP= 2.34D-03
 IDIUse=3 WtCom= 9.98D-01 WtEn= 1.85D-03
 Coeff-Com:  0.156D-01-0.319D-01-0.716D-01-0.802D-01 0.117D+01
 Coeff-En:   0.000D+00 0.000D+00 0.000D+00 0.000D+00 0.100D+01
 Coeff:      0.156D-01-0.319D-01-0.715D-01-0.800D-01 0.117D+01
 Gap=     0.273 Goal=   None    Shift=    0.000
 Gap=     0.418 Goal=   None    Shift=    0.000
 RMSDP=2.93D-05 MaxDP=1.21D-03 DE=-4.66D-04 OVMax= 1.61D-03

 Cycle   6  Pass 1  IDiag  1:
 RMSU=  1.14D-05    CP:  9.37D-01  1.65D+00  8.25D-01  8.65D-01  1.37D+00
 CoulSu:  requested number of processors reduced to:  20 ShMem   1 Linda.
 E= -113.859333407059     Delta-E=       -0.000006155004 Rises=F Damp=F
 DIIS: error= 7.54D-05 at cycle   6 NSaved=   6.
 NSaved= 6 IEnMin= 6 EnMin= -113.859333407059     IErMin= 6 ErrMin= 7.54D-05
 ErrMax= 7.54D-05  0.00D+00 EMaxC= 1.00D-01 BMatC= 7.59D-07 BMatP= 1.19D-05
 IDIUse=1 WtCom= 1.00D+00 WtEn= 0.00D+00
 Coeff-Com:  0.258D-02-0.533D-02-0.145D-01-0.260D-01 0.113D-01 0.103D+01
 Coeff:      0.258D-02-0.533D-02-0.145D-01-0.260D-01 0.113D-01 0.103D+01
 Gap=     0.273 Goal=   None    Shift=    0.000
 Gap=     0.418 Goal=   None    Shift=    0.000
 RMSDP=8.02D-06 MaxDP=2.94D-04 DE=-6.16D-06 OVMax= 6.59D-04

 Cycle   7  Pass 1  IDiag  1:
 RMSU=  3.81D-06    CP:  9.37D-01  1.65D+00  8.25D-01  8.72D-01  1.45D+00
                    CP:  1.34D+00
 CoulSu:  requested number of processors reduced to:  20 ShMem   1 Linda.
 E= -113.859334166898     Delta-E=       -0.000000759838 Rises=F Damp=F
 DIIS: error= 3.84D-05 at cycle   7 NSaved=   7.
 NSaved= 7 IEnMin= 7 EnMin= -113.859334166898     IErMin= 7 ErrMin= 3.84D-05
 ErrMax= 3.84D-05  0.00D+00 EMaxC= 1.00D-01 BMatC= 2.09D-07 BMatP= 7.59D-07
 IDIUse=1 WtCom= 1.00D+00 WtEn= 0.00D+00
 Coeff-Com: -0.212D-02 0.423D-02 0.937D-02 0.146D-01-0.805D-01-0.393D+00
 Coeff-Com:  0.145D+01
 Coeff:     -0.212D-02 0.423D-02 0.937D-02 0.146D-01-0.805D-01-0.393D+00
 Coeff:      0.145D+01
 Gap=     0.273 Goal=   None    Shift=    0.000
 Gap=     0.418 Goal=   None    Shift=    0.000
 RMSDP=4.87D-06 MaxDP=1.82D-04 DE=-7.60D-07 OVMax= 5.32D-04

 Cycle   8  Pass 1  IDiag  1:
 RMSU=  1.62D-06    CP:  9.36D-01  1.65D+00  8.24D-01  8.73D-01  1.50D+00
                    CP:  1.54D+00  1.70D+00
 CoulSu:  requested number of processors reduced to:  20 ShMem   1 Linda.
 E= -113.859334481039     Delta-E=       -0.000000314141 Rises=F Damp=F
 DIIS: error= 1.99D-05 at cycle   8 NSaved=   8.
 NSaved= 8 IEnMin= 8 EnMin= -113.859334481039     IErMin= 8 ErrMin= 1.99D-05
 ErrMax= 1.99D-05  0.00D+00 EMaxC= 1.00D-01 BMatC= 5.38D-08 BMatP= 2.09D-07
 IDIUse=1 WtCom= 1.00D+00 WtEn= 0.00D+00
 Coeff-Com:  0.386D-03-0.722D-03-0.142D-02-0.349D-04 0.411D-01-0.500D-01
 Coeff-Com: -0.699D+00 0.171D+01
 Coeff:      0.386D-03-0.722D-03-0.142D-02-0.349D-04 0.411D-01-0.500D-01
 Coeff:     -0.699D+00 0.171D+01
 Gap=     0.273 Goal=   None    Shift=    0.000
 Gap=     0.418 Goal=   None    Shift=    0.000
 RMSDP=3.06D-06 MaxDP=1.37D-04 DE=-3.14D-07 OVMax= 4.00D-04

 Cycle   9  Pass 1  IDiag  1:
 RMSU=  7.48D-07    CP:  9.36D-01  1.65D+00  8.24D-01  8.74D-01  1.52D+00
                    CP:  1.63D+00  2.09D+00  2.07D+00
 CoulSu:  requested number of processors reduced to:  20 ShMem   1 Linda.
 E= -113.859334577278     Delta-E=       -0.000000096239 Rises=F Damp=F
 DIIS: error= 4.32D-06 at cycle   9 NSaved=   9.
 NSaved= 9 IEnMin= 9 EnMin= -113.859334577278     IErMin= 9 ErrMin= 4.32D-06
 ErrMax= 4.32D-06  0.00D+00 EMaxC= 1.00D-01 BMatC= 4.05D-09 BMatP= 5.38D-08
 IDIUse=1 WtCom= 1.00D+00 WtEn= 0.00D+00
 Coeff-Com:  0.239D-03-0.487D-03-0.968D-03-0.129D-02 0.853D-02 0.594D-01
 Coeff-Com: -0.202D+00-0.487D-01 0.119D+01
 Coeff:      0.239D-03-0.487D-03-0.968D-03-0.129D-02 0.853D-02 0.594D-01
 Coeff:     -0.202D+00-0.487D-01 0.119D+01
 Gap=     0.273 Goal=   None    Shift=    0.000
 Gap=     0.418 Goal=   None    Shift=    0.000
 RMSDP=8.32D-07 MaxDP=3.78D-05 DE=-9.62D-08 OVMax= 1.09D-04

 Cycle  10  Pass 1  IDiag  1:
 RMSU=  2.14D-07    CP:  9.36D-01  1.65D+00  8.24D-01  8.74D-01  1.52D+00
                    CP:  1.64D+00  2.19D+00  2.43D+00  1.35D+00
 CoulSu:  requested number of processors reduced to:  20 ShMem   1 Linda.
 E= -113.859334583557     Delta-E=       -0.000000006280 Rises=F Damp=F
 DIIS: error= 9.22D-07 at cycle  10 NSaved=  10.
 NSaved=10 IEnMin=10 EnMin= -113.859334583557     IErMin=10 ErrMin= 9.22D-07
 ErrMax= 9.22D-07  0.00D+00 EMaxC= 1.00D-01 BMatC= 2.05D-10 BMatP= 4.05D-09
 IDIUse=1 WtCom= 1.00D+00 WtEn= 0.00D+00
 Coeff-Com: -0.377D-04 0.690D-04 0.125D-03 0.702D-04-0.263D-02 0.159D-02
 Coeff-Com:  0.432D-01-0.937D-01-0.383D-01 0.109D+01
 Coeff:     -0.377D-04 0.690D-04 0.125D-03 0.702D-04-0.263D-02 0.159D-02
 Coeff:      0.432D-01-0.937D-01-0.383D-01 0.109D+01
 Gap=     0.273 Goal=   None    Shift=    0.000
 Gap=     0.418 Goal=   None    Shift=    0.000
 RMSDP=1.55D-07 MaxDP=4.69D-06 DE=-6.28D-09 OVMax= 1.45D-05

 Cycle  11  Pass 1  IDiag  1:
 RMSU=  5.00D-08    CP:  9.36D-01  1.65D+00  8.24D-01  8.74D-01  1.52D+00
                    CP:  1.64D+00  2.19D+00  2.48D+00  1.42D+00  1.39D+00
 CoulSu:  requested number of processors reduced to:  20 ShMem   1 Linda.
 E= -113.859334583754     Delta-E=       -0.000000000196 Rises=F Damp=F
 DIIS: error= 3.80D-07 at cycle  11 NSaved=  11.
 NSaved=11 IEnMin=11 EnMin= -113.859334583754     IErMin=11 ErrMin= 3.80D-07
 ErrMax= 3.80D-07  0.00D+00 EMaxC= 1.00D-01 BMatC= 2.34D-11 BMatP= 2.05D-10
 IDIUse=1 WtCom= 1.00D+00 WtEn= 0.00D+00
 Coeff-Com: -0.138D-04 0.296D-04 0.576D-04 0.553D-04-0.331D-03-0.515D-02
 Coeff-Com:  0.130D-01 0.111D-01-0.101D+00-0.905D-01 0.117D+01
 Coeff:     -0.138D-04 0.296D-04 0.576D-04 0.553D-04-0.331D-03-0.515D-02
 Coeff:      0.130D-01 0.111D-01-0.101D+00-0.905D-01 0.117D+01
 Gap=     0.273 Goal=   None    Shift=    0.000
 Gap=     0.418 Goal=   None    Shift=    0.000
 RMSDP=5.99D-08 MaxDP=2.28D-06 DE=-1.96D-10 OVMax= 5.25D-06

 Cycle  12  Pass 1  IDiag  1:
 RMSU=  1.64D-08    CP:  9.36D-01  1.65D+00  8.24D-01  8.74D-01  1.52D+00
                    CP:  1.64D+00  2.19D+00  2.50D+00  1.44D+00  1.50D+00
                    CP:  1.59D+00
 CoulSu:  requested number of processors reduced to:  20 ShMem   1 Linda.
 E= -113.859334583781     Delta-E=       -0.000000000028 Rises=F Damp=F
 DIIS: error= 1.70D-07 at cycle  12 NSaved=  12.
 NSaved=12 IEnMin=12 EnMin= -113.859334583781     IErMin=12 ErrMin= 1.70D-07
 ErrMax= 1.70D-07  0.00D+00 EMaxC= 1.00D-01 BMatC= 5.50D-12 BMatP= 2.34D-11
 IDIUse=1 WtCom= 1.00D+00 WtEn= 0.00D+00
 Coeff-Com:  0.366D-05-0.691D-05 0.762D-06 0.691D-06 0.140D-03 0.523D-03
 Coeff-Com: -0.465D-02 0.412D-02 0.308D-01-0.764D-01-0.423D+00 0.147D+01
 Coeff:      0.366D-05-0.691D-05 0.762D-06 0.691D-06 0.140D-03 0.523D-03
 Coeff:     -0.465D-02 0.412D-02 0.308D-01-0.764D-01-0.423D+00 0.147D+01
 Gap=     0.273 Goal=   None    Shift=    0.000
 Gap=     0.418 Goal=   None    Shift=    0.000
 RMSDP=2.23D-08 MaxDP=1.18D-06 DE=-2.80D-11 OVMax= 2.42D-06

 Cycle  13  Pass 1  IDiag  1:
 RMSU=  6.22D-09    CP:  9.36D-01  1.65D+00  8.24D-01  8.74D-01  1.52D+00
                    CP:  1.64D+00  2.19D+00  2.50D+00  1.44D+00  1.51D+00
                    CP:  1.83D+00  1.50D+00
 CoulSu:  requested number of processors reduced to:  20 ShMem   1 Linda.
 E= -113.859334583785     Delta-E=       -0.000000000003 Rises=F Damp=F
 DIIS: error= 2.61D-08 at cycle  13 NSaved=  13.
 NSaved=13 IEnMin=13 EnMin= -113.859334583785     IErMin=13 ErrMin= 2.61D-08
 ErrMax= 2.61D-08  0.00D+00 EMaxC= 1.00D-01 BMatC= 1.26D-13 BMatP= 5.50D-12
 IDIUse=1 WtCom= 1.00D+00 WtEn= 0.00D+00
 Coeff-Com:  0.433D-06-0.110D-05-0.439D-05-0.301D-05 0.316D-04 0.177D-03
 Coeff-Com: -0.604D-03-0.432D-03 0.218D-02 0.139D-01-0.162D-01-0.207D+00
 Coeff-Com:  0.121D+01
 Coeff:      0.433D-06-0.110D-05-0.439D-05-0.301D-05 0.316D-04 0.177D-03
 Coeff:     -0.604D-03-0.432D-03 0.218D-02 0.139D-01-0.162D-01-0.207D+00
 Coeff:      0.121D+01
 Gap=     0.273 Goal=   None    Shift=    0.000
 Gap=     0.418 Goal=   None    Shift=    0.000
 RMSDP=4.37D-09 MaxDP=1.24D-07 DE=-3.47D-12 OVMax= 4.55D-07

 SCF Done:  E(UM062X) =  -113.859334584     A.U. after   13 cycles
            NFock= 13  Conv=0.44D-08     -V/T= 2.0037
 <Sx>= 0.0000 <Sy>= 0.0000 <Sz>= 0.5000 <S**2>= 0.7541 S= 0.5020
 <L.S>= 0.000000000000E+00
 KE= 1.134407282579D+02 PE=-3.204325460804D+02 EE= 6.666144414872D+01
 Annihilation of the first spin contaminant:
 S**2 before annihilation     0.7541,   after     0.7500
 Leave Link  502 at Sat Apr 17 13:31:16 2021, MaxMem=   104857600 cpu:            1029.3 elap:              27.0
 (Enter /s/ls4/users/knvvv/bin/g16sse/l601.exe)
 Copying SCF densities to generalized density rwf, IOpCl= 1 IROHF=0.

 **********************************************************************

            Population analysis using the SCF density.

 **********************************************************************

 Orbital symmetries:
 Alpha Orbitals:
       Occupied  (A') (A') (A') (A') (A') (A') (A") (A')
       Virtual   (A") (A') (A') (A') (A") (A') (A') (A") (A') (A')
                 (A") (A') (A') (A") (A") (A') (A') (A') (A') (A")
                 (A') (A") (A') (A') (A') (A') (A") (A") (A') (A')
                 (A') (A") (A') (A') (A') (A") (A") (A') (A') (A')
                 (A') (A') (A") (A") (A') (A') (A') (A") (A') (A")
                 (A') (A") (A') (A") (A') (A') (A") (A') (A') (A')
                 (A") (A') (A') (A") (A") (A') (A') (A') (A") (A")
                 (A') (A') (A') (A') (A") (A') (A") (A') (A") (A')
                 (A") (A') (A') (A") (A') (A') (A') (A") (A') (A')
                 (A") (A') (A") (A") (A') (A") (A') (A") (A') (A")
                 (A') (A') (A') (A") (A') (A") (A') (A") (A') (A')
                 (A') (A") (A') (A') (A") (A') (A") (A') (A") (A')
                 (A') (A") (A') (A") (A') (A') (A") (A') (A') (A")
                 (A') (A') (A") (A") (A') (A') (A") (A') (A") (A')
                 (A") (A') (A') (A') (A") (A') (A") (A') (A') (A')
                 (A') (A') (A') (A')
 Beta  Orbitals:
       Occupied  (A') (A') (A') (A') (A') (A") (A')
       Virtual   (A') (A") (A') (A') (A') (A") (A') (A') (A") (A')
                 (A") (A') (A') (A') (A") (A") (A') (A') (A') (A')
                 (A") (A') (A") (A') (A') (A') (A') (A") (A") (A')
                 (A') (A') (A") (A') (A') (A') (A") (A') (A") (A')
                 (A') (A') (A') (A") (A") (A') (A') (A') (A") (A')
                 (A") (A') (A") (A') (A") (A') (A') (A") (A') (A')
                 (A') (A") (A') (A') (A") (A") (A') (A') (A') (A")
                 (A") (A') (A') (A') (A') (A") (A') (A") (A') (A")
                 (A') (A") (A') (A') (A") (A') (A') (A') (A") (A')
                 (A') (A") (A') (A") (A") (A') (A") (A') (A") (A')
                 (A") (A') (A') (A") (A') (A') (A") (A') (A') (A")
                 (A') (A') (A") (A') (A') (A") (A') (A") (A') (A")
                 (A') (A') (A") (A') (A") (A') (A") (A') (A') (A')
                 (A") (A') (A') (A") (A") (A') (A') (A') (A") (A")
                 (A') (A") (A') (A') (A') (A") (A') (A") (A') (A')
                 (A') (A') (A') (A') (A')
 The electronic state is 2-A'.
 Alpha  occ. eigenvalues --  -19.69855 -10.65311  -1.24077  -0.71534  -0.59508
 Alpha  occ. eigenvalues --   -0.52919  -0.51587  -0.28465
 Alpha virt. eigenvalues --   -0.01153   0.01162   0.05069   0.05490   0.05717
 Alpha virt. eigenvalues --    0.11449   0.14075   0.17074   0.17753   0.19520
 Alpha virt. eigenvalues --    0.19888   0.24006   0.25562   0.25710   0.27083
 Alpha virt. eigenvalues --    0.27312   0.29564   0.31264   0.36570   0.41753
 Alpha virt. eigenvalues --    0.41861   0.44432   0.45863   0.48113   0.50381
 Alpha virt. eigenvalues --    0.60786   0.61116   0.62673   0.63393   0.67715
 Alpha virt. eigenvalues --    0.69100   0.72236   0.81241   0.85019   0.90755
 Alpha virt. eigenvalues --    0.92259   0.95748   0.96855   1.06961   1.14270
 Alpha virt. eigenvalues --    1.17646   1.25801   1.38487   1.41795   1.44593
 Alpha virt. eigenvalues --    1.50725   1.63085   1.64806   1.71032   1.71908
 Alpha virt. eigenvalues --    1.86184   1.86971   1.94121   2.00220   2.00407
 Alpha virt. eigenvalues --    2.03699   2.06656   2.12487   2.18020   2.25658
 Alpha virt. eigenvalues --    2.30904   2.32933   2.41974   2.44393   2.53065
 Alpha virt. eigenvalues --    2.54125   2.73234   2.87461   2.88086   3.13251
 Alpha virt. eigenvalues --    3.16140   3.21230   3.33742   3.38823   3.48358
 Alpha virt. eigenvalues --    3.66152   3.71716   3.78747   3.92295   4.02451
 Alpha virt. eigenvalues --    4.05370   4.06307   4.23878   4.45037   4.52298
 Alpha virt. eigenvalues --    4.60804   4.71611   4.72355   4.85127   5.07267
 Alpha virt. eigenvalues --    5.10336   5.28367   5.32503   5.37189   5.47550
 Alpha virt. eigenvalues --    5.56333   5.58119   5.64870   5.74157   5.78554
 Alpha virt. eigenvalues --    5.79113   5.87931   5.96919   5.97713   6.03950
 Alpha virt. eigenvalues --    6.07585   6.12183   6.40586   6.41200   6.68329
 Alpha virt. eigenvalues --    6.92726   7.10444   7.11832   7.25958   7.29046
 Alpha virt. eigenvalues --    7.40526   7.50006   7.61188   7.79255   7.80281
 Alpha virt. eigenvalues --    8.07928   8.23191   8.48311   8.74246   8.75554
 Alpha virt. eigenvalues --    8.90227   8.90475   9.19262   9.31568   9.47430
 Alpha virt. eigenvalues --    9.58245   9.84383   9.88676  10.13982  10.27866
 Alpha virt. eigenvalues --   10.43953  10.82749  10.82956  11.18534  11.21871
 Alpha virt. eigenvalues --   11.61052  11.68320  11.72818  11.87549  12.02885
 Alpha virt. eigenvalues --   12.09480  13.09311  13.26950  13.78531  14.24727
 Alpha virt. eigenvalues --   28.17198  47.98617 145.60279 251.05879
  Beta  occ. eigenvalues --  -19.69131 -10.64581  -1.21974  -0.68250  -0.56308
  Beta  occ. eigenvalues --   -0.50431  -0.46674
  Beta virt. eigenvalues --   -0.04882  -0.00013   0.01734   0.05103   0.06188
  Beta virt. eigenvalues --    0.06293   0.10875   0.13737   0.15487   0.15737
  Beta virt. eigenvalues --    0.18380   0.19488   0.22687   0.24030   0.25152
  Beta virt. eigenvalues --    0.26262   0.27416   0.29455   0.30281   0.37466
  Beta virt. eigenvalues --    0.41454   0.41945   0.43960   0.46301   0.47862
  Beta virt. eigenvalues --    0.50204   0.60896   0.61474   0.62629   0.63578
  Beta virt. eigenvalues --    0.67340   0.68271   0.71602   0.79836   0.85812
  Beta virt. eigenvalues --    0.89931   0.90923   0.95717   0.96170   1.05331
  Beta virt. eigenvalues --    1.12674   1.17417   1.23586   1.38650   1.41786
  Beta virt. eigenvalues --    1.44157   1.50838   1.63235   1.64866   1.71437
  Beta virt. eigenvalues --    1.71560   1.85727   1.87604   1.95109   1.99302
  Beta virt. eigenvalues --    1.99826   2.04288   2.06609   2.12277   2.17458
  Beta virt. eigenvalues --    2.24702   2.30408   2.32780   2.41680   2.43649
  Beta virt. eigenvalues --    2.51489   2.53098   2.71418   2.85986   2.87574
  Beta virt. eigenvalues --    3.13263   3.16391   3.21504   3.32405   3.39444
  Beta virt. eigenvalues --    3.46611   3.68342   3.71445   3.78534   3.92281
  Beta virt. eigenvalues --    4.03508   4.05983   4.08292   4.23184   4.45189
  Beta virt. eigenvalues --    4.52611   4.61872   4.73529   4.75507   4.86376
  Beta virt. eigenvalues --    5.10230   5.10801   5.32070   5.36451   5.38943
  Beta virt. eigenvalues --    5.52374   5.62494   5.65519   5.70525   5.75822
  Beta virt. eigenvalues --    5.88775   5.89152   5.92974   5.98784   6.03747
  Beta virt. eigenvalues --    6.09446   6.14489   6.19788   6.44177   6.45788
  Beta virt. eigenvalues --    6.71625   7.00474   7.10748   7.19277   7.27869
  Beta virt. eigenvalues --    7.34440   7.43630   7.52690   7.62848   7.80681
  Beta virt. eigenvalues --    7.83913   8.11698   8.32317   8.56795   8.74886
  Beta virt. eigenvalues --    8.76116   8.91120   8.92319   9.22752   9.38754
  Beta virt. eigenvalues --    9.50962   9.62155   9.83388   9.88592  10.13800
  Beta virt. eigenvalues --   10.29800  10.47067  10.85087  10.85115  11.19640
  Beta virt. eigenvalues --   11.23035  11.59745  11.68792  11.75924  11.99942
  Beta virt. eigenvalues --   12.05349  12.11960  13.10117  13.29754  13.82476
  Beta virt. eigenvalues --   14.26524  28.28543  47.98694 145.62154 251.04047
          Condensed to atoms (all electrons):
               1          2          3
     1  O    8.083051   0.361162  -0.029538
     2  C    0.361162   5.029069   0.387859
     3  H   -0.029538   0.387859   0.448915
          Atomic-Atomic Spin Densities.
               1          2          3
     1  O    0.377588  -0.129062  -0.027133
     2  C   -0.129062   0.793945   0.010758
     3  H   -0.027133   0.010758   0.119340
 Mulliken charges and spin densities:
               1          2
     1  O   -0.414674   0.221394
     2  C    0.221910   0.675641
     3  H    0.192764   0.102965
 Sum of Mulliken charges =  -0.00000   1.00000
 Mulliken charges and spin densities with hydrogens summed into heavy atoms:
               1          2
     1  O   -0.414674   0.221394
     2  C    0.414674   0.778606
 Electronic spatial extent (au):  <R**2>=             50.8894
 Charge=             -0.0000 electrons
 Dipole moment (field-independent basis, Debye):
    X=             -1.0129    Y=              1.4443    Z=              0.0000  Tot=              1.7641
 Quadrupole moment (field-independent basis, Debye-Ang):
   XX=            -11.4883   YY=            -11.5625   ZZ=            -11.0484
   XY=             -1.2289   XZ=              0.0000   YZ=              0.0000
 Traceless Quadrupole moment (field-independent basis, Debye-Ang):
   XX=             -0.1219   YY=             -0.1961   ZZ=              0.3180
   XY=             -1.2289   XZ=              0.0000   YZ=              0.0000
 Octapole moment (field-independent basis, Debye-Ang**2):
  XXX=             -1.3410  YYY=             -2.3332  ZZZ=              0.0000  XYY=             -1.8730
  XXY=             -0.7719  XXZ=              0.0000  XZZ=             -0.2586  YZZ=             -0.8695
  YYZ=              0.0000  XYZ=              0.0000
 Hexadecapole moment (field-independent basis, Debye-Ang**3):
 XXXX=            -15.5388 YYYY=            -40.5654 ZZZZ=            -10.1184 XXXY=              0.7945
 XXXZ=              0.0000 YYYX=             -0.4001 YYYZ=              0.0000 ZZZX=              0.0000
 ZZZY=              0.0000 XXYY=             -9.2263 XXZZ=             -4.3794 YYZZ=             -8.3948
 XXYZ=              0.0000 YYXZ=              0.0000 ZZXY=              0.5053
 N-N= 2.647103909008D+01 E-N=-3.204325457401D+02  KE= 1.134407282579D+02
                          Isotropic Fermi Contact Couplings
        Atom                 a.u.       MegaHertz       Gauss      10(-4) cm-1
     1  O(17)              0.06383     -38.69506     -13.80736     -12.90728
     2  C(13)              0.38827     436.49002     155.75049     145.59740
     3  H(1)               0.08507     380.24809     135.68198     126.83711
 PrsmSu:  requested number of processors reduced to:  21 ShMem   1 Linda.
 --------------------------------------------------------
       Center         ----  Spin Dipole Couplings  ----
                      3XX-RR        3YY-RR        3ZZ-RR
 --------------------------------------------------------
     1   Atom        1.491502     -0.637706     -0.853797
     2   Atom        0.427366     -0.117777     -0.309589
     3   Atom        0.016126      0.018256     -0.034382
 --------------------------------------------------------
                        XY            XZ            YZ
 --------------------------------------------------------
     1   Atom        0.465914      0.000000      0.000000
     2   Atom        0.426931      0.000000      0.000000
     3   Atom       -0.039098      0.000000      0.000000
 --------------------------------------------------------


 ---------------------------------------------------------------------------------
              Anisotropic Spin Dipole Couplings in Principal Axis System
 ---------------------------------------------------------------------------------

       Atom             a.u.   MegaHertz   Gauss  10(-4) cm-1        Axes

              Baa    -0.8538    61.780    22.045    20.608  0.0000  0.0000  1.0000
     1 O(17)  Bbb    -0.7352    53.198    18.982    17.745 -0.2048  0.9788 -0.0000
              Bcc     1.5890  -114.978   -41.027   -38.353  0.9788  0.2048  0.0000
 
              Baa    -0.3517   -47.199   -16.842   -15.744 -0.4806  0.8770 -0.0000
     2 C(13)  Bbb    -0.3096   -41.544   -14.824   -13.858  0.0000  0.0000  1.0000
              Bcc     0.6613    88.742    31.666    29.601  0.8770  0.4806  0.0000
 
              Baa    -0.0344   -18.344    -6.546    -6.119  0.0000  0.0000  1.0000
     3 H(1)   Bbb    -0.0219   -11.697    -4.174    -3.902  0.7167  0.6974  0.0000
              Bcc     0.0563    30.041    10.719    10.021 -0.6974  0.7167  0.0000
 

 ---------------------------------------------------------------------------------

 PrsmSu:  requested number of processors reduced to:  21 ShMem   1 Linda.
 No NMR shielding tensors so no spin-rotation constants.
 Leave Link  601 at Sat Apr 17 13:31:19 2021, MaxMem=   104857600 cpu:             149.2 elap:               3.4
 (Enter /s/ls4/users/knvvv/bin/g16sse/l801.exe)
 DoSCS=F DFT=T ScalE2(SS,OS)=  1.000000  1.000000
 Range of M.O.s used for correlation:     1   162
 NBasis=   162 NAE=     8 NBE=     7 NFC=     0 NFV=     0
 NROrb=    162 NOA=     8 NOB=     7 NVA=   154 NVB=   155

 **** Warning!!: The largest alpha MO coefficient is  0.53461521D+02


 **** Warning!!: The largest beta MO coefficient is  0.52303860D+02

 Leave Link  801 at Sat Apr 17 13:31:19 2021, MaxMem=   104857600 cpu:               3.7 elap:               0.1
 (Enter /s/ls4/users/knvvv/bin/g16sse/l914.exe)
 UHF ground state
 Doing stability rather than CIS.
 Two-electron integrals replicated using symmetry.
 MDV=   104857600 DFT=T DoStab=T Mixed=T DoRPA=F DoScal=F NonHer=F
 Making orbital integer symmetry assigments:
 Orbital symmetries:
 Alpha Orbitals:
       Occupied  (A') (A') (A') (A') (A') (A') (A") (A')
       Virtual   (A") (A') (A') (A') (A") (A') (A') (A") (A') (A')
                 (A") (A') (A') (A") (A") (A') (A') (A') (A') (A")
                 (A') (A") (A') (A') (A') (A') (A") (A") (A') (A')
                 (A') (A") (A') (A') (A') (A") (A") (A') (A') (A')
                 (A') (A') (A") (A") (A') (A') (A') (A") (A') (A")
                 (A') (A") (A') (A") (A') (A') (A") (A') (A') (A')
                 (A") (A') (A') (A") (A") (A') (A') (A') (A") (A")
                 (A') (A') (A') (A') (A") (A') (A") (A') (A") (A')
                 (A") (A') (A') (A") (A') (A') (A') (A") (A') (A')
                 (A") (A') (A") (A") (A') (A") (A') (A") (A') (A")
                 (A') (A') (A') (A") (A') (A") (A') (A") (A') (A')
                 (A') (A") (A') (A') (A") (A') (A") (A') (A") (A')
                 (A') (A") (A') (A") (A') (A') (A") (A') (A') (A")
                 (A') (A') (A") (A") (A') (A') (A") (A') (A") (A')
                 (A") (A') (A') (A') (A") (A') (A") (A') (A') (A')
                 (A') (A') (A') (A')
 Beta  Orbitals:
       Occupied  (A') (A') (A') (A') (A') (A") (A')
       Virtual   (A') (A") (A') (A') (A') (A") (A') (A') (A") (A')
                 (A") (A') (A') (A') (A") (A") (A') (A') (A') (A')
                 (A") (A') (A") (A') (A') (A') (A') (A") (A") (A')
                 (A') (A') (A") (A') (A') (A') (A") (A') (A") (A')
                 (A') (A') (A') (A") (A") (A') (A') (A') (A") (A')
                 (A") (A') (A") (A') (A") (A') (A') (A") (A') (A')
                 (A') (A") (A') (A') (A") (A") (A') (A') (A') (A")
                 (A") (A') (A') (A') (A') (A") (A') (A") (A') (A")
                 (A') (A") (A') (A') (A") (A') (A') (A') (A") (A')
                 (A') (A") (A') (A") (A") (A') (A") (A') (A") (A')
                 (A") (A') (A') (A") (A') (A') (A") (A') (A') (A")
                 (A') (A') (A") (A') (A') (A") (A') (A") (A') (A")
                 (A') (A') (A") (A') (A") (A') (A") (A') (A') (A')
                 (A") (A') (A') (A") (A") (A') (A') (A') (A") (A")
                 (A') (A") (A') (A') (A') (A") (A') (A") (A') (A')
                 (A') (A') (A') (A') (A')
    12 initial guesses have been made.
 Convergence on wavefunction:    0.001000000000000
 Davidson Disk Diagonalization:  ConvIn= 1.00D-03 SkipCon=T Conv= 1.00D-03.
 Max sub-space:  2000 roots to seek:    12 dimension of matrix:         2317
 Iteration     1 Dimension    12 NMult     0 NNew     12
 Estimated number of processors is:   19
 CISAX will form     1 AO SS matrices at one time.
 NMat=     1 NSing=     1 JSym2X= 2.
 FoFJK:  IHMeth= 1 ICntrl=       0 DoSepK=F KAlg= 0 I1Cent=           0 FoldK=F
 IRaf= 990000000 NMat=       1 IRICut=       1 DoRegI=T DoRafI=F ISym2E= 2 IDoP0=0 IntGTp=1.
 FoFCou: FMM=F IPFlag=           0 FMFlag=      100000 FMFlg1=           0
         NFxFlg=           0 DoJE=F BraDBF=F KetDBF=F FulRan=T
         wScrn=  0.000000 ICntrl=         0 IOpCl=  1 I1Cent=           0 NGrid=           0
         NMat0=    1 NMatS0=      1 NMatT0=    0 NMatD0=    1 NMtDS0=    0 NMtDT0=    0
 Integrals replicated using symmetry in FoFCou.
 CoulSu:  requested number of processors reduced to:  20 ShMem   1 Linda.
 NMat=     1 NSing=     1 JSym2X= 2.
 CoulSu:  requested number of processors reduced to:  20 ShMem   1 Linda.
 NMat=     1 NSing=     1 JSym2X= 2.
 CoulSu:  requested number of processors reduced to:  20 ShMem   1 Linda.
 NMat=     1 NSing=     1 JSym2X= 2.
 CoulSu:  requested number of processors reduced to:  20 ShMem   1 Linda.
 NMat=     1 NSing=     1 JSym2X= 2.
 CoulSu:  requested number of processors reduced to:  20 ShMem   1 Linda.
 NMat=     1 NSing=     1 JSym2X= 2.
 CoulSu:  requested number of processors reduced to:  20 ShMem   1 Linda.
 NMat=     1 NSing=     1 JSym2X= 2.
 CoulSu:  requested number of processors reduced to:  20 ShMem   1 Linda.
 NMat=     1 NSing=     1 JSym2X= 2.
 CoulSu:  requested number of processors reduced to:  20 ShMem   1 Linda.
 NMat=     1 NSing=     1 JSym2X= 2.
 CoulSu:  requested number of processors reduced to:  20 ShMem   1 Linda.
 NMat=     1 NSing=     1 JSym2X= 2.
 CoulSu:  requested number of processors reduced to:  20 ShMem   1 Linda.
 NMat=     1 NSing=     1 JSym2X= 2.
 CoulSu:  requested number of processors reduced to:  20 ShMem   1 Linda.
 NMat=     1 NSing=     1 JSym2X= 2.
 CoulSu:  requested number of processors reduced to:  20 ShMem   1 Linda.
 Excitation Energies [eV] at current iteration:
 Root      1 :     2.537455564369464
 Root      2 :     5.795244599202674
 Root      3 :     6.860185051132270
 Root      4 :     6.962812914652416
 Root      5 :     7.082734984638233
 Root      6 :     7.191425136736444
 Root      7 :     8.230465883026479
 Root      8 :     8.244554445888721
 Root      9 :     9.183857251879134
 Root     10 :     9.220458859248184
 Root     11 :     9.638351742051846
 Root     12 :    10.107536501480470
 Iteration     2 Dimension    24 NMult    12 NNew     12
 Estimated number of processors is:   19
 CISAX will form     1 AO SS matrices at one time.
 NMat=     1 NSing=     1 JSym2X= 2.
 CoulSu:  requested number of processors reduced to:  20 ShMem   1 Linda.
 NMat=     1 NSing=     1 JSym2X= 2.
 CoulSu:  requested number of processors reduced to:  20 ShMem   1 Linda.
 NMat=     1 NSing=     1 JSym2X= 2.
 CoulSu:  requested number of processors reduced to:  20 ShMem   1 Linda.
 NMat=     1 NSing=     1 JSym2X= 2.
 CoulSu:  requested number of processors reduced to:  20 ShMem   1 Linda.
 NMat=     1 NSing=     1 JSym2X= 2.
 CoulSu:  requested number of processors reduced to:  20 ShMem   1 Linda.
 NMat=     1 NSing=     1 JSym2X= 2.
 CoulSu:  requested number of processors reduced to:  20 ShMem   1 Linda.
 NMat=     1 NSing=     1 JSym2X= 2.
 CoulSu:  requested number of processors reduced to:  20 ShMem   1 Linda.
 NMat=     1 NSing=     1 JSym2X= 2.
 CoulSu:  requested number of processors reduced to:  20 ShMem   1 Linda.
 NMat=     1 NSing=     1 JSym2X= 2.
 CoulSu:  requested number of processors reduced to:  20 ShMem   1 Linda.
 NMat=     1 NSing=     1 JSym2X= 2.
 CoulSu:  requested number of processors reduced to:  20 ShMem   1 Linda.
 NMat=     1 NSing=     1 JSym2X= 2.
 CoulSu:  requested number of processors reduced to:  20 ShMem   1 Linda.
 NMat=     1 NSing=     1 JSym2X= 2.
 CoulSu:  requested number of processors reduced to:  20 ShMem   1 Linda.
 Root      1 not converged, maximum delta is    0.077446867129662
 Excitation Energies [eV] at current iteration:
 Root      1 :     2.191957992198274   Change is   -0.345497572171190
 Root      2 :     5.525751007747623   Change is   -0.269493591455052
 Root      3 :     5.810430472215242   Change is   -3.373426779663891
 Root      4 :     6.051557914853872   Change is   -0.911254999798545
 Root      5 :     6.652831897107908   Change is   -0.207353154024362
 Root      6 :     6.979648711390656   Change is   -0.211776425345788
 Root      7 :     7.133288017671769   Change is    0.050553033033535
 Root      8 :     7.878773623660872   Change is   -0.351692259365607
 Root      9 :     8.020730915272441   Change is   -0.223823530616280
 Root     10 :     8.635489745714025   Change is   -0.584969113534160
 Root     11 :     9.404051959042061   Change is   -0.234299783009785
 Root     12 :     9.650750375319554   Change is   -0.456786126160916
 Iteration     3 Dimension    27 NMult    24 NNew      3
 Estimated number of processors is:   19
 CISAX will form     1 AO SS matrices at one time.
 NMat=     1 NSing=     1 JSym2X= 2.
 CoulSu:  requested number of processors reduced to:  20 ShMem   1 Linda.
 NMat=     1 NSing=     1 JSym2X= 2.
 CoulSu:  requested number of processors reduced to:  20 ShMem   1 Linda.
 NMat=     1 NSing=     1 JSym2X= 2.
 CoulSu:  requested number of processors reduced to:  20 ShMem   1 Linda.
 Root      1 not converged, maximum delta is    0.020964340436137
 Excitation Energies [eV] at current iteration:
 Root      1 :     2.164459937856137   Change is   -0.027498054342137
 Root      2 :     5.072435447985522   Change is   -0.737995024229720
 Root      3 :     5.617155479053686   Change is    0.091404471306064
 Iteration     4 Dimension    30 NMult    27 NNew      3
 Estimated number of processors is:   19
 CISAX will form     1 AO SS matrices at one time.
 NMat=     1 NSing=     1 JSym2X= 2.
 CoulSu:  requested number of processors reduced to:  20 ShMem   1 Linda.
 NMat=     1 NSing=     1 JSym2X= 2.
 CoulSu:  requested number of processors reduced to:  20 ShMem   1 Linda.
 NMat=     1 NSing=     1 JSym2X= 2.
 CoulSu:  requested number of processors reduced to:  20 ShMem   1 Linda.
 Root      1 not converged, maximum delta is    0.005042623228692
 Excitation Energies [eV] at current iteration:
 Root      1 :     2.162525323319719   Change is   -0.001934614536418
 Root      2 :     4.831893076010675   Change is   -0.240542371974847
 Root      3 :     5.608093888547764   Change is   -0.009061590505921
 Iteration     5 Dimension    33 NMult    30 NNew      3
 Estimated number of processors is:   19
 CISAX will form     1 AO SS matrices at one time.
 NMat=     1 NSing=     1 JSym2X= 2.
 CoulSu:  requested number of processors reduced to:  20 ShMem   1 Linda.
 NMat=     1 NSing=     1 JSym2X= 2.
 CoulSu:  requested number of processors reduced to:  20 ShMem   1 Linda.
 NMat=     1 NSing=     1 JSym2X= 2.
 CoulSu:  requested number of processors reduced to:  20 ShMem   1 Linda.
 Root      1 not converged, maximum delta is    0.002228544897778
 Excitation Energies [eV] at current iteration:
 Root      1 :     2.162360710202943   Change is   -0.000164613116776
 Root      2 :     4.576644060796519   Change is   -0.255249015214156
 Root      3 :     5.596566594933116   Change is   -0.011527293614648
 Iteration     6 Dimension    36 NMult    33 NNew      3
 Estimated number of processors is:   19
 CISAX will form     1 AO SS matrices at one time.
 NMat=     1 NSing=     1 JSym2X= 2.
 CoulSu:  requested number of processors reduced to:  20 ShMem   1 Linda.
 NMat=     1 NSing=     1 JSym2X= 2.
 CoulSu:  requested number of processors reduced to:  20 ShMem   1 Linda.
 NMat=     1 NSing=     1 JSym2X= 2.
 CoulSu:  requested number of processors reduced to:  20 ShMem   1 Linda.
 Root      1 has converged.
 Excitation Energies [eV] at current iteration:
 Root      1 :     2.162354733395764   Change is   -0.000005976807179
 Root      2 :     4.541326155667160   Change is   -0.035317905129359
 Root      3 :     5.592850052332714   Change is   -0.003716542600402
 Convergence achieved on expansion vectors.
 ***********************************************************************
 Stability analysis using <AA,BB:AA,BB> singles matrix:
 ***********************************************************************
 1PDM for each excited state written to RWF  633
 Ground to excited state transition densities written to RWF  633

 Eigenvectors of the stability matrix:
 
 Eigenvector   1:  2.011-A"   Eigenvalue= 0.0794651  <S**2>=0.761
      8A ->  9A        0.97791
      8A -> 13A       -0.10401
 The wavefunction is stable under the perturbations considered.
 Leave Link  914 at Sat Apr 17 13:33:16 2021, MaxMem=   104857600 cpu:            4821.1 elap:             117.3
 (Enter /s/ls4/users/knvvv/bin/g16sse/l508.exe)
 The wavefunction is already stable.
 Leave Link  508 at Sat Apr 17 13:33:16 2021, MaxMem=   104857600 cpu:               2.2 elap:               0.1
 (Enter /s/ls4/users/knvvv/bin/g16sse/l601.exe)
 Copying SCF densities to generalized density rwf, IOpCl= 1 IROHF=0.

 **********************************************************************

            Population analysis using the SCF density.

 **********************************************************************

 Orbital symmetries:
 Alpha Orbitals:
       Occupied  (A') (A') (A') (A') (A') (A') (A") (A')
       Virtual   (A") (A') (A') (A') (A") (A') (A') (A") (A') (A')
                 (A") (A') (A') (A") (A") (A') (A') (A') (A') (A")
                 (A') (A") (A') (A') (A') (A') (A") (A") (A') (A')
                 (A') (A") (A') (A') (A') (A") (A") (A') (A') (A')
                 (A') (A') (A") (A") (A') (A') (A') (A") (A') (A")
                 (A') (A") (A') (A") (A') (A') (A") (A') (A') (A')
                 (A") (A') (A') (A") (A") (A') (A') (A') (A") (A")
                 (A') (A') (A') (A') (A") (A') (A") (A') (A") (A')
                 (A") (A') (A') (A") (A') (A') (A') (A") (A') (A')
                 (A") (A') (A") (A") (A') (A") (A') (A") (A') (A")
                 (A') (A') (A') (A") (A') (A") (A') (A") (A') (A')
                 (A') (A") (A') (A') (A") (A') (A") (A') (A") (A')
                 (A') (A") (A') (A") (A') (A') (A") (A') (A') (A")
                 (A') (A') (A") (A") (A') (A') (A") (A') (A") (A')
                 (A") (A') (A') (A') (A") (A') (A") (A') (A') (A')
                 (A') (A') (A') (A')
 Beta  Orbitals:
       Occupied  (A') (A') (A') (A') (A') (A") (A')
       Virtual   (A') (A") (A') (A') (A') (A") (A') (A') (A") (A')
                 (A") (A') (A') (A') (A") (A") (A') (A') (A') (A')
                 (A") (A') (A") (A') (A') (A') (A') (A") (A") (A')
                 (A') (A') (A") (A') (A') (A') (A") (A') (A") (A')
                 (A') (A') (A') (A") (A") (A') (A') (A') (A") (A')
                 (A") (A') (A") (A') (A") (A') (A') (A") (A') (A')
                 (A') (A") (A') (A') (A") (A") (A') (A') (A') (A")
                 (A") (A') (A') (A') (A') (A") (A') (A") (A') (A")
                 (A') (A") (A') (A') (A") (A') (A') (A') (A") (A')
                 (A') (A") (A') (A") (A") (A') (A") (A') (A") (A')
                 (A") (A') (A') (A") (A') (A') (A") (A') (A') (A")
                 (A') (A') (A") (A') (A') (A") (A') (A") (A') (A")
                 (A') (A') (A") (A') (A") (A') (A") (A') (A') (A')
                 (A") (A') (A') (A") (A") (A') (A') (A') (A") (A")
                 (A') (A") (A') (A') (A') (A") (A') (A") (A') (A')
                 (A') (A') (A') (A') (A')
 The electronic state is 2-A'.
 Alpha  occ. eigenvalues --  -19.69855 -10.65311  -1.24077  -0.71534  -0.59508
 Alpha  occ. eigenvalues --   -0.52919  -0.51587  -0.28465
 Alpha virt. eigenvalues --   -0.01153   0.01162   0.05069   0.05490   0.05717
 Alpha virt. eigenvalues --    0.11449   0.14075   0.17074   0.17753   0.19520
 Alpha virt. eigenvalues --    0.19888   0.24006   0.25562   0.25710   0.27083
 Alpha virt. eigenvalues --    0.27312   0.29564   0.31264   0.36570   0.41753
 Alpha virt. eigenvalues --    0.41861   0.44432   0.45863   0.48113   0.50381
 Alpha virt. eigenvalues --    0.60786   0.61116   0.62673   0.63393   0.67715
 Alpha virt. eigenvalues --    0.69100   0.72236   0.81241   0.85019   0.90755
 Alpha virt. eigenvalues --    0.92259   0.95748   0.96855   1.06961   1.14270
 Alpha virt. eigenvalues --    1.17646   1.25801   1.38487   1.41795   1.44593
 Alpha virt. eigenvalues --    1.50725   1.63085   1.64806   1.71032   1.71908
 Alpha virt. eigenvalues --    1.86184   1.86971   1.94121   2.00220   2.00407
 Alpha virt. eigenvalues --    2.03699   2.06656   2.12487   2.18020   2.25658
 Alpha virt. eigenvalues --    2.30904   2.32933   2.41974   2.44393   2.53065
 Alpha virt. eigenvalues --    2.54125   2.73234   2.87461   2.88086   3.13251
 Alpha virt. eigenvalues --    3.16140   3.21230   3.33742   3.38823   3.48358
 Alpha virt. eigenvalues --    3.66152   3.71716   3.78747   3.92295   4.02451
 Alpha virt. eigenvalues --    4.05370   4.06307   4.23878   4.45037   4.52298
 Alpha virt. eigenvalues --    4.60804   4.71611   4.72355   4.85127   5.07267
 Alpha virt. eigenvalues --    5.10336   5.28367   5.32503   5.37189   5.47550
 Alpha virt. eigenvalues --    5.56333   5.58119   5.64870   5.74157   5.78554
 Alpha virt. eigenvalues --    5.79113   5.87931   5.96919   5.97713   6.03950
 Alpha virt. eigenvalues --    6.07585   6.12183   6.40586   6.41200   6.68329
 Alpha virt. eigenvalues --    6.92726   7.10444   7.11832   7.25958   7.29046
 Alpha virt. eigenvalues --    7.40526   7.50006   7.61188   7.79255   7.80281
 Alpha virt. eigenvalues --    8.07928   8.23191   8.48311   8.74246   8.75554
 Alpha virt. eigenvalues --    8.90227   8.90475   9.19262   9.31568   9.47430
 Alpha virt. eigenvalues --    9.58245   9.84383   9.88676  10.13982  10.27866
 Alpha virt. eigenvalues --   10.43953  10.82749  10.82956  11.18534  11.21871
 Alpha virt. eigenvalues --   11.61052  11.68320  11.72818  11.87549  12.02885
 Alpha virt. eigenvalues --   12.09480  13.09311  13.26950  13.78531  14.24727
 Alpha virt. eigenvalues --   28.17198  47.98617 145.60279 251.05879
  Beta  occ. eigenvalues --  -19.69131 -10.64581  -1.21974  -0.68250  -0.56308
  Beta  occ. eigenvalues --   -0.50431  -0.46674
  Beta virt. eigenvalues --   -0.04882  -0.00013   0.01734   0.05103   0.06188
  Beta virt. eigenvalues --    0.06293   0.10875   0.13737   0.15487   0.15737
  Beta virt. eigenvalues --    0.18380   0.19488   0.22687   0.24030   0.25152
  Beta virt. eigenvalues --    0.26262   0.27416   0.29455   0.30281   0.37466
  Beta virt. eigenvalues --    0.41454   0.41945   0.43960   0.46301   0.47862
  Beta virt. eigenvalues --    0.50204   0.60896   0.61474   0.62629   0.63578
  Beta virt. eigenvalues --    0.67340   0.68271   0.71602   0.79836   0.85812
  Beta virt. eigenvalues --    0.89931   0.90923   0.95717   0.96170   1.05331
  Beta virt. eigenvalues --    1.12674   1.17417   1.23586   1.38650   1.41786
  Beta virt. eigenvalues --    1.44157   1.50838   1.63235   1.64866   1.71437
  Beta virt. eigenvalues --    1.71560   1.85727   1.87604   1.95109   1.99302
  Beta virt. eigenvalues --    1.99826   2.04288   2.06609   2.12277   2.17458
  Beta virt. eigenvalues --    2.24702   2.30408   2.32780   2.41680   2.43649
  Beta virt. eigenvalues --    2.51489   2.53098   2.71418   2.85986   2.87574
  Beta virt. eigenvalues --    3.13263   3.16391   3.21504   3.32405   3.39444
  Beta virt. eigenvalues --    3.46611   3.68342   3.71445   3.78534   3.92281
  Beta virt. eigenvalues --    4.03508   4.05983   4.08292   4.23184   4.45189
  Beta virt. eigenvalues --    4.52611   4.61872   4.73529   4.75507   4.86376
  Beta virt. eigenvalues --    5.10230   5.10801   5.32070   5.36451   5.38943
  Beta virt. eigenvalues --    5.52374   5.62494   5.65519   5.70525   5.75822
  Beta virt. eigenvalues --    5.88775   5.89152   5.92974   5.98784   6.03747
  Beta virt. eigenvalues --    6.09446   6.14489   6.19788   6.44177   6.45788
  Beta virt. eigenvalues --    6.71625   7.00474   7.10748   7.19277   7.27869
  Beta virt. eigenvalues --    7.34440   7.43630   7.52690   7.62848   7.80681
  Beta virt. eigenvalues --    7.83913   8.11698   8.32317   8.56795   8.74886
  Beta virt. eigenvalues --    8.76116   8.91120   8.92319   9.22752   9.38754
  Beta virt. eigenvalues --    9.50962   9.62155   9.83388   9.88592  10.13800
  Beta virt. eigenvalues --   10.29800  10.47067  10.85087  10.85115  11.19640
  Beta virt. eigenvalues --   11.23035  11.59745  11.68792  11.75924  11.99942
  Beta virt. eigenvalues --   12.05349  12.11960  13.10117  13.29754  13.82476
  Beta virt. eigenvalues --   14.26524  28.28543  47.98694 145.62154 251.04047
          Condensed to atoms (all electrons):
               1          2          3
     1  O    8.083051   0.361162  -0.029538
     2  C    0.361162   5.029069   0.387859
     3  H   -0.029538   0.387859   0.448915
          Atomic-Atomic Spin Densities.
               1          2          3
     1  O    0.377588  -0.129062  -0.027133
     2  C   -0.129062   0.793945   0.010758
     3  H   -0.027133   0.010758   0.119340
 Mulliken charges and spin densities:
               1          2
     1  O   -0.414674   0.221394
     2  C    0.221910   0.675641
     3  H    0.192764   0.102965
 Sum of Mulliken charges =  -0.00000   1.00000
 Mulliken charges and spin densities with hydrogens summed into heavy atoms:
               1          2
     1  O   -0.414674   0.221394
     2  C    0.414674   0.778606
 Electronic spatial extent (au):  <R**2>=             50.8894
 Charge=             -0.0000 electrons
 Dipole moment (field-independent basis, Debye):
    X=             -1.0129    Y=              1.4443    Z=              0.0000  Tot=              1.7641
 Quadrupole moment (field-independent basis, Debye-Ang):
   XX=            -11.4883   YY=            -11.5625   ZZ=            -11.0484
   XY=             -1.2289   XZ=              0.0000   YZ=              0.0000
 Traceless Quadrupole moment (field-independent basis, Debye-Ang):
   XX=             -0.1219   YY=             -0.1961   ZZ=              0.3180
   XY=             -1.2289   XZ=              0.0000   YZ=              0.0000
 Octapole moment (field-independent basis, Debye-Ang**2):
  XXX=             -1.3410  YYY=             -2.3332  ZZZ=              0.0000  XYY=             -1.8730
  XXY=             -0.7719  XXZ=              0.0000  XZZ=             -0.2586  YZZ=             -0.8695
  YYZ=              0.0000  XYZ=              0.0000
 Hexadecapole moment (field-independent basis, Debye-Ang**3):
 XXXX=            -15.5388 YYYY=            -40.5654 ZZZZ=            -10.1184 XXXY=              0.7945
 XXXZ=              0.0000 YYYX=             -0.4001 YYYZ=              0.0000 ZZZX=              0.0000
 ZZZY=              0.0000 XXYY=             -9.2263 XXZZ=             -4.3794 YYZZ=             -8.3948
 XXYZ=              0.0000 YYXZ=              0.0000 ZZXY=              0.5053
 N-N= 2.647103909008D+01 E-N=-3.204325457401D+02  KE= 1.134407282579D+02
                          Isotropic Fermi Contact Couplings
        Atom                 a.u.       MegaHertz       Gauss      10(-4) cm-1
     1  O(17)              0.06383     -38.69506     -13.80736     -12.90728
     2  C(13)              0.38827     436.49002     155.75049     145.59740
     3  H(1)               0.08507     380.24809     135.68198     126.83711
 PrsmSu:  requested number of processors reduced to:  21 ShMem   1 Linda.
 --------------------------------------------------------
       Center         ----  Spin Dipole Couplings  ----
                      3XX-RR        3YY-RR        3ZZ-RR
 --------------------------------------------------------
     1   Atom        1.491502     -0.637706     -0.853797
     2   Atom        0.427366     -0.117777     -0.309589
     3   Atom        0.016126      0.018256     -0.034382
 --------------------------------------------------------
                        XY            XZ            YZ
 --------------------------------------------------------
     1   Atom        0.465914      0.000000      0.000000
     2   Atom        0.426931      0.000000      0.000000
     3   Atom       -0.039098      0.000000      0.000000
 --------------------------------------------------------


 ---------------------------------------------------------------------------------
              Anisotropic Spin Dipole Couplings in Principal Axis System
 ---------------------------------------------------------------------------------

       Atom             a.u.   MegaHertz   Gauss  10(-4) cm-1        Axes

              Baa    -0.8538    61.780    22.045    20.608  0.0000  0.0000  1.0000
     1 O(17)  Bbb    -0.7352    53.198    18.982    17.745 -0.2048  0.9788 -0.0000
              Bcc     1.5890  -114.978   -41.027   -38.353  0.9788  0.2048  0.0000
 
              Baa    -0.3517   -47.199   -16.842   -15.744 -0.4806  0.8770 -0.0000
     2 C(13)  Bbb    -0.3096   -41.544   -14.824   -13.858  0.0000  0.0000  1.0000
              Bcc     0.6613    88.742    31.666    29.601  0.8770  0.4806  0.0000
 
              Baa    -0.0344   -18.344    -6.546    -6.119  0.0000  0.0000  1.0000
     3 H(1)   Bbb    -0.0219   -11.697    -4.174    -3.902  0.7167  0.6974  0.0000
              Bcc     0.0563    30.041    10.719    10.021 -0.6974  0.7167  0.0000
 

 ---------------------------------------------------------------------------------

 PrsmSu:  requested number of processors reduced to:  21 ShMem   1 Linda.
 No NMR shielding tensors so no spin-rotation constants.
 Leave Link  601 at Sat Apr 17 13:33:19 2021, MaxMem=   104857600 cpu:             131.3 elap:               3.0
 (Enter /s/ls4/users/knvvv/bin/g16sse/l9999.exe)

 Test job not archived.
 1\1\GINC-N156\Stability\UM062X\Gen\C1H1O1(2)\KNVVV\17-Apr-2021\0\\#P M
 062X/GEN Integral=UltraFineGrid SCF=NoSymm Stable=(RExt, Opt) IOp(1/33
 =1)\\Database calculations.\\0,2\O,0,0.,0.,0.\C,0,0.,0.,1.17848684\H,0
 ,0.9232793002,0.,1.8118709767\\Version=ES64L-G16RevA.03\State=2-A'\HF=
 -113.8593346\S2=0.754101\S2-1=0.\S2A=0.75001\RMSD=4.374e-09\Dipole=0.3
 98505,0.,0.5682493\Quadrupole=-0.0906049,0.2364095,-0.1458046,0.,0.913
 6221,0.\PG=CS [SG(C1H1O1)]\\@


 A MAN IS EXACTLY AS GREAT AS THE TIDE SURGING
 BENEATH HIM.      - BISMARCK
 Job cpu time:       0 days  1 hours 47 minutes 47.2 seconds.
 Elapsed time:       0 days  0 hours  2 minutes 38.4 seconds.
 File lengths (MBytes):  RWF=     93 Int=      0 D2E=      0 Chk=      4 Scr=      1
 Normal termination of Gaussian 16 at Sat Apr 17 13:33:20 2021.
