 Entering Gaussian System, Link 0=/s/ls4/users/knvvv/bin/g16sse/g16
 Input=data/database/M062X--def2-QZVP--G21EA_EA_10.gjf
 Output=data/database/M062X--def2-QZVP--G21EA_EA_10.log
 Initial command:
 /s/ls4/users/knvvv/bin/g16sse/l1.exe "/s/ls4/users/knvvv/bin/scratch/Gau-8157.inp" -scrdir="/s/ls4/users/knvvv/bin/scratch/"
 Entering Link 1 = /s/ls4/users/knvvv/bin/g16sse/l1.exe PID=      8158.
  
 Copyright (c) 1988,1990,1992,1993,1995,1998,2003,2009,2016,
            Gaussian, Inc.  All Rights Reserved.
  
 This is part of the Gaussian(R) 16 program.  It is based on
 the Gaussian(R) 09 system (copyright 2009, Gaussian, Inc.),
 the Gaussian(R) 03 system (copyright 2003, Gaussian, Inc.),
 the Gaussian(R) 98 system (copyright 1998, Gaussian, Inc.),
 the Gaussian(R) 94 system (copyright 1995, Gaussian, Inc.),
 the Gaussian 92(TM) system (copyright 1992, Gaussian, Inc.),
 the Gaussian 90(TM) system (copyright 1990, Gaussian, Inc.),
 the Gaussian 88(TM) system (copyright 1988, Gaussian, Inc.),
 the Gaussian 86(TM) system (copyright 1986, Carnegie Mellon
 University), and the Gaussian 82(TM) system (copyright 1983,
 Carnegie Mellon University). Gaussian is a federally registered
 trademark of Gaussian, Inc.
  
 This software contains proprietary and confidential information,
 including trade secrets, belonging to Gaussian, Inc.
  
 This software is provided under written license and may be
 used, copied, transmitted, or stored only in accord with that
 written license.
  
 The following legend is applicable only to US Government
 contracts under FAR:
  
                    RESTRICTED RIGHTS LEGEND
  
 Use, reproduction and disclosure by the US Government is
 subject to restrictions as set forth in subparagraphs (a)
 and (c) of the Commercial Computer Software - Restricted
 Rights clause in FAR 52.227-19.
  
 Gaussian, Inc.
 340 Quinnipiac St., Bldg. 40, Wallingford CT 06492
  
  
 ---------------------------------------------------------------
 Warning -- This program may not be used in any manner that
 competes with the business of Gaussian, Inc. or will provide
 assistance to any competitor of Gaussian, Inc.  The licensee
 of this program is prohibited from giving any competitor of
 Gaussian, Inc. access to this program.  By using this program,
 the user acknowledges that Gaussian, Inc. is engaged in the
 business of creating and licensing software in the field of
 computational chemistry and represents and warrants to the
 licensee that it is not a competitor of Gaussian, Inc. and that
 it will not use this program in any manner prohibited above.
 ---------------------------------------------------------------
  

 Cite this work as:
 Gaussian 16, Revision A.03,
 M. J. Frisch, G. W. Trucks, H. B. Schlegel, G. E. Scuseria, 
 M. A. Robb, J. R. Cheeseman, G. Scalmani, V. Barone, 
 G. A. Petersson, H. Nakatsuji, X. Li, M. Caricato, A. V. Marenich, 
 J. Bloino, B. G. Janesko, R. Gomperts, B. Mennucci, H. P. Hratchian, 
 J. V. Ortiz, A. F. Izmaylov, J. L. Sonnenberg, D. Williams-Young, 
 F. Ding, F. Lipparini, F. Egidi, J. Goings, B. Peng, A. Petrone, 
 T. Henderson, D. Ranasinghe, V. G. Zakrzewski, J. Gao, N. Rega, 
 G. Zheng, W. Liang, M. Hada, M. Ehara, K. Toyota, R. Fukuda, 
 J. Hasegawa, M. Ishida, T. Nakajima, Y. Honda, O. Kitao, H. Nakai, 
 T. Vreven, K. Throssell, J. A. Montgomery, Jr., J. E. Peralta, 
 F. Ogliaro, M. J. Bearpark, J. J. Heyd, E. N. Brothers, K. N. Kudin, 
 V. N. Staroverov, T. A. Keith, R. Kobayashi, J. Normand, 
 K. Raghavachari, A. P. Rendell, J. C. Burant, S. S. Iyengar, 
 J. Tomasi, M. Cossi, J. M. Millam, M. Klene, C. Adamo, R. Cammi, 
 J. W. Ochterski, R. L. Martin, K. Morokuma, O. Farkas, 
 J. B. Foresman, and D. J. Fox, Gaussian, Inc., Wallingford CT, 2016.
 
 ******************************************
 Gaussian 16:  ES64L-G16RevA.03 25-Dec-2016
                17-Apr-2021 
 ******************************************
 %RWF=temp0_8364,70GB
 %nprocshared=48
 Will use up to   48 processors via shared memory.
 Default route: MaxDisk=80GB
 ----------------------------------------------------------------------
 #P M062X/Def2QZVP Integral=UltraFineGrid SCF=NoSymm Stable=(RExt, Opt)
  IOp(1/33=1)
 ----------------------------------------------------------------------
 1/33=1,38=1,172=1/1;
 2/12=2,17=6,18=5,40=1/2;
 3/5=45,7=101,11=2,25=1,30=1,74=-55,75=-5/1,2,3;
 4/9=2/1;
 5/5=2,38=5/2;
 6/7=2,8=2,9=2,10=2,28=1/1;
 8/6=1,10=90,11=11/1;
 9/8=-3,42=1,46=1/14;
 5/5=2,8=3,17=40,38=5/8(-2);
 6/7=2,8=2,9=2,10=2,28=1/1;
 99/5=1,9=1/99;
 Leave Link    1 at Sat Apr 17 00:04:57 2021, MaxMem=           0 cpu:              11.2 elap:               0.3
 (Enter /s/ls4/users/knvvv/bin/g16sse/l101.exe)
 ONIOM data not found on unit 2.
 ----------------------
 Database calculations.
 ----------------------
 TstMul:  ICh=    -1
 TstMul:  Mul=     1
 TstMul:  ICh=    -1
 TstMul:  Mul=     1
 Symbolic Z-matrix:
 Charge = -1 Multiplicity = 1
 C                     0.        0.       -0.34382 
 H                     0.50698  -0.87812   0.11461 
 H                     0.50698   0.87812   0.11461 
 H                    -1.01396   0.        0.11461 
 
 RdStrC is calling ZToCFu for IStruc=1 NZ=     4.
 PrtBox:  NBox=     1 Levels=  1 BoxLen=    8.00 SMaxX=        3.32
          Shift=            1.916108            1.659398            0.649719
 Box      1 Number                   0 centers from      1 to      4:
 After GenITR:
 ITRead=  0  0  0  0
 MicOpt= -1 -1 -1 -1
 ITRead=  0  0  0  0
 MicOpt= -1 -1 -1 -1
 NAtoms=      4 NQM=        4 NQMF=       0 NMMI=      0 NMMIF=      0
                NMic=       0 NMicF=      0.
                    Isotopes and Nuclear Properties:
 (Nuclear quadrupole moments (NQMom) in fm**2, nuclear magnetic moments (NMagM)
  in nuclear magnetons)

  Atom         1           2           3           4
 IAtWgt=          12           1           1           1
 AtmWgt=  12.0000000   1.0078250   1.0078250   1.0078250
 NucSpn=           0           1           1           1
 AtZEff=  -0.0000000  -0.0000000  -0.0000000  -0.0000000
 NQMom=    0.0000000   0.0000000   0.0000000   0.0000000
 NMagM=    0.0000000   2.7928460   2.7928460   2.7928460
 AtZNuc=   6.0000000   1.0000000   1.0000000   1.0000000
 No MM parameters found.
 Leave Link  101 at Sat Apr 17 00:04:58 2021, MaxMem=   104857600 cpu:               8.5 elap:               0.2
 (Enter /s/ls4/users/knvvv/bin/g16sse/l202.exe)
                          Input orientation:                          
 ---------------------------------------------------------------------
 Center     Atomic      Atomic             Coordinates (Angstroms)
 Number     Number       Type             X           Y           Z
 ---------------------------------------------------------------------
      1          6           0        0.000000    0.000000   -0.343816
      2          1           0        0.506980   -0.878116    0.114605
      3          1           0        0.506980    0.878116    0.114605
      4          1           0       -1.013961    0.000000    0.114605
 ---------------------------------------------------------------------
                    Distance matrix (angstroms):
                    1          2          3          4
     1  C    0.000000
     2  H    1.112774   0.000000
     3  H    1.112774   1.756231   0.000000
     4  H    1.112774   1.756231   1.756231   0.000000
 Stoichiometry    CH3(1-)
 Framework group  C3V[C3(C),3SGV(H)]
 Deg. of freedom     2
 Full point group                 C3V     NOp   6
 Largest Abelian subgroup         CS      NOp   2
 Largest concise Abelian subgroup CS      NOp   2
                         Standard orientation:                         
 ---------------------------------------------------------------------
 Center     Atomic      Atomic             Coordinates (Angstroms)
 Number     Number       Type             X           Y           Z
 ---------------------------------------------------------------------
      1          6           0        0.000000    0.000000    0.152807
      2          1           0        0.000000    1.013961   -0.305615
      3          1           0        0.878116   -0.506980   -0.305615
      4          1           0       -0.878116   -0.506980   -0.305615
 ---------------------------------------------------------------------
 Rotational constants (GHZ):         245.1206843         245.1206843         162.5805342
 Leave Link  202 at Sat Apr 17 00:04:58 2021, MaxMem=   104857600 cpu:               7.0 elap:               0.2
 (Enter /s/ls4/users/knvvv/bin/g16sse/l301.exe)
 Standard basis: def2QZVP (5D, 7F)
 Ernie: Thresh=  0.10000D-02 Tol=  0.10000D-05 Strict=F.
 There are   107 symmetry adapted cartesian basis functions of A'  symmetry.
 There are    70 symmetry adapted cartesian basis functions of A"  symmetry.
 There are    87 symmetry adapted basis functions of A'  symmetry.
 There are    60 symmetry adapted basis functions of A"  symmetry.
   147 basis functions,   206 primitive gaussians,   177 cartesian basis functions
     5 alpha electrons        5 beta electrons
       nuclear repulsion energy         9.4637990075 Hartrees.
 IExCor= 4336 DFT=T Ex+Corr=M062X ExCW=0 ScaHFX=  0.540000
 ScaDFX=  1.000000  1.000000  1.000000  1.000000 ScalE2=  1.000000  1.000000
 IRadAn=      5 IRanWt=     -1 IRanGd=            0 ICorTp=0 IEmpDi=  4
 NAtoms=    4 NActive=    4 NUniq=    2 SFac= 4.00D+00 NAtFMM=   60 NAOKFM=F Big=F
 Integral buffers will be    131072 words long.
 Raffenetti 2 integral format.
 Two-electron integral symmetry is turned on.
 Leave Link  301 at Sat Apr 17 00:04:58 2021, MaxMem=   104857600 cpu:               4.5 elap:               0.1
 (Enter /s/ls4/users/knvvv/bin/g16sse/l302.exe)
 NPDir=0 NMtPBC=     1 NCelOv=     1 NCel=       1 NClECP=     1 NCelD=      1
         NCelK=      1 NCelE2=     1 NClLst=     1 CellRange=     0.0.
 One-electron integrals computed using PRISM.
 One-electron integral symmetry used in STVInt
 PrsmSu:  requested number of processors reduced to:   4 ShMem   1 Linda.
 PrsmSu:  requested number of processors reduced to:  21 ShMem   1 Linda.
   6 Symmetry operations used in ECPInt.
 ECPInt:  NShTT=    1128 NPrTT=    2403 LenC2=    1129 LenP2D=    2316.
 LDataN:  DoStor=T MaxTD1= 8 Len=  415
 Number of processors reduced to  38 by ecpmxn.
 NBasis=   147 RedAO= T EigKep=  1.87D-04  NBF=    87    60
 NBsUse=   147 1.00D-06 EigRej= -1.00D+00 NBFU=    87    60
 Precomputing XC quadrature grid using
 IXCGrd= 4 IRadAn=           5 IRanWt=          -1 IRanGd=           0 AccXCQ= 0.00D+00.
 Generated NRdTot=       0 NPtTot=           0 NUsed=           0 NTot=          32
 NSgBfM=   177   177   177   177   177 MxSgAt=     4 MxSgA2=     4.
 Leave Link  302 at Sat Apr 17 00:05:08 2021, MaxMem=   104857600 cpu:             489.1 elap:              10.5
 (Enter /s/ls4/users/knvvv/bin/g16sse/l303.exe)
 DipDrv:  MaxL=1.
 Leave Link  303 at Sat Apr 17 00:05:09 2021, MaxMem=   104857600 cpu:              25.3 elap:               0.6
 (Enter /s/ls4/users/knvvv/bin/g16sse/l401.exe)
 SCF N**3 symmetry information disabled.
 ExpMin= 7.60D-02 ExpMax= 6.70D+04 ExpMxC= 6.47D+02 IAcc=3 IRadAn=         5 AccDes= 0.00D+00
 Harris functional with IExCor= 1009 and IRadAn=       5 diagonalized for initial guess.
 HarFok:  IExCor= 1009 AccDes= 0.00D+00 IRadAn=         5 IDoV= 1 UseB2=F ITyADJ=14
 ICtDFT=  3500011 ScaDFX=  1.000000  1.000000  1.000000  1.000000
 FoFCou: FMM=F IPFlag=           0 FMFlag=      100000 FMFlg1=           0
         NFxFlg=           0 DoJE=T BraDBF=F KetDBF=T FulRan=T
         wScrn=  0.000000 ICntrl=       500 IOpCl=  0 I1Cent=   200000004 NGrid=           0
         NMat0=    1 NMatS0=      1 NMatT0=    0 NMatD0=    1 NMtDS0=    0 NMtDT0=    0
 Petite list used in FoFCou.
 CoulSu:  requested number of processors reduced to:  21 ShMem   1 Linda.
 CoulSu:  requested number of processors reduced to:  21 ShMem   1 Linda.
 CoulSu:  requested number of processors reduced to:  21 ShMem   1 Linda.
 CoulSu:  requested number of processors reduced to:  21 ShMem   1 Linda.
 Harris En= -40.0732412388742    
 JPrj=0 DoOrth=F DoCkMO=F.
 Initial guess orbital symmetries:
       Occupied  (A1) (A1) (E) (E) (A1)
       Virtual   (A1) (E) (E) (E) (E) (A1) (A1) (E) (E) (A1) (E)
                 (E) (A1) (E) (E) (A2) (E) (E) (A1) (E) (E) (A1)
                 (E) (E) (A1) (A1) (E) (E) (E) (E) (E) (E) (A1)
                 (A1) (A2) (E) (E) (E) (E) (A1) (E) (E) (A2) (A1)
                 (E) (E) (E) (E) (A1) (E) (E) (A1) (E) (E) (E)
                 (E) (A2) (A1) (E) (E) (A2) (A1) (A1) (E) (E) (A1)
                 (E) (E) (E) (E) (E) (E) (A1) (E) (E) (A2) (E)
                 (E) (A1) (E) (E) (A1) (E) (E) (A2) (E) (E) (A1)
                 (A2) (E) (E) (A1) (E) (E) (A1) (E) (E) (A1) (A2)
                 (E) (E) (A1) (E) (E) (A1) (E) (E) (A2) (E) (E)
                 (A1) (E) (E) (A1) (E) (E) (A1) (E) (E) (A2) (E)
                 (E) (A1) (E) (E) (E) (E) (A2) (E) (E) (A1) (E)
                 (E) (A1) (E) (E) (A2) (E) (E) (A1) (A1) (A1)
 The electronic state of the initial guess is 1-A1.
 Leave Link  401 at Sat Apr 17 00:05:15 2021, MaxMem=   104857600 cpu:             254.5 elap:               5.6
 (Enter /s/ls4/users/knvvv/bin/g16sse/l502.exe)
 Integral symmetry usage will be decided dynamically.
 Closed shell SCF:
 Using DIIS extrapolation, IDIIS=  1040.
 NGot=   104857600 LenX=   104784343 LenY=   104752573
 Requested convergence on RMS density matrix=1.00D-08 within 128 cycles.
 Requested convergence on MAX density matrix=1.00D-06.
 Requested convergence on             energy=1.00D-06.
 No special actions if energy rises.
 Fock matrices will be formed incrementally for  20 cycles.
 Integral accuracy reduced to 1.0D-05 until final iterations.

 Cycle   1  Pass 0  IDiag  1:
 FoFJK:  IHMeth= 1 ICntrl=       0 DoSepK=F KAlg= 0 I1Cent=           0 FoldK=F
 IRaf= 990000000 NMat=       1 IRICut=       1 DoRegI=T DoRafI=F ISym2E= 1 IDoP0=0 IntGTp=1.
 FoFCou: FMM=F IPFlag=           0 FMFlag=      100000 FMFlg1=           0
         NFxFlg=           0 DoJE=F BraDBF=F KetDBF=F FulRan=T
         wScrn=  0.000000 ICntrl=         0 IOpCl=  0 I1Cent=           0 NGrid=           0
         NMat0=    1 NMatS0=      1 NMatT0=    0 NMatD0=    1 NMtDS0=    0 NMtDT0=    0
 Petite list used in FoFCou.
 CoulSu:  requested number of processors reduced to:  21 ShMem   1 Linda.
 E= -39.5857244620172    
 DIIS: error= 7.20D-02 at cycle   1 NSaved=   1.
 NSaved= 1 IEnMin= 1 EnMin= -39.5857244620172     IErMin= 1 ErrMin= 7.20D-02
 ErrMax= 7.20D-02  0.00D+00 EMaxC= 1.00D-01 BMatC= 2.16D-01 BMatP= 2.16D-01
 IDIUse=3 WtCom= 2.80D-01 WtEn= 7.20D-01
 Coeff-Com:  0.100D+01
 Coeff-En:   0.100D+01
 Coeff:      0.100D+01
 Gap=     0.033 Goal=   None    Shift=    0.000
 GapD=    0.033 DampG=0.250 DampE=0.500 DampFc=0.2500 IDamp=-1.
 Damping current iteration by 2.50D-01
 RMSDP=8.59D-03 MaxDP=5.90D-01              OVMax= 5.09D-01

 Cycle   2  Pass 0  IDiag  1:
 RMSU=  2.13D-03    CP:  9.61D-01
 CoulSu:  requested number of processors reduced to:  21 ShMem   1 Linda.
 E= -39.6736261930506     Delta-E=       -0.087901731033 Rises=F Damp=T
 DIIS: error= 3.11D-02 at cycle   2 NSaved=   2.
 NSaved= 2 IEnMin= 2 EnMin= -39.6736261930506     IErMin= 2 ErrMin= 3.11D-02
 ErrMax= 3.11D-02  0.00D+00 EMaxC= 1.00D-01 BMatC= 5.22D-02 BMatP= 2.16D-01
 IDIUse=3 WtCom= 6.89D-01 WtEn= 3.11D-01
 Coeff-Com: -0.821D+00 0.182D+01
 Coeff-En:   0.000D+00 0.100D+01
 Coeff:     -0.565D+00 0.157D+01
 Gap=     0.191 Goal=   None    Shift=    0.000
 RMSDP=1.82D-03 MaxDP=7.15D-02 DE=-8.79D-02 OVMax= 2.52D-01

 Cycle   3  Pass 0  IDiag  1:
 RMSU=  1.66D-03    CP:  9.50D-01  1.34D+00
 CoulSu:  requested number of processors reduced to:  21 ShMem   1 Linda.
 E= -39.8183433690383     Delta-E=       -0.144717175988 Rises=F Damp=F
 DIIS: error= 1.22D-02 at cycle   3 NSaved=   3.
 NSaved= 3 IEnMin= 3 EnMin= -39.8183433690383     IErMin= 3 ErrMin= 1.22D-02
 ErrMax= 1.22D-02  0.00D+00 EMaxC= 1.00D-01 BMatC= 5.91D-03 BMatP= 5.22D-02
 IDIUse=3 WtCom= 8.78D-01 WtEn= 1.22D-01
 Coeff-Com:  0.237D+00-0.192D+00 0.954D+00
 Coeff-En:   0.000D+00 0.000D+00 0.100D+01
 Coeff:      0.208D+00-0.168D+00 0.960D+00
 Gap=     0.222 Goal=   None    Shift=    0.000
 RMSDP=1.92D-03 MaxDP=1.68D-01 DE=-1.45D-01 OVMax= 4.15D-02

 Cycle   4  Pass 0  IDiag  1:
 RMSU=  1.41D-03    CP:  8.63D-01  8.51D-01  6.73D-01
 CoulSu:  requested number of processors reduced to:  21 ShMem   1 Linda.
 E= -39.8239313010382     Delta-E=       -0.005587932000 Rises=F Damp=F
 DIIS: error= 1.58D-03 at cycle   4 NSaved=   4.
 NSaved= 4 IEnMin= 4 EnMin= -39.8239313010382     IErMin= 4 ErrMin= 1.58D-03
 ErrMax= 1.58D-03  0.00D+00 EMaxC= 1.00D-01 BMatC= 1.34D-04 BMatP= 5.91D-03
 IDIUse=3 WtCom= 9.84D-01 WtEn= 1.58D-02
 Coeff-Com:  0.150D-01-0.412D-01 0.106D+00 0.921D+00
 Coeff-En:   0.000D+00 0.000D+00 0.000D+00 0.100D+01
 Coeff:      0.148D-01-0.406D-01 0.104D+00 0.922D+00
 Gap=     0.223 Goal=   None    Shift=    0.000
 RMSDP=2.26D-04 MaxDP=1.15D-02 DE=-5.59D-03 OVMax= 4.84D-03

 Cycle   5  Pass 0  IDiag  1:
 RMSU=  1.79D-04    CP:  8.61D-01  8.40D-01  7.54D-01  9.82D-01
 CoulSu:  requested number of processors reduced to:  21 ShMem   1 Linda.
 E= -39.8240489720207     Delta-E=       -0.000117670983 Rises=F Damp=F
 DIIS: error= 8.80D-05 at cycle   5 NSaved=   5.
 NSaved= 5 IEnMin= 5 EnMin= -39.8240489720207     IErMin= 5 ErrMin= 8.80D-05
 ErrMax= 8.80D-05  0.00D+00 EMaxC= 1.00D-01 BMatC= 5.62D-07 BMatP= 1.34D-04
 IDIUse=1 WtCom= 1.00D+00 WtEn= 0.00D+00
 Coeff-Com:  0.459D-02-0.697D-02 0.566D-02 0.245D-01 0.972D+00
 Coeff:      0.459D-02-0.697D-02 0.566D-02 0.245D-01 0.972D+00
 Gap=     0.224 Goal=   None    Shift=    0.000
 RMSDP=1.59D-05 MaxDP=6.63D-04 DE=-1.18D-04 OVMax= 5.06D-04

 Cycle   6  Pass 0  IDiag  1:
 RMSU=  7.84D-06    CP:  8.61D-01  8.36D-01  7.57D-01  9.81D-01  1.05D+00
 CoulSu:  requested number of processors reduced to:  21 ShMem   1 Linda.
 E= -39.8240495758674     Delta-E=       -0.000000603847 Rises=F Damp=F
 DIIS: error= 1.81D-05 at cycle   6 NSaved=   6.
 NSaved= 6 IEnMin= 6 EnMin= -39.8240495758674     IErMin= 6 ErrMin= 1.81D-05
 ErrMax= 1.81D-05  0.00D+00 EMaxC= 1.00D-01 BMatC= 2.19D-08 BMatP= 5.62D-07
 IDIUse=1 WtCom= 1.00D+00 WtEn= 0.00D+00
 Coeff-Com:  0.904D-03-0.113D-02 0.144D-02-0.130D-01 0.213D-01 0.990D+00
 Coeff:      0.904D-03-0.113D-02 0.144D-02-0.130D-01 0.213D-01 0.990D+00
 Gap=     0.224 Goal=   None    Shift=    0.000
 RMSDP=7.38D-06 MaxDP=5.49D-04 DE=-6.04D-07 OVMax= 1.16D-04

 Initial convergence to 1.0D-05 achieved.  Increase integral accuracy.
 Cycle   7  Pass 1  IDiag  1:
 CoulSu:  requested number of processors reduced to:  21 ShMem   1 Linda.
 E= -39.8240485151861     Delta-E=        0.000001060681 Rises=F Damp=F
 DIIS: error= 2.04D-05 at cycle   1 NSaved=   1.
 NSaved= 1 IEnMin= 1 EnMin= -39.8240485151861     IErMin= 1 ErrMin= 2.04D-05
 ErrMax= 2.04D-05  0.00D+00 EMaxC= 1.00D-01 BMatC= 4.83D-08 BMatP= 4.83D-08
 IDIUse=1 WtCom= 1.00D+00 WtEn= 0.00D+00
 Coeff-Com:  0.100D+01
 Coeff:      0.100D+01
 Gap=     0.224 Goal=   None    Shift=    0.000
 RMSDP=7.38D-06 MaxDP=5.49D-04 DE= 1.06D-06 OVMax= 3.50D-05

 Cycle   8  Pass 1  IDiag  1:
 RMSU=  3.31D-06    CP:  1.00D+00
 CoulSu:  requested number of processors reduced to:  21 ShMem   1 Linda.
 E= -39.8240485306673     Delta-E=       -0.000000015481 Rises=F Damp=F
 DIIS: error= 3.68D-06 at cycle   2 NSaved=   2.
 NSaved= 2 IEnMin= 2 EnMin= -39.8240485306673     IErMin= 2 ErrMin= 3.68D-06
 ErrMax= 3.68D-06  0.00D+00 EMaxC= 1.00D-01 BMatC= 7.57D-10 BMatP= 4.83D-08
 IDIUse=1 WtCom= 1.00D+00 WtEn= 0.00D+00
 Coeff-Com:  0.197D-01 0.980D+00
 Coeff:      0.197D-01 0.980D+00
 Gap=     0.224 Goal=   None    Shift=    0.000
 RMSDP=7.15D-07 MaxDP=4.04D-05 DE=-1.55D-08 OVMax= 2.94D-05

 Cycle   9  Pass 1  IDiag  1:
 RMSU=  5.80D-07    CP:  1.00D+00  1.12D+00
 CoulSu:  requested number of processors reduced to:  21 ShMem   1 Linda.
 E= -39.8240485308647     Delta-E=       -0.000000000197 Rises=F Damp=F
 DIIS: error= 4.36D-06 at cycle   3 NSaved=   3.
 NSaved= 3 IEnMin= 3 EnMin= -39.8240485308647     IErMin= 2 ErrMin= 3.68D-06
 ErrMax= 4.36D-06  0.00D+00 EMaxC= 1.00D-01 BMatC= 6.20D-10 BMatP= 7.57D-10
 IDIUse=1 WtCom= 1.00D+00 WtEn= 0.00D+00
 Coeff-Com: -0.868D-02 0.470D+00 0.539D+00
 Coeff:     -0.868D-02 0.470D+00 0.539D+00
 Gap=     0.224 Goal=   None    Shift=    0.000
 RMSDP=2.07D-07 MaxDP=1.17D-05 DE=-1.97D-10 OVMax= 1.06D-05

 Cycle  10  Pass 1  IDiag  1:
 RMSU=  1.90D-07    CP:  1.00D+00  1.14D+00  1.09D+00
 CoulSu:  requested number of processors reduced to:  21 ShMem   1 Linda.
 E= -39.8240485314818     Delta-E=       -0.000000000617 Rises=F Damp=F
 DIIS: error= 6.31D-07 at cycle   4 NSaved=   4.
 NSaved= 4 IEnMin= 4 EnMin= -39.8240485314818     IErMin= 4 ErrMin= 6.31D-07
 ErrMax= 6.31D-07  0.00D+00 EMaxC= 1.00D-01 BMatC= 1.79D-11 BMatP= 6.20D-10
 IDIUse=1 WtCom= 1.00D+00 WtEn= 0.00D+00
 Coeff-Com: -0.314D-02 0.125D-01 0.137D+00 0.854D+00
 Coeff:     -0.314D-02 0.125D-01 0.137D+00 0.854D+00
 Gap=     0.224 Goal=   None    Shift=    0.000
 RMSDP=1.32D-07 MaxDP=7.69D-06 DE=-6.17D-10 OVMax= 4.95D-06

 Cycle  11  Pass 1  IDiag  1:
 RMSU=  4.31D-08    CP:  1.00D+00  1.16D+00  1.27D+00  1.06D+00
 CoulSu:  requested number of processors reduced to:  21 ShMem   1 Linda.
 E= -39.8240485315124     Delta-E=       -0.000000000031 Rises=F Damp=F
 DIIS: error= 1.13D-07 at cycle   5 NSaved=   5.
 NSaved= 5 IEnMin= 5 EnMin= -39.8240485315124     IErMin= 5 ErrMin= 1.13D-07
 ErrMax= 1.13D-07  0.00D+00 EMaxC= 1.00D-01 BMatC= 9.39D-13 BMatP= 1.79D-11
 IDIUse=1 WtCom= 1.00D+00 WtEn= 0.00D+00
 Coeff-Com:  0.304D-03-0.274D-01-0.375D-01 0.468D-01 0.102D+01
 Coeff:      0.304D-03-0.274D-01-0.375D-01 0.468D-01 0.102D+01
 Gap=     0.224 Goal=   None    Shift=    0.000
 RMSDP=8.08D-08 MaxDP=4.35D-06 DE=-3.06D-11 OVMax= 2.10D-06

 Cycle  12  Pass 1  IDiag  1:
 RMSU=  1.59D-08    CP:  1.00D+00  1.18D+00  1.37D+00  1.16D+00  1.59D+00
 CoulSu:  requested number of processors reduced to:  21 ShMem   1 Linda.
 E= -39.8240485315166     Delta-E=       -0.000000000004 Rises=F Damp=F
 DIIS: error= 3.06D-08 at cycle   6 NSaved=   6.
 NSaved= 6 IEnMin= 6 EnMin= -39.8240485315166     IErMin= 6 ErrMin= 3.06D-08
 ErrMax= 3.06D-08  0.00D+00 EMaxC= 1.00D-01 BMatC= 6.71D-14 BMatP= 9.39D-13
 IDIUse=1 WtCom= 1.00D+00 WtEn= 0.00D+00
 Coeff-Com:  0.237D-03 0.400D-02-0.124D-01-0.893D-01-0.592D-01 0.116D+01
 Coeff:      0.237D-03 0.400D-02-0.124D-01-0.893D-01-0.592D-01 0.116D+01
 Gap=     0.224 Goal=   None    Shift=    0.000
 RMSDP=3.32D-08 MaxDP=1.76D-06 DE=-4.16D-12 OVMax= 9.71D-07

 Cycle  13  Pass 1  IDiag  1:
 RMSU=  1.45D-09    CP:  1.00D+00  1.18D+00  1.41D+00  1.19D+00  1.89D+00
                    CP:  1.42D+00
 CoulSu:  requested number of processors reduced to:  21 ShMem   1 Linda.
 E= -39.8240485315163     Delta-E=        0.000000000000 Rises=F Damp=F
 DIIS: error= 7.50D-09 at cycle   7 NSaved=   7.
 NSaved= 7 IEnMin= 6 EnMin= -39.8240485315166     IErMin= 7 ErrMin= 7.50D-09
 ErrMax= 7.50D-09  0.00D+00 EMaxC= 1.00D-01 BMatC= 2.89D-15 BMatP= 6.71D-14
 IDIUse=1 WtCom= 1.00D+00 WtEn= 0.00D+00
 Coeff-Com: -0.989D-04 0.164D-02 0.472D-02 0.143D-01-0.305D-01-0.276D+00
 Coeff-Com:  0.129D+01
 Coeff:     -0.989D-04 0.164D-02 0.472D-02 0.143D-01-0.305D-01-0.276D+00
 Coeff:      0.129D+01
 Gap=     0.224 Goal=   None    Shift=    0.000
 RMSDP=8.65D-09 MaxDP=4.08D-07 DE= 2.56D-13 OVMax= 2.43D-07

 SCF Done:  E(RM062X) =  -39.8240485315     A.U. after   13 cycles
            NFock= 13  Conv=0.86D-08     -V/T= 2.0048
 KE= 3.963452587999D+01 PE=-1.136015700435D+02 EE= 2.467919662447D+01
 Leave Link  502 at Sat Apr 17 00:05:32 2021, MaxMem=   104857600 cpu:             674.1 elap:              17.5
 (Enter /s/ls4/users/knvvv/bin/g16sse/l601.exe)
 Copying SCF densities to generalized density rwf, IOpCl= 0 IROHF=0.

 **********************************************************************

            Population analysis using the SCF density.

 **********************************************************************

 Orbital symmetries:
       Occupied  (A1) (A1) (E) (E) (A1)
       Virtual   (A1) (E) (E) (E) (E) (A1) (A1) (E) (E) (A1) (E)
                 (E) (A1) (E) (E) (A2) (E) (E) (A1) (E) (E) (A1)
                 (E) (E) (A1) (E) (E) (A1) (E) (E) (A1) (E) (E)
                 (A1) (A2) (E) (E) (E) (E) (A1) (A2) (E) (E) (E)
                 (E) (A1) (E) (E) (A1) (E) (E) (A1) (E) (E) (E)
                 (E) (A2) (A1) (A2) (E) (E) (A1) (A1) (E) (E) (A1)
                 (E) (E) (E) (E) (E) (E) (A1) (E) (E) (A2) (E)
                 (E) (A1) (E) (E) (A1) (E) (E) (A2) (E) (E) (A2)
                 (E) (E) (A1) (A1) (E) (E) (A1) (E) (E) (A2) (A1)
                 (E) (E) (E) (E) (A1) (A1) (E) (E) (A2) (E) (E)
                 (A1) (E) (E) (A1) (E) (E) (A1) (E) (E) (A2) (E)
                 (E) (A1) (E) (E) (E) (E) (A2) (E) (E) (A1) (E)
                 (E) (A1) (E) (E) (A2) (E) (E) (A1) (A1) (A1)
 The electronic state is 1-A1.
 Alpha  occ. eigenvalues --  -10.23195  -0.46232  -0.15971  -0.15971   0.02612
 Alpha virt. eigenvalues --    0.24990   0.31597   0.31597   0.36409   0.36409
 Alpha virt. eigenvalues --    0.38465   0.57356   0.60403   0.60403   0.63153
 Alpha virt. eigenvalues --    0.69416   0.69416   0.82828   0.93297   0.93297
 Alpha virt. eigenvalues --    0.94985   0.97413   0.97413   1.03715   1.05343
 Alpha virt. eigenvalues --    1.05343   1.16853   1.18190   1.18190   1.25056
 Alpha virt. eigenvalues --    1.33932   1.33932   1.39677   1.64779   1.64779
 Alpha virt. eigenvalues --    1.96855   1.99116   1.99116   2.05128   2.11331
 Alpha virt. eigenvalues --    2.15843   2.15843   2.18304   2.18304   2.27358
 Alpha virt. eigenvalues --    2.39553   2.40414   2.40414   2.43653   2.43653
 Alpha virt. eigenvalues --    2.46475   2.51710   2.51710   2.73878   2.78326
 Alpha virt. eigenvalues --    2.78326   2.88857   2.97182   2.97182   3.03613
 Alpha virt. eigenvalues --    3.03613   3.11597   3.12878   3.34531   3.35293
 Alpha virt. eigenvalues --    3.35293   3.44299   3.56724   3.59399   3.59399
 Alpha virt. eigenvalues --    3.96735   3.97796   3.97796   4.18077   4.18077
 Alpha virt. eigenvalues --    5.18213   5.18213   5.24930   5.49853   5.49853
 Alpha virt. eigenvalues --    5.59232   5.73137   5.73137   5.81289   5.94166
 Alpha virt. eigenvalues --    5.94166   5.96977   5.97045   5.97045   6.07826
 Alpha virt. eigenvalues --    6.16251   6.16251   6.33275   6.35017   6.35017
 Alpha virt. eigenvalues --    6.36134   6.45403   6.53385   6.53385   6.72461
 Alpha virt. eigenvalues --    6.84821   6.84821   6.94925   7.06417   7.41002
 Alpha virt. eigenvalues --    7.41002   7.42288   7.42288   7.43661   7.50303
 Alpha virt. eigenvalues --    7.56799   7.56799   7.58136   7.68831   7.68831
 Alpha virt. eigenvalues --    7.85928   7.87725   7.87725   8.07623   8.12828
 Alpha virt. eigenvalues --    8.12828   8.19487   8.26952   8.26952   8.28117
 Alpha virt. eigenvalues --    8.34607   8.34607   8.54476   8.61468   8.61468
 Alpha virt. eigenvalues --    8.81502   8.81502   8.92256   9.54044   9.54044
 Alpha virt. eigenvalues --    9.62570   9.75643   9.75643   9.88184   9.96548
 Alpha virt. eigenvalues --    9.96548  10.22217  11.68153  11.68153  12.46585
 Alpha virt. eigenvalues --   28.77239 146.20157
          Condensed to atoms (all electrons):
               1          2          3          4
     1  C    6.080293   0.395390   0.395390   0.395390
     2  H    0.395390   0.648041  -0.066127  -0.066127
     3  H    0.395390  -0.066127   0.648041  -0.066127
     4  H    0.395390  -0.066127  -0.066127   0.648041
 Mulliken charges:
               1
     1  C   -1.266465
     2  H    0.088822
     3  H    0.088822
     4  H    0.088822
 Sum of Mulliken charges =  -1.00000
 Mulliken charges with hydrogens summed into heavy atoms:
               1
     1  C   -1.000000
 Electronic spatial extent (au):  <R**2>=             43.4271
 Charge=             -1.0000 electrons
 Dipole moment (field-independent basis, Debye):
    X=              0.0000    Y=             -0.0000    Z=             -1.9244  Tot=              1.9244
 Quadrupole moment (field-independent basis, Debye-Ang):
   XX=            -12.3695   YY=            -12.3695   ZZ=            -16.8383
   XY=             -0.0000   XZ=              0.0000   YZ=              0.0000
 Traceless Quadrupole moment (field-independent basis, Debye-Ang):
   XX=              1.4896   YY=              1.4896   ZZ=             -2.9792
   XY=             -0.0000   XZ=              0.0000   YZ=              0.0000
 Octapole moment (field-independent basis, Debye-Ang**2):
  XXX=              0.0000  YYY=             -0.1472  ZZZ=             -5.4661  XYY=              0.0000
  XXY=              0.1472  XXZ=             -1.2371  XZZ=              0.0000  YZZ=             -0.0000
  YYZ=             -1.2371  XYZ=              0.0000
 Hexadecapole moment (field-independent basis, Debye-Ang**3):
 XXXX=            -28.9985 YYYY=            -28.9985 ZZZZ=            -42.7688 XXXY=              0.0000
 XXXZ=             -0.0000 YYYX=              0.0000 YYYZ=             -0.1240 ZZZX=             -0.0000
 ZZZY=              0.0000 XXYY=             -9.6662 XXZZ=            -11.9163 YYZZ=            -11.9163
 XXYZ=              0.1240 YYXZ=             -0.0000 ZZXY=              0.0000
 N-N= 9.463799007521D+00 E-N=-1.136015699761D+02  KE= 3.963452587999D+01
 PrsmSu:  requested number of processors reduced to:  21 ShMem   1 Linda.
 No NMR shielding tensors so no spin-rotation constants.
 Leave Link  601 at Sat Apr 17 00:05:35 2021, MaxMem=   104857600 cpu:             139.1 elap:               3.1
 (Enter /s/ls4/users/knvvv/bin/g16sse/l801.exe)
 DoSCS=F DFT=T ScalE2(SS,OS)=  1.000000  1.000000
 Range of M.O.s used for correlation:     1   147
 NBasis=   147 NAE=     5 NBE=     5 NFC=     0 NFV=     0
 NROrb=    147 NOA=     5 NOB=     5 NVA=   142 NVB=   142

 **** Warning!!: The largest alpha MO coefficient is  0.21424178D+02

 Leave Link  801 at Sat Apr 17 00:05:35 2021, MaxMem=   104857600 cpu:               4.1 elap:               0.1
 (Enter /s/ls4/users/knvvv/bin/g16sse/l914.exe)
 RHF ground state
 Doing stability rather than CIS.
 Two-electron integrals replicated using symmetry.
 MDV=   104857600 DFT=T DoStab=T Mixed=T DoRPA=F DoScal=F NonHer=F
 Making orbital integer symmetry assigments:
 Orbital symmetries:
       Occupied  (A1) (A1) (E) (E) (A1)
       Virtual   (A1) (E) (E) (E) (E) (A1) (A1) (E) (E) (A1) (E)
                 (E) (A1) (E) (E) (A2) (E) (E) (A1) (E) (E) (A1)
                 (E) (E) (A1) (E) (E) (A1) (E) (E) (A1) (E) (E)
                 (A1) (A2) (E) (E) (E) (E) (A1) (A2) (E) (E) (E)
                 (E) (A1) (E) (E) (A1) (E) (E) (A1) (E) (E) (E)
                 (E) (A2) (A1) (A2) (E) (E) (A1) (A1) (E) (E) (A1)
                 (E) (E) (E) (E) (E) (E) (A1) (E) (E) (A2) (E)
                 (E) (A1) (E) (E) (A1) (E) (E) (A2) (E) (E) (A2)
                 (E) (E) (A1) (A1) (E) (E) (A1) (E) (E) (A2) (A1)
                 (E) (E) (E) (E) (A1) (A1) (E) (E) (A2) (E) (E)
                 (A1) (E) (E) (A1) (E) (E) (A1) (E) (E) (A2) (E)
                 (E) (A1) (E) (E) (E) (E) (A2) (E) (E) (A1) (E)
                 (E) (A1) (E) (E) (A2) (E) (E) (A1) (A1) (A1)
    24 initial guesses have been made.
 Convergence on wavefunction:    0.001000000000000
 Davidson Disk Diagonalization:  ConvIn= 1.00D-03 SkipCon=T Conv= 1.00D-03.
 Max sub-space:  2000 roots to seek:    24 dimension of matrix:         1420
 Iteration     1 Dimension    24 NMult     0 NNew     24
 Estimated number of processors is:   20
 CISAX will form     1 AO SS matrices at one time.
 NMat=     1 NSing=     1 JSym2X= 2.
 FoFJK:  IHMeth= 1 ICntrl=       0 DoSepK=F KAlg= 0 I1Cent=           0 FoldK=F
 IRaf= 990000000 NMat=       1 IRICut=       1 DoRegI=T DoRafI=F ISym2E= 2 IDoP0=0 IntGTp=1.
 FoFCou: FMM=F IPFlag=           0 FMFlag=      100000 FMFlg1=           0
         NFxFlg=           0 DoJE=F BraDBF=F KetDBF=F FulRan=T
         wScrn=  0.000000 ICntrl=         0 IOpCl=  0 I1Cent=           0 NGrid=           0
         NMat0=    1 NMatS0=      1 NMatT0=    0 NMatD0=    1 NMtDS0=    0 NMtDT0=    0
 Integrals replicated using symmetry in FoFCou.
 CoulSu:  requested number of processors reduced to:  20 ShMem   1 Linda.
 NMat=     1 NSing=     1 JSym2X= 2.
 CoulSu:  requested number of processors reduced to:  20 ShMem   1 Linda.
 NMat=     1 NSing=     1 JSym2X= 2.
 CoulSu:  requested number of processors reduced to:  20 ShMem   1 Linda.
 NMat=     1 NSing=     1 JSym2X= 2.
 CoulSu:  requested number of processors reduced to:  20 ShMem   1 Linda.
 NMat=     1 NSing=     1 JSym2X= 2.
 CoulSu:  requested number of processors reduced to:  20 ShMem   1 Linda.
 NMat=     1 NSing=     1 JSym2X= 2.
 CoulSu:  requested number of processors reduced to:  20 ShMem   1 Linda.
 NMat=     1 NSing=     1 JSym2X= 2.
 CoulSu:  requested number of processors reduced to:  20 ShMem   1 Linda.
 NMat=     1 NSing=     1 JSym2X= 2.
 CoulSu:  requested number of processors reduced to:  20 ShMem   1 Linda.
 NMat=     1 NSing=     1 JSym2X= 2.
 CoulSu:  requested number of processors reduced to:  20 ShMem   1 Linda.
 NMat=     1 NSing=     1 JSym2X= 2.
 CoulSu:  requested number of processors reduced to:  20 ShMem   1 Linda.
 NMat=     1 NSing=     1 JSym2X= 2.
 CoulSu:  requested number of processors reduced to:  20 ShMem   1 Linda.
 NMat=     1 NSing=     1 JSym2X= 2.
 CoulSu:  requested number of processors reduced to:  20 ShMem   1 Linda.
 NMat=     1 NSing=     0 JSym2X= 2.
 CoulSu:  requested number of processors reduced to:  20 ShMem   1 Linda.
 NMat=     1 NSing=     0 JSym2X= 2.
 CoulSu:  requested number of processors reduced to:  20 ShMem   1 Linda.
 NMat=     1 NSing=     0 JSym2X= 2.
 CoulSu:  requested number of processors reduced to:  20 ShMem   1 Linda.
 NMat=     1 NSing=     0 JSym2X= 2.
 CoulSu:  requested number of processors reduced to:  20 ShMem   1 Linda.
 NMat=     1 NSing=     0 JSym2X= 2.
 CoulSu:  requested number of processors reduced to:  20 ShMem   1 Linda.
 NMat=     1 NSing=     0 JSym2X= 2.
 CoulSu:  requested number of processors reduced to:  20 ShMem   1 Linda.
 NMat=     1 NSing=     0 JSym2X= 2.
 CoulSu:  requested number of processors reduced to:  20 ShMem   1 Linda.
 NMat=     1 NSing=     0 JSym2X= 2.
 CoulSu:  requested number of processors reduced to:  20 ShMem   1 Linda.
 NMat=     1 NSing=     0 JSym2X= 2.
 CoulSu:  requested number of processors reduced to:  20 ShMem   1 Linda.
 NMat=     1 NSing=     0 JSym2X= 2.
 CoulSu:  requested number of processors reduced to:  20 ShMem   1 Linda.
 NMat=     1 NSing=     0 JSym2X= 2.
 CoulSu:  requested number of processors reduced to:  20 ShMem   1 Linda.
 NMat=     1 NSing=     0 JSym2X= 2.
 CoulSu:  requested number of processors reduced to:  20 ShMem   1 Linda.
 New state      1 was old state      2
 Excitation Energies [eV] at current iteration:
 Root      1 :     3.328767049413279
 Root      2 :     3.425138084863697
 Root      3 :     5.115417996738548
 Root      4 :     5.115584348771882
 Root      5 :     5.232014260934407
 Root      6 :     5.232186014593121
 Root      7 :     5.292204692221746
 Root      8 :     6.050872503110961
 Root      9 :     6.051063633146430
 Root     10 :     6.205754980351262
 Root     11 :     6.205959761356966
 Root     12 :     7.889653180885174
 Root     13 :     8.173179804518478
 Root     14 :     8.173186814060788
 Root     15 :     8.403341668663250
 Root     16 :     8.403351808770685
 Root     17 :     9.865844377737858
 Root     18 :     9.957637647535600
 Root     19 :     9.957652540852905
 Root     20 :    10.072632268427290
 Root     21 :    10.072643060146430
 Root     22 :    10.178075143552660
 Root     23 :    10.217760695802350
 Root     24 :    15.703943503178160
 Iteration     2 Dimension    48 NMult    24 NNew     24
 Estimated number of processors is:   20
 CISAX will form     1 AO SS matrices at one time.
 NMat=     1 NSing=     1 JSym2X= 2.
 CoulSu:  requested number of processors reduced to:  20 ShMem   1 Linda.
 NMat=     1 NSing=     1 JSym2X= 2.
 CoulSu:  requested number of processors reduced to:  20 ShMem   1 Linda.
 NMat=     1 NSing=     1 JSym2X= 2.
 CoulSu:  requested number of processors reduced to:  20 ShMem   1 Linda.
 NMat=     1 NSing=     1 JSym2X= 2.
 CoulSu:  requested number of processors reduced to:  20 ShMem   1 Linda.
 NMat=     1 NSing=     1 JSym2X= 2.
 CoulSu:  requested number of processors reduced to:  20 ShMem   1 Linda.
 NMat=     1 NSing=     1 JSym2X= 2.
 CoulSu:  requested number of processors reduced to:  20 ShMem   1 Linda.
 NMat=     1 NSing=     1 JSym2X= 2.
 CoulSu:  requested number of processors reduced to:  20 ShMem   1 Linda.
 NMat=     1 NSing=     1 JSym2X= 2.
 CoulSu:  requested number of processors reduced to:  20 ShMem   1 Linda.
 NMat=     1 NSing=     1 JSym2X= 2.
 CoulSu:  requested number of processors reduced to:  20 ShMem   1 Linda.
 NMat=     1 NSing=     1 JSym2X= 2.
 CoulSu:  requested number of processors reduced to:  20 ShMem   1 Linda.
 NMat=     1 NSing=     1 JSym2X= 2.
 CoulSu:  requested number of processors reduced to:  20 ShMem   1 Linda.
 NMat=     1 NSing=     1 JSym2X= 2.
 CoulSu:  requested number of processors reduced to:  20 ShMem   1 Linda.
 NMat=     1 NSing=     0 JSym2X= 2.
 CoulSu:  requested number of processors reduced to:  20 ShMem   1 Linda.
 NMat=     1 NSing=     0 JSym2X= 2.
 CoulSu:  requested number of processors reduced to:  20 ShMem   1 Linda.
 NMat=     1 NSing=     0 JSym2X= 2.
 CoulSu:  requested number of processors reduced to:  20 ShMem   1 Linda.
 NMat=     1 NSing=     0 JSym2X= 2.
 CoulSu:  requested number of processors reduced to:  20 ShMem   1 Linda.
 NMat=     1 NSing=     0 JSym2X= 2.
 CoulSu:  requested number of processors reduced to:  20 ShMem   1 Linda.
 NMat=     1 NSing=     0 JSym2X= 2.
 CoulSu:  requested number of processors reduced to:  20 ShMem   1 Linda.
 NMat=     1 NSing=     0 JSym2X= 2.
 CoulSu:  requested number of processors reduced to:  20 ShMem   1 Linda.
 NMat=     1 NSing=     0 JSym2X= 2.
 CoulSu:  requested number of processors reduced to:  20 ShMem   1 Linda.
 NMat=     1 NSing=     0 JSym2X= 2.
 CoulSu:  requested number of processors reduced to:  20 ShMem   1 Linda.
 NMat=     1 NSing=     0 JSym2X= 2.
 CoulSu:  requested number of processors reduced to:  20 ShMem   1 Linda.
 NMat=     1 NSing=     0 JSym2X= 2.
 CoulSu:  requested number of processors reduced to:  20 ShMem   1 Linda.
 NMat=     1 NSing=     0 JSym2X= 2.
 CoulSu:  requested number of processors reduced to:  20 ShMem   1 Linda.
 Root      1 not converged, maximum delta is    0.092142318568399
 Excitation Energies [eV] at current iteration:
 Root      1 :     3.035615843079898   Change is   -0.293151206333381
 Root      2 :     3.361239206955181   Change is   -0.063898877908516
 Root      3 :     4.745188691410887   Change is   -0.547016000810859
 Root      4 :     4.944900886700406   Change is   -0.287113374234001
 Root      5 :     4.945295396438262   Change is   -0.286890618154859
 Root      6 :     5.027273610801790   Change is   -0.088144385936759
 Root      7 :     5.027476166824461   Change is   -0.088108181947420
 Root      8 :     5.842056101113447   Change is   -0.208816401997514
 Root      9 :     5.842194799039113   Change is   -0.208868834107317
 Root     10 :     6.038902784220369   Change is   -0.166852196130893
 Root     11 :     6.039104041749192   Change is   -0.166855719607774
 Root     12 :     7.323549762737741   Change is   -0.566103418147433
 Root     13 :     7.719741907287036   Change is   -0.453444906773753
 Root     14 :     7.719750231548888   Change is   -0.453429572969591
 Root     15 :     8.297105078419939   Change is   -0.106236590243311
 Root     16 :     8.297113206915775   Change is   -0.106238601854910
 Root     17 :     8.997112738933922   Change is   -0.868731638803937
 Root     18 :     9.591802846813643   Change is   -0.365849694039263
 Root     19 :     9.591840923117514   Change is   -0.365796724418086
 Root     20 :     9.875898165859594   Change is   -0.196734102567692
 Root     21 :     9.875927494708018   Change is   -0.196715565438409
 Root     22 :    10.080823654821860   Change is   -0.136937040980481
 Root     23 :    10.096386973888580   Change is   -0.081688169664075
 Root     24 :    11.741254865987850   Change is   -3.962688637190314
 Iteration     3 Dimension    54 NMult    48 NNew      6
 Estimated number of processors is:   20
 CISAX will form     1 AO SS matrices at one time.
 NMat=     1 NSing=     1 JSym2X= 2.
 CoulSu:  requested number of processors reduced to:  20 ShMem   1 Linda.
 NMat=     1 NSing=     1 JSym2X= 2.
 CoulSu:  requested number of processors reduced to:  20 ShMem   1 Linda.
 NMat=     1 NSing=     1 JSym2X= 2.
 CoulSu:  requested number of processors reduced to:  20 ShMem   1 Linda.
 NMat=     1 NSing=     0 JSym2X= 2.
 CoulSu:  requested number of processors reduced to:  20 ShMem   1 Linda.
 NMat=     1 NSing=     0 JSym2X= 2.
 CoulSu:  requested number of processors reduced to:  20 ShMem   1 Linda.
 NMat=     1 NSing=     0 JSym2X= 2.
 CoulSu:  requested number of processors reduced to:  20 ShMem   1 Linda.
 Root      1 not converged, maximum delta is    0.006574254494807
 Excitation Energies [eV] at current iteration:
 Root      1 :     3.029271172542890   Change is   -0.006344670537009
 Root      2 :     3.359085877610279   Change is   -0.002153329344902
 Root      3 :     4.724442331120911   Change is   -0.020746360289975
 Root      4 :     4.935038776811163   Change is   -0.009862109889244
 Root      5 :     5.022202682799255   Change is   -0.005070928002535
 Root      6 :     5.022405149152967   Change is   -0.005071017671493
 Iteration     4 Dimension    60 NMult    54 NNew      6
 Estimated number of processors is:   20
 CISAX will form     1 AO SS matrices at one time.
 NMat=     1 NSing=     1 JSym2X= 2.
 CoulSu:  requested number of processors reduced to:  20 ShMem   1 Linda.
 NMat=     1 NSing=     1 JSym2X= 2.
 CoulSu:  requested number of processors reduced to:  20 ShMem   1 Linda.
 NMat=     1 NSing=     1 JSym2X= 2.
 CoulSu:  requested number of processors reduced to:  20 ShMem   1 Linda.
 NMat=     1 NSing=     0 JSym2X= 2.
 CoulSu:  requested number of processors reduced to:  20 ShMem   1 Linda.
 NMat=     1 NSing=     0 JSym2X= 2.
 CoulSu:  requested number of processors reduced to:  20 ShMem   1 Linda.
 NMat=     1 NSing=     0 JSym2X= 2.
 CoulSu:  requested number of processors reduced to:  20 ShMem   1 Linda.
 Root      1 not converged, maximum delta is    0.001094506381329
 Excitation Energies [eV] at current iteration:
 Root      1 :     3.029132514054230   Change is   -0.000138658488659
 Root      2 :     3.359035239383600   Change is   -0.000050638226679
 Root      3 :     4.723887027905093   Change is   -0.000555303215818
 Root      4 :     4.934772736145359   Change is   -0.000266040665803
 Root      5 :     5.022094281243848   Change is   -0.000108401555407
 Root      6 :     5.022298722589095   Change is   -0.000106426563872
 Iteration     5 Dimension    66 NMult    60 NNew      6
 Estimated number of processors is:   20
 CISAX will form     1 AO SS matrices at one time.
 NMat=     1 NSing=     1 JSym2X= 2.
 CoulSu:  requested number of processors reduced to:  20 ShMem   1 Linda.
 NMat=     1 NSing=     1 JSym2X= 2.
 CoulSu:  requested number of processors reduced to:  20 ShMem   1 Linda.
 NMat=     1 NSing=     1 JSym2X= 2.
 CoulSu:  requested number of processors reduced to:  20 ShMem   1 Linda.
 NMat=     1 NSing=     0 JSym2X= 2.
 CoulSu:  requested number of processors reduced to:  20 ShMem   1 Linda.
 NMat=     1 NSing=     0 JSym2X= 2.
 CoulSu:  requested number of processors reduced to:  20 ShMem   1 Linda.
 NMat=     1 NSing=     0 JSym2X= 2.
 CoulSu:  requested number of processors reduced to:  20 ShMem   1 Linda.
 Root      1 has converged.
 Excitation Energies [eV] at current iteration:
 Root      1 :     3.029126226442532   Change is   -0.000006287611698
 Root      2 :     3.359031976798873   Change is   -0.000003262584727
 Root      3 :     4.723871590444766   Change is   -0.000015437460327
 Root      4 :     4.934761265689399   Change is   -0.000011470455960
 Root      5 :     5.022091512804410   Change is   -0.000002768439438
 Root      6 :     5.022296027534193   Change is   -0.000002695054901
 Convergence achieved on expansion vectors.
 ***********************************************************************
 Stability analysis using <AA,BB:AA,BB> singles matrix:
 ***********************************************************************
 1PDM for each excited state written to RWF  633
 Ground to excited state transition densities written to RWF  633

 Eigenvectors of the stability matrix:
 
 Eigenvector   1:      Triplet-A1   Eigenvalue= 0.1113183  <S**2>=2.000
       5 ->  6         0.68302
       5 -> 11        -0.13376
 The wavefunction is stable under the perturbations considered.
 Leave Link  914 at Sat Apr 17 00:07:49 2021, MaxMem=   104857600 cpu:            5344.8 elap:             134.0
 (Enter /s/ls4/users/knvvv/bin/g16sse/l508.exe)
 The wavefunction is already stable.
 Leave Link  508 at Sat Apr 17 00:07:49 2021, MaxMem=   104857600 cpu:               2.2 elap:               0.1
 (Enter /s/ls4/users/knvvv/bin/g16sse/l601.exe)
 Copying SCF densities to generalized density rwf, IOpCl= 0 IROHF=0.

 **********************************************************************

            Population analysis using the SCF density.

 **********************************************************************

 Orbital symmetries:
       Occupied  (A1) (A1) (E) (E) (A1)
       Virtual   (A1) (E) (E) (E) (E) (A1) (A1) (E) (E) (A1) (E)
                 (E) (A1) (E) (E) (A2) (E) (E) (A1) (E) (E) (A1)
                 (E) (E) (A1) (E) (E) (A1) (E) (E) (A1) (E) (E)
                 (A1) (A2) (E) (E) (E) (E) (A1) (A2) (E) (E) (E)
                 (E) (A1) (E) (E) (A1) (E) (E) (A1) (E) (E) (E)
                 (E) (A2) (A1) (A2) (E) (E) (A1) (A1) (E) (E) (A1)
                 (E) (E) (E) (E) (E) (E) (A1) (E) (E) (A2) (E)
                 (E) (A1) (E) (E) (A1) (E) (E) (A2) (E) (E) (A2)
                 (E) (E) (A1) (A1) (E) (E) (A1) (E) (E) (A2) (A1)
                 (E) (E) (E) (E) (A1) (A1) (E) (E) (A2) (E) (E)
                 (A1) (E) (E) (A1) (E) (E) (A1) (E) (E) (A2) (E)
                 (E) (A1) (E) (E) (E) (E) (A2) (E) (E) (A1) (E)
                 (E) (A1) (E) (E) (A2) (E) (E) (A1) (A1) (A1)
 The electronic state is 1-A1.
 Alpha  occ. eigenvalues --  -10.23195  -0.46232  -0.15971  -0.15971   0.02612
 Alpha virt. eigenvalues --    0.24990   0.31597   0.31597   0.36409   0.36409
 Alpha virt. eigenvalues --    0.38465   0.57356   0.60403   0.60403   0.63153
 Alpha virt. eigenvalues --    0.69416   0.69416   0.82828   0.93297   0.93297
 Alpha virt. eigenvalues --    0.94985   0.97413   0.97413   1.03715   1.05343
 Alpha virt. eigenvalues --    1.05343   1.16853   1.18190   1.18190   1.25056
 Alpha virt. eigenvalues --    1.33932   1.33932   1.39677   1.64779   1.64779
 Alpha virt. eigenvalues --    1.96855   1.99116   1.99116   2.05128   2.11331
 Alpha virt. eigenvalues --    2.15843   2.15843   2.18304   2.18304   2.27358
 Alpha virt. eigenvalues --    2.39553   2.40414   2.40414   2.43653   2.43653
 Alpha virt. eigenvalues --    2.46475   2.51710   2.51710   2.73878   2.78326
 Alpha virt. eigenvalues --    2.78326   2.88857   2.97182   2.97182   3.03613
 Alpha virt. eigenvalues --    3.03613   3.11597   3.12878   3.34531   3.35293
 Alpha virt. eigenvalues --    3.35293   3.44299   3.56724   3.59399   3.59399
 Alpha virt. eigenvalues --    3.96735   3.97796   3.97796   4.18077   4.18077
 Alpha virt. eigenvalues --    5.18213   5.18213   5.24930   5.49853   5.49853
 Alpha virt. eigenvalues --    5.59232   5.73137   5.73137   5.81289   5.94166
 Alpha virt. eigenvalues --    5.94166   5.96977   5.97045   5.97045   6.07826
 Alpha virt. eigenvalues --    6.16251   6.16251   6.33275   6.35017   6.35017
 Alpha virt. eigenvalues --    6.36134   6.45403   6.53385   6.53385   6.72461
 Alpha virt. eigenvalues --    6.84821   6.84821   6.94925   7.06417   7.41002
 Alpha virt. eigenvalues --    7.41002   7.42288   7.42288   7.43661   7.50303
 Alpha virt. eigenvalues --    7.56799   7.56799   7.58136   7.68831   7.68831
 Alpha virt. eigenvalues --    7.85928   7.87725   7.87725   8.07623   8.12828
 Alpha virt. eigenvalues --    8.12828   8.19487   8.26952   8.26952   8.28117
 Alpha virt. eigenvalues --    8.34607   8.34607   8.54476   8.61468   8.61468
 Alpha virt. eigenvalues --    8.81502   8.81502   8.92256   9.54044   9.54044
 Alpha virt. eigenvalues --    9.62570   9.75643   9.75643   9.88184   9.96548
 Alpha virt. eigenvalues --    9.96548  10.22217  11.68153  11.68153  12.46585
 Alpha virt. eigenvalues --   28.77239 146.20157
          Condensed to atoms (all electrons):
               1          2          3          4
     1  C    6.080293   0.395390   0.395390   0.395390
     2  H    0.395390   0.648041  -0.066127  -0.066127
     3  H    0.395390  -0.066127   0.648041  -0.066127
     4  H    0.395390  -0.066127  -0.066127   0.648041
 Mulliken charges:
               1
     1  C   -1.266465
     2  H    0.088822
     3  H    0.088822
     4  H    0.088822
 Sum of Mulliken charges =  -1.00000
 Mulliken charges with hydrogens summed into heavy atoms:
               1
     1  C   -1.000000
 Electronic spatial extent (au):  <R**2>=             43.4271
 Charge=             -1.0000 electrons
 Dipole moment (field-independent basis, Debye):
    X=              0.0000    Y=             -0.0000    Z=             -1.9244  Tot=              1.9244
 Quadrupole moment (field-independent basis, Debye-Ang):
   XX=            -12.3695   YY=            -12.3695   ZZ=            -16.8383
   XY=             -0.0000   XZ=              0.0000   YZ=              0.0000
 Traceless Quadrupole moment (field-independent basis, Debye-Ang):
   XX=              1.4896   YY=              1.4896   ZZ=             -2.9792
   XY=             -0.0000   XZ=              0.0000   YZ=              0.0000
 Octapole moment (field-independent basis, Debye-Ang**2):
  XXX=              0.0000  YYY=             -0.1472  ZZZ=             -5.4661  XYY=              0.0000
  XXY=              0.1472  XXZ=             -1.2371  XZZ=              0.0000  YZZ=             -0.0000
  YYZ=             -1.2371  XYZ=              0.0000
 Hexadecapole moment (field-independent basis, Debye-Ang**3):
 XXXX=            -28.9985 YYYY=            -28.9985 ZZZZ=            -42.7688 XXXY=              0.0000
 XXXZ=             -0.0000 YYYX=              0.0000 YYYZ=             -0.1240 ZZZX=             -0.0000
 ZZZY=              0.0000 XXYY=             -9.6662 XXZZ=            -11.9163 YYZZ=            -11.9163
 XXYZ=              0.1240 YYXZ=             -0.0000 ZZXY=              0.0000
 N-N= 9.463799007521D+00 E-N=-1.136015699761D+02  KE= 3.963452587999D+01
 PrsmSu:  requested number of processors reduced to:  21 ShMem   1 Linda.
 No NMR shielding tensors so no spin-rotation constants.
 Leave Link  601 at Sat Apr 17 00:07:53 2021, MaxMem=   104857600 cpu:             159.5 elap:               3.5
 (Enter /s/ls4/users/knvvv/bin/g16sse/l9999.exe)

 Test job not archived.
 1\1\GINC-N146\Stability\RM062X\def2QZVP\C1H3(1-)\KNVVV\17-Apr-2021\0\\
 #P M062X/Def2QZVP Integral=UltraFineGrid SCF=NoSymm Stable=(RExt, Opt)
  IOp(1/33=1)\\Database calculations.\\-1,1\C,0,0.,0.,-0.3438163877\H,0
 ,0.5069803562,-0.8781157353,0.1146054626\H,0,0.5069803562,0.8781157353
 ,0.1146054626\H,0,-1.0139607123,0.,0.1146054626\\Version=ES64L-G16RevA
 .03\State=1-A1\HF=-39.8240485\RMSD=8.649e-09\Dipole=0.,0.,0.75713\Quad
 rupole=1.1074775,1.1074775,-2.214955,0.,0.,0.\PG=C03V [C3(C1),3SGV(H1)
 ]\\@


 THE MORE PROGRESS PHYSICAL SCIENCES MAKE, THE MORE THEY TEND TO ENTER
 THE DOMAIN OF MATHEMATICS, WHICH IS A KIND OF CENTRE TO WHICH THEY ALL
 CONVERGE.  WE MAY EVEN JUDGE THE DEGREE OF PERFECTION TO WHICH A 
 SCIENCE HAS ARRIVED BY THE FACILITY WITH WHICH IT MAY BE SUBMITTED
 TO CALCULATION.

                               -- ADOLPHE QUETELET, 1796-1874
 Job cpu time:       0 days  1 hours 58 minutes 50.3 seconds.
 Elapsed time:       0 days  0 hours  2 minutes 55.8 seconds.
 File lengths (MBytes):  RWF=     61 Int=      0 D2E=      0 Chk=      3 Scr=      1
 Normal termination of Gaussian 16 at Sat Apr 17 00:07:53 2021.
