 Entering Gaussian System, Link 0=/s/ls4/users/knvvv/bin/g16sse/g16
 Input=data/database/M062X--def2-QZVP--SIE4x4_h2+_1_5.gjf
 Output=data/database/M062X--def2-QZVP--SIE4x4_h2+_1_5.log
 Initial command:
 /s/ls4/users/knvvv/bin/g16sse/l1.exe "/s/ls4/users/knvvv/bin/scratch/Gau-15036.inp" -scrdir="/s/ls4/users/knvvv/bin/scratch/"
 Entering Link 1 = /s/ls4/users/knvvv/bin/g16sse/l1.exe PID=     15037.
  
 Copyright (c) 1988,1990,1992,1993,1995,1998,2003,2009,2016,
            Gaussian, Inc.  All Rights Reserved.
  
 This is part of the Gaussian(R) 16 program.  It is based on
 the Gaussian(R) 09 system (copyright 2009, Gaussian, Inc.),
 the Gaussian(R) 03 system (copyright 2003, Gaussian, Inc.),
 the Gaussian(R) 98 system (copyright 1998, Gaussian, Inc.),
 the Gaussian(R) 94 system (copyright 1995, Gaussian, Inc.),
 the Gaussian 92(TM) system (copyright 1992, Gaussian, Inc.),
 the Gaussian 90(TM) system (copyright 1990, Gaussian, Inc.),
 the Gaussian 88(TM) system (copyright 1988, Gaussian, Inc.),
 the Gaussian 86(TM) system (copyright 1986, Carnegie Mellon
 University), and the Gaussian 82(TM) system (copyright 1983,
 Carnegie Mellon University). Gaussian is a federally registered
 trademark of Gaussian, Inc.
  
 This software contains proprietary and confidential information,
 including trade secrets, belonging to Gaussian, Inc.
  
 This software is provided under written license and may be
 used, copied, transmitted, or stored only in accord with that
 written license.
  
 The following legend is applicable only to US Government
 contracts under FAR:
  
                    RESTRICTED RIGHTS LEGEND
  
 Use, reproduction and disclosure by the US Government is
 subject to restrictions as set forth in subparagraphs (a)
 and (c) of the Commercial Computer Software - Restricted
 Rights clause in FAR 52.227-19.
  
 Gaussian, Inc.
 340 Quinnipiac St., Bldg. 40, Wallingford CT 06492
  
  
 ---------------------------------------------------------------
 Warning -- This program may not be used in any manner that
 competes with the business of Gaussian, Inc. or will provide
 assistance to any competitor of Gaussian, Inc.  The licensee
 of this program is prohibited from giving any competitor of
 Gaussian, Inc. access to this program.  By using this program,
 the user acknowledges that Gaussian, Inc. is engaged in the
 business of creating and licensing software in the field of
 computational chemistry and represents and warrants to the
 licensee that it is not a competitor of Gaussian, Inc. and that
 it will not use this program in any manner prohibited above.
 ---------------------------------------------------------------
  

 Cite this work as:
 Gaussian 16, Revision A.03,
 M. J. Frisch, G. W. Trucks, H. B. Schlegel, G. E. Scuseria, 
 M. A. Robb, J. R. Cheeseman, G. Scalmani, V. Barone, 
 G. A. Petersson, H. Nakatsuji, X. Li, M. Caricato, A. V. Marenich, 
 J. Bloino, B. G. Janesko, R. Gomperts, B. Mennucci, H. P. Hratchian, 
 J. V. Ortiz, A. F. Izmaylov, J. L. Sonnenberg, D. Williams-Young, 
 F. Ding, F. Lipparini, F. Egidi, J. Goings, B. Peng, A. Petrone, 
 T. Henderson, D. Ranasinghe, V. G. Zakrzewski, J. Gao, N. Rega, 
 G. Zheng, W. Liang, M. Hada, M. Ehara, K. Toyota, R. Fukuda, 
 J. Hasegawa, M. Ishida, T. Nakajima, Y. Honda, O. Kitao, H. Nakai, 
 T. Vreven, K. Throssell, J. A. Montgomery, Jr., J. E. Peralta, 
 F. Ogliaro, M. J. Bearpark, J. J. Heyd, E. N. Brothers, K. N. Kudin, 
 V. N. Staroverov, T. A. Keith, R. Kobayashi, J. Normand, 
 K. Raghavachari, A. P. Rendell, J. C. Burant, S. S. Iyengar, 
 J. Tomasi, M. Cossi, J. M. Millam, M. Klene, C. Adamo, R. Cammi, 
 J. W. Ochterski, R. L. Martin, K. Morokuma, O. Farkas, 
 J. B. Foresman, and D. J. Fox, Gaussian, Inc., Wallingford CT, 2016.
 
 ******************************************
 Gaussian 16:  ES64L-G16RevA.03 25-Dec-2016
                18-Apr-2021 
 ******************************************
 %RWF=temp5_74801,70GB
 %nprocshared=48
 Will use up to   48 processors via shared memory.
 Default route: MaxDisk=80GB
 ----------------------------------------------------------------------
 #P M062X/Def2QZVP Integral=UltraFineGrid SCF=NoSymm Stable=(RExt, Opt)
  IOp(1/33=1)
 ----------------------------------------------------------------------
 1/33=1,38=1,172=1/1;
 2/12=2,17=6,18=5,40=1/2;
 3/5=45,7=101,11=2,25=1,30=1,74=-55,75=-5/1,2,3;
 4/9=2/1;
 5/5=2,38=5/2;
 6/7=2,8=2,9=2,10=2,28=1/1;
 8/6=1,10=90,11=11/1;
 9/8=-3,42=1,46=1/14;
 5/5=2,8=3,17=40,38=5/8(-2);
 6/7=2,8=2,9=2,10=2,28=1/1;
 99/5=1,9=1/99;
 Leave Link    1 at Sun Apr 18 20:01:29 2021, MaxMem=           0 cpu:              12.9 elap:               0.3
 (Enter /s/ls4/users/knvvv/bin/g16sse/l101.exe)
 ONIOM data not found on unit 2.
 ----------------------
 Database calculations.
 ----------------------
 TstMul:  ICh=     1
 TstMul:  Mul=     2
 TstMul:  ICh=     1
 TstMul:  Mul=     2
 Symbolic Z-matrix:
 Charge =  1 Multiplicity = 2
 H                     0.        0.       -0.79296 
 H                     0.        0.        0.79296 
 
 RdStrC is calling ZToCFu for IStruc=1 NZ=     2.
 PrtBox:  NBox=     1 Levels=  1 BoxLen=    8.00 SMaxX=        3.00
          Shift=            0.000000            0.000000            1.498469
 Box      1 Number                   0 centers from      1 to      2:
 After GenITR:
 ITRead=  0  0
 MicOpt= -1 -1
 ITRead=  0  0
 MicOpt= -1 -1
 NAtoms=      2 NQM=        2 NQMF=       0 NMMI=      0 NMMIF=      0
                NMic=       0 NMicF=      0.
                    Isotopes and Nuclear Properties:
 (Nuclear quadrupole moments (NQMom) in fm**2, nuclear magnetic moments (NMagM)
  in nuclear magnetons)

  Atom         1           2
 IAtWgt=           1           1
 AtmWgt=   1.0078250   1.0078250
 NucSpn=           1           1
 AtZEff=  -0.0000000  -0.0000000
 NQMom=    0.0000000   0.0000000
 NMagM=    2.7928460   2.7928460
 AtZNuc=   1.0000000   1.0000000
 No MM parameters found.
 Leave Link  101 at Sun Apr 18 20:01:29 2021, MaxMem=   104857600 cpu:              12.4 elap:               0.4
 (Enter /s/ls4/users/knvvv/bin/g16sse/l202.exe)
                          Input orientation:                          
 ---------------------------------------------------------------------
 Center     Atomic      Atomic             Coordinates (Angstroms)
 Number     Number       Type             X           Y           Z
 ---------------------------------------------------------------------
      1          1           0        0.000000    0.000000   -0.792956
      2          1           0        0.000000    0.000000    0.792956
 ---------------------------------------------------------------------
 Stoichiometry    H2(1+,2)
 Framework group  D*H[C*(H.H)]
 Deg. of freedom     1
 Full point group                 D*H     NOp   8
 Largest Abelian subgroup         D2H     NOp   8
 Largest concise Abelian subgroup C2      NOp   2
                         Standard orientation:                         
 ---------------------------------------------------------------------
 Center     Atomic      Atomic             Coordinates (Angstroms)
 Number     Number       Type             X           Y           Z
 ---------------------------------------------------------------------
      1          1           0        0.000000    0.000000    0.792956
      2          1           0        0.000000    0.000000   -0.792956
 ---------------------------------------------------------------------
 Rotational constants (GHZ):           0.0000000         398.7531562         398.7531562
 Leave Link  202 at Sun Apr 18 20:01:30 2021, MaxMem=   104857600 cpu:              12.5 elap:               0.4
 (Enter /s/ls4/users/knvvv/bin/g16sse/l301.exe)
 Standard basis: def2QZVP (5D, 7F)
 Ernie: Thresh=  0.10000D-02 Tol=  0.10000D-05 Strict=F.
 There are    16 symmetry adapted cartesian basis functions of AG  symmetry.
 There are     3 symmetry adapted cartesian basis functions of B1G symmetry.
 There are     8 symmetry adapted cartesian basis functions of B2G symmetry.
 There are     8 symmetry adapted cartesian basis functions of B3G symmetry.
 There are     3 symmetry adapted cartesian basis functions of AU  symmetry.
 There are    16 symmetry adapted cartesian basis functions of B1U symmetry.
 There are     8 symmetry adapted cartesian basis functions of B2U symmetry.
 There are     8 symmetry adapted cartesian basis functions of B3U symmetry.
 There are    13 symmetry adapted basis functions of AG  symmetry.
 There are     3 symmetry adapted basis functions of B1G symmetry.
 There are     7 symmetry adapted basis functions of B2G symmetry.
 There are     7 symmetry adapted basis functions of B3G symmetry.
 There are     3 symmetry adapted basis functions of AU  symmetry.
 There are    13 symmetry adapted basis functions of B1U symmetry.
 There are     7 symmetry adapted basis functions of B2U symmetry.
 There are     7 symmetry adapted basis functions of B3U symmetry.
    60 basis functions,    76 primitive gaussians,    70 cartesian basis functions
     1 alpha electrons        0 beta electrons
       nuclear repulsion energy         0.3336738510 Hartrees.
 IExCor= 4336 DFT=T Ex+Corr=M062X ExCW=0 ScaHFX=  0.540000
 ScaDFX=  1.000000  1.000000  1.000000  1.000000 ScalE2=  1.000000  1.000000
 IRadAn=      5 IRanWt=     -1 IRanGd=            0 ICorTp=0 IEmpDi=  4
 NAtoms=    2 NActive=    2 NUniq=    1 SFac= 4.00D+00 NAtFMM=   60 NAOKFM=F Big=F
 Integral buffers will be    131072 words long.
 Raffenetti 2 integral format.
 Two-electron integral symmetry is turned on.
 Leave Link  301 at Sun Apr 18 20:01:30 2021, MaxMem=   104857600 cpu:              11.7 elap:               0.4
 (Enter /s/ls4/users/knvvv/bin/g16sse/l302.exe)
 NPDir=0 NMtPBC=     1 NCelOv=     1 NCel=       1 NClECP=     1 NCelD=      1
         NCelK=      1 NCelE2=     1 NClLst=     1 CellRange=     0.0.
 One-electron integrals computed using PRISM.
 One-electron integral symmetry used in STVInt
 PrsmSu:  requested number of processors reduced to:  13 ShMem   1 Linda.
   8 Symmetry operations used in ECPInt.
 ECPInt:  NShTT=     210 NPrTT=     363 LenC2=     211 LenP2D=     357.
 LDataN:  DoStor=T MaxTD1= 6 Len=  172
 NBasis=    60 RedAO= T EigKep=  1.25D-02  NBF=    13     3     7     7     3    13     7     7
 NBsUse=    60 1.00D-06 EigRej= -1.00D+00 NBFU=    13     3     7     7     3    13     7     7
 Precomputing XC quadrature grid using
 IXCGrd= 4 IRadAn=           5 IRanWt=          -1 IRanGd=           0 AccXCQ= 0.00D+00.
 Generated NRdTot=       0 NPtTot=           0 NUsed=           0 NTot=          32
 NSgBfM=    70    70    70    70    70 MxSgAt=     2 MxSgA2=     2.
 Leave Link  302 at Sun Apr 18 20:01:34 2021, MaxMem=   104857600 cpu:             142.6 elap:               3.3
 (Enter /s/ls4/users/knvvv/bin/g16sse/l303.exe)
 DipDrv:  MaxL=1.
 Leave Link  303 at Sun Apr 18 20:01:35 2021, MaxMem=   104857600 cpu:              16.1 elap:               0.6
 (Enter /s/ls4/users/knvvv/bin/g16sse/l401.exe)
 SCF N**3 symmetry information disabled.
 ExpMin= 8.03D-02 ExpMax= 1.91D+02 ExpMxC= 2.86D+01 IAcc=3 IRadAn=         5 AccDes= 0.00D+00
 Harris functional with IExCor= 1009 and IRadAn=       5 diagonalized for initial guess.
 HarFok:  IExCor= 1009 AccDes= 0.00D+00 IRadAn=         5 IDoV= 1 UseB2=F ITyADJ=14
 ICtDFT=  3500011 ScaDFX=  1.000000  1.000000  1.000000  1.000000
 FoFCou: FMM=F IPFlag=           0 FMFlag=      100000 FMFlg1=           0
         NFxFlg=           0 DoJE=T BraDBF=F KetDBF=T FulRan=T
         wScrn=  0.000000 ICntrl=       500 IOpCl=  0 I1Cent=   200000004 NGrid=           0
         NMat0=    1 NMatS0=      1 NMatT0=    0 NMatD0=    1 NMtDS0=    0 NMtDT0=    0
 Petite list used in FoFCou.
 Harris En=-0.748062906738852    
 JPrj=0 DoOrth=F DoCkMO=F.
 Initial guess orbital symmetries:
 Alpha Orbitals:
       Occupied  (SGG)
       Virtual   (SGU) (SGG) (SGU) (PIU) (PIU) (SGG) (PIG) (PIG)
                 (SGU) (SGG) (SGU) (PIU) (PIU) (SGG) (DLTG) (DLTG)
                 (DLTU) (DLTU) (PIU) (PIU) (PIG) (PIG) (SGU) (PIG)
                 (PIG) (SGG) (SGU) (SGG) (SGU) (PIU) (PIU) (DLTG)
                 (DLTG) (SGG) (PHIU) (PHIU) (PHIG) (PHIG) (DLTU)
                 (DLTU) (PIG) (PIG) (SGU) (SGG) (PIU) (PIU) (PIG)
                 (PIG) (DLTG) (DLTG) (PIU) (PIU) (DLTU) (DLTU)
                 (SGU) (PIG) (PIG) (SGG) (SGU)
 Beta  Orbitals:
       Virtual   (SGG) (SGU) (SGG) (SGU) (PIU) (PIU) (SGG) (PIG)
                 (PIG) (SGU) (SGG) (SGU) (PIU) (PIU) (SGG) (DLTG)
                 (DLTG) (DLTU) (DLTU) (PIU) (PIU) (PIG) (PIG) (SGU)
                 (PIG) (PIG) (SGG) (SGU) (SGG) (SGU) (PIU) (PIU)
                 (DLTG) (DLTG) (SGG) (PHIU) (PHIU) (PHIG) (PHIG)
                 (DLTU) (DLTU) (PIG) (PIG) (SGU) (SGG) (PIU) (PIU)
                 (PIG) (PIG) (DLTG) (DLTG) (PIU) (PIU) (DLTU) (DLTU)
                 (SGU) (PIG) (PIG) (SGG) (SGU)
 The electronic state of the initial guess is 2-SGG.
 Initial guess <Sx>= 0.0000 <Sy>= 0.0000 <Sz>= 0.5000 <S**2>= 0.7500 S= 0.5000
 Leave Link  401 at Sun Apr 18 20:01:37 2021, MaxMem=   104857600 cpu:             107.5 elap:               2.6
 (Enter /s/ls4/users/knvvv/bin/g16sse/l502.exe)
 Keep R1 and R2 ints in memory in symmetry-blocked form, NReq=44538721.
 FoFCou: FMM=F IPFlag=           0 FMFlag=           0 FMFlg1=           0
         NFxFlg=           0 DoJE=F BraDBF=F KetDBF=F FulRan=T
         wScrn=  0.000000 ICntrl=       600 IOpCl=  0 I1Cent=           0 NGrid=           0
         NMat0=    1 NMatS0=   1830 NMatT0=    0 NMatD0=    1 NMtDS0=    0 NMtDT0=    0
 Petite list used in FoFCou.
 UHF open shell SCF:
 Using DIIS extrapolation, IDIIS=  1040.
 NGot=   104857600 LenX=   104401410 LenY=   104396069
 Requested convergence on RMS density matrix=1.00D-08 within 128 cycles.
 Requested convergence on MAX density matrix=1.00D-06.
 Requested convergence on             energy=1.00D-06.
 No special actions if energy rises.
 Integral accuracy reduced to 1.0D-05 until final iterations.

 Cycle   1  Pass 0  IDiag  1:
 E=-0.573959167025583    
 DIIS: error= 3.95D-02 at cycle   1 NSaved=   1.
 NSaved= 1 IEnMin= 1 EnMin=-0.573959167025583     IErMin= 1 ErrMin= 3.95D-02
 ErrMax= 3.95D-02  0.00D+00 EMaxC= 1.00D-01 BMatC= 2.16D-02 BMatP= 2.16D-02
 IDIUse=3 WtCom= 6.05D-01 WtEn= 3.95D-01
 Coeff-Com:  0.100D+01
 Coeff-En:   0.100D+01
 Coeff:      0.100D+01
 Gap=     0.366 Goal=   None    Shift=    0.000
 GapD=    0.366 DampG=1.000 DampE=0.500 DampFc=0.5000 IDamp=-1.
 Damping current iteration by 5.00D-01
 RMSDP=1.31D-03 MaxDP=2.26D-02              OVMax= 1.16D-01

 Cycle   2  Pass 0  IDiag  1:
 E=-0.580012617314643     Delta-E=       -0.006053450289 Rises=F Damp=T
 DIIS: error= 2.23D-02 at cycle   2 NSaved=   2.
 NSaved= 2 IEnMin= 2 EnMin=-0.580012617314643     IErMin= 2 ErrMin= 2.23D-02
 ErrMax= 2.23D-02  0.00D+00 EMaxC= 1.00D-01 BMatC= 6.80D-03 BMatP= 2.16D-02
 IDIUse=3 WtCom= 7.77D-01 WtEn= 2.23D-01
 Coeff-Com: -0.118D+01 0.218D+01
 Coeff-En:   0.000D+00 0.100D+01
 Coeff:     -0.915D+00 0.191D+01
 Gap=     0.366 Goal=   None    Shift=    0.000
 RMSDP=9.43D-04 MaxDP=1.72D-02 DE=-6.05D-03 OVMax= 2.08D-02

 Cycle   3  Pass 0  IDiag  1:
 E=-0.587426876352395     Delta-E=       -0.007414259038 Rises=F Damp=F
 DIIS: error= 1.60D-03 at cycle   3 NSaved=   3.
 NSaved= 3 IEnMin= 3 EnMin=-0.587426876352395     IErMin= 3 ErrMin= 1.60D-03
 ErrMax= 1.60D-03  0.00D+00 EMaxC= 1.00D-01 BMatC= 6.19D-05 BMatP= 6.80D-03
 IDIUse=3 WtCom= 9.84D-01 WtEn= 1.60D-02
 Coeff-Com:  0.862D-01-0.221D+00 0.113D+01
 Coeff-En:   0.000D+00 0.000D+00 0.100D+01
 Coeff:      0.848D-01-0.217D+00 0.113D+01
 Gap=     0.369 Goal=   None    Shift=    0.000
 RMSDP=6.61D-05 MaxDP=1.58D-03 DE=-7.41D-03 OVMax= 5.64D-03

 Cycle   4  Pass 0  IDiag  1:
 E=-0.587455071837676     Delta-E=       -0.000028195485 Rises=F Damp=F
 DIIS: error= 1.99D-04 at cycle   4 NSaved=   4.
 NSaved= 4 IEnMin= 4 EnMin=-0.587455071837676     IErMin= 4 ErrMin= 1.99D-04
 ErrMax= 1.99D-04  0.00D+00 EMaxC= 1.00D-01 BMatC= 8.70D-07 BMatP= 6.19D-05
 IDIUse=3 WtCom= 9.98D-01 WtEn= 1.99D-03
 Coeff-Com:  0.802D-02-0.601D-02-0.136D+00 0.113D+01
 Coeff-En:   0.000D+00 0.000D+00 0.000D+00 0.100D+01
 Coeff:      0.800D-02-0.599D-02-0.136D+00 0.113D+01
 Gap=     0.369 Goal=   None    Shift=    0.000
 RMSDP=6.73D-06 MaxDP=2.17D-04 DE=-2.82D-05 OVMax= 3.71D-04

 Initial convergence to 1.0D-05 achieved.  Increase integral accuracy.
 Cycle   5  Pass 1  IDiag  1:
 E=-0.587454856373122     Delta-E=        0.000000215465 Rises=F Damp=F
 DIIS: error= 7.50D-05 at cycle   1 NSaved=   1.
 NSaved= 1 IEnMin= 1 EnMin=-0.587454856373122     IErMin= 1 ErrMin= 7.50D-05
 ErrMax= 7.50D-05  0.00D+00 EMaxC= 1.00D-01 BMatC= 8.03D-08 BMatP= 8.03D-08
 IDIUse=1 WtCom= 1.00D+00 WtEn= 0.00D+00
 Coeff-Com:  0.100D+01
 Coeff:      0.100D+01
 Gap=     0.390 Goal=   None    Shift=    0.000
 RMSDP=6.73D-06 MaxDP=2.17D-04 DE= 2.15D-07 OVMax= 5.50D-05

 Cycle   6  Pass 1  IDiag  1:
 E=-0.587454867049880     Delta-E=       -0.000000010677 Rises=F Damp=F
 DIIS: error= 1.11D-05 at cycle   2 NSaved=   2.
 NSaved= 2 IEnMin= 2 EnMin=-0.587454867049880     IErMin= 2 ErrMin= 1.11D-05
 ErrMax= 1.11D-05  0.00D+00 EMaxC= 1.00D-01 BMatC= 2.84D-09 BMatP= 8.03D-08
 IDIUse=1 WtCom= 1.00D+00 WtEn= 0.00D+00
 Coeff-Com: -0.203D+00 0.120D+01
 Coeff:     -0.203D+00 0.120D+01
 Gap=     0.379 Goal=   None    Shift=    0.000
 RMSDP=1.98D-07 MaxDP=5.19D-06 DE=-1.07D-08 OVMax= 1.68D-05

 Cycle   7  Pass 1  IDiag  1:
 E=-0.587454867590541     Delta-E=       -0.000000000541 Rises=F Damp=F
 DIIS: error= 9.53D-07 at cycle   3 NSaved=   3.
 NSaved= 3 IEnMin= 3 EnMin=-0.587454867590541     IErMin= 3 ErrMin= 9.53D-07
 ErrMax= 9.53D-07  0.00D+00 EMaxC= 1.00D-01 BMatC= 2.42D-11 BMatP= 2.84D-09
 IDIUse=1 WtCom= 1.00D+00 WtEn= 0.00D+00
 Coeff-Com:  0.239D-01-0.202D+00 0.118D+01
 Coeff:      0.239D-01-0.202D+00 0.118D+01
 Gap=     0.379 Goal=   None    Shift=    0.000
 RMSDP=2.09D-08 MaxDP=2.58D-07 DE=-5.41D-10 OVMax= 2.58D-06

 Cycle   8  Pass 1  IDiag  1:
 E=-0.587454867598506     Delta-E=       -0.000000000008 Rises=F Damp=F
 DIIS: error= 9.99D-08 at cycle   4 NSaved=   4.
 NSaved= 4 IEnMin= 4 EnMin=-0.587454867598506     IErMin= 4 ErrMin= 9.99D-08
 ErrMax= 9.99D-08  0.00D+00 EMaxC= 1.00D-01 BMatC= 2.29D-13 BMatP= 2.42D-11
 IDIUse=1 WtCom= 1.00D+00 WtEn= 0.00D+00
 Coeff-Com:  0.898D-03-0.182D-02-0.971D-01 0.110D+01
 Coeff:      0.898D-03-0.182D-02-0.971D-01 0.110D+01
 Gap=     0.379 Goal=   None    Shift=    0.000
 RMSDP=2.54D-09 MaxDP=5.36D-08 DE=-7.96D-12 OVMax= 2.59D-07

 SCF Done:  E(UM062X) = -0.587454867599     A.U. after    8 cycles
            NFock=  8  Conv=0.25D-08     -V/T= 2.1423
 <Sx>= 0.0000 <Sy>= 0.0000 <Sz>= 0.5000 <S**2>= 0.7500 S= 0.5000
 <L.S>= 0.000000000000E+00
 KE= 5.142624460844D-01 PE=-1.423477408291D+00 EE=-1.191375640632D-02
 Annihilation of the first spin contaminant:
 S**2 before annihilation     0.7500,   after     0.7500
 Leave Link  502 at Sun Apr 18 20:01:39 2021, MaxMem=   104857600 cpu:              70.6 elap:               1.6
 (Enter /s/ls4/users/knvvv/bin/g16sse/l601.exe)
 Copying SCF densities to generalized density rwf, IOpCl= 1 IROHF=0.

 **********************************************************************

            Population analysis using the SCF density.

 **********************************************************************

 Orbital symmetries:
 Alpha Orbitals:
       Occupied  (SGG)
       Virtual   (SGU) (SGG) (SGU) (PIU) (PIU) (SGG) (PIG) (PIG)
                 (SGU) (SGG) (SGU) (SGG) (DLTG) (DLTG) (DLTU) (DLTU)
                 (PIU) (PIU) (PIG) (PIG) (PIU) (PIU) (PIG) (PIG)
                 (SGU) (SGG) (SGU) (SGG) (SGU) (SGG) (DLTG) (DLTG)
                 (PHIU) (PHIU) (PHIG) (PHIG) (DLTU) (DLTU) (PIG)
                 (PIG) (PIU) (PIU) (SGG) (SGU) (PIG) (PIG) (DLTG)
                 (DLTG) (PIU) (PIU) (PIU) (PIU) (DLTU) (DLTU) (PIG)
                 (PIG) (SGG) (SGU) (SGU)
 Beta  Orbitals:
       Virtual   (SGG) (SGU) (PIU) (PIU) (SGG) (PIG) (PIG) (SGG)
                 (SGU) (SGU) (SGG) (SGU) (PIU) (PIU) (DLTG) (DLTG)
                 (SGG) (DLTU) (DLTU) (PIU) (PIU) (PIG) (PIG) (PIG)
                 (PIG) (SGU) (SGG) (SGU) (SGG) (SGU) (PIU) (PIU)
                 (DLTG) (DLTG) (PHIU) (PHIU) (PHIG) (PHIG) (SGG)
                 (DLTU) (DLTU) (PIG) (PIG) (SGU) (PIU) (PIU) (SGG)
                 (PIG) (PIG) (DLTG) (DLTG) (PIU) (PIU) (DLTU) (DLTU)
                 (SGU) (PIG) (PIG) (SGG) (SGU)
 The electronic state is 2-SGG.
 Alpha  occ. eigenvalues --   -0.81895
 Alpha virt. eigenvalues --   -0.43972  -0.08876  -0.03879   0.08662   0.08662
 Alpha virt. eigenvalues --    0.17553   0.29431   0.29431   0.61079   0.72030
 Alpha virt. eigenvalues --    0.81632   1.34006   1.47610   1.47610   1.68998
 Alpha virt. eigenvalues --    1.68998   1.72711   1.72711   1.82971   1.82971
 Alpha virt. eigenvalues --    1.94186   1.94186   2.16505   2.16505   2.17044
 Alpha virt. eigenvalues --    2.22273   3.19787   4.19580   4.33779   5.17702
 Alpha virt. eigenvalues --    5.20135   5.20135   5.33038   5.33038   5.36178
 Alpha virt. eigenvalues --    5.36178   5.46266   5.46268   5.99929   5.99929
 Alpha virt. eigenvalues --    6.54878   6.54878   6.71741   6.72878   6.82577
 Alpha virt. eigenvalues --    6.82577   7.08548   7.08548   7.08907   7.08907
 Alpha virt. eigenvalues --    7.13227   7.13227   7.22245   7.22245   7.57900
 Alpha virt. eigenvalues --    7.57900   7.90165   7.96460  19.49145
  Beta virt. eigenvalues --   -1.02577  -0.86495  -0.38655  -0.38655  -0.24241
  Beta virt. eigenvalues --   -0.13704  -0.13704  -0.07684  -0.00328   0.25826
  Beta virt. eigenvalues --    0.49281   0.50767   0.87481   0.87481   0.89657
  Beta virt. eigenvalues --    0.89657   1.07707   1.09539   1.09539   1.34146
  Beta virt. eigenvalues --    1.34146   1.43276   1.43276   1.57947   1.57947
  Beta virt. eigenvalues --    1.65904   1.67743   2.35345   4.17720   4.33590
  Beta virt. eigenvalues --    4.56106   4.56106   4.73099   4.73099   4.81888
  Beta virt. eigenvalues --    4.81888   4.85073   4.85073   4.85544   5.04486
  Beta virt. eigenvalues --    5.04486   5.58653   5.58653   5.86224   6.59383
  Beta virt. eigenvalues --    6.59383   6.65654   6.71373   6.71373   6.88627
  Beta virt. eigenvalues --    6.88627   6.98575   6.98575   6.99835   6.99835
  Beta virt. eigenvalues --    7.24571   7.37352   7.37352   7.60128   8.40562
          Condensed to atoms (all electrons):
               1          2
     1  H    0.375498   0.124502
     2  H    0.124502   0.375498
          Atomic-Atomic Spin Densities.
               1          2
     1  H    0.375498   0.124502
     2  H    0.124502   0.375498
 Mulliken charges and spin densities:
               1          2
     1  H    0.500000   0.500000
     2  H    0.500000   0.500000
 Sum of Mulliken charges =   1.00000   1.00000
 Mulliken charges and spin densities with hydrogens summed into heavy atoms:
               1          2
 Electronic spatial extent (au):  <R**2>=              3.8332
 Charge=              1.0000 electrons
 Dipole moment (field-independent basis, Debye):
    X=              0.0000    Y=             -0.0000    Z=             -0.0000  Tot=              0.0000
 Quadrupole moment (field-independent basis, Debye-Ang):
   XX=             -1.0693   YY=             -1.0693   ZZ=              3.0231
   XY=              0.0000   XZ=             -0.0000   YZ=              0.0000
 Traceless Quadrupole moment (field-independent basis, Debye-Ang):
   XX=             -1.3641   YY=             -1.3641   ZZ=              2.7283
   XY=              0.0000   XZ=             -0.0000   YZ=              0.0000
 Octapole moment (field-independent basis, Debye-Ang**2):
  XXX=             -0.0000  YYY=             -0.0000  ZZZ=              0.0000  XYY=             -0.0000
  XXY=             -0.0000  XXZ=              0.0000  XZZ=              0.0000  YZZ=             -0.0000
  YYZ=              0.0000  XYZ=              0.0000
 Hexadecapole moment (field-independent basis, Debye-Ang**3):
 XXXX=             -0.9989 YYYY=             -0.9989 ZZZZ=             -0.5111 XXXY=              0.0000
 XXXZ=              0.0000 YYYX=              0.0000 YYYZ=              0.0000 ZZZX=             -0.0000
 ZZZY=              0.0000 XXYY=             -0.3330 XXZZ=             -0.7184 YYZZ=             -0.7184
 XXYZ=              0.0000 YYXZ=              0.0000 ZZXY=              0.0000
 N-N= 3.336738510144D-01 E-N=-1.423477424655D+00  KE= 5.142624460844D-01
                          Isotropic Fermi Contact Couplings
        Atom                 a.u.       MegaHertz       Gauss      10(-4) cm-1
     1  H(1)               0.17635     788.28118     281.27833     262.94230
     2  H(1)               0.17635     788.28118     281.27833     262.94230
 --------------------------------------------------------
       Center         ----  Spin Dipole Couplings  ----
                      3XX-RR        3YY-RR        3ZZ-RR
 --------------------------------------------------------
     1   Atom       -0.036208     -0.036208      0.072416
     2   Atom       -0.036208     -0.036208      0.072416
 --------------------------------------------------------
                        XY            XZ            YZ
 --------------------------------------------------------
     1   Atom        0.000000     -0.000000      0.000000
     2   Atom        0.000000     -0.000000      0.000000
 --------------------------------------------------------


 ---------------------------------------------------------------------------------
              Anisotropic Spin Dipole Couplings in Principal Axis System
 ---------------------------------------------------------------------------------

       Atom             a.u.   MegaHertz   Gauss  10(-4) cm-1        Axes

              Baa    -0.0362   -19.319    -6.893    -6.444  0.0231  0.9997  0.0000
     1 H(1)   Bbb    -0.0362   -19.319    -6.893    -6.444  0.9997 -0.0231  0.0000
              Bcc     0.0724    38.638    13.787    12.888 -0.0000  0.0000  1.0000
 
              Baa    -0.0362   -19.319    -6.893    -6.444  0.0231  0.9997  0.0000
     2 H(1)   Bbb    -0.0362   -19.319    -6.893    -6.444  0.9997 -0.0231  0.0000
              Bcc     0.0724    38.638    13.787    12.888 -0.0000  0.0000  1.0000
 

 ---------------------------------------------------------------------------------

 No NMR shielding tensors so no spin-rotation constants.
 Leave Link  601 at Sun Apr 18 20:01:41 2021, MaxMem=   104857600 cpu:              93.8 elap:               2.0
 (Enter /s/ls4/users/knvvv/bin/g16sse/l801.exe)
 DoSCS=F DFT=T ScalE2(SS,OS)=  1.000000  1.000000
 Range of M.O.s used for correlation:     1    60
 NBasis=    60 NAE=     1 NBE=     0 NFC=     0 NFV=     0
 NROrb=     60 NOA=     1 NOB=     0 NVA=    59 NVB=    60
 *** There is no correlation energy for this system ***
 Leave Link  801 at Sun Apr 18 20:01:42 2021, MaxMem=   104857600 cpu:               4.9 elap:               0.2
 (Enter /s/ls4/users/knvvv/bin/g16sse/l914.exe)
 UHF ground state
 Doing stability rather than CIS.
 Keep R1 and R2 ints in memory in symmetry-blocked form, NReq=71050757.
 FoFCou: FMM=F IPFlag=           0 FMFlag=           0 FMFlg1=           0
         NFxFlg=           0 DoJE=F BraDBF=F KetDBF=F FulRan=T
         wScrn=  0.000000 ICntrl=       600 IOpCl=  0 I1Cent=           0 NGrid=           0
         NMat0=    1 NMatS0=   1830 NMatT0=    0 NMatD0=    1 NMtDS0=    0 NMtDT0=    0
 Petite list used in FoFCou.
 MDV=   104857600 DFT=T DoStab=T Mixed=T DoRPA=F DoScal=F NonHer=F
 Making orbital integer symmetry assigments:
 Orbital symmetries:
 Alpha Orbitals:
       Occupied  (SGG)
       Virtual   (SGU) (SGG) (SGU) (PIU) (PIU) (SGG) (PIG) (PIG)
                 (SGU) (SGG) (SGU) (SGG) (DLTG) (DLTG) (DLTU) (DLTU)
                 (PIU) (PIU) (PIG) (PIG) (PIU) (PIU) (PIG) (PIG)
                 (SGU) (SGG) (SGU) (SGG) (SGU) (SGG) (DLTG) (DLTG)
                 (PHIU) (PHIU) (PHIG) (PHIG) (DLTU) (DLTU) (PIG)
                 (PIG) (PIU) (PIU) (SGG) (SGU) (PIG) (PIG) (DLTG)
                 (DLTG) (PIU) (PIU) (PIU) (PIU) (DLTU) (DLTU) (PIG)
                 (PIG) (SGG) (SGU) (SGU)
 Beta  Orbitals:
       Virtual   (SGG) (SGU) (PIU) (PIU) (SGG) (PIG) (PIG) (SGG)
                 (SGU) (SGU) (SGG) (SGU) (PIU) (PIU) (DLTG) (DLTG)
                 (SGG) (DLTU) (DLTU) (PIU) (PIU) (PIG) (PIG) (PIG)
                 (PIG) (SGU) (SGG) (SGU) (SGG) (SGU) (PIU) (PIU)
                 (DLTG) (DLTG) (PHIU) (PHIU) (PHIG) (PHIG) (SGG)
                 (DLTU) (DLTU) (PIG) (PIG) (SGU) (PIU) (PIU) (SGG)
                 (PIG) (PIG) (DLTG) (DLTG) (PIU) (PIU) (DLTU) (DLTU)
                 (SGU) (PIG) (PIG) (SGG) (SGU)
    24 initial guesses have been made.
 Convergence on wavefunction:    0.001000000000000
 Davidson Disk Diagonalization:  ConvIn= 1.00D-03 SkipCon=T Conv= 1.00D-03.
 Max sub-space:   118 roots to seek:    24 dimension of matrix:           59
 Iteration     1 Dimension    24 NMult     0 NNew     24
 CISAX will form    24 AO SS matrices at one time.
 NMat=    24 NSing=    24 JSym2X= 2.
 Excitation Energies [eV] at current iteration:
 Root      1 :     8.208010053809934
 Root      2 :    16.949125379186270
 Root      3 :    18.720274303682570
 Root      4 :    18.720274303682750
 Root      5 :    18.790029239941180
 Root      6 :    20.822871658630900
 Root      7 :    23.554469662426770
 Root      8 :    23.554469662426910
 Root      9 :    32.357233004445140
 Root     10 :    37.006399917431690
 Root     11 :    37.832992162288210
 Root     12 :    48.997947561864780
 Root     13 :    53.073790243630420
 Root     14 :    53.074010508572740
 Root     15 :    54.118989548291980
 Root     16 :    54.118989548292090
 Root     17 :    58.088080460700070
 Root     18 :    58.088430667546860
 Root     19 :    66.061311952588880
 Root     20 :    66.061311952588880
 Root     21 :    66.573706513301530
 Root     22 :    66.573706513301810
 Root     23 :    69.867501231728110
 Root     24 :    69.867501231728340
 Iteration     2 Dimension    48 NMult    24 NNew     24
 CISAX will form    24 AO SS matrices at one time.
 NMat=    24 NSing=    24 JSym2X= 2.
 Root      1 not converged, maximum delta is    0.038951971339823
 Excitation Energies [eV] at current iteration:
 Root      1 :     7.910473664805806   Change is   -0.297536389004129
 Root      2 :    16.925023599548170   Change is   -0.024101779638096
 Root      3 :    18.228700354757780   Change is   -0.491573948924783
 Root      4 :    18.228700354757890   Change is   -0.491573948924858
 Root      5 :    18.596559046681340   Change is   -0.193470193259843
 Root      6 :    20.754024116395650   Change is   -0.068847542235252
 Root      7 :    23.535457808846900   Change is   -0.019011853579875
 Root      8 :    23.535457808847140   Change is   -0.019011853579763
 Root      9 :    31.824289450116220   Change is   -0.532943554328924
 Root     10 :    36.939212262260980   Change is   -0.067187655170712
 Root     11 :    37.491932576239880   Change is   -0.341059586048326
 Root     12 :    48.354422117764610   Change is   -0.643525444100171
 Root     13 :    49.493474600791800   Change is   -4.625514947500179
 Root     14 :    49.493474600791880   Change is   -4.625514947500209
 Root     15 :    52.948458632963810   Change is   -0.125331610666616
 Root     16 :    52.948742981472120   Change is   -0.125267527100616
 Root     17 :    57.906425842899970   Change is   -0.181654617800099
 Root     18 :    57.906797097430800   Change is   -0.181633570116063
 Root     19 :    64.739601853375870   Change is   -1.321710099213005
 Root     20 :    64.739601853375890   Change is   -1.321710099212981
 Root     21 :    66.130112075480680   Change is   -0.443594437820849
 Root     22 :    66.130112075480910   Change is   -0.443594437820898
 Root     23 :    69.720093061577500   Change is   -0.147408170150620
 Root     24 :    69.720093061577730   Change is   -0.147408170150620
 Iteration     3 Dimension    51 NMult    48 NNew      3
 CISAX will form     3 AO SS matrices at one time.
 NMat=     3 NSing=     3 JSym2X= 2.
 Root      1 not converged, maximum delta is    0.004670487391145
 Excitation Energies [eV] at current iteration:
 Root      1 :     7.904617379329990   Change is   -0.005856285475816
 Root      2 :    16.924929883265980   Change is   -0.000093716282194
 Root      3 :    18.228700354277710   Change is   -0.000000000480075
 Iteration     4 Dimension    52 NMult    51 NNew      1
 CISAX will form     1 AO SS matrices at one time.
 NMat=     1 NSing=     1 JSym2X= 2.
 Root      1 has converged.
 Excitation Energies [eV] at current iteration:
 Root      1 :     7.904612687789949   Change is   -0.000004691540041
 Root      2 :    16.924929883265850   Change is   -0.000000000000127
 Root      3 :    18.228700354277760   Change is    0.000000000000048
 Convergence achieved on expansion vectors.
 ***********************************************************************
 Stability analysis using <AA,BB:AA,BB> singles matrix:
 ***********************************************************************
 1PDM for each excited state written to RWF  633
 Ground to excited state transition densities written to RWF  633

 Eigenvectors of the stability matrix:
 
 Eigenvector   1:  2.000-SGU  Eigenvalue= 0.2904892  <S**2>=0.750
      1A ->  2A        0.99808
 The wavefunction is stable under the perturbations considered.
 Leave Link  914 at Sun Apr 18 20:01:49 2021, MaxMem=   104857600 cpu:             353.8 elap:               7.6
 (Enter /s/ls4/users/knvvv/bin/g16sse/l508.exe)
 The wavefunction is already stable.
 Leave Link  508 at Sun Apr 18 20:01:49 2021, MaxMem=   104857600 cpu:               2.2 elap:               0.1
 (Enter /s/ls4/users/knvvv/bin/g16sse/l601.exe)
 Copying SCF densities to generalized density rwf, IOpCl= 1 IROHF=0.

 **********************************************************************

            Population analysis using the SCF density.

 **********************************************************************

 Orbital symmetries:
 Alpha Orbitals:
       Occupied  (SGG)
       Virtual   (SGU) (SGG) (SGU) (PIU) (PIU) (SGG) (PIG) (PIG)
                 (SGU) (SGG) (SGU) (SGG) (DLTG) (DLTG) (DLTU) (DLTU)
                 (PIU) (PIU) (PIG) (PIG) (PIU) (PIU) (PIG) (PIG)
                 (SGU) (SGG) (SGU) (SGG) (SGU) (SGG) (DLTG) (DLTG)
                 (PHIU) (PHIU) (PHIG) (PHIG) (DLTU) (DLTU) (PIG)
                 (PIG) (PIU) (PIU) (SGG) (SGU) (PIG) (PIG) (DLTG)
                 (DLTG) (PIU) (PIU) (PIU) (PIU) (DLTU) (DLTU) (PIG)
                 (PIG) (SGG) (SGU) (SGU)
 Beta  Orbitals:
       Virtual   (SGG) (SGU) (PIU) (PIU) (SGG) (PIG) (PIG) (SGG)
                 (SGU) (SGU) (SGG) (SGU) (PIU) (PIU) (DLTG) (DLTG)
                 (SGG) (DLTU) (DLTU) (PIU) (PIU) (PIG) (PIG) (PIG)
                 (PIG) (SGU) (SGG) (SGU) (SGG) (SGU) (PIU) (PIU)
                 (DLTG) (DLTG) (PHIU) (PHIU) (PHIG) (PHIG) (SGG)
                 (DLTU) (DLTU) (PIG) (PIG) (SGU) (PIU) (PIU) (SGG)
                 (PIG) (PIG) (DLTG) (DLTG) (PIU) (PIU) (DLTU) (DLTU)
                 (SGU) (PIG) (PIG) (SGG) (SGU)
 The electronic state is 2-SGG.
 Alpha  occ. eigenvalues --   -0.81895
 Alpha virt. eigenvalues --   -0.43972  -0.08876  -0.03879   0.08662   0.08662
 Alpha virt. eigenvalues --    0.17553   0.29431   0.29431   0.61079   0.72030
 Alpha virt. eigenvalues --    0.81632   1.34006   1.47610   1.47610   1.68998
 Alpha virt. eigenvalues --    1.68998   1.72711   1.72711   1.82971   1.82971
 Alpha virt. eigenvalues --    1.94186   1.94186   2.16505   2.16505   2.17044
 Alpha virt. eigenvalues --    2.22273   3.19787   4.19580   4.33779   5.17702
 Alpha virt. eigenvalues --    5.20135   5.20135   5.33038   5.33038   5.36178
 Alpha virt. eigenvalues --    5.36178   5.46266   5.46268   5.99929   5.99929
 Alpha virt. eigenvalues --    6.54878   6.54878   6.71741   6.72878   6.82577
 Alpha virt. eigenvalues --    6.82577   7.08548   7.08548   7.08907   7.08907
 Alpha virt. eigenvalues --    7.13227   7.13227   7.22245   7.22245   7.57900
 Alpha virt. eigenvalues --    7.57900   7.90165   7.96460  19.49145
  Beta virt. eigenvalues --   -1.02577  -0.86495  -0.38655  -0.38655  -0.24241
  Beta virt. eigenvalues --   -0.13704  -0.13704  -0.07684  -0.00328   0.25826
  Beta virt. eigenvalues --    0.49281   0.50767   0.87481   0.87481   0.89657
  Beta virt. eigenvalues --    0.89657   1.07707   1.09539   1.09539   1.34146
  Beta virt. eigenvalues --    1.34146   1.43276   1.43276   1.57947   1.57947
  Beta virt. eigenvalues --    1.65904   1.67743   2.35345   4.17720   4.33590
  Beta virt. eigenvalues --    4.56106   4.56106   4.73099   4.73099   4.81888
  Beta virt. eigenvalues --    4.81888   4.85073   4.85073   4.85544   5.04486
  Beta virt. eigenvalues --    5.04486   5.58653   5.58653   5.86224   6.59383
  Beta virt. eigenvalues --    6.59383   6.65654   6.71373   6.71373   6.88627
  Beta virt. eigenvalues --    6.88627   6.98575   6.98575   6.99835   6.99835
  Beta virt. eigenvalues --    7.24571   7.37352   7.37352   7.60128   8.40562
          Condensed to atoms (all electrons):
               1          2
     1  H    0.375498   0.124502
     2  H    0.124502   0.375498
          Atomic-Atomic Spin Densities.
               1          2
     1  H    0.375498   0.124502
     2  H    0.124502   0.375498
 Mulliken charges and spin densities:
               1          2
     1  H    0.500000   0.500000
     2  H    0.500000   0.500000
 Sum of Mulliken charges =   1.00000   1.00000
 Mulliken charges and spin densities with hydrogens summed into heavy atoms:
               1          2
 Electronic spatial extent (au):  <R**2>=              3.8332
 Charge=              1.0000 electrons
 Dipole moment (field-independent basis, Debye):
    X=              0.0000    Y=             -0.0000    Z=             -0.0000  Tot=              0.0000
 Quadrupole moment (field-independent basis, Debye-Ang):
   XX=             -1.0693   YY=             -1.0693   ZZ=              3.0231
   XY=              0.0000   XZ=             -0.0000   YZ=              0.0000
 Traceless Quadrupole moment (field-independent basis, Debye-Ang):
   XX=             -1.3641   YY=             -1.3641   ZZ=              2.7283
   XY=              0.0000   XZ=             -0.0000   YZ=              0.0000
 Octapole moment (field-independent basis, Debye-Ang**2):
  XXX=             -0.0000  YYY=             -0.0000  ZZZ=              0.0000  XYY=             -0.0000
  XXY=             -0.0000  XXZ=              0.0000  XZZ=              0.0000  YZZ=             -0.0000
  YYZ=              0.0000  XYZ=              0.0000
 Hexadecapole moment (field-independent basis, Debye-Ang**3):
 XXXX=             -0.9989 YYYY=             -0.9989 ZZZZ=             -0.5111 XXXY=              0.0000
 XXXZ=              0.0000 YYYX=              0.0000 YYYZ=              0.0000 ZZZX=             -0.0000
 ZZZY=              0.0000 XXYY=             -0.3330 XXZZ=             -0.7184 YYZZ=             -0.7184
 XXYZ=              0.0000 YYXZ=              0.0000 ZZXY=              0.0000
 N-N= 3.336738510144D-01 E-N=-1.423477424655D+00  KE= 5.142624460844D-01
                          Isotropic Fermi Contact Couplings
        Atom                 a.u.       MegaHertz       Gauss      10(-4) cm-1
     1  H(1)               0.17635     788.28118     281.27833     262.94230
     2  H(1)               0.17635     788.28118     281.27833     262.94230
 --------------------------------------------------------
       Center         ----  Spin Dipole Couplings  ----
                      3XX-RR        3YY-RR        3ZZ-RR
 --------------------------------------------------------
     1   Atom       -0.036208     -0.036208      0.072416
     2   Atom       -0.036208     -0.036208      0.072416
 --------------------------------------------------------
                        XY            XZ            YZ
 --------------------------------------------------------
     1   Atom        0.000000     -0.000000      0.000000
     2   Atom        0.000000     -0.000000      0.000000
 --------------------------------------------------------


 ---------------------------------------------------------------------------------
              Anisotropic Spin Dipole Couplings in Principal Axis System
 ---------------------------------------------------------------------------------

       Atom             a.u.   MegaHertz   Gauss  10(-4) cm-1        Axes

              Baa    -0.0362   -19.319    -6.893    -6.444  0.0231  0.9997  0.0000
     1 H(1)   Bbb    -0.0362   -19.319    -6.893    -6.444  0.9997 -0.0231  0.0000
              Bcc     0.0724    38.638    13.787    12.888 -0.0000  0.0000  1.0000
 
              Baa    -0.0362   -19.319    -6.893    -6.444  0.0231  0.9997  0.0000
     2 H(1)   Bbb    -0.0362   -19.319    -6.893    -6.444  0.9997 -0.0231  0.0000
              Bcc     0.0724    38.638    13.787    12.888 -0.0000  0.0000  1.0000
 

 ---------------------------------------------------------------------------------

 No NMR shielding tensors so no spin-rotation constants.
 Leave Link  601 at Sun Apr 18 20:01:51 2021, MaxMem=   104857600 cpu:              92.9 elap:               2.0
 (Enter /s/ls4/users/knvvv/bin/g16sse/l9999.exe)

 Test job not archived.
 1\1\GINC-N151\Stability\UM062X\def2QZVP\H2(1+,2)\KNVVV\18-Apr-2021\0\\
 #P M062X/Def2QZVP Integral=UltraFineGrid SCF=NoSymm Stable=(RExt, Opt)
  IOp(1/33=1)\\Database calculations.\\1,2\H,0,0.,0.,-0.79295577\H,0,0.
 ,0.,0.79295577\\Version=ES64L-G16RevA.03\State=2-SGG\HF=-0.5874549\S2=
 0.75\S2-1=0.\S2A=0.75\RMSD=2.542e-09\Dipole=0.,0.,0.\Quadrupole=-1.014
 2113,-1.0142113,2.0284227,0.,0.,0.\PG=D*H [C*(H1.H1)]\\@


 IF AT FIRST YOU DON'T SUCCEED, TRY, TRY AGAIN.
 THEN GIVE UP;
 THERE'S NO USE BEING A DAMN FOOL ABOUT IT.

                                 -- W. C. FIELDS
 Job cpu time:       0 days  0 hours 15 minutes 41.0 seconds.
 Elapsed time:       0 days  0 hours  0 minutes 21.8 seconds.
 File lengths (MBytes):  RWF=      6 Int=      0 D2E=      0 Chk=      2 Scr=      1
 Normal termination of Gaussian 16 at Sun Apr 18 20:01:52 2021.
