 Entering Gaussian System, Link 0=/s/ls4/users/knvvv/bin/g16sse/g16
 Input=data/database/M062X--def2-QZVP--MB16-43_28.gjf
 Output=data/database/M062X--def2-QZVP--MB16-43_28.log
 Initial command:
 /s/ls4/users/knvvv/bin/g16sse/l1.exe "/s/ls4/users/knvvv/bin/scratch/Gau-48515.inp" -scrdir="/s/ls4/users/knvvv/bin/scratch/"
 Entering Link 1 = /s/ls4/users/knvvv/bin/g16sse/l1.exe PID=     48516.
  
 Copyright (c) 1988,1990,1992,1993,1995,1998,2003,2009,2016,
            Gaussian, Inc.  All Rights Reserved.
  
 This is part of the Gaussian(R) 16 program.  It is based on
 the Gaussian(R) 09 system (copyright 2009, Gaussian, Inc.),
 the Gaussian(R) 03 system (copyright 2003, Gaussian, Inc.),
 the Gaussian(R) 98 system (copyright 1998, Gaussian, Inc.),
 the Gaussian(R) 94 system (copyright 1995, Gaussian, Inc.),
 the Gaussian 92(TM) system (copyright 1992, Gaussian, Inc.),
 the Gaussian 90(TM) system (copyright 1990, Gaussian, Inc.),
 the Gaussian 88(TM) system (copyright 1988, Gaussian, Inc.),
 the Gaussian 86(TM) system (copyright 1986, Carnegie Mellon
 University), and the Gaussian 82(TM) system (copyright 1983,
 Carnegie Mellon University). Gaussian is a federally registered
 trademark of Gaussian, Inc.
  
 This software contains proprietary and confidential information,
 including trade secrets, belonging to Gaussian, Inc.
  
 This software is provided under written license and may be
 used, copied, transmitted, or stored only in accord with that
 written license.
  
 The following legend is applicable only to US Government
 contracts under FAR:
  
                    RESTRICTED RIGHTS LEGEND
  
 Use, reproduction and disclosure by the US Government is
 subject to restrictions as set forth in subparagraphs (a)
 and (c) of the Commercial Computer Software - Restricted
 Rights clause in FAR 52.227-19.
  
 Gaussian, Inc.
 340 Quinnipiac St., Bldg. 40, Wallingford CT 06492
  
  
 ---------------------------------------------------------------
 Warning -- This program may not be used in any manner that
 competes with the business of Gaussian, Inc. or will provide
 assistance to any competitor of Gaussian, Inc.  The licensee
 of this program is prohibited from giving any competitor of
 Gaussian, Inc. access to this program.  By using this program,
 the user acknowledges that Gaussian, Inc. is engaged in the
 business of creating and licensing software in the field of
 computational chemistry and represents and warrants to the
 licensee that it is not a competitor of Gaussian, Inc. and that
 it will not use this program in any manner prohibited above.
 ---------------------------------------------------------------
  

 Cite this work as:
 Gaussian 16, Revision A.03,
 M. J. Frisch, G. W. Trucks, H. B. Schlegel, G. E. Scuseria, 
 M. A. Robb, J. R. Cheeseman, G. Scalmani, V. Barone, 
 G. A. Petersson, H. Nakatsuji, X. Li, M. Caricato, A. V. Marenich, 
 J. Bloino, B. G. Janesko, R. Gomperts, B. Mennucci, H. P. Hratchian, 
 J. V. Ortiz, A. F. Izmaylov, J. L. Sonnenberg, D. Williams-Young, 
 F. Ding, F. Lipparini, F. Egidi, J. Goings, B. Peng, A. Petrone, 
 T. Henderson, D. Ranasinghe, V. G. Zakrzewski, J. Gao, N. Rega, 
 G. Zheng, W. Liang, M. Hada, M. Ehara, K. Toyota, R. Fukuda, 
 J. Hasegawa, M. Ishida, T. Nakajima, Y. Honda, O. Kitao, H. Nakai, 
 T. Vreven, K. Throssell, J. A. Montgomery, Jr., J. E. Peralta, 
 F. Ogliaro, M. J. Bearpark, J. J. Heyd, E. N. Brothers, K. N. Kudin, 
 V. N. Staroverov, T. A. Keith, R. Kobayashi, J. Normand, 
 K. Raghavachari, A. P. Rendell, J. C. Burant, S. S. Iyengar, 
 J. Tomasi, M. Cossi, J. M. Millam, M. Klene, C. Adamo, R. Cammi, 
 J. W. Ochterski, R. L. Martin, K. Morokuma, O. Farkas, 
 J. B. Foresman, and D. J. Fox, Gaussian, Inc., Wallingford CT, 2016.
 
 ******************************************
 Gaussian 16:  ES64L-G16RevA.03 25-Dec-2016
                17-Apr-2021 
 ******************************************
 %RWF=temp5_53492,70GB
 %nprocshared=48
 Will use up to   48 processors via shared memory.
 Default route: MaxDisk=80GB
 ----------------------------------------------------------------------
 #P M062X/Def2QZVP Integral=UltraFineGrid SCF=NoSymm Stable=(RExt, Opt)
  IOp(1/33=1)
 ----------------------------------------------------------------------
 1/33=1,38=1,172=1/1;
 2/12=2,17=6,18=5,40=1/2;
 3/5=45,7=101,11=2,25=1,30=1,74=-55,75=-5/1,2,3;
 4/9=2/1;
 5/5=2,38=5/2;
 6/7=2,8=2,9=2,10=2,28=1/1;
 8/6=1,10=90,11=11/1;
 9/8=-3,42=1,46=1/14;
 5/5=2,8=3,17=40,38=5/8(-2);
 6/7=2,8=2,9=2,10=2,28=1/1;
 99/5=1,9=1/99;
 Leave Link    1 at Sat Apr 17 05:22:59 2021, MaxMem=           0 cpu:               9.1 elap:               0.2
 (Enter /s/ls4/users/knvvv/bin/g16sse/l101.exe)
 ONIOM data not found on unit 2.
 ----------------------
 Database calculations.
 ----------------------
 TstMul:  ICh=     0
 TstMul:  Mul=     2
 TstMul:  ICh=     0
 TstMul:  Mul=     2
 Symbolic Z-matrix:
 Charge =  0 Multiplicity = 2
 N                    -2.52477   0.27476  -0.01179 
 N                    -1.16209   0.85062  -0.03276 
 H                    -1.60906  -1.08885  -1.09378 
 F                    -0.04916  -1.30706  -1.60575 
 H                    -0.31651  -1.05047   0.93201 
 H                     2.48473   0.53169   1.07044 
 H                    -0.8375    0.90881  -1.00839 
 B                     1.57918   0.75082   0.30481 
 H                     1.42465   1.90468   0.00317 
 B                    -0.01661   0.17031   0.92721 
 H                    -0.17331   0.54313   2.04895 
 Al                    1.093    -1.1995   -0.31458 
 H                     1.93455  -2.47095   0.03301 
 O                    -2.51893  -0.86809  -0.72892 
 H                     1.98233   0.23841  -0.81791 
 H                    -1.29048   1.81169   0.29428 
 
 RdStrC is calling ZToCFu for IStruc=1 NZ=    16.
 PrtBox:  NBox=     3 Levels=  1 BoxLen=    8.00 SMaxX=        9.47
          Shift=            4.771133            4.669423            3.034428
 Box      1 Number                   0 centers from      1 to     11:
 Box      2 Number                   2 centers from     12 to     13:
 Box      3 Number                   4 centers from     14 to     16:
 After GenITR:
 ITRead=  0  0  0  0  0  0  0  0  0  0  0  0  0  0  0  0
 MicOpt= -1 -1 -1 -1 -1 -1 -1 -1 -1 -1 -1 -1 -1 -1 -1 -1
 ITRead=  0  0  0  0  0  0  0  0  0  0  0  0  0  0  0  0
 MicOpt= -1 -1 -1 -1 -1 -1 -1 -1 -1 -1 -1 -1 -1 -1 -1 -1
 NAtoms=     16 NQM=       16 NQMF=       0 NMMI=      0 NMMIF=      0
                NMic=       0 NMicF=      0.
                    Isotopes and Nuclear Properties:
 (Nuclear quadrupole moments (NQMom) in fm**2, nuclear magnetic moments (NMagM)
  in nuclear magnetons)

  Atom         1           2           3           4           5           6           7           8           9          10
 IAtWgt=          14          14           1          19           1           1           1          11           1          11
 AtmWgt=  14.0030740  14.0030740   1.0078250  18.9984033   1.0078250   1.0078250   1.0078250  11.0093053   1.0078250  11.0093053
 NucSpn=           2           2           1           1           1           1           1           3           1           3
 AtZEff=  -0.0000000  -0.0000000  -0.0000000  -0.0000000  -0.0000000  -0.0000000  -0.0000000  -0.0000000  -0.0000000  -0.0000000
 NQMom=    2.0440000   2.0440000   0.0000000   0.0000000   0.0000000   0.0000000   0.0000000   4.0590000   0.0000000   4.0590000
 NMagM=    0.4037610   0.4037610   2.7928460   2.6288670   2.7928460   2.7928460   2.7928460   2.6886370   2.7928460   2.6886370
 AtZNuc=   7.0000000   7.0000000   1.0000000   9.0000000   1.0000000   1.0000000   1.0000000   5.0000000   1.0000000   5.0000000

  Atom        11          12          13          14          15          16
 IAtWgt=           1          27           1          16           1           1
 AtmWgt=   1.0078250  26.9815413   1.0078250  15.9949146   1.0078250   1.0078250
 NucSpn=           1           5           1           0           1           1
 AtZEff=  -0.0000000  -0.0000000  -0.0000000  -0.0000000  -0.0000000  -0.0000000
 NQMom=    0.0000000  14.6600000   0.0000000   0.0000000   0.0000000   0.0000000
 NMagM=    2.7928460   3.6415040   2.7928460   0.0000000   2.7928460   2.7928460
 AtZNuc=   1.0000000  13.0000000   1.0000000   8.0000000   1.0000000   1.0000000
 No MM parameters found.
 Leave Link  101 at Sat Apr 17 05:22:59 2021, MaxMem=   104857600 cpu:               9.8 elap:               0.2
 (Enter /s/ls4/users/knvvv/bin/g16sse/l202.exe)
                          Input orientation:                          
 ---------------------------------------------------------------------
 Center     Atomic      Atomic             Coordinates (Angstroms)
 Number     Number       Type             X           Y           Z
 ---------------------------------------------------------------------
      1          7           0       -2.524775    0.274757   -0.011788
      2          7           0       -1.162094    0.850616   -0.032762
      3          1           0       -1.609059   -1.088848   -1.093776
      4          9           0       -0.049161   -1.307064   -1.605750
      5          1           0       -0.316515   -1.050465    0.932011
      6          1           0        2.484728    0.531693    1.070437
      7          1           0       -0.837504    0.908815   -1.008388
      8          5           0        1.579176    0.750820    0.304806
      9          1           0        1.424653    1.904678    0.003171
     10          5           0       -0.016608    0.170312    0.927213
     11          1           0       -0.173308    0.543130    2.048948
     12         13           0        1.092997   -1.199498   -0.314578
     13          1           0        1.934548   -2.470952    0.033009
     14          8           0       -2.518930   -0.868090   -0.728921
     15          1           0        1.982329    0.238412   -0.817913
     16          1           0       -1.290479    1.811685    0.294281
 ---------------------------------------------------------------------
                    Distance matrix (angstroms):
                    1          2          3          4          5
     1  N    0.000000
     2  N    1.479511   0.000000
     3  H    1.966889   2.255449   0.000000
     4  F    3.342385   2.892835   1.656205   0.000000
     5  H    2.742878   2.293448   2.403321   2.564674   0.000000
     6  H    5.131505   3.823358   4.906022   4.118688   3.220147
     7  H    2.059642   1.029850   2.143185   2.426611   2.806306
     8  B    4.143583   2.763779   3.937670   3.246011   2.689175
     9  H    4.272569   2.793492   4.400897   3.882787   3.553488
    10  B    2.680211   1.642104   2.864573   2.932508   1.257086
    11  H    3.138161   2.325030   3.821184   4.098225   1.951308
    12  Al   3.918339   3.060691   2.814338   1.727200   1.887570
    13  H    5.237030   4.541623   3.966989   2.824052   2.809497
    14  O    1.349226   2.297736   1.004848   2.657308   2.764523
    15  H    4.578771   3.298281   3.838722   2.671354   3.163562
    16  H    1.994822   1.023276   3.231298   3.857147   3.089856
                    6          7          8          9         10
     6  H    0.000000
     7  H    3.937125   0.000000
     8  B    1.205915   2.754956   0.000000
     9  H    2.036639   2.670645   1.202601   0.000000
    10  B    2.531361   2.228409   1.808565   2.437029   0.000000
    11  H    2.832449   3.149950   2.481203   2.931296   1.192408
    12  Al   2.617671   2.941630   2.103270   3.137972   2.156305
    13  H    3.224102   4.493506   3.252688   4.405340   3.403364
    14  O    5.498515   2.462252   4.525918   4.876068   3.175322
    15  H    1.975926   2.904682   1.298304   1.939491   2.654402
    16  H    4.061156   1.648426   3.059488   2.732277   2.171971
                   11         12         13         14         15
    11  H    0.000000
    12  Al   3.197895   0.000000
    13  H    4.194253   1.563848   0.000000
    14  O    3.900005   3.650688   4.794076   0.000000
    15  H    3.599794   1.764041   2.840247   4.636119   0.000000
    16  H    2.436424   3.888302   5.367499   3.120453   3.797821
                   16
    16  H    0.000000
 Stoichiometry    AlB2FH9N2O(2)
 Framework group  C1[X(AlB2FH9N2O)]
 Deg. of freedom    42
 Full point group                 C1      NOp   1
 Largest Abelian subgroup         C1      NOp   1
 Largest concise Abelian subgroup C1      NOp   1
                         Standard orientation:                         
 ---------------------------------------------------------------------
 Center     Atomic      Atomic             Coordinates (Angstroms)
 Number     Number       Type             X           Y           Z
 ---------------------------------------------------------------------
      1          7           0       -2.229488    0.502855    0.145966
      2          7           0       -0.952063    1.044052   -0.368079
      3          1           0       -1.228433   -1.175440   -0.077347
      4          9           0        0.308533   -1.552136   -0.566072
      5          1           0        0.182738    0.103150    1.388859
      6          1           0        2.772138    1.644933    0.254286
      7          1           0       -0.703268    0.549175   -1.236290
      8          5           0        1.797235    1.326358   -0.379988
      9          1           0        1.482716    2.083208   -1.260047
     10          5           0        0.329931    1.113643    0.655714
     11          1           0        0.204424    2.054305    1.377684
     12         13           0        1.513008   -0.649855    0.281482
     13          1           0        2.525307   -1.433674    1.179536
     14          8           0       -2.131926   -0.841377    0.208696
     15          1           0        2.183805    0.286582   -1.054541
     16          1           0       -1.174896    2.007768   -0.630169
 ---------------------------------------------------------------------
 Rotational constants (GHZ):           3.0319403           1.6445415           1.2048970
 Leave Link  202 at Sat Apr 17 05:22:59 2021, MaxMem=   104857600 cpu:               6.7 elap:               0.2
 (Enter /s/ls4/users/knvvv/bin/g16sse/l301.exe)
 Standard basis: def2QZVP (5D, 7F)
 Ernie: Thresh=  0.10000D-02 Tol=  0.10000D-05 Strict=F.
 There are   833 symmetry adapted cartesian basis functions of A   symmetry.
 There are   682 symmetry adapted basis functions of A   symmetry.
   682 basis functions,  1015 primitive gaussians,   833 cartesian basis functions
    32 alpha electrons       31 beta electrons
       nuclear repulsion energy       373.9073221417 Hartrees.
 IExCor= 4336 DFT=T Ex+Corr=M062X ExCW=0 ScaHFX=  0.540000
 ScaDFX=  1.000000  1.000000  1.000000  1.000000 ScalE2=  1.000000  1.000000
 IRadAn=      5 IRanWt=     -1 IRanGd=            0 ICorTp=0 IEmpDi=  4
 NAtoms=   16 NActive=   16 NUniq=   16 SFac= 1.00D+00 NAtFMM=   60 NAOKFM=F Big=F
 Integral buffers will be    131072 words long.
 Raffenetti 2 integral format.
 Two-electron integral symmetry is turned on.
 Leave Link  301 at Sat Apr 17 05:23:00 2021, MaxMem=   104857600 cpu:               6.9 elap:               0.2
 (Enter /s/ls4/users/knvvv/bin/g16sse/l302.exe)
 NPDir=0 NMtPBC=     1 NCelOv=     1 NCel=       1 NClECP=     1 NCelD=      1
         NCelK=      1 NCelE2=     1 NClLst=     1 CellRange=     0.0.
 One-electron integrals computed using PRISM.
 One-electron integral symmetry used in STVInt
 PrsmSu:  requested number of processors reduced to:   4 ShMem   1 Linda.
 PrsmSu:  requested number of processors reduced to:  18 ShMem   1 Linda.
   1 Symmetry operations used in ECPInt.
 ECPInt:  NShTT=   23005 NPrTT=   55643 LenC2=   22006 LenP2D=   43167.
 LDataN:  DoStor=T MaxTD1= 8 Len=  415
 Number of processors reduced to  11 by ecpmxn.
 NBasis=   682 RedAO= T EigKep=  2.37D-05  NBF=   682
 NBsUse=   682 1.00D-06 EigRej= -1.00D+00 NBFU=   682
 Precomputing XC quadrature grid using
 IXCGrd= 4 IRadAn=           5 IRanWt=          -1 IRanGd=           0 AccXCQ= 0.00D+00.
 Generated NRdTot=       0 NPtTot=           0 NUsed=           0 NTot=          32
 NSgBfM=   833   833   833   833   833 MxSgAt=    16 MxSgA2=    16.
 Leave Link  302 at Sat Apr 17 05:23:14 2021, MaxMem=   104857600 cpu:             651.6 elap:              14.0
 (Enter /s/ls4/users/knvvv/bin/g16sse/l303.exe)
 DipDrv:  MaxL=1.
 Leave Link  303 at Sat Apr 17 05:23:20 2021, MaxMem=   104857600 cpu:             310.0 elap:               6.7
 (Enter /s/ls4/users/knvvv/bin/g16sse/l401.exe)
 SCF N**3 symmetry information disabled.
 ExpMin= 3.62D-02 ExpMax= 7.55D+05 ExpMxC= 1.27D+03 IAcc=3 IRadAn=         5 AccDes= 0.00D+00
 Harris functional with IExCor= 1009 and IRadAn=       5 diagonalized for initial guess.
 HarFok:  IExCor= 1009 AccDes= 0.00D+00 IRadAn=         5 IDoV= 1 UseB2=F ITyADJ=14
 ICtDFT=  3500011 ScaDFX=  1.000000  1.000000  1.000000  1.000000
 FoFCou: FMM=F IPFlag=           0 FMFlag=      100000 FMFlg1=           0
         NFxFlg=           0 DoJE=T BraDBF=F KetDBF=T FulRan=T
         wScrn=  0.000000 ICntrl=       500 IOpCl=  0 I1Cent=   200000004 NGrid=           0
         NMat0=    1 NMatS0=      1 NMatT0=    0 NMatD0=    1 NMtDS0=    0 NMtDT0=    0
 Petite list used in FoFCou.
 CoulSu:  requested number of processors reduced to:  17 ShMem   1 Linda.
 CoulSu:  requested number of processors reduced to:  17 ShMem   1 Linda.
 CoulSu:  requested number of processors reduced to:  21 ShMem   1 Linda.
 CoulSu:  requested number of processors reduced to:  21 ShMem   1 Linda.
 Harris En= -581.830192526097    
 JPrj=0 DoOrth=F DoCkMO=F.
 Initial guess <Sx>= 0.0000 <Sy>= 0.0000 <Sz>= 0.5000 <S**2>= 0.7500 S= 0.5000
 Leave Link  401 at Sat Apr 17 05:23:28 2021, MaxMem=   104857600 cpu:             337.7 elap:               7.6
 (Enter /s/ls4/users/knvvv/bin/g16sse/l502.exe)
 Integral symmetry usage will be decided dynamically.
 UHF open shell SCF:
 Using DIIS extrapolation, IDIIS=  1040.
 NGot=   104857600 LenX=   103423212 LenY=   102728490
 Requested convergence on RMS density matrix=1.00D-08 within 128 cycles.
 Requested convergence on MAX density matrix=1.00D-06.
 Requested convergence on             energy=1.00D-06.
 No special actions if energy rises.
 Fock matrices will be formed incrementally for  20 cycles.

 Cycle   1  Pass 1  IDiag  1:
 FoFJK:  IHMeth= 1 ICntrl=       0 DoSepK=F KAlg= 0 I1Cent=           0 FoldK=F
 IRaf= 920000000 NMat=       1 IRICut=       1 DoRegI=T DoRafI=F ISym2E= 0 IDoP0=0 IntGTp=1.
 FoFCou: FMM=F IPFlag=           0 FMFlag=      100000 FMFlg1=           0
         NFxFlg=           0 DoJE=F BraDBF=F KetDBF=F FulRan=T
         wScrn=  0.000000 ICntrl=         0 IOpCl=  1 I1Cent=           0 NGrid=           0
         NMat0=    1 NMatS0=      1 NMatT0=    0 NMatD0=    1 NMtDS0=    0 NMtDT0=    0
 Symmetry not used in FoFCou.
 CoulSu:  requested number of processors reduced to:  16 ShMem   1 Linda.
 CalDSu:  requested number of processors reduced to:  40 ShMem   1 Linda.
 E= -581.896093916651    
 DIIS: error= 1.59D-02 at cycle   1 NSaved=   1.
 NSaved= 1 IEnMin= 1 EnMin= -581.896093916651     IErMin= 1 ErrMin= 1.59D-02
 ErrMax= 1.59D-02  0.00D+00 EMaxC= 1.00D-01 BMatC= 1.60D+00 BMatP= 1.60D+00
 IDIUse=3 WtCom= 8.41D-01 WtEn= 1.59D-01
 Coeff-Com:  0.100D+01
 Coeff-En:   0.100D+01
 Coeff:      0.100D+01
 Gap=     0.453 Goal=   None    Shift=    0.000
 Gap=     0.319 Goal=   None    Shift=    0.000
 GapD=    0.319 DampG=1.000 DampE=0.500 DampFc=0.5000 IDamp=-1.
 Damping current iteration by 5.00D-01
 RMSDP=9.53D-04 MaxDP=5.67D-02              OVMax= 2.19D-01

 Cycle   2  Pass 1  IDiag  1:
 RMSU=  4.77D-04    CP:  9.96D-01
 CoulSu:  requested number of processors reduced to:  16 ShMem   1 Linda.
 CalDSu:  requested number of processors reduced to:  40 ShMem   1 Linda.
 E= -582.006266999969     Delta-E=       -0.110173083318 Rises=F Damp=T
 DIIS: error= 8.44D-03 at cycle   2 NSaved=   2.
 NSaved= 2 IEnMin= 2 EnMin= -582.006266999969     IErMin= 2 ErrMin= 8.44D-03
 ErrMax= 8.44D-03  0.00D+00 EMaxC= 1.00D-01 BMatC= 2.28D-01 BMatP= 1.60D+00
 IDIUse=3 WtCom= 9.16D-01 WtEn= 8.44D-02
 Coeff-Com: -0.163D+00 0.116D+01
 Coeff-En:   0.000D+00 0.100D+01
 Coeff:     -0.149D+00 0.115D+01
 Gap=     0.349 Goal=   None    Shift=    0.000
 Gap=     0.287 Goal=   None    Shift=    0.000
 RMSDP=4.13D-04 MaxDP=2.72D-02 DE=-1.10D-01 OVMax= 1.24D-01

 Cycle   3  Pass 1  IDiag  1:
 RMSU=  3.87D-04    CP:  9.94D-01  1.30D+00
 CoulSu:  requested number of processors reduced to:  16 ShMem   1 Linda.
 CalDSu:  requested number of processors reduced to:  40 ShMem   1 Linda.
 E= -582.108151552131     Delta-E=       -0.101884552162 Rises=F Damp=F
 DIIS: error= 3.17D-03 at cycle   3 NSaved=   3.
 NSaved= 3 IEnMin= 3 EnMin= -582.108151552131     IErMin= 3 ErrMin= 3.17D-03
 ErrMax= 3.17D-03  0.00D+00 EMaxC= 1.00D-01 BMatC= 8.78D-02 BMatP= 2.28D-01
 IDIUse=3 WtCom= 9.68D-01 WtEn= 3.17D-02
 Coeff-Com: -0.182D+00 0.490D+00 0.693D+00
 Coeff-En:   0.000D+00 0.000D+00 0.100D+01
 Coeff:     -0.176D+00 0.474D+00 0.702D+00
 Gap=     0.346 Goal=   None    Shift=    0.000
 Gap=     0.280 Goal=   None    Shift=    0.000
 RMSDP=1.42D-04 MaxDP=1.45D-02 DE=-1.02D-01 OVMax= 3.85D-02

 Cycle   4  Pass 1  IDiag  1:
 RMSU=  1.25D-04    CP:  9.91D-01  1.35D+00  8.43D-01
 CoulSu:  requested number of processors reduced to:  16 ShMem   1 Linda.
 CalDSu:  requested number of processors reduced to:  40 ShMem   1 Linda.
 E= -582.120638764723     Delta-E=       -0.012487212592 Rises=F Damp=F
 DIIS: error= 1.28D-03 at cycle   4 NSaved=   4.
 NSaved= 4 IEnMin= 4 EnMin= -582.120638764723     IErMin= 4 ErrMin= 1.28D-03
 ErrMax= 1.28D-03  0.00D+00 EMaxC= 1.00D-01 BMatC= 1.19D-02 BMatP= 8.78D-02
 IDIUse=3 WtCom= 9.87D-01 WtEn= 1.28D-02
 Coeff-Com: -0.759D-01 0.162D+00 0.356D+00 0.557D+00
 Coeff-En:   0.000D+00 0.000D+00 0.531D-01 0.947D+00
 Coeff:     -0.750D-01 0.160D+00 0.352D+00 0.562D+00
 Gap=     0.337 Goal=   None    Shift=    0.000
 Gap=     0.275 Goal=   None    Shift=    0.000
 RMSDP=5.37D-05 MaxDP=4.08D-03 DE=-1.25D-02 OVMax= 1.80D-02

 Cycle   5  Pass 1  IDiag  1:
 RMSU=  4.73D-05    CP:  9.91D-01  1.37D+00  8.28D-01  8.09D-01
 CoulSu:  requested number of processors reduced to:  16 ShMem   1 Linda.
 CalDSu:  requested number of processors reduced to:  40 ShMem   1 Linda.
 E= -582.123013502245     Delta-E=       -0.002374737523 Rises=F Damp=F
 DIIS: error= 2.70D-04 at cycle   5 NSaved=   5.
 NSaved= 5 IEnMin= 5 EnMin= -582.123013502245     IErMin= 5 ErrMin= 2.70D-04
 ErrMax= 2.70D-04  0.00D+00 EMaxC= 1.00D-01 BMatC= 5.34D-04 BMatP= 1.19D-02
 IDIUse=3 WtCom= 9.97D-01 WtEn= 2.70D-03
 Coeff-Com: -0.202D-01 0.380D-01 0.981D-01 0.232D+00 0.652D+00
 Coeff-En:   0.000D+00 0.000D+00 0.000D+00 0.000D+00 0.100D+01
 Coeff:     -0.201D-01 0.379D-01 0.978D-01 0.231D+00 0.653D+00
 Gap=     0.335 Goal=   None    Shift=    0.000
 Gap=     0.277 Goal=   None    Shift=    0.000
 RMSDP=1.67D-05 MaxDP=1.81D-03 DE=-2.37D-03 OVMax= 2.27D-03

 Cycle   6  Pass 1  IDiag  1:
 RMSU=  1.42D-05    CP:  9.91D-01  1.36D+00  8.14D-01  8.48D-01  1.11D+00
 CoulSu:  requested number of processors reduced to:  16 ShMem   1 Linda.
 CalDSu:  requested number of processors reduced to:  40 ShMem   1 Linda.
 E= -582.123110513692     Delta-E=       -0.000097011447 Rises=F Damp=F
 DIIS: error= 9.78D-05 at cycle   6 NSaved=   6.
 NSaved= 6 IEnMin= 6 EnMin= -582.123110513692     IErMin= 6 ErrMin= 9.78D-05
 ErrMax= 9.78D-05  0.00D+00 EMaxC= 1.00D-01 BMatC= 7.29D-05 BMatP= 5.34D-04
 IDIUse=1 WtCom= 1.00D+00 WtEn= 0.00D+00
 Coeff-Com:  0.610D-02-0.141D-01-0.336D-01-0.176D-01 0.213D+00 0.847D+00
 Coeff:      0.610D-02-0.141D-01-0.336D-01-0.176D-01 0.213D+00 0.847D+00
 Gap=     0.337 Goal=   None    Shift=    0.000
 Gap=     0.279 Goal=   None    Shift=    0.000
 RMSDP=1.05D-05 MaxDP=9.71D-04 DE=-9.70D-05 OVMax= 2.23D-03

 Cycle   7  Pass 1  IDiag  1:
 RMSU=  6.06D-06    CP:  9.91D-01  1.36D+00  8.08D-01  8.79D-01  1.23D+00
                    CP:  1.28D+00
 CoulSu:  requested number of processors reduced to:  16 ShMem   1 Linda.
 CalDSu:  requested number of processors reduced to:  40 ShMem   1 Linda.
 E= -582.123134353297     Delta-E=       -0.000023839605 Rises=F Damp=F
 DIIS: error= 5.27D-05 at cycle   7 NSaved=   7.
 NSaved= 7 IEnMin= 7 EnMin= -582.123134353297     IErMin= 7 ErrMin= 5.27D-05
 ErrMax= 5.27D-05  0.00D+00 EMaxC= 1.00D-01 BMatC= 1.43D-05 BMatP= 7.29D-05
 IDIUse=1 WtCom= 1.00D+00 WtEn= 0.00D+00
 Coeff-Com:  0.505D-02-0.104D-01-0.285D-01-0.423D-01-0.586D-01 0.281D+00
 Coeff-Com:  0.853D+00
 Coeff:      0.505D-02-0.104D-01-0.285D-01-0.423D-01-0.586D-01 0.281D+00
 Coeff:      0.853D+00
 Gap=     0.337 Goal=   None    Shift=    0.000
 Gap=     0.279 Goal=   None    Shift=    0.000
 RMSDP=4.03D-06 MaxDP=3.78D-04 DE=-2.38D-05 OVMax= 1.21D-03

 Cycle   8  Pass 1  IDiag  1:
 RMSU=  3.01D-06    CP:  9.91D-01  1.36D+00  8.07D-01  8.91D-01  1.26D+00
                    CP:  1.36D+00  1.15D+00
 CoulSu:  requested number of processors reduced to:  16 ShMem   1 Linda.
 CalDSu:  requested number of processors reduced to:  40 ShMem   1 Linda.
 E= -582.123140510583     Delta-E=       -0.000006157286 Rises=F Damp=F
 DIIS: error= 2.27D-05 at cycle   8 NSaved=   8.
 NSaved= 8 IEnMin= 8 EnMin= -582.123140510583     IErMin= 8 ErrMin= 2.27D-05
 ErrMax= 2.27D-05  0.00D+00 EMaxC= 1.00D-01 BMatC= 1.98D-06 BMatP= 1.43D-05
 IDIUse=1 WtCom= 1.00D+00 WtEn= 0.00D+00
 Coeff-Com: -0.487D-04 0.231D-03-0.886D-03-0.233D-02-0.429D-01-0.531D-01
 Coeff-Com:  0.136D+00 0.963D+00
 Coeff:     -0.487D-04 0.231D-03-0.886D-03-0.233D-02-0.429D-01-0.531D-01
 Coeff:      0.136D+00 0.963D+00
 Gap=     0.337 Goal=   None    Shift=    0.000
 Gap=     0.279 Goal=   None    Shift=    0.000
 RMSDP=1.74D-06 MaxDP=1.37D-04 DE=-6.16D-06 OVMax= 7.49D-04

 Cycle   9  Pass 1  IDiag  1:
 RMSU=  1.16D-06    CP:  9.91D-01  1.36D+00  8.08D-01  8.92D-01  1.26D+00
                    CP:  1.36D+00  1.20D+00  1.40D+00
 CoulSu:  requested number of processors reduced to:  16 ShMem   1 Linda.
 CalDSu:  requested number of processors reduced to:  40 ShMem   1 Linda.
 E= -582.123141723307     Delta-E=       -0.000001212724 Rises=F Damp=F
 DIIS: error= 1.01D-05 at cycle   9 NSaved=   9.
 NSaved= 9 IEnMin= 9 EnMin= -582.123141723307     IErMin= 9 ErrMin= 1.01D-05
 ErrMax= 1.01D-05  0.00D+00 EMaxC= 1.00D-01 BMatC= 6.04D-07 BMatP= 1.98D-06
 IDIUse=1 WtCom= 1.00D+00 WtEn= 0.00D+00
 Coeff-Com: -0.111D-02 0.233D-02 0.567D-02 0.102D-01-0.559D-03-0.773D-01
 Coeff-Com: -0.180D+00 0.294D+00 0.947D+00
 Coeff:     -0.111D-02 0.233D-02 0.567D-02 0.102D-01-0.559D-03-0.773D-01
 Coeff:     -0.180D+00 0.294D+00 0.947D+00
 Gap=     0.337 Goal=   None    Shift=    0.000
 Gap=     0.279 Goal=   None    Shift=    0.000
 RMSDP=9.66D-07 MaxDP=8.27D-05 DE=-1.21D-06 OVMax= 4.28D-04

 Cycle  10  Pass 1  IDiag  1:
 RMSU=  6.19D-07    CP:  9.91D-01  1.36D+00  8.08D-01  8.93D-01  1.25D+00
                    CP:  1.37D+00  1.24D+00  1.57D+00  1.28D+00
 CoulSu:  requested number of processors reduced to:  16 ShMem   1 Linda.
 CalDSu:  requested number of processors reduced to:  40 ShMem   1 Linda.
 E= -582.123142081175     Delta-E=       -0.000000357869 Rises=F Damp=F
 DIIS: error= 4.11D-06 at cycle  10 NSaved=  10.
 NSaved=10 IEnMin=10 EnMin= -582.123142081175     IErMin=10 ErrMin= 4.11D-06
 ErrMax= 4.11D-06  0.00D+00 EMaxC= 1.00D-01 BMatC= 8.27D-08 BMatP= 6.04D-07
 IDIUse=1 WtCom= 1.00D+00 WtEn= 0.00D+00
 Coeff-Com: -0.310D-03 0.636D-03 0.164D-02 0.338D-02 0.465D-02-0.140D-01
 Coeff-Com: -0.698D-01-0.680D-01 0.245D+00 0.897D+00
 Coeff:     -0.310D-03 0.636D-03 0.164D-02 0.338D-02 0.465D-02-0.140D-01
 Coeff:     -0.698D-01-0.680D-01 0.245D+00 0.897D+00
 Gap=     0.337 Goal=   None    Shift=    0.000
 Gap=     0.279 Goal=   None    Shift=    0.000
 RMSDP=4.07D-07 MaxDP=3.39D-05 DE=-3.58D-07 OVMax= 1.81D-04

 Cycle  11  Pass 1  IDiag  1:
 RMSU=  2.56D-07    CP:  9.91D-01  1.36D+00  8.08D-01  8.93D-01  1.25D+00
                    CP:  1.37D+00  1.25D+00  1.57D+00  1.42D+00  1.41D+00
 CoulSu:  requested number of processors reduced to:  17 ShMem   1 Linda.
 CalDSu:  requested number of processors reduced to:  40 ShMem   1 Linda.
 E= -582.123142126329     Delta-E=       -0.000000045154 Rises=F Damp=F
 DIIS: error= 1.92D-06 at cycle  11 NSaved=  11.
 NSaved=11 IEnMin=11 EnMin= -582.123142126329     IErMin=11 ErrMin= 1.92D-06
 ErrMax= 1.92D-06  0.00D+00 EMaxC= 1.00D-01 BMatC= 2.25D-08 BMatP= 8.27D-08
 IDIUse=1 WtCom= 1.00D+00 WtEn= 0.00D+00
 Coeff-Com:  0.559D-04-0.111D-03-0.305D-03-0.279D-03 0.171D-02 0.807D-02
 Coeff-Com:  0.205D-02-0.766D-01-0.714D-01 0.386D+00 0.751D+00
 Coeff:      0.559D-04-0.111D-03-0.305D-03-0.279D-03 0.171D-02 0.807D-02
 Coeff:      0.205D-02-0.766D-01-0.714D-01 0.386D+00 0.751D+00
 Gap=     0.337 Goal=   None    Shift=    0.000
 Gap=     0.279 Goal=   None    Shift=    0.000
 RMSDP=1.85D-07 MaxDP=1.78D-05 DE=-4.52D-08 OVMax= 5.24D-05

 Cycle  12  Pass 1  IDiag  1:
 RMSU=  9.30D-08    CP:  9.91D-01  1.36D+00  8.08D-01  8.93D-01  1.25D+00
                    CP:  1.37D+00  1.24D+00  1.55D+00  1.46D+00  1.61D+00
                    CP:  1.21D+00
 CoulSu:  requested number of processors reduced to:  17 ShMem   1 Linda.
 CalDSu:  requested number of processors reduced to:  40 ShMem   1 Linda.
 E= -582.123142133857     Delta-E=       -0.000000007527 Rises=F Damp=F
 DIIS: error= 5.83D-07 at cycle  12 NSaved=  12.
 NSaved=12 IEnMin=12 EnMin= -582.123142133857     IErMin=12 ErrMin= 5.83D-07
 ErrMax= 5.83D-07  0.00D+00 EMaxC= 1.00D-01 BMatC= 2.43D-09 BMatP= 2.25D-08
 IDIUse=1 WtCom= 1.00D+00 WtEn= 0.00D+00
 Coeff-Com:  0.504D-04-0.105D-03-0.282D-03-0.448D-03-0.269D-03 0.425D-02
 Coeff-Com:  0.104D-01-0.117D-01-0.616D-01-0.235D-01 0.241D+00 0.843D+00
 Coeff:      0.504D-04-0.105D-03-0.282D-03-0.448D-03-0.269D-03 0.425D-02
 Coeff:      0.104D-01-0.117D-01-0.616D-01-0.235D-01 0.241D+00 0.843D+00
 Gap=     0.337 Goal=   None    Shift=    0.000
 Gap=     0.279 Goal=   None    Shift=    0.000
 RMSDP=6.78D-08 MaxDP=5.33D-06 DE=-7.53D-09 OVMax= 1.95D-05

 Cycle  13  Pass 1  IDiag  1:
 RMSU=  3.60D-08    CP:  9.91D-01  1.36D+00  8.08D-01  8.93D-01  1.25D+00
                    CP:  1.37D+00  1.24D+00  1.55D+00  1.47D+00  1.68D+00
                    CP:  1.32D+00  1.17D+00
 CoulSu:  requested number of processors reduced to:  17 ShMem   1 Linda.
 CalDSu:  requested number of processors reduced to:  40 ShMem   1 Linda.
 E= -582.123142134696     Delta-E=       -0.000000000840 Rises=F Damp=F
 DIIS: error= 1.94D-07 at cycle  13 NSaved=  13.
 NSaved=13 IEnMin=13 EnMin= -582.123142134696     IErMin=13 ErrMin= 1.94D-07
 ErrMax= 1.94D-07  0.00D+00 EMaxC= 1.00D-01 BMatC= 1.61D-10 BMatP= 2.43D-09
 IDIUse=1 WtCom= 1.00D+00 WtEn= 0.00D+00
 Coeff-Com: -0.711D-05 0.132D-04 0.220D-04 0.343D-04-0.143D-03-0.480D-03
 Coeff-Com:  0.503D-04 0.647D-02 0.452D-02-0.398D-01-0.609D-01 0.376D-01
 Coeff-Com:  0.105D+01
 Coeff:     -0.711D-05 0.132D-04 0.220D-04 0.343D-04-0.143D-03-0.480D-03
 Coeff:      0.503D-04 0.647D-02 0.452D-02-0.398D-01-0.609D-01 0.376D-01
 Coeff:      0.105D+01
 Gap=     0.337 Goal=   None    Shift=    0.000
 Gap=     0.279 Goal=   None    Shift=    0.000
 RMSDP=2.25D-08 MaxDP=1.44D-06 DE=-8.40D-10 OVMax= 5.42D-06

 Cycle  14  Pass 1  IDiag  1:
 RMSU=  1.31D-08    CP:  9.91D-01  1.36D+00  8.08D-01  8.93D-01  1.25D+00
                    CP:  1.37D+00  1.24D+00  1.55D+00  1.47D+00  1.69D+00
                    CP:  1.34D+00  1.26D+00  1.29D+00
 CoulSu:  requested number of processors reduced to:  17 ShMem   1 Linda.
 CalDSu:  requested number of processors reduced to:  40 ShMem   1 Linda.
 E= -582.123142134762     Delta-E=       -0.000000000065 Rises=F Damp=F
 DIIS: error= 6.30D-08 at cycle  14 NSaved=  14.
 NSaved=14 IEnMin=14 EnMin= -582.123142134762     IErMin=14 ErrMin= 6.30D-08
 ErrMax= 6.30D-08  0.00D+00 EMaxC= 1.00D-01 BMatC= 2.20D-11 BMatP= 1.61D-10
 IDIUse=1 WtCom= 1.00D+00 WtEn= 0.00D+00
 Coeff-Com: -0.607D-05 0.127D-04 0.292D-04 0.519D-04-0.474D-05-0.547D-03
 Coeff-Com: -0.123D-02 0.235D-02 0.802D-02-0.167D-02-0.391D-01-0.106D+00
 Coeff-Com:  0.107D+00 0.103D+01
 Coeff:     -0.607D-05 0.127D-04 0.292D-04 0.519D-04-0.474D-05-0.547D-03
 Coeff:     -0.123D-02 0.235D-02 0.802D-02-0.167D-02-0.391D-01-0.106D+00
 Coeff:      0.107D+00 0.103D+01
 Gap=     0.337 Goal=   None    Shift=    0.000
 Gap=     0.279 Goal=   None    Shift=    0.000
 RMSDP=7.41D-09 MaxDP=4.29D-07 DE=-6.55D-11 OVMax= 1.76D-06

 SCF Done:  E(UM062X) =  -582.123142135     A.U. after   14 cycles
            NFock= 14  Conv=0.74D-08     -V/T= 2.0034
 <Sx>= 0.0000 <Sy>= 0.0000 <Sz>= 0.5000 <S**2>= 0.7554 S= 0.5027
 <L.S>= 0.000000000000E+00
 KE= 5.801381342654D+02 PE=-2.123849860767D+03 EE= 5.876812622254D+02
 Annihilation of the first spin contaminant:
 S**2 before annihilation     0.7554,   after     0.7500
 Leave Link  502 at Sat Apr 17 05:43:06 2021, MaxMem=   104857600 cpu:           30686.7 elap:            1178.2
 (Enter /s/ls4/users/knvvv/bin/g16sse/l601.exe)
 Copying SCF densities to generalized density rwf, IOpCl= 1 IROHF=0.

 **********************************************************************

            Population analysis using the SCF density.

 **********************************************************************

 Orbital symmetries:
 Alpha Orbitals:
       Occupied  (A) (A) (A) (A) (A) (A) (A) (A) (A) (A) (A) (A)
                 (A) (A) (A) (A) (A) (A) (A) (A) (A) (A) (A) (A)
                 (A) (A) (A) (A) (A) (A) (A) (A)
       Virtual   (A) (A) (A) (A) (A) (A) (A) (A) (A) (A) (A) (A)
                 (A) (A) (A) (A) (A) (A) (A) (A) (A) (A) (A) (A)
                 (A) (A) (A) (A) (A) (A) (A) (A) (A) (A) (A) (A)
                 (A) (A) (A) (A) (A) (A) (A) (A) (A) (A) (A) (A)
                 (A) (A) (A) (A) (A) (A) (A) (A) (A) (A) (A) (A)
                 (A) (A) (A) (A) (A) (A) (A) (A) (A) (A) (A) (A)
                 (A) (A) (A) (A) (A) (A) (A) (A) (A) (A) (A) (A)
                 (A) (A) (A) (A) (A) (A) (A) (A) (A) (A) (A) (A)
                 (A) (A) (A) (A) (A) (A) (A) (A) (A) (A) (A) (A)
                 (A) (A) (A) (A) (A) (A) (A) (A) (A) (A) (A) (A)
                 (A) (A) (A) (A) (A) (A) (A) (A) (A) (A) (A) (A)
                 (A) (A) (A) (A) (A) (A) (A) (A) (A) (A) (A) (A)
                 (A) (A) (A) (A) (A) (A) (A) (A) (A) (A) (A) (A)
                 (A) (A) (A) (A) (A) (A) (A) (A) (A) (A) (A) (A)
                 (A) (A) (A) (A) (A) (A) (A) (A) (A) (A) (A) (A)
                 (A) (A) (A) (A) (A) (A) (A) (A) (A) (A) (A) (A)
                 (A) (A) (A) (A) (A) (A) (A) (A) (A) (A) (A) (A)
                 (A) (A) (A) (A) (A) (A) (A) (A) (A) (A) (A) (A)
                 (A) (A) (A) (A) (A) (A) (A) (A) (A) (A) (A) (A)
                 (A) (A) (A) (A) (A) (A) (A) (A) (A) (A) (A) (A)
                 (A) (A) (A) (A) (A) (A) (A) (A) (A) (A) (A) (A)
                 (A) (A) (A) (A) (A) (A) (A) (A) (A) (A) (A) (A)
                 (A) (A) (A) (A) (A) (A) (A) (A) (A) (A) (A) (A)
                 (A) (A) (A) (A) (A) (A) (A) (A) (A) (A) (A) (A)
                 (A) (A) (A) (A) (A) (A) (A) (A) (A) (A) (A) (A)
                 (A) (A) (A) (A) (A) (A) (A) (A) (A) (A) (A) (A)
                 (A) (A) (A) (A) (A) (A) (A) (A) (A) (A) (A) (A)
                 (A) (A) (A) (A) (A) (A) (A) (A) (A) (A) (A) (A)
                 (A) (A) (A) (A) (A) (A) (A) (A) (A) (A) (A) (A)
                 (A) (A) (A) (A) (A) (A) (A) (A) (A) (A) (A) (A)
                 (A) (A) (A) (A) (A) (A) (A) (A) (A) (A) (A) (A)
                 (A) (A) (A) (A) (A) (A) (A) (A) (A) (A) (A) (A)
                 (A) (A) (A) (A) (A) (A) (A) (A) (A) (A) (A) (A)
                 (A) (A) (A) (A) (A) (A) (A) (A) (A) (A) (A) (A)
                 (A) (A) (A) (A) (A) (A) (A) (A) (A) (A) (A) (A)
                 (A) (A) (A) (A) (A) (A) (A) (A) (A) (A) (A) (A)
                 (A) (A) (A) (A) (A) (A) (A) (A) (A) (A) (A) (A)
                 (A) (A) (A) (A) (A) (A) (A) (A) (A) (A) (A) (A)
                 (A) (A) (A) (A) (A) (A) (A) (A) (A) (A) (A) (A)
                 (A) (A) (A) (A) (A) (A) (A) (A) (A) (A) (A) (A)
                 (A) (A) (A) (A) (A) (A) (A) (A) (A) (A) (A) (A)
                 (A) (A) (A) (A) (A) (A) (A) (A) (A) (A) (A) (A)
                 (A) (A) (A) (A) (A) (A) (A) (A) (A) (A) (A) (A)
                 (A) (A) (A) (A) (A) (A) (A) (A) (A) (A) (A) (A)
                 (A) (A) (A) (A) (A) (A) (A) (A) (A) (A) (A) (A)
                 (A) (A) (A) (A) (A) (A) (A) (A) (A) (A) (A) (A)
                 (A) (A) (A) (A) (A) (A) (A) (A) (A) (A) (A) (A)
                 (A) (A) (A) (A) (A) (A) (A) (A) (A) (A) (A) (A)
                 (A) (A) (A) (A) (A) (A) (A) (A) (A) (A) (A) (A)
                 (A) (A) (A) (A) (A) (A) (A) (A) (A) (A) (A) (A)
                 (A) (A) (A) (A) (A) (A) (A) (A) (A) (A) (A) (A)
                 (A) (A) (A) (A) (A) (A) (A) (A) (A) (A) (A) (A)
                 (A) (A) (A) (A) (A) (A) (A) (A) (A) (A) (A) (A)
                 (A) (A) (A) (A) (A) (A) (A) (A) (A) (A) (A) (A)
                 (A) (A)
 Beta  Orbitals:
       Occupied  (A) (A) (A) (A) (A) (A) (A) (A) (A) (A) (A) (A)
                 (A) (A) (A) (A) (A) (A) (A) (A) (A) (A) (A) (A)
                 (A) (A) (A) (A) (A) (A) (A)
       Virtual   (A) (A) (A) (A) (A) (A) (A) (A) (A) (A) (A) (A)
                 (A) (A) (A) (A) (A) (A) (A) (A) (A) (A) (A) (A)
                 (A) (A) (A) (A) (A) (A) (A) (A) (A) (A) (A) (A)
                 (A) (A) (A) (A) (A) (A) (A) (A) (A) (A) (A) (A)
                 (A) (A) (A) (A) (A) (A) (A) (A) (A) (A) (A) (A)
                 (A) (A) (A) (A) (A) (A) (A) (A) (A) (A) (A) (A)
                 (A) (A) (A) (A) (A) (A) (A) (A) (A) (A) (A) (A)
                 (A) (A) (A) (A) (A) (A) (A) (A) (A) (A) (A) (A)
                 (A) (A) (A) (A) (A) (A) (A) (A) (A) (A) (A) (A)
                 (A) (A) (A) (A) (A) (A) (A) (A) (A) (A) (A) (A)
                 (A) (A) (A) (A) (A) (A) (A) (A) (A) (A) (A) (A)
                 (A) (A) (A) (A) (A) (A) (A) (A) (A) (A) (A) (A)
                 (A) (A) (A) (A) (A) (A) (A) (A) (A) (A) (A) (A)
                 (A) (A) (A) (A) (A) (A) (A) (A) (A) (A) (A) (A)
                 (A) (A) (A) (A) (A) (A) (A) (A) (A) (A) (A) (A)
                 (A) (A) (A) (A) (A) (A) (A) (A) (A) (A) (A) (A)
                 (A) (A) (A) (A) (A) (A) (A) (A) (A) (A) (A) (A)
                 (A) (A) (A) (A) (A) (A) (A) (A) (A) (A) (A) (A)
                 (A) (A) (A) (A) (A) (A) (A) (A) (A) (A) (A) (A)
                 (A) (A) (A) (A) (A) (A) (A) (A) (A) (A) (A) (A)
                 (A) (A) (A) (A) (A) (A) (A) (A) (A) (A) (A) (A)
                 (A) (A) (A) (A) (A) (A) (A) (A) (A) (A) (A) (A)
                 (A) (A) (A) (A) (A) (A) (A) (A) (A) (A) (A) (A)
                 (A) (A) (A) (A) (A) (A) (A) (A) (A) (A) (A) (A)
                 (A) (A) (A) (A) (A) (A) (A) (A) (A) (A) (A) (A)
                 (A) (A) (A) (A) (A) (A) (A) (A) (A) (A) (A) (A)
                 (A) (A) (A) (A) (A) (A) (A) (A) (A) (A) (A) (A)
                 (A) (A) (A) (A) (A) (A) (A) (A) (A) (A) (A) (A)
                 (A) (A) (A) (A) (A) (A) (A) (A) (A) (A) (A) (A)
                 (A) (A) (A) (A) (A) (A) (A) (A) (A) (A) (A) (A)
                 (A) (A) (A) (A) (A) (A) (A) (A) (A) (A) (A) (A)
                 (A) (A) (A) (A) (A) (A) (A) (A) (A) (A) (A) (A)
                 (A) (A) (A) (A) (A) (A) (A) (A) (A) (A) (A) (A)
                 (A) (A) (A) (A) (A) (A) (A) (A) (A) (A) (A) (A)
                 (A) (A) (A) (A) (A) (A) (A) (A) (A) (A) (A) (A)
                 (A) (A) (A) (A) (A) (A) (A) (A) (A) (A) (A) (A)
                 (A) (A) (A) (A) (A) (A) (A) (A) (A) (A) (A) (A)
                 (A) (A) (A) (A) (A) (A) (A) (A) (A) (A) (A) (A)
                 (A) (A) (A) (A) (A) (A) (A) (A) (A) (A) (A) (A)
                 (A) (A) (A) (A) (A) (A) (A) (A) (A) (A) (A) (A)
                 (A) (A) (A) (A) (A) (A) (A) (A) (A) (A) (A) (A)
                 (A) (A) (A) (A) (A) (A) (A) (A) (A) (A) (A) (A)
                 (A) (A) (A) (A) (A) (A) (A) (A) (A) (A) (A) (A)
                 (A) (A) (A) (A) (A) (A) (A) (A) (A) (A) (A) (A)
                 (A) (A) (A) (A) (A) (A) (A) (A) (A) (A) (A) (A)
                 (A) (A) (A) (A) (A) (A) (A) (A) (A) (A) (A) (A)
                 (A) (A) (A) (A) (A) (A) (A) (A) (A) (A) (A) (A)
                 (A) (A) (A) (A) (A) (A) (A) (A) (A) (A) (A) (A)
                 (A) (A) (A) (A) (A) (A) (A) (A) (A) (A) (A) (A)
                 (A) (A) (A) (A) (A) (A) (A) (A) (A) (A) (A) (A)
                 (A) (A) (A) (A) (A) (A) (A) (A) (A) (A) (A) (A)
                 (A) (A) (A) (A) (A) (A) (A) (A) (A) (A) (A) (A)
                 (A) (A) (A) (A) (A) (A) (A) (A) (A) (A) (A) (A)
                 (A) (A) (A) (A) (A) (A) (A) (A) (A) (A) (A) (A)
                 (A) (A) (A)
 The electronic state is 2-A.
 Alpha  occ. eigenvalues --  -56.87736 -25.22917 -19.72580 -14.89647 -14.88581
 Alpha  occ. eigenvalues --   -7.04581  -6.99953  -4.39905  -2.90488  -2.90339
 Alpha  occ. eigenvalues --   -2.90121  -1.31540  -1.28738  -1.10906  -0.88353
 Alpha  occ. eigenvalues --   -0.70358  -0.69015  -0.68136  -0.62115  -0.57907
 Alpha  occ. eigenvalues --   -0.56070  -0.54352  -0.53156  -0.52854  -0.50007
 Alpha  occ. eigenvalues --   -0.45907  -0.44749  -0.40057  -0.38532  -0.38235
 Alpha  occ. eigenvalues --   -0.35281  -0.33539
 Alpha virt. eigenvalues --    0.00140   0.01349   0.01798   0.03444   0.04157
 Alpha virt. eigenvalues --    0.04589   0.06204   0.07077   0.07334   0.08346
 Alpha virt. eigenvalues --    0.09033   0.09247   0.09828   0.11129   0.12037
 Alpha virt. eigenvalues --    0.12528   0.13404   0.14776   0.16656   0.17462
 Alpha virt. eigenvalues --    0.18701   0.20296   0.20737   0.21183   0.22010
 Alpha virt. eigenvalues --    0.22638   0.23208   0.23675   0.24949   0.25116
 Alpha virt. eigenvalues --    0.26777   0.27560   0.28316   0.28946   0.29722
 Alpha virt. eigenvalues --    0.30034   0.31044   0.31569   0.32037   0.32755
 Alpha virt. eigenvalues --    0.33456   0.34216   0.34976   0.36008   0.37560
 Alpha virt. eigenvalues --    0.37885   0.38708   0.39909   0.41011   0.42774
 Alpha virt. eigenvalues --    0.43866   0.45744   0.45883   0.46225   0.48277
 Alpha virt. eigenvalues --    0.48932   0.50610   0.51262   0.51803   0.53457
 Alpha virt. eigenvalues --    0.53907   0.54146   0.55516   0.56076   0.56424
 Alpha virt. eigenvalues --    0.56832   0.58491   0.59549   0.60115   0.62300
 Alpha virt. eigenvalues --    0.62593   0.63109   0.64158   0.65831   0.67604
 Alpha virt. eigenvalues --    0.68592   0.68964   0.69815   0.70507   0.71467
 Alpha virt. eigenvalues --    0.72779   0.75273   0.76748   0.77891   0.78065
 Alpha virt. eigenvalues --    0.80602   0.81434   0.82459   0.83481   0.84688
 Alpha virt. eigenvalues --    0.86046   0.87360   0.87982   0.89606   0.90393
 Alpha virt. eigenvalues --    0.91057   0.93137   0.94281   0.95363   0.95715
 Alpha virt. eigenvalues --    0.98317   0.98935   0.99601   1.00428   1.02319
 Alpha virt. eigenvalues --    1.03355   1.03504   1.05441   1.06492   1.07268
 Alpha virt. eigenvalues --    1.07644   1.08258   1.10404   1.11629   1.12516
 Alpha virt. eigenvalues --    1.12956   1.14283   1.15464   1.17648   1.18404
 Alpha virt. eigenvalues --    1.18607   1.20051   1.21325   1.21781   1.22826
 Alpha virt. eigenvalues --    1.23275   1.24064   1.25317   1.27001   1.28339
 Alpha virt. eigenvalues --    1.29802   1.30271   1.31856   1.32600   1.34922
 Alpha virt. eigenvalues --    1.35468   1.36285   1.37016   1.37907   1.38908
 Alpha virt. eigenvalues --    1.40642   1.41382   1.43359   1.44720   1.45645
 Alpha virt. eigenvalues --    1.46732   1.47803   1.48077   1.48900   1.51424
 Alpha virt. eigenvalues --    1.52431   1.53203   1.53564   1.55739   1.55967
 Alpha virt. eigenvalues --    1.56508   1.58181   1.59810   1.60618   1.60963
 Alpha virt. eigenvalues --    1.63600   1.64127   1.65821   1.67412   1.70080
 Alpha virt. eigenvalues --    1.71272   1.71374   1.72145   1.74543   1.75995
 Alpha virt. eigenvalues --    1.76405   1.77827   1.79882   1.80446   1.82457
 Alpha virt. eigenvalues --    1.82727   1.84176   1.85075   1.86558   1.88517
 Alpha virt. eigenvalues --    1.90494   1.91822   1.94120   1.95598   1.96977
 Alpha virt. eigenvalues --    1.98917   1.99660   2.02182   2.02868   2.04611
 Alpha virt. eigenvalues --    2.08046   2.08596   2.10008   2.10808   2.12510
 Alpha virt. eigenvalues --    2.13784   2.14655   2.17083   2.18404   2.19194
 Alpha virt. eigenvalues --    2.21286   2.22202   2.23037   2.24266   2.26126
 Alpha virt. eigenvalues --    2.27435   2.29318   2.30542   2.32056   2.34435
 Alpha virt. eigenvalues --    2.35484   2.37597   2.39374   2.40262   2.41650
 Alpha virt. eigenvalues --    2.42585   2.45596   2.47019   2.47485   2.49442
 Alpha virt. eigenvalues --    2.51138   2.51362   2.52878   2.54212   2.57174
 Alpha virt. eigenvalues --    2.58524   2.59136   2.59972   2.62703   2.63569
 Alpha virt. eigenvalues --    2.64432   2.65600   2.67067   2.67748   2.68175
 Alpha virt. eigenvalues --    2.69549   2.70164   2.72006   2.73655   2.74091
 Alpha virt. eigenvalues --    2.75301   2.76392   2.76967   2.78824   2.79573
 Alpha virt. eigenvalues --    2.81256   2.83834   2.84776   2.86536   2.86996
 Alpha virt. eigenvalues --    2.88646   2.90281   2.91404   2.92529   2.94211
 Alpha virt. eigenvalues --    2.95234   2.96252   2.97123   2.98209   3.00587
 Alpha virt. eigenvalues --    3.01477   3.02188   3.02637   3.04434   3.05593
 Alpha virt. eigenvalues --    3.07812   3.10855   3.11669   3.13041   3.13330
 Alpha virt. eigenvalues --    3.15526   3.17840   3.19180   3.19339   3.22146
 Alpha virt. eigenvalues --    3.22739   3.24357   3.25308   3.26616   3.28131
 Alpha virt. eigenvalues --    3.29846   3.30627   3.32865   3.34007   3.34267
 Alpha virt. eigenvalues --    3.36488   3.38812   3.39612   3.41374   3.42480
 Alpha virt. eigenvalues --    3.43984   3.46715   3.48465   3.50634   3.52173
 Alpha virt. eigenvalues --    3.53428   3.56070   3.57318   3.58784   3.59365
 Alpha virt. eigenvalues --    3.61592   3.65247   3.66982   3.69050   3.70865
 Alpha virt. eigenvalues --    3.73539   3.75659   3.76815   3.79337   3.81262
 Alpha virt. eigenvalues --    3.83032   3.85383   3.87723   3.89846   3.90977
 Alpha virt. eigenvalues --    3.93277   3.93630   3.97020   3.97526   4.03150
 Alpha virt. eigenvalues --    4.04121   4.06009   4.07984   4.09482   4.12611
 Alpha virt. eigenvalues --    4.13032   4.14760   4.15525   4.18936   4.20262
 Alpha virt. eigenvalues --    4.21699   4.23612   4.25468   4.25735   4.28470
 Alpha virt. eigenvalues --    4.29804   4.31311   4.33104   4.35230   4.37002
 Alpha virt. eigenvalues --    4.38182   4.40930   4.43536   4.44380   4.45113
 Alpha virt. eigenvalues --    4.47092   4.48324   4.51168   4.52951   4.54996
 Alpha virt. eigenvalues --    4.55899   4.56949   4.59932   4.61266   4.64880
 Alpha virt. eigenvalues --    4.65236   4.68172   4.68456   4.70568   4.73994
 Alpha virt. eigenvalues --    4.74590   4.77438   4.79272   4.82308   4.82528
 Alpha virt. eigenvalues --    4.85005   4.87476   4.88701   4.89023   4.93525
 Alpha virt. eigenvalues --    4.94780   4.98162   5.00800   5.01688   5.07605
 Alpha virt. eigenvalues --    5.13068   5.16690   5.19443   5.21193   5.22409
 Alpha virt. eigenvalues --    5.26336   5.32016   5.38009   5.42874   5.48377
 Alpha virt. eigenvalues --    5.50809   5.53452   5.57462   5.59110   5.60690
 Alpha virt. eigenvalues --    5.68333   5.71605   5.72553   5.73010   5.76399
 Alpha virt. eigenvalues --    5.76578   5.79545   5.81201   5.81716   5.85327
 Alpha virt. eigenvalues --    5.85978   5.87784   5.90188   5.92021   5.93038
 Alpha virt. eigenvalues --    5.95033   5.96360   5.98601   6.00022   6.01338
 Alpha virt. eigenvalues --    6.03414   6.06371   6.10830   6.12586   6.13082
 Alpha virt. eigenvalues --    6.14895   6.16815   6.20313   6.24375   6.25358
 Alpha virt. eigenvalues --    6.27835   6.30819   6.32863   6.34135   6.36566
 Alpha virt. eigenvalues --    6.40604   6.42008   6.44330   6.49874   6.51729
 Alpha virt. eigenvalues --    6.58021   6.61838   6.65090   6.68431   6.70472
 Alpha virt. eigenvalues --    6.71842   6.72379   6.75075   6.78940   6.80671
 Alpha virt. eigenvalues --    6.82921   6.88605   6.89357   6.90512   6.93552
 Alpha virt. eigenvalues --    6.96444   6.97111   7.01440   7.01966   7.04711
 Alpha virt. eigenvalues --    7.06228   7.08500   7.10904   7.13248   7.13628
 Alpha virt. eigenvalues --    7.14898   7.16497   7.18083   7.20940   7.22056
 Alpha virt. eigenvalues --    7.23440   7.25528   7.26283   7.27995   7.29959
 Alpha virt. eigenvalues --    7.32242   7.35741   7.37638   7.40100   7.41067
 Alpha virt. eigenvalues --    7.41598   7.44471   7.47071   7.47826   7.50323
 Alpha virt. eigenvalues --    7.52467   7.53450   7.57251   7.60962   7.64507
 Alpha virt. eigenvalues --    7.67665   7.70774   7.73449   7.73994   7.75677
 Alpha virt. eigenvalues --    7.76916   7.79444   7.81232   7.85646   7.88013
 Alpha virt. eigenvalues --    7.88752   7.91339   7.93021   7.98360   7.99087
 Alpha virt. eigenvalues --    7.99403   8.01768   8.03444   8.06248   8.08133
 Alpha virt. eigenvalues --    8.09225   8.10883   8.11743   8.13618   8.18915
 Alpha virt. eigenvalues --    8.19868   8.20836   8.21672   8.23112   8.25520
 Alpha virt. eigenvalues --    8.26692   8.29754   8.30214   8.33704   8.35001
 Alpha virt. eigenvalues --    8.37076   8.39104   8.41395   8.44137   8.46198
 Alpha virt. eigenvalues --    8.47732   8.51065   8.51921   8.53372   8.55800
 Alpha virt. eigenvalues --    8.58361   8.58699   8.59053   8.63757   8.66243
 Alpha virt. eigenvalues --    8.68292   8.68587   8.70831   8.70991   8.71706
 Alpha virt. eigenvalues --    8.74124   8.74576   8.79173   8.80748   8.84506
 Alpha virt. eigenvalues --    8.86758   8.87431   8.89560   8.90684   8.91813
 Alpha virt. eigenvalues --    8.95531   8.96397   8.99087   9.02159   9.04054
 Alpha virt. eigenvalues --    9.04937   9.07511   9.08085   9.12104   9.13106
 Alpha virt. eigenvalues --    9.14880   9.15933   9.18995   9.19924   9.21314
 Alpha virt. eigenvalues --    9.24039   9.26801   9.28665   9.33280   9.37427
 Alpha virt. eigenvalues --    9.37726   9.45714   9.48150   9.49961   9.56497
 Alpha virt. eigenvalues --    9.62889   9.64487   9.70782   9.73833   9.81193
 Alpha virt. eigenvalues --    9.87347   9.90466   9.93644   9.97883  10.15862
 Alpha virt. eigenvalues --   10.25590  10.31708  10.35764  10.48038  10.54422
 Alpha virt. eigenvalues --   10.56934  10.78535  10.80839  10.90160  10.96043
 Alpha virt. eigenvalues --   11.03067  11.12489  11.17066  11.24377  11.30954
 Alpha virt. eigenvalues --   11.32002  11.33502  11.33994  11.35349  11.35556
 Alpha virt. eigenvalues --   11.36706  11.38198  11.42190  11.43533  11.47832
 Alpha virt. eigenvalues --   11.52317  11.52742  11.56134  11.65035  11.68821
 Alpha virt. eigenvalues --   11.73939  11.94575  12.19741  12.35788  12.46233
 Alpha virt. eigenvalues --   12.91789  13.28666  13.48680  13.84280  14.20767
 Alpha virt. eigenvalues --   14.26285  14.52651  14.55277  14.63041  14.65481
 Alpha virt. eigenvalues --   14.76153  14.79895  14.82758  14.95059  15.52201
 Alpha virt. eigenvalues --   15.96027  15.99844  16.12357  16.18790  16.42496
 Alpha virt. eigenvalues --   16.56654  20.44595  20.54398  37.25541  38.18163
 Alpha virt. eigenvalues --   46.71701  48.23672  54.52656 101.93066 102.01437
 Alpha virt. eigenvalues --  194.77370 195.79688 251.32781 254.68276 283.45209
  Beta  occ. eigenvalues --  -56.87736 -25.22918 -19.71994 -14.88629 -14.88392
  Beta  occ. eigenvalues --   -7.04570  -6.99953  -4.39904  -2.90487  -2.90339
  Beta  occ. eigenvalues --   -2.90121  -1.31458  -1.26424  -1.10100  -0.84988
  Beta  occ. eigenvalues --   -0.69853  -0.68182  -0.67452  -0.61143  -0.57827
  Beta  occ. eigenvalues --   -0.54381  -0.53124  -0.52009  -0.50744  -0.47832
  Beta  occ. eigenvalues --   -0.45318  -0.42892  -0.39942  -0.38506  -0.38105
  Beta  occ. eigenvalues --   -0.34411
  Beta virt. eigenvalues --   -0.06530   0.00100   0.01354   0.01787   0.03401
  Beta virt. eigenvalues --    0.04149   0.04577   0.06275   0.07108   0.07614
  Beta virt. eigenvalues --    0.08491   0.09052   0.09299   0.10220   0.11202
  Beta virt. eigenvalues --    0.12206   0.12565   0.13502   0.14897   0.16799
  Beta virt. eigenvalues --    0.17725   0.18913   0.20486   0.21035   0.21358
  Beta virt. eigenvalues --    0.22029   0.22790   0.23287   0.23712   0.24960
  Beta virt. eigenvalues --    0.25321   0.26765   0.27672   0.28287   0.29490
  Beta virt. eigenvalues --    0.29791   0.30356   0.31312   0.31679   0.32018
  Beta virt. eigenvalues --    0.32730   0.33516   0.34240   0.34910   0.36036
  Beta virt. eigenvalues --    0.37713   0.37991   0.38707   0.39723   0.41044
  Beta virt. eigenvalues --    0.42796   0.43889   0.45815   0.45941   0.46282
  Beta virt. eigenvalues --    0.48285   0.48999   0.50567   0.51267   0.51834
  Beta virt. eigenvalues --    0.53469   0.53984   0.54172   0.55560   0.56080
  Beta virt. eigenvalues --    0.56468   0.56748   0.58449   0.59584   0.60107
  Beta virt. eigenvalues --    0.62332   0.62576   0.63022   0.64132   0.65797
  Beta virt. eigenvalues --    0.67579   0.68805   0.68960   0.70019   0.70501
  Beta virt. eigenvalues --    0.71497   0.72864   0.75216   0.76711   0.77797
  Beta virt. eigenvalues --    0.78078   0.80735   0.81408   0.82491   0.83590
  Beta virt. eigenvalues --    0.84669   0.86049   0.87381   0.88086   0.89661
  Beta virt. eigenvalues --    0.90542   0.91222   0.93139   0.94375   0.95350
  Beta virt. eigenvalues --    0.96355   0.98396   0.99094   0.99586   1.00478
  Beta virt. eigenvalues --    1.02435   1.03487   1.03568   1.05517   1.06602
  Beta virt. eigenvalues --    1.07526   1.07861   1.08488   1.10659   1.11735
  Beta virt. eigenvalues --    1.12527   1.13075   1.14491   1.15684   1.17850
  Beta virt. eigenvalues --    1.18407   1.18800   1.20057   1.21353   1.21730
  Beta virt. eigenvalues --    1.22993   1.23159   1.24097   1.25548   1.27101
  Beta virt. eigenvalues --    1.28324   1.29849   1.30302   1.32002   1.33071
  Beta virt. eigenvalues --    1.35127   1.35767   1.36293   1.37117   1.37940
  Beta virt. eigenvalues --    1.39110   1.40791   1.41758   1.43366   1.44786
  Beta virt. eigenvalues --    1.45710   1.46683   1.47817   1.48138   1.48866
  Beta virt. eigenvalues --    1.51366   1.52474   1.53305   1.53604   1.55798
  Beta virt. eigenvalues --    1.55922   1.56567   1.58101   1.59982   1.60679
  Beta virt. eigenvalues --    1.60997   1.63572   1.64215   1.65863   1.67398
  Beta virt. eigenvalues --    1.70049   1.71334   1.71542   1.72219   1.74583
  Beta virt. eigenvalues --    1.76014   1.76405   1.77889   1.79842   1.80430
  Beta virt. eigenvalues --    1.82440   1.82848   1.84231   1.85019   1.86563
  Beta virt. eigenvalues --    1.88604   1.90549   1.91852   1.94102   1.95602
  Beta virt. eigenvalues --    1.97027   1.98924   1.99661   2.02211   2.02884
  Beta virt. eigenvalues --    2.04643   2.08087   2.08625   2.10018   2.10855
  Beta virt. eigenvalues --    2.12546   2.13760   2.14667   2.17123   2.18482
  Beta virt. eigenvalues --    2.19398   2.21340   2.22314   2.23070   2.24281
  Beta virt. eigenvalues --    2.26173   2.27522   2.29534   2.30537   2.32090
  Beta virt. eigenvalues --    2.34564   2.35585   2.37634   2.39371   2.40210
  Beta virt. eigenvalues --    2.41726   2.42626   2.45644   2.47173   2.47661
  Beta virt. eigenvalues --    2.49467   2.51273   2.51462   2.53030   2.54282
  Beta virt. eigenvalues --    2.57272   2.58814   2.59233   2.60187   2.62815
  Beta virt. eigenvalues --    2.63730   2.64625   2.65735   2.67258   2.67939
  Beta virt. eigenvalues --    2.68360   2.69838   2.70281   2.72201   2.73718
  Beta virt. eigenvalues --    2.74271   2.75527   2.76395   2.77046   2.79004
  Beta virt. eigenvalues --    2.79624   2.81504   2.83935   2.84855   2.86622
  Beta virt. eigenvalues --    2.87207   2.88695   2.90422   2.91479   2.92726
  Beta virt. eigenvalues --    2.94249   2.95260   2.96372   2.97043   2.98274
  Beta virt. eigenvalues --    3.00751   3.01604   3.02275   3.02670   3.04641
  Beta virt. eigenvalues --    3.05735   3.07998   3.10992   3.11764   3.13044
  Beta virt. eigenvalues --    3.13472   3.15551   3.17897   3.19252   3.19430
  Beta virt. eigenvalues --    3.22165   3.22758   3.24401   3.25552   3.26713
  Beta virt. eigenvalues --    3.28299   3.29837   3.30956   3.32944   3.34022
  Beta virt. eigenvalues --    3.34361   3.36993   3.38910   3.40003   3.41258
  Beta virt. eigenvalues --    3.42409   3.44209   3.46758   3.48362   3.50509
  Beta virt. eigenvalues --    3.52183   3.53513   3.56499   3.57522   3.58879
  Beta virt. eigenvalues --    3.59527   3.61649   3.65170   3.67188   3.69195
  Beta virt. eigenvalues --    3.70956   3.73502   3.75993   3.77139   3.79363
  Beta virt. eigenvalues --    3.81536   3.83083   3.85751   3.87603   3.90036
  Beta virt. eigenvalues --    3.91327   3.93383   3.93660   3.97144   3.97697
  Beta virt. eigenvalues --    4.03251   4.04204   4.06275   4.08494   4.09582
  Beta virt. eigenvalues --    4.13032   4.13258   4.14903   4.15861   4.19085
  Beta virt. eigenvalues --    4.20346   4.21931   4.23761   4.25672   4.25895
  Beta virt. eigenvalues --    4.28524   4.29926   4.31401   4.33165   4.35550
  Beta virt. eigenvalues --    4.37225   4.38319   4.41016   4.43658   4.44627
  Beta virt. eigenvalues --    4.45427   4.47420   4.48487   4.51314   4.53273
  Beta virt. eigenvalues --    4.55192   4.56165   4.57424   4.60017   4.61641
  Beta virt. eigenvalues --    4.64976   4.65514   4.68553   4.68640   4.70788
  Beta virt. eigenvalues --    4.74142   4.74669   4.77609   4.79515   4.82514
  Beta virt. eigenvalues --    4.82727   4.85153   4.87573   4.88836   4.89222
  Beta virt. eigenvalues --    4.93650   4.94869   4.98228   5.00948   5.01779
  Beta virt. eigenvalues --    5.07814   5.13145   5.16803   5.20120   5.21682
  Beta virt. eigenvalues --    5.22580   5.26509   5.31988   5.37836   5.42912
  Beta virt. eigenvalues --    5.48917   5.51020   5.53637   5.57517   5.59144
  Beta virt. eigenvalues --    5.60757   5.68399   5.71703   5.72591   5.73044
  Beta virt. eigenvalues --    5.76548   5.76632   5.79638   5.81381   5.81835
  Beta virt. eigenvalues --    5.85432   5.86062   5.87861   5.90203   5.92117
  Beta virt. eigenvalues --    5.93091   5.95069   5.96472   5.98609   6.00065
  Beta virt. eigenvalues --    6.01404   6.03492   6.06386   6.10884   6.12775
  Beta virt. eigenvalues --    6.13422   6.14988   6.16907   6.20369   6.24415
  Beta virt. eigenvalues --    6.25693   6.27953   6.31173   6.32991   6.34163
  Beta virt. eigenvalues --    6.36972   6.40861   6.42138   6.44636   6.51121
  Beta virt. eigenvalues --    6.52236   6.58119   6.61948   6.65689   6.68622
  Beta virt. eigenvalues --    6.71057   6.72556   6.72923   6.75594   6.79253
  Beta virt. eigenvalues --    6.81413   6.84146   6.89308   6.89962   6.91538
  Beta virt. eigenvalues --    6.94033   6.97110   6.97954   7.01676   7.02590
  Beta virt. eigenvalues --    7.05073   7.06431   7.09283   7.11439   7.13520
  Beta virt. eigenvalues --    7.14267   7.15328   7.17085   7.18356   7.21397
  Beta virt. eigenvalues --    7.23032   7.23721   7.25706   7.27083   7.28149
  Beta virt. eigenvalues --    7.30116   7.32411   7.36337   7.37731   7.40603
  Beta virt. eigenvalues --    7.41266   7.41840   7.44654   7.47527   7.47941
  Beta virt. eigenvalues --    7.50557   7.52925   7.53627   7.57556   7.61010
  Beta virt. eigenvalues --    7.64587   7.67682   7.71080   7.73503   7.74169
  Beta virt. eigenvalues --    7.75771   7.77529   7.79560   7.81598   7.85927
  Beta virt. eigenvalues --    7.88408   7.88866   7.91539   7.93186   7.98643
  Beta virt. eigenvalues --    7.99387   7.99939   8.02196   8.03819   8.06355
  Beta virt. eigenvalues --    8.08404   8.09318   8.11028   8.12360   8.13782
  Beta virt. eigenvalues --    8.19001   8.20302   8.21170   8.21856   8.23782
  Beta virt. eigenvalues --    8.26022   8.26904   8.30188   8.30263   8.34182
  Beta virt. eigenvalues --    8.35943   8.37496   8.40356   8.41442   8.44335
  Beta virt. eigenvalues --    8.47014   8.48324   8.51330   8.52569   8.54099
  Beta virt. eigenvalues --    8.56427   8.58651   8.58938   8.59650   8.64729
  Beta virt. eigenvalues --    8.68492   8.68832   8.71032   8.71670   8.72714
  Beta virt. eigenvalues --    8.73475   8.76421   8.77116   8.79834   8.81305
  Beta virt. eigenvalues --    8.84956   8.88109   8.89633   8.90926   8.92116
  Beta virt. eigenvalues --    8.94671   8.97198   9.00393   9.01262   9.03533
  Beta virt. eigenvalues --    9.06840   9.07136   9.08449   9.09811   9.12556
  Beta virt. eigenvalues --    9.14411   9.16512   9.17231   9.19327   9.21856
  Beta virt. eigenvalues --    9.22468   9.25232   9.27149   9.30051   9.33720
  Beta virt. eigenvalues --    9.37635   9.38293   9.45742   9.48339   9.50169
  Beta virt. eigenvalues --    9.56516   9.63044   9.64490   9.70750   9.74005
  Beta virt. eigenvalues --    9.80421   9.87682   9.91518   9.94903   9.98153
  Beta virt. eigenvalues --   10.18688  10.29236  10.31726  10.37246  10.47963
  Beta virt. eigenvalues --   10.55108  10.57460  10.78814  10.86162  10.90258
  Beta virt. eigenvalues --   10.96123  11.03086  11.13003  11.18286  11.24233
  Beta virt. eigenvalues --   11.30963  11.32085  11.33502  11.34001  11.35349
  Beta virt. eigenvalues --   11.35557  11.36683  11.37822  11.42164  11.43603
  Beta virt. eigenvalues --   11.47420  11.52768  11.53436  11.56260  11.65023
  Beta virt. eigenvalues --   11.68691  11.73506  11.94501  12.19922  12.37557
  Beta virt. eigenvalues --   12.45583  12.91581  13.30601  13.48721  13.83159
  Beta virt. eigenvalues --   14.19660  14.29398  14.52653  14.55281  14.62126
  Beta virt. eigenvalues --   14.65459  14.76164  14.79903  14.82759  14.95054
  Beta virt. eigenvalues --   15.52171  15.95664  15.99727  16.12354  16.18788
  Beta virt. eigenvalues --   16.42449  16.56625  20.44945  20.54499  37.36752
  Beta virt. eigenvalues --   38.17176  46.71704  48.22678  54.52657 101.93158
  Beta virt. eigenvalues --  102.01452 194.77558 195.79549 251.31061 254.68276
  Beta virt. eigenvalues --  283.45209
          Condensed to atoms (all electrons):
               1          2          3          4          5          6
     1  N    6.691749   0.214140  -0.026310   0.000997  -0.006799  -0.000259
     2  N    0.214140   6.489810  -0.001274  -0.009964  -0.037600   0.003762
     3  H   -0.026310  -0.001274   0.348258   0.055388  -0.001040   0.000003
     4  F    0.000997  -0.009964   0.055388   9.142846  -0.017929   0.000424
     5  H   -0.006799  -0.037600  -0.001040  -0.017929   0.835849   0.002966
     6  H   -0.000259   0.003762   0.000003   0.000424   0.002966   0.639454
     7  H   -0.036535   0.314301   0.008463   0.008060   0.000648   0.000634
     8  B    0.006803  -0.060911  -0.001265   0.004395  -0.069568   0.392992
     9  H    0.000689   0.001204   0.000128   0.000334   0.004039  -0.021835
    10  B    0.008418   0.172572   0.004070   0.006289   0.224166  -0.032081
    11  H   -0.002418  -0.040740  -0.000376   0.000816  -0.011532  -0.002065
    12  Al   0.001444  -0.039103  -0.002534   0.296929   0.139096  -0.025690
    13  H    0.000014   0.000298   0.000516  -0.008639  -0.005675  -0.001210
    14  O    0.171650  -0.066640   0.318107  -0.031972  -0.000555   0.000014
    15  H   -0.000275  -0.000902   0.000447  -0.007914   0.005045  -0.027931
    16  H   -0.023925   0.348006   0.000023   0.000112   0.003824   0.000088
               7          8          9         10         11         12
     1  N   -0.036535   0.006803   0.000689   0.008418  -0.002418   0.001444
     2  N    0.314301  -0.060911   0.001204   0.172572  -0.040740  -0.039103
     3  H    0.008463  -0.001265   0.000128   0.004070  -0.000376  -0.002534
     4  F    0.008060   0.004395   0.000334   0.006289   0.000816   0.296929
     5  H    0.000648  -0.069568   0.004039   0.224166  -0.011532   0.139096
     6  H    0.000634   0.392992  -0.021835  -0.032081  -0.002065  -0.025690
     7  H    0.485978  -0.007522  -0.000186  -0.028258   0.004001  -0.002150
     8  B   -0.007522   4.069385   0.374890   0.313857  -0.013975   0.234801
     9  H   -0.000186   0.374890   0.604061  -0.015137  -0.000906  -0.016645
    10  B   -0.028258   0.313857  -0.015137   3.932352   0.402987   0.189594
    11  H    0.004001  -0.013975  -0.000906   0.402987   0.564268  -0.007712
    12  Al  -0.002150   0.234801  -0.016645   0.189594  -0.007712  11.006357
    13  H    0.000137  -0.018974   0.000588   0.000956   0.000112   0.422515
    14  O    0.001908   0.000214  -0.000071  -0.000223   0.001280   0.004298
    15  H    0.003759   0.210071  -0.006129  -0.078313   0.002532   0.209760
    16  H   -0.023521  -0.000550  -0.000580  -0.018410  -0.005186   0.001279
              13         14         15         16
     1  N    0.000014   0.171650  -0.000275  -0.023925
     2  N    0.000298  -0.066640  -0.000902   0.348006
     3  H    0.000516   0.318107   0.000447   0.000023
     4  F   -0.008639  -0.031972  -0.007914   0.000112
     5  H   -0.005675  -0.000555   0.005045   0.003824
     6  H   -0.001210   0.000014  -0.027931   0.000088
     7  H    0.000137   0.001908   0.003759  -0.023521
     8  B   -0.018974   0.000214   0.210071  -0.000550
     9  H    0.000588  -0.000071  -0.006129  -0.000580
    10  B    0.000956  -0.000223  -0.078313  -0.018410
    11  H    0.000112   0.001280   0.002532  -0.005186
    12  Al   0.422515   0.004298   0.209760   0.001279
    13  H    0.779569  -0.000024  -0.003346  -0.000021
    14  O   -0.000024   7.850498  -0.000091   0.005320
    15  H   -0.003346  -0.000091   0.707643  -0.000286
    16  H   -0.000021   0.005320  -0.000286   0.380942
          Atomic-Atomic Spin Densities.
               1          2          3          4          5          6
     1  N    0.961765   0.028550  -0.003870   0.000213   0.000697  -0.000029
     2  N    0.028550  -0.072944  -0.000236  -0.000481   0.001718  -0.000137
     3  H   -0.003870  -0.000236  -0.006165   0.001088   0.000434  -0.000013
     4  F    0.000213  -0.000481   0.001088  -0.000956  -0.000104  -0.000005
     5  H    0.000697   0.001718   0.000434  -0.000104   0.014545   0.000007
     6  H   -0.000029  -0.000137  -0.000013  -0.000005   0.000007  -0.000581
     7  H   -0.019922  -0.012791   0.002685   0.000124   0.000619  -0.000171
     8  B    0.001154   0.000268   0.000390   0.000483   0.001996   0.002253
     9  H   -0.000009  -0.000265   0.000025  -0.000008   0.000059  -0.000532
    10  B   -0.017577   0.021949  -0.001763  -0.000329  -0.010692  -0.000984
    11  H   -0.003193   0.003833   0.000029   0.000001   0.001749   0.000084
    12  Al  -0.002016   0.003068  -0.000056  -0.000096  -0.000571   0.000019
    13  H    0.000002  -0.000034  -0.000034  -0.000113   0.000018   0.000001
    14  O   -0.138483   0.000920   0.005994  -0.000096   0.000597   0.000007
    15  H   -0.000101  -0.000061  -0.000075  -0.000094   0.000201   0.000134
    16  H   -0.003595  -0.006093  -0.000008  -0.000002   0.000055  -0.000018
               7          8          9         10         11         12
     1  N   -0.019922   0.001154  -0.000009  -0.017577  -0.003193  -0.002016
     2  N   -0.012791   0.000268  -0.000265   0.021949   0.003833   0.003068
     3  H    0.002685   0.000390   0.000025  -0.001763   0.000029  -0.000056
     4  F    0.000124   0.000483  -0.000008  -0.000329   0.000001  -0.000096
     5  H    0.000619   0.001996   0.000059  -0.010692   0.001749  -0.000571
     6  H   -0.000171   0.002253  -0.000532  -0.000984   0.000084   0.000019
     7  H    0.054224   0.004170   0.000871  -0.017061  -0.000369  -0.002129
     8  B    0.004170  -0.022525  -0.000921   0.009164  -0.001851  -0.001908
     9  H    0.000871  -0.000921   0.001197  -0.000622   0.000075   0.000438
    10  B   -0.017061   0.009164  -0.000622   0.015629   0.004573   0.001507
    11  H   -0.000369  -0.001851   0.000075   0.004573  -0.000385  -0.000480
    12  Al  -0.002129  -0.001908   0.000438   0.001507  -0.000480  -0.000338
    13  H   -0.000009  -0.000474   0.000003   0.000142   0.000017   0.000057
    14  O    0.006249  -0.000405   0.000002   0.000051  -0.000000   0.001751
    15  H   -0.000856   0.002727   0.000115  -0.002234   0.000178   0.000435
    16  H    0.006196   0.001194   0.000130  -0.001820   0.001208  -0.000176
              13         14         15         16
     1  N    0.000002  -0.138483  -0.000101  -0.003595
     2  N   -0.000034   0.000920  -0.000061  -0.006093
     3  H   -0.000034   0.005994  -0.000075  -0.000008
     4  F   -0.000113  -0.000096  -0.000094  -0.000002
     5  H    0.000018   0.000597   0.000201   0.000055
     6  H    0.000001   0.000007   0.000134  -0.000018
     7  H   -0.000009   0.006249  -0.000856   0.006196
     8  B   -0.000474  -0.000405   0.002727   0.001194
     9  H    0.000003   0.000002   0.000115   0.000130
    10  B    0.000142   0.000051  -0.002234  -0.001820
    11  H    0.000017  -0.000000   0.000178   0.001208
    12  Al   0.000057   0.001751   0.000435  -0.000176
    13  H   -0.000015   0.000009   0.000215   0.000001
    14  O    0.000009   0.316860   0.000023   0.000228
    15  H    0.000215   0.000023   0.000324  -0.000020
    16  H    0.000001   0.000228  -0.000020   0.005043
 Mulliken charges and spin densities:
               1          2
     1  N    0.000615   0.803586
     2  N   -0.286960  -0.032736
     3  H    0.297397  -0.001575
     4  F   -0.440170  -0.000375
     5  H   -0.064936   0.011327
     6  H    0.070735   0.000036
     7  H    0.270282   0.021831
     8  B   -0.434642  -0.004284
     9  H    0.075555   0.000558
    10  B   -0.082839  -0.000067
    11  H    0.108915   0.005468
    12  Al   0.587760  -0.000496
    13  H   -0.166814  -0.000215
    14  O   -0.253713   0.193707
    15  H   -0.014069   0.000911
    16  H    0.332884   0.002323
 Sum of Mulliken charges =  -0.00000   1.00000
 Mulliken charges and spin densities with hydrogens summed into heavy atoms:
               1          2
     1  N    0.000615   0.803586
     2  N    0.316206  -0.008581
     4  F   -0.440170  -0.000375
     8  B   -0.302420  -0.002778
    10  B   -0.038861   0.016728
    12  Al   0.420946  -0.000711
    14  O    0.043684   0.192132
 Electronic spatial extent (au):  <R**2>=            994.2422
 Charge=             -0.0000 electrons
 Dipole moment (field-independent basis, Debye):
    X=             -1.1127    Y=              0.4951    Z=             -1.6813  Tot=              2.0761
 Quadrupole moment (field-independent basis, Debye-Ang):
   XX=            -60.8655   YY=            -53.7992   ZZ=            -51.5717
   XY=             -6.0901   XZ=              2.7219   YZ=             -2.2894
 Traceless Quadrupole moment (field-independent basis, Debye-Ang):
   XX=             -5.4534   YY=              1.6130   ZZ=              3.8404
   XY=             -6.0901   XZ=              2.7219   YZ=             -2.2894
 Octapole moment (field-independent basis, Debye-Ang**2):
  XXX=            -21.4970  YYY=            -17.5493  ZZZ=            -10.7977  XYY=            -23.4986
  XXY=            -12.6249  XXZ=             -9.7064  XZZ=            -13.1231  YZZ=             -7.6627
  YYZ=             -5.4121  XYZ=              7.1082
 Hexadecapole moment (field-independent basis, Debye-Ang**3):
 XXXX=           -915.4554 YYYY=           -431.0071 ZZZZ=           -158.9299 XXXY=            -28.9143
 XXXZ=             -4.4920 YYYX=            -37.7248 YYYZ=             -2.7615 ZZZX=              2.5549
 ZZZY=              4.4240 XXYY=           -227.2535 XXZZ=           -169.4338 YYZZ=           -104.2088
 XXYZ=             11.8302 YYXZ=              4.8046 ZZXY=             -6.5125
 N-N= 3.739073221417D+02 E-N=-2.123849867028D+03  KE= 5.801381342653D+02
                          Isotropic Fermi Contact Couplings
        Atom                 a.u.       MegaHertz       Gauss      10(-4) cm-1
     1  N(14)              0.15441      49.89197      17.80269      16.64217
     2  N(14)             -0.02888      -9.32972      -3.32908      -3.11206
     3  H(1)              -0.00427     -19.10250      -6.81625      -6.37191
     4  F(19)             -0.00168      -7.08517      -2.52816      -2.36336
     5  H(1)              -0.00053      -2.36270      -0.84307      -0.78811
     6  H(1)               0.00007       0.32751       0.11686       0.10925
     7  H(1)               0.01013      45.27738      16.15609      15.10291
     8  B(11)             -0.00030      -0.43452      -0.15505      -0.14494
     9  H(1)              -0.00022      -0.96364      -0.34385      -0.32144
    10  B(11)              0.00889      12.74712       4.54849       4.25198
    11  H(1)              -0.00043      -1.93964      -0.69211      -0.64700
    12  Al(27)             0.00150       1.74432       0.62242       0.58184
    13  H(1)               0.00005       0.20454       0.07299       0.06823
    14  O(17)              0.03427     -20.77719      -7.41382      -6.93052
    15  H(1)               0.00018       0.79313       0.28301       0.26456
    16  H(1)               0.00131       5.85533       2.08933       1.95313
 PrsmSu:  requested number of processors reduced to:  20 ShMem   1 Linda.
 --------------------------------------------------------
       Center         ----  Spin Dipole Couplings  ----
                      3XX-RR        3YY-RR        3ZZ-RR
 --------------------------------------------------------
     1   Atom       -0.632807     -1.069805      1.702612
     2   Atom       -0.005964     -0.019337      0.025301
     3   Atom        0.027081     -0.012771     -0.014310
     4   Atom       -0.003127     -0.001587      0.004714
     5   Atom        0.008798     -0.005707     -0.003090
     6   Atom        0.001984     -0.001023     -0.000961
     7   Atom        0.008317     -0.008986      0.000668
     8   Atom        0.004194     -0.002435     -0.001760
     9   Atom        0.002136     -0.000941     -0.001194
    10   Atom        0.021301     -0.013327     -0.007973
    11   Atom        0.002557     -0.000405     -0.002152
    12   Atom        0.003340     -0.000100     -0.003241
    13   Atom        0.001657     -0.000666     -0.000991
    14   Atom       -0.366002     -0.658442      1.024444
    15   Atom        0.002671     -0.001460     -0.001211
    16   Atom       -0.002372      0.007686     -0.005314
 --------------------------------------------------------
                        XY            XZ            YZ
 --------------------------------------------------------
     1   Atom        0.104789      1.055128      0.216714
     2   Atom       -0.015055      0.050152     -0.000012
     3   Atom       -0.034104     -0.013988      0.011408
     4   Atom       -0.003128      0.001160     -0.000793
     5   Atom       -0.001210      0.007895     -0.001669
     6   Atom        0.000917      0.000092      0.000065
     7   Atom        0.000751     -0.017506     -0.002101
     8   Atom        0.002105     -0.002201     -0.000618
     9   Atom        0.001960     -0.001503     -0.000806
    10   Atom        0.004105      0.014520      0.000784
    11   Atom        0.005333      0.003917      0.003764
    12   Atom       -0.002511      0.000045      0.000904
    13   Atom       -0.001000      0.000594     -0.000239
    14   Atom        0.016306      0.572079      0.113679
    15   Atom       -0.000003     -0.001193      0.000146
    16   Atom        0.015624     -0.006759     -0.008872
 --------------------------------------------------------


 ---------------------------------------------------------------------------------
              Anisotropic Spin Dipole Couplings in Principal Axis System
 ---------------------------------------------------------------------------------

       Atom             a.u.   MegaHertz   Gauss  10(-4) cm-1        Axes

              Baa    -1.0949   -42.227   -15.068   -14.085 -0.3378  0.9396  0.0546
     1 N(14)  Bbb    -1.0318   -39.795   -14.200   -13.274  0.8702  0.3339 -0.3623
              Bcc     2.1267    82.022    29.268    27.360  0.3586  0.0748  0.9305
 
              Baa    -0.0481    -1.855    -0.662    -0.619  0.7580  0.3965 -0.5178
     2 N(14)  Bbb    -0.0151    -0.582    -0.208    -0.194 -0.2579  0.9115  0.3205
              Bcc     0.0632     2.437     0.870     0.813  0.5991 -0.1094  0.7932
 
              Baa    -0.0329   -17.570    -6.270    -5.861  0.4495  0.8715 -0.1962
     3 H(1)   Bbb    -0.0186    -9.898    -3.532    -3.302  0.3239  0.0458  0.9450
              Bcc     0.0515    27.469     9.802     9.163  0.8325 -0.4883 -0.2617
 
              Baa    -0.0056    -2.810    -1.003    -0.937  0.7918  0.6093 -0.0423
     4 F(19)  Bbb     0.0004     0.224     0.080     0.075 -0.5722  0.7642  0.2975
              Bcc     0.0051     2.586     0.923     0.863  0.2136 -0.2114  0.9538
 
              Baa    -0.0076    -4.036    -1.440    -1.346 -0.3492  0.4899  0.7988
     5 H(1)   Bbb    -0.0054    -2.855    -1.019    -0.952  0.2979  0.8662 -0.4011
              Bcc     0.0129     6.891     2.459     2.299  0.8884 -0.0979  0.4484
 
              Baa    -0.0013    -0.686    -0.245    -0.229 -0.2651  0.9572 -0.1158
     6 H(1)   Bbb    -0.0010    -0.512    -0.183    -0.171 -0.0631  0.1027  0.9927
              Bcc     0.0022     1.198     0.427     0.400  0.9621  0.2705  0.0332
 
              Baa    -0.0137    -7.320    -2.612    -2.442  0.5981  0.2439  0.7634
     7 H(1)   Bbb    -0.0088    -4.699    -1.677    -1.567 -0.1991  0.9679 -0.1532
              Bcc     0.0225    12.019     4.289     4.009  0.7763  0.0603 -0.6275
 
              Baa    -0.0030    -0.522    -0.186    -0.174 -0.2882  0.9570 -0.0332
     8 B(11)  Bbb    -0.0025    -0.424    -0.151    -0.141  0.2778  0.1167  0.9535
              Bcc     0.0055     0.946     0.337     0.315  0.9164  0.2656 -0.2995
 
              Baa    -0.0019    -1.027    -0.366    -0.342 -0.2728  0.8738  0.4026
     9 H(1)   Bbb    -0.0018    -0.939    -0.335    -0.313  0.4558 -0.2511  0.8539
              Bcc     0.0037     1.966     0.701     0.656  0.8472  0.4164 -0.3298
 
              Baa    -0.0147    -2.515    -0.897    -0.839 -0.3454  0.6566  0.6705
    10 B(11)  Bbb    -0.0130    -2.226    -0.794    -0.743  0.1810  0.7476 -0.6390
              Bcc     0.0277     4.741     1.692     1.581  0.9208  0.0994  0.3771
 
              Baa    -0.0052    -2.759    -0.985    -0.920  0.1181 -0.6934  0.7109
    11 H(1)   Bbb    -0.0040    -2.141    -0.764    -0.714  0.6979 -0.4513 -0.5561
              Bcc     0.0092     4.901     1.749     1.635  0.7064  0.5618  0.4306
 
              Baa    -0.0036    -0.497    -0.177    -0.166 -0.1280 -0.3355  0.9333
    12 Al(27) Bbb    -0.0011    -0.155    -0.055    -0.052  0.4564  0.8155  0.3558
              Bcc     0.0047     0.652     0.232     0.217  0.8805 -0.4715 -0.0487
 
              Baa    -0.0011    -0.600    -0.214    -0.200 -0.1154  0.2504  0.9613
    13 H(1)   Bbb    -0.0010    -0.552    -0.197    -0.184  0.3787  0.9057 -0.1904
              Bcc     0.0022     1.152     0.411     0.384  0.9183 -0.3421  0.1993
 
              Baa    -0.6704    48.513    17.310    16.182  0.1927  0.9726 -0.1303
    14 O(17)  Bbb    -0.5658    40.941    14.609    13.656  0.9219 -0.2250 -0.3156
              Bcc     1.2362   -89.454   -31.919   -29.839  0.3362  0.0593  0.9399
 
              Baa    -0.0017    -0.881    -0.314    -0.294  0.2139 -0.5918  0.7772
    15 H(1)   Bbb    -0.0014    -0.724    -0.258    -0.242  0.1686  0.8060  0.5673
              Bcc     0.0030     1.605     0.573     0.536  0.9622 -0.0097 -0.2722
 
[...]
  Beta virt. eigenvalues --   14.65459  14.76164  14.79903  14.82759  14.95054
  Beta virt. eigenvalues --   15.52171  15.95664  15.99727  16.12354  16.18788
  Beta virt. eigenvalues --   16.42449  16.56625  20.44945  20.54499  37.36752
  Beta virt. eigenvalues --   38.17176  46.71704  48.22678  54.52657 101.93158
  Beta virt. eigenvalues --  102.01452 194.77558 195.79549 251.31061 254.68276
  Beta virt. eigenvalues --  283.45209
          Condensed to atoms (all electrons):
               1          2          3          4          5          6
     1  N    6.691749   0.214140  -0.026310   0.000997  -0.006799  -0.000259
     2  N    0.214140   6.489810  -0.001274  -0.009964  -0.037600   0.003762
     3  H   -0.026310  -0.001274   0.348258   0.055388  -0.001040   0.000003
     4  F    0.000997  -0.009964   0.055388   9.142846  -0.017929   0.000424
     5  H   -0.006799  -0.037600  -0.001040  -0.017929   0.835849   0.002966
     6  H   -0.000259   0.003762   0.000003   0.000424   0.002966   0.639454
     7  H   -0.036535   0.314301   0.008463   0.008060   0.000648   0.000634
     8  B    0.006803  -0.060911  -0.001265   0.004395  -0.069568   0.392992
     9  H    0.000689   0.001204   0.000128   0.000334   0.004039  -0.021835
    10  B    0.008418   0.172572   0.004070   0.006289   0.224166  -0.032081
    11  H   -0.002418  -0.040740  -0.000376   0.000816  -0.011532  -0.002065
    12  Al   0.001444  -0.039103  -0.002534   0.296929   0.139096  -0.025690
    13  H    0.000014   0.000298   0.000516  -0.008639  -0.005675  -0.001210
    14  O    0.171650  -0.066640   0.318107  -0.031972  -0.000555   0.000014
    15  H   -0.000275  -0.000902   0.000447  -0.007914   0.005045  -0.027931
    16  H   -0.023925   0.348006   0.000023   0.000112   0.003824   0.000088
               7          8          9         10         11         12
     1  N   -0.036535   0.006803   0.000689   0.008418  -0.002418   0.001444
     2  N    0.314301  -0.060911   0.001204   0.172572  -0.040740  -0.039103
     3  H    0.008463  -0.001265   0.000128   0.004070  -0.000376  -0.002534
     4  F    0.008060   0.004395   0.000334   0.006289   0.000816   0.296929
     5  H    0.000648  -0.069568   0.004039   0.224166  -0.011532   0.139096
     6  H    0.000634   0.392992  -0.021835  -0.032081  -0.002065  -0.025690
     7  H    0.485978  -0.007522  -0.000186  -0.028258   0.004001  -0.002150
     8  B   -0.007522   4.069385   0.374890   0.313857  -0.013975   0.234801
     9  H   -0.000186   0.374890   0.604061  -0.015137  -0.000906  -0.016645
    10  B   -0.028258   0.313857  -0.015137   3.932352   0.402987   0.189594
    11  H    0.004001  -0.013975  -0.000906   0.402987   0.564268  -0.007712
    12  Al  -0.002150   0.234801  -0.016645   0.189594  -0.007712  11.006357
    13  H    0.000137  -0.018974   0.000588   0.000956   0.000112   0.422515
    14  O    0.001908   0.000214  -0.000071  -0.000223   0.001280   0.004298
    15  H    0.003759   0.210071  -0.006129  -0.078313   0.002532   0.209760
    16  H   -0.023521  -0.000550  -0.000580  -0.018410  -0.005186   0.001279
              13         14         15         16
     1  N    0.000014   0.171650  -0.000275  -0.023925
     2  N    0.000298  -0.066640  -0.000902   0.348006
     3  H    0.000516   0.318107   0.000447   0.000023
     4  F   -0.008639  -0.031972  -0.007914   0.000112
     5  H   -0.005675  -0.000555   0.005045   0.003824
     6  H   -0.001210   0.000014  -0.027931   0.000088
     7  H    0.000137   0.001908   0.003759  -0.023521
     8  B   -0.018974   0.000214   0.210071  -0.000550
     9  H    0.000588  -0.000071  -0.006129  -0.000580
    10  B    0.000956  -0.000223  -0.078313  -0.018410
    11  H    0.000112   0.001280   0.002532  -0.005186
    12  Al   0.422515   0.004298   0.209760   0.001279
    13  H    0.779569  -0.000024  -0.003346  -0.000021
    14  O   -0.000024   7.850498  -0.000091   0.005320
    15  H   -0.003346  -0.000091   0.707643  -0.000286
    16  H   -0.000021   0.005320  -0.000286   0.380942
          Atomic-Atomic Spin Densities.
               1          2          3          4          5          6
     1  N    0.961765   0.028550  -0.003870   0.000213   0.000697  -0.000029
     2  N    0.028550  -0.072944  -0.000236  -0.000481   0.001718  -0.000137
     3  H   -0.003870  -0.000236  -0.006165   0.001088   0.000434  -0.000013
     4  F    0.000213  -0.000481   0.001088  -0.000956  -0.000104  -0.000005
     5  H    0.000697   0.001718   0.000434  -0.000104   0.014545   0.000007
     6  H   -0.000029  -0.000137  -0.000013  -0.000005   0.000007  -0.000581
     7  H   -0.019922  -0.012791   0.002685   0.000124   0.000619  -0.000171
     8  B    0.001154   0.000268   0.000390   0.000483   0.001996   0.002253
     9  H   -0.000009  -0.000265   0.000025  -0.000008   0.000059  -0.000532
    10  B   -0.017577   0.021949  -0.001763  -0.000329  -0.010692  -0.000984
    11  H   -0.003193   0.003833   0.000029   0.000001   0.001749   0.000084
    12  Al  -0.002016   0.003068  -0.000056  -0.000096  -0.000571   0.000019
    13  H    0.000002  -0.000034  -0.000034  -0.000113   0.000018   0.000001
    14  O   -0.138483   0.000920   0.005994  -0.000096   0.000597   0.000007
    15  H   -0.000101  -0.000061  -0.000075  -0.000094   0.000201   0.000134
    16  H   -0.003595  -0.006093  -0.000008  -0.000002   0.000055  -0.000018
               7          8          9         10         11         12
     1  N   -0.019922   0.001154  -0.000009  -0.017577  -0.003193  -0.002016
     2  N   -0.012791   0.000268  -0.000265   0.021949   0.003833   0.003068
     3  H    0.002685   0.000390   0.000025  -0.001763   0.000029  -0.000056
     4  F    0.000124   0.000483  -0.000008  -0.000329   0.000001  -0.000096
     5  H    0.000619   0.001996   0.000059  -0.010692   0.001749  -0.000571
     6  H   -0.000171   0.002253  -0.000532  -0.000984   0.000084   0.000019
     7  H    0.054224   0.004170   0.000871  -0.017061  -0.000369  -0.002129
     8  B    0.004170  -0.022525  -0.000921   0.009164  -0.001851  -0.001908
     9  H    0.000871  -0.000921   0.001197  -0.000622   0.000075   0.000438
    10  B   -0.017061   0.009164  -0.000622   0.015629   0.004573   0.001507
    11  H   -0.000369  -0.001851   0.000075   0.004573  -0.000385  -0.000480
    12  Al  -0.002129  -0.001908   0.000438   0.001507  -0.000480  -0.000338
    13  H   -0.000009  -0.000474   0.000003   0.000142   0.000017   0.000057
    14  O    0.006249  -0.000405   0.000002   0.000051  -0.000000   0.001751
    15  H   -0.000856   0.002727   0.000115  -0.002234   0.000178   0.000435
    16  H    0.006196   0.001194   0.000130  -0.001820   0.001208  -0.000176
              13         14         15         16
     1  N    0.000002  -0.138483  -0.000101  -0.003595
     2  N   -0.000034   0.000920  -0.000061  -0.006093
     3  H   -0.000034   0.005994  -0.000075  -0.000008
     4  F   -0.000113  -0.000096  -0.000094  -0.000002
     5  H    0.000018   0.000597   0.000201   0.000055
     6  H    0.000001   0.000007   0.000134  -0.000018
     7  H   -0.000009   0.006249  -0.000856   0.006196
     8  B   -0.000474  -0.000405   0.002727   0.001194
     9  H    0.000003   0.000002   0.000115   0.000130
    10  B    0.000142   0.000051  -0.002234  -0.001820
    11  H    0.000017  -0.000000   0.000178   0.001208
    12  Al   0.000057   0.001751   0.000435  -0.000176
    13  H   -0.000015   0.000009   0.000215   0.000001
    14  O    0.000009   0.316860   0.000023   0.000228
    15  H    0.000215   0.000023   0.000324  -0.000020
    16  H    0.000001   0.000228  -0.000020   0.005043
 Mulliken charges and spin densities:
               1          2
     1  N    0.000615   0.803586
     2  N   -0.286960  -0.032736
     3  H    0.297397  -0.001575
     4  F   -0.440170  -0.000375
     5  H   -0.064936   0.011327
     6  H    0.070735   0.000036
     7  H    0.270282   0.021831
     8  B   -0.434642  -0.004284
     9  H    0.075555   0.000558
    10  B   -0.082839  -0.000067
    11  H    0.108915   0.005468
    12  Al   0.587760  -0.000496
    13  H   -0.166814  -0.000215
    14  O   -0.253713   0.193707
    15  H   -0.014069   0.000911
    16  H    0.332884   0.002323
 Sum of Mulliken charges =  -0.00000   1.00000
 Mulliken charges and spin densities with hydrogens summed into heavy atoms:
               1          2
     1  N    0.000615   0.803586
     2  N    0.316206  -0.008581
     4  F   -0.440170  -0.000375
     8  B   -0.302420  -0.002778
    10  B   -0.038861   0.016728
    12  Al   0.420946  -0.000711
    14  O    0.043684   0.192132
 Electronic spatial extent (au):  <R**2>=            994.2422
 Charge=             -0.0000 electrons
 Dipole moment (field-independent basis, Debye):
    X=             -1.1127    Y=              0.4951    Z=             -1.6813  Tot=              2.0761
 Quadrupole moment (field-independent basis, Debye-Ang):
   XX=            -60.8655   YY=            -53.7992   ZZ=            -51.5717
   XY=             -6.0901   XZ=              2.7219   YZ=             -2.2894
 Traceless Quadrupole moment (field-independent basis, Debye-Ang):
   XX=             -5.4534   YY=              1.6130   ZZ=              3.8404
   XY=             -6.0901   XZ=              2.7219   YZ=             -2.2894
 Octapole moment (field-independent basis, Debye-Ang**2):
  XXX=            -21.4970  YYY=            -17.5493  ZZZ=            -10.7977  XYY=            -23.4986
  XXY=            -12.6249  XXZ=             -9.7064  XZZ=            -13.1231  YZZ=             -7.6627
  YYZ=             -5.4121  XYZ=              7.1082
 Hexadecapole moment (field-independent basis, Debye-Ang**3):
 XXXX=           -915.4554 YYYY=           -431.0071 ZZZZ=           -158.9299 XXXY=            -28.9143
 XXXZ=             -4.4920 YYYX=            -37.7248 YYYZ=             -2.7615 ZZZX=              2.5549
 ZZZY=              4.4240 XXYY=           -227.2535 XXZZ=           -169.4338 YYZZ=           -104.2088
 XXYZ=             11.8302 YYXZ=              4.8046 ZZXY=             -6.5125
 N-N= 3.739073221417D+02 E-N=-2.123849867028D+03  KE= 5.801381342653D+02
                          Isotropic Fermi Contact Couplings
        Atom                 a.u.       MegaHertz       Gauss      10(-4) cm-1
     1  N(14)              0.15441      49.89197      17.80269      16.64217
     2  N(14)             -0.02888      -9.32972      -3.32908      -3.11206
     3  H(1)              -0.00427     -19.10250      -6.81625      -6.37191
     4  F(19)             -0.00168      -7.08517      -2.52816      -2.36336
     5  H(1)              -0.00053      -2.36270      -0.84307      -0.78811
     6  H(1)               0.00007       0.32751       0.11686       0.10925
     7  H(1)               0.01013      45.27738      16.15609      15.10291
     8  B(11)             -0.00030      -0.43452      -0.15505      -0.14494
     9  H(1)              -0.00022      -0.96364      -0.34385      -0.32144
    10  B(11)              0.00889      12.74712       4.54849       4.25198
    11  H(1)              -0.00043      -1.93964      -0.69211      -0.64700
    12  Al(27)             0.00150       1.74432       0.62242       0.58184
    13  H(1)               0.00005       0.20454       0.07299       0.06823
    14  O(17)              0.03427     -20.77719      -7.41382      -6.93052
    15  H(1)               0.00018       0.79313       0.28301       0.26456
    16  H(1)               0.00131       5.85533       2.08933       1.95313
 PrsmSu:  requested number of processors reduced to:  20 ShMem   1 Linda.
 --------------------------------------------------------
       Center         ----  Spin Dipole Couplings  ----
                      3XX-RR        3YY-RR        3ZZ-RR
 --------------------------------------------------------
     1   Atom       -0.632807     -1.069805      1.702612
     2   Atom       -0.005964     -0.019337      0.025301
     3   Atom        0.027081     -0.012771     -0.014310
     4   Atom       -0.003127     -0.001587      0.004714
     5   Atom        0.008798     -0.005707     -0.003090
     6   Atom        0.001984     -0.001023     -0.000961
     7   Atom        0.008317     -0.008986      0.000668
     8   Atom        0.004194     -0.002435     -0.001760
     9   Atom        0.002136     -0.000941     -0.001194
    10   Atom        0.021301     -0.013327     -0.007973
    11   Atom        0.002557     -0.000405     -0.002152
    12   Atom        0.003340     -0.000100     -0.003241
    13   Atom        0.001657     -0.000666     -0.000991
    14   Atom       -0.366002     -0.658442      1.024444
    15   Atom        0.002671     -0.001460     -0.001211
    16   Atom       -0.002372      0.007686     -0.005314
 --------------------------------------------------------
                        XY            XZ            YZ
 --------------------------------------------------------
     1   Atom        0.104789      1.055128      0.216714
     2   Atom       -0.015055      0.050152     -0.000012
     3   Atom       -0.034104     -0.013988      0.011408
     4   Atom       -0.003128      0.001160     -0.000793
     5   Atom       -0.001210      0.007895     -0.001669
     6   Atom        0.000917      0.000092      0.000065
     7   Atom        0.000751     -0.017506     -0.002101
     8   Atom        0.002105     -0.002201     -0.000618
     9   Atom        0.001960     -0.001503     -0.000806
    10   Atom        0.004105      0.014520      0.000784
    11   Atom        0.005333      0.003917      0.003764
    12   Atom       -0.002511      0.000045      0.000904
    13   Atom       -0.001000      0.000594     -0.000239
    14   Atom        0.016306      0.572079      0.113679
    15   Atom       -0.000003     -0.001193      0.000146
    16   Atom        0.015624     -0.006759     -0.008872
 --------------------------------------------------------


 ---------------------------------------------------------------------------------
              Anisotropic Spin Dipole Couplings in Principal Axis System
 ---------------------------------------------------------------------------------

       Atom             a.u.   MegaHertz   Gauss  10(-4) cm-1        Axes

              Baa    -1.0949   -42.227   -15.068   -14.085 -0.3378  0.9396  0.0546
     1 N(14)  Bbb    -1.0318   -39.795   -14.200   -13.274  0.8702  0.3339 -0.3623
              Bcc     2.1267    82.022    29.268    27.360  0.3586  0.0748  0.9305
 
              Baa    -0.0481    -1.855    -0.662    -0.619  0.7580  0.3965 -0.5178
     2 N(14)  Bbb    -0.0151    -0.582    -0.208    -0.194 -0.2579  0.9115  0.3205
              Bcc     0.0632     2.437     0.870     0.813  0.5991 -0.1094  0.7932
 
              Baa    -0.0329   -17.570    -6.270    -5.861  0.4495  0.8715 -0.1962
     3 H(1)   Bbb    -0.0186    -9.898    -3.532    -3.302  0.3239  0.0458  0.9450
              Bcc     0.0515    27.469     9.802     9.163  0.8325 -0.4883 -0.2617
 
              Baa    -0.0056    -2.810    -1.003    -0.937  0.7918  0.6093 -0.0423
     4 F(19)  Bbb     0.0004     0.224     0.080     0.075 -0.5722  0.7642  0.2975
              Bcc     0.0051     2.586     0.923     0.863  0.2136 -0.2114  0.9538
 
              Baa    -0.0076    -4.036    -1.440    -1.346 -0.3492  0.4899  0.7988
     5 H(1)   Bbb    -0.0054    -2.855    -1.019    -0.952  0.2979  0.8662 -0.4011
              Bcc     0.0129     6.891     2.459     2.299  0.8884 -0.0979  0.4484
 
              Baa    -0.0013    -0.686    -0.245    -0.229 -0.2651  0.9572 -0.1158
     6 H(1)   Bbb    -0.0010    -0.512    -0.183    -0.171 -0.0631  0.1027  0.9927
              Bcc     0.0022     1.198     0.427     0.400  0.9621  0.2705  0.0332
 
              Baa    -0.0137    -7.320    -2.612    -2.442  0.5981  0.2439  0.7634
     7 H(1)   Bbb    -0.0088    -4.699    -1.677    -1.567 -0.1991  0.9679 -0.1532
              Bcc     0.0225    12.019     4.289     4.009  0.7763  0.0603 -0.6275
 
              Baa    -0.0030    -0.522    -0.186    -0.174 -0.2882  0.9570 -0.0332
     8 B(11)  Bbb    -0.0025    -0.424    -0.151    -0.141  0.2778  0.1167  0.9535
              Bcc     0.0055     0.946     0.337     0.315  0.9164  0.2656 -0.2995
 
              Baa    -0.0019    -1.027    -0.366    -0.342 -0.2728  0.8738  0.4026
     9 H(1)   Bbb    -0.0018    -0.939    -0.335    -0.313  0.4558 -0.2511  0.8539
              Bcc     0.0037     1.966     0.701     0.656  0.8472  0.4164 -0.3298
 
              Baa    -0.0147    -2.515    -0.897    -0.839 -0.3454  0.6566  0.6705
    10 B(11)  Bbb    -0.0130    -2.226    -0.794    -0.743  0.1810  0.7476 -0.6390
              Bcc     0.0277     4.741     1.692     1.581  0.9208  0.0994  0.3771
 
              Baa    -0.0052    -2.759    -0.985    -0.920  0.1181 -0.6934  0.7109
    11 H(1)   Bbb    -0.0040    -2.141    -0.764    -0.714  0.6979 -0.4513 -0.5561
              Bcc     0.0092     4.901     1.749     1.635  0.7064  0.5618  0.4306
 
              Baa    -0.0036    -0.497    -0.177    -0.166 -0.1280 -0.3355  0.9333
    12 Al(27) Bbb    -0.0011    -0.155    -0.055    -0.052  0.4564  0.8155  0.3558
              Bcc     0.0047     0.652     0.232     0.217  0.8805 -0.4715 -0.0487
 
              Baa    -0.0011    -0.600    -0.214    -0.200 -0.1154  0.2504  0.9613
    13 H(1)   Bbb    -0.0010    -0.552    -0.197    -0.184  0.3787  0.9057 -0.1904
              Bcc     0.0022     1.152     0.411     0.384  0.9183 -0.3421  0.1993
 
              Baa    -0.6704    48.513    17.310    16.182  0.1927  0.9726 -0.1303
    14 O(17)  Bbb    -0.5658    40.941    14.609    13.656  0.9219 -0.2250 -0.3156
              Bcc     1.2362   -89.454   -31.919   -29.839  0.3362  0.0593  0.9399
 
              Baa    -0.0017    -0.881    -0.314    -0.294  0.2139 -0.5918  0.7772
    15 H(1)   Bbb    -0.0014    -0.724    -0.258    -0.242  0.1686  0.8060  0.5673
              Bcc     0.0030     1.605     0.573     0.536  0.9622 -0.0097 -0.2722
 
              Baa    -0.0138    -7.346    -2.621    -2.450  0.8172 -0.5741  0.0509
    16 H(1)   Bbb    -0.0096    -5.140    -1.834    -1.714  0.1695  0.3239  0.9308
              Bcc     0.0234    12.486     4.455     4.165  0.5508  0.7520 -0.3620
 

 ---------------------------------------------------------------------------------

 PrsmSu:  requested number of processors reduced to:  20 ShMem   1 Linda.
 No NMR shielding tensors so no spin-rotation constants.
 Leave Link  601 at Sat Apr 17 06:58:10 2021, MaxMem=   104857600 cpu:             743.0 elap:              16.2
 (Enter /s/ls4/users/knvvv/bin/g16sse/l9999.exe)

 Test job not archived.
 1\1\GINC-N151\Stability\UM062X\def2QZVP\Al1B2F1H9N2O1(2)\KNVVV\17-Apr-
 2021\0\\#P M062X/Def2QZVP Integral=UltraFineGrid SCF=NoSymm Stable=(RE
 xt, Opt) IOp(1/33=1)\\Database calculations.\\0,2\N,0,-2.524775,0.2747
 565,-0.0117877\N,0,-1.1620942,0.8506164,-0.0327618\H,0,-1.6090585,-1.0
 888481,-1.0937757\F,0,-0.0491611,-1.3070638,-1.6057499\H,0,-0.3165149,
 -1.0504654,0.932011\H,0,2.4847279,0.5316933,1.0704365\H,0,-0.8375036,0
 .9088145,-1.0083875\B,0,1.5791762,0.7508199,0.3048057\H,0,1.424653,1.9
 046777,0.0031711\B,0,-0.016608,0.1703122,0.927213\H,0,-0.1733075,0.543
 1297,2.048948\Al,0,1.0929973,-1.1994978,-0.3145784\H,0,1.9345481,-2.47
 0952,0.0330085\O,0,-2.5189296,-0.86809,-0.7289206\H,0,1.9823293,0.2384
 115,-0.817913\H,0,-1.2904792,1.8116853,0.2942808\\Version=ES64L-G16Rev
 A.03\State=2-A\HF=-582.1231421\S2=0.755448\S2-1=0.\S2A=0.750024\RMSD=7
 .415e-09\Dipole=-0.3386072,0.5870948,-0.4558662\Quadrupole=-4.9547772,
 4.40786,0.5469172,-3.7359214,-1.4686984,-1.5016531\PG=C01 [X(Al1B2F1H9
 N2O1)]\\@


 Everything starts as somebody's daydream.
                           -- Larry Niven
 Job cpu time:       1 days 18 hours 10 minutes 29.3 seconds.
 Elapsed time:       0 days  1 hours 35 minutes 10.9 seconds.
 File lengths (MBytes):  RWF=   1048 Int=      0 D2E=      0 Chk=     58 Scr=      1
 Normal termination of Gaussian 16 at Sat Apr 17 06:58:10 2021.
