 Entering Gaussian System, Link 0=/s/ls4/users/knvvv/bin/g16sse/g16
 Input=data/database/M062X--cc-pVTZ-DK--28_Cr+_IP23.gjf
 Output=data/database/M062X--cc-pVTZ-DK--28_Cr+_IP23.log
 Initial command:
 /s/ls4/users/knvvv/bin/g16sse/l1.exe "/s/ls4/users/knvvv/bin/scratch/Gau-9283.inp" -scrdir="/s/ls4/users/knvvv/bin/scratch/"
 Entering Link 1 = /s/ls4/users/knvvv/bin/g16sse/l1.exe PID=      9284.
  
 Copyright (c) 1988,1990,1992,1993,1995,1998,2003,2009,2016,
            Gaussian, Inc.  All Rights Reserved.
  
 This is part of the Gaussian(R) 16 program.  It is based on
 the Gaussian(R) 09 system (copyright 2009, Gaussian, Inc.),
 the Gaussian(R) 03 system (copyright 2003, Gaussian, Inc.),
 the Gaussian(R) 98 system (copyright 1998, Gaussian, Inc.),
 the Gaussian(R) 94 system (copyright 1995, Gaussian, Inc.),
 the Gaussian 92(TM) system (copyright 1992, Gaussian, Inc.),
 the Gaussian 90(TM) system (copyright 1990, Gaussian, Inc.),
 the Gaussian 88(TM) system (copyright 1988, Gaussian, Inc.),
 the Gaussian 86(TM) system (copyright 1986, Carnegie Mellon
 University), and the Gaussian 82(TM) system (copyright 1983,
 Carnegie Mellon University). Gaussian is a federally registered
 trademark of Gaussian, Inc.
  
 This software contains proprietary and confidential information,
 including trade secrets, belonging to Gaussian, Inc.
  
 This software is provided under written license and may be
 used, copied, transmitted, or stored only in accord with that
 written license.
  
 The following legend is applicable only to US Government
 contracts under FAR:
  
                    RESTRICTED RIGHTS LEGEND
  
 Use, reproduction and disclosure by the US Government is
 subject to restrictions as set forth in subparagraphs (a)
 and (c) of the Commercial Computer Software - Restricted
 Rights clause in FAR 52.227-19.
  
 Gaussian, Inc.
 340 Quinnipiac St., Bldg. 40, Wallingford CT 06492
  
  
 ---------------------------------------------------------------
 Warning -- This program may not be used in any manner that
 competes with the business of Gaussian, Inc. or will provide
 assistance to any competitor of Gaussian, Inc.  The licensee
 of this program is prohibited from giving any competitor of
 Gaussian, Inc. access to this program.  By using this program,
 the user acknowledges that Gaussian, Inc. is engaged in the
 business of creating and licensing software in the field of
 computational chemistry and represents and warrants to the
 licensee that it is not a competitor of Gaussian, Inc. and that
 it will not use this program in any manner prohibited above.
 ---------------------------------------------------------------
  

 Cite this work as:
 Gaussian 16, Revision A.03,
 M. J. Frisch, G. W. Trucks, H. B. Schlegel, G. E. Scuseria, 
 M. A. Robb, J. R. Cheeseman, G. Scalmani, V. Barone, 
 G. A. Petersson, H. Nakatsuji, X. Li, M. Caricato, A. V. Marenich, 
 J. Bloino, B. G. Janesko, R. Gomperts, B. Mennucci, H. P. Hratchian, 
 J. V. Ortiz, A. F. Izmaylov, J. L. Sonnenberg, D. Williams-Young, 
 F. Ding, F. Lipparini, F. Egidi, J. Goings, B. Peng, A. Petrone, 
 T. Henderson, D. Ranasinghe, V. G. Zakrzewski, J. Gao, N. Rega, 
 G. Zheng, W. Liang, M. Hada, M. Ehara, K. Toyota, R. Fukuda, 
 J. Hasegawa, M. Ishida, T. Nakajima, Y. Honda, O. Kitao, H. Nakai, 
 T. Vreven, K. Throssell, J. A. Montgomery, Jr., J. E. Peralta, 
 F. Ogliaro, M. J. Bearpark, J. J. Heyd, E. N. Brothers, K. N. Kudin, 
 V. N. Staroverov, T. A. Keith, R. Kobayashi, J. Normand, 
 K. Raghavachari, A. P. Rendell, J. C. Burant, S. S. Iyengar, 
 J. Tomasi, M. Cossi, J. M. Millam, M. Klene, C. Adamo, R. Cammi, 
 J. W. Ochterski, R. L. Martin, K. Morokuma, O. Farkas, 
 J. B. Foresman, and D. J. Fox, Gaussian, Inc., Wallingford CT, 2016.
 
 ******************************************
 Gaussian 16:  ES64L-G16RevA.03 25-Dec-2016
                16-Apr-2021 
 ******************************************
 %RWF=temp24_54469,70GB
 %nprocshared=48
 Will use up to   48 processors via shared memory.
 Default route: MaxDisk=80GB
 ----------------------------------------------------------------------
 #P M062X/GEN Integral=UltraFineGrid SCF=NoSymm Stable=(RExt, Opt) IOp(
 1/33=1)
 ----------------------------------------------------------------------
 1/33=1,38=1,172=1/1;
 2/12=2,17=6,18=5,40=1/2;
 3/5=7,11=2,25=1,30=1,74=-55,75=-5/1,2,3;
 4/9=2/1;
 5/5=2,38=5/2;
 6/7=2,8=2,9=2,10=2,28=1/1;
 8/6=1,10=90,11=11/1;
 9/8=-3,42=1,46=1/14;
 5/5=2,8=3,17=40,38=5/8(-2);
 6/7=2,8=2,9=2,10=2,28=1/1;
 99/5=1,9=1/99;
 Leave Link    1 at Fri Apr 16 22:49:57 2021, MaxMem=           0 cpu:               8.2 elap:               0.2
 (Enter /s/ls4/users/knvvv/bin/g16sse/l101.exe)
 ONIOM data not found on unit 2.
 ----------------------
 Database calculations.
 ----------------------
 TstMul:  ICh=     1
 TstMul:  Mul=     6
 TstMul:  ICh=     1
 TstMul:  Mul=     6
 Symbolic Z-matrix:
 Charge =  1 Multiplicity = 6
 Cr                    0.        0.        0. 
 
 RdStrC is calling ZToCFu for IStruc=1 NZ=     1.
 PrtBox:  NBox=     1 Levels=  0 BoxLen=    8.00 SMaxX=        0.00
          Shift=            0.000000            0.000000            0.000000
 Box      1 Number                   0 centers from      1 to      1:
 After GenITR:
 ITRead=  0
 MicOpt= -1
 ITRead=  0
 MicOpt= -1
 NAtoms=      1 NQM=        1 NQMF=       0 NMMI=      0 NMMIF=      0
                NMic=       0 NMicF=      0.
                    Isotopes and Nuclear Properties:
 (Nuclear quadrupole moments (NQMom) in fm**2, nuclear magnetic moments (NMagM)
  in nuclear magnetons)

  Atom         1
 IAtWgt=          52
 AtmWgt=  51.9405097
 NucSpn=           0
 AtZEff=  -0.0000000
 NQMom=    0.0000000
 NMagM=    0.0000000
 AtZNuc=  24.0000000
 No MM parameters found.
 Leave Link  101 at Fri Apr 16 22:49:57 2021, MaxMem=   104857600 cpu:               6.9 elap:               0.2
 (Enter /s/ls4/users/knvvv/bin/g16sse/l202.exe)
                          Input orientation:                          
 ---------------------------------------------------------------------
 Center     Atomic      Atomic             Coordinates (Angstroms)
 Number     Number       Type             X           Y           Z
 ---------------------------------------------------------------------
      1         24           0        0.000000    0.000000    0.000000
 ---------------------------------------------------------------------
 Stoichiometry    Cr(1+,6)
 Framework group  OH[O(Cr)]
 Deg. of freedom     0
 Full point group                 OH      NOp  48
 Largest Abelian subgroup         D2H     NOp   8
 Largest concise Abelian subgroup C1      NOp   1
                         Standard orientation:                         
 ---------------------------------------------------------------------
 Center     Atomic      Atomic             Coordinates (Angstroms)
 Number     Number       Type             X           Y           Z
 ---------------------------------------------------------------------
      1         24           0        0.000000    0.000000    0.000000
 ---------------------------------------------------------------------
 Leave Link  202 at Fri Apr 16 22:49:58 2021, MaxMem=   104857600 cpu:              49.7 elap:               1.1
 (Enter /s/ls4/users/knvvv/bin/g16sse/l301.exe)
 General basis read from cards:  (5D, 7F)
 Centers:       1
 S 20 1.00
     Exponent=  6.1771940000D+06 Coefficients=  8.4000000000D-05
     Exponent=  9.2492950000D+05 Coefficients=  2.4100000000D-04
     Exponent=  2.1048650000D+05 Coefficients=  6.5800000000D-04
     Exponent=  5.9620050000D+04 Coefficients=  1.6730000000D-03
     Exponent=  1.9450760000D+04 Coefficients=  4.2480000000D-03
     Exponent=  7.0220560000D+03 Coefficients=  1.0889000000D-02
     Exponent=  2.7387630000D+03 Coefficients=  2.7859000000D-02
     Exponent=  1.1358140000D+03 Coefficients=  6.7888000000D-02
     Exponent=  4.9509230000D+02 Coefficients=  1.4680200000D-01
     Exponent=  2.2474870000D+02 Coefficients=  2.5562300000D-01
     Exponent=  1.0538360000D+02 Coefficients=  2.9840800000D-01
     Exponent=  5.0193590000D+01 Coefficients=  1.7456000000D-01
     Exponent=  2.2249570000D+01 Coefficients=  6.9690000000D-02
     Exponent=  1.0982650000D+01 Coefficients=  1.1418400000D-01
     Exponent=  5.3836650000D+00 Coefficients=  8.4070000000D-02
     Exponent=  2.3436850000D+00 Coefficients=  9.9260000000D-03
     Exponent=  1.1052020000D+00 Coefficients= -3.1600000000D-04
     Exponent=  4.8784800000D-01 Coefficients=  5.9000000000D-05
     Exponent=  8.9599000000D-02 Coefficients=  1.6000000000D-05
     Exponent=  3.3423000000D-02 Coefficients=  2.2000000000D-05
 S 20 1.00
     Exponent=  6.1771940000D+06 Coefficients= -4.6000000000D-05
     Exponent=  9.2492950000D+05 Coefficients= -1.3400000000D-04
     Exponent=  2.1048650000D+05 Coefficients= -3.6400000000D-04
     Exponent=  5.9620050000D+04 Coefficients= -9.2700000000D-04
     Exponent=  1.9450760000D+04 Coefficients= -2.3610000000D-03
     Exponent=  7.0220560000D+03 Coefficients= -6.0760000000D-03
     Exponent=  2.7387630000D+03 Coefficients= -1.5723000000D-02
     Exponent=  1.1358140000D+03 Coefficients= -3.9078000000D-02
     Exponent=  4.9509230000D+02 Coefficients= -8.8711000000D-02
     Exponent=  2.2474870000D+02 Coefficients= -1.7011200000D-01
     Exponent=  1.0538360000D+02 Coefficients= -2.4729800000D-01
     Exponent=  5.0193590000D+01 Coefficients= -1.8638100000D-01
     Exponent=  2.2249570000D+01 Coefficients=  1.5843900000D-01
     Exponent=  1.0982650000D+01 Coefficients=  5.4812500000D-01
     Exponent=  5.3836650000D+00 Coefficients=  3.8857900000D-01
     Exponent=  2.3436850000D+00 Coefficients=  4.9281000000D-02
     Exponent=  1.1052020000D+00 Coefficients= -4.3050000000D-03
     Exponent=  4.8784800000D-01 Coefficients=  1.1100000000D-04
     Exponent=  8.9599000000D-02 Coefficients= -2.7000000000D-05
     Exponent=  3.3423000000D-02 Coefficients=  1.4100000000D-04
 S 20 1.00
     Exponent=  6.1771940000D+06 Coefficients=  1.0000000000D-05
     Exponent=  9.2492950000D+05 Coefficients=  2.9000000000D-05
     Exponent=  2.1048650000D+05 Coefficients=  7.8000000000D-05
     Exponent=  5.9620050000D+04 Coefficients=  2.0000000000D-04
     Exponent=  1.9450760000D+04 Coefficients=  5.1100000000D-04
     Exponent=  7.0220560000D+03 Coefficients=  1.3170000000D-03
     Exponent=  2.7387630000D+03 Coefficients=  3.4470000000D-03
     Exponent=  1.1358140000D+03 Coefficients=  8.6680000000D-03
     Exponent=  4.9509230000D+02 Coefficients=  2.0495000000D-02
     Exponent=  2.2474870000D+02 Coefficients=  4.1701000000D-02
     Exponent=  1.0538360000D+02 Coefficients=  6.9300000000D-02
     Exponent=  5.0193590000D+01 Coefficients=  5.8189000000D-02
     Exponent=  2.2249570000D+01 Coefficients= -7.6181000000D-02
     Exponent=  1.0982650000D+01 Coefficients= -3.5613800000D-01
     Exponent=  5.3836650000D+00 Coefficients= -3.7265100000D-01
     Exponent=  2.3436850000D+00 Coefficients=  2.8380300000D-01
     Exponent=  1.1052020000D+00 Coefficients=  7.1493400000D-01
     Exponent=  4.8784800000D-01 Coefficients=  2.9087600000D-01
     Exponent=  8.9599000000D-02 Coefficients=  6.9090000000D-03
     Exponent=  3.3423000000D-02 Coefficients=  2.5400000000D-04
 S 20 1.00
     Exponent=  6.1771940000D+06 Coefficients= -2.0000000000D-06
     Exponent=  9.2492950000D+05 Coefficients= -7.0000000000D-06
     Exponent=  2.1048650000D+05 Coefficients= -1.8000000000D-05
     Exponent=  5.9620050000D+04 Coefficients= -4.5000000000D-05
     Exponent=  1.9450760000D+04 Coefficients= -1.1700000000D-04
     Exponent=  7.0220560000D+03 Coefficients= -2.9800000000D-04
     Exponent=  2.7387630000D+03 Coefficients= -7.9000000000D-04
     Exponent=  1.1358140000D+03 Coefficients= -1.9570000000D-03
     Exponent=  4.9509230000D+02 Coefficients= -4.7250000000D-03
     Exponent=  2.2474870000D+02 Coefficients= -9.3680000000D-03
     Exponent=  1.0538360000D+02 Coefficients= -1.6250000000D-02
     Exponent=  5.0193590000D+01 Coefficients= -1.2549000000D-02
     Exponent=  2.2249570000D+01 Coefficients=  1.5550000000D-02
     Exponent=  1.0982650000D+01 Coefficients=  9.1691000000D-02
     Exponent=  5.3836650000D+00 Coefficients=  8.5426000000D-02
     Exponent=  2.3436850000D+00 Coefficients= -6.6250000000D-02
     Exponent=  1.1052020000D+00 Coefficients= -2.8685200000D-01
     Exponent=  4.8784800000D-01 Coefficients= -1.7030300000D-01
     Exponent=  8.9599000000D-02 Coefficients=  6.9672600000D-01
     Exponent=  3.3423000000D-02 Coefficients=  4.4755900000D-01
 S 20 1.00
     Exponent=  6.1771940000D+06 Coefficients=  4.0000000000D-06
     Exponent=  9.2492950000D+05 Coefficients=  1.3000000000D-05
     Exponent=  2.1048650000D+05 Coefficients=  3.6000000000D-05
     Exponent=  5.9620050000D+04 Coefficients=  8.8000000000D-05
     Exponent=  1.9450760000D+04 Coefficients=  2.3900000000D-04
     Exponent=  7.0220560000D+03 Coefficients=  5.5700000000D-04
     Exponent=  2.7387630000D+03 Coefficients=  1.6820000000D-03
     Exponent=  1.1358140000D+03 Coefficients=  3.4900000000D-03
     Exponent=  4.9509230000D+02 Coefficients=  1.0512000000D-02
     Exponent=  2.2474870000D+02 Coefficients=  1.5392000000D-02
     Exponent=  1.0538360000D+02 Coefficients=  4.0277000000D-02
     Exponent=  5.0193590000D+01 Coefficients=  7.3940000000D-03
     Exponent=  2.2249570000D+01 Coefficients=  1.4057000000D-02
     Exponent=  1.0982650000D+01 Coefficients= -2.9367300000D-01
     Exponent=  5.3836650000D+00 Coefficients=  3.0100000000D-03
     Exponent=  2.3436850000D+00 Coefficients= -1.7585000000D-01
     Exponent=  1.1052020000D+00 Coefficients=  1.5006460000D+00
     Exponent=  4.8784800000D-01 Coefficients= -1.1269400000D+00
     Exponent=  8.9599000000D-02 Coefficients= -1.2270880000D+00
     Exponent=  3.3423000000D-02 Coefficients=  1.4652390000D+00
 S 20 1.00
     Exponent=  6.1771940000D+06 Coefficients= -7.0000000000D-06
     Exponent=  9.2492950000D+05 Coefficients= -2.1000000000D-05
     Exponent=  2.1048650000D+05 Coefficients= -5.8000000000D-05
     Exponent=  5.9620050000D+04 Coefficients= -1.4500000000D-04
     Exponent=  1.9450760000D+04 Coefficients= -3.8400000000D-04
     Exponent=  7.0220560000D+03 Coefficients= -9.3700000000D-04
     Exponent=  2.7387630000D+03 Coefficients= -2.6480000000D-03
     Exponent=  1.1358140000D+03 Coefficients= -6.0270000000D-03
     Exponent=  4.9509230000D+02 Coefficients= -1.6207000000D-02
     Exponent=  2.2474870000D+02 Coefficients= -2.7955000000D-02
     Exponent=  1.0538360000D+02 Coefficients= -5.9348000000D-02
     Exponent=  5.0193590000D+01 Coefficients= -2.7859000000D-02
     Exponent=  2.2249570000D+01 Coefficients=  1.7067000000D-02
     Exponent=  1.0982650000D+01 Coefficients=  4.2050100000D-01
     Exponent=  5.3836650000D+00 Coefficients=  2.0269800000D-01
     Exponent=  2.3436850000D+00 Coefficients= -4.5179400000D-01
     Exponent=  1.1052020000D+00 Coefficients= -1.9067910000D+00
     Exponent=  4.8784800000D-01 Coefficients=  2.8955150000D+00
     Exponent=  8.9599000000D-02 Coefficients= -2.2377970000D+00
     Exponent=  3.3423000000D-02 Coefficients=  1.4096650000D+00
 S 1 1.00
     Exponent=  3.3423000000D-02 Coefficients=  1.0000000000D+00
 P 16 1.00
     Exponent=  1.4454200000D+04 Coefficients=  1.1500000000D-04
     Exponent=  3.4216760000D+03 Coefficients=  5.6000000000D-04
     Exponent=  1.1113870000D+03 Coefficients=  2.6530000000D-03
     Exponent=  4.2519180000D+02 Coefficients=  1.0612000000D-02
     Exponent=  1.8026230000D+02 Coefficients=  3.5867000000D-02
     Exponent=  8.2061170000D+01 Coefficients=  9.9324000000D-02
     Exponent=  3.9297260000D+01 Coefficients=  2.1352500000D-01
     Exponent=  1.9419590000D+01 Coefficients=  3.3399700000D-01
     Exponent=  9.8288990000D+00 Coefficients=  3.2829200000D-01
     Exponent=  5.0168100000D+00 Coefficients=  1.5058200000D-01
     Exponent=  2.4870910000D+00 Coefficients=  2.0002000000D-02
     Exponent=  1.1987800000D+00 Coefficients= -1.5630000000D-03
     Exponent=  5.5869500000D-01 Coefficients= -1.2910000000D-03
     Exponent=  2.0936600000D-01 Coefficients= -2.1200000000D-04
     Exponent=  8.4722000000D-02 Coefficients=  2.4000000000D-05
     Exponent=  3.3278000000D-02 Coefficients= -9.0000000000D-06
 P 16 1.00
     Exponent=  1.4454200000D+04 Coefficients= -4.0000000000D-05
     Exponent=  3.4216760000D+03 Coefficients= -1.9400000000D-04
     Exponent=  1.1113870000D+03 Coefficients= -9.2200000000D-04
     Exponent=  4.2519180000D+02 Coefficients= -3.7110000000D-03
     Exponent=  1.8026230000D+02 Coefficients= -1.2706000000D-02
     Exponent=  8.2061170000D+01 Coefficients= -3.6121000000D-02
     Exponent=  3.9297260000D+01 Coefficients= -8.0540000000D-02
     Exponent=  1.9419590000D+01 Coefficients= -1.3231200000D-01
     Exponent=  9.8288990000D+00 Coefficients= -1.3403500000D-01
     Exponent=  5.0168100000D+00 Coefficients=  3.4707000000D-02
     Exponent=  2.4870910000D+00 Coefficients=  3.3563000000D-01
     Exponent=  1.1987800000D+00 Coefficients=  4.6127800000D-01
     Exponent=  5.5869500000D-01 Coefficients=  2.7857300000D-01
     Exponent=  2.0936600000D-01 Coefficients=  4.1221000000D-02
     Exponent=  8.4722000000D-02 Coefficients= -3.8000000000D-03
     Exponent=  3.3278000000D-02 Coefficients=  1.4650000000D-03
 P 16 1.00
     Exponent=  1.4454200000D+04 Coefficients=  9.0000000000D-06
     Exponent=  3.4216760000D+03 Coefficients=  4.6000000000D-05
     Exponent=  1.1113870000D+03 Coefficients=  2.1900000000D-04
     Exponent=  4.2519180000D+02 Coefficients=  8.7800000000D-04
     Exponent=  1.8026230000D+02 Coefficients=  3.0300000000D-03
     Exponent=  8.2061170000D+01 Coefficients=  8.5680000000D-03
     Exponent=  3.9297260000D+01 Coefficients=  1.9343000000D-02
     Exponent=  1.9419590000D+01 Coefficients=  3.1560000000D-02
     Exponent=  9.8288990000D+00 Coefficients=  3.3056000000D-02
     Exponent=  5.0168100000D+00 Coefficients= -1.3590000000D-02
     Exponent=  2.4870910000D+00 Coefficients= -9.4009000000D-02
     Exponent=  1.1987800000D+00 Coefficients= -1.4984700000D-01
     Exponent=  5.5869500000D-01 Coefficients= -6.5716000000D-02
     Exponent=  2.0936600000D-01 Coefficients=  2.7117400000D-01
     Exponent=  8.4722000000D-02 Coefficients=  5.7505900000D-01
     Exponent=  3.3278000000D-02 Coefficients=  3.0137300000D-01
 P 16 1.00
     Exponent=  1.4454200000D+04 Coefficients=  1.2000000000D-05
     Exponent=  3.4216760000D+03 Coefficients=  5.9000000000D-05
     Exponent=  1.1113870000D+03 Coefficients=  2.7700000000D-04
     Exponent=  4.2519180000D+02 Coefficients=  1.1210000000D-03
     Exponent=  1.8026230000D+02 Coefficients=  3.8200000000D-03
     Exponent=  8.2061170000D+01 Coefficients=  1.0940000000D-02
     Exponent=  3.9297260000D+01 Coefficients=  2.4301000000D-02
     Exponent=  1.9419590000D+01 Coefficients=  4.0594000000D-02
     Exponent=  9.8288990000D+00 Coefficients=  4.0773000000D-02
     Exponent=  5.0168100000D+00 Coefficients= -1.3440000000D-02
     Exponent=  2.4870910000D+00 Coefficients= -1.2110600000D-01
     Exponent=  1.1987800000D+00 Coefficients= -1.8273700000D-01
     Exponent=  5.5869500000D-01 Coefficients= -1.2007200000D-01
     Exponent=  2.0936600000D-01 Coefficients=  4.4495200000D-01
     Exponent=  8.4722000000D-02 Coefficients=  6.4134300000D-01
     Exponent=  3.3278000000D-02 Coefficients=  5.7926000000D-02
 P 16 1.00
     Exponent=  1.4454200000D+04 Coefficients=  2.5000000000D-05
     Exponent=  3.4216760000D+03 Coefficients=  1.1600000000D-04
     Exponent=  1.1113870000D+03 Coefficients=  6.0200000000D-04
     Exponent=  4.2519180000D+02 Coefficients=  2.1980000000D-03
     Exponent=  1.8026230000D+02 Coefficients=  8.3680000000D-03
     Exponent=  8.2061170000D+01 Coefficients=  2.1219000000D-02
     Exponent=  3.9297260000D+01 Coefficients=  5.4545000000D-02
     Exponent=  1.9419590000D+01 Coefficients=  7.4673000000D-02
     Exponent=  9.8288990000D+00 Coefficients=  1.1470100000D-01
     Exponent=  5.0168100000D+00 Coefficients= -7.8321000000D-02
     Exponent=  2.4870910000D+00 Coefficients= -2.4651500000D-01
     Exponent=  1.1987800000D+00 Coefficients= -6.7732300000D-01
     Exponent=  5.5869500000D-01 Coefficients=  7.4794100000D-01
     Exponent=  2.0936600000D-01 Coefficients=  9.8450600000D-01
     Exponent=  8.4722000000D-02 Coefficients= -1.0295180000D+00
     Exponent=  3.3278000000D-02 Coefficients= -1.1096800000D-01
 P 1 1.00
     Exponent=  3.3278000000D-02 Coefficients=  1.0000000000D+00
 D 8 1.00
     Exponent=  8.9474500000D+01 Coefficients=  3.6170000000D-03
     Exponent=  2.6336800000D+01 Coefficients=  2.5539000000D-02
     Exponent=  9.5342900000D+00 Coefficients=  9.6834000000D-02
     Exponent=  3.8211800000D+00 Coefficients=  2.3512200000D-01
     Exponent=  1.5716900000D+00 Coefficients=  3.5744600000D-01
     Exponent=  6.2642200000D-01 Coefficients=  3.6916000000D-01
     Exponent=  2.3305500000D-01 Coefficients=  2.3807800000D-01
     Exponent=  7.6303000000D-02 Coefficients=  5.4752000000D-02
 D 8 1.00
     Exponent=  8.9474500000D+01 Coefficients= -4.1240000000D-03
     Exponent=  2.6336800000D+01 Coefficients= -2.9098000000D-02
     Exponent=  9.5342900000D+00 Coefficients= -1.1431600000D-01
     Exponent=  3.8211800000D+00 Coefficients= -2.7195800000D-01
     Exponent=  1.5716900000D+00 Coefficients= -3.1627300000D-01
     Exponent=  6.2642200000D-01 Coefficients=  3.7457000000D-02
     Exponent=  2.3305500000D-01 Coefficients=  5.8948200000D-01
     Exponent=  7.6303000000D-02 Coefficients=  3.6176800000D-01
 D 8 1.00
     Exponent=  8.9474500000D+01 Coefficients=  5.9530000000D-03
     Exponent=  2.6336800000D+01 Coefficients=  4.2227000000D-02
     Exponent=  9.5342900000D+00 Coefficients=  1.7309700000D-01
     Exponent=  3.8211800000D+00 Coefficients=  3.9271100000D-01
     Exponent=  1.5716900000D+00 Coefficients=  1.5448700000D-01
     Exponent=  6.2642200000D-01 Coefficients= -8.0701900000D-01
     Exponent=  2.3305500000D-01 Coefficients=  9.4400000000D-04
     Exponent=  7.6303000000D-02 Coefficients=  7.0440400000D-01
 D 1 1.00
     Exponent=  7.6303000000D-02 Coefficients=  1.0000000000D+00
 F 1 1.00
     Exponent=  2.2211000000D+00 Coefficients=  1.0000000000D+00
 F 1 1.00
     Exponent=  5.2310000000D-01 Coefficients=  1.0000000000D+00
 G 1 1.00
     Exponent=  1.4199000000D+00 Coefficients=  1.0000000000D+00
 ****
 Ernie: Thresh=  0.10000D-02 Tol=  0.10000D-05 Strict=F.
 Ernie:  88 primitive shells out of 230 were deleted.
 There are    25 symmetry adapted cartesian basis functions of AG  symmetry.
 There are     7 symmetry adapted cartesian basis functions of B1G symmetry.
 There are     7 symmetry adapted cartesian basis functions of B2G symmetry.
 There are     7 symmetry adapted cartesian basis functions of B3G symmetry.
 There are     2 symmetry adapted cartesian basis functions of AU  symmetry.
 There are    12 symmetry adapted cartesian basis functions of B1U symmetry.
 There are    12 symmetry adapted cartesian basis functions of B2U symmetry.
 There are    12 symmetry adapted cartesian basis functions of B3U symmetry.
 There are    18 symmetry adapted basis functions of AG  symmetry.
 There are     6 symmetry adapted basis functions of B1G symmetry.
 There are     6 symmetry adapted basis functions of B2G symmetry.
 There are     6 symmetry adapted basis functions of B3G symmetry.
 There are     2 symmetry adapted basis functions of AU  symmetry.
 There are    10 symmetry adapted basis functions of B1U symmetry.
 There are    10 symmetry adapted basis functions of B2U symmetry.
 There are    10 symmetry adapted basis functions of B3U symmetry.
    68 basis functions,   360 primitive gaussians,    84 cartesian basis functions
    14 alpha electrons        9 beta electrons
       nuclear repulsion energy         0.0000000000 Hartrees.
 IExCor= 4336 DFT=T Ex+Corr=M062X ExCW=0 ScaHFX=  0.540000
 ScaDFX=  1.000000  1.000000  1.000000  1.000000 ScalE2=  1.000000  1.000000
 IRadAn=      5 IRanWt=     -1 IRanGd=            0 ICorTp=0 IEmpDi=  4
 NAtoms=    1 NActive=    1 NUniq=    1 SFac= 1.00D+00 NAtFMM=   60 NAOKFM=F Big=F
 Integral buffers will be    131072 words long.
 Raffenetti 2 integral format.
 Two-electron integral symmetry is turned on.
 Leave Link  301 at Fri Apr 16 22:49:58 2021, MaxMem=   104857600 cpu:              14.7 elap:               0.3
 (Enter /s/ls4/users/knvvv/bin/g16sse/l302.exe)
 NPDir=0 NMtPBC=     1 NCelOv=     1 NCel=       1 NClECP=     1 NCelD=      1
         NCelK=      1 NCelE2=     1 NClLst=     1 CellRange=     0.0.
 One-electron integrals computed using PRISM.
 One-electron integral symmetry used in STVInt
 PrsmSu:  requested number of processors reduced to:   4 ShMem   1 Linda.
 PrsmSu:  requested number of processors reduced to:  21 ShMem   1 Linda.
 NBasis=    68 RedAO= T EigKep=  1.11D-04  NBF=    18     6     6     6     2    10    10    10
 NBsUse=    68 1.00D-06 EigRej= -1.00D+00 NBFU=    18     6     6     6     2    10    10    10
 Precomputing XC quadrature grid using
 IXCGrd= 4 IRadAn=           5 IRanWt=          -1 IRanGd=           0 AccXCQ= 0.00D+00.
 Generated NRdTot=       0 NPtTot=           0 NUsed=           0 NTot=          32
 NSgBfM=    84    84    84    84    84 MxSgAt=     1 MxSgA2=     1.
 Leave Link  302 at Fri Apr 16 22:50:12 2021, MaxMem=   104857600 cpu:             641.4 elap:              13.7
 (Enter /s/ls4/users/knvvv/bin/g16sse/l303.exe)
 DipDrv:  MaxL=1.
 Leave Link  303 at Fri Apr 16 22:50:12 2021, MaxMem=   104857600 cpu:              25.7 elap:               0.6
 (Enter /s/ls4/users/knvvv/bin/g16sse/l401.exe)
 SCF N**3 symmetry information disabled.
 ExpMin= 3.33D-02 ExpMax= 6.18D+06 ExpMxC= 7.02D+03 IAcc=3 IRadAn=         5 AccDes= 0.00D+00
 Harris functional with IExCor= 1009 and IRadAn=       5 diagonalized for initial guess.
 HarFok:  IExCor= 1009 AccDes= 0.00D+00 IRadAn=         5 IDoV= 1 UseB2=F ITyADJ=14
 ICtDFT=  3500011 ScaDFX=  1.000000  1.000000  1.000000  1.000000
 FoFCou: FMM=F IPFlag=           0 FMFlag=      100000 FMFlg1=           0
         NFxFlg=           0 DoJE=T BraDBF=F KetDBF=T FulRan=T
         wScrn=  0.000000 ICntrl=       500 IOpCl=  0 I1Cent=   200000004 NGrid=           0
         NMat0=    1 NMatS0=      1 NMatT0=    0 NMatD0=    1 NMtDS0=    0 NMtDT0=    0
 Petite list used in FoFCou.
 CoulSu:  requested number of processors reduced to:  21 ShMem   1 Linda.
 CoulSu:  requested number of processors reduced to:  21 ShMem   1 Linda.
 CoulSu:  requested number of processors reduced to:  21 ShMem   1 Linda.
 CoulSu:  requested number of processors reduced to:  21 ShMem   1 Linda.
 Harris En= -1041.09649889546    
 JPrj=0 DoOrth=F DoCkMO=F.
 Initial guess orbital symmetries:
 Alpha Orbitals:
       Occupied  (A1G) (A1G) (T1U) (T1U) (T1U) (A1G) (T1U) (T1U)
                 (T1U) (A1G) (T2G) (T2G) (T2G) (EG)
       Virtual   (EG) (T1U) (T1U) (T1U) (A1G) (T1U) (T1U) (T1U)
                 (T2G) (T2G) (T2G) (EG) (EG) (T1U) (T1U) (T1U)
                 (T2G) (T2G) (T2G) (EG) (EG) (A1G) (T2U) (T2U)
                 (T2U) (A2U) (T1U) (T1U) (T1U) (T1U) (T1U) (T1U)
                 (T2G) (T2G) (T2G) (EG) (EG) (T1G) (T1G) (T1G)
                 (T2G) (T2G) (T2G) (EG) (EG) (A1G) (T2U) (T2U)
                 (T2U) (A2U) (T1U) (T1U) (T1U) (A1G)
 Beta  Orbitals:
       Occupied  (A1G) (A1G) (T1U) (T1U) (T1U) (A1G) (T1U) (T1U)
                 (T1U)
       Virtual   (A1G) (T2G) (T2G) (T2G) (EG) (EG) (T1U) (T1U)
                 (T1U) (A1G) (T1U) (T1U) (T1U) (T2G) (T2G) (T2G)
                 (EG) (EG) (T1U) (T1U) (T1U) (T2G) (T2G) (T2G)
                 (EG) (EG) (A1G) (T2U) (T2U) (T2U) (A2U) (T1U)
                 (T1U) (T1U) (T1U) (T1U) (T1U) (T2G) (T2G) (T2G)
                 (EG) (EG) (T1G) (T1G) (T1G) (T2G) (T2G) (T2G)
                 (EG) (EG) (A1G) (T2U) (T2U) (T2U) (A2U) (T1U)
                 (T1U) (T1U) (A1G)
 Initial guess <Sx>= 0.0000 <Sy>= 0.0000 <Sz>= 2.5000 <S**2>= 8.7500 S= 2.5000
 Leave Link  401 at Fri Apr 16 22:50:22 2021, MaxMem=   104857600 cpu:             458.2 elap:               9.9
 (Enter /s/ls4/users/knvvv/bin/g16sse/l502.exe)
 Keep R1 and R2 ints in memory in symmetry-blocked form, NReq=57657249.
 FoFCou: FMM=F IPFlag=           0 FMFlag=           0 FMFlg1=           0
         NFxFlg=           0 DoJE=F BraDBF=F KetDBF=F FulRan=T
         wScrn=  0.000000 ICntrl=       600 IOpCl=  0 I1Cent=           0 NGrid=           0
         NMat0=    1 NMatS0=   2346 NMatT0=    0 NMatD0=    1 NMtDS0=    0 NMtDT0=    0
 Petite list used in FoFCou.
 CoulSu:  requested number of processors reduced to:  22 ShMem   1 Linda.
 UHF open shell SCF:
 Using DIIS extrapolation, IDIIS=  1040.
 NGot=   104857600 LenX=   104113241 LenY=   104105744
 Requested convergence on RMS density matrix=1.00D-08 within 128 cycles.
 Requested convergence on MAX density matrix=1.00D-06.
 Requested convergence on             energy=1.00D-06.
 No special actions if energy rises.

 Cycle   1  Pass 1  IDiag  1:
 Density matrix breaks symmetry, PCut= 1.00D-04
 Density has only Abelian symmetry.
 E= -1040.96144030076    
 DIIS: error= 1.84D-01 at cycle   1 NSaved=   1.
 NSaved= 1 IEnMin= 1 EnMin= -1040.96144030076     IErMin= 1 ErrMin= 1.84D-01
 ErrMax= 1.84D-01  0.00D+00 EMaxC= 1.00D-01 BMatC= 2.45D+00 BMatP= 2.45D+00
 IDIUse=3 WtCom= 0.00D+00 WtEn= 1.00D+00
 Coeff-Com:  0.100D+01
 Coeff-En:   0.100D+01
 Coeff:      0.100D+01
 Gap=     0.268 Goal=   None    Shift=    0.000
 Gap=     2.555 Goal=   None    Shift=    0.000
 GapD=    0.268 DampG=1.000 DampE=0.125 DampFc=0.1250 IDamp=-1.
 Damping current iteration by 1.25D-01
 RMSDP=1.95D-02 MaxDP=3.06D-01              OVMax= 1.00D+00

 Cycle   2  Pass 1  IDiag  1:
 Density matrix breaks symmetry, PCut= 1.00D-04
 Density has only Abelian symmetry.
 E= -1041.06899114808     Delta-E=       -0.107550847316 Rises=F Damp=T
 DIIS: error= 1.34D-01 at cycle   2 NSaved=   2.
 NSaved= 2 IEnMin= 2 EnMin= -1041.06899114808     IErMin= 2 ErrMin= 1.34D-01
 ErrMax= 1.34D-01  0.00D+00 EMaxC= 1.00D-01 BMatC= 1.20D+00 BMatP= 2.45D+00
 IDIUse=3 WtCom= 0.00D+00 WtEn= 1.00D+00
 Coeff-Com: -0.217D+01 0.317D+01
 Coeff-En:   0.000D+00 0.100D+01
 Coeff:      0.000D+00 0.100D+01
 Gap=     0.200 Goal=   None    Shift=    0.000
 Gap=     1.986 Goal=   None    Shift=    0.000
 RMSDP=1.41D-02 MaxDP=2.58D-01 DE=-1.08D-01 OVMax= 4.45D-02

 Cycle   3  Pass 1  IDiag  1:
 Density matrix breaks symmetry, PCut= 1.00D-04
 Density has only Abelian symmetry.
 E= -1041.12767837628     Delta-E=       -0.058687228197 Rises=F Damp=F
 DIIS: error= 1.21D-01 at cycle   3 NSaved=   3.
 NSaved= 3 IEnMin= 3 EnMin= -1041.12767837628     IErMin= 3 ErrMin= 1.21D-01
 ErrMax= 1.21D-01  0.00D+00 EMaxC= 1.00D-01 BMatC= 3.18D+00 BMatP= 1.20D+00
 IDIUse=2 WtCom= 0.00D+00 WtEn= 1.00D+00
 EnCoef did   100 forward-backward iterations
 Coeff-En:   0.390D+00 0.630D-02 0.603D+00
 Coeff:      0.390D+00 0.630D-02 0.603D+00
 Gap=     0.078 Goal=   None    Shift=    0.000
 Gap=     1.910 Goal=   None    Shift=    0.000
 RMSDP=1.33D-02 MaxDP=2.45D-01 DE=-5.87D-02 OVMax= 1.63D-01

 Cycle   4  Pass 1  IDiag  1:
 Density matrix breaks symmetry, PCut= 1.00D-04
 Density has only Abelian symmetry.
 E= -1041.47027360284     Delta-E=       -0.342595226563 Rises=F Damp=F
 DIIS: error= 1.59D-02 at cycle   4 NSaved=   4.
 NSaved= 4 IEnMin= 4 EnMin= -1041.47027360284     IErMin= 4 ErrMin= 1.59D-02
 ErrMax= 1.59D-02  0.00D+00 EMaxC= 1.00D-01 BMatC= 4.01D-02 BMatP= 1.20D+00
 IDIUse=3 WtCom= 8.41D-01 WtEn= 1.59D-01
 Coeff-Com: -0.386D+00 0.546D+00 0.542D-01 0.786D+00
 Coeff-En:   0.000D+00 0.000D+00 0.000D+00 0.100D+01
 Coeff:     -0.325D+00 0.459D+00 0.456D-01 0.820D+00
 Gap=     0.232 Goal=   None    Shift=    0.000
 Gap=     1.766 Goal=   None    Shift=    0.000
 RMSDP=4.92D-03 MaxDP=1.77D-01 DE=-3.43D-01 OVMax= 1.76D-02

 Cycle   5  Pass 1  IDiag  1:
 Density matrix breaks symmetry, PCut= 1.00D-04
 Density has only Abelian symmetry.
 E= -1041.47274189484     Delta-E=       -0.002468291998 Rises=F Damp=F
 DIIS: error= 5.71D-03 at cycle   5 NSaved=   5.
 NSaved= 5 IEnMin= 5 EnMin= -1041.47274189484     IErMin= 5 ErrMin= 5.71D-03
 ErrMax= 5.71D-03  0.00D+00 EMaxC= 1.00D-01 BMatC= 4.33D-03 BMatP= 4.01D-02
 IDIUse=3 WtCom= 9.43D-01 WtEn= 5.71D-02
 Coeff-Com: -0.468D-01 0.809D-01-0.467D-01-0.136D+00 0.115D+01
 Coeff-En:   0.000D+00 0.000D+00 0.000D+00 0.000D+00 0.100D+01
 Coeff:     -0.441D-01 0.763D-01-0.440D-01-0.128D+00 0.114D+01
 Gap=     0.249 Goal=   None    Shift=    0.000
 Gap=     1.741 Goal=   None    Shift=    0.000
 RMSDP=3.37D-04 MaxDP=1.69D-02 DE=-2.47D-03 OVMax= 6.85D-03

 Cycle   6  Pass 1  IDiag  1:
 Density matrix breaks symmetry, PCut= 1.00D-04
 Density has only Abelian symmetry.
 E= -1041.47338391411     Delta-E=       -0.000642019275 Rises=F Damp=F
 DIIS: error= 1.70D-03 at cycle   6 NSaved=   6.
 NSaved= 6 IEnMin= 6 EnMin= -1041.47338391411     IErMin= 6 ErrMin= 1.70D-03
 ErrMax= 1.70D-03  0.00D+00 EMaxC= 1.00D-01 BMatC= 3.52D-04 BMatP= 4.33D-03
 IDIUse=3 WtCom= 9.83D-01 WtEn= 1.70D-02
 Coeff-Com:  0.144D-01-0.151D-01-0.646D-02-0.270D-01-0.114D+00 0.115D+01
 Coeff-En:   0.000D+00 0.000D+00 0.000D+00 0.000D+00 0.000D+00 0.100D+01
 Coeff:      0.142D-01-0.148D-01-0.635D-02-0.265D-01-0.112D+00 0.115D+01
 Gap=     0.256 Goal=   None    Shift=    0.000
 Gap=     1.733 Goal=   None    Shift=    0.000
 RMSDP=1.40D-04 MaxDP=6.33D-03 DE=-6.42D-04 OVMax= 6.31D-03

 Cycle   7  Pass 1  IDiag  1:
 Density matrix breaks symmetry, PCut= 1.00D-04
 Density has only Abelian symmetry.
 E= -1041.47345419681     Delta-E=       -0.000070282701 Rises=F Damp=F
 DIIS: error= 3.66D-04 at cycle   7 NSaved=   7.
 NSaved= 7 IEnMin= 7 EnMin= -1041.47345419681     IErMin= 7 ErrMin= 3.66D-04
 ErrMax= 3.66D-04  0.00D+00 EMaxC= 1.00D-01 BMatC= 7.12D-06 BMatP= 3.52D-04
 IDIUse=3 WtCom= 9.96D-01 WtEn= 3.66D-03
 Coeff-Com:  0.245D-02-0.380D-02 0.400D-02 0.132D-01 0.673D-01-0.677D+00
 Coeff-Com:  0.159D+01
 Coeff-En:   0.000D+00 0.000D+00 0.000D+00 0.000D+00 0.000D+00 0.000D+00
 Coeff-En:   0.100D+01
 Coeff:      0.244D-02-0.379D-02 0.398D-02 0.132D-01 0.670D-01-0.674D+00
 Coeff:      0.159D+01
 Gap=     0.257 Goal=   None    Shift=    0.000
 Gap=     1.732 Goal=   None    Shift=    0.000
 RMSDP=8.05D-05 MaxDP=2.40D-03 DE=-7.03D-05 OVMax= 6.36D-03

 Cycle   8  Pass 1  IDiag  1:
 Density matrix breaks symmetry, PCut= 1.00D-04
 Density has only Abelian symmetry.
 E= -1041.47346727299     Delta-E=       -0.000013076171 Rises=F Damp=F
 DIIS: error= 2.34D-04 at cycle   8 NSaved=   8.
 NSaved= 8 IEnMin= 8 EnMin= -1041.47346727299     IErMin= 8 ErrMin= 2.34D-04
 ErrMax= 2.34D-04  0.00D+00 EMaxC= 1.00D-01 BMatC= 1.96D-06 BMatP= 7.12D-06
 IDIUse=3 WtCom= 9.98D-01 WtEn= 2.34D-03
 Coeff-Com: -0.398D-02 0.490D-02-0.918D-03-0.448D-02-0.403D-01 0.353D+00
 Coeff-Com: -0.125D+01 0.194D+01
 Coeff-En:   0.000D+00 0.000D+00 0.000D+00 0.000D+00 0.000D+00 0.000D+00
 Coeff-En:   0.000D+00 0.100D+01
 Coeff:     -0.397D-02 0.489D-02-0.916D-03-0.447D-02-0.402D-01 0.352D+00
 Coeff:     -0.124D+01 0.194D+01
 Gap=     0.257 Goal=   None    Shift=    0.000
 Gap=     1.733 Goal=   None    Shift=    0.000
 RMSDP=7.78D-05 MaxDP=2.20D-03 DE=-1.31D-05 OVMax= 5.63D-03

 Cycle   9  Pass 1  IDiag  1:
 Density matrix breaks symmetry, PCut= 1.00D-04
 Density has only Abelian symmetry.
 E= -1041.47347343005     Delta-E=       -0.000006157062 Rises=F Damp=F
 DIIS: error= 1.07D-04 at cycle   9 NSaved=   9.
 NSaved= 9 IEnMin= 9 EnMin= -1041.47347343005     IErMin= 9 ErrMin= 1.07D-04
 ErrMax= 1.07D-04  0.00D+00 EMaxC= 1.00D-01 BMatC= 3.28D-07 BMatP= 1.96D-06
 IDIUse=3 WtCom= 9.99D-01 WtEn= 1.07D-03
 Coeff-Com:  0.695D-03-0.879D-03-0.330D-03 0.192D-02 0.162D-01-0.173D+00
 Coeff-Com:  0.685D+00-0.168D+01 0.215D+01
 Coeff-En:   0.000D+00 0.000D+00 0.000D+00 0.000D+00 0.000D+00 0.000D+00
 Coeff-En:   0.000D+00 0.000D+00 0.100D+01
 Coeff:      0.695D-03-0.878D-03-0.330D-03 0.192D-02 0.162D-01-0.173D+00
 Coeff:      0.685D+00-0.168D+01 0.215D+01
 Gap=     0.257 Goal=   None    Shift=    0.000
 Gap=     1.733 Goal=   None    Shift=    0.000
 RMSDP=5.82D-05 MaxDP=1.66D-03 DE=-6.16D-06 OVMax= 4.47D-03

 Cycle  10  Pass 1  IDiag  1:
 Density matrix breaks symmetry, PCut= 1.00D-04
 Density has only Abelian symmetry.
 E= -1041.47347505998     Delta-E=       -0.000001629931 Rises=F Damp=F
 DIIS: error= 1.56D-05 at cycle  10 NSaved=  10.
 NSaved=10 IEnMin=10 EnMin= -1041.47347505998     IErMin=10 ErrMin= 1.56D-05
 ErrMax= 1.56D-05  0.00D+00 EMaxC= 1.00D-01 BMatC= 2.04D-08 BMatP= 3.28D-07
 IDIUse=1 WtCom= 1.00D+00 WtEn= 0.00D+00
 Coeff-Com:  0.114D-03-0.141D-03 0.397D-04 0.940D-04 0.200D-02-0.287D-02
 Coeff-Com:  0.840D-02-0.269D-01-0.638D-01 0.108D+01
 Coeff:      0.114D-03-0.141D-03 0.397D-04 0.940D-04 0.200D-02-0.287D-02
 Coeff:      0.840D-02-0.269D-01-0.638D-01 0.108D+01
 Gap=     0.257 Goal=   None    Shift=    0.000
 Gap=     1.733 Goal=   None    Shift=    0.000
 RMSDP=6.13D-06 MaxDP=1.74D-04 DE=-1.63D-06 OVMax= 4.64D-04

 Cycle  11  Pass 1  IDiag  1:
 E= -1041.47347508186     Delta-E=       -0.000000021883 Rises=F Damp=F
 DIIS: error= 9.95D-07 at cycle  11 NSaved=  11.
 NSaved=11 IEnMin=11 EnMin= -1041.47347508186     IErMin=11 ErrMin= 9.95D-07
 ErrMax= 9.95D-07  0.00D+00 EMaxC= 1.00D-01 BMatC= 6.17D-11 BMatP= 2.04D-08
 IDIUse=1 WtCom= 1.00D+00 WtEn= 0.00D+00
 Coeff-Com:  0.215D-04-0.277D-04 0.453D-05 0.104D-04 0.652D-04-0.559D-03
 Coeff-Com:  0.287D-02-0.345D-02 0.145D-02-0.168D-01 0.102D+01
 Coeff:      0.215D-04-0.277D-04 0.453D-05 0.104D-04 0.652D-04-0.559D-03
 Coeff:      0.287D-02-0.345D-02 0.145D-02-0.168D-01 0.102D+01
 Gap=     0.257 Goal=   None    Shift=    0.000
 Gap=     1.733 Goal=   None    Shift=    0.000
 RMSDP=1.51D-06 MaxDP=4.55D-05 DE=-2.19D-08 OVMax= 1.27D-04

 Cycle  12  Pass 1  IDiag  1:
 E= -1041.47347508592     Delta-E=       -0.000000004062 Rises=F Damp=F
 DIIS: error= 2.83D-07 at cycle  12 NSaved=  12.
 NSaved=12 IEnMin=12 EnMin= -1041.47347508592     IErMin=12 ErrMin= 2.83D-07
 ErrMax= 2.83D-07  0.00D+00 EMaxC= 1.00D-01 BMatC= 5.41D-12 BMatP= 6.17D-11
 IDIUse=1 WtCom= 1.00D+00 WtEn= 0.00D+00
 Coeff-Com: -0.265D-06 0.371D-06-0.447D-06 0.170D-05 0.242D-04-0.135D-03
 Coeff-Com:  0.598D-03-0.151D-02 0.171D-02-0.122D-03-0.284D+00 0.128D+01
 Coeff:     -0.265D-06 0.371D-06-0.447D-06 0.170D-05 0.242D-04-0.135D-03
 Coeff:      0.598D-03-0.151D-02 0.171D-02-0.122D-03-0.284D+00 0.128D+01
 Gap=     0.257 Goal=   None    Shift=    0.000
 Gap=     1.733 Goal=   None    Shift=    0.000
 RMSDP=2.78D-08 MaxDP=7.83D-07 DE=-4.06D-09 OVMax= 1.26D-06

 Cycle  13  Pass 1  IDiag  1:
 E= -1041.47347508593     Delta-E=       -0.000000000002 Rises=F Damp=F
 DIIS: error= 1.11D-08 at cycle  13 NSaved=  13.
 NSaved=13 IEnMin=13 EnMin= -1041.47347508593     IErMin=13 ErrMin= 1.11D-08
 ErrMax= 1.11D-08  0.00D+00 EMaxC= 1.00D-01 BMatC= 4.13D-15 BMatP= 5.41D-12
 IDIUse=1 WtCom= 1.00D+00 WtEn= 0.00D+00
 Coeff-Com: -0.526D-07 0.900D-07-0.221D-07-0.373D-06-0.205D-05 0.196D-04
 Coeff-Com: -0.695D-04 0.212D-03-0.315D-03 0.150D-03 0.339D-01-0.172D+00
 Coeff-Com:  0.114D+01
 Coeff:     -0.526D-07 0.900D-07-0.221D-07-0.373D-06-0.205D-05 0.196D-04
 Coeff:     -0.695D-04 0.212D-03-0.315D-03 0.150D-03 0.339D-01-0.172D+00
 Coeff:      0.114D+01
 Gap=     0.257 Goal=   None    Shift=    0.000
 Gap=     1.733 Goal=   None    Shift=    0.000
 DSYEVD-2 returned Info=        2483 IAlg= 4 N=    68 NDim=    68 NE2=     1530965 trying  DSYEV.
 RMSDP=1.84D-09 MaxDP=5.65D-08 DE=-2.27D-12 OVMax= 6.93D-08

 SCF Done:  E(UM062X) =  -1041.47347509     A.U. after   13 cycles
            NFock= 13  Conv=0.18D-08     -V/T= 1.9605
 <Sx>= 0.0000 <Sy>= 0.0000 <Sz>= 2.5000 <S**2>= 8.7505 S= 2.5001
 <L.S>= 0.000000000000E+00
 KE= 1.084331907065D+03 PE=-2.515609181105D+03 EE= 3.898037989540D+02
 Annihilation of the first spin contaminant:
 S**2 before annihilation     8.7505,   after     8.7500
 Leave Link  502 at Fri Apr 16 22:52:03 2021, MaxMem=   104857600 cpu:            4666.4 elap:             100.4
 (Enter /s/ls4/users/knvvv/bin/g16sse/l601.exe)
 Copying SCF densities to generalized density rwf, IOpCl= 1 IROHF=0.

 **********************************************************************

            Population analysis using the SCF density.

 **********************************************************************

 Orbital symmetries:
 Alpha Orbitals:
       Occupied  (A1G) (A1G) (T1U) (T1U) (T1U) (A1G) (T1U) (T1U)
                 (T1U) (T2G) (EG) (T2G) (T2G) (EG)
       Virtual   (A1G) (T1U) (T1U) (T1U) (A1G) (T1U) (T1U) (T1U)
                 (EG) (T2G) (T2G) (T2G) (EG) (T1U) (T1U) (T1U)
                 (T2G) (T2G) (EG) (T2G) (EG) (A1G) (A2U) (?A) (?A)
                 (?A) (?A) (?A) (?A) (T1U) (T1U) (T1U) (T2G) (T2G)
                 (EG) (T2G) (EG) (?B) (?B) (?B) (T2G) (T2G) (?B)
                 (?B) (?B) (T2G) (?A) (A2U) (?A) (?A) (?A) (?A)
                 (?A) (A1G)
 Beta  Orbitals:
       Occupied  (A1G) (A1G) (T1U) (T1U) (T1U) (A1G) (T1U) (T1U)
                 (T1U)
       Virtual   (A1G) (EG) (T2G) (T2G) (EG) (T2G) (T1U) (T1U)
                 (T1U) (T1U) (T1U) (T1U) (A1G) (EG) (T2G) (T2G)
                 (T2G) (EG) (T1U) (T1U) (T1U) (EG) (T2G) (T2G)
                 (EG) (T2G) (A1G) (?A) (?A) (?A) (A2U) (?A) (?A)
                 (?A) (T1U) (T1U) (T1U) (EG) (T2G) (T2G) (EG) (T2G)
                 (?B) (T2G) (?B) (?B) (T2G) (?B) (?B) (?B) (T2G)
                 (?A) (?A) (?A) (A2U) (?A) (?A) (?A) (A1G)
 The electronic state is 6-A1G.
 Alpha  occ. eigenvalues -- -216.00613 -25.17942 -21.58076 -21.58076 -21.58076
 Alpha  occ. eigenvalues --   -3.26070  -2.22289  -2.22289  -2.22289  -0.53655
 Alpha  occ. eigenvalues --   -0.53655  -0.53655  -0.53655  -0.53655
 Alpha virt. eigenvalues --   -0.27992  -0.17011  -0.17011  -0.17011  -0.08262
 Alpha virt. eigenvalues --   -0.02693  -0.02693  -0.02693  -0.00206  -0.00206
 Alpha virt. eigenvalues --   -0.00206  -0.00206  -0.00206   0.41259   0.41259
 Alpha virt. eigenvalues --    0.41259   0.60082   0.60082   0.60082   0.60082
 Alpha virt. eigenvalues --    0.60082   1.11306   1.27975   1.27975   1.27975
 Alpha virt. eigenvalues --    1.27975   1.27975   1.27975   1.27975   2.11941
 Alpha virt. eigenvalues --    2.11941   2.11941   3.12967   3.12967   3.12967
 Alpha virt. eigenvalues --    3.12967   3.12967   5.55967   5.55967   5.55967
 Alpha virt. eigenvalues --    5.55967   5.55967   5.55967   5.55967   5.55967
 Alpha virt. eigenvalues --    5.55967   5.81549   5.81549   5.81549   5.81549
 Alpha virt. eigenvalues --    5.81549   5.81549   5.81549   6.90736
  Beta  occ. eigenvalues -- -216.00610 -25.09914 -21.51045 -21.51045 -21.51045
  Beta  occ. eigenvalues --   -3.06626  -1.97778  -1.97778  -1.97778
  Beta virt. eigenvalues --   -0.24516  -0.12346  -0.12346  -0.12346  -0.12346
  Beta virt. eigenvalues --   -0.12346  -0.09241  -0.09241  -0.09241   0.02152
  Beta virt. eigenvalues --    0.02152   0.02152   0.02489   0.19131   0.19131
  Beta virt. eigenvalues --    0.19131   0.19131   0.19131   0.48693   0.48693
  Beta virt. eigenvalues --    0.48693   0.64940   0.64940   0.64940   0.64940
  Beta virt. eigenvalues --    0.64940   1.18246   1.22970   1.22970   1.22970
  Beta virt. eigenvalues --    1.22970   1.22970   1.22970   1.22970   2.19922
  Beta virt. eigenvalues --    2.19922   2.19922   3.27814   3.27814   3.27814
  Beta virt. eigenvalues --    3.27814   3.27814   5.63482   5.63482   5.63482
  Beta virt. eigenvalues --    5.63482   5.63482   5.63482   5.63482   5.63482
  Beta virt. eigenvalues --    5.63482   5.95258   5.95258   5.95258   5.95258
  Beta virt. eigenvalues --    5.95258   5.95258   5.95258   6.92661
          Condensed to atoms (all electrons):
               1
     1  Cr  23.000000
          Atomic-Atomic Spin Densities.
               1
     1  Cr   5.000000
 Mulliken charges and spin densities:
               1          2
     1  Cr   1.000000   5.000000
 Sum of Mulliken charges =   1.00000   5.00000
 Mulliken charges and spin densities with hydrogens summed into heavy atoms:
               1          2
     1  Cr   1.000000   5.000000
 Electronic spatial extent (au):  <R**2>=             21.2710
 Charge=              1.0000 electrons
 Dipole moment (field-independent basis, Debye):
    X=             -0.0000    Y=              0.0000    Z=              0.0000  Tot=              0.0000
 Quadrupole moment (field-independent basis, Debye-Ang):
   XX=             -9.5367   YY=             -9.5367   ZZ=             -9.5367
   XY=             -0.0000   XZ=             -0.0000   YZ=              0.0000
 Traceless Quadrupole moment (field-independent basis, Debye-Ang):
   XX=              0.0000   YY=              0.0000   ZZ=              0.0000
   XY=             -0.0000   XZ=             -0.0000   YZ=              0.0000
 Octapole moment (field-independent basis, Debye-Ang**2):
  XXX=             -0.0000  YYY=              0.0000  ZZZ=              0.0000  XYY=             -0.0000
  XXY=              0.0000  XXZ=              0.0000  XZZ=             -0.0000  YZZ=              0.0000
  YYZ=              0.0000  XYZ=             -0.0000
 Hexadecapole moment (field-independent basis, Debye-Ang**3):
 XXXX=             -6.7776 YYYY=             -6.7776 ZZZZ=             -6.7776 XXXY=             -0.0000
 XXXZ=             -0.0000 YYYX=             -0.0000 YYYZ=              0.0000 ZZZX=             -0.0000
 ZZZY=              0.0000 XXYY=             -2.2592 XXZZ=             -2.2592 YYZZ=             -2.2592
 XXYZ=             -0.0000 YYXZ=              0.0000 ZZXY=              0.0000
 N-N= 0.000000000000D+00 E-N=-2.515609181024D+03  KE= 1.084331907065D+03
                          Isotropic Fermi Contact Couplings
        Atom                 a.u.       MegaHertz       Gauss      10(-4) cm-1
     1  Cr(53)            -0.96887      49.05636      17.50453      16.36344
 PrsmSu:  requested number of processors reduced to:  21 ShMem   1 Linda.
 --------------------------------------------------------
       Center         ----  Spin Dipole Couplings  ----
                      3XX-RR        3YY-RR        3ZZ-RR
 --------------------------------------------------------
     1   Atom        0.000000     -0.000000      0.000000
 --------------------------------------------------------
                        XY            XZ            YZ
 --------------------------------------------------------
     1   Atom        0.000000      0.000000      0.000000
 --------------------------------------------------------


 ---------------------------------------------------------------------------------
              Anisotropic Spin Dipole Couplings in Principal Axis System
 ---------------------------------------------------------------------------------

       Atom             a.u.   MegaHertz   Gauss  10(-4) cm-1        Axes

              Baa    -0.0000     0.000     0.000     0.000 -0.0000  1.0000  0.0000
     1 Cr(53) Bbb     0.0000    -0.000    -0.000    -0.000  0.0000  0.0000  1.0000
              Bcc     0.0000    -0.000    -0.000    -0.000  1.0000  0.0000  0.0000
 

 ---------------------------------------------------------------------------------

 PrsmSu:  requested number of processors reduced to:  21 ShMem   1 Linda.
 No NMR shielding tensors so no spin-rotation constants.
 Leave Link  601 at Fri Apr 16 22:52:16 2021, MaxMem=   104857600 cpu:             585.2 elap:              12.7
 (Enter /s/ls4/users/knvvv/bin/g16sse/l801.exe)
 DoSCS=F DFT=T ScalE2(SS,OS)=  1.000000  1.000000
 Range of M.O.s used for correlation:     1    68
 NBasis=    68 NAE=    14 NBE=     9 NFC=     0 NFV=     0
 NROrb=     68 NOA=    14 NOB=     9 NVA=    54 NVB=    59

 **** Warning!!: The largest alpha MO coefficient is  0.70071681D+02


 **** Warning!!: The largest beta MO coefficient is  0.69785311D+02

 Leave Link  801 at Fri Apr 16 22:52:16 2021, MaxMem=   104857600 cpu:               5.7 elap:               0.2
 (Enter /s/ls4/users/knvvv/bin/g16sse/l914.exe)
 UHF ground state
 Doing stability rather than CIS.
 Keep R1 and R2 ints in memory in symmetry-blocked form, NReq=82444998.
 FoFCou: FMM=F IPFlag=           0 FMFlag=           0 FMFlg1=           0
         NFxFlg=           0 DoJE=F BraDBF=F KetDBF=F FulRan=T
         wScrn=  0.000000 ICntrl=       600 IOpCl=  0 I1Cent=           0 NGrid=           0
         NMat0=    1 NMatS0=   2346 NMatT0=    0 NMatD0=    1 NMtDS0=    0 NMtDT0=    0
 Petite list used in FoFCou.
 CoulSu:  requested number of processors reduced to:  22 ShMem   1 Linda.
 MDV=   104857600 DFT=T DoStab=T Mixed=T DoRPA=F DoScal=F NonHer=F
 Making orbital integer symmetry assigments:
 Orbital symmetries:
 Alpha Orbitals:
       Occupied  (A1G) (A1G) (T1U) (T1U) (T1U) (A1G) (T1U) (T1U)
                 (T1U) (T2G) (EG) (T2G) (T2G) (EG)
       Virtual   (A1G) (T1U) (T1U) (T1U) (A1G) (T1U) (T1U) (T1U)
                 (EG) (T2G) (T2G) (T2G) (EG) (T1U) (T1U) (T1U)
                 (T2G) (T2G) (EG) (T2G) (EG) (A1G) (A2U) (?A) (?A)
                 (?A) (?A) (?A) (?A) (T1U) (T1U) (T1U) (T2G) (T2G)
                 (EG) (T2G) (EG) (?B) (?B) (?B) (T2G) (T2G) (?B)
                 (?B) (?B) (T2G) (?A) (A2U) (?A) (?A) (?A) (?A)
                 (?A) (A1G)
 Beta  Orbitals:
       Occupied  (A1G) (A1G) (T1U) (T1U) (T1U) (A1G) (T1U) (T1U)
                 (T1U)
       Virtual   (A1G) (EG) (T2G) (T2G) (EG) (T2G) (T1U) (T1U)
                 (T1U) (T1U) (T1U) (T1U) (A1G) (EG) (T2G) (T2G)
                 (T2G) (EG) (T1U) (T1U) (T1U) (EG) (T2G) (T2G)
                 (EG) (T2G) (A1G) (?A) (?A) (?A) (A2U) (?A) (?A)
                 (?A) (T1U) (T1U) (T1U) (EG) (T2G) (T2G) (EG) (T2G)
                 (?B) (T2G) (?B) (?B) (T2G) (?B) (?B) (?B) (T2G)
                 (?A) (?A) (?A) (A2U) (?A) (?A) (?A) (A1G)
    24 initial guesses have been made.
 Convergence on wavefunction:    0.001000000000000
 Davidson Disk Diagonalization:  ConvIn= 1.00D-03 SkipCon=T Conv= 1.00D-03.
 Max sub-space:  2000 roots to seek:    24 dimension of matrix:         1287
 Iteration     1 Dimension    24 NMult     0 NNew     24
 CISAX will form    24 AO SS matrices at one time.
 NMat=    24 NSing=    24 JSym2X= 2.
 Excitation Energies [eV] at current iteration:
 Root      1 :     1.772956289015594
 Root      2 :     1.772956568968075
 Root      3 :     1.772956627524792
 Root      4 :     1.772956638378913
 Root      5 :     2.020310327532773
 Root      6 :     6.173024933744619
 Root      7 :     6.173024992125522
 Root      8 :     6.173024997166130
 Root      9 :     6.173025101299232
 Root     10 :     6.173025107312087
 Root     11 :     6.173025115935582
 Root     12 :     6.173025134539123
 Root     13 :     6.589793271130715
 Root     14 :     6.589793332707717
 Root     15 :     6.589793436142106
 Root     16 :     6.589793472523107
 Root     17 :     6.589793487415547
 Root     18 :     6.694839886081594
 Root     19 :     6.694839940544633
 Root     20 :     6.694839964212044
 Root     21 :     9.590709353000825
 Root     22 :     9.590709627196318
 Root     23 :     9.590709673225714
 Root     24 :     9.590709673493272
 Iteration     2 Dimension    48 NMult    24 NNew     24
 CISAX will form    24 AO SS matrices at one time.
 NMat=    24 NSing=    24 JSym2X= 2.
 Root      1 not converged, maximum delta is    0.031156696883998
 Excitation Energies [eV] at current iteration:
 Root      1 :     1.695610123950983   Change is   -0.077346165064610
 Root      2 :     1.695610403116808   Change is   -0.077346165851267
 Root      3 :     1.695610461027983   Change is   -0.077346166496809
 Root      4 :     1.695610471530759   Change is   -0.077346166848154
 Root      5 :     1.696836933856080   Change is   -0.323473393676693
 Root      6 :     5.309575006776762   Change is   -0.863449926967857
 Root      7 :     5.309575068399062   Change is   -0.863449923726460
 Root      8 :     5.309575072076738   Change is   -0.863449925089392
 Root      9 :     5.309575186743063   Change is   -0.863449914556169
 Root     10 :     5.309575195059605   Change is   -0.863449912252482
 Root     11 :     5.309575195607271   Change is   -0.863449920328311
 Root     12 :     5.309575221547433   Change is   -0.863449912991690
 Root     13 :     6.172397923000863   Change is   -0.417395348129852
 Root     14 :     6.172397982804038   Change is   -0.417395349903679
 Root     15 :     6.172398084144583   Change is   -0.417395351997523
 Root     16 :     6.172398119107252   Change is   -0.417395353415855
 Root     17 :     6.172398137490225   Change is   -0.417395349925322
 Root     18 :     6.181837843894359   Change is   -0.513002042187235
 Root     19 :     6.181837904058908   Change is   -0.513002036485726
 Root     20 :     6.181837930199845   Change is   -0.513002034012200
 Root     21 :     9.509228803145618   Change is   -0.081480549855208
 Root     22 :     9.509229077936837   Change is   -0.081480549259483
 Root     23 :     9.509229124381640   Change is   -0.081480548844073
 Root     24 :     9.509229126197967   Change is   -0.081480547295303
 Iteration     3 Dimension    51 NMult    48 NNew      3
 CISAX will form     3 AO SS matrices at one time.
 NMat=     3 NSing=     3 JSym2X= 2.
 Root      1 not converged, maximum delta is    0.002143446293949
 Excitation Energies [eV] at current iteration:
 Root      1 :     1.694451487077449   Change is   -0.001158636873534
 Root      2 :     1.694451766179650   Change is   -0.001158636937158
 Root      3 :     1.694451824120830   Change is   -0.001158636907153
 Iteration     4 Dimension    54 NMult    51 NNew      3
 CISAX will form     3 AO SS matrices at one time.
 NMat=     3 NSing=     3 JSym2X= 2.
 Root      1 has converged.
 Excitation Energies [eV] at current iteration:
 Root      1 :     1.694409567156597   Change is   -0.000041919920852
 Root      2 :     1.694409846254079   Change is   -0.000041919925571
 Root      3 :     1.694409904196921   Change is   -0.000041919923909
 Convergence achieved on expansion vectors.
 ***********************************************************************
 Stability analysis using <AA,BB:AA,BB> singles matrix:
 ***********************************************************************
 1PDM for each excited state written to RWF  633
 Ground to excited state transition densities written to RWF  633

 Eigenvectors of the stability matrix:
 
 Eigenvector   1:  6.000-EG   Eigenvalue= 0.0622684  <S**2>=8.751
     14A -> 15A        0.98141
     14A -> 19A        0.18420
 The wavefunction is stable under the perturbations considered.
 Leave Link  914 at Fri Apr 16 22:52:34 2021, MaxMem=   104857600 cpu:             789.5 elap:              18.1
 (Enter /s/ls4/users/knvvv/bin/g16sse/l508.exe)
 The wavefunction is already stable.
 Leave Link  508 at Fri Apr 16 22:52:34 2021, MaxMem=   104857600 cpu:               2.4 elap:               0.1
 (Enter /s/ls4/users/knvvv/bin/g16sse/l601.exe)
 Copying SCF densities to generalized density rwf, IOpCl= 1 IROHF=0.

 **********************************************************************

            Population analysis using the SCF density.

 **********************************************************************

 Orbital symmetries:
 Alpha Orbitals:
       Occupied  (A1G) (A1G) (T1U) (T1U) (T1U) (A1G) (T1U) (T1U)
                 (T1U) (T2G) (EG) (T2G) (T2G) (EG)
       Virtual   (A1G) (T1U) (T1U) (T1U) (A1G) (T1U) (T1U) (T1U)
                 (EG) (T2G) (T2G) (T2G) (EG) (T1U) (T1U) (T1U)
                 (T2G) (T2G) (EG) (T2G) (EG) (A1G) (A2U) (?A) (?A)
                 (?A) (?A) (?A) (?A) (T1U) (T1U) (T1U) (T2G) (T2G)
                 (EG) (T2G) (EG) (?B) (?B) (?B) (T2G) (T2G) (?B)
                 (?B) (?B) (T2G) (?A) (A2U) (?A) (?A) (?A) (?A)
                 (?A) (A1G)
 Beta  Orbitals:
       Occupied  (A1G) (A1G) (T1U) (T1U) (T1U) (A1G) (T1U) (T1U)
                 (T1U)
       Virtual   (A1G) (EG) (T2G) (T2G) (EG) (T2G) (T1U) (T1U)
                 (T1U) (T1U) (T1U) (T1U) (A1G) (EG) (T2G) (T2G)
                 (T2G) (EG) (T1U) (T1U) (T1U) (EG) (T2G) (T2G)
                 (EG) (T2G) (A1G) (?A) (?A) (?A) (A2U) (?A) (?A)
                 (?A) (T1U) (T1U) (T1U) (EG) (T2G) (T2G) (EG) (T2G)
                 (?B) (T2G) (?B) (?B) (T2G) (?B) (?B) (?B) (T2G)
                 (?A) (?A) (?A) (A2U) (?A) (?A) (?A) (A1G)
 The electronic state is 6-A1G.
 Alpha  occ. eigenvalues -- -216.00613 -25.17942 -21.58076 -21.58076 -21.58076
 Alpha  occ. eigenvalues --   -3.26070  -2.22289  -2.22289  -2.22289  -0.53655
 Alpha  occ. eigenvalues --   -0.53655  -0.53655  -0.53655  -0.53655
 Alpha virt. eigenvalues --   -0.27992  -0.17011  -0.17011  -0.17011  -0.08262
 Alpha virt. eigenvalues --   -0.02693  -0.02693  -0.02693  -0.00206  -0.00206
 Alpha virt. eigenvalues --   -0.00206  -0.00206  -0.00206   0.41259   0.41259
 Alpha virt. eigenvalues --    0.41259   0.60082   0.60082   0.60082   0.60082
 Alpha virt. eigenvalues --    0.60082   1.11306   1.27975   1.27975   1.27975
 Alpha virt. eigenvalues --    1.27975   1.27975   1.27975   1.27975   2.11941
 Alpha virt. eigenvalues --    2.11941   2.11941   3.12967   3.12967   3.12967
 Alpha virt. eigenvalues --    3.12967   3.12967   5.55967   5.55967   5.55967
 Alpha virt. eigenvalues --    5.55967   5.55967   5.55967   5.55967   5.55967
 Alpha virt. eigenvalues --    5.55967   5.81549   5.81549   5.81549   5.81549
 Alpha virt. eigenvalues --    5.81549   5.81549   5.81549   6.90736
  Beta  occ. eigenvalues -- -216.00610 -25.09914 -21.51045 -21.51045 -21.51045
  Beta  occ. eigenvalues --   -3.06626  -1.97778  -1.97778  -1.97778
  Beta virt. eigenvalues --   -0.24516  -0.12346  -0.12346  -0.12346  -0.12346
  Beta virt. eigenvalues --   -0.12346  -0.09241  -0.09241  -0.09241   0.02152
  Beta virt. eigenvalues --    0.02152   0.02152   0.02489   0.19131   0.19131
  Beta virt. eigenvalues --    0.19131   0.19131   0.19131   0.48693   0.48693
  Beta virt. eigenvalues --    0.48693   0.64940   0.64940   0.64940   0.64940
  Beta virt. eigenvalues --    0.64940   1.18246   1.22970   1.22970   1.22970
  Beta virt. eigenvalues --    1.22970   1.22970   1.22970   1.22970   2.19922
  Beta virt. eigenvalues --    2.19922   2.19922   3.27814   3.27814   3.27814
  Beta virt. eigenvalues --    3.27814   3.27814   5.63482   5.63482   5.63482
  Beta virt. eigenvalues --    5.63482   5.63482   5.63482   5.63482   5.63482
  Beta virt. eigenvalues --    5.63482   5.95258   5.95258   5.95258   5.95258
  Beta virt. eigenvalues --    5.95258   5.95258   5.95258   6.92661
          Condensed to atoms (all electrons):
               1
     1  Cr  23.000000
          Atomic-Atomic Spin Densities.
               1
     1  Cr   5.000000
 Mulliken charges and spin densities:
               1          2
     1  Cr   1.000000   5.000000
 Sum of Mulliken charges =   1.00000   5.00000
 Mulliken charges and spin densities with hydrogens summed into heavy atoms:
               1          2
     1  Cr   1.000000   5.000000
 Electronic spatial extent (au):  <R**2>=             21.2710
 Charge=              1.0000 electrons
 Dipole moment (field-independent basis, Debye):
    X=             -0.0000    Y=              0.0000    Z=              0.0000  Tot=              0.0000
 Quadrupole moment (field-independent basis, Debye-Ang):
   XX=             -9.5367   YY=             -9.5367   ZZ=             -9.5367
   XY=             -0.0000   XZ=             -0.0000   YZ=              0.0000
 Traceless Quadrupole moment (field-independent basis, Debye-Ang):
   XX=              0.0000   YY=              0.0000   ZZ=              0.0000
   XY=             -0.0000   XZ=             -0.0000   YZ=              0.0000
 Octapole moment (field-independent basis, Debye-Ang**2):
  XXX=             -0.0000  YYY=              0.0000  ZZZ=              0.0000  XYY=             -0.0000
  XXY=              0.0000  XXZ=              0.0000  XZZ=             -0.0000  YZZ=              0.0000
  YYZ=              0.0000  XYZ=             -0.0000
 Hexadecapole moment (field-independent basis, Debye-Ang**3):
 XXXX=             -6.7776 YYYY=             -6.7776 ZZZZ=             -6.7776 XXXY=             -0.0000
 XXXZ=             -0.0000 YYYX=             -0.0000 YYYZ=              0.0000 ZZZX=             -0.0000
 ZZZY=              0.0000 XXYY=             -2.2592 XXZZ=             -2.2592 YYZZ=             -2.2592
 XXYZ=             -0.0000 YYXZ=              0.0000 ZZXY=              0.0000
 N-N= 0.000000000000D+00 E-N=-2.515609181024D+03  KE= 1.084331907065D+03
                          Isotropic Fermi Contact Couplings
        Atom                 a.u.       MegaHertz       Gauss      10(-4) cm-1
     1  Cr(53)            -0.96887      49.05636      17.50453      16.36344
 PrsmSu:  requested number of processors reduced to:  21 ShMem   1 Linda.
 --------------------------------------------------------
       Center         ----  Spin Dipole Couplings  ----
                      3XX-RR        3YY-RR        3ZZ-RR
 --------------------------------------------------------
     1   Atom        0.000000     -0.000000      0.000000
 --------------------------------------------------------
                        XY            XZ            YZ
 --------------------------------------------------------
     1   Atom        0.000000      0.000000      0.000000
 --------------------------------------------------------


 ---------------------------------------------------------------------------------
              Anisotropic Spin Dipole Couplings in Principal Axis System
 ---------------------------------------------------------------------------------

       Atom             a.u.   MegaHertz   Gauss  10(-4) cm-1        Axes

              Baa    -0.0000     0.000     0.000     0.000 -0.0000  1.0000  0.0000
     1 Cr(53) Bbb     0.0000    -0.000    -0.000    -0.000  0.0000  0.0000  1.0000
              Bcc     0.0000    -0.000    -0.000    -0.000  1.0000  0.0000  0.0000
 

 ---------------------------------------------------------------------------------

 PrsmSu:  requested number of processors reduced to:  21 ShMem   1 Linda.
 No NMR shielding tensors so no spin-rotation constants.
 Leave Link  601 at Fri Apr 16 22:52:43 2021, MaxMem=   104857600 cpu:             437.4 elap:               9.6
 (Enter /s/ls4/users/knvvv/bin/g16sse/l9999.exe)

 Test job not archived.
 1\1\GINC-N306\Stability\UM062X\Gen\Cr1(1+,6)\KNVVV\16-Apr-2021\0\\#P M
 062X/GEN Integral=UltraFineGrid SCF=NoSymm Stable=(RExt, Opt) IOp(1/33
 =1)\\Database calculations.\\1,6\Cr,0,0.,0.,0.\\Version=ES64L-G16RevA.
 03\State=6-A1G\HF=-1041.4734751\S2=8.750527\S2-1=0.\S2A=8.75\RMSD=1.83
 7e-09\Dipole=0.,0.,0.\Quadrupole=0.,0.,0.,0.,0.,0.\PG=OH [O(Cr1)]\\@


 Democracy is the recurrent suspicion that more than half of the people
 are right more than half of the time.
 -- E. B. White
 Job cpu time:       0 days  2 hours  8 minutes 18.4 seconds.
 Elapsed time:       0 days  0 hours  2 minutes 47.2 seconds.
 File lengths (MBytes):  RWF=     55 Int=      0 D2E=      0 Chk=      2 Scr=      1
 Normal termination of Gaussian 16 at Fri Apr 16 22:52:44 2021.
