 Entering Gaussian System, Link 0=/s/ls4/users/knvvv/bin/g16sse/g16
 Input=data/database/M062X--MG3S--27_H2S-HCl_NCCE30.gjf
 Output=data/database/M062X--MG3S--27_H2S-HCl_NCCE30.log
 Initial command:
 /s/ls4/users/knvvv/bin/g16sse/l1.exe "/s/ls4/users/knvvv/bin/scratch/Gau-20531.inp" -scrdir="/s/ls4/users/knvvv/bin/scratch/"
 Entering Link 1 = /s/ls4/users/knvvv/bin/g16sse/l1.exe PID=     20532.
  
 Copyright (c) 1988,1990,1992,1993,1995,1998,2003,2009,2016,
            Gaussian, Inc.  All Rights Reserved.
  
 This is part of the Gaussian(R) 16 program.  It is based on
 the Gaussian(R) 09 system (copyright 2009, Gaussian, Inc.),
 the Gaussian(R) 03 system (copyright 2003, Gaussian, Inc.),
 the Gaussian(R) 98 system (copyright 1998, Gaussian, Inc.),
 the Gaussian(R) 94 system (copyright 1995, Gaussian, Inc.),
 the Gaussian 92(TM) system (copyright 1992, Gaussian, Inc.),
 the Gaussian 90(TM) system (copyright 1990, Gaussian, Inc.),
 the Gaussian 88(TM) system (copyright 1988, Gaussian, Inc.),
 the Gaussian 86(TM) system (copyright 1986, Carnegie Mellon
 University), and the Gaussian 82(TM) system (copyright 1983,
 Carnegie Mellon University). Gaussian is a federally registered
 trademark of Gaussian, Inc.
  
 This software contains proprietary and confidential information,
 including trade secrets, belonging to Gaussian, Inc.
  
 This software is provided under written license and may be
 used, copied, transmitted, or stored only in accord with that
 written license.
  
 The following legend is applicable only to US Government
 contracts under FAR:
  
                    RESTRICTED RIGHTS LEGEND
  
 Use, reproduction and disclosure by the US Government is
 subject to restrictions as set forth in subparagraphs (a)
 and (c) of the Commercial Computer Software - Restricted
 Rights clause in FAR 52.227-19.
  
 Gaussian, Inc.
 340 Quinnipiac St., Bldg. 40, Wallingford CT 06492
  
  
 ---------------------------------------------------------------
 Warning -- This program may not be used in any manner that
 competes with the business of Gaussian, Inc. or will provide
 assistance to any competitor of Gaussian, Inc.  The licensee
 of this program is prohibited from giving any competitor of
 Gaussian, Inc. access to this program.  By using this program,
 the user acknowledges that Gaussian, Inc. is engaged in the
 business of creating and licensing software in the field of
 computational chemistry and represents and warrants to the
 licensee that it is not a competitor of Gaussian, Inc. and that
 it will not use this program in any manner prohibited above.
 ---------------------------------------------------------------
  

 Cite this work as:
 Gaussian 16, Revision A.03,
 M. J. Frisch, G. W. Trucks, H. B. Schlegel, G. E. Scuseria, 
 M. A. Robb, J. R. Cheeseman, G. Scalmani, V. Barone, 
 G. A. Petersson, H. Nakatsuji, X. Li, M. Caricato, A. V. Marenich, 
 J. Bloino, B. G. Janesko, R. Gomperts, B. Mennucci, H. P. Hratchian, 
 J. V. Ortiz, A. F. Izmaylov, J. L. Sonnenberg, D. Williams-Young, 
 F. Ding, F. Lipparini, F. Egidi, J. Goings, B. Peng, A. Petrone, 
 T. Henderson, D. Ranasinghe, V. G. Zakrzewski, J. Gao, N. Rega, 
 G. Zheng, W. Liang, M. Hada, M. Ehara, K. Toyota, R. Fukuda, 
 J. Hasegawa, M. Ishida, T. Nakajima, Y. Honda, O. Kitao, H. Nakai, 
 T. Vreven, K. Throssell, J. A. Montgomery, Jr., J. E. Peralta, 
 F. Ogliaro, M. J. Bearpark, J. J. Heyd, E. N. Brothers, K. N. Kudin, 
 V. N. Staroverov, T. A. Keith, R. Kobayashi, J. Normand, 
 K. Raghavachari, A. P. Rendell, J. C. Burant, S. S. Iyengar, 
 J. Tomasi, M. Cossi, J. M. Millam, M. Klene, C. Adamo, R. Cammi, 
 J. W. Ochterski, R. L. Martin, K. Morokuma, O. Farkas, 
 J. B. Foresman, and D. J. Fox, Gaussian, Inc., Wallingford CT, 2016.
 
 ******************************************
 Gaussian 16:  ES64L-G16RevA.03 25-Dec-2016
                18-Apr-2021 
 ******************************************
 %RWF=temp12_8930,70GB
 %nprocshared=48
 Will use up to   48 processors via shared memory.
 Default route: MaxDisk=80GB
 ----------------------------------------------------------------------
 #P M062X/GEN Integral=UltraFineGrid SCF=NoSymm Stable=(RExt, Opt) IOp(
 1/33=1)
 ----------------------------------------------------------------------
 1/33=1,38=1,172=1/1;
 2/12=2,17=6,18=5,40=1/2;
 3/5=7,11=2,25=1,30=1,74=-55,75=-5/1,2,3;
 4/9=2/1;
 5/5=2,38=5/2;
 6/7=2,8=2,9=2,10=2,28=1/1;
 8/6=1,10=90,11=11/1;
 9/8=-3,42=1,46=1/14;
 5/5=2,8=3,17=40,38=5/8(-2);
 6/7=2,8=2,9=2,10=2,28=1/1;
 99/5=1,9=1/99;
 Leave Link    1 at Sun Apr 18 09:55:36 2021, MaxMem=           0 cpu:              10.8 elap:               0.3
 (Enter /s/ls4/users/knvvv/bin/g16sse/l101.exe)
 ONIOM data not found on unit 2.
 ----------------------
 Database calculations.
 ----------------------
 TstMul:  ICh=     0
 TstMul:  Mul=     1
 TstMul:  ICh=     0
 TstMul:  Mul=     1
 Symbolic Z-matrix:
 Charge =  0 Multiplicity = 1
 S                     1.84253   0.00001  -0.10154 
 H                     1.82278  -0.96181   0.83465 
 H                     1.82188   0.96186   0.83462 
 Cl                   -1.91164  -0.00001   0.0035 
 H                    -0.62732  -0.00006  -0.10405 
 
 RdStrC is calling ZToCFu for IStruc=1 NZ=     5.
 PrtBox:  NBox=     1 Levels=  1 BoxLen=    8.00 SMaxX=        7.09
          Shift=            3.612468            1.817557            0.196628
 Box      1 Number                   0 centers from      1 to      5:
 After GenITR:
 ITRead=  0  0  0  0  0
 MicOpt= -1 -1 -1 -1 -1
 ITRead=  0  0  0  0  0
 MicOpt= -1 -1 -1 -1 -1
 NAtoms=      5 NQM=        5 NQMF=       0 NMMI=      0 NMMIF=      0
                NMic=       0 NMicF=      0.
                    Isotopes and Nuclear Properties:
 (Nuclear quadrupole moments (NQMom) in fm**2, nuclear magnetic moments (NMagM)
  in nuclear magnetons)

  Atom         1           2           3           4           5
 IAtWgt=          32           1           1          35           1
 AtmWgt=  31.9720718   1.0078250   1.0078250  34.9688527   1.0078250
 NucSpn=           0           1           1           3           1
 AtZEff=  -0.0000000  -0.0000000  -0.0000000  -0.0000000  -0.0000000
 NQMom=    0.0000000   0.0000000   0.0000000  -8.1650000   0.0000000
 NMagM=    0.0000000   2.7928460   2.7928460   0.8218740   2.7928460
 AtZNuc=  16.0000000   1.0000000   1.0000000  17.0000000   1.0000000
 No MM parameters found.
 Leave Link  101 at Sun Apr 18 09:55:36 2021, MaxMem=   104857600 cpu:               6.7 elap:               0.2
 (Enter /s/ls4/users/knvvv/bin/g16sse/l202.exe)
                          Input orientation:                          
 ---------------------------------------------------------------------
 Center     Atomic      Atomic             Coordinates (Angstroms)
 Number     Number       Type             X           Y           Z
 ---------------------------------------------------------------------
      1         16           0        1.842529    0.000013   -0.101543
      2          1           0        1.822779   -0.961810    0.834650
      3          1           0        1.821877    0.961860    0.834622
      4         17           0       -1.911636   -0.000011    0.003498
      5          1           0       -0.627317   -0.000058   -0.104051
 ---------------------------------------------------------------------
                    Distance matrix (angstroms):
                    1          2          3          4          5
     1  S    0.000000
     2  H    1.342368   0.000000
     3  H    1.342379   1.923670   0.000000
     4  Cl   3.755634   3.944835   3.943993   0.000000
     5  H    2.469847   2.794476   2.793733   1.288814   0.000000
 Stoichiometry    ClH3S
 Framework group  C1[X(ClH3S)]
 Deg. of freedom     9
 Full point group                 C1      NOp   1
 Largest Abelian subgroup         C1      NOp   1
 Largest concise Abelian subgroup C1      NOp   1
                         Standard orientation:                         
 ---------------------------------------------------------------------
 Center     Atomic      Atomic             Coordinates (Angstroms)
 Number     Number       Type             X           Y           Z
 ---------------------------------------------------------------------
      1         16           0        1.842529    0.000013   -0.101543
      2          1           0        1.822779   -0.961810    0.834650
      3          1           0        1.821877    0.961860    0.834622
      4         17           0       -1.911636   -0.000011    0.003498
      5          1           0       -0.627317   -0.000058   -0.104051
 ---------------------------------------------------------------------
 Rotational constants (GHZ):         143.0266900           2.0645462           2.0628944
 Leave Link  202 at Sun Apr 18 09:55:36 2021, MaxMem=   104857600 cpu:               4.5 elap:               0.1
 (Enter /s/ls4/users/knvvv/bin/g16sse/l301.exe)
 General basis read from cards:  (5D, 7F)
 Centers:       2      3      5
 S 3 1.00
     Exponent=  3.3865000000D+01 Coefficients=  2.5493800000D-02
     Exponent=  5.0947900000D+00 Coefficients=  1.9037300000D-01
     Exponent=  1.1587900000D+00 Coefficients=  8.5216100000D-01
 S 1 1.00
     Exponent=  3.2584000000D-01 Coefficients=  1.0000000000D+00
 S 1 1.00
     Exponent=  1.0274100000D-01 Coefficients=  1.0000000000D+00
 P 1 1.00
     Exponent=  1.5000000000D+00 Coefficients=  1.0000000000D+00
 P 1 1.00
     Exponent=  3.7500000000D-01 Coefficients=  1.0000000000D+00
 ****
 Centers:       1
 S 6 1.00
     Exponent=  9.3413400000D+04 Coefficients=  7.4207910000D-04
     Exponent=  1.3961700000D+04 Coefficients=  5.7876580000D-03
     Exponent=  3.1699100000D+03 Coefficients=  2.9940670000D-02
     Exponent=  9.0245000000D+02 Coefficients=  1.1892820000D-01
     Exponent=  2.9715000000D+02 Coefficients=  3.6818220000D-01
     Exponent=  1.0870000000D+02 Coefficients=  5.7763360000D-01
 S 3 1.00
     Exponent=  1.0870000000D+02 Coefficients=  1.4279050000D-01
     Exponent=  4.3150000000D+01 Coefficients=  6.2469340000D-01
     Exponent=  1.8100000000D+01 Coefficients=  2.8348350000D-01
 S 1 1.00
     Exponent=  5.5700000000D+00 Coefficients=  1.0000000000D+00
 S 1 1.00
     Exponent=  2.1400000000D+00 Coefficients=  1.0000000000D+00
 S 1 1.00
     Exponent=  4.3000000000D-01 Coefficients=  1.0000000000D+00
 S 1 1.00
     Exponent=  1.5000000000D-01 Coefficients=  1.0000000000D+00
 S 1 1.00
     Exponent=  4.0500000000D-02 Coefficients=  1.0000000000D+00
 P 4 1.00
     Exponent=  4.9504000000D+02 Coefficients=  8.1962530000D-03
     Exponent=  1.1722000000D+02 Coefficients=  6.3642040000D-02
     Exponent=  3.7500000000D+01 Coefficients=  2.7880600000D-01
     Exponent=  1.3910000000D+01 Coefficients=  7.4474040000D-01
 P 2 1.00
     Exponent=  5.5000000000D+00 Coefficients=  6.1682480000D-01
     Exponent=  2.2400000000D+00 Coefficients=  4.4029460000D-01
 P 1 1.00
     Exponent=  7.7000000000D-01 Coefficients=  1.0000000000D+00
 P 1 1.00
     Exponent=  2.9000000000D-01 Coefficients=  1.0000000000D+00
 P 1 1.00
     Exponent=  1.0000000000D-01 Coefficients=  1.0000000000D+00
 P 1 1.00
     Exponent=  4.0500000000D-02 Coefficients=  1.0000000000D+00
 D 1 1.00
     Exponent=  2.6000000000D+00 Coefficients=  1.0000000000D+00
 D 1 1.00
     Exponent=  6.5000000000D-01 Coefficients=  1.0000000000D+00
 D 1 1.00
     Exponent=  1.6250000000D-01 Coefficients=  1.0000000000D+00
 F 1 1.00
     Exponent=  1.1000000000D+00 Coefficients=  1.0000000000D+00
 F 1 1.00
     Exponent=  2.7500000000D-01 Coefficients=  1.0000000000D+00
 ****
 Centers:       4
 S 6 1.00
     Exponent=  1.0581900000D+05 Coefficients=  7.4236270000D-04
     Exponent=  1.5872000000D+04 Coefficients=  5.7473180000D-03
     Exponent=  3.6196500000D+03 Coefficients=  2.9648760000D-02
     Exponent=  1.0308000000D+03 Coefficients=  1.1789980000D-01
     Exponent=  3.3990000000D+02 Coefficients=  3.6485320000D-01
     Exponent=  1.2453000000D+02 Coefficients=  5.8169680000D-01
 S 3 1.00
     Exponent=  1.2453000000D+02 Coefficients=  1.3704430000D-01
     Exponent=  4.9510000000D+01 Coefficients=  6.2313800000D-01
     Exponent=  2.0800000000D+01 Coefficients=  2.9032790000D-01
 S 1 1.00
     Exponent=  6.4600000000D+00 Coefficients=  1.0000000000D+00
 S 1 1.00
     Exponent=  2.5200000000D+00 Coefficients=  1.0000000000D+00
 S 1 1.00
     Exponent=  5.3000000000D-01 Coefficients=  1.0000000000D+00
 S 1 1.00
     Exponent=  1.9000000000D-01 Coefficients=  1.0000000000D+00
 S 1 1.00
     Exponent=  4.8300000000D-02 Coefficients=  1.0000000000D+00
 P 4 1.00
     Exponent=  5.8978000000D+02 Coefficients=  7.8733320000D-03
     Exponent=  1.3985000000D+02 Coefficients=  6.1554600000D-02
     Exponent=  4.4790000000D+01 Coefficients=  2.7425140000D-01
     Exponent=  1.6610000000D+01 Coefficients=  7.4989940000D-01
 P 2 1.00
     Exponent=  6.5900000000D+00 Coefficients=  6.1476400000D-01
     Exponent=  2.7100000000D+00 Coefficients=  4.4134160000D-01
 P 1 1.00
     Exponent=  9.5000000000D-01 Coefficients=  1.0000000000D+00
 P 1 1.00
     Exponent=  3.5000000000D-01 Coefficients=  1.0000000000D+00
 P 1 1.00
     Exponent=  1.2000000000D-01 Coefficients=  1.0000000000D+00
 P 1 1.00
     Exponent=  4.8300000000D-02 Coefficients=  1.0000000000D+00
 D 1 1.00
     Exponent=  3.0000000000D+00 Coefficients=  1.0000000000D+00
 D 1 1.00
     Exponent=  7.5000000000D-01 Coefficients=  1.0000000000D+00
 D 1 1.00
     Exponent=  1.8750000000D-01 Coefficients=  1.0000000000D+00
 F 1 1.00
     Exponent=  1.4000000000D+00 Coefficients=  1.0000000000D+00
 F 1 1.00
     Exponent=  3.5000000000D-01 Coefficients=  1.0000000000D+00
 ****
 Ernie: Thresh=  0.10000D-02 Tol=  0.10000D-05 Strict=F.
 There are   153 symmetry adapted cartesian basis functions of A   symmetry.
 There are   135 symmetry adapted basis functions of A   symmetry.
   135 basis functions,   197 primitive gaussians,   153 cartesian basis functions
    18 alpha electrons       18 beta electrons
       nuclear repulsion energy        66.5635423327 Hartrees.
 IExCor= 4336 DFT=T Ex+Corr=M062X ExCW=0 ScaHFX=  0.540000
 ScaDFX=  1.000000  1.000000  1.000000  1.000000 ScalE2=  1.000000  1.000000
 IRadAn=      5 IRanWt=     -1 IRanGd=            0 ICorTp=0 IEmpDi=  4
 NAtoms=    5 NActive=    5 NUniq=    5 SFac= 1.00D+00 NAtFMM=   60 NAOKFM=F Big=F
 Integral buffers will be    131072 words long.
 Raffenetti 2 integral format.
 Two-electron integral symmetry is turned on.
 Leave Link  301 at Sun Apr 18 09:55:36 2021, MaxMem=   104857600 cpu:               6.3 elap:               0.2
 (Enter /s/ls4/users/knvvv/bin/g16sse/l302.exe)
 NPDir=0 NMtPBC=     1 NCelOv=     1 NCel=       1 NClECP=     1 NCelD=      1
         NCelK=      1 NCelE2=     1 NClLst=     1 CellRange=     0.0.
 One-electron integrals computed using PRISM.
 One-electron integral symmetry used in STVInt
 PrsmSu:  requested number of processors reduced to:  13 ShMem   1 Linda.
 NBasis=   135 RedAO= T EigKep=  2.01D-03  NBF=   135
 NBsUse=   135 1.00D-06 EigRej= -1.00D+00 NBFU=   135
 Precomputing XC quadrature grid using
 IXCGrd= 4 IRadAn=           5 IRanWt=          -1 IRanGd=           0 AccXCQ= 0.00D+00.
 Generated NRdTot=       0 NPtTot=           0 NUsed=           0 NTot=          32
 NSgBfM=   151   151   151   151   151 MxSgAt=     5 MxSgA2=     5.
 Leave Link  302 at Sun Apr 18 09:55:37 2021, MaxMem=   104857600 cpu:              57.2 elap:               1.3
 (Enter /s/ls4/users/knvvv/bin/g16sse/l303.exe)
 DipDrv:  MaxL=1.
 Leave Link  303 at Sun Apr 18 09:55:38 2021, MaxMem=   104857600 cpu:              15.2 elap:               0.3
 (Enter /s/ls4/users/knvvv/bin/g16sse/l401.exe)
 SCF N**3 symmetry information disabled.
 ExpMin= 4.05D-02 ExpMax= 1.06D+05 ExpMxC= 3.62D+03 IAcc=3 IRadAn=         5 AccDes= 0.00D+00
 Harris functional with IExCor= 1009 and IRadAn=       5 diagonalized for initial guess.
 HarFok:  IExCor= 1009 AccDes= 0.00D+00 IRadAn=         5 IDoV= 1 UseB2=F ITyADJ=14
 ICtDFT=  3500011 ScaDFX=  1.000000  1.000000  1.000000  1.000000
 FoFCou: FMM=F IPFlag=           0 FMFlag=      100000 FMFlg1=           0
         NFxFlg=           0 DoJE=T BraDBF=F KetDBF=T FulRan=T
         wScrn=  0.000000 ICntrl=       500 IOpCl=  0 I1Cent=   200000004 NGrid=           0
         NMat0=    1 NMatS0=      1 NMatT0=    0 NMatD0=    1 NMtDS0=    0 NMtDT0=    0
 Petite list used in FoFCou.
 Harris En= -859.753014111868    
 JPrj=0 DoOrth=F DoCkMO=F.
 Leave Link  401 at Sun Apr 18 09:55:39 2021, MaxMem=   104857600 cpu:              66.5 elap:               1.4
 (Enter /s/ls4/users/knvvv/bin/g16sse/l502.exe)
 Keep R1 ints in memory in canonical form, NReq=89177589.
 FoFCou: FMM=F IPFlag=           0 FMFlag=           0 FMFlg1=           0
         NFxFlg=           0 DoJE=F BraDBF=F KetDBF=F FulRan=T
         wScrn=  0.000000 ICntrl=       600 IOpCl=  0 I1Cent=           0 NGrid=           0
         NMat0=    1 NMatS0=   9180 NMatT0=    0 NMatD0=    1 NMtDS0=    0 NMtDT0=    0
 Symmetry not used in FoFCou.
 CoulSu:  requested number of processors reduced to:  31 ShMem   1 Linda.
 Two-electron integral symmetry not used.
 Closed shell SCF:
 Using DIIS extrapolation, IDIIS=  1040.
 NGot=   104857600 LenX=    62661237 LenY=    62637387
 Requested convergence on RMS density matrix=1.00D-08 within 128 cycles.
 Requested convergence on MAX density matrix=1.00D-06.
 Requested convergence on             energy=1.00D-06.
 No special actions if energy rises.

 Cycle   1  Pass 1  IDiag  1:
 E= -860.178409472521    
 DIIS: error= 1.81D-02 at cycle   1 NSaved=   1.
 NSaved= 1 IEnMin= 1 EnMin= -860.178409472521     IErMin= 1 ErrMin= 1.81D-02
 ErrMax= 1.81D-02  0.00D+00 EMaxC= 1.00D-01 BMatC= 7.64D-02 BMatP= 7.64D-02
 IDIUse=3 WtCom= 8.19D-01 WtEn= 1.81D-01
 Coeff-Com:  0.100D+01
 Coeff-En:   0.100D+01
 Coeff:      0.100D+01
 Gap=     0.378 Goal=   None    Shift=    0.000
 GapD=    0.378 DampG=1.000 DampE=0.500 DampFc=0.5000 IDamp=-1.
 Damping current iteration by 5.00D-01
 RMSDP=1.12D-03 MaxDP=4.44D-02              OVMax= 2.52D-02

 Cycle   2  Pass 1  IDiag  1:
 E= -860.185248812512     Delta-E=       -0.006839339991 Rises=F Damp=T
 DIIS: error= 8.06D-03 at cycle   2 NSaved=   2.
 NSaved= 2 IEnMin= 2 EnMin= -860.185248812512     IErMin= 2 ErrMin= 8.06D-03
 ErrMax= 8.06D-03  0.00D+00 EMaxC= 1.00D-01 BMatC= 1.39D-02 BMatP= 7.64D-02
 IDIUse=3 WtCom= 9.19D-01 WtEn= 8.06D-02
 Coeff-Com: -0.671D+00 0.167D+01
 Coeff-En:   0.000D+00 0.100D+01
 Coeff:     -0.617D+00 0.162D+01
 Gap=     0.349 Goal=   None    Shift=    0.000
 RMSDP=5.31D-04 MaxDP=1.51D-02 DE=-6.84D-03 OVMax= 1.14D-02

 Cycle   3  Pass 1  IDiag  1:
 E= -860.191568747300     Delta-E=       -0.006319934788 Rises=F Damp=F
 DIIS: error= 8.23D-04 at cycle   3 NSaved=   3.
 NSaved= 3 IEnMin= 3 EnMin= -860.191568747300     IErMin= 3 ErrMin= 8.23D-04
 ErrMax= 8.23D-04  0.00D+00 EMaxC= 1.00D-01 BMatC= 1.12D-04 BMatP= 1.39D-02
 IDIUse=3 WtCom= 9.92D-01 WtEn= 8.23D-03
 Coeff-Com: -0.110D+00 0.239D+00 0.870D+00
 Coeff-En:   0.000D+00 0.000D+00 0.100D+01
 Coeff:     -0.109D+00 0.237D+00 0.871D+00
 Gap=     0.348 Goal=   None    Shift=    0.000
 RMSDP=8.32D-05 MaxDP=3.57D-03 DE=-6.32D-03 OVMax= 4.66D-03

 Cycle   4  Pass 1  IDiag  1:
 E= -860.191645350171     Delta-E=       -0.000076602872 Rises=F Damp=F
 DIIS: error= 4.30D-04 at cycle   4 NSaved=   4.
 NSaved= 4 IEnMin= 4 EnMin= -860.191645350171     IErMin= 4 ErrMin= 4.30D-04
 ErrMax= 4.30D-04  0.00D+00 EMaxC= 1.00D-01 BMatC= 2.32D-05 BMatP= 1.12D-04
 IDIUse=3 WtCom= 9.96D-01 WtEn= 4.30D-03
 Coeff-Com: -0.542D-02 0.735D-02 0.324D+00 0.674D+00
 Coeff-En:   0.000D+00 0.000D+00 0.000D+00 0.100D+01
 Coeff:     -0.540D-02 0.732D-02 0.323D+00 0.675D+00
 Gap=     0.348 Goal=   None    Shift=    0.000
 RMSDP=2.58D-05 MaxDP=1.33D-03 DE=-7.66D-05 OVMax= 1.58D-03

 Cycle   5  Pass 1  IDiag  1:
 E= -860.191663729036     Delta-E=       -0.000018378865 Rises=F Damp=F
 DIIS: error= 3.81D-05 at cycle   5 NSaved=   5.
 NSaved= 5 IEnMin= 5 EnMin= -860.191663729036     IErMin= 5 ErrMin= 3.81D-05
 ErrMax= 3.81D-05  0.00D+00 EMaxC= 1.00D-01 BMatC= 2.10D-07 BMatP= 2.32D-05
 IDIUse=1 WtCom= 1.00D+00 WtEn= 0.00D+00
 Coeff-Com: -0.225D-03-0.810D-03 0.648D-01 0.139D+00 0.797D+00
 Coeff:     -0.225D-03-0.810D-03 0.648D-01 0.139D+00 0.797D+00
 Gap=     0.348 Goal=   None    Shift=    0.000
 RMSDP=2.82D-06 MaxDP=4.92D-05 DE=-1.84D-05 OVMax= 2.83D-04

 Cycle   6  Pass 1  IDiag  1:
 E= -860.191663941265     Delta-E=       -0.000000212229 Rises=F Damp=F
 DIIS: error= 1.63D-05 at cycle   6 NSaved=   6.
 NSaved= 6 IEnMin= 6 EnMin= -860.191663941265     IErMin= 6 ErrMin= 1.63D-05
 ErrMax= 1.63D-05  0.00D+00 EMaxC= 1.00D-01 BMatC= 2.31D-08 BMatP= 2.10D-07
 IDIUse=1 WtCom= 1.00D+00 WtEn= 0.00D+00
 Coeff-Com:  0.565D-03-0.920D-03-0.277D-01-0.649D-01 0.137D+00 0.956D+00
 Coeff:      0.565D-03-0.920D-03-0.277D-01-0.649D-01 0.137D+00 0.956D+00
 Gap=     0.348 Goal=   None    Shift=    0.000
 RMSDP=1.28D-06 MaxDP=2.54D-05 DE=-2.12D-07 OVMax= 1.03D-04

 Cycle   7  Pass 1  IDiag  1:
 E= -860.191663972483     Delta-E=       -0.000000031218 Rises=F Damp=F
 DIIS: error= 1.76D-06 at cycle   7 NSaved=   7.
 NSaved= 7 IEnMin= 7 EnMin= -860.191663972483     IErMin= 7 ErrMin= 1.76D-06
 ErrMax= 1.76D-06  0.00D+00 EMaxC= 1.00D-01 BMatC= 3.97D-10 BMatP= 2.31D-08
 IDIUse=1 WtCom= 1.00D+00 WtEn= 0.00D+00
 Coeff-Com:  0.185D-03-0.317D-03-0.536D-02-0.109D-01 0.871D-02 0.140D+00
 Coeff-Com:  0.867D+00
 Coeff:      0.185D-03-0.317D-03-0.536D-02-0.109D-01 0.871D-02 0.140D+00
 Coeff:      0.867D+00
 Gap=     0.348 Goal=   None    Shift=    0.000
 RMSDP=1.72D-07 MaxDP=7.56D-06 DE=-3.12D-08 OVMax= 1.05D-05

 Cycle   8  Pass 1  IDiag  1:
 E= -860.191663972946     Delta-E=       -0.000000000463 Rises=F Damp=F
 DIIS: error= 4.89D-07 at cycle   8 NSaved=   8.
 NSaved= 8 IEnMin= 8 EnMin= -860.191663972946     IErMin= 8 ErrMin= 4.89D-07
 ErrMax= 4.89D-07  0.00D+00 EMaxC= 1.00D-01 BMatC= 5.15D-11 BMatP= 3.97D-10
 IDIUse=1 WtCom= 1.00D+00 WtEn= 0.00D+00
 Coeff-Com: -0.182D-04 0.337D-04 0.573D-03 0.164D-02-0.653D-02-0.316D-01
 Coeff-Com:  0.211D+00 0.825D+00
 Coeff:     -0.182D-04 0.337D-04 0.573D-03 0.164D-02-0.653D-02-0.316D-01
 Coeff:      0.211D+00 0.825D+00
 Gap=     0.348 Goal=   None    Shift=    0.000
 RMSDP=5.59D-08 MaxDP=2.40D-06 DE=-4.63D-10 OVMax= 4.09D-06

 Cycle   9  Pass 1  IDiag  1:
 E= -860.191663973008     Delta-E=       -0.000000000062 Rises=F Damp=F
 DIIS: error= 1.27D-07 at cycle   9 NSaved=   9.
 NSaved= 9 IEnMin= 9 EnMin= -860.191663973008     IErMin= 9 ErrMin= 1.27D-07
 ErrMax= 1.27D-07  0.00D+00 EMaxC= 1.00D-01 BMatC= 2.71D-12 BMatP= 5.15D-11
 IDIUse=1 WtCom= 1.00D+00 WtEn= 0.00D+00
 Coeff-Com: -0.102D-04 0.169D-04 0.445D-03 0.102D-02-0.161D-02-0.173D-01
 Coeff-Com: -0.181D-01 0.153D+00 0.883D+00
 Coeff:     -0.102D-04 0.169D-04 0.445D-03 0.102D-02-0.161D-02-0.173D-01
 Coeff:     -0.181D-01 0.153D+00 0.883D+00
 Gap=     0.348 Goal=   None    Shift=    0.000
 RMSDP=1.41D-08 MaxDP=5.42D-07 DE=-6.18D-11 OVMax= 8.01D-07

 Cycle  10  Pass 1  IDiag  1:
 E= -860.191663973008     Delta-E=        0.000000000000 Rises=F Damp=F
 DIIS: error= 3.27D-08 at cycle  10 NSaved=  10.
 NSaved=10 IEnMin= 9 EnMin= -860.191663973008     IErMin=10 ErrMin= 3.27D-08
 ErrMax= 3.27D-08  0.00D+00 EMaxC= 1.00D-01 BMatC= 1.31D-13 BMatP= 2.71D-12
 IDIUse=1 WtCom= 1.00D+00 WtEn= 0.00D+00
 Coeff-Com: -0.171D-05 0.306D-05 0.255D-04 0.411D-04 0.345D-03-0.436D-03
 Coeff-Com: -0.178D-01-0.215D-01 0.146D+00 0.893D+00
 Coeff:     -0.171D-05 0.306D-05 0.255D-04 0.411D-04 0.345D-03-0.436D-03
 Coeff:     -0.178D-01-0.215D-01 0.146D+00 0.893D+00
 Gap=     0.348 Goal=   None    Shift=    0.000
 RMSDP=2.90D-09 MaxDP=1.03D-07 DE= 2.27D-13 OVMax= 2.25D-07

 SCF Done:  E(RM062X) =  -860.191663973     A.U. after   10 cycles
            NFock= 10  Conv=0.29D-08     -V/T= 2.0012
 KE= 8.591468647205D+02 PE=-2.179170519650D+03 EE= 3.932684486239D+02
 Leave Link  502 at Sun Apr 18 09:55:46 2021, MaxMem=   104857600 cpu:             281.3 elap:               6.6
 (Enter /s/ls4/users/knvvv/bin/g16sse/l601.exe)
 Copying SCF densities to generalized density rwf, IOpCl= 0 IROHF=0.

 **********************************************************************

            Population analysis using the SCF density.

 **********************************************************************

 Orbital symmetries:
       Occupied  (A) (A) (A) (A) (A) (A) (A) (A) (A) (A) (A) (A)
                 (A) (A) (A) (A) (A) (A)
       Virtual   (A) (A) (A) (A) (A) (A) (A) (A) (A) (A) (A) (A)
                 (A) (A) (A) (A) (A) (A) (A) (A) (A) (A) (A) (A)
                 (A) (A) (A) (A) (A) (A) (A) (A) (A) (A) (A) (A)
                 (A) (A) (A) (A) (A) (A) (A) (A) (A) (A) (A) (A)
                 (A) (A) (A) (A) (A) (A) (A) (A) (A) (A) (A) (A)
                 (A) (A) (A) (A) (A) (A) (A) (A) (A) (A) (A) (A)
                 (A) (A) (A) (A) (A) (A) (A) (A) (A) (A) (A) (A)
                 (A) (A) (A) (A) (A) (A) (A) (A) (A) (A) (A) (A)
                 (A) (A) (A) (A) (A) (A) (A) (A) (A) (A) (A) (A)
                 (A) (A) (A) (A) (A) (A) (A) (A) (A)
 The electronic state is 1-A.
 Alpha  occ. eigenvalues -- -102.63352 -89.92442  -9.80023  -8.29006  -7.52342
 Alpha  occ. eigenvalues --   -7.51896  -7.51896  -6.21086  -6.20921  -6.20627
 Alpha  occ. eigenvalues --   -0.92555  -0.85273  -0.52426  -0.52349  -0.45074
 Alpha  occ. eigenvalues --   -0.38571  -0.38561  -0.34471
 Alpha virt. eigenvalues --    0.00326   0.03283   0.04371   0.04690   0.05188
 Alpha virt. eigenvalues --    0.06695   0.09434   0.09490   0.10867   0.11159
 Alpha virt. eigenvalues --    0.17975   0.21255   0.21406   0.21792   0.27107
 Alpha virt. eigenvalues --    0.30347   0.31427   0.31908   0.33105   0.33238
 Alpha virt. eigenvalues --    0.36340   0.37842   0.40176   0.44241   0.50718
 Alpha virt. eigenvalues --    0.51031   0.51669   0.56119   0.58025   0.61345
 Alpha virt. eigenvalues --    0.72424   0.75385   0.77313   0.78250   0.83213
 Alpha virt. eigenvalues --    0.86664   0.86795   0.91214   0.91348   0.95786
 Alpha virt. eigenvalues --    0.97606   1.02155   1.02944   1.08182   1.09485
 Alpha virt. eigenvalues --    1.12295   1.14678   1.15207   1.17170   1.17315
 Alpha virt. eigenvalues --    1.17353   1.17442   1.17760   1.17879   1.20681
 Alpha virt. eigenvalues --    1.24623   1.25255   1.29010   1.36329   1.47746
 Alpha virt. eigenvalues --    1.50831   1.51397   1.53105   1.54532   1.72264
 Alpha virt. eigenvalues --    1.91989   2.00478   2.00556   2.14343   2.14477
 Alpha virt. eigenvalues --    2.53391   2.69615   2.73208   2.78963   3.24390
 Alpha virt. eigenvalues --    3.27901   3.33514   3.37815   3.39520   3.42745
 Alpha virt. eigenvalues --    3.48892   3.81007   3.81395   3.84520   3.88898
 Alpha virt. eigenvalues --    3.94652   3.96855   3.97063   4.23384   4.29689
 Alpha virt. eigenvalues --    4.33697   4.33714   4.35021   4.35022   4.46012
 Alpha virt. eigenvalues --    4.46087   4.71051   4.71382   4.71540   4.82110
 Alpha virt. eigenvalues --    5.11888   5.24030   5.24053   5.25627   5.25848
 Alpha virt. eigenvalues --    5.59137   5.92715   8.22497   9.72091  17.24124
 Alpha virt. eigenvalues --   17.33666  17.39693  20.71211  20.71229  20.98130
 Alpha virt. eigenvalues --  189.42480 216.25680
          Condensed to atoms (all electrons):
               1          2          3          4          5
     1  S   15.593956   0.352292   0.352297  -0.006799   0.000679
     2  H    0.352292   0.508347  -0.015223  -0.000242  -0.000717
     3  H    0.352297  -0.015223   0.508326  -0.000242  -0.000718
     4  Cl  -0.006799  -0.000242  -0.000242  16.971839   0.337678
     5  H    0.000679  -0.000717  -0.000718   0.337678   0.379525
 Mulliken charges:
               1
     1  S   -0.292425
     2  H    0.155544
     3  H    0.155561
     4  Cl  -0.302233
     5  H    0.283553
 Sum of Mulliken charges =  -0.00000
 Mulliken charges with hydrogens summed into heavy atoms:
               1
     1  S    0.018680
     4  Cl  -0.018680
 Electronic spatial extent (au):  <R**2>=            516.1382
 Charge=             -0.0000 electrons
 Dipole moment (field-independent basis, Debye):
    X=              1.9650    Y=             -0.0001    Z=              0.9337  Tot=              2.1756
 Quadrupole moment (field-independent basis, Debye-Ang):
   XX=            -30.9169   YY=            -26.3243   ZZ=            -27.4682
   XY=             -0.0019   XZ=              1.8688   YZ=             -0.0000
 Traceless Quadrupole moment (field-independent basis, Debye-Ang):
   XX=             -2.6805   YY=              1.9121   ZZ=              0.7683
   XY=             -0.0019   XZ=              1.8688   YZ=             -0.0000
 Octapole moment (field-independent basis, Debye-Ang**2):
  XXX=            -12.6308  YYY=             -0.0000  ZZZ=              1.1720  XYY=              3.9198
  XXY=             -0.0072  XXZ=              4.0177  XZZ=              1.7479  YZZ=             -0.0001
  YYZ=              1.3353  XYZ=             -0.0006
 Hexadecapole moment (field-independent basis, Debye-Ang**3):
 XXXX=           -632.2362 YYYY=            -38.7465 ZZZZ=            -40.7930 XXXY=             -0.0224
 XXXZ=              5.4012 YYYX=             -0.0030 YYYZ=              0.0001 ZZZX=              2.1935
 ZZZY=             -0.0001 XXYY=           -103.3858 XXZZ=           -107.4016 YYZZ=            -11.9135
 XXYZ=             -0.0022 YYXZ=              2.4465 ZZXY=             -0.0016
 N-N= 6.656354233267D+01 E-N=-2.179170520534D+03  KE= 8.591468647205D+02
 No NMR shielding tensors so no spin-rotation constants.
 Leave Link  601 at Sun Apr 18 09:55:47 2021, MaxMem=   104857600 cpu:              42.4 elap:               0.9
 (Enter /s/ls4/users/knvvv/bin/g16sse/l801.exe)
 DoSCS=F DFT=T ScalE2(SS,OS)=  1.000000  1.000000
 Range of M.O.s used for correlation:     1   135
 NBasis=   135 NAE=    18 NBE=    18 NFC=     0 NFV=     0
 NROrb=    135 NOA=    18 NOB=    18 NVA=   117 NVB=   117
 Leave Link  801 at Sun Apr 18 09:55:47 2021, MaxMem=   104857600 cpu:               3.2 elap:               0.1
 (Enter /s/ls4/users/knvvv/bin/g16sse/l914.exe)
 RHF ground state
 Doing stability rather than CIS.
 Two-electron integrals replicated using symmetry.
 MDV=   104857600 DFT=T DoStab=T Mixed=T DoRPA=F DoScal=F NonHer=F
 Making orbital integer symmetry assigments:
 Orbital symmetries:
       Occupied  (A) (A) (A) (A) (A) (A) (A) (A) (A) (A) (A) (A)
                 (A) (A) (A) (A) (A) (A)
       Virtual   (A) (A) (A) (A) (A) (A) (A) (A) (A) (A) (A) (A)
                 (A) (A) (A) (A) (A) (A) (A) (A) (A) (A) (A) (A)
                 (A) (A) (A) (A) (A) (A) (A) (A) (A) (A) (A) (A)
                 (A) (A) (A) (A) (A) (A) (A) (A) (A) (A) (A) (A)
                 (A) (A) (A) (A) (A) (A) (A) (A) (A) (A) (A) (A)
                 (A) (A) (A) (A) (A) (A) (A) (A) (A) (A) (A) (A)
                 (A) (A) (A) (A) (A) (A) (A) (A) (A) (A) (A) (A)
                 (A) (A) (A) (A) (A) (A) (A) (A) (A) (A) (A) (A)
                 (A) (A) (A) (A) (A) (A) (A) (A) (A) (A) (A) (A)
                 (A) (A) (A) (A) (A) (A) (A) (A) (A)
    24 initial guesses have been made.
 Convergence on wavefunction:    0.001000000000000
 Davidson Disk Diagonalization:  ConvIn= 1.00D-03 SkipCon=T Conv= 1.00D-03.
 Max sub-space:  2000 roots to seek:    24 dimension of matrix:         4212
 Iteration     1 Dimension    24 NMult     0 NNew     24
 Estimated number of processors is:   45
 CISAX will form     1 AO SS matrices at one time.
 NMat=     1 NSing=     1 JSym2X= 0.
 FoFJK:  IHMeth= 1 ICntrl=       0 DoSepK=F KAlg= 0 I1Cent=           0 FoldK=F
 IRaf= 930000000 NMat=       1 IRICut=       1 DoRegI=T DoRafI=F ISym2E= 0 IDoP0=0 IntGTp=1.
 FoFCou: FMM=F IPFlag=           0 FMFlag=      100000 FMFlg1=           0
         NFxFlg=           0 DoJE=F BraDBF=F KetDBF=F FulRan=T
         wScrn=  0.000000 ICntrl=         0 IOpCl=  0 I1Cent=           0 NGrid=           0
         NMat0=    1 NMatS0=      1 NMatT0=    0 NMatD0=    1 NMtDS0=    0 NMtDT0=    0
 Symmetry not used in FoFCou.
 NMat=     1 NSing=     1 JSym2X= 0.
 NMat=     1 NSing=     1 JSym2X= 0.
 NMat=     1 NSing=     1 JSym2X= 0.
 NMat=     1 NSing=     1 JSym2X= 0.
 NMat=     1 NSing=     1 JSym2X= 0.
 NMat=     1 NSing=     1 JSym2X= 0.
 NMat=     1 NSing=     1 JSym2X= 0.
 NMat=     1 NSing=     1 JSym2X= 0.
 NMat=     1 NSing=     1 JSym2X= 0.
 NMat=     1 NSing=     1 JSym2X= 0.
 NMat=     1 NSing=     1 JSym2X= 0.
 NMat=     1 NSing=     0 JSym2X= 0.
 NMat=     1 NSing=     0 JSym2X= 0.
 NMat=     1 NSing=     0 JSym2X= 0.
 NMat=     1 NSing=     0 JSym2X= 0.
 NMat=     1 NSing=     0 JSym2X= 0.
 NMat=     1 NSing=     0 JSym2X= 0.
 NMat=     1 NSing=     0 JSym2X= 0.
 NMat=     1 NSing=     0 JSym2X= 0.
 NMat=     1 NSing=     0 JSym2X= 0.
 NMat=     1 NSing=     0 JSym2X= 0.
 NMat=     1 NSing=     0 JSym2X= 0.
 NMat=     1 NSing=     0 JSym2X= 0.
 New state      1 was old state      4
 Excitation Energies [eV] at current iteration:
 Root      1 :     5.928695701958739
 Root      2 :     6.550022113466626
 Root      3 :     6.734434002981247
 Root      4 :     6.933654002262792
 Root      5 :     8.265577510514962
 Root      6 :     8.404058537222882
 Root      7 :     8.440418532793082
 Root      8 :     8.508931295149944
 Root      9 :     8.578249574517342
 Root     10 :     8.659310360585815
 Root     11 :     8.660158545001934
 Root     12 :     8.737767976818647
 Root     13 :     8.753728138652944
 Root     14 :     8.946608770816983
 Root     15 :     9.296070481598239
 Root     16 :     9.467849263191052
 Root     17 :     9.471751644776122
 Root     18 :     9.482955908228041
 Root     19 :     9.487452914425862
 Root     20 :     9.657719515840666
 Root     21 :     9.895400465268924
 Root     22 :     9.928919192980363
 Root     23 :    10.035476824325820
 Root     24 :    10.105355356826130
 Iteration     2 Dimension    48 NMult    24 NNew     24
 Estimated number of processors is:   45
 CISAX will form     1 AO SS matrices at one time.
 NMat=     1 NSing=     1 JSym2X= 0.
 NMat=     1 NSing=     1 JSym2X= 0.
 NMat=     1 NSing=     1 JSym2X= 0.
 NMat=     1 NSing=     1 JSym2X= 0.
 NMat=     1 NSing=     1 JSym2X= 0.
 NMat=     1 NSing=     1 JSym2X= 0.
 NMat=     1 NSing=     1 JSym2X= 0.
 NMat=     1 NSing=     1 JSym2X= 0.
 NMat=     1 NSing=     1 JSym2X= 0.
 NMat=     1 NSing=     1 JSym2X= 0.
 NMat=     1 NSing=     1 JSym2X= 0.
 NMat=     1 NSing=     1 JSym2X= 0.
 NMat=     1 NSing=     0 JSym2X= 0.
 NMat=     1 NSing=     0 JSym2X= 0.
 NMat=     1 NSing=     0 JSym2X= 0.
 NMat=     1 NSing=     0 JSym2X= 0.
 NMat=     1 NSing=     0 JSym2X= 0.
 NMat=     1 NSing=     0 JSym2X= 0.
 NMat=     1 NSing=     0 JSym2X= 0.
 NMat=     1 NSing=     0 JSym2X= 0.
 NMat=     1 NSing=     0 JSym2X= 0.
 NMat=     1 NSing=     0 JSym2X= 0.
 NMat=     1 NSing=     0 JSym2X= 0.
 NMat=     1 NSing=     0 JSym2X= 0.
 Root      1 not converged, maximum delta is    0.095544771879041
 Excitation Energies [eV] at current iteration:
 Root      1 :     5.611215909863970   Change is   -0.317479792094770
 Root      2 :     6.138003901265441   Change is   -0.596430101715806
 Root      3 :     6.393112939418620   Change is   -0.156909174048006
 Root      4 :     6.779905215287195   Change is   -0.153748786975597
 Root      5 :     7.199532932446047   Change is   -1.378716642071295
 Root      6 :     7.930158639942900   Change is   -0.473899897279982
 Root      7 :     7.946305698386212   Change is   -0.562625596763733
 Root      8 :     8.163371036780150   Change is   -0.102206473734813
 Root      9 :     8.316544561098061   Change is   -0.123873971695022
 Root     10 :     8.379514004926859   Change is   -0.358253971891789
 Root     11 :     8.389494860597182   Change is   -0.270663684404753
 Root     12 :     8.412439963258217   Change is   -0.246870397327598
 Root     13 :     8.460991665150098   Change is   -0.292736473502846
 Root     14 :     8.631074745133560   Change is   -0.315534025683424
 Root     15 :     8.922968595635391   Change is   -0.373101885962847
 Root     16 :     9.198743697755225   Change is   -0.458975818085441
 Root     17 :     9.379318871734840   Change is   -0.088530391456211
 Root     18 :     9.433843692066162   Change is   -0.037907952709960
 Root     19 :     9.434169600553650   Change is   -0.048786307674390
 Root     20 :     9.472455455990826   Change is   -0.014997458435037
 Root     21 :     9.672850252921553
 Root     22 :     9.708452042539520
 Root     23 :     9.731400673715148   Change is   -0.163999791553776
 Root     24 :     9.947031199794889   Change is   -0.158324157031239
 Iteration     3 Dimension    54 NMult    48 NNew      6
 Estimated number of processors is:   45
 CISAX will form     1 AO SS matrices at one time.
 NMat=     1 NSing=     1 JSym2X= 0.
 NMat=     1 NSing=     1 JSym2X= 0.
 NMat=     1 NSing=     1 JSym2X= 0.
 NMat=     1 NSing=     0 JSym2X= 0.
 NMat=     1 NSing=     0 JSym2X= 0.
 NMat=     1 NSing=     0 JSym2X= 0.
 Root      1 not converged, maximum delta is    0.007910247831190
 Excitation Energies [eV] at current iteration:
 Root      1 :     5.607726794446070   Change is   -0.003489115417899
 Root      2 :     6.104469716796183   Change is   -0.033534184469258
 Root      3 :     6.385811287331262   Change is   -0.007301652087358
 Root      4 :     6.758893101585029   Change is   -0.021012113702167
 Root      5 :     7.121089122454466   Change is   -0.078443809991581
 Root      6 :     8.156410690582421   Change is   -0.006960346197728
 Iteration     4 Dimension    60 NMult    54 NNew      6
 Estimated number of processors is:   45
 CISAX will form     1 AO SS matrices at one time.
 NMat=     1 NSing=     1 JSym2X= 0.
 NMat=     1 NSing=     1 JSym2X= 0.
 NMat=     1 NSing=     1 JSym2X= 0.
 NMat=     1 NSing=     0 JSym2X= 0.
 NMat=     1 NSing=     0 JSym2X= 0.
 NMat=     1 NSing=     0 JSym2X= 0.
 Root      1 not converged, maximum delta is    0.001165731051491
 Excitation Energies [eV] at current iteration:
 Root      1 :     5.607618045597810   Change is   -0.000108748848261
 Root      2 :     6.103425224795459   Change is   -0.001044492000724
 Root      3 :     6.385703315208963   Change is   -0.000107972122298
 Root      4 :     6.755624992208212   Change is   -0.003268109376818
 Root      5 :     7.101106628658028   Change is   -0.019982493796438
 Root      6 :     8.150837440888347   Change is   -0.005573249694074
 Iteration     5 Dimension    66 NMult    60 NNew      6
 Estimated number of processors is:   45
 CISAX will form     1 AO SS matrices at one time.
 NMat=     1 NSing=     1 JSym2X= 0.
 NMat=     1 NSing=     1 JSym2X= 0.
 NMat=     1 NSing=     1 JSym2X= 0.
 NMat=     1 NSing=     0 JSym2X= 0.
 NMat=     1 NSing=     0 JSym2X= 0.
 NMat=     1 NSing=     0 JSym2X= 0.
 Root      1 not converged, maximum delta is    0.001079472829201
 Excitation Energies [eV] at current iteration:
 Root      1 :     5.607606133405556   Change is   -0.000011912192253
 Root      2 :     6.103360322969537   Change is   -0.000064901825922
 Root      3 :     6.385697804605062   Change is   -0.000005510603901
 Root      4 :     6.755265234888038   Change is   -0.000359757320174
 Root      5 :     7.097787273036313   Change is   -0.003319355621715
 Root      6 :     8.148430993292061   Change is   -0.002406447596285
 Iteration     6 Dimension    72 NMult    66 NNew      6
 Estimated number of processors is:   45
 CISAX will form     1 AO SS matrices at one time.
 NMat=     1 NSing=     1 JSym2X= 0.
 NMat=     1 NSing=     1 JSym2X= 0.
 NMat=     1 NSing=     1 JSym2X= 0.
 NMat=     1 NSing=     0 JSym2X= 0.
 NMat=     1 NSing=     0 JSym2X= 0.
 NMat=     1 NSing=     0 JSym2X= 0.
 Root      1 has converged.
 Excitation Energies [eV] at current iteration:
 Root      1 :     5.607604630615663   Change is   -0.000001502789893
 Root      2 :     6.103355306323777   Change is   -0.000005016645760
 Root      3 :     6.385697242251856   Change is   -0.000000562353206
 Root      4 :     6.755226207580328   Change is   -0.000039027307709
 Root      5 :     7.097558854717061   Change is   -0.000228418319252
 Root      6 :     8.147874458095419   Change is   -0.000556535196642
 Convergence achieved on expansion vectors.
 ***********************************************************************
 Stability analysis using <AA,BB:AA,BB> singles matrix:
 ***********************************************************************
 1PDM for each excited state written to RWF  633
 Ground to excited state transition densities written to RWF  633

 Eigenvectors of the stability matrix:
 
 Eigenvector   1:      Triplet-A    Eigenvalue= 0.2060757  <S**2>=2.000
      18 -> 20         0.63491
      18 -> 21         0.28011
 The wavefunction is stable under the perturbations considered.
 Leave Link  914 at Sun Apr 18 09:57:27 2021, MaxMem=   104857600 cpu:            4664.7 elap:              99.7
 (Enter /s/ls4/users/knvvv/bin/g16sse/l508.exe)
 The wavefunction is already stable.
 Leave Link  508 at Sun Apr 18 09:57:27 2021, MaxMem=   104857600 cpu:               2.2 elap:               0.1
 (Enter /s/ls4/users/knvvv/bin/g16sse/l601.exe)
 Copying SCF densities to generalized density rwf, IOpCl= 0 IROHF=0.

 **********************************************************************

            Population analysis using the SCF density.

 **********************************************************************

 Orbital symmetries:
       Occupied  (A) (A) (A) (A) (A) (A) (A) (A) (A) (A) (A) (A)
                 (A) (A) (A) (A) (A) (A)
       Virtual   (A) (A) (A) (A) (A) (A) (A) (A) (A) (A) (A) (A)
                 (A) (A) (A) (A) (A) (A) (A) (A) (A) (A) (A) (A)
                 (A) (A) (A) (A) (A) (A) (A) (A) (A) (A) (A) (A)
                 (A) (A) (A) (A) (A) (A) (A) (A) (A) (A) (A) (A)
                 (A) (A) (A) (A) (A) (A) (A) (A) (A) (A) (A) (A)
                 (A) (A) (A) (A) (A) (A) (A) (A) (A) (A) (A) (A)
                 (A) (A) (A) (A) (A) (A) (A) (A) (A) (A) (A) (A)
                 (A) (A) (A) (A) (A) (A) (A) (A) (A) (A) (A) (A)
                 (A) (A) (A) (A) (A) (A) (A) (A) (A) (A) (A) (A)
                 (A) (A) (A) (A) (A) (A) (A) (A) (A)
 The electronic state is 1-A.
 Alpha  occ. eigenvalues -- -102.63352 -89.92442  -9.80023  -8.29006  -7.52342
 Alpha  occ. eigenvalues --   -7.51896  -7.51896  -6.21086  -6.20921  -6.20627
 Alpha  occ. eigenvalues --   -0.92555  -0.85273  -0.52426  -0.52349  -0.45074
 Alpha  occ. eigenvalues --   -0.38571  -0.38561  -0.34471
 Alpha virt. eigenvalues --    0.00326   0.03283   0.04371   0.04690   0.05188
 Alpha virt. eigenvalues --    0.06695   0.09434   0.09490   0.10867   0.11159
 Alpha virt. eigenvalues --    0.17975   0.21255   0.21406   0.21792   0.27107
 Alpha virt. eigenvalues --    0.30347   0.31427   0.31908   0.33105   0.33238
 Alpha virt. eigenvalues --    0.36340   0.37842   0.40176   0.44241   0.50718
 Alpha virt. eigenvalues --    0.51031   0.51669   0.56119   0.58025   0.61345
 Alpha virt. eigenvalues --    0.72424   0.75385   0.77313   0.78250   0.83213
 Alpha virt. eigenvalues --    0.86664   0.86795   0.91214   0.91348   0.95786
 Alpha virt. eigenvalues --    0.97606   1.02155   1.02944   1.08182   1.09485
 Alpha virt. eigenvalues --    1.12295   1.14678   1.15207   1.17170   1.17315
 Alpha virt. eigenvalues --    1.17353   1.17442   1.17760   1.17879   1.20681
 Alpha virt. eigenvalues --    1.24623   1.25255   1.29010   1.36329   1.47746
 Alpha virt. eigenvalues --    1.50831   1.51397   1.53105   1.54532   1.72264
 Alpha virt. eigenvalues --    1.91989   2.00478   2.00556   2.14343   2.14477
 Alpha virt. eigenvalues --    2.53391   2.69615   2.73208   2.78963   3.24390
 Alpha virt. eigenvalues --    3.27901   3.33514   3.37815   3.39520   3.42745
 Alpha virt. eigenvalues --    3.48892   3.81007   3.81395   3.84520   3.88898
 Alpha virt. eigenvalues --    3.94652   3.96855   3.97063   4.23384   4.29689
 Alpha virt. eigenvalues --    4.33697   4.33714   4.35021   4.35022   4.46012
 Alpha virt. eigenvalues --    4.46087   4.71051   4.71382   4.71540   4.82110
 Alpha virt. eigenvalues --    5.11888   5.24030   5.24053   5.25627   5.25848
 Alpha virt. eigenvalues --    5.59137   5.92715   8.22497   9.72091  17.24124
 Alpha virt. eigenvalues --   17.33666  17.39693  20.71211  20.71229  20.98130
 Alpha virt. eigenvalues --  189.42480 216.25680
          Condensed to atoms (all electrons):
               1          2          3          4          5
     1  S   15.593956   0.352292   0.352297  -0.006799   0.000679
     2  H    0.352292   0.508347  -0.015223  -0.000242  -0.000717
     3  H    0.352297  -0.015223   0.508326  -0.000242  -0.000718
     4  Cl  -0.006799  -0.000242  -0.000242  16.971839   0.337678
     5  H    0.000679  -0.000717  -0.000718   0.337678   0.379525
 Mulliken charges:
               1
     1  S   -0.292425
     2  H    0.155544
     3  H    0.155561
     4  Cl  -0.302233
     5  H    0.283553
 Sum of Mulliken charges =  -0.00000
 Mulliken charges with hydrogens summed into heavy atoms:
               1
     1  S    0.018680
     4  Cl  -0.018680
 Electronic spatial extent (au):  <R**2>=            516.1382
 Charge=             -0.0000 electrons
 Dipole moment (field-independent basis, Debye):
    X=              1.9650    Y=             -0.0001    Z=              0.9337  Tot=              2.1756
 Quadrupole moment (field-independent basis, Debye-Ang):
   XX=            -30.9169   YY=            -26.3243   ZZ=            -27.4682
   XY=             -0.0019   XZ=              1.8688   YZ=             -0.0000
 Traceless Quadrupole moment (field-independent basis, Debye-Ang):
   XX=             -2.6805   YY=              1.9121   ZZ=              0.7683
   XY=             -0.0019   XZ=              1.8688   YZ=             -0.0000
 Octapole moment (field-independent basis, Debye-Ang**2):
  XXX=            -12.6308  YYY=             -0.0000  ZZZ=              1.1720  XYY=              3.9198
  XXY=             -0.0072  XXZ=              4.0177  XZZ=              1.7479  YZZ=             -0.0001
  YYZ=              1.3353  XYZ=             -0.0006
 Hexadecapole moment (field-independent basis, Debye-Ang**3):
 XXXX=           -632.2362 YYYY=            -38.7465 ZZZZ=            -40.7930 XXXY=             -0.0224
 XXXZ=              5.4012 YYYX=             -0.0030 YYYZ=              0.0001 ZZZX=              2.1935
 ZZZY=             -0.0001 XXYY=           -103.3858 XXZZ=           -107.4016 YYZZ=            -11.9135
 XXYZ=             -0.0022 YYXZ=              2.4465 ZZXY=             -0.0016
 N-N= 6.656354233267D+01 E-N=-2.179170520534D+03  KE= 8.591468647205D+02
 No NMR shielding tensors so no spin-rotation constants.
 Leave Link  601 at Sun Apr 18 09:57:27 2021, MaxMem=   104857600 cpu:              38.8 elap:               0.9
 (Enter /s/ls4/users/knvvv/bin/g16sse/l9999.exe)

 Test job not archived.
 1\1\GINC-N178\Stability\RM062X\Gen\Cl1H3S1\KNVVV\18-Apr-2021\0\\#P M06
 2X/GEN Integral=UltraFineGrid SCF=NoSymm Stable=(RExt, Opt) IOp(1/33=1
 )\\Database calculations.\\0,1\S,0,1.842529,0.000013,-0.101543\H,0,1.8
 22779,-0.96181,0.83465\H,0,1.821877,0.96186,0.834622\Cl,0,-1.911636,-0
 .000011,0.003498\H,0,-0.627317,-0.000058,-0.104051\\Version=ES64L-G16R
 evA.03\State=1-A\HF=-860.191664\RMSD=2.898e-09\Dipole=0.7730909,-0.000
 0327,0.367346\Quadrupole=-1.9928563,1.421634,0.5712223,-0.0014449,1.38
 94363,-0.0000001\PG=C01 [X(Cl1H3S1)]\\@


 TOWERING GENIUS DISDAINS A BEATEN PATH.  IT SEEKS 
 REGIONS HITHERTO UNEXPLORED.

                                -- ABRAHAM LINCOLN
 Job cpu time:       0 days  1 hours 26 minutes 46.1 seconds.
 Elapsed time:       0 days  0 hours  1 minutes 52.1 seconds.
 File lengths (MBytes):  RWF=    127 Int=      0 D2E=      0 Chk=      4 Scr=      1
 Normal termination of Gaussian 16 at Sun Apr 18 09:57:28 2021.
