 Entering Gaussian System, Link 0=/s/ls4/users/knvvv/bin/g16sse/g16
 Input=data/database/M062X--def2-QZVPPD--31_PMe3_NBPRC.gjf
 Output=data/database/M062X--def2-QZVPPD--31_PMe3_NBPRC.log
 Initial command:
 /s/ls4/users/knvvv/bin/g16sse/l1.exe "/s/ls4/users/knvvv/bin/scratch/Gau-44595.inp" -scrdir="/s/ls4/users/knvvv/bin/scratch/"
 Entering Link 1 = /s/ls4/users/knvvv/bin/g16sse/l1.exe PID=     44596.
  
 Copyright (c) 1988,1990,1992,1993,1995,1998,2003,2009,2016,
            Gaussian, Inc.  All Rights Reserved.
  
 This is part of the Gaussian(R) 16 program.  It is based on
 the Gaussian(R) 09 system (copyright 2009, Gaussian, Inc.),
 the Gaussian(R) 03 system (copyright 2003, Gaussian, Inc.),
 the Gaussian(R) 98 system (copyright 1998, Gaussian, Inc.),
 the Gaussian(R) 94 system (copyright 1995, Gaussian, Inc.),
 the Gaussian 92(TM) system (copyright 1992, Gaussian, Inc.),
 the Gaussian 90(TM) system (copyright 1990, Gaussian, Inc.),
 the Gaussian 88(TM) system (copyright 1988, Gaussian, Inc.),
 the Gaussian 86(TM) system (copyright 1986, Carnegie Mellon
 University), and the Gaussian 82(TM) system (copyright 1983,
 Carnegie Mellon University). Gaussian is a federally registered
 trademark of Gaussian, Inc.
  
 This software contains proprietary and confidential information,
 including trade secrets, belonging to Gaussian, Inc.
  
 This software is provided under written license and may be
 used, copied, transmitted, or stored only in accord with that
 written license.
  
 The following legend is applicable only to US Government
 contracts under FAR:
  
                    RESTRICTED RIGHTS LEGEND
  
 Use, reproduction and disclosure by the US Government is
 subject to restrictions as set forth in subparagraphs (a)
 and (c) of the Commercial Computer Software - Restricted
 Rights clause in FAR 52.227-19.
  
 Gaussian, Inc.
 340 Quinnipiac St., Bldg. 40, Wallingford CT 06492
  
  
 ---------------------------------------------------------------
 Warning -- This program may not be used in any manner that
 competes with the business of Gaussian, Inc. or will provide
 assistance to any competitor of Gaussian, Inc.  The licensee
 of this program is prohibited from giving any competitor of
 Gaussian, Inc. access to this program.  By using this program,
 the user acknowledges that Gaussian, Inc. is engaged in the
 business of creating and licensing software in the field of
 computational chemistry and represents and warrants to the
 licensee that it is not a competitor of Gaussian, Inc. and that
 it will not use this program in any manner prohibited above.
 ---------------------------------------------------------------
  

 Cite this work as:
 Gaussian 16, Revision A.03,
 M. J. Frisch, G. W. Trucks, H. B. Schlegel, G. E. Scuseria, 
 M. A. Robb, J. R. Cheeseman, G. Scalmani, V. Barone, 
 G. A. Petersson, H. Nakatsuji, X. Li, M. Caricato, A. V. Marenich, 
 J. Bloino, B. G. Janesko, R. Gomperts, B. Mennucci, H. P. Hratchian, 
 J. V. Ortiz, A. F. Izmaylov, J. L. Sonnenberg, D. Williams-Young, 
 F. Ding, F. Lipparini, F. Egidi, J. Goings, B. Peng, A. Petrone, 
 T. Henderson, D. Ranasinghe, V. G. Zakrzewski, J. Gao, N. Rega, 
 G. Zheng, W. Liang, M. Hada, M. Ehara, K. Toyota, R. Fukuda, 
 J. Hasegawa, M. Ishida, T. Nakajima, Y. Honda, O. Kitao, H. Nakai, 
 T. Vreven, K. Throssell, J. A. Montgomery, Jr., J. E. Peralta, 
 F. Ogliaro, M. J. Bearpark, J. J. Heyd, E. N. Brothers, K. N. Kudin, 
 V. N. Staroverov, T. A. Keith, R. Kobayashi, J. Normand, 
 K. Raghavachari, A. P. Rendell, J. C. Burant, S. S. Iyengar, 
 J. Tomasi, M. Cossi, J. M. Millam, M. Klene, C. Adamo, R. Cammi, 
 J. W. Ochterski, R. L. Martin, K. Morokuma, O. Farkas, 
 J. B. Foresman, and D. J. Fox, Gaussian, Inc., Wallingford CT, 2016.
 
 ******************************************
 Gaussian 16:  ES64L-G16RevA.03 25-Dec-2016
                19-Apr-2021 
 ******************************************
 %RWF=temp2_87613,70GB
 %nprocshared=48
 Will use up to   48 processors via shared memory.
 Default route: MaxDisk=80GB
 ----------------------------------------------------------------------
 #P M062X/GEN Integral=UltraFineGrid SCF=NoSymm Stable=(RExt, Opt) IOp(
 1/33=1)
 ----------------------------------------------------------------------
 1/33=1,38=1,172=1/1;
 2/12=2,17=6,18=5,40=1/2;
 3/5=7,11=2,25=1,30=1,74=-55,75=-5/1,2,3;
 4/9=2/1;
 5/5=2,38=5/2;
 6/7=2,8=2,9=2,10=2,28=1/1;
 8/6=1,10=90,11=11/1;
 9/8=-3,42=1,46=1/14;
 5/5=2,8=3,17=40,38=5/8(-2);
 6/7=2,8=2,9=2,10=2,28=1/1;
 99/5=1,9=1/99;
 Leave Link    1 at Mon Apr 19 08:13:36 2021, MaxMem=           0 cpu:               8.2 elap:               0.2
 (Enter /s/ls4/users/knvvv/bin/g16sse/l101.exe)
 ONIOM data not found on unit 2.
 ----------------------
 Database calculations.
 ----------------------
 TstMul:  ICh=     0
 TstMul:  Mul=     1
 TstMul:  ICh=     0
 TstMul:  Mul=     1
 Symbolic Z-matrix:
 Charge =  0 Multiplicity = 1
 P                     0.        0.       -0.94702 
 C                     0.81253  -1.40734  -0.05154 
 C                     0.81253   1.40734  -0.05154 
 C                    -1.62505   0.       -0.05154 
 H                    -2.2018    0.88348  -0.33333 
 H                    -2.2018   -0.88348  -0.33333 
 H                    -1.48338   0.        1.03388 
 H                     1.86602  -1.46508  -0.33333 
 H                     0.74169  -1.28465   1.03388 
 H                     0.33578  -2.34856  -0.33333 
 H                     0.33578   2.34856  -0.33333 
 H                     1.86602   1.46508  -0.33333 
 H                     0.74169   1.28465   1.03388 
 
 RdStrC is calling ZToCFu for IStruc=1 NZ=    13.
 PrtBox:  NBox=     2 Levels=  1 BoxLen=    8.00 SMaxX=        8.88
          Shift=            4.160808            4.438135            1.789616
 Box      1 Number                   0 centers from      1 to     12:
 Box      2 Number                   2 centers from     13 to     13:
 After GenITR:
 ITRead=  0  0  0  0  0  0  0  0  0  0  0  0  0
 MicOpt= -1 -1 -1 -1 -1 -1 -1 -1 -1 -1 -1 -1 -1
 ITRead=  0  0  0  0  0  0  0  0  0  0  0  0  0
 MicOpt= -1 -1 -1 -1 -1 -1 -1 -1 -1 -1 -1 -1 -1
 NAtoms=     13 NQM=       13 NQMF=       0 NMMI=      0 NMMIF=      0
                NMic=       0 NMicF=      0.
                    Isotopes and Nuclear Properties:
 (Nuclear quadrupole moments (NQMom) in fm**2, nuclear magnetic moments (NMagM)
  in nuclear magnetons)

  Atom         1           2           3           4           5           6           7           8           9          10
 IAtWgt=          31          12          12          12           1           1           1           1           1           1
 AtmWgt=  30.9737634  12.0000000  12.0000000  12.0000000   1.0078250   1.0078250   1.0078250   1.0078250   1.0078250   1.0078250
 NucSpn=           1           0           0           0           1           1           1           1           1           1
 AtZEff=  -0.0000000  -0.0000000  -0.0000000  -0.0000000  -0.0000000  -0.0000000  -0.0000000  -0.0000000  -0.0000000  -0.0000000
 NQMom=    0.0000000   0.0000000   0.0000000   0.0000000   0.0000000   0.0000000   0.0000000   0.0000000   0.0000000   0.0000000
 NMagM=    1.1316000   0.0000000   0.0000000   0.0000000   2.7928460   2.7928460   2.7928460   2.7928460   2.7928460   2.7928460
 AtZNuc=  15.0000000   6.0000000   6.0000000   6.0000000   1.0000000   1.0000000   1.0000000   1.0000000   1.0000000   1.0000000

  Atom        11          12          13
 IAtWgt=           1           1           1
 AtmWgt=   1.0078250   1.0078250   1.0078250
 NucSpn=           1           1           1
 AtZEff=  -0.0000000  -0.0000000  -0.0000000
 NQMom=    0.0000000   0.0000000   0.0000000
 NMagM=    2.7928460   2.7928460   2.7928460
 AtZNuc=   1.0000000   1.0000000   1.0000000
 No MM parameters found.
 Leave Link  101 at Mon Apr 19 08:13:36 2021, MaxMem=   104857600 cpu:               7.3 elap:               0.2
 (Enter /s/ls4/users/knvvv/bin/g16sse/l202.exe)
                          Input orientation:                          
 ---------------------------------------------------------------------
 Center     Atomic      Atomic             Coordinates (Angstroms)
 Number     Number       Type             X           Y           Z
 ---------------------------------------------------------------------
      1         15           0        0.000000    0.000000   -0.947024
      2          6           0        0.812527   -1.407337   -0.051543
      3          6           0        0.812527    1.407337   -0.051543
      4          6           0       -1.625053    0.000000   -0.051543
      5          1           0       -2.201805    0.883483   -0.333333
      6          1           0       -2.201805   -0.883483   -0.333333
      7          1           0       -1.483385    0.000000    1.033884
      8          1           0        1.866021   -1.465077   -0.333333
      9          1           0        0.741692   -1.284649    1.033884
     10          1           0        0.335784   -2.348560   -0.333333
     11          1           0        0.335784    2.348560   -0.333333
     12          1           0        1.866021    1.465077   -0.333333
     13          1           0        0.741692    1.284649    1.033884
 ---------------------------------------------------------------------
                    Distance matrix (angstroms):
                    1          2          3          4          5
     1  P    0.000000
     2  C    1.855447   0.000000
     3  C    1.855447   2.814675   0.000000
     4  C    1.855447   2.814675   2.814675   0.000000
     5  H    2.450531   3.796506   3.072462   1.092057   0.000000
     6  H    2.450531   3.072462   3.796506   1.092057   1.766965
     7  H    2.474758   2.903439   2.903439   1.094633   1.779312
     8  H    2.450531   1.092057   3.072462   3.796506   4.697120
     9  H    2.474758   1.094633   2.903439   2.903439   3.903108
    10  H    2.450531   1.092057   3.796506   3.072462   4.109192
    11  H    2.450531   3.796506   1.092057   3.072462   2.930155
    12  H    2.450531   3.072462   1.092057   3.796506   4.109192
    13  H    2.474758   2.903439   1.094633   2.903439   3.270228
                    6          7          8          9         10
     6  H    0.000000
     7  H    1.779312   0.000000
     8  H    4.109192   3.903108   0.000000
     9  H    3.270228   2.569298   1.779312   0.000000
    10  H    2.930155   3.270228   1.766965   1.779312   0.000000
    11  H    4.109192   3.270228   4.109192   3.903108   4.697120
    12  H    4.697120   3.903108   2.930155   3.270228   4.109192
    13  H    3.903108   2.569298   3.270228   2.569298   3.903108
                   11         12         13
    11  H    0.000000
    12  H    1.766965   0.000000
    13  H    1.779312   1.779312   0.000000
 Stoichiometry    C3H9P
 Framework group  C3V[C3(P),3SGV(CH),X(H6)]
 Deg. of freedom     7
 Full point group                 C3V     NOp   6
 Largest Abelian subgroup         CS      NOp   2
 Largest concise Abelian subgroup CS      NOp   2
                         Standard orientation:                         
 ---------------------------------------------------------------------
 Center     Atomic      Atomic             Coordinates (Angstroms)
 Number     Number       Type             X           Y           Z
 ---------------------------------------------------------------------
      1         15           0        0.000000    0.000000    0.612941
      2          6           0        1.407337   -0.812527   -0.282540
      3          6           0       -1.407337   -0.812527   -0.282540
      4          6           0        0.000000    1.625053   -0.282540
      5          1           0       -0.883483    2.201805   -0.000750
      6          1           0        0.883483    2.201805   -0.000750
      7          1           0        0.000000    1.483385   -1.367967
      8          1           0        1.465077   -1.866021   -0.000750
      9          1           0        1.284649   -0.741692   -1.367967
     10          1           0        2.348560   -0.335784   -0.000750
     11          1           0       -2.348560   -0.335784   -0.000750
     12          1           0       -1.465077   -1.866021   -0.000750
     13          1           0       -1.284649   -0.741692   -1.367967
 ---------------------------------------------------------------------
 Rotational constants (GHZ):           5.7586641           5.7586641           3.7226775
 Leave Link  202 at Mon Apr 19 08:13:36 2021, MaxMem=   104857600 cpu:              14.8 elap:               0.3
 (Enter /s/ls4/users/knvvv/bin/g16sse/l301.exe)
 General basis read from cards:  (5D, 7F)
 Centers:       5      6      7      8      9     10     11     12     13
 S 4 1.00
     Exponent=  1.9069169000D+02 Coefficients=  7.0815167000D-04
     Exponent=  2.8605532000D+01 Coefficients=  5.4678827000D-03
     Exponent=  6.5095943000D+00 Coefficients=  2.7966605000D-02
     Exponent=  1.8412455000D+00 Coefficients=  1.0764538000D-01
 S 1 1.00
     Exponent=  5.9853725000D-01 Coefficients=  1.0000000000D+00
 S 1 1.00
     Exponent=  2.1397624000D-01 Coefficients=  1.0000000000D+00
 S 1 1.00
     Exponent=  8.0316286000D-02 Coefficients=  1.0000000000D+00
 P 1 1.00
     Exponent=  2.2920000000D+00 Coefficients=  1.0000000000D+00
 P 1 1.00
     Exponent=  8.3800000000D-01 Coefficients=  1.0000000000D+00
 P 1 1.00
     Exponent=  2.9200000000D-01 Coefficients=  1.0000000000D+00
 P 1 1.00
     Exponent=  8.4063199228D-02 Coefficients=  1.0000000000D+00
 D 1 1.00
     Exponent=  2.0620000000D+00 Coefficients=  1.0000000000D+00
 D 1 1.00
     Exponent=  6.6200000000D-01 Coefficients=  1.0000000000D+00
 F 1 1.00
     Exponent=  1.3970000000D+00 Coefficients=  1.0000000000D+00
 ****
 Centers:       2      3      4
 S 8 1.00
     Exponent=  6.7025071029D+04 Coefficients=  3.8736308501D-05
     Exponent=  1.0039986538D+04 Coefficients=  3.0107917575D-04
     Exponent=  2.2849316911D+03 Coefficients=  1.5787918095D-03
     Exponent=  6.4714122130D+02 Coefficients=  6.6087087195D-03
     Exponent=  2.1109472335D+02 Coefficients=  2.3367123250D-02
     Exponent=  7.6177643862D+01 Coefficients=  7.0420716898D-02
     Exponent=  2.9633839163D+01 Coefficients=  1.7360344953D-01
     Exponent=  1.2187785081D+01 Coefficients=  3.2292305648D-01
 S 2 1.00
     Exponent=  5.3026006299D+01 Coefficients=  7.4897404492D-02
     Exponent=  1.5258502776D+01 Coefficients=  7.6136220983D-01
 S 1 1.00
     Exponent=  5.2403957464D+00 Coefficients=  1.0000000000D+00
 S 1 1.00
     Exponent=  2.2905022379D+00 Coefficients=  1.0000000000D+00
 S 1 1.00
     Exponent=  6.9673283006D-01 Coefficients=  1.0000000000D+00
 S 1 1.00
     Exponent=  2.7599337363D-01 Coefficients=  1.0000000000D+00
 S 1 1.00
     Exponent=  1.0739884389D-01 Coefficients=  1.0000000000D+00
 S 1 1.00
     Exponent=  4.4981404899D-02 Coefficients=  1.0000000000D+00
 P 5 1.00
     Exponent=  1.0512555082D+02 Coefficients=  8.4647553844D-04
     Exponent=  2.4884461066D+01 Coefficients=  6.6274038534D-03
     Exponent=  7.8637230826D+00 Coefficients=  3.0120390419D-02
     Exponent=  2.8407001835D+00 Coefficients=  9.9951435476D-02
     Exponent=  1.1227137335D+00 Coefficients=  2.3826299282D-01
 P 1 1.00
     Exponent=  4.6050725555D-01 Coefficients=  1.0000000000D+00
 P 1 1.00
     Exponent=  1.8937530913D-01 Coefficients=  1.0000000000D+00
 P 1 1.00
     Exponent=  7.5983791611D-02 Coefficients=  1.0000000000D+00
 D 1 1.00
     Exponent=  1.8480000000D+00 Coefficients=  1.0000000000D+00
 D 1 1.00
     Exponent=  6.4900000000D-01 Coefficients=  1.0000000000D+00
 D 1 1.00
     Exponent=  2.2800000000D-01 Coefficients=  1.0000000000D+00
 D 1 1.00
     Exponent=  7.6889830417D-02 Coefficients=  1.0000000000D+00
 F 1 1.00
     Exponent=  1.4190000000D+00 Coefficients=  1.0000000000D+00
 F 1 1.00
     Exponent=  4.8500000000D-01 Coefficients=  1.0000000000D+00
 G 1 1.00
     Exponent=  1.0110000000D+00 Coefficients=  1.0000000000D+00
 ****
 Centers:       1
 S 10 1.00
     Exponent=  1.0905617138D+06 Coefficients=  1.2142449664D-05
     Exponent=  1.6331639461D+05 Coefficients=  9.4395292614D-05
     Exponent=  3.7166607451D+04 Coefficients=  4.9622262177D-04
     Exponent=  1.0526880945D+04 Coefficients=  2.0900040747D-03
     Exponent=  3.4339976028D+03 Coefficients=  7.5489230025D-03
     Exponent=  1.2395360480D+03 Coefficients=  2.4010423937D-02
     Exponent=  4.8327456199D+02 Coefficients=  6.7231473697D-02
     Exponent=  2.0016911586D+02 Coefficients=  1.5978669881D-01
     Exponent=  8.6960394829D+01 Coefficients=  2.9735906782D-01
     Exponent=  3.9211283369D+01 Coefficients=  3.6187171850D-01
 S 3 1.00
     Exponent=  3.3675883662D+02 Coefficients=  1.9154721050D-02
     Exponent=  1.0372179793D+02 Coefficients=  1.7134079100D-01
     Exponent=  3.9771861240D+01 Coefficients=  6.3689655985D-01
 S 1 1.00
     Exponent=  1.7888612952D+01 Coefficients=  1.0000000000D+00
 S 1 1.00
     Exponent=  6.9644556879D+00 Coefficients=  1.0000000000D+00
 S 1 1.00
     Exponent=  3.2198092087D+00 Coefficients=  1.0000000000D+00
 S 1 1.00
     Exponent=  1.4669943979D+00 Coefficients=  1.0000000000D+00
 S 1 1.00
     Exponent=  4.7765437532D-01 Coefficients=  1.0000000000D+00
 S 1 1.00
     Exponent=  2.1637789241D-01 Coefficients=  1.0000000000D+00
 S 1 1.00
     Exponent=  9.0235894336D-02 Coefficients=  1.0000000000D+00
 S 1 1.00
     Exponent=  4.0836372978D-02 Coefficients=  1.0000000000D+00
 P 8 1.00
     Exponent=  2.0196711374D+03 Coefficients=  2.1359172406D-04
     Exponent=  4.7860125090D+02 Coefficients=  1.8568771399D-03
     Exponent=  1.5514942504D+02 Coefficients=  1.0070690115D-02
     Exponent=  5.8816356575D+01 Coefficients=  3.9605153679D-02
     Exponent=  2.4544512785D+01 Coefficients=  1.1736067844D-01
     Exponent=  1.0883571061D+01 Coefficients=  2.4950540642D-01
     Exponent=  4.9624791285D+00 Coefficients=  3.6421287984D-01
     Exponent=  2.3002912343D+00 Coefficients=  3.1764127123D-01
 P 2 1.00
     Exponent=  5.9371345016D+01 Coefficients=  3.9432918004D-01
     Exponent=  3.0694590986D+00 Coefficients= -6.3522960431D+00
 P 1 1.00
     Exponent=  1.0634401739D+00 Coefficients=  1.0000000000D+00
 P 1 1.00
     Exponent=  4.5022152161D-01 Coefficients=  1.0000000000D+00
 P 1 1.00
     Exponent=  1.8267271344D-01 Coefficients=  1.0000000000D+00
 P 1 1.00
     Exponent=  7.1610333771D-02 Coefficients=  1.0000000000D+00
 D 1 1.00
     Exponent=  3.3430000000D+00 Coefficients=  1.0000000000D+00
 D 1 1.00
     Exponent=  8.0700000000D-01 Coefficients=  1.0000000000D+00
 D 1 1.00
     Exponent=  3.6500000000D-01 Coefficients=  1.0000000000D+00
 D 1 1.00
     Exponent=  1.5400000000D-01 Coefficients=  1.0000000000D+00
 D 1 1.00
     Exponent=  5.9687731846D-02 Coefficients=  1.0000000000D+00
 F 1 1.00
     Exponent=  7.0300000000D-01 Coefficients=  1.0000000000D+00
 F 1 1.00
     Exponent=  2.8000000000D-01 Coefficients=  1.0000000000D+00
 G 1 1.00
     Exponent=  5.9700000000D-01 Coefficients=  1.0000000000D+00
 ****
 Ernie: Thresh=  0.10000D-02 Tol=  0.10000D-05 Strict=F.
 There are   373 symmetry adapted cartesian basis functions of A'  symmetry.
 There are   299 symmetry adapted cartesian basis functions of A"  symmetry.
 There are   308 symmetry adapted basis functions of A'  symmetry.
 There are   254 symmetry adapted basis functions of A"  symmetry.
   562 basis functions,   794 primitive gaussians,   672 cartesian basis functions
    21 alpha electrons       21 beta electrons
       nuclear repulsion energy       177.0298710791 Hartrees.
 IExCor= 4336 DFT=T Ex+Corr=M062X ExCW=0 ScaHFX=  0.540000
 ScaDFX=  1.000000  1.000000  1.000000  1.000000 ScalE2=  1.000000  1.000000
 IRadAn=      5 IRanWt=     -1 IRanGd=            0 ICorTp=0 IEmpDi=  4
 NAtoms=   13 NActive=   13 NUniq=    4 SFac= 4.00D+00 NAtFMM=   60 NAOKFM=F Big=F
 Integral buffers will be    131072 words long.
 Raffenetti 2 integral format.
 Two-electron integral symmetry is turned on.
 Leave Link  301 at Mon Apr 19 08:13:37 2021, MaxMem=   104857600 cpu:              11.6 elap:               0.3
 (Enter /s/ls4/users/knvvv/bin/g16sse/l302.exe)
 NPDir=0 NMtPBC=     1 NCelOv=     1 NCel=       1 NClECP=     1 NCelD=      1
         NCelK=      1 NCelE2=     1 NClLst=     1 CellRange=     0.0.
 One-electron integrals computed using PRISM.
 One-electron integral symmetry used in STVInt
 PrsmSu:  requested number of processors reduced to:   4 ShMem   1 Linda.
 PrsmSu:  requested number of processors reduced to:  19 ShMem   1 Linda.
 NBasis=   562 RedAO= T EigKep=  1.31D-06  NBF=   308   254
 NBsUse=   557 1.00D-06 EigRej=  8.72D-07 NBFU=   306   251
 Precomputing XC quadrature grid using
 IXCGrd= 4 IRadAn=           5 IRanWt=          -1 IRanGd=           0 AccXCQ= 0.00D+00.
 Generated NRdTot=       0 NPtTot=           0 NUsed=           0 NTot=          32
 NSgBfM=   672   672   672   672   672 MxSgAt=    13 MxSgA2=    13.
 Leave Link  302 at Mon Apr 19 08:14:02 2021, MaxMem=   104857600 cpu:            1191.2 elap:              25.5
 (Enter /s/ls4/users/knvvv/bin/g16sse/l303.exe)
 DipDrv:  MaxL=1.
 Leave Link  303 at Mon Apr 19 08:14:05 2021, MaxMem=   104857600 cpu:             130.1 elap:               2.8
 (Enter /s/ls4/users/knvvv/bin/g16sse/l401.exe)
 SCF N**3 symmetry information disabled.
 ExpMin= 4.08D-02 ExpMax= 1.09D+06 ExpMxC= 1.24D+03 IAcc=3 IRadAn=         5 AccDes= 0.00D+00
 Harris functional with IExCor= 1009 and IRadAn=       5 diagonalized for initial guess.
 HarFok:  IExCor= 1009 AccDes= 0.00D+00 IRadAn=         5 IDoV= 1 UseB2=F ITyADJ=14
 ICtDFT=  3500011 ScaDFX=  1.000000  1.000000  1.000000  1.000000
 FoFCou: FMM=F IPFlag=           0 FMFlag=      100000 FMFlg1=           0
         NFxFlg=           0 DoJE=T BraDBF=F KetDBF=T FulRan=T
         wScrn=  0.000000 ICntrl=       500 IOpCl=  0 I1Cent=   200000004 NGrid=           0
         NMat0=    1 NMatS0=      1 NMatT0=    0 NMatD0=    1 NMtDS0=    0 NMtDT0=    0
 Petite list used in FoFCou.
 CoulSu:  requested number of processors reduced to:  18 ShMem   1 Linda.
 CoulSu:  requested number of processors reduced to:  19 ShMem   1 Linda.
 CoulSu:  requested number of processors reduced to:  21 ShMem   1 Linda.
 CoulSu:  requested number of processors reduced to:  21 ShMem   1 Linda.
 Harris En= -461.004302098591    
 JPrj=0 DoOrth=F DoCkMO=F.
 Initial guess orbital symmetries:
       Occupied  (A1) (E) (E) (A1) (A1) (E) (E) (A1) (A1) (E) (E)
                 (A1) (A1) (E) (E) (E) (E) (A2) (E) (E) (A1)
       Virtual   (E) (E) (A1) (A1) (A1) (E) (E) (E) (E) (A1) (E)
                 (E) (E) (E) (A2) (E) (E) (A1) (A1) (E) (E) (E)
                 (E) (A1) (A1) (A2) (E) (E) (A1) (E) (E) (E) (E)
                 (A1) (E) (E) (A1) (A2) (E) (E) (A1) (E) (E) (A1)
                 (E) (E) (E) (E) (A2) (A1) (E) (E) (A1) (E) (E)
                 (E) (E) (E) (E) (A1) (A2) (E) (E) (A2) (A1) (E)
                 (E) (A1) (E) (E) (A1) (E) (E) (A2) (E) (E) (E)
                 (E) (A2) (A1) (E) (E) (E) (E) (A1) (A1) (A1) (E)
                 (E) (E) (E) (A2) (E) (E) (A1) (E) (E) (A1) (A2)
                 (E) (E) (E) (E) (A2) (E) (E) (A2) (E) (E) (E)
                 (E) (A1) (E) (E) (A1) (E) (E) (A1) (E) (E) (A2)
                 (E) (E) (A1) (A1) (E) (E) (A1) (E) (E) (A1) (E)
                 (E) (E) (E) (A2) (A1) (E) (E) (E) (E) (A2) (E)
                 (E) (A1) (A1) (E) (E) (E) (E) (A2) (A1) (E) (E)
                 (A1) (E) (E) (A1) (E) (E) (E) (E) (A2) (E) (E)
                 (A1) (A2) (A1) (E) (E) (A2) (A1) (E) (E) (E) (E)
                 (A1) (A2) (E) (E) (E) (E) (E) (E) (E) (E) (A1)
                 (E) (E) (E) (E) (A2) (E) (E) (A2) (A1) (A1) (E)
                 (E) (A1) (E) (E) (A1) (A2) (E) (E) (A2) (E) (E)
                 (E) (E) (A1) (E) (E) (A1) (A2) (E) (E) (A1) (E)
                 (E) (A2) (E) (E) (A1) (E) (E) (A1) (E) (E) (E)
                 (E) (E) (E) (E) (E) (E) (E) (A1) (A1) (A2) (A1)
                 (A2) (E) (E) (A1) (E) (E) (E) (E) (A1) (E) (E)
                 (E) (E) (A2) (E) (E) (A1) (A2) (A1) (E) (E) (E)
                 (E) (A1) (E) (E) (A2) (E) (E) (A1) (E) (E) (A2)
                 (E) (E) (A1) (A2) (E) (E) (E) (E) (A1) (E) (E)
                 (A1) (A2) (E) (E) (E) (E) (A1) (A2) (E) (E) (A1)
                 (E) (E) (A1) (E) (E) (E) (E) (A2) (A1) (E) (E)
                 (E) (E) (A2) (A1) (E) (E) (E) (E) (A2) (A1) (E)
                 (E) (E) (E) (A1) (E) (E) (A1) (E) (E) (A2) (E)
                 (E) (E) (E) (A2) (A1) (E) (E) (A2) (A1) (A2) (E)
                 (E) (E) (E) (A1) (E) (E) (A2) (E) (E) (A1) (E)
                 (E) (A2) (E) (E) (A1) (E) (E) (A2) (E) (E) (E)
                 (E) (A1) (E) (E) (A1) (A2) (A1) (E) (E) (E) (E)
                 (E) (E) (A1) (A2) (E) (E) (A1) (E) (E) (A2) (E)
                 (E) (A1) (E) (E) (A1) (A2) (E) (E) (A1) (E) (E)
                 (E) (E) (A1) (E) (E) (E) (E) (A2) (E) (E) (A1)
                 (E) (E) (A1) (A2) (E) (E) (A1) (E) (E) (E) (E)
                 (A2) (E) (E) (A1) (E) (E) (A1) (E) (E) (A2) (E)
                 (E) (E) (E) (A2) (A1) (A2) (E) (E) (A1) (E) (E)
                 (A1) (E) (E) (E) (E) (A1) (E) (E) (A2) (E) (E)
                 (A2) (A1) (E) (E) (E) (E) (A2) (E) (E) (A1) (E)
                 (E) (E) (E) (A2) (A1) (A1) (E) (E) (A1) (E) (E)
                 (A1) (E) (E) (A2) (E) (E) (A2) (E) (E) (E) (E)
                 (A1) (E) (E) (A2) (E) (E) (A1) (E) (E) (A2) (E)
                 (E) (A1) (E) (E) (A1) (A2) (E) (E) (A1) (E) (E)
                 (E) (E) (A1) (E) (E) (A2) (E) (E) (A2) (A1) (E)
                 (E) (A2) (E) (E) (A1) (E) (E) (A1) (E) (E) (A1)
                 (A1) (E) (E) (A1) (A1) (E) (E) (A1)
 The electronic state of the initial guess is 1-A1.
 Leave Link  401 at Mon Apr 19 08:14:08 2021, MaxMem=   104857600 cpu:             124.4 elap:               2.9
 (Enter /s/ls4/users/knvvv/bin/g16sse/l502.exe)
 Integral symmetry usage will be decided dynamically.
 Closed shell SCF:
 Using DIIS extrapolation, IDIIS=  1040.
 NGot=   104857600 LenX=   103914693 LenY=   103462437
 Requested convergence on RMS density matrix=1.00D-08 within 128 cycles.
 Requested convergence on MAX density matrix=1.00D-06.
 Requested convergence on             energy=1.00D-06.
 No special actions if energy rises.
 Fock matrices will be formed incrementally for  20 cycles.

 Cycle   1  Pass 1  IDiag  1:
 FoFJK:  IHMeth= 1 ICntrl=       0 DoSepK=F KAlg= 0 I1Cent=           0 FoldK=F
 IRaf= 960000000 NMat=       1 IRICut=       1 DoRegI=T DoRafI=F ISym2E= 1 IDoP0=0 IntGTp=1.
 FoFCou: FMM=F IPFlag=           0 FMFlag=      100000 FMFlg1=           0
         NFxFlg=           0 DoJE=F BraDBF=F KetDBF=F FulRan=T
         wScrn=  0.000000 ICntrl=         0 IOpCl=  0 I1Cent=           0 NGrid=           0
         NMat0=    1 NMatS0=      1 NMatT0=    0 NMatD0=    1 NMtDS0=    0 NMtDT0=    0
 Petite list used in FoFCou.
 CoulSu:  requested number of processors reduced to:  19 ShMem   1 Linda.
 E= -460.808454337040    
 DIIS: error= 3.95D-02 at cycle   1 NSaved=   1.
 NSaved= 1 IEnMin= 1 EnMin= -460.808454337040     IErMin= 1 ErrMin= 3.95D-02
 ErrMax= 3.95D-02  0.00D+00 EMaxC= 1.00D-01 BMatC= 3.89D-01 BMatP= 3.89D-01
 IDIUse=3 WtCom= 6.05D-01 WtEn= 3.95D-01
 Coeff-Com:  0.100D+01
 Coeff-En:   0.100D+01
 Coeff:      0.100D+01
 Gap=     0.355 Goal=   None    Shift=    0.000
 GapD=    0.355 DampG=1.000 DampE=0.500 DampFc=0.5000 IDamp=-1.
 Damping current iteration by 5.00D-01
 RMSDP=2.23D-03 MaxDP=1.24D-01              OVMax= 2.04D-01

 Cycle   2  Pass 1  IDiag  1:
 RMSU=  1.11D-03    CP:  9.72D-01
 CoulSu:  requested number of processors reduced to:  19 ShMem   1 Linda.
 E= -460.952980977609     Delta-E=       -0.144526640569 Rises=F Damp=T
 DIIS: error= 1.56D-02 at cycle   2 NSaved=   2.
 NSaved= 2 IEnMin= 2 EnMin= -460.952980977609     IErMin= 2 ErrMin= 1.56D-02
 ErrMax= 1.56D-02  0.00D+00 EMaxC= 1.00D-01 BMatC= 3.12D-02 BMatP= 3.89D-01
 IDIUse=3 WtCom= 8.44D-01 WtEn= 1.56D-01
 Coeff-Com: -0.116D+00 0.112D+01
 Coeff-En:   0.000D+00 0.100D+01
 Coeff:     -0.978D-01 0.110D+01
 Gap=     0.291 Goal=   None    Shift=    0.000
 RMSDP=1.24D-03 MaxDP=7.33D-02 DE=-1.45D-01 OVMax= 1.13D-01

 Cycle   3  Pass 1  IDiag  1:
 RMSU=  1.02D-03    CP:  9.63D-01  1.64D+00
 CoulSu:  requested number of processors reduced to:  19 ShMem   1 Linda.
 E= -461.088440695662     Delta-E=       -0.135459718053 Rises=F Damp=F
 DIIS: error= 3.20D-03 at cycle   3 NSaved=   3.
 NSaved= 3 IEnMin= 3 EnMin= -461.088440695662     IErMin= 3 ErrMin= 3.20D-03
 ErrMax= 3.20D-03  0.00D+00 EMaxC= 1.00D-01 BMatC= 2.03D-03 BMatP= 3.12D-02
 IDIUse=3 WtCom= 9.68D-01 WtEn= 3.20D-02
 Coeff-Com: -0.606D-01 0.184D+00 0.877D+00
 Coeff-En:   0.000D+00 0.000D+00 0.100D+01
 Coeff:     -0.587D-01 0.178D+00 0.881D+00
 Gap=     0.288 Goal=   None    Shift=    0.000
 RMSDP=1.34D-04 MaxDP=1.52D-02 DE=-1.35D-01 OVMax= 1.49D-02

 Cycle   4  Pass 1  IDiag  1:
 RMSU=  1.11D-04    CP:  9.58D-01  1.70D+00  9.58D-01
 CoulSu:  requested number of processors reduced to:  19 ShMem   1 Linda.
 E= -461.090225897406     Delta-E=       -0.001785201744 Rises=F Damp=F
 DIIS: error= 1.03D-03 at cycle   4 NSaved=   4.
 NSaved= 4 IEnMin= 4 EnMin= -461.090225897406     IErMin= 4 ErrMin= 1.03D-03
 ErrMax= 1.03D-03  0.00D+00 EMaxC= 1.00D-01 BMatC= 1.90D-04 BMatP= 2.03D-03
 IDIUse=3 WtCom= 9.90D-01 WtEn= 1.03D-02
 Coeff-Com: -0.115D-01 0.286D-01 0.283D+00 0.700D+00
 Coeff-En:   0.000D+00 0.000D+00 0.000D+00 0.100D+01
 Coeff:     -0.114D-01 0.283D-01 0.280D+00 0.703D+00
 Gap=     0.286 Goal=   None    Shift=    0.000
 RMSDP=2.97D-05 MaxDP=1.35D-03 DE=-1.79D-03 OVMax= 4.54D-03

 Cycle   5  Pass 1  IDiag  1:
 RMSU=  2.91D-05    CP:  9.58D-01  1.70D+00  9.56D-01  1.01D+00
 CoulSu:  requested number of processors reduced to:  19 ShMem   1 Linda.
 E= -461.090402433910     Delta-E=       -0.000176536505 Rises=F Damp=F
 DIIS: error= 1.21D-04 at cycle   5 NSaved=   5.
 NSaved= 5 IEnMin= 5 EnMin= -461.090402433910     IErMin= 5 ErrMin= 1.21D-04
 ErrMax= 1.21D-04  0.00D+00 EMaxC= 1.00D-01 BMatC= 3.06D-06 BMatP= 1.90D-04
 IDIUse=3 WtCom= 9.99D-01 WtEn= 1.21D-03
 Coeff-Com:  0.316D-02-0.646D-02-0.136D-01 0.656D-01 0.951D+00
 Coeff-En:   0.000D+00 0.000D+00 0.000D+00 0.000D+00 0.100D+01
 Coeff:      0.316D-02-0.645D-02-0.136D-01 0.655D-01 0.951D+00
 Gap=     0.286 Goal=   None    Shift=    0.000
 DSYEVD-2 returned Info=        1115 IAlg= 4 N=   557 NDim=   557 NE2=      185748 trying  DSYEV.
 RMSDP=7.23D-06 MaxDP=7.81D-04 DE=-1.77D-04 OVMax= 7.20D-04

 Cycle   6  Pass 1  IDiag  1:
 RMSU=  5.28D-06    CP:  9.58D-01  1.70D+00  9.56D-01  1.05D+00  1.06D+00
 CoulSu:  requested number of processors reduced to:  19 ShMem   1 Linda.
 E= -461.090405724371     Delta-E=       -0.000003290461 Rises=F Damp=F
 DIIS: error= 2.39D-05 at cycle   6 NSaved=   6.
 NSaved= 6 IEnMin= 6 EnMin= -461.090405724371     IErMin= 6 ErrMin= 2.39D-05
 ErrMax= 2.39D-05  0.00D+00 EMaxC= 1.00D-01 BMatC= 8.67D-08 BMatP= 3.06D-06
 IDIUse=1 WtCom= 1.00D+00 WtEn= 0.00D+00
 Coeff-Com:  0.659D-03-0.163D-02-0.815D-02-0.701D-02 0.128D+00 0.888D+00
 Coeff:      0.659D-03-0.163D-02-0.815D-02-0.701D-02 0.128D+00 0.888D+00
 Gap=     0.286 Goal=   None    Shift=    0.000
 RMSDP=2.30D-06 MaxDP=1.80D-04 DE=-3.29D-06 OVMax= 2.54D-04

 Cycle   7  Pass 1  IDiag  1:
 RMSU=  1.54D-06    CP:  9.58D-01  1.70D+00  9.57D-01  1.06D+00  1.07D+00
                    CP:  1.13D+00
 CoulSu:  requested number of processors reduced to:  19 ShMem   1 Linda.
 E= -461.090405853567     Delta-E=       -0.000000129196 Rises=F Damp=F
 DIIS: error= 1.03D-05 at cycle   7 NSaved=   7.
 NSaved= 7 IEnMin= 7 EnMin= -461.090405853567     IErMin= 7 ErrMin= 1.03D-05
 ErrMax= 1.03D-05  0.00D+00 EMaxC= 1.00D-01 BMatC= 1.77D-08 BMatP= 8.67D-08
 IDIUse=1 WtCom= 1.00D+00 WtEn= 0.00D+00
 Coeff-Com:  0.568D-04-0.214D-03-0.215D-02-0.400D-02-0.845D-02 0.254D+00
 Coeff-Com:  0.760D+00
 Coeff:      0.568D-04-0.214D-03-0.215D-02-0.400D-02-0.845D-02 0.254D+00
 Coeff:      0.760D+00
 Gap=     0.286 Goal=   None    Shift=    0.000
 RMSDP=8.55D-07 MaxDP=8.59D-05 DE=-1.29D-07 OVMax= 8.30D-05

 Cycle   8  Pass 1  IDiag  1:
 RMSU=  4.72D-07    CP:  9.58D-01  1.70D+00  9.57D-01  1.05D+00  1.07D+00
                    CP:  1.21D+00  1.12D+00
 CoulSu:  requested number of processors reduced to:  19 ShMem   1 Linda.
 E= -461.090405875029     Delta-E=       -0.000000021462 Rises=F Damp=F
 DIIS: error= 3.07D-06 at cycle   8 NSaved=   8.
 NSaved= 8 IEnMin= 8 EnMin= -461.090405875029     IErMin= 8 ErrMin= 3.07D-06
 ErrMax= 3.07D-06  0.00D+00 EMaxC= 1.00D-01 BMatC= 1.53D-09 BMatP= 1.77D-08
 IDIUse=1 WtCom= 1.00D+00 WtEn= 0.00D+00
 Coeff-Com: -0.843D-04 0.182D-03 0.567D-03 0.412D-03-0.230D-01-0.597D-01
 Coeff-Com:  0.167D+00 0.915D+00
 Coeff:     -0.843D-04 0.182D-03 0.567D-03 0.412D-03-0.230D-01-0.597D-01
 Coeff:      0.167D+00 0.915D+00
 Gap=     0.286 Goal=   None    Shift=    0.000
 DSYEVD-2 returned Info=      156239 IAlg= 4 N=   557 NDim=   557 NE2=      185748 trying  DSYEV.
 RMSDP=2.60D-07 MaxDP=2.23D-05 DE=-2.15D-08 OVMax= 3.80D-05

 Cycle   9  Pass 1  IDiag  1:
 RMSU=  1.18D-07    CP:  9.58D-01  1.70D+00  9.57D-01  1.05D+00  1.07D+00
                    CP:  1.23D+00  1.21D+00  1.26D+00
 CoulSu:  requested number of processors reduced to:  19 ShMem   1 Linda.
 E= -461.090405877377     Delta-E=       -0.000000002348 Rises=F Damp=F
 DIIS: error= 3.34D-07 at cycle   9 NSaved=   9.
 NSaved= 9 IEnMin= 9 EnMin= -461.090405877377     IErMin= 9 ErrMin= 3.34D-07
 ErrMax= 3.34D-07  0.00D+00 EMaxC= 1.00D-01 BMatC= 1.79D-11 BMatP= 1.53D-09
 IDIUse=1 WtCom= 1.00D+00 WtEn= 0.00D+00
 Coeff-Com:  0.940D-06 0.520D-05-0.109D-04-0.144D-04-0.110D-02-0.546D-02
 Coeff-Com: -0.565D-02 0.249D-01 0.987D+00
 Coeff:      0.940D-06 0.520D-05-0.109D-04-0.144D-04-0.110D-02-0.546D-02
 Coeff:     -0.565D-02 0.249D-01 0.987D+00
 Gap=     0.286 Goal=   None    Shift=    0.000
 DSYEVD-2 returned Info=        1115 IAlg= 4 N=   557 NDim=   557 NE2=      185748 trying  DSYEV.
 RMSDP=5.41D-08 MaxDP=4.76D-06 DE=-2.35D-09 OVMax= 4.84D-06

 Cycle  10  Pass 1  IDiag  1:
 RMSU=  2.27D-08    CP:  9.58D-01  1.70D+00  9.57D-01  1.05D+00  1.07D+00
                    CP:  1.24D+00  1.21D+00  1.33D+00  1.21D+00
 CoulSu:  requested number of processors reduced to:  19 ShMem   1 Linda.
 E= -461.090405877403     Delta-E=       -0.000000000026 Rises=F Damp=F
 DIIS: error= 7.12D-08 at cycle  10 NSaved=  10.
 NSaved=10 IEnMin=10 EnMin= -461.090405877403     IErMin=10 ErrMin= 7.12D-08
 ErrMax= 7.12D-08  0.00D+00 EMaxC= 1.00D-01 BMatC= 9.37D-13 BMatP= 1.79D-11
 IDIUse=1 WtCom= 1.00D+00 WtEn= 0.00D+00
 Coeff-Com:  0.420D-05-0.788D-05-0.274D-04 0.104D-04 0.111D-02 0.171D-02
 Coeff-Com: -0.746D-02-0.462D-01 0.945D-01 0.956D+00
 Coeff:      0.420D-05-0.788D-05-0.274D-04 0.104D-04 0.111D-02 0.171D-02
 Coeff:     -0.746D-02-0.462D-01 0.945D-01 0.956D+00
 Gap=     0.286 Goal=   None    Shift=    0.000
 RMSDP=1.27D-08 MaxDP=1.64D-06 DE=-2.61D-11 OVMax= 1.01D-06

 Cycle  11  Pass 1  IDiag  1:
 RMSU=  3.20D-09    CP:  9.58D-01  1.70D+00  9.57D-01  1.05D+00  1.07D+00
                    CP:  1.24D+00  1.21D+00  1.35D+00  1.27D+00  1.23D+00
 CoulSu:  requested number of processors reduced to:  19 ShMem   1 Linda.
 E= -461.090405877382     Delta-E=        0.000000000021 Rises=F Damp=F
 DIIS: error= 9.01D-09 at cycle  11 NSaved=  11.
 NSaved=11 IEnMin=10 EnMin= -461.090405877403     IErMin=11 ErrMin= 9.01D-09
 ErrMax= 9.01D-09  0.00D+00 EMaxC= 1.00D-01 BMatC= 2.11D-14 BMatP= 9.37D-13
 IDIUse=1 WtCom= 1.00D+00 WtEn= 0.00D+00
 Coeff-Com:  0.131D-06-0.494D-06 0.170D-05 0.106D-04 0.115D-03 0.563D-04
 Coeff-Com: -0.560D-03-0.251D-02-0.145D-01 0.589D-01 0.958D+00
 Coeff:      0.131D-06-0.494D-06 0.170D-05 0.106D-04 0.115D-03 0.563D-04
 Coeff:     -0.560D-03-0.251D-02-0.145D-01 0.589D-01 0.958D+00
 Gap=     0.286 Goal=   None    Shift=    0.000
 RMSDP=2.60D-09 MaxDP=4.15D-07 DE= 2.11D-11 OVMax= 1.42D-07

 SCF Done:  E(RM062X) =  -461.090405877     A.U. after   11 cycles
            NFock= 11  Conv=0.26D-08     -V/T= 2.0027
 KE= 4.598550775920D+02 PE=-1.443048333255D+03 EE= 3.450729787062D+02
 Leave Link  502 at Mon Apr 19 08:15:42 2021, MaxMem=   104857600 cpu:            3314.5 elap:              93.8
 (Enter /s/ls4/users/knvvv/bin/g16sse/l601.exe)
 Copying SCF densities to generalized density rwf, IOpCl= 0 IROHF=0.

 **********************************************************************

            Population analysis using the SCF density.

 **********************************************************************

 Orbital symmetries:
       Occupied  (A1) (E) (E) (A1) (A1) (E) (E) (A1) (A1) (E) (E)
                 (A1) (A1) (E) (E) (E) (E) (A2) (E) (E) (A1)
       Virtual   (A1) (E) (E) (A1) (A1) (E) (E) (E) (E) (A1) (E)
                 (E) (E) (E) (A2) (A1) (E) (E) (E) (E) (A1) (A1)
                 (E) (E) (A2) (A1) (E) (E) (E) (E) (A1) (E) (E)
                 (A1) (E) (E) (A1) (E) (E) (A1) (A2) (E) (E) (E)
                 (E) (A2) (E) (E) (A1) (E) (E) (E) (E) (A1) (A1)
                 (A2) (A1) (E) (E) (E) (E) (E) (E) (A1) (E) (E)
                 (A2) (E) (E) (E) (E) (A2) (A1) (E) (E) (A1) (E)
                 (E) (A2) (A1) (E) (E) (A1) (A1) (E) (E) (E) (E)
                 (A1) (E) (E) (A2) (E) (E) (A1) (E) (E) (A2) (A1)
                 (E) (E) (E) (E) (E) (E) (A2) (A2) (E) (E) (E)
                 (E) (A1) (A1) (E) (E) (E) (E) (A1) (E) (E) (A1)
                 (E) (E) (A2) (A1) (E) (E) (A1) (E) (E) (A1) (E)
                 (E) (A2) (E) (E) (A1) (E) (E) (E) (E) (E) (E)
                 (A2) (A1) (A1) (E) (E) (E) (E) (A2) (A1) (A1)
                 (E) (E) (E) (E) (A1) (E) (E) (E) (E) (A2) (E)
                 (E) (A1) (A2) (A1) (E) (E) (A2) (A1) (E) (E) (A1)
                 (E) (E) (A2) (E) (E) (E) (E) (E) (E) (E) (E) (E)
                 (E) (A1) (A2) (E) (E) (E) (E) (A1) (A2) (A1) (E)
                 (E) (A1) (E) (E) (A1) (A2) (E) (E) (A2) (E) (E)
                 (A1) (E) (E) (E) (E) (A1) (A2) (A1) (E) (E) (E)
                 (E) (A2) (E) (E) (A1) (E) (E) (A1) (E) (E) (E)
                 (E) (E) (E) (E) (E) (A1) (E) (E) (A1) (A2) (A1)
                 (E) (E) (A2) (E) (E) (A1) (A1) (E) (E) (E) (E)
                 (E) (E) (A2) (E) (E) (A1) (A2) (A1) (E) (E) (E)
                 (E) (A1) (A2) (E) (E) (E) (E) (E) (E) (A2) (A1)
                 (E) (E) (A1) (A2) (E) (E) (A1) (E) (E) (E) (E)
                 (A1) (E) (E) (A2) (E) (E) (A1) (A2) (E) (E) (A1)
                 (E) (E) (A1) (E) (E) (E) (E) (A2) (A1) (E) (E)
                 (E) (E) (A2) (A1) (E) (E) (E) (E) (A2) (A1) (E)
                 (E) (E) (E) (E) (E) (A1) (A2) (E) (E) (A1) (E)
                 (E) (A2) (E) (E) (A1) (A2) (E) (E) (A1) (E) (E)
                 (A2) (E) (E) (A1) (E) (E) (A2) (E) (E) (A1) (E)
                 (E) (A2) (E) (E) (A1) (E) (E) (A2) (E) (E) (E)
                 (E) (A1) (E) (E) (A1) (A2) (A1) (E) (E) (A1) (E)
                 (E) (E) (E) (E) (E) (A2) (A1) (E) (E) (A2) (A1)
                 (E) (E) (A2) (E) (E) (A1) (E) (E) (A1) (E) (E)
                 (E) (E) (A1) (A2) (E) (E) (E) (E) (A1) (E) (E)
                 (E) (E) (A2) (A1) (E) (E) (E) (E) (A1) (A2) (E)
                 (E) (E) (E) (A1) (E) (E) (E) (E) (A1) (A2) (E)
                 (E) (E) (E) (A2) (A1) (A2) (E) (E) (A1) (E) (E)
                 (A1) (E) (E) (A1) (E) (E) (E) (E) (A2) (E) (E)
                 (A2) (A1) (E) (E) (E) (E) (E) (E) (A2) (E) (E)
                 (A1) (A2) (A1) (E) (E) (A1) (E) (E) (A1) (E) (E)
                 (A1) (E) (E) (A2) (E) (E) (A2) (E) (E) (E) (E)
                 (A1) (E) (E) (A2) (A1) (E) (E) (E) (E) (E) (E)
                 (A2) (A1) (E) (E) (A1) (E) (E) (A2) (A1) (E) (E)
                 (A1) (E) (E) (E) (E) (A2) (E) (E) (A2) (A1) (E)
                 (E) (A2) (E) (E) (A1) (E) (E) (A1) (E) (E) (A1)
                 (A1) (E) (E) (A1) (A1) (E) (E) (A1)
 The electronic state is 1-A1.
 Alpha  occ. eigenvalues --  -78.01679 -10.53182 -10.53182 -10.53181  -6.83148
 Alpha  occ. eigenvalues --   -4.94839  -4.94839  -4.94590  -0.85189  -0.77717
 Alpha  occ. eigenvalues --   -0.77717  -0.60061  -0.50588  -0.49068  -0.49068
 Alpha  occ. eigenvalues --   -0.46105  -0.46105  -0.44845  -0.37726  -0.37726
 Alpha  occ. eigenvalues --   -0.27560
 Alpha virt. eigenvalues --    0.01043   0.02457   0.02457   0.04036   0.07593
 Alpha virt. eigenvalues --    0.07636   0.07636   0.08062   0.08062   0.10695
 Alpha virt. eigenvalues --    0.10901   0.10901   0.13324   0.13324   0.13407
 Alpha virt. eigenvalues --    0.13954   0.14432   0.14432   0.17256   0.17256
 Alpha virt. eigenvalues --    0.18327   0.19560   0.20456   0.20456   0.21509
 Alpha virt. eigenvalues --    0.22366   0.23244   0.23244   0.23955   0.23955
 Alpha virt. eigenvalues --    0.24634   0.26348   0.26348   0.26412   0.27943
 Alpha virt. eigenvalues --    0.27943   0.28653   0.28711   0.28711   0.31112
 Alpha virt. eigenvalues --    0.31356   0.31836   0.31836   0.33396   0.33396
 Alpha virt. eigenvalues --    0.34349   0.34632   0.34632   0.35322   0.36253
 Alpha virt. eigenvalues --    0.36253   0.36845   0.36845   0.36995   0.38340
 Alpha virt. eigenvalues --    0.39027   0.40123   0.40949   0.40949   0.42540
 Alpha virt. eigenvalues --    0.42540   0.44955   0.44955   0.45017   0.45273
 Alpha virt. eigenvalues --    0.45273   0.47036   0.49324   0.49324   0.49571
 Alpha virt. eigenvalues --    0.49571   0.50979   0.52345   0.55750   0.55750
 Alpha virt. eigenvalues --    0.56390   0.56640   0.56640   0.56906   0.58820
 Alpha virt. eigenvalues --    0.61792   0.61792   0.63228   0.64352   0.65406
 Alpha virt. eigenvalues --    0.65406   0.67805   0.67805   0.70426   0.72048
 Alpha virt. eigenvalues --    0.72048   0.74162   0.78008   0.78008   0.78535
 Alpha virt. eigenvalues --    0.81207   0.81207   0.84537   0.84956   0.85098
 Alpha virt. eigenvalues --    0.85098   0.88954   0.88954   0.91251   0.91251
 Alpha virt. eigenvalues --    0.91501   0.96547   0.97031   0.97031   0.98387
 Alpha virt. eigenvalues --    0.98387   0.98789   0.99367   1.01883   1.01883
 Alpha virt. eigenvalues --    1.03318   1.03318   1.04295   1.05650   1.05650
 Alpha virt. eigenvalues --    1.09939   1.11459   1.11459   1.12441   1.12753
 Alpha virt. eigenvalues --    1.14326   1.14326   1.18144   1.21152   1.21152
 Alpha virt. eigenvalues --    1.22889   1.26692   1.26692   1.27605   1.28309
 Alpha virt. eigenvalues --    1.28309   1.29642   1.34572   1.34572   1.35775
 Alpha virt. eigenvalues --    1.35775   1.39137   1.39137   1.39952   1.43185
 Alpha virt. eigenvalues --    1.44081   1.44359   1.44359   1.47973   1.47973
 Alpha virt. eigenvalues --    1.48580   1.48952   1.52469   1.53880   1.53880
 Alpha virt. eigenvalues --    1.58428   1.58428   1.64361   1.66093   1.66093
 Alpha virt. eigenvalues --    1.72673   1.72673   1.74480   1.86277   1.86277
 Alpha virt. eigenvalues --    1.90095   1.93307   1.94987   1.97534   1.97534
 Alpha virt. eigenvalues --    2.01140   2.02480   2.05069   2.05069   2.07366
 Alpha virt. eigenvalues --    2.07403   2.07403   2.08304   2.08681   2.08681
 Alpha virt. eigenvalues --    2.10345   2.10345   2.12269   2.12269   2.18562
 Alpha virt. eigenvalues --    2.18562   2.20230   2.20230   2.21360   2.24601
 Alpha virt. eigenvalues --    2.25525   2.25525   2.26100   2.26100   2.28610
 Alpha virt. eigenvalues --    2.29271   2.30075   2.31470   2.31470   2.33748
 Alpha virt. eigenvalues --    2.34857   2.34857   2.37077   2.38358   2.42955
 Alpha virt. eigenvalues --    2.42955   2.43161   2.45558   2.45558   2.52870
 Alpha virt. eigenvalues --    2.53455   2.53455   2.55658   2.55658   2.57662
 Alpha virt. eigenvalues --    2.63121   2.68491   2.68735   2.68735   2.70150
 Alpha virt. eigenvalues --    2.70150   2.76348   2.77198   2.77198   2.77649
 Alpha virt. eigenvalues --    2.78497   2.78497   2.83879   2.84421   2.84421
 Alpha virt. eigenvalues --    2.85467   2.85467   2.87884   2.87884   2.90327
 Alpha virt. eigenvalues --    2.90327   2.93834   2.94897   2.94897   2.98172
 Alpha virt. eigenvalues --    2.99754   3.00761   3.02321   3.02321   3.03592
 Alpha virt. eigenvalues --    3.04402   3.04402   3.04976   3.08387   3.08894
 Alpha virt. eigenvalues --    3.08894   3.12280   3.12280   3.18027   3.18027
 Alpha virt. eigenvalues --    3.18044   3.23809   3.23809   3.26365   3.27807
 Alpha virt. eigenvalues --    3.31781   3.33216   3.33216   3.38513   3.38513
 Alpha virt. eigenvalues --    3.39335   3.40469   3.41020   3.41020   3.44739
 Alpha virt. eigenvalues --    3.44739   3.49376   3.49376   3.51488   3.52206
 Alpha virt. eigenvalues --    3.55316   3.55316   3.57215   3.57804   3.58607
 Alpha virt. eigenvalues --    3.58607   3.70925   3.72790   3.72790   3.78722
 Alpha virt. eigenvalues --    3.78722   3.81649   3.82773   3.82773   3.85039
 Alpha virt. eigenvalues --    3.92271   3.92271   3.94421   3.96068   3.96505
 Alpha virt. eigenvalues --    3.96505   3.97264   4.03820   4.03820   4.27983
 Alpha virt. eigenvalues --    4.31511   4.31511   4.36469   4.36469   4.44693
 Alpha virt. eigenvalues --    4.62592   4.67357   4.67357   5.18535   5.18535
 Alpha virt. eigenvalues --    5.18580   5.25390   5.28671   5.28671   5.39325
 Alpha virt. eigenvalues --    5.39325   5.43135   5.45820   5.47750   5.47750
 Alpha virt. eigenvalues --    5.63921   5.63921   5.66416   5.66416   5.67473
 Alpha virt. eigenvalues --    5.69015   5.69175   5.69175   5.71195   5.73649
 Alpha virt. eigenvalues --    5.73649   5.74903   5.75857   5.75857   5.77625
 Alpha virt. eigenvalues --    5.80393   5.81911   5.81911   5.84514   5.86228
 Alpha virt. eigenvalues --    5.86228   5.86984   5.88847   5.88847   5.89183
 Alpha virt. eigenvalues --    5.93439   5.93439   5.94251   5.99086   5.99086
 Alpha virt. eigenvalues --    6.05455   6.06119   6.06119   6.11815   6.14034
 Alpha virt. eigenvalues --    6.14034   6.17398   6.18711   6.18711   6.22533
 Alpha virt. eigenvalues --    6.24498   6.24498   6.27293   6.27293   6.30147
 Alpha virt. eigenvalues --    6.30254   6.30254   6.37176   6.37355   6.43566
 Alpha virt. eigenvalues --    6.44191   6.44191   6.47656   6.48200   6.48200
 Alpha virt. eigenvalues --    6.49911   6.49911   6.52718   6.52718   6.54759
 Alpha virt. eigenvalues --    6.62821   6.66604   6.66604   6.71041   6.75641
 Alpha virt. eigenvalues --    6.75959   6.75959   6.87246   6.87257   6.87257
 Alpha virt. eigenvalues --    6.90201   6.91784   6.91784   7.06809   7.09555
 Alpha virt. eigenvalues --    7.09555   7.16682   7.16682   7.16998   7.22402
 Alpha virt. eigenvalues --    7.24124   7.24124   7.24995   7.24995   7.25767
 Alpha virt. eigenvalues --    7.27819   7.27819   7.31483   7.31483   7.39264
 Alpha virt. eigenvalues --    7.39678   7.45076   7.45076   7.47599   7.47599
 Alpha virt. eigenvalues --    7.50438   7.51706   7.53697   7.53697   7.56940
 Alpha virt. eigenvalues --    7.56940   7.59865   7.61628   7.61628   7.63495
 Alpha virt. eigenvalues --    7.63495   7.63557   7.66389   7.67800   7.67800
 Alpha virt. eigenvalues --    7.70033   7.70033   7.72842   7.75249   7.75428
 Alpha virt. eigenvalues --    7.79389   7.79389   7.80084   7.89443   7.89443
 Alpha virt. eigenvalues --    8.02275   8.11682   8.11682   8.13069   8.13093
 Alpha virt. eigenvalues --    8.13093   8.14145   8.14145   8.16431   8.17139
 Alpha virt. eigenvalues --    8.17139   8.18937   8.20783   8.21478   8.21478
 Alpha virt. eigenvalues --    8.25719   8.25719   8.25911   8.25911   8.27637
 Alpha virt. eigenvalues --    8.29200   8.29200   8.29583   8.33320   8.34626
 Alpha virt. eigenvalues --    8.34906   8.34906   8.36841   8.38358   8.38358
 Alpha virt. eigenvalues --    8.51897   8.55795   8.55795   8.66266   8.67769
 Alpha virt. eigenvalues --    8.67769   8.68470   8.71484   8.71484   8.71693
 Alpha virt. eigenvalues --    8.73292   8.73292   8.77229   8.77229   8.77465
 Alpha virt. eigenvalues --    8.81635   8.81635   8.85794   9.54097   9.54851
 Alpha virt. eigenvalues --    9.54851   9.57764   9.57764   9.59212   9.59212
 Alpha virt. eigenvalues --    9.59414   9.61128   9.62014   9.62014   9.67032
 Alpha virt. eigenvalues --    9.70746   9.70746   9.72332   9.86405   9.89789
 Alpha virt. eigenvalues --    9.89789   9.95910   9.95969   9.95969  10.04001
 Alpha virt. eigenvalues --   10.04001  10.12078  10.26030  10.26030  10.37212
 Alpha virt. eigenvalues --   11.80297  11.84254  11.84254  11.91116  11.93501
 Alpha virt. eigenvalues --   11.93501  12.87821  12.95414  12.95414  18.47955
 Alpha virt. eigenvalues --   18.76606  18.76606  20.89690  29.03563  29.04780
 Alpha virt. eigenvalues --   29.04780  71.28478 146.53927 146.54704 146.54704
 Alpha virt. eigenvalues --  381.62623
          Condensed to atoms (all electrons):
               1          2          3          4          5          6
     1  P   14.403443   0.245785   0.245785   0.245785  -0.118782  -0.118782
     2  C    0.245785   5.993100  -0.066850  -0.066850   0.018891   0.032418
     3  C    0.245785  -0.066850   5.993100  -0.066850   0.032418   0.018891
     4  C    0.245785  -0.066850  -0.066850   5.993100   0.414909   0.414909
     5  H   -0.118782   0.018891   0.032418   0.414909   0.488321   0.035784
     6  H   -0.118782   0.032418   0.018891   0.414909   0.035784   0.488321
     7  H    0.048953  -0.084908  -0.084908   0.167261  -0.089764  -0.089764
     8  H   -0.118782   0.414909   0.032418   0.018891   0.003774   0.008134
     9  H    0.048953   0.167261  -0.084908  -0.084908  -0.017233  -0.026202
    10  H   -0.118782   0.414909   0.018891   0.032418   0.008134   0.020162
    11  H   -0.118782   0.018891   0.414909   0.032418   0.020162   0.008134
    12  H   -0.118782   0.032418   0.414909   0.018891   0.008134   0.003774
    13  H    0.048953  -0.084908   0.167261  -0.084908  -0.026202  -0.017233
               7          8          9         10         11         12
     1  P    0.048953  -0.118782   0.048953  -0.118782  -0.118782  -0.118782
     2  C   -0.084908   0.414909   0.167261   0.414909   0.018891   0.032418
     3  C   -0.084908   0.032418  -0.084908   0.018891   0.414909   0.414909
     4  C    0.167261   0.018891  -0.084908   0.032418   0.032418   0.018891
     5  H   -0.089764   0.003774  -0.017233   0.008134   0.020162   0.008134
     6  H   -0.089764   0.008134  -0.026202   0.020162   0.008134   0.003774
     7  H    0.630200  -0.017233   0.069660  -0.026202  -0.026202  -0.017233
     8  H   -0.017233   0.488321  -0.089764   0.035784   0.008134   0.020162
     9  H    0.069660  -0.089764   0.630200  -0.089764  -0.017233  -0.026202
    10  H   -0.026202   0.035784  -0.089764   0.488321   0.003774   0.008134
    11  H   -0.026202   0.008134  -0.017233   0.003774   0.488321   0.035784
    12  H   -0.017233   0.020162  -0.026202   0.008134   0.035784   0.488321
    13  H    0.069660  -0.026202   0.069660  -0.017233  -0.089764  -0.089764
              13
     1  P    0.048953
     2  C   -0.084908
     3  C    0.167261
     4  C   -0.084908
     5  H   -0.026202
     6  H   -0.017233
     7  H    0.069660
     8  H   -0.026202
     9  H    0.069660
    10  H   -0.017233
    11  H   -0.089764
    12  H   -0.089764
    13  H    0.630200
 Mulliken charges:
               1
     1  P    0.425036
     2  C   -1.035067
     3  C   -1.035067
     4  C   -1.035067
     5  H    0.221454
     6  H    0.221454
     7  H    0.450480
     8  H    0.221454
     9  H    0.450480
    10  H    0.221454
    11  H    0.221454
    12  H    0.221454
    13  H    0.450480
 Sum of Mulliken charges =  -0.00000
 Mulliken charges with hydrogens summed into heavy atoms:
               1
     1  P    0.425036
     2  C   -0.141679
     3  C   -0.141679
     4  C   -0.141679
 Electronic spatial extent (au):  <R**2>=            438.0820
 Charge=             -0.0000 electrons
 Dipole moment (field-independent basis, Debye):
    X=             -0.0000    Y=             -0.0000    Z=             -1.1909  Tot=              1.1909
 Quadrupole moment (field-independent basis, Debye-Ang):
   XX=            -33.8831   YY=            -33.8831   ZZ=            -38.3005
   XY=             -0.0000   XZ=              0.0000   YZ=             -0.0000
 Traceless Quadrupole moment (field-independent basis, Debye-Ang):
   XX=              1.4725   YY=              1.4725   ZZ=             -2.9449
   XY=             -0.0000   XZ=              0.0000   YZ=             -0.0000
 Octapole moment (field-independent basis, Debye-Ang**2):
  XXX=             -0.0000  YYY=             -2.2977  ZZZ=             -8.7986  XYY=             -0.0000
  XXY=              2.2977  XXZ=              2.0405  XZZ=             -0.0000  YZZ=             -0.0000
  YYZ=              2.0405  XYZ=              0.0000
 Hexadecapole moment (field-independent basis, Debye-Ang**3):
 XXXX=           -257.3538 YYYY=           -257.3538 ZZZZ=           -122.6529 XXXY=             -0.0000
 XXXZ=              0.0000 YYYX=             -0.0000 YYYZ=              0.3974 ZZZX=              0.0000
 ZZZY=             -0.0000 XXYY=            -85.7846 XXZZ=            -65.6206 YYZZ=            -65.6206
 XXYZ=             -0.3974 YYXZ=              0.0000 ZZXY=             -0.0000
 N-N= 1.770298710791D+02 E-N=-1.443048332241D+03  KE= 4.598550775920D+02
 PrsmSu:  requested number of processors reduced to:  20 ShMem   1 Linda.
 No NMR shielding tensors so no spin-rotation constants.
 Leave Link  601 at Mon Apr 19 08:15:53 2021, MaxMem=   104857600 cpu:             546.9 elap:              11.8
 (Enter /s/ls4/users/knvvv/bin/g16sse/l801.exe)
 DoSCS=F DFT=T ScalE2(SS,OS)=  1.000000  1.000000
 Range of M.O.s used for correlation:     1   557
 NBasis=   562 NAE=    21 NBE=    21 NFC=     0 NFV=     0
 NROrb=    557 NOA=    21 NOB=    21 NVA=   536 NVB=   536

 **** Warning!!: The largest alpha MO coefficient is  0.16741173D+03

 Leave Link  801 at Mon Apr 19 08:15:53 2021, MaxMem=   104857600 cpu:               4.3 elap:               0.1
 (Enter /s/ls4/users/knvvv/bin/g16sse/l914.exe)
 RHF ground state
 Doing stability rather than CIS.
 Two-electron integrals replicated using symmetry.
 MDV=   104857600 DFT=T DoStab=T Mixed=T DoRPA=F DoScal=F NonHer=F
 Making orbital integer symmetry assigments:
 Orbital symmetries:
       Occupied  (A1) (E) (E) (A1) (A1) (E) (E) (A1) (A1) (E) (E)
                 (A1) (A1) (E) (E) (E) (E) (A2) (E) (E) (A1)
       Virtual   (A1) (E) (E) (A1) (A1) (E) (E) (E) (E) (A1) (E)
                 (E) (E) (E) (A2) (A1) (E) (E) (E) (E) (A1) (A1)
                 (E) (E) (A2) (A1) (E) (E) (E) (E) (A1) (E) (E)
                 (A1) (E) (E) (A1) (E) (E) (A1) (A2) (E) (E) (E)
                 (E) (A2) (E) (E) (A1) (E) (E) (E) (E) (A1) (A1)
                 (A2) (A1) (E) (E) (E) (E) (E) (E) (A1) (E) (E)
                 (A2) (E) (E) (E) (E) (A2) (A1) (E) (E) (A1) (E)
                 (E) (A2) (A1) (E) (E) (A1) (A1) (E) (E) (E) (E)
                 (A1) (E) (E) (A2) (E) (E) (A1) (E) (E) (A2) (A1)
                 (E) (E) (E) (E) (E) (E) (A2) (A2) (E) (E) (E)
                 (E) (A1) (A1) (E) (E) (E) (E) (A1) (E) (E) (A1)
                 (E) (E) (A2) (A1) (E) (E) (A1) (E) (E) (A1) (E)
                 (E) (A2) (E) (E) (A1) (E) (E) (E) (E) (E) (E)
                 (A2) (A1) (A1) (E) (E) (E) (E) (A2) (A1) (A1)
                 (E) (E) (E) (E) (A1) (E) (E) (E) (E) (A2) (E)
                 (E) (A1) (A2) (A1) (E) (E) (A2) (A1) (E) (E) (A1)
                 (E) (E) (A2) (E) (E) (E) (E) (E) (E) (E) (E) (E)
                 (E) (A1) (A2) (E) (E) (E) (E) (A1) (A2) (A1) (E)
                 (E) (A1) (E) (E) (A1) (A2) (E) (E) (A2) (E) (E)
                 (A1) (E) (E) (E) (E) (A1) (A2) (A1) (E) (E) (E)
                 (E) (A2) (E) (E) (A1) (E) (E) (A1) (E) (E) (E)
                 (E) (E) (E) (E) (E) (A1) (E) (E) (A1) (A2) (A1)
                 (E) (E) (A2) (E) (E) (A1) (A1) (E) (E) (E) (E)
                 (E) (E) (A2) (E) (E) (A1) (A2) (A1) (E) (E) (E)
                 (E) (A1) (A2) (E) (E) (E) (E) (E) (E) (A2) (A1)
                 (E) (E) (A1) (A2) (E) (E) (A1) (E) (E) (E) (E)
                 (A1) (E) (E) (A2) (E) (E) (A1) (A2) (E) (E) (A1)
                 (E) (E) (A1) (E) (E) (E) (E) (A2) (A1) (E) (E)
                 (E) (E) (A2) (A1) (E) (E) (E) (E) (A2) (A1) (E)
                 (E) (E) (E) (E) (E) (A1) (A2) (E) (E) (A1) (E)
                 (E) (A2) (E) (E) (A1) (A2) (E) (E) (A1) (E) (E)
                 (A2) (E) (E) (A1) (E) (E) (A2) (E) (E) (A1) (E)
                 (E) (A2) (E) (E) (A1) (E) (E) (A2) (E) (E) (E)
                 (E) (A1) (E) (E) (A1) (A2) (A1) (E) (E) (A1) (E)
                 (E) (E) (E) (E) (E) (A2) (A1) (E) (E) (A2) (A1)
                 (E) (E) (A2) (E) (E) (A1) (E) (E) (A1) (E) (E)
                 (E) (E) (A1) (A2) (E) (E) (E) (E) (A1) (E) (E)
                 (E) (E) (A2) (A1) (E) (E) (E) (E) (A1) (A2) (E)
                 (E) (E) (E) (A1) (E) (E) (E) (E) (A1) (A2) (E)
                 (E) (E) (E) (A2) (A1) (A2) (E) (E) (A1) (E) (E)
                 (A1) (E) (E) (A1) (E) (E) (E) (E) (A2) (E) (E)
                 (A2) (A1) (E) (E) (E) (E) (E) (E) (A2) (E) (E)
                 (A1) (A2) (A1) (E) (E) (A1) (E) (E) (A1) (E) (E)
                 (A1) (E) (E) (A2) (E) (E) (A2) (E) (E) (E) (E)
                 (A1) (E) (E) (A2) (A1) (E) (E) (E) (E) (E) (E)
                 (A2) (A1) (E) (E) (A1) (E) (E) (A2) (A1) (E) (E)
                 (A1) (E) (E) (E) (E) (A2) (E) (E) (A2) (A1) (E)
                 (E) (A2) (E) (E) (A1) (E) (E) (A1) (E) (E) (A1)
                 (A1) (E) (E) (A1) (A1) (E) (E) (A1)
    24 initial guesses have been made.
 Convergence on wavefunction:    0.001000000000000
 Davidson Disk Diagonalization:  ConvIn= 1.00D-03 SkipCon=T Conv= 1.00D-03.
 Max sub-space:  2000 roots to seek:    24 dimension of matrix:        22512
 Iteration     1 Dimension    24 NMult     0 NNew     24
 Estimated number of processors is:   14
 CISAX will form     1 AO SS matrices at one time.
 NMat=     1 NSing=     1 JSym2X= 2.
 FoFJK:  IHMeth= 1 ICntrl=       0 DoSepK=F KAlg= 0 I1Cent=           0 FoldK=F
 IRaf= 960000000 NMat=       1 IRICut=       1 DoRegI=T DoRafI=F ISym2E= 2 IDoP0=0 IntGTp=1.
 FoFCou: FMM=F IPFlag=           0 FMFlag=      100000 FMFlg1=           0
         NFxFlg=           0 DoJE=F BraDBF=F KetDBF=F FulRan=T
         wScrn=  0.000000 ICntrl=         0 IOpCl=  0 I1Cent=           0 NGrid=           0
         NMat0=    1 NMatS0=      1 NMatT0=    0 NMatD0=    1 NMtDS0=    0 NMtDT0=    0
 Integrals replicated using symmetry in FoFCou.
 CoulSu:  requested number of processors reduced to:  18 ShMem   1 Linda.
 CalDSu:  requested number of processors reduced to:  44 ShMem   1 Linda.
 NMat=     1 NSing=     1 JSym2X= 2.
 CoulSu:  requested number of processors reduced to:  18 ShMem   1 Linda.
 CalDSu:  requested number of processors reduced to:  44 ShMem   1 Linda.
 NMat=     1 NSing=     1 JSym2X= 2.
 CoulSu:  requested number of processors reduced to:  18 ShMem   1 Linda.
 CalDSu:  requested number of processors reduced to:  44 ShMem   1 Linda.
 NMat=     1 NSing=     1 JSym2X= 2.
 CoulSu:  requested number of processors reduced to:  18 ShMem   1 Linda.
 CalDSu:  requested number of processors reduced to:  44 ShMem   1 Linda.
 NMat=     1 NSing=     1 JSym2X= 2.
 CoulSu:  requested number of processors reduced to:  18 ShMem   1 Linda.
 CalDSu:  requested number of processors reduced to:  44 ShMem   1 Linda.
 NMat=     1 NSing=     1 JSym2X= 2.
 CoulSu:  requested number of processors reduced to:  18 ShMem   1 Linda.
 CalDSu:  requested number of processors reduced to:  44 ShMem   1 Linda.
 NMat=     1 NSing=     1 JSym2X= 2.
 CoulSu:  requested number of processors reduced to:  18 ShMem   1 Linda.
 CalDSu:  requested number of processors reduced to:  44 ShMem   1 Linda.
 NMat=     1 NSing=     1 JSym2X= 2.
 CoulSu:  requested number of processors reduced to:  18 ShMem   1 Linda.
 CalDSu:  requested number of processors reduced to:  44 ShMem   1 Linda.
 NMat=     1 NSing=     1 JSym2X= 2.
 CoulSu:  requested number of processors reduced to:  18 ShMem   1 Linda.
 CalDSu:  requested number of processors reduced to:  44 ShMem   1 Linda.
 NMat=     1 NSing=     1 JSym2X= 2.
 CoulSu:  requested number of processors reduced to:  18 ShMem   1 Linda.
 CalDSu:  requested number of processors reduced to:  44 ShMem   1 Linda.
 NMat=     1 NSing=     1 JSym2X= 2.
 CoulSu:  requested number of processors reduced to:  18 ShMem   1 Linda.
 CalDSu:  requested number of processors reduced to:  44 ShMem   1 Linda.
 NMat=     1 NSing=     1 JSym2X= 2.
 CoulSu:  requested number of processors reduced to:  18 ShMem   1 Linda.
 CalDSu:  requested number of processors reduced to:  44 ShMem   1 Linda.
 NMat=     1 NSing=     0 JSym2X= 2.
 CoulSu:  requested number of processors reduced to:  18 ShMem   1 Linda.
 CalDSu:  requested number of processors reduced to:  44 ShMem   1 Linda.
 NMat=     1 NSing=     0 JSym2X= 2.
 CoulSu:  requested number of processors reduced to:  18 ShMem   1 Linda.
 CalDSu:  requested number of processors reduced to:  44 ShMem   1 Linda.
 NMat=     1 NSing=     0 JSym2X= 2.
 CoulSu:  requested number of processors reduced to:  18 ShMem   1 Linda.
 CalDSu:  requested number of processors reduced to:  44 ShMem   1 Linda.
 NMat=     1 NSing=     0 JSym2X= 2.
 CoulSu:  requested number of processors reduced to:  18 ShMem   1 Linda.
 CalDSu:  requested number of processors reduced to:  44 ShMem   1 Linda.
 NMat=     1 NSing=     0 JSym2X= 2.
 CoulSu:  requested number of processors reduced to:  18 ShMem   1 Linda.
 CalDSu:  requested number of processors reduced to:  44 ShMem   1 Linda.
 NMat=     1 NSing=     0 JSym2X= 2.
 CoulSu:  requested number of processors reduced to:  18 ShMem   1 Linda.
 CalDSu:  requested number of processors reduced to:  44 ShMem   1 Linda.
 NMat=     1 NSing=     0 JSym2X= 2.
 CoulSu:  requested number of processors reduced to:  18 ShMem   1 Linda.
 CalDSu:  requested number of processors reduced to:  44 ShMem   1 Linda.
 NMat=     1 NSing=     0 JSym2X= 2.
 CoulSu:  requested number of processors reduced to:  18 ShMem   1 Linda.
 CalDSu:  requested number of processors reduced to:  44 ShMem   1 Linda.
 NMat=     1 NSing=     0 JSym2X= 2.
 CoulSu:  requested number of processors reduced to:  18 ShMem   1 Linda.
 CalDSu:  requested number of processors reduced to:  44 ShMem   1 Linda.
 NMat=     1 NSing=     0 JSym2X= 2.
 CoulSu:  requested number of processors reduced to:  18 ShMem   1 Linda.
 CalDSu:  requested number of processors reduced to:  44 ShMem   1 Linda.
 NMat=     1 NSing=     0 JSym2X= 2.
 CoulSu:  requested number of processors reduced to:  18 ShMem   1 Linda.
 CalDSu:  requested number of processors reduced to:  44 ShMem   1 Linda.
 NMat=     1 NSing=     0 JSym2X= 2.
 CoulSu:  requested number of processors reduced to:  18 ShMem   1 Linda.
 CalDSu:  requested number of processors reduced to:  44 ShMem   1 Linda.
 New state      1 was old state      6
 Excitation Energies [eV] at current iteration:
 Root      1 :     5.759818548811320
 Root      2 :     5.760914398873645
 Root      3 :     5.960184238197721
 Root      4 :     6.077623237596092
 Root      5 :     6.502754325195226
 Root      6 :     6.502976311301619
 Root      7 :     6.881007487714223
 Root      8 :     6.923888306442945
 Root      9 :     6.965978843857222
 Root     10 :     6.966119867306717
 Root     11 :     7.623654653015259
 Root     12 :     7.623710103708953
 Root     13 :     7.738249608881378
 Root     14 :     7.738283378554247
 Root     15 :     7.837086748344013
 Root     16 :     7.910386818244254
 Root     17 :     8.071235846177309
 Root     18 :     8.071652536659586
 Root     19 :     8.377368525114640
 Root     20 :     8.489287271785919
 Root     21 :     8.667722256951599
 Root     22 :     8.667851711746712
 Root     23 :     9.003516421427813
 Root     24 :     9.004101797040418
 Iteration     2 Dimension    48 NMult    24 NNew     24
 Estimated number of processors is:   14
 CISAX will form     1 AO SS matrices at one time.
 NMat=     1 NSing=     1 JSym2X= 2.
 CoulSu:  requested number of processors reduced to:  18 ShMem   1 Linda.
 CalDSu:  requested number of processors reduced to:  44 ShMem   1 Linda.
 NMat=     1 NSing=     1 JSym2X= 2.
 CoulSu:  requested number of processors reduced to:  18 ShMem   1 Linda.
 CalDSu:  requested number of processors reduced to:  44 ShMem   1 Linda.
 NMat=     1 NSing=     1 JSym2X= 2.
 CoulSu:  requested number of processors reduced to:  18 ShMem   1 Linda.
 CalDSu:  requested number of processors reduced to:  44 ShMem   1 Linda.
 NMat=     1 NSing=     1 JSym2X= 2.
 CoulSu:  requested number of processors reduced to:  18 ShMem   1 Linda.
 CalDSu:  requested number of processors reduced to:  44 ShMem   1 Linda.
 NMat=     1 NSing=     1 JSym2X= 2.
 CoulSu:  requested number of processors reduced to:  18 ShMem   1 Linda.
 CalDSu:  requested number of processors reduced to:  44 ShMem   1 Linda.
 NMat=     1 NSing=     1 JSym2X= 2.
 CoulSu:  requested number of processors reduced to:  18 ShMem   1 Linda.
 CalDSu:  requested number of processors reduced to:  44 ShMem   1 Linda.
 NMat=     1 NSing=     1 JSym2X= 2.
 CoulSu:  requested number of processors reduced to:  18 ShMem   1 Linda.
 CalDSu:  requested number of processors reduced to:  44 ShMem   1 Linda.
 NMat=     1 NSing=     1 JSym2X= 2.
 CoulSu:  requested number of processors reduced to:  18 ShMem   1 Linda.
 CalDSu:  requested number of processors reduced to:  44 ShMem   1 Linda.
 NMat=     1 NSing=     1 JSym2X= 2.
 CoulSu:  requested number of processors reduced to:  18 ShMem   1 Linda.
 CalDSu:  requested number of processors reduced to:  44 ShMem   1 Linda.
 NMat=     1 NSing=     1 JSym2X= 2.
 CoulSu:  requested number of processors reduced to:  18 ShMem   1 Linda.
 CalDSu:  requested number of processors reduced to:  44 ShMem   1 Linda.
 NMat=     1 NSing=     1 JSym2X= 2.
 CoulSu:  requested number of processors reduced to:  18 ShMem   1 Linda.
 CalDSu:  requested number of processors reduced to:  44 ShMem   1 Linda.
 NMat=     1 NSing=     1 JSym2X= 2.
 CoulSu:  requested number of processors reduced to:  18 ShMem   1 Linda.
 CalDSu:  requested number of processors reduced to:  44 ShMem   1 Linda.
 NMat=     1 NSing=     0 JSym2X= 2.
 CoulSu:  requested number of processors reduced to:  18 ShMem   1 Linda.
 CalDSu:  requested number of processors reduced to:  44 ShMem   1 Linda.
 NMat=     1 NSing=     0 JSym2X= 2.
 CoulSu:  requested number of processors reduced to:  18 ShMem   1 Linda.
 CalDSu:  requested number of processors reduced to:  44 ShMem   1 Linda.
 NMat=     1 NSing=     0 JSym2X= 2.
 CoulSu:  requested number of processors reduced to:  18 ShMem   1 Linda.
 CalDSu:  requested number of processors reduced to:  44 ShMem   1 Linda.
 NMat=     1 NSing=     0 JSym2X= 2.
 CoulSu:  requested number of processors reduced to:  18 ShMem   1 Linda.
 CalDSu:  requested number of processors reduced to:  44 ShMem   1 Linda.
 NMat=     1 NSing=     0 JSym2X= 2.
 CoulSu:  requested number of processors reduced to:  18 ShMem   1 Linda.
 CalDSu:  requested number of processors reduced to:  44 ShMem   1 Linda.
 NMat=     1 NSing=     0 JSym2X= 2.
 CoulSu:  requested number of processors reduced to:  18 ShMem   1 Linda.
 CalDSu:  requested number of processors reduced to:  44 ShMem   1 Linda.
 NMat=     1 NSing=     0 JSym2X= 2.
 CoulSu:  requested number of processors reduced to:  18 ShMem   1 Linda.
 CalDSu:  requested number of processors reduced to:  44 ShMem   1 Linda.
 NMat=     1 NSing=     0 JSym2X= 2.
 CoulSu:  requested number of processors reduced to:  18 ShMem   1 Linda.
 CalDSu:  requested number of processors reduced to:  44 ShMem   1 Linda.
 NMat=     1 NSing=     0 JSym2X= 2.
 CoulSu:  requested number of processors reduced to:  18 ShMem   1 Linda.
 CalDSu:  requested number of processors reduced to:  44 ShMem   1 Linda.
 NMat=     1 NSing=     0 JSym2X= 2.
 CoulSu:  requested number of processors reduced to:  18 ShMem   1 Linda.
 CalDSu:  requested number of processors reduced to:  44 ShMem   1 Linda.
 NMat=     1 NSing=     0 JSym2X= 2.
 CoulSu:  requested number of processors reduced to:  18 ShMem   1 Linda.
 CalDSu:  requested number of processors reduced to:  44 ShMem   1 Linda.
 NMat=     1 NSing=     0 JSym2X= 2.
 CoulSu:  requested number of processors reduced to:  18 ShMem   1 Linda.
 CalDSu:  requested number of processors reduced to:  44 ShMem   1 Linda.
 Root      1 not converged, maximum delta is    0.123148667586975
 Excitation Energies [eV] at current iteration:
 Root      1 :     5.034327322847296   Change is   -0.725491225964025
 Root      2 :     5.036030562529053   Change is   -0.724883836344592
 Root      3 :     5.820883075522735   Change is   -0.139301162674986
 Root      4 :     5.944670287071537   Change is   -0.132952950524555
 Root      5 :     6.313818562641824   Change is   -0.188935762553402
 Root      6 :     6.314384616524881   Change is   -0.188591694776738
 Root      7 :     6.667231629999316   Change is   -0.256656676443629
 Root      8 :     6.746170134368534   Change is   -0.134837353345688
 Root      9 :     6.764468598156089   Change is   -0.201510245701133
 Root     10 :     6.764499876650290   Change is   -0.201619990656427
 Root     11 :     7.408187679011974   Change is   -0.502199139232281
 Root     12 :     7.526612231693547   Change is   -0.097097872015407
 Root     13 :     7.526767713725309   Change is   -0.096886939289950
 Root     14 :     7.557751472552408   Change is   -0.279335275791604
 Root     15 :     7.594764731654371   Change is   -0.143518646899875
 Root     16 :     7.594941174622003   Change is   -0.143308434259376
 Root     17 :     7.606207898272463   Change is   -0.465027947904846
 Root     18 :     7.606921654058643   Change is   -0.464730882600943
 Root     19 :     8.141508774702986   Change is   -0.235859750411653
 Root     20 :     8.238546898428746   Change is   -0.250740373357173
 Root     21 :     8.436471484842279   Change is   -0.567630312198139
 Root     22 :     8.436540334297677   Change is   -0.566976087130137
 Root     23 :     8.460080464030510   Change is   -0.207771247716202
 Root     24 :     8.460174813772866   Change is   -0.207547443178734
 Iteration     3 Dimension    54 NMult    48 NNew      6
 Estimated number of processors is:   14
 CISAX will form     1 AO SS matrices at one time.
 NMat=     1 NSing=     1 JSym2X= 2.
 CoulSu:  requested number of processors reduced to:  18 ShMem   1 Linda.
 CalDSu:  requested number of processors reduced to:  44 ShMem   1 Linda.
 NMat=     1 NSing=     1 JSym2X= 2.
 CoulSu:  requested number of processors reduced to:  18 ShMem   1 Linda.
 CalDSu:  requested number of processors reduced to:  44 ShMem   1 Linda.
 NMat=     1 NSing=     1 JSym2X= 2.
 CoulSu:  requested number of processors reduced to:  18 ShMem   1 Linda.
 CalDSu:  requested number of processors reduced to:  44 ShMem   1 Linda.
 NMat=     1 NSing=     0 JSym2X= 2.
 CoulSu:  requested number of processors reduced to:  18 ShMem   1 Linda.
 CalDSu:  requested number of processors reduced to:  44 ShMem   1 Linda.
 NMat=     1 NSing=     0 JSym2X= 2.
 CoulSu:  requested number of processors reduced to:  18 ShMem   1 Linda.
 CalDSu:  requested number of processors reduced to:  44 ShMem   1 Linda.
 NMat=     1 NSing=     0 JSym2X= 2.
 CoulSu:  requested number of processors reduced to:  18 ShMem   1 Linda.
 CalDSu:  requested number of processors reduced to:  44 ShMem   1 Linda.
 Root      1 not converged, maximum delta is    0.013704392460502
 Excitation Energies [eV] at current iteration:
 Root      1 :     4.989066799321765   Change is   -0.045260523525530
 Root      2 :     4.990874776711110   Change is   -0.045155785817943
 Root      3 :     5.804317102644261   Change is   -0.016565972878474
 Root      4 :     5.926493803975017   Change is   -0.018176483096519
 Root      5 :     6.284403970338167   Change is   -0.029414592303657
 Root      6 :     6.285050733562991   Change is   -0.029333882961890
 Iteration     4 Dimension    60 NMult    54 NNew      6
 Estimated number of processors is:   14
 CISAX will form     1 AO SS matrices at one time.
 NMat=     1 NSing=     1 JSym2X= 2.
 CoulSu:  requested number of processors reduced to:  18 ShMem   1 Linda.
 CalDSu:  requested number of processors reduced to:  44 ShMem   1 Linda.
 NMat=     1 NSing=     1 JSym2X= 2.
 CoulSu:  requested number of processors reduced to:  18 ShMem   1 Linda.
 CalDSu:  requested number of processors reduced to:  44 ShMem   1 Linda.
 NMat=     1 NSing=     1 JSym2X= 2.
 CoulSu:  requested number of processors reduced to:  18 ShMem   1 Linda.
 CalDSu:  requested number of processors reduced to:  44 ShMem   1 Linda.
 NMat=     1 NSing=     0 JSym2X= 2.
 CoulSu:  requested number of processors reduced to:  18 ShMem   1 Linda.
 CalDSu:  requested number of processors reduced to:  44 ShMem   1 Linda.
 NMat=     1 NSing=     0 JSym2X= 2.
 CoulSu:  requested number of processors reduced to:  18 ShMem   1 Linda.
 CalDSu:  requested number of processors reduced to:  44 ShMem   1 Linda.
 NMat=     1 NSing=     0 JSym2X= 2.
 CoulSu:  requested number of processors reduced to:  18 ShMem   1 Linda.
 CalDSu:  requested number of processors reduced to:  44 ShMem   1 Linda.
 Root      1 not converged, maximum delta is    0.003385202216570
 Excitation Energies [eV] at current iteration:
 Root      1 :     4.985825829385510   Change is   -0.003240969936256
 Root      2 :     4.987634903436349   Change is   -0.003239873274762
 Root      3 :     5.803470187935605   Change is   -0.000846914708656
 Root      4 :     5.925628716101723   Change is   -0.000865087873294
 Root      5 :     6.280679987649473   Change is   -0.003723982688694
 Root      6 :     6.281332568753385   Change is   -0.003718164809606
 Iteration     5 Dimension    66 NMult    60 NNew      6
 Estimated number of processors is:   14
 CISAX will form     1 AO SS matrices at one time.
 NMat=     1 NSing=     1 JSym2X= 2.
 CoulSu:  requested number of processors reduced to:  18 ShMem   1 Linda.
 CalDSu:  requested number of processors reduced to:  44 ShMem   1 Linda.
 NMat=     1 NSing=     1 JSym2X= 2.
 CoulSu:  requested number of processors reduced to:  18 ShMem   1 Linda.
 CalDSu:  requested number of processors reduced to:  44 ShMem   1 Linda.
 NMat=     1 NSing=     1 JSym2X= 2.
 CoulSu:  requested number of processors reduced to:  18 ShMem   1 Linda.
 CalDSu:  requested number of processors reduced to:  44 ShMem   1 Linda.
 NMat=     1 NSing=     0 JSym2X= 2.
 CoulSu:  requested number of processors reduced to:  18 ShMem   1 Linda.
 CalDSu:  requested number of processors reduced to:  44 ShMem   1 Linda.
 NMat=     1 NSing=     0 JSym2X= 2.
 CoulSu:  requested number of processors reduced to:  18 ShMem   1 Linda.
 CalDSu:  requested number of processors reduced to:  44 ShMem   1 Linda.
 NMat=     1 NSing=     0 JSym2X= 2.
 CoulSu:  requested number of processors reduced to:  18 ShMem   1 Linda.
 CalDSu:  requested number of processors reduced to:  44 ShMem   1 Linda.
 Root      1 not converged, maximum delta is    0.001030893236862
 Excitation Energies [eV] at current iteration:
 Root      1 :     4.985445515202697   Change is   -0.000380314182813
 Root      2 :     4.987254358504264   Change is   -0.000380544932084
 Root      3 :     5.803287317658151   Change is   -0.000182870277454
 Root      4 :     5.925437577197996   Change is   -0.000191138903727
 Root      5 :     6.280502908054358   Change is   -0.000177079595115
 Root      6 :     6.281155587099218   Change is   -0.000176981654167
 Iteration     6 Dimension    72 NMult    66 NNew      6
 Estimated number of processors is:   14
 CISAX will form     1 AO SS matrices at one time.
 NMat=     1 NSing=     1 JSym2X= 2.
 CoulSu:  requested number of processors reduced to:  18 ShMem   1 Linda.
 CalDSu:  requested number of processors reduced to:  44 ShMem   1 Linda.
 NMat=     1 NSing=     1 JSym2X= 2.
 CoulSu:  requested number of processors reduced to:  18 ShMem   1 Linda.
 CalDSu:  requested number of processors reduced to:  44 ShMem   1 Linda.
 NMat=     1 NSing=     1 JSym2X= 2.
 CoulSu:  requested number of processors reduced to:  18 ShMem   1 Linda.
 CalDSu:  requested number of processors reduced to:  44 ShMem   1 Linda.
 NMat=     1 NSing=     0 JSym2X= 2.
 CoulSu:  requested number of processors reduced to:  18 ShMem   1 Linda.
 CalDSu:  requested number of processors reduced to:  44 ShMem   1 Linda.
 NMat=     1 NSing=     0 JSym2X= 2.
 CoulSu:  requested number of processors reduced to:  18 ShMem   1 Linda.
 CalDSu:  requested number of processors reduced to:  44 ShMem   1 Linda.
 NMat=     1 NSing=     0 JSym2X= 2.
 CoulSu:  requested number of processors reduced to:  18 ShMem   1 Linda.
 CalDSu:  requested number of processors reduced to:  44 ShMem   1 Linda.
 Root      1 has converged.
 Excitation Energies [eV] at current iteration:
 Root      1 :     4.985407531897405   Change is   -0.000037983305292
 Root      2 :     4.987216419810127   Change is   -0.000037938694137
 Root      3 :     5.803262671173833   Change is   -0.000024646484317
 Root      4 :     5.925419342713395   Change is   -0.000018234484600
 Root      5 :     6.280485832772737   Change is   -0.000017075281621
 Root      6 :     6.281138514333751   Change is   -0.000017072765467
 Convergence achieved on expansion vectors.
 ***********************************************************************
 Stability analysis using <AA,BB:AA,BB> singles matrix:
 ***********************************************************************
 1PDM for each excited state written to RWF  633
 Ground to excited state transition densities written to RWF  633

 Eigenvectors of the stability matrix:
 
 Eigenvector   1:      Triplet-E    Eigenvalue= 0.1832104  <S**2>=2.000
      21 -> 23         0.14163
      21 -> 24         0.39932
      21 -> 27         0.26575
      21 -> 28        -0.11528
      21 -> 29         0.28608
      21 -> 33        -0.27198
      21 -> 39        -0.10633
      21 -> 41        -0.13492
 The wavefunction is stable under the perturbations considered.
 Leave Link  914 at Mon Apr 19 09:07:15 2021, MaxMem=   104857600 cpu:          108421.3 elap:            3081.8
 (Enter /s/ls4/users/knvvv/bin/g16sse/l508.exe)
 The wavefunction is already stable.
 Leave Link  508 at Mon Apr 19 09:07:15 2021, MaxMem=   104857600 cpu:               2.2 elap:               0.1
 (Enter /s/ls4/users/knvvv/bin/g16sse/l601.exe)
 Copying SCF densities to generalized density rwf, IOpCl= 0 IROHF=0.

 **********************************************************************

            Population analysis using the SCF density.

 **********************************************************************

 Orbital symmetries:
       Occupied  (A1) (E) (E) (A1) (A1) (E) (E) (A1) (A1) (E) (E)
                 (A1) (A1) (E) (E) (E) (E) (A2) (E) (E) (A1)
       Virtual   (A1) (E) (E) (A1) (A1) (E) (E) (E) (E) (A1) (E)
                 (E) (E) (E) (A2) (A1) (E) (E) (E) (E) (A1) (A1)
                 (E) (E) (A2) (A1) (E) (E) (E) (E) (A1) (E) (E)
                 (A1) (E) (E) (A1) (E) (E) (A1) (A2) (E) (E) (E)
                 (E) (A2) (E) (E) (A1) (E) (E) (E) (E) (A1) (A1)
                 (A2) (A1) (E) (E) (E) (E) (E) (E) (A1) (E) (E)
                 (A2) (E) (E) (E) (E) (A2) (A1) (E) (E) (A1) (E)
                 (E) (A2) (A1) (E) (E) (A1) (A1) (E) (E) (E) (E)
                 (A1) (E) (E) (A2) (E) (E) (A1) (E) (E) (A2) (A1)
                 (E) (E) (E) (E) (E) (E) (A2) (A2) (E) (E) (E)
                 (E) (A1) (A1) (E) (E) (E) (E) (A1) (E) (E) (A1)
                 (E) (E) (A2) (A1) (E) (E) (A1) (E) (E) (A1) (E)
                 (E) (A2) (E) (E) (A1) (E) (E) (E) (E) (E) (E)
                 (A2) (A1) (A1) (E) (E) (E) (E) (A2) (A1) (A1)
                 (E) (E) (E) (E) (A1) (E) (E) (E) (E) (A2) (E)
                 (E) (A1) (A2) (A1) (E) (E) (A2) (A1) (E) (E) (A1)
                 (E) (E) (A2) (E) (E) (E) (E) (E) (E) (E) (E) (E)
                 (E) (A1) (A2) (E) (E) (E) (E) (A1) (A2) (A1) (E)
                 (E) (A1) (E) (E) (A1) (A2) (E) (E) (A2) (E) (E)
                 (A1) (E) (E) (E) (E) (A1) (A2) (A1) (E) (E) (E)
                 (E) (A2) (E) (E) (A1) (E) (E) (A1) (E) (E) (E)
                 (E) (E) (E) (E) (E) (A1) (E) (E) (A1) (A2) (A1)
                 (E) (E) (A2) (E) (E) (A1) (A1) (E) (E) (E) (E)
                 (E) (E) (A2) (E) (E) (A1) (A2) (A1) (E) (E) (E)
                 (E) (A1) (A2) (E) (E) (E) (E) (E) (E) (A2) (A1)
                 (E) (E) (A1) (A2) (E) (E) (A1) (E) (E) (E) (E)
                 (A1) (E) (E) (A2) (E) (E) (A1) (A2) (E) (E) (A1)
                 (E) (E) (A1) (E) (E) (E) (E) (A2) (A1) (E) (E)
                 (E) (E) (A2) (A1) (E) (E) (E) (E) (A2) (A1) (E)
                 (E) (E) (E) (E) (E) (A1) (A2) (E) (E) (A1) (E)
                 (E) (A2) (E) (E) (A1) (A2) (E) (E) (A1) (E) (E)
                 (A2) (E) (E) (A1) (E) (E) (A2) (E) (E) (A1) (E)
                 (E) (A2) (E) (E) (A1) (E) (E) (A2) (E) (E) (E)
                 (E) (A1) (E) (E) (A1) (A2) (A1) (E) (E) (A1) (E)
                 (E) (E) (E) (E) (E) (A2) (A1) (E) (E) (A2) (A1)
                 (E) (E) (A2) (E) (E) (A1) (E) (E) (A1) (E) (E)
                 (E) (E) (A1) (A2) (E) (E) (E) (E) (A1) (E) (E)
                 (E) (E) (A2) (A1) (E) (E) (E) (E) (A1) (A2) (E)
                 (E) (E) (E) (A1) (E) (E) (E) (E) (A1) (A2) (E)
                 (E) (E) (E) (A2) (A1) (A2) (E) (E) (A1) (E) (E)
                 (A1) (E) (E) (A1) (E) (E) (E) (E) (A2) (E) (E)
                 (A2) (A1) (E) (E) (E) (E) (E) (E) (A2) (E) (E)
                 (A1) (A2) (A1) (E) (E) (A1) (E) (E) (A1) (E) (E)
                 (A1) (E) (E) (A2) (E) (E) (A2) (E) (E) (E) (E)
                 (A1) (E) (E) (A2) (A1) (E) (E) (E) (E) (E) (E)
                 (A2) (A1) (E) (E) (A1) (E) (E) (A2) (A1) (E) (E)
                 (A1) (E) (E) (E) (E) (A2) (E) (E) (A2) (A1) (E)
                 (E) (A2) (E) (E) (A1) (E) (E) (A1) (E) (E) (A1)
                 (A1) (E) (E) (A1) (A1) (E) (E) (A1)
 The electronic state is 1-A1.
 Alpha  occ. eigenvalues --  -78.01679 -10.53182 -10.53182 -10.53181  -6.83148
 Alpha  occ. eigenvalues --   -4.94839  -4.94839  -4.94590  -0.85189  -0.77717
 Alpha  occ. eigenvalues --   -0.77717  -0.60061  -0.50588  -0.49068  -0.49068
 Alpha  occ. eigenvalues --   -0.46105  -0.46105  -0.44845  -0.37726  -0.37726
 Alpha  occ. eigenvalues --   -0.27560
 Alpha virt. eigenvalues --    0.01043   0.02457   0.02457   0.04036   0.07593
 Alpha virt. eigenvalues --    0.07636   0.07636   0.08062   0.08062   0.10695
 Alpha virt. eigenvalues --    0.10901   0.10901   0.13324   0.13324   0.13407
 Alpha virt. eigenvalues --    0.13954   0.14432   0.14432   0.17256   0.17256
 Alpha virt. eigenvalues --    0.18327   0.19560   0.20456   0.20456   0.21509
 Alpha virt. eigenvalues --    0.22366   0.23244   0.23244   0.23955   0.23955
 Alpha virt. eigenvalues --    0.24634   0.26348   0.26348   0.26412   0.27943
 Alpha virt. eigenvalues --    0.27943   0.28653   0.28711   0.28711   0.31112
 Alpha virt. eigenvalues --    0.31356   0.31836   0.31836   0.33396   0.33396
 Alpha virt. eigenvalues --    0.34349   0.34632   0.34632   0.35322   0.36253
 Alpha virt. eigenvalues --    0.36253   0.36845   0.36845   0.36995   0.38340
 Alpha virt. eigenvalues --    0.39027   0.40123   0.40949   0.40949   0.42540
 Alpha virt. eigenvalues --    0.42540   0.44955   0.44955   0.45017   0.45273
 Alpha virt. eigenvalues --    0.45273   0.47036   0.49324   0.49324   0.49571
 Alpha virt. eigenvalues --    0.49571   0.50979   0.52345   0.55750   0.55750
 Alpha virt. eigenvalues --    0.56390   0.56640   0.56640   0.56906   0.58820
 Alpha virt. eigenvalues --    0.61792   0.61792   0.63228   0.64352   0.65406
 Alpha virt. eigenvalues --    0.65406   0.67805   0.67805   0.70426   0.72048
 Alpha virt. eigenvalues --    0.72048   0.74162   0.78008   0.78008   0.78535
 Alpha virt. eigenvalues --    0.81207   0.81207   0.84537   0.84956   0.85098
 Alpha virt. eigenvalues --    0.85098   0.88954   0.88954   0.91251   0.91251
 Alpha virt. eigenvalues --    0.91501   0.96547   0.97031   0.97031   0.98387
 Alpha virt. eigenvalues --    0.98387   0.98789   0.99367   1.01883   1.01883
 Alpha virt. eigenvalues --    1.03318   1.03318   1.04295   1.05650   1.05650
 Alpha virt. eigenvalues --    1.09939   1.11459   1.11459   1.12441   1.12753
 Alpha virt. eigenvalues --    1.14326   1.14326   1.18144   1.21152   1.21152
 Alpha virt. eigenvalues --    1.22889   1.26692   1.26692   1.27605   1.28309
 Alpha virt. eigenvalues --    1.28309   1.29642   1.34572   1.34572   1.35775
 Alpha virt. eigenvalues --    1.35775   1.39137   1.39137   1.39952   1.43185
 Alpha virt. eigenvalues --    1.44081   1.44359   1.44359   1.47973   1.47973
 Alpha virt. eigenvalues --    1.48580   1.48952   1.52469   1.53880   1.53880
 Alpha virt. eigenvalues --    1.58428   1.58428   1.64361   1.66093   1.66093
 Alpha virt. eigenvalues --    1.72673   1.72673   1.74480   1.86277   1.86277
 Alpha virt. eigenvalues --    1.90095   1.93307   1.94987   1.97534   1.97534
 Alpha virt. eigenvalues --    2.01140   2.02480   2.05069   2.05069   2.07366
 Alpha virt. eigenvalues --    2.07403   2.07403   2.08304   2.08681   2.08681
 Alpha virt. eigenvalues --    2.10345   2.10345   2.12269   2.12269   2.18562
 Alpha virt. eigenvalues --    2.18562   2.20230   2.20230   2.21360   2.24601
 Alpha virt. eigenvalues --    2.25525   2.25525   2.26100   2.26100   2.28610
 Alpha virt. eigenvalues --    2.29271   2.30075   2.31470   2.31470   2.33748
 Alpha virt. eigenvalues --    2.34857   2.34857   2.37077   2.38358   2.42955
 Alpha virt. eigenvalues --    2.42955   2.43161   2.45558   2.45558   2.52870
 Alpha virt. eigenvalues --    2.53455   2.53455   2.55658   2.55658   2.57662
 Alpha virt. eigenvalues --    2.63121   2.68491   2.68735   2.68735   2.70150
 Alpha virt. eigenvalues --    2.70150   2.76348   2.77198   2.77198   2.77649
 Alpha virt. eigenvalues --    2.78497   2.78497   2.83879   2.84421   2.84421
 Alpha virt. eigenvalues --    2.85467   2.85467   2.87884   2.87884   2.90327
 Alpha virt. eigenvalues --    2.90327   2.93834   2.94897   2.94897   2.98172
 Alpha virt. eigenvalues --    2.99754   3.00761   3.02321   3.02321   3.03592
 Alpha virt. eigenvalues --    3.04402   3.04402   3.04976   3.08387   3.08894
 Alpha virt. eigenvalues --    3.08894   3.12280   3.12280   3.18027   3.18027
 Alpha virt. eigenvalues --    3.18044   3.23809   3.23809   3.26365   3.27807
 Alpha virt. eigenvalues --    3.31781   3.33216   3.33216   3.38513   3.38513
 Alpha virt. eigenvalues --    3.39335   3.40469   3.41020   3.41020   3.44739
 Alpha virt. eigenvalues --    3.44739   3.49376   3.49376   3.51488   3.52206
 Alpha virt. eigenvalues --    3.55316   3.55316   3.57215   3.57804   3.58607
 Alpha virt. eigenvalues --    3.58607   3.70925   3.72790   3.72790   3.78722
 Alpha virt. eigenvalues --    3.78722   3.81649   3.82773   3.82773   3.85039
 Alpha virt. eigenvalues --    3.92271   3.92271   3.94421   3.96068   3.96505
 Alpha virt. eigenvalues --    3.96505   3.97264   4.03820   4.03820   4.27983
 Alpha virt. eigenvalues --    4.31511   4.31511   4.36469   4.36469   4.44693
 Alpha virt. eigenvalues --    4.62592   4.67357   4.67357   5.18535   5.18535
 Alpha virt. eigenvalues --    5.18580   5.25390   5.28671   5.28671   5.39325
 Alpha virt. eigenvalues --    5.39325   5.43135   5.45820   5.47750   5.47750
 Alpha virt. eigenvalues --    5.63921   5.63921   5.66416   5.66416   5.67473
 Alpha virt. eigenvalues --    5.69015   5.69175   5.69175   5.71195   5.73649
 Alpha virt. eigenvalues --    5.73649   5.74903   5.75857   5.75857   5.77625
 Alpha virt. eigenvalues --    5.80393   5.81911   5.81911   5.84514   5.86228
 Alpha virt. eigenvalues --    5.86228   5.86984   5.88847   5.88847   5.89183
 Alpha virt. eigenvalues --    5.93439   5.93439   5.94251   5.99086   5.99086
 Alpha virt. eigenvalues --    6.05455   6.06119   6.06119   6.11815   6.14034
 Alpha virt. eigenvalues --    6.14034   6.17398   6.18711   6.18711   6.22533
 Alpha virt. eigenvalues --    6.24498   6.24498   6.27293   6.27293   6.30147
 Alpha virt. eigenvalues --    6.30254   6.30254   6.37176   6.37355   6.43566
 Alpha virt. eigenvalues --    6.44191   6.44191   6.47656   6.48200   6.48200
 Alpha virt. eigenvalues --    6.49911   6.49911   6.52718   6.52718   6.54759
 Alpha virt. eigenvalues --    6.62821   6.66604   6.66604   6.71041   6.75641
 Alpha virt. eigenvalues --    6.75959   6.75959   6.87246   6.87257   6.87257
 Alpha virt. eigenvalues --    6.90201   6.91784   6.91784   7.06809   7.09555
 Alpha virt. eigenvalues --    7.09555   7.16682   7.16682   7.16998   7.22402
 Alpha virt. eigenvalues --    7.24124   7.24124   7.24995   7.24995   7.25767
 Alpha virt. eigenvalues --    7.27819   7.27819   7.31483   7.31483   7.39264
 Alpha virt. eigenvalues --    7.39678   7.45076   7.45076   7.47599   7.47599
 Alpha virt. eigenvalues --    7.50438   7.51706   7.53697   7.53697   7.56940
 Alpha virt. eigenvalues --    7.56940   7.59865   7.61628   7.61628   7.63495
 Alpha virt. eigenvalues --    7.63495   7.63557   7.66389   7.67800   7.67800
 Alpha virt. eigenvalues --    7.70033   7.70033   7.72842   7.75249   7.75428
 Alpha virt. eigenvalues --    7.79389   7.79389   7.80084   7.89443   7.89443
 Alpha virt. eigenvalues --    8.02275   8.11682   8.11682   8.13069   8.13093
 Alpha virt. eigenvalues --    8.13093   8.14145   8.14145   8.16431   8.17139
 Alpha virt. eigenvalues --    8.17139   8.18937   8.20783   8.21478   8.21478
 Alpha virt. eigenvalues --    8.25719   8.25719   8.25911   8.25911   8.27637
 Alpha virt. eigenvalues --    8.29200   8.29200   8.29583   8.33320   8.34626
 Alpha virt. eigenvalues --    8.34906   8.34906   8.36841   8.38358   8.38358
 Alpha virt. eigenvalues --    8.51897   8.55795   8.55795   8.66266   8.67769
 Alpha virt. eigenvalues --    8.67769   8.68470   8.71484   8.71484   8.71693
 Alpha virt. eigenvalues --    8.73292   8.73292   8.77229   8.77229   8.77465
 Alpha virt. eigenvalues --    8.81635   8.81635   8.85794   9.54097   9.54851
 Alpha virt. eigenvalues --    9.54851   9.57764   9.57764   9.59212   9.59212
 Alpha virt. eigenvalues --    9.59414   9.61128   9.62014   9.62014   9.67032
 Alpha virt. eigenvalues --    9.70746   9.70746   9.72332   9.86405   9.89789
 Alpha virt. eigenvalues --    9.89789   9.95910   9.95969   9.95969  10.04001
 Alpha virt. eigenvalues --   10.04001  10.12078  10.26030  10.26030  10.37212
 Alpha virt. eigenvalues --   11.80297  11.84254  11.84254  11.91116  11.93501
 Alpha virt. eigenvalues --   11.93501  12.87821  12.95414  12.95414  18.47955
 Alpha virt. eigenvalues --   18.76606  18.76606  20.89690  29.03563  29.04780
 Alpha virt. eigenvalues --   29.04780  71.28478 146.53927 146.54704 146.54704
 Alpha virt. eigenvalues --  381.62623
          Condensed to atoms (all electrons):
               1          2          3          4          5          6
     1  P   14.403443   0.245785   0.245785   0.245785  -0.118782  -0.118782
     2  C    0.245785   5.993100  -0.066850  -0.066850   0.018891   0.032418
     3  C    0.245785  -0.066850   5.993100  -0.066850   0.032418   0.018891
     4  C    0.245785  -0.066850  -0.066850   5.993100   0.414909   0.414909
     5  H   -0.118782   0.018891   0.032418   0.414909   0.488321   0.035784
     6  H   -0.118782   0.032418   0.018891   0.414909   0.035784   0.488321
     7  H    0.048953  -0.084908  -0.084908   0.167261  -0.089764  -0.089764
     8  H   -0.118782   0.414909   0.032418   0.018891   0.003774   0.008134
     9  H    0.048953   0.167261  -0.084908  -0.084908  -0.017233  -0.026202
    10  H   -0.118782   0.414909   0.018891   0.032418   0.008134   0.020162
    11  H   -0.118782   0.018891   0.414909   0.032418   0.020162   0.008134
    12  H   -0.118782   0.032418   0.414909   0.018891   0.008134   0.003774
    13  H    0.048953  -0.084908   0.167261  -0.084908  -0.026202  -0.017233
               7          8          9         10         11         12
     1  P    0.048953  -0.118782   0.048953  -0.118782  -0.118782  -0.118782
     2  C   -0.084908   0.414909   0.167261   0.414909   0.018891   0.032418
     3  C   -0.084908   0.032418  -0.084908   0.018891   0.414909   0.414909
     4  C    0.167261   0.018891  -0.084908   0.032418   0.032418   0.018891
     5  H   -0.089764   0.003774  -0.017233   0.008134   0.020162   0.008134
     6  H   -0.089764   0.008134  -0.026202   0.020162   0.008134   0.003774
     7  H    0.630200  -0.017233   0.069660  -0.026202  -0.026202  -0.017233
     8  H   -0.017233   0.488321  -0.089764   0.035784   0.008134   0.020162
     9  H    0.069660  -0.089764   0.630200  -0.089764  -0.017233  -0.026202
    10  H   -0.026202   0.035784  -0.089764   0.488321   0.003774   0.008134
    11  H   -0.026202   0.008134  -0.017233   0.003774   0.488321   0.035784
    12  H   -0.017233   0.020162  -0.026202   0.008134   0.035784   0.488321
    13  H    0.069660  -0.026202   0.069660  -0.017233  -0.089764  -0.089764
              13
     1  P    0.048953
     2  C   -0.084908
     3  C    0.167261
     4  C   -0.084908
     5  H   -0.026202
     6  H   -0.017233
     7  H    0.069660
     8  H   -0.026202
     9  H    0.069660
    10  H   -0.017233
    11  H   -0.089764
    12  H   -0.089764
    13  H    0.630200
 Mulliken charges:
               1
     1  P    0.425036
     2  C   -1.035067
     3  C   -1.035067
     4  C   -1.035067
     5  H    0.221454
     6  H    0.221454
     7  H    0.450480
     8  H    0.221454
     9  H    0.450480
    10  H    0.221454
    11  H    0.221454
    12  H    0.221454
    13  H    0.450480
 Sum of Mulliken charges =  -0.00000
 Mulliken charges with hydrogens summed into heavy atoms:
               1
     1  P    0.425036
     2  C   -0.141679
     3  C   -0.141679
     4  C   -0.141679
 Electronic spatial extent (au):  <R**2>=            438.0820
 Charge=             -0.0000 electrons
 Dipole moment (field-independent basis, Debye):
    X=             -0.0000    Y=             -0.0000    Z=             -1.1909  Tot=              1.1909
 Quadrupole moment (field-independent basis, Debye-Ang):
   XX=            -33.8831   YY=            -33.8831   ZZ=            -38.3005
   XY=             -0.0000   XZ=              0.0000   YZ=             -0.0000
 Traceless Quadrupole moment (field-independent basis, Debye-Ang):
   XX=              1.4725   YY=              1.4725   ZZ=             -2.9449
   XY=             -0.0000   XZ=              0.0000   YZ=             -0.0000
 Octapole moment (field-independent basis, Debye-Ang**2):
  XXX=             -0.0000  YYY=             -2.2977  ZZZ=             -8.7986  XYY=             -0.0000
  XXY=              2.2977  XXZ=              2.0405  XZZ=             -0.0000  YZZ=             -0.0000
  YYZ=              2.0405  XYZ=              0.0000
 Hexadecapole moment (field-independent basis, Debye-Ang**3):
 XXXX=           -257.3538 YYYY=           -257.3538 ZZZZ=           -122.6529 XXXY=             -0.0000
 XXXZ=              0.0000 YYYX=             -0.0000 YYYZ=              0.3974 ZZZX=              0.0000
 ZZZY=             -0.0000 XXYY=            -85.7846 XXZZ=            -65.6206 YYZZ=            -65.6206
 XXYZ=             -0.3974 YYXZ=              0.0000 ZZXY=             -0.0000
 N-N= 1.770298710791D+02 E-N=-1.443048332241D+03  KE= 4.598550775920D+02
 PrsmSu:  requested number of processors reduced to:  20 ShMem   1 Linda.
 No NMR shielding tensors so no spin-rotation constants.
 Leave Link  601 at Mon Apr 19 09:07:29 2021, MaxMem=   104857600 cpu:             632.6 elap:              13.7
 (Enter /s/ls4/users/knvvv/bin/g16sse/l9999.exe)

 Test job not archived.
 1\1\GINC-N148\Stability\RM062X\Gen\C3H9P1\KNVVV\19-Apr-2021\0\\#P M062
 X/GEN Integral=UltraFineGrid SCF=NoSymm Stable=(RExt, Opt) IOp(1/33=1)
 \\Database calculations.\\0,1\P,0,0.,0.,-0.9470239994\C,0,0.8125266841
 ,-1.4073374994,-0.0515431678\C,0,0.8125266841,1.4073374994,-0.05154316
 78\C,0,-1.6250533683,0.,-0.0515431678\H,0,-2.2018046945,0.8834826368,-
 0.3333330225\H,0,-2.2018046945,-0.8834826368,-0.3333330225\H,0,-1.4833
 846539,0.,1.0338838793\H,0,1.8660207545,-1.4650774812,-0.3333330225\H,
 0,0.7416923269,-1.2846487938,1.0338838793\H,0,0.33578394,-2.348560118,
 -0.3333330225\H,0,0.33578394,2.348560118,-0.3333330225\H,0,1.866020754
 5,1.4650774812,-0.3333330225\H,0,0.7416923269,1.2846487938,1.033883879
 3\\Version=ES64L-G16RevA.03\State=1-A1\HF=-461.0904059\RMSD=2.604e-09\
 Dipole=0.,0.,0.4685461\Quadrupole=1.0947436,1.0947436,-2.1894871,0.,0.
 ,0.\PG=C03V [C3(P1),3SGV(C1H1),X(H6)]\\@


  DISAPPOINTMENT IS THE NURSE OF WISDOM.               
                              SIR BOYLE ROCHE                 
 Job cpu time:       1 days  7 hours 46 minutes 59.7 seconds.
 Elapsed time:       0 days  0 hours 53 minutes 53.6 seconds.
 File lengths (MBytes):  RWF=    566 Int=      0 D2E=      0 Chk=     36 Scr=      1
 Normal termination of Gaussian 16 at Mon Apr 19 09:07:29 2021.
