 Entering Gaussian System, Link 0=/s/ls4/users/knvvv/bin/g16sse/g16
 Input=data/database/M062X--def2-QZVPPD--19_F_AE18.gjf
 Output=data/database/M062X--def2-QZVPPD--19_F_AE18.log
 Initial command:
 /s/ls4/users/knvvv/bin/g16sse/l1.exe "/s/ls4/users/knvvv/bin/scratch/Gau-5722.inp" -scrdir="/s/ls4/users/knvvv/bin/scratch/"
 Entering Link 1 = /s/ls4/users/knvvv/bin/g16sse/l1.exe PID=      5723.
  
 Copyright (c) 1988,1990,1992,1993,1995,1998,2003,2009,2016,
            Gaussian, Inc.  All Rights Reserved.
  
 This is part of the Gaussian(R) 16 program.  It is based on
 the Gaussian(R) 09 system (copyright 2009, Gaussian, Inc.),
 the Gaussian(R) 03 system (copyright 2003, Gaussian, Inc.),
 the Gaussian(R) 98 system (copyright 1998, Gaussian, Inc.),
 the Gaussian(R) 94 system (copyright 1995, Gaussian, Inc.),
 the Gaussian 92(TM) system (copyright 1992, Gaussian, Inc.),
 the Gaussian 90(TM) system (copyright 1990, Gaussian, Inc.),
 the Gaussian 88(TM) system (copyright 1988, Gaussian, Inc.),
 the Gaussian 86(TM) system (copyright 1986, Carnegie Mellon
 University), and the Gaussian 82(TM) system (copyright 1983,
 Carnegie Mellon University). Gaussian is a federally registered
 trademark of Gaussian, Inc.
  
 This software contains proprietary and confidential information,
 including trade secrets, belonging to Gaussian, Inc.
  
 This software is provided under written license and may be
 used, copied, transmitted, or stored only in accord with that
 written license.
  
 The following legend is applicable only to US Government
 contracts under FAR:
  
                    RESTRICTED RIGHTS LEGEND
  
 Use, reproduction and disclosure by the US Government is
 subject to restrictions as set forth in subparagraphs (a)
 and (c) of the Commercial Computer Software - Restricted
 Rights clause in FAR 52.227-19.
  
 Gaussian, Inc.
 340 Quinnipiac St., Bldg. 40, Wallingford CT 06492
  
  
 ---------------------------------------------------------------
 Warning -- This program may not be used in any manner that
 competes with the business of Gaussian, Inc. or will provide
 assistance to any competitor of Gaussian, Inc.  The licensee
 of this program is prohibited from giving any competitor of
 Gaussian, Inc. access to this program.  By using this program,
 the user acknowledges that Gaussian, Inc. is engaged in the
 business of creating and licensing software in the field of
 computational chemistry and represents and warrants to the
 licensee that it is not a competitor of Gaussian, Inc. and that
 it will not use this program in any manner prohibited above.
 ---------------------------------------------------------------
  

 Cite this work as:
 Gaussian 16, Revision A.03,
 M. J. Frisch, G. W. Trucks, H. B. Schlegel, G. E. Scuseria, 
 M. A. Robb, J. R. Cheeseman, G. Scalmani, V. Barone, 
 G. A. Petersson, H. Nakatsuji, X. Li, M. Caricato, A. V. Marenich, 
 J. Bloino, B. G. Janesko, R. Gomperts, B. Mennucci, H. P. Hratchian, 
 J. V. Ortiz, A. F. Izmaylov, J. L. Sonnenberg, D. Williams-Young, 
 F. Ding, F. Lipparini, F. Egidi, J. Goings, B. Peng, A. Petrone, 
 T. Henderson, D. Ranasinghe, V. G. Zakrzewski, J. Gao, N. Rega, 
 G. Zheng, W. Liang, M. Hada, M. Ehara, K. Toyota, R. Fukuda, 
 J. Hasegawa, M. Ishida, T. Nakajima, Y. Honda, O. Kitao, H. Nakai, 
 T. Vreven, K. Throssell, J. A. Montgomery, Jr., J. E. Peralta, 
 F. Ogliaro, M. J. Bearpark, J. J. Heyd, E. N. Brothers, K. N. Kudin, 
 V. N. Staroverov, T. A. Keith, R. Kobayashi, J. Normand, 
 K. Raghavachari, A. P. Rendell, J. C. Burant, S. S. Iyengar, 
 J. Tomasi, M. Cossi, J. M. Millam, M. Klene, C. Adamo, R. Cammi, 
 J. W. Ochterski, R. L. Martin, K. Morokuma, O. Farkas, 
 J. B. Foresman, and D. J. Fox, Gaussian, Inc., Wallingford CT, 2016.
 
 ******************************************
 Gaussian 16:  ES64L-G16RevA.03 25-Dec-2016
                17-Apr-2021 
 ******************************************
 %RWF=temp19_23528,70GB
 %nprocshared=48
 Will use up to   48 processors via shared memory.
 Default route: MaxDisk=80GB
 ----------------------------------------------------------------------
 #P M062X/GEN Integral=UltraFineGrid SCF=NoSymm Stable=(RExt, Opt) IOp(
 1/33=1)
 ----------------------------------------------------------------------
 1/33=1,38=1,172=1/1;
 2/12=2,17=6,18=5,40=1/2;
 3/5=7,11=2,25=1,30=1,74=-55,75=-5/1,2,3;
 4/9=2/1;
 5/5=2,38=5/2;
 6/7=2,8=2,9=2,10=2,28=1/1;
 8/6=1,10=90,11=11/1;
 9/8=-3,42=1,46=1/14;
 5/5=2,8=3,17=40,38=5/8(-2);
 6/7=2,8=2,9=2,10=2,28=1/1;
 99/5=1,9=1/99;
 Leave Link    1 at Sat Apr 17 16:19:41 2021, MaxMem=           0 cpu:               8.2 elap:               0.2
 (Enter /s/ls4/users/knvvv/bin/g16sse/l101.exe)
 ONIOM data not found on unit 2.
 ----------------------
 Database calculations.
 ----------------------
 TstMul:  ICh=     0
 TstMul:  Mul=     2
 TstMul:  ICh=     0
 TstMul:  Mul=     2
 Symbolic Z-matrix:
 Charge =  0 Multiplicity = 2
 F                     0.        0.        0. 
 
 RdStrC is calling ZToCFu for IStruc=1 NZ=     1.
 PrtBox:  NBox=     1 Levels=  0 BoxLen=    8.00 SMaxX=        0.00
          Shift=            0.000000            0.000000            0.000000
 Box      1 Number                   0 centers from      1 to      1:
 After GenITR:
 ITRead=  0
 MicOpt= -1
 ITRead=  0
 MicOpt= -1
 NAtoms=      1 NQM=        1 NQMF=       0 NMMI=      0 NMMIF=      0
                NMic=       0 NMicF=      0.
                    Isotopes and Nuclear Properties:
 (Nuclear quadrupole moments (NQMom) in fm**2, nuclear magnetic moments (NMagM)
  in nuclear magnetons)

  Atom         1
 IAtWgt=          19
 AtmWgt=  18.9984033
 NucSpn=           1
 AtZEff=  -0.0000000
 NQMom=    0.0000000
 NMagM=    2.6288670
 AtZNuc=   9.0000000
 No MM parameters found.
 Leave Link  101 at Sat Apr 17 16:19:42 2021, MaxMem=   104857600 cpu:               6.5 elap:               0.2
 (Enter /s/ls4/users/knvvv/bin/g16sse/l202.exe)
                          Input orientation:                          
 ---------------------------------------------------------------------
 Center     Atomic      Atomic             Coordinates (Angstroms)
 Number     Number       Type             X           Y           Z
 ---------------------------------------------------------------------
      1          9           0        0.000000    0.000000    0.000000
 ---------------------------------------------------------------------
 Stoichiometry    F(2)
 Framework group  OH[O(F)]
 Deg. of freedom     0
 Full point group                 OH      NOp  48
 Largest Abelian subgroup         D2H     NOp   8
 Largest concise Abelian subgroup C1      NOp   1
                         Standard orientation:                         
 ---------------------------------------------------------------------
 Center     Atomic      Atomic             Coordinates (Angstroms)
 Number     Number       Type             X           Y           Z
 ---------------------------------------------------------------------
      1          9           0        0.000000    0.000000    0.000000
 ---------------------------------------------------------------------
 Leave Link  202 at Sat Apr 17 16:19:43 2021, MaxMem=   104857600 cpu:              56.4 elap:               1.2
 (Enter /s/ls4/users/knvvv/bin/g16sse/l301.exe)
 General basis read from cards:  (5D, 7F)
 Centers:       1
 S 8 1.00
     Exponent=  1.3253597345D+05 Coefficients=  4.7387482743D-05
     Exponent=  1.9758112588D+04 Coefficients=  3.7070120897D-04
     Exponent=  4.4851996947D+03 Coefficients=  1.9450784713D-03
     Exponent=  1.2738151020D+03 Coefficients=  8.0573291994D-03
     Exponent=  4.1893831236D+02 Coefficients=  2.7992880781D-02
     Exponent=  1.5255721985D+02 Coefficients=  8.2735120175D-02
     Exponent=  5.9821524823D+01 Coefficients=  1.9854169012D-01
     Exponent=  2.4819076932D+01 Coefficients=  3.4860632233D-01
 S 2 1.00
     Exponent=  1.0074446673D+02 Coefficients=  1.0505068816D-01
     Exponent=  3.0103728290D+01 Coefficients=  9.4068472434D-01
 S 1 1.00
     Exponent=  1.0814283272D+01 Coefficients=  1.0000000000D+00
 S 1 1.00
     Exponent=  4.8172886770D+00 Coefficients=  1.0000000000D+00
 S 1 1.00
     Exponent=  1.6559334213D+00 Coefficients=  1.0000000000D+00
 S 1 1.00
     Exponent=  6.4893519582D-01 Coefficients=  1.0000000000D+00
 S 1 1.00
     Exponent=  2.4778104545D-01 Coefficients=  1.0000000000D+00
 S 1 1.00
     Exponent=  8.7626236800D-02 Coefficients=  1.0000000000D+00
 P 5 1.00
     Exponent=  2.4096654114D+02 Coefficients=  3.0389933451D-03
     Exponent=  5.7020699781D+01 Coefficients=  2.4357738582D-02
     Exponent=  1.8126952120D+01 Coefficients=  1.1442925768D-01
     Exponent=  6.6457404621D+00 Coefficients=  3.7064659853D-01
     Exponent=  2.6375722892D+00 Coefficients=  7.9791551766D-01
 P 1 1.00
     Exponent=  1.0638217200D+00 Coefficients=  1.0000000000D+00
 P 1 1.00
     Exponent=  4.1932562750D-01 Coefficients=  1.0000000000D+00
 P 1 1.00
     Exponent=  1.5747588299D-01 Coefficients=  1.0000000000D+00
 P 1 1.00
     Exponent=  4.6772400332D-02 Coefficients=  1.0000000000D+00
 D 1 1.00
     Exponent=  5.0140000000D+00 Coefficients=  1.0000000000D+00
 D 1 1.00
     Exponent=  1.7250000000D+00 Coefficients=  1.0000000000D+00
 D 1 1.00
     Exponent=  5.8600000000D-01 Coefficients=  1.0000000000D+00
 D 1 1.00
     Exponent=  1.5967986245D-01 Coefficients=  1.0000000000D+00
 F 1 1.00
     Exponent=  3.5620000000D+00 Coefficients=  1.0000000000D+00
 F 1 1.00
     Exponent=  1.1480000000D+00 Coefficients=  1.0000000000D+00
 G 1 1.00
     Exponent=  2.3760000000D+00 Coefficients=  1.0000000000D+00
 ****
 Ernie: Thresh=  0.10000D-02 Tol=  0.10000D-05 Strict=F.
 There are    26 symmetry adapted cartesian basis functions of AG  symmetry.
 There are     7 symmetry adapted cartesian basis functions of B1G symmetry.
 There are     7 symmetry adapted cartesian basis functions of B2G symmetry.
 There are     7 symmetry adapted cartesian basis functions of B3G symmetry.
 There are     2 symmetry adapted cartesian basis functions of AU  symmetry.
 There are    11 symmetry adapted cartesian basis functions of B1U symmetry.
 There are    11 symmetry adapted cartesian basis functions of B2U symmetry.
 There are    11 symmetry adapted cartesian basis functions of B3U symmetry.
 There are    19 symmetry adapted basis functions of AG  symmetry.
 There are     6 symmetry adapted basis functions of B1G symmetry.
 There are     6 symmetry adapted basis functions of B2G symmetry.
 There are     6 symmetry adapted basis functions of B3G symmetry.
 There are     2 symmetry adapted basis functions of AU  symmetry.
 There are     9 symmetry adapted basis functions of B1U symmetry.
 There are     9 symmetry adapted basis functions of B2U symmetry.
 There are     9 symmetry adapted basis functions of B3U symmetry.
    66 basis functions,   102 primitive gaussians,    82 cartesian basis functions
     5 alpha electrons        4 beta electrons
       nuclear repulsion energy         0.0000000000 Hartrees.
 IExCor= 4336 DFT=T Ex+Corr=M062X ExCW=0 ScaHFX=  0.540000
 ScaDFX=  1.000000  1.000000  1.000000  1.000000 ScalE2=  1.000000  1.000000
 IRadAn=      5 IRanWt=     -1 IRanGd=            0 ICorTp=0 IEmpDi=  4
 NAtoms=    1 NActive=    1 NUniq=    1 SFac= 1.00D+00 NAtFMM=   60 NAOKFM=F Big=F
 Integral buffers will be    131072 words long.
 Raffenetti 2 integral format.
 Two-electron integral symmetry is turned on.
 Leave Link  301 at Sat Apr 17 16:19:43 2021, MaxMem=   104857600 cpu:               7.2 elap:               0.2
 (Enter /s/ls4/users/knvvv/bin/g16sse/l302.exe)
 NPDir=0 NMtPBC=     1 NCelOv=     1 NCel=       1 NClECP=     1 NCelD=      1
         NCelK=      1 NCelE2=     1 NClLst=     1 CellRange=     0.0.
 One-electron integrals computed using PRISM.
 One-electron integral symmetry used in STVInt
 PrsmSu:  requested number of processors reduced to:   4 ShMem   1 Linda.
 PrsmSu:  requested number of processors reduced to:  21 ShMem   1 Linda.
 NBasis=    66 RedAO= T EigKep=  5.01D-03  NBF=    19     6     6     6     2     9     9     9
 NBsUse=    66 1.00D-06 EigRej= -1.00D+00 NBFU=    19     6     6     6     2     9     9     9
 Precomputing XC quadrature grid using
 IXCGrd= 4 IRadAn=           5 IRanWt=          -1 IRanGd=           0 AccXCQ= 0.00D+00.
 Generated NRdTot=       0 NPtTot=           0 NUsed=           0 NTot=          32
 NSgBfM=    82    82    82    82    82 MxSgAt=     1 MxSgA2=     1.
 Leave Link  302 at Sat Apr 17 16:19:56 2021, MaxMem=   104857600 cpu:             622.0 elap:              13.3
 (Enter /s/ls4/users/knvvv/bin/g16sse/l303.exe)
 DipDrv:  MaxL=1.
 Leave Link  303 at Sat Apr 17 16:19:57 2021, MaxMem=   104857600 cpu:              16.9 elap:               0.4
 (Enter /s/ls4/users/knvvv/bin/g16sse/l401.exe)
 SCF N**3 symmetry information disabled.
 ExpMin= 4.68D-02 ExpMax= 1.33D+05 ExpMxC= 1.27D+03 IAcc=3 IRadAn=         5 AccDes= 0.00D+00
 Harris functional with IExCor= 1009 and IRadAn=       5 diagonalized for initial guess.
 HarFok:  IExCor= 1009 AccDes= 0.00D+00 IRadAn=         5 IDoV= 1 UseB2=F ITyADJ=14
 ICtDFT=  3500011 ScaDFX=  1.000000  1.000000  1.000000  1.000000
 FoFCou: FMM=F IPFlag=           0 FMFlag=      100000 FMFlg1=           0
         NFxFlg=           0 DoJE=T BraDBF=F KetDBF=T FulRan=T
         wScrn=  0.000000 ICntrl=       500 IOpCl=  0 I1Cent=   200000004 NGrid=           0
         NMat0=    1 NMatS0=      1 NMatT0=    0 NMatD0=    1 NMtDS0=    0 NMtDT0=    0
 Petite list used in FoFCou.
 CoulSu:  requested number of processors reduced to:  21 ShMem   1 Linda.
 CoulSu:  requested number of processors reduced to:  21 ShMem   1 Linda.
 CoulSu:  requested number of processors reduced to:  21 ShMem   1 Linda.
 CoulSu:  requested number of processors reduced to:  21 ShMem   1 Linda.
 Harris En= -99.6384931820280    
 JPrj=0 DoOrth=F DoCkMO=F.
 Initial guess orbital symmetries:
 Alpha Orbitals:
       Occupied  (A1G) (A1G) (T1U) (T1U) (T1U)
       Virtual   (A1G) (T1U) (T1U) (T1U) (T2G) (T2G) (T2G) (EG)
                 (EG) (T1U) (T1U) (T1U) (A1G) (T2G) (T2G) (T2G)
                 (EG) (EG) (T1U) (T1U) (T1U) (A1G) (T2U) (T2U)
                 (T2U) (A2U) (T1U) (T1U) (T1U) (T2G) (T2G) (T2G)
                 (EG) (EG) (T1U) (T1U) (T1U) (T1G) (T1G) (T1G)
                 (T2G) (T2G) (T2G) (EG) (EG) (A1G) (T2U) (T2U)
                 (T2U) (A2U) (T1U) (T1U) (T1U) (A1G) (T2G) (T2G)
                 (T2G) (EG) (EG) (A1G) (A1G)
 Beta  Orbitals:
       Occupied  (A1G) (A1G) (T1U) (T1U)
       Virtual   (T1U) (A1G) (T1U) (T1U) (T1U) (T2G) (T2G) (T2G)
                 (EG) (EG) (T1U) (T1U) (T1U) (A1G) (T2G) (T2G)
                 (T2G) (EG) (EG) (T1U) (T1U) (T1U) (A1G) (T2U)
                 (T2U) (T2U) (A2U) (T1U) (T1U) (T1U) (T2G) (T2G)
                 (T2G) (EG) (EG) (T1U) (T1U) (T1U) (T1G) (T1G)
                 (T1G) (T2G) (T2G) (T2G) (EG) (EG) (A1G) (T2U)
                 (T2U) (T2U) (A2U) (T1U) (T1U) (T1U) (A1G) (T2G)
                 (T2G) (T2G) (EG) (EG) (A1G) (A1G)
 Initial guess <Sx>= 0.0000 <Sy>= 0.0000 <Sz>= 0.5000 <S**2>= 0.7500 S= 0.5000
 Leave Link  401 at Sat Apr 17 16:20:07 2021, MaxMem=   104857600 cpu:             461.5 elap:              10.0
 (Enter /s/ls4/users/knvvv/bin/g16sse/l502.exe)
 Keep R1 and R2 ints in memory in symmetry-blocked form, NReq=56617520.
 FoFCou: FMM=F IPFlag=           0 FMFlag=           0 FMFlg1=           0
         NFxFlg=           0 DoJE=F BraDBF=F KetDBF=F FulRan=T
         wScrn=  0.000000 ICntrl=       600 IOpCl=  0 I1Cent=           0 NGrid=           0
         NMat0=    1 NMatS0=   2211 NMatT0=    0 NMatD0=    1 NMtDS0=    0 NMtDT0=    0
 Petite list used in FoFCou.
 CoulSu:  requested number of processors reduced to:  22 ShMem   1 Linda.
 UHF open shell SCF:
 Using DIIS extrapolation, IDIIS=  1040.
 NGot=   104857600 LenX=   104191107 LenY=   104183942
 Requested convergence on RMS density matrix=1.00D-08 within 128 cycles.
 Requested convergence on MAX density matrix=1.00D-06.
 Requested convergence on             energy=1.00D-06.
 No special actions if energy rises.

 Cycle   1  Pass 1  IDiag  1:
 Density matrix breaks symmetry, PCut= 1.00D-04
 Density has only Abelian symmetry.
 E= -99.7339041690952    
 DIIS: error= 5.79D-02 at cycle   1 NSaved=   1.
 NSaved= 1 IEnMin= 1 EnMin= -99.7339041690952     IErMin= 1 ErrMin= 5.79D-02
 ErrMax= 5.79D-02  0.00D+00 EMaxC= 1.00D-01 BMatC= 1.48D-01 BMatP= 1.48D-01
 IDIUse=3 WtCom= 4.21D-01 WtEn= 5.79D-01
 Coeff-Com:  0.100D+01
 Coeff-En:   0.100D+01
 Coeff:      0.100D+01
 Gap=     0.794 Goal=   None    Shift=    0.000
 Gap=     0.381 Goal=   None    Shift=    0.000
 GapD=    0.381 DampG=1.000 DampE=0.500 DampFc=0.5000 IDamp=-1.
 Damping current iteration by 5.00D-01
 RMSDP=9.10D-04 MaxDP=1.58D-02              OVMax= 4.58D-02

 Cycle   2  Pass 1  IDiag  1:
 Density matrix breaks symmetry, PCut= 1.00D-04
 Density has only Abelian symmetry.
 E= -99.7371806621257     Delta-E=       -0.003276493030 Rises=F Damp=T
 DIIS: error= 2.87D-02 at cycle   2 NSaved=   2.
 NSaved= 2 IEnMin= 2 EnMin= -99.7371806621257     IErMin= 2 ErrMin= 2.87D-02
 ErrMax= 2.87D-02  0.00D+00 EMaxC= 1.00D-01 BMatC= 3.52D-02 BMatP= 1.48D-01
 IDIUse=3 WtCom= 7.13D-01 WtEn= 2.87D-01
 Coeff-Com: -0.818D+00 0.182D+01
 Coeff-En:   0.000D+00 0.100D+01
 Coeff:     -0.583D+00 0.158D+01
 Gap=     0.640 Goal=   None    Shift=    0.000
 Gap=     0.371 Goal=   None    Shift=    0.000
 RMSDP=5.12D-04 MaxDP=8.73D-03 DE=-3.28D-03 OVMax= 1.33D-02

 Cycle   3  Pass 1  IDiag  1:
 Density matrix breaks symmetry, PCut= 1.00D-04
 Density has only Abelian symmetry.
 E= -99.7406522764352     Delta-E=       -0.003471614310 Rises=F Damp=F
 DIIS: error= 4.25D-03 at cycle   3 NSaved=   3.
 NSaved= 3 IEnMin= 3 EnMin= -99.7406522764352     IErMin= 3 ErrMin= 4.25D-03
 ErrMax= 4.25D-03  0.00D+00 EMaxC= 1.00D-01 BMatC= 1.25D-03 BMatP= 3.52D-02
 IDIUse=3 WtCom= 9.58D-01 WtEn= 4.25D-02
 Coeff-Com: -0.271D+00 0.513D+00 0.759D+00
 Coeff-En:   0.000D+00 0.000D+00 0.100D+01
 Coeff:     -0.260D+00 0.491D+00 0.769D+00
 Gap=     0.650 Goal=   None    Shift=    0.000
 Gap=     0.372 Goal=   None    Shift=    0.000
 RMSDP=9.01D-05 MaxDP=2.14D-03 DE=-3.47D-03 OVMax= 5.63D-03

 Cycle   4  Pass 1  IDiag  1:
 Density matrix breaks symmetry, PCut= 1.00D-04
 Density has only Abelian symmetry.
 E= -99.7408165871775     Delta-E=       -0.000164310742 Rises=F Damp=F
 DIIS: error= 6.40D-04 at cycle   4 NSaved=   4.
 NSaved= 4 IEnMin= 4 EnMin= -99.7408165871775     IErMin= 4 ErrMin= 6.40D-04
 ErrMax= 6.40D-04  0.00D+00 EMaxC= 1.00D-01 BMatC= 2.52D-05 BMatP= 1.25D-03
 IDIUse=3 WtCom= 9.94D-01 WtEn= 6.40D-03
 Coeff-Com:  0.105D+00-0.205D+00-0.154D+00 0.125D+01
 Coeff-En:   0.000D+00 0.000D+00 0.000D+00 0.100D+01
 Coeff:      0.104D+00-0.204D+00-0.153D+00 0.125D+01
 Gap=     0.651 Goal=   None    Shift=    0.000
 Gap=     0.372 Goal=   None    Shift=    0.000
 RMSDP=2.73D-05 MaxDP=6.32D-04 DE=-1.64D-04 OVMax= 1.22D-03

 Cycle   5  Pass 1  IDiag  1:
 Density matrix breaks symmetry, PCut= 1.00D-04
 Density has only Abelian symmetry.
 E= -99.7408231568345     Delta-E=       -0.000006569657 Rises=F Damp=F
 DIIS: error= 6.86D-05 at cycle   5 NSaved=   5.
 NSaved= 5 IEnMin= 5 EnMin= -99.7408231568345     IErMin= 5 ErrMin= 6.86D-05
 ErrMax= 6.86D-05  0.00D+00 EMaxC= 1.00D-01 BMatC= 3.81D-07 BMatP= 2.52D-05
 IDIUse=1 WtCom= 1.00D+00 WtEn= 0.00D+00
 Coeff-Com: -0.136D-01 0.276D-01 0.506D-02-0.226D+00 0.121D+01
 Coeff:     -0.136D-01 0.276D-01 0.506D-02-0.226D+00 0.121D+01
 Gap=     0.651 Goal=   None    Shift=    0.000
 Gap=     0.372 Goal=   None    Shift=    0.000
 RMSDP=3.85D-06 MaxDP=9.61D-05 DE=-6.57D-06 OVMax= 1.63D-04

 Cycle   6  Pass 1  IDiag  1:
 Density matrix breaks symmetry, PCut= 1.00D-04
 Density has only Abelian symmetry.
 E= -99.7408232910505     Delta-E=       -0.000000134216 Rises=F Damp=F
 DIIS: error= 9.59D-06 at cycle   6 NSaved=   6.
 NSaved= 6 IEnMin= 6 EnMin= -99.7408232910505     IErMin= 6 ErrMin= 9.59D-06
 ErrMax= 9.59D-06  0.00D+00 EMaxC= 1.00D-01 BMatC= 6.90D-09 BMatP= 3.81D-07
 IDIUse=1 WtCom= 1.00D+00 WtEn= 0.00D+00
 Coeff-Com: -0.159D-03 0.208D-03 0.265D-02 0.369D-02-0.189D+00 0.118D+01
 Coeff:     -0.159D-03 0.208D-03 0.265D-02 0.369D-02-0.189D+00 0.118D+01
 Gap=     0.651 Goal=   None    Shift=    0.000
 Gap=     0.372 Goal=   None    Shift=    0.000
 RMSDP=5.09D-07 MaxDP=1.12D-05 DE=-1.34D-07 OVMax= 2.59D-05

 Cycle   7  Pass 1  IDiag  1:
 Density matrix breaks symmetry, PCut= 1.00D-04
 Density has only Abelian symmetry.
 E= -99.7408232934460     Delta-E=       -0.000000002395 Rises=F Damp=F
 DIIS: error= 1.69D-06 at cycle   7 NSaved=   7.
 NSaved= 7 IEnMin= 7 EnMin= -99.7408232934460     IErMin= 7 ErrMin= 1.69D-06
 ErrMax= 1.69D-06  0.00D+00 EMaxC= 1.00D-01 BMatC= 1.01D-10 BMatP= 6.90D-09
 IDIUse=1 WtCom= 1.00D+00 WtEn= 0.00D+00
 Coeff-Com:  0.121D-03-0.223D-03-0.524D-03 0.153D-02 0.270D-01-0.259D+00
 Coeff-Com:  0.123D+01
 Coeff:      0.121D-03-0.223D-03-0.524D-03 0.153D-02 0.270D-01-0.259D+00
 Coeff:      0.123D+01
 Gap=     0.651 Goal=   None    Shift=    0.000
 Gap=     0.372 Goal=   None    Shift=    0.000
 RMSDP=6.33D-08 MaxDP=1.34D-06 DE=-2.40D-09 OVMax= 4.26D-06

 Cycle   8  Pass 1  IDiag  1:
 Density matrix breaks symmetry, PCut= 1.00D-04
 Density has only Abelian symmetry.
 E= -99.7408232934848     Delta-E=       -0.000000000039 Rises=F Damp=F
 DIIS: error= 1.31D-07 at cycle   8 NSaved=   8.
 NSaved= 8 IEnMin= 8 EnMin= -99.7408232934848     IErMin= 8 ErrMin= 1.31D-07
 ErrMax= 1.31D-07  0.00D+00 EMaxC= 1.00D-01 BMatC= 7.21D-13 BMatP= 1.01D-10
 IDIUse=1 WtCom= 1.00D+00 WtEn= 0.00D+00
 Coeff-Com: -0.383D-05 0.647D-05 0.334D-04-0.115D-03-0.195D-02 0.192D-01
 Coeff-Com: -0.158D+00 0.114D+01
 Coeff:     -0.383D-05 0.647D-05 0.334D-04-0.115D-03-0.195D-02 0.192D-01
 Coeff:     -0.158D+00 0.114D+01
 Gap=     0.651 Goal=   None    Shift=    0.000
 Gap=     0.372 Goal=   None    Shift=    0.000
 RMSDP=5.62D-09 MaxDP=1.59D-07 DE=-3.88D-11 OVMax= 3.14D-07

 Density matrix breaks symmetry, PCut= 1.00D-04
 Density has only Abelian symmetry.
 SCF Done:  E(UM062X) =  -99.7408232935     A.U. after    8 cycles
            NFock=  8  Conv=0.56D-08     -V/T= 2.0023
 <Sx>= 0.0000 <Sy>= 0.0000 <Sz>= 0.5000 <S**2>= 0.7519 S= 0.5009
 <L.S>= 0.000000000000E+00
 KE= 9.950755818959D+01 PE=-2.386647999456D+02 EE= 3.941641846248D+01
 Annihilation of the first spin contaminant:
 S**2 before annihilation     0.7519,   after     0.7500
 Leave Link  502 at Sat Apr 17 16:21:59 2021, MaxMem=   104857600 cpu:            5280.6 elap:             112.6
 (Enter /s/ls4/users/knvvv/bin/g16sse/l601.exe)
 Copying SCF densities to generalized density rwf, IOpCl= 1 IROHF=0.
 SCF density gives NOpUse=  8 NOpAll= 48.
 Marking SCF density as not fully symmetric.

 **********************************************************************

            Population analysis using the SCF density.

 **********************************************************************

 Orbital symmetries:
 Alpha Orbitals:
       Occupied  (A1G) (?A) (?B) (?B) (?B)
       Virtual   (?B) (?B) (?B) (A1G) (EG) (T2G) (T2G) (T2G) (EG)
                 (?B) (?B) (?B) (?A) (?A) (T2G) (T2G) (T2G) (?A)
                 (?B) (?B) (?B) (?A) (?B) (?B) (?B) (A2U) (?B)
                 (?B) (?B) (?A) (T2G) (T2G) (T2G) (?A) (?B) (?B)
                 (?B) (T2G) (?C) (?C) (?C) (T2G) (?C) (?C) (?C)
                 (T2G) (?D) (?D) (?D) (?D) (A2U) (?D) (?D) (T2G)
                 (T2G) (T2G) (T2G) (T2G) (T2G) (A1G) (A1G)
 Beta  Orbitals:
       Occupied  (A1G) (?A) (?B) (?B)
       Virtual   (?B) (?B) (?B) (?B) (?A) (?A) (T2G) (T2G) (?A)
                 (T2G) (?B) (?B) (?B) (?A) (?A) (T2G) (T2G) (?A)
                 (T2G) (?B) (?B) (?B) (?A) (?C) (?C) (A2U) (?C)
                 (?C) (?C) (?C) (T2G) (T2G) (?A) (?A) (T2G) (?B)
                 (?B) (?B) (T2G) (?D) (T2G) (?D) (T2G) (?D) (?D)
                 (?D) (?D) (?C) (?C) (?C) (?C) (?C) (A2U) (?C)
                 (T2G) (T2G) (T2G) (T2G) (T2G) (T2G) (A1G) (A1G)
 Unable to determine electronic state:  an orbital has unidentified symmetry.
 Alpha  occ. eigenvalues --  -25.34303  -1.38178  -0.66416  -0.58522  -0.58522
 Alpha virt. eigenvalues --    0.06578   0.07234   0.07234   0.10442   0.43277
 Alpha virt. eigenvalues --    0.43277   0.43280   0.43280   0.43286   0.48247
 Alpha virt. eigenvalues --    0.48711   0.48711   0.87610   1.63190   1.64396
 Alpha virt. eigenvalues --    1.64396   1.67316   1.67316   1.75260   1.79909
 Alpha virt. eigenvalues --    1.79909   3.74709   4.11038   4.11733   4.11733
 Alpha virt. eigenvalues --    4.13435   4.13435   4.16221   4.16221   5.11751
 Alpha virt. eigenvalues --    5.13375   5.13375   5.18772   5.18772   6.18025
 Alpha virt. eigenvalues --    6.25002   6.25002  11.22085  11.22636  11.22636
 Alpha virt. eigenvalues --   11.24218  11.24218  11.27012  11.27012  11.31158
 Alpha virt. eigenvalues --   11.31158  14.26147  14.27494  14.27494  14.31293
 Alpha virt. eigenvalues --   14.31293  14.37858  14.37858  14.60040  15.62396
 Alpha virt. eigenvalues --   15.65151  15.65151  15.73051  15.73051  53.82296
 Alpha virt. eigenvalues --  282.58481
  Beta  occ. eigenvalues --  -25.31978  -1.27589  -0.54588  -0.54588
  Beta virt. eigenvalues --   -0.17371   0.07187   0.07187   0.08415   0.09721
  Beta virt. eigenvalues --    0.39315   0.41630   0.41630   0.43510   0.43510
  Beta virt. eigenvalues --    0.47332   0.48604   0.48604   0.87970   1.66628
  Beta virt. eigenvalues --    1.66932   1.66932   1.67741   1.67741   1.80523
  Beta virt. eigenvalues --    1.81053   1.81053   3.80005   4.12870   4.14359
  Beta virt. eigenvalues --    4.14359   4.14398   4.14398   4.15733   4.15733
  Beta virt. eigenvalues --    5.16953   5.16953   5.19092   5.20189   5.20189
  Beta virt. eigenvalues --    6.27660   6.27660   6.29366  11.28260  11.28261
  Beta virt. eigenvalues --   11.29114  11.29114  11.29206  11.30488  11.30488
  Beta virt. eigenvalues --   11.30817  11.30817  14.39229  14.39229  14.44768
  Beta virt. eigenvalues --   14.44768  14.46796  14.46796  14.51830  14.71564
  Beta virt. eigenvalues --   15.78190  15.78190  15.84403  15.84403  15.90633
  Beta virt. eigenvalues --   53.86555 282.56639
          Condensed to atoms (all electrons):
               1
     1  F    9.000000
          Atomic-Atomic Spin Densities.
               1
     1  F    1.000000
 Mulliken charges and spin densities:
               1          2
     1  F   -0.000000   1.000000
 Sum of Mulliken charges =  -0.00000   1.00000
 Mulliken charges and spin densities with hydrogens summed into heavy atoms:
               1          2
     1  F   -0.000000   1.000000
 Electronic spatial extent (au):  <R**2>=             10.4967
 Charge=             -0.0000 electrons
 Dipole moment (field-independent basis, Debye):
    X=             -0.0000    Y=             -0.0000    Z=              0.0000  Tot=              0.0000
 Quadrupole moment (field-independent basis, Debye-Ang):
   XX=             -4.1014   YY=             -5.0085   ZZ=             -5.0085
   XY=              0.0000   XZ=             -0.0000   YZ=              0.0000
 Traceless Quadrupole moment (field-independent basis, Debye-Ang):
   XX=              0.6048   YY=             -0.3024   ZZ=             -0.3024
   XY=              0.0000   XZ=             -0.0000   YZ=              0.0000
 Octapole moment (field-independent basis, Debye-Ang**2):
  XXX=             -0.0000  YYY=             -0.0000  ZZZ=              0.0000  XYY=              0.0000
  XXY=             -0.0000  XXZ=             -0.0000  XZZ=             -0.0000  YZZ=             -0.0000
  YYZ=              0.0000  XYZ=             -0.0000
 Hexadecapole moment (field-independent basis, Debye-Ang**3):
 XXXX=             -2.2698 YYYY=             -3.3414 ZZZZ=             -3.3414 XXXY=              0.0000
 XXXZ=             -0.0000 YYYX=              0.0000 YYYZ=              0.0000 ZZZX=             -0.0000
 ZZZY=             -0.0000 XXYY=             -0.9358 XXZZ=             -0.9358 YYZZ=             -1.1138
 XXYZ=              0.0000 YYXZ=             -0.0000 ZZXY=              0.0000
 N-N= 0.000000000000D+00 E-N=-2.386647996486D+02  KE= 9.950755818959D+01
                          Isotropic Fermi Contact Couplings
        Atom                 a.u.       MegaHertz       Gauss      10(-4) cm-1
     1  F(19)              0.06048     254.45091      90.79441      84.87569
 PrsmSu:  requested number of processors reduced to:  21 ShMem   1 Linda.
 --------------------------------------------------------
       Center         ----  Spin Dipole Couplings  ----
                      3XX-RR        3YY-RR        3ZZ-RR
 --------------------------------------------------------
     1   Atom        6.338456     -3.169228     -3.169228
 --------------------------------------------------------
                        XY            XZ            YZ
 --------------------------------------------------------
     1   Atom        0.000000      0.000000      0.000000
 --------------------------------------------------------


 ---------------------------------------------------------------------------------
              Anisotropic Spin Dipole Couplings in Principal Axis System
 ---------------------------------------------------------------------------------

       Atom             a.u.   MegaHertz   Gauss  10(-4) cm-1        Axes

              Baa    -3.1692 -1591.667  -567.947  -530.923  0.0000  0.0000  1.0000
     1 F(19)  Bbb    -3.1692 -1591.667  -567.947  -530.923 -0.0000  1.0000  0.0000
              Bcc     6.3385  3183.335  1135.893  1061.846  1.0000  0.0000  0.0000
 

 ---------------------------------------------------------------------------------

 PrsmSu:  requested number of processors reduced to:  21 ShMem   1 Linda.
 No NMR shielding tensors so no spin-rotation constants.
 Leave Link  601 at Sat Apr 17 16:22:10 2021, MaxMem=   104857600 cpu:             495.1 elap:              10.7
 (Enter /s/ls4/users/knvvv/bin/g16sse/l801.exe)
 DoSCS=F DFT=T ScalE2(SS,OS)=  1.000000  1.000000
 Range of M.O.s used for correlation:     1    66
 NBasis=    66 NAE=     5 NBE=     4 NFC=     0 NFV=     0
 NROrb=     66 NOA=     5 NOB=     4 NVA=    61 NVB=    62
 Leave Link  801 at Sat Apr 17 16:22:10 2021, MaxMem=   104857600 cpu:               5.2 elap:               0.1
 (Enter /s/ls4/users/knvvv/bin/g16sse/l914.exe)
 UHF ground state
 Doing stability rather than CIS.
 Keep R1 and R2 ints in memory in symmetry-blocked form, NReq=80550903.
 FoFCou: FMM=F IPFlag=           0 FMFlag=           0 FMFlg1=           0
         NFxFlg=           0 DoJE=F BraDBF=F KetDBF=F FulRan=T
         wScrn=  0.000000 ICntrl=       600 IOpCl=  0 I1Cent=           0 NGrid=           0
         NMat0=    1 NMatS0=   2211 NMatT0=    0 NMatD0=    1 NMtDS0=    0 NMtDT0=    0
 Petite list used in FoFCou.
 CoulSu:  requested number of processors reduced to:  22 ShMem   1 Linda.
 MDV=   104857600 DFT=T DoStab=T Mixed=T DoRPA=F DoScal=F NonHer=F
 Making orbital integer symmetry assigments:
 Orbital symmetries:
 Alpha Orbitals:
       Occupied  (A1G) (?A) (?B) (?B) (?B)
       Virtual   (?B) (?B) (?B) (A1G) (EG) (T2G) (T2G) (T2G) (EG)
                 (?B) (?B) (?B) (?A) (?A) (T2G) (T2G) (T2G) (?A)
                 (?B) (?B) (?B) (?A) (?B) (?B) (?B) (A2U) (?B)
                 (?B) (?B) (?A) (T2G) (T2G) (T2G) (?A) (?B) (?B)
                 (?B) (T2G) (?C) (?C) (?C) (T2G) (?C) (?C) (?C)
                 (T2G) (?D) (?D) (?D) (?D) (A2U) (?D) (?D) (T2G)
                 (T2G) (T2G) (T2G) (T2G) (T2G) (A1G) (A1G)
 Beta  Orbitals:
       Occupied  (A1G) (?A) (?B) (?B)
       Virtual   (?B) (?B) (?B) (?B) (?A) (?A) (T2G) (T2G) (?A)
                 (T2G) (?B) (?B) (?B) (?A) (?A) (T2G) (T2G) (?A)
                 (T2G) (?B) (?B) (?B) (?A) (?C) (?C) (A2U) (?C)
                 (?C) (?C) (?C) (T2G) (T2G) (?A) (?A) (T2G) (?B)
                 (?B) (?B) (T2G) (?D) (T2G) (?D) (T2G) (?D) (?D)
                 (?D) (?D) (?C) (?C) (?C) (?C) (?C) (A2U) (?C)
                 (T2G) (T2G) (T2G) (T2G) (T2G) (T2G) (A1G) (A1G)
    24 initial guesses have been made.
 Convergence on wavefunction:    0.001000000000000
 Davidson Disk Diagonalization:  ConvIn= 1.00D-03 SkipCon=T Conv= 1.00D-03.
 Max sub-space:  1106 roots to seek:    24 dimension of matrix:          553
 Iteration     1 Dimension    24 NMult     0 NNew     24
 CISAX will form    24 AO SS matrices at one time.
 NMat=    24 NSing=    24 JSym2X= 2.
 Excitation Energies [eV] at current iteration:
 Root      1 :     0.555464400453637
 Root      2 :     0.555464400454338
 Root      3 :    13.793477569177740
 Root      4 :    13.793477569185180
 Root      5 :    13.935716062771950
 Root      6 :    13.935744467454960
 Root      7 :    13.937047520465710
 Root      8 :    14.039933013185860
 Root      9 :    14.039933013191200
 Root     10 :    14.151846661006990
 Root     11 :    14.833988898821790
 Root     12 :    14.833988898849230
 Root     13 :    14.858986832633180
 Root     14 :    14.858986832636640
 Root     15 :    14.972003056255210
 Root     16 :    14.972003478641940
 Root     17 :    15.005130579938740
 Root     18 :    15.948104398718210
 Root     19 :    16.827755848580330
 Root     20 :    17.116654464261460
 Root     21 :    17.116654464275280
 Root     22 :    17.728681795389770
 Root     23 :    21.678991220524340
 Root     24 :    21.678991220525480
 Iteration     2 Dimension    48 NMult    24 NNew     24
 CISAX will form    24 AO SS matrices at one time.
 NMat=    24 NSing=    24 JSym2X= 2.
 Root      1 not converged, maximum delta is    0.116398790707944
 Excitation Energies [eV] at current iteration:
 Root      1 :     0.001778261740884   Change is   -0.553686138712753
 Root      2 :     0.001778261741295   Change is   -0.553686138713043
 Root      3 :    13.558105411517000   Change is   -0.235372157660747
 Root      4 :    13.558105411523020   Change is   -0.235372157662161
 Root      5 :    13.713256401849280   Change is   -0.222459660922668
 Root      6 :    13.713283834671830   Change is   -0.222460632783135
 Root      7 :    13.867543120569300   Change is   -0.069504399896413
 Root      8 :    13.884348814312720   Change is   -0.267497846694269
 Root      9 :    13.943015091545190   Change is   -0.096917921640670
 Root     10 :    13.943015091553070   Change is   -0.096917921638127
 Root     11 :    14.624677865547480   Change is   -0.234308967085700
 Root     12 :    14.624677865550160   Change is   -0.234308967086480
 Root     13 :    14.689122733726530   Change is   -0.144866165095261
 Root     14 :    14.689122733748870   Change is   -0.144866165100360
 Root     15 :    14.755318661716370   Change is   -0.216684394538845
 Root     16 :    14.755319233019530   Change is   -0.216684245622414
 Root     17 :    14.933327458635550   Change is   -0.071803121303187
 Root     18 :    15.481415918781520   Change is   -0.466688479936698
 Root     19 :    16.506977722189870   Change is   -0.320778126390458
 Root     20 :    16.951005509086440   Change is   -0.165648955175024
 Root     21 :    16.951005509094900   Change is   -0.165648955180383
 Root     22 :    17.124479439606600   Change is   -0.604202355783170
 Root     23 :    21.546638731550100   Change is   -0.132352488974242
 Root     24 :    21.546638731551180   Change is   -0.132352488974297
 Iteration     3 Dimension    51 NMult    48 NNew      3
 CISAX will form     3 AO SS matrices at one time.
 NMat=     3 NSing=     3 JSym2X= 2.
 Root      1 not converged, maximum delta is    0.094783082813314
 Excitation Energies [eV] at current iteration:
 Root      1 :    -0.000095324195689   Change is   -0.001873585936573
 Root      2 :    -0.000095324195338   Change is   -0.001873585936633
 Root      3 :    13.552708657318370   Change is   -0.005396754198629
 Iteration     4 Dimension    54 NMult    51 NNew      3
 CISAX will form     3 AO SS matrices at one time.
 NMat=     3 NSing=     3 JSym2X= 2.
 DSYEVD-2 returned Info=        1594 IAlg= 4 N=    54 NDim=    54 NE2=     1884356 trying  DSYEV.
 Root      1 not converged, maximum delta is    0.103520574392009
 Excitation Energies [eV] at current iteration:
 Root      1 :    -0.000096657278260   Change is   -0.000001333082571
 Root      2 :    -0.000096657277927   Change is   -0.000001333082588
 Root      3 :    13.552595162791640   Change is   -0.000113494526727
 Iteration     5 Dimension    57 NMult    54 NNew      3
 CISAX will form     3 AO SS matrices at one time.
 NMat=     3 NSing=     3 JSym2X= 2.
 Root      1 not converged, maximum delta is    0.698965988572935
 Excitation Energies [eV] at current iteration:
 Root      1 :    -0.000096659148150   Change is   -0.000000001869891
 Root      2 :    -0.000096659148120   Change is   -0.000000001870194
 Root      3 :    13.552592786615700   Change is   -0.000002376175943
 Iteration     6 Dimension    58 NMult    57 NNew      1
 CISAX will form     1 AO SS matrices at one time.
 NMat=     1 NSing=     1 JSym2X= 2.
 New state      1 was old state      2
 Root      1 not converged, maximum delta is    0.351390665447158
 Excitation Energies [eV] at current iteration:
 Root      1 :    -0.000096659148108   Change is    0.000000000000012
 Root      2 :    -0.000096659147990   Change is    0.000000000000160
 Root      3 :    13.552592760349290   Change is   -0.000000026266408
 Convergence achieved on expansion vectors.
 ***********************************************************************
 Stability analysis using <AA,BB:AA,BB> singles matrix:
 ***********************************************************************
 1PDM for each excited state written to RWF  633
 Ground to excited state transition densities written to RWF  633

 Eigenvectors of the stability matrix:
 
 Excited state symmetry could not be determined.
 Eigenvector   1:  2.004-?Sym  Eigenvalue=-0.0000036  <S**2>=0.754
      3B ->  5B       -0.41847
      4B ->  5B        0.88902
      4B ->  8B       -0.11788
      4B -> 15B       -0.10434
 
 Excited state symmetry could not be determined.
 Eigenvector   2:  2.004-?Sym  Eigenvalue=-0.0000036  <S**2>=0.754
      3B ->  5B        0.88902
      3B ->  8B       -0.11788
      3B -> 15B       -0.10434
      4B ->  5B        0.41847
 
 Excited state symmetry could not be determined.
 Eigenvector   3:  3.028-?Sym  Eigenvalue= 0.4980486  <S**2>=2.042
      5A ->  9A       -0.14021
      3B ->  9B        0.95488
      4B ->  9B        0.23087
 The wavefunction is stable under the perturbations considered.
 Leave Link  914 at Sat Apr 17 16:22:29 2021, MaxMem=   104857600 cpu:             858.1 elap:              18.6
 (Enter /s/ls4/users/knvvv/bin/g16sse/l508.exe)
 The wavefunction is already stable.
 Leave Link  508 at Sat Apr 17 16:22:29 2021, MaxMem=   104857600 cpu:               2.2 elap:               0.1
 (Enter /s/ls4/users/knvvv/bin/g16sse/l601.exe)
 Copying SCF densities to generalized density rwf, IOpCl= 1 IROHF=0.
 SCF density gives NOpUse=  8 NOpAll= 48.
 Marking SCF density as not fully symmetric.

 **********************************************************************

            Population analysis using the SCF density.

 **********************************************************************

 Orbital symmetries:
 Alpha Orbitals:
       Occupied  (A1G) (?A) (?B) (?B) (?B)
       Virtual   (?B) (?B) (?B) (A1G) (EG) (T2G) (T2G) (T2G) (EG)
                 (?B) (?B) (?B) (?A) (?A) (T2G) (T2G) (T2G) (?A)
                 (?B) (?B) (?B) (?A) (?B) (?B) (?B) (A2U) (?B)
                 (?B) (?B) (?A) (T2G) (T2G) (T2G) (?A) (?B) (?B)
                 (?B) (T2G) (?C) (?C) (?C) (T2G) (?C) (?C) (?C)
                 (T2G) (?D) (?D) (?D) (?D) (A2U) (?D) (?D) (T2G)
                 (T2G) (T2G) (T2G) (T2G) (T2G) (A1G) (A1G)
 Beta  Orbitals:
       Occupied  (A1G) (?A) (?B) (?B)
       Virtual   (?B) (?B) (?B) (?B) (?A) (?A) (T2G) (T2G) (?A)
                 (T2G) (?B) (?B) (?B) (?A) (?A) (T2G) (T2G) (?A)
                 (T2G) (?B) (?B) (?B) (?A) (?C) (?C) (A2U) (?C)
                 (?C) (?C) (?C) (T2G) (T2G) (?A) (?A) (T2G) (?B)
                 (?B) (?B) (T2G) (?D) (T2G) (?D) (T2G) (?D) (?D)
                 (?D) (?D) (?C) (?C) (?C) (?C) (?C) (A2U) (?C)
                 (T2G) (T2G) (T2G) (T2G) (T2G) (T2G) (A1G) (A1G)
 Unable to determine electronic state:  an orbital has unidentified symmetry.
 Alpha  occ. eigenvalues --  -25.34303  -1.38178  -0.66416  -0.58522  -0.58522
 Alpha virt. eigenvalues --    0.06578   0.07234   0.07234   0.10442   0.43277
 Alpha virt. eigenvalues --    0.43277   0.43280   0.43280   0.43286   0.48247
 Alpha virt. eigenvalues --    0.48711   0.48711   0.87610   1.63190   1.64396
 Alpha virt. eigenvalues --    1.64396   1.67316   1.67316   1.75260   1.79909
 Alpha virt. eigenvalues --    1.79909   3.74709   4.11038   4.11733   4.11733
 Alpha virt. eigenvalues --    4.13435   4.13435   4.16221   4.16221   5.11751
 Alpha virt. eigenvalues --    5.13375   5.13375   5.18772   5.18772   6.18025
 Alpha virt. eigenvalues --    6.25002   6.25002  11.22085  11.22636  11.22636
 Alpha virt. eigenvalues --   11.24218  11.24218  11.27012  11.27012  11.31158
 Alpha virt. eigenvalues --   11.31158  14.26147  14.27494  14.27494  14.31293
 Alpha virt. eigenvalues --   14.31293  14.37858  14.37858  14.60040  15.62396
 Alpha virt. eigenvalues --   15.65151  15.65151  15.73051  15.73051  53.82296
 Alpha virt. eigenvalues --  282.58481
  Beta  occ. eigenvalues --  -25.31978  -1.27589  -0.54588  -0.54588
  Beta virt. eigenvalues --   -0.17371   0.07187   0.07187   0.08415   0.09721
  Beta virt. eigenvalues --    0.39315   0.41630   0.41630   0.43510   0.43510
  Beta virt. eigenvalues --    0.47332   0.48604   0.48604   0.87970   1.66628
  Beta virt. eigenvalues --    1.66932   1.66932   1.67741   1.67741   1.80523
  Beta virt. eigenvalues --    1.81053   1.81053   3.80005   4.12870   4.14359
  Beta virt. eigenvalues --    4.14359   4.14398   4.14398   4.15733   4.15733
  Beta virt. eigenvalues --    5.16953   5.16953   5.19092   5.20189   5.20189
  Beta virt. eigenvalues --    6.27660   6.27660   6.29366  11.28260  11.28261
  Beta virt. eigenvalues --   11.29114  11.29114  11.29206  11.30488  11.30488
  Beta virt. eigenvalues --   11.30817  11.30817  14.39229  14.39229  14.44768
  Beta virt. eigenvalues --   14.44768  14.46796  14.46796  14.51830  14.71564
  Beta virt. eigenvalues --   15.78190  15.78190  15.84403  15.84403  15.90633
  Beta virt. eigenvalues --   53.86555 282.56639
          Condensed to atoms (all electrons):
               1
     1  F    9.000000
          Atomic-Atomic Spin Densities.
               1
     1  F    1.000000
 Mulliken charges and spin densities:
               1          2
     1  F   -0.000000   1.000000
 Sum of Mulliken charges =  -0.00000   1.00000
 Mulliken charges and spin densities with hydrogens summed into heavy atoms:
               1          2
     1  F   -0.000000   1.000000
 Electronic spatial extent (au):  <R**2>=             10.4967
 Charge=             -0.0000 electrons
 Dipole moment (field-independent basis, Debye):
    X=             -0.0000    Y=             -0.0000    Z=              0.0000  Tot=              0.0000
 Quadrupole moment (field-independent basis, Debye-Ang):
   XX=             -4.1014   YY=             -5.0085   ZZ=             -5.0085
   XY=              0.0000   XZ=             -0.0000   YZ=              0.0000
 Traceless Quadrupole moment (field-independent basis, Debye-Ang):
   XX=              0.6048   YY=             -0.3024   ZZ=             -0.3024
   XY=              0.0000   XZ=             -0.0000   YZ=              0.0000
 Octapole moment (field-independent basis, Debye-Ang**2):
  XXX=             -0.0000  YYY=             -0.0000  ZZZ=              0.0000  XYY=              0.0000
  XXY=             -0.0000  XXZ=             -0.0000  XZZ=             -0.0000  YZZ=             -0.0000
  YYZ=              0.0000  XYZ=             -0.0000
 Hexadecapole moment (field-independent basis, Debye-Ang**3):
 XXXX=             -2.2698 YYYY=             -3.3414 ZZZZ=             -3.3414 XXXY=              0.0000
 XXXZ=             -0.0000 YYYX=              0.0000 YYYZ=              0.0000 ZZZX=             -0.0000
 ZZZY=             -0.0000 XXYY=             -0.9358 XXZZ=             -0.9358 YYZZ=             -1.1138
 XXYZ=              0.0000 YYXZ=             -0.0000 ZZXY=              0.0000
 N-N= 0.000000000000D+00 E-N=-2.386647996486D+02  KE= 9.950755818959D+01
                          Isotropic Fermi Contact Couplings
        Atom                 a.u.       MegaHertz       Gauss      10(-4) cm-1
     1  F(19)              0.06048     254.45091      90.79441      84.87569
 PrsmSu:  requested number of processors reduced to:  21 ShMem   1 Linda.
 --------------------------------------------------------
       Center         ----  Spin Dipole Couplings  ----
                      3XX-RR        3YY-RR        3ZZ-RR
 --------------------------------------------------------
     1   Atom        6.338456     -3.169228     -3.169228
 --------------------------------------------------------
                        XY            XZ            YZ
 --------------------------------------------------------
     1   Atom        0.000000      0.000000      0.000000
 --------------------------------------------------------


 ---------------------------------------------------------------------------------
              Anisotropic Spin Dipole Couplings in Principal Axis System
 ---------------------------------------------------------------------------------

       Atom             a.u.   MegaHertz   Gauss  10(-4) cm-1        Axes

              Baa    -3.1692 -1591.667  -567.947  -530.923  0.0000  0.0000  1.0000
     1 F(19)  Bbb    -3.1692 -1591.667  -567.947  -530.923 -0.0000  1.0000  0.0000
              Bcc     6.3385  3183.335  1135.893  1061.846  1.0000  0.0000  0.0000
 

 ---------------------------------------------------------------------------------

 PrsmSu:  requested number of processors reduced to:  21 ShMem   1 Linda.
 No NMR shielding tensors so no spin-rotation constants.
 Leave Link  601 at Sat Apr 17 16:22:38 2021, MaxMem=   104857600 cpu:             429.9 elap:               9.3
 (Enter /s/ls4/users/knvvv/bin/g16sse/l9999.exe)

 Test job not archived.
 1\1\GINC-N185\Stability\UM062X\Gen\F1(2)\KNVVV\17-Apr-2021\0\\#P M062X
 /GEN Integral=UltraFineGrid SCF=NoSymm Stable=(RExt, Opt) IOp(1/33=1)\
 \Database calculations.\\0,2\F,0,0.,0.,0.\\Version=ES64L-G16RevA.03\HF
 =-99.7408233\S2=0.751859\S2-1=0.\S2A=0.750002\RMSD=5.620e-09\Dipole=0.
 ,0.,0.\Quadrupole=-0.2248177,-0.2248177,0.4496354,0.,0.,0.\PG=OH [O(F1
 )]\\@


 WHEN YOU REACH FOR THE STARS, YOU MAY NOT QUITE GET ONE,
 BUT YOU WON'T COME UP WITH A HANDFUL OF MUD, EITHER.

                                         -- LEO BURNETT (AD AGENCY HEAD)
 Job cpu time:       0 days  2 hours 17 minutes 37.5 seconds.
 Elapsed time:       0 days  0 hours  2 minutes 57.0 seconds.
 File lengths (MBytes):  RWF=     19 Int=      0 D2E=      0 Chk=      2 Scr=      1
 Normal termination of Gaussian 16 at Sat Apr 17 16:22:38 2021.
