 Entering Gaussian System, Link 0=/s/ls4/users/knvvv/bin/g16sse/g16
 Input=data/database/M062X--def2-QZVPPD--15_B_AE18.gjf
 Output=data/database/M062X--def2-QZVPPD--15_B_AE18.log
 Initial command:
 /s/ls4/users/knvvv/bin/g16sse/l1.exe "/s/ls4/users/knvvv/bin/scratch/Gau-41815.inp" -scrdir="/s/ls4/users/knvvv/bin/scratch/"
 Entering Link 1 = /s/ls4/users/knvvv/bin/g16sse/l1.exe PID=     41816.
  
 Copyright (c) 1988,1990,1992,1993,1995,1998,2003,2009,2016,
            Gaussian, Inc.  All Rights Reserved.
  
 This is part of the Gaussian(R) 16 program.  It is based on
 the Gaussian(R) 09 system (copyright 2009, Gaussian, Inc.),
 the Gaussian(R) 03 system (copyright 2003, Gaussian, Inc.),
 the Gaussian(R) 98 system (copyright 1998, Gaussian, Inc.),
 the Gaussian(R) 94 system (copyright 1995, Gaussian, Inc.),
 the Gaussian 92(TM) system (copyright 1992, Gaussian, Inc.),
 the Gaussian 90(TM) system (copyright 1990, Gaussian, Inc.),
 the Gaussian 88(TM) system (copyright 1988, Gaussian, Inc.),
 the Gaussian 86(TM) system (copyright 1986, Carnegie Mellon
 University), and the Gaussian 82(TM) system (copyright 1983,
 Carnegie Mellon University). Gaussian is a federally registered
 trademark of Gaussian, Inc.
  
 This software contains proprietary and confidential information,
 including trade secrets, belonging to Gaussian, Inc.
  
 This software is provided under written license and may be
 used, copied, transmitted, or stored only in accord with that
 written license.
  
 The following legend is applicable only to US Government
 contracts under FAR:
  
                    RESTRICTED RIGHTS LEGEND
  
 Use, reproduction and disclosure by the US Government is
 subject to restrictions as set forth in subparagraphs (a)
 and (c) of the Commercial Computer Software - Restricted
 Rights clause in FAR 52.227-19.
  
 Gaussian, Inc.
 340 Quinnipiac St., Bldg. 40, Wallingford CT 06492
  
  
 ---------------------------------------------------------------
 Warning -- This program may not be used in any manner that
 competes with the business of Gaussian, Inc. or will provide
 assistance to any competitor of Gaussian, Inc.  The licensee
 of this program is prohibited from giving any competitor of
 Gaussian, Inc. access to this program.  By using this program,
 the user acknowledges that Gaussian, Inc. is engaged in the
 business of creating and licensing software in the field of
 computational chemistry and represents and warrants to the
 licensee that it is not a competitor of Gaussian, Inc. and that
 it will not use this program in any manner prohibited above.
 ---------------------------------------------------------------
  

 Cite this work as:
 Gaussian 16, Revision A.03,
 M. J. Frisch, G. W. Trucks, H. B. Schlegel, G. E. Scuseria, 
 M. A. Robb, J. R. Cheeseman, G. Scalmani, V. Barone, 
 G. A. Petersson, H. Nakatsuji, X. Li, M. Caricato, A. V. Marenich, 
 J. Bloino, B. G. Janesko, R. Gomperts, B. Mennucci, H. P. Hratchian, 
 J. V. Ortiz, A. F. Izmaylov, J. L. Sonnenberg, D. Williams-Young, 
 F. Ding, F. Lipparini, F. Egidi, J. Goings, B. Peng, A. Petrone, 
 T. Henderson, D. Ranasinghe, V. G. Zakrzewski, J. Gao, N. Rega, 
 G. Zheng, W. Liang, M. Hada, M. Ehara, K. Toyota, R. Fukuda, 
 J. Hasegawa, M. Ishida, T. Nakajima, Y. Honda, O. Kitao, H. Nakai, 
 T. Vreven, K. Throssell, J. A. Montgomery, Jr., J. E. Peralta, 
 F. Ogliaro, M. J. Bearpark, J. J. Heyd, E. N. Brothers, K. N. Kudin, 
 V. N. Staroverov, T. A. Keith, R. Kobayashi, J. Normand, 
 K. Raghavachari, A. P. Rendell, J. C. Burant, S. S. Iyengar, 
 J. Tomasi, M. Cossi, J. M. Millam, M. Klene, C. Adamo, R. Cammi, 
 J. W. Ochterski, R. L. Martin, K. Morokuma, O. Farkas, 
 J. B. Foresman, and D. J. Fox, Gaussian, Inc., Wallingford CT, 2016.
 
 ******************************************
 Gaussian 16:  ES64L-G16RevA.03 25-Dec-2016
                17-Apr-2021 
 ******************************************
 %RWF=temp18_65664,70GB
 %nprocshared=48
 Will use up to   48 processors via shared memory.
 Default route: MaxDisk=80GB
 ----------------------------------------------------------------------
 #P M062X/GEN Integral=UltraFineGrid SCF=NoSymm Stable=(RExt, Opt) IOp(
 1/33=1)
 ----------------------------------------------------------------------
 1/33=1,38=1,172=1/1;
 2/12=2,17=6,18=5,40=1/2;
 3/5=7,11=2,25=1,30=1,74=-55,75=-5/1,2,3;
 4/9=2/1;
 5/5=2,38=5/2;
 6/7=2,8=2,9=2,10=2,28=1/1;
 8/6=1,10=90,11=11/1;
 9/8=-3,42=1,46=1/14;
 5/5=2,8=3,17=40,38=5/8(-2);
 6/7=2,8=2,9=2,10=2,28=1/1;
 99/5=1,9=1/99;
 Leave Link    1 at Sat Apr 17 08:46:34 2021, MaxMem=           0 cpu:              10.8 elap:               0.2
 (Enter /s/ls4/users/knvvv/bin/g16sse/l101.exe)
 ONIOM data not found on unit 2.
 ----------------------
 Database calculations.
 ----------------------
 TstMul:  ICh=     0
 TstMul:  Mul=     2
 TstMul:  ICh=     0
 TstMul:  Mul=     2
 Symbolic Z-matrix:
 Charge =  0 Multiplicity = 2
 B                     0.        0.        0. 
 
 RdStrC is calling ZToCFu for IStruc=1 NZ=     1.
 PrtBox:  NBox=     1 Levels=  0 BoxLen=    8.00 SMaxX=        0.00
          Shift=            0.000000            0.000000            0.000000
 Box      1 Number                   0 centers from      1 to      1:
 After GenITR:
 ITRead=  0
 MicOpt= -1
 ITRead=  0
 MicOpt= -1
 NAtoms=      1 NQM=        1 NQMF=       0 NMMI=      0 NMMIF=      0
                NMic=       0 NMicF=      0.
                    Isotopes and Nuclear Properties:
 (Nuclear quadrupole moments (NQMom) in fm**2, nuclear magnetic moments (NMagM)
  in nuclear magnetons)

  Atom         1
 IAtWgt=          11
 AtmWgt=  11.0093053
 NucSpn=           3
 AtZEff=  -0.0000000
 NQMom=    4.0590000
 NMagM=    2.6886370
 AtZNuc=   5.0000000
 No MM parameters found.
 Leave Link  101 at Sat Apr 17 08:46:34 2021, MaxMem=   104857600 cpu:               6.5 elap:               0.2
 (Enter /s/ls4/users/knvvv/bin/g16sse/l202.exe)
                          Input orientation:                          
 ---------------------------------------------------------------------
 Center     Atomic      Atomic             Coordinates (Angstroms)
 Number     Number       Type             X           Y           Z
 ---------------------------------------------------------------------
      1          5           0        0.000000    0.000000    0.000000
 ---------------------------------------------------------------------
 Stoichiometry    B(2)
 Framework group  OH[O(B)]
 Deg. of freedom     0
 Full point group                 OH      NOp  48
 Largest Abelian subgroup         D2H     NOp   8
 Largest concise Abelian subgroup C1      NOp   1
                         Standard orientation:                         
 ---------------------------------------------------------------------
 Center     Atomic      Atomic             Coordinates (Angstroms)
 Number     Number       Type             X           Y           Z
 ---------------------------------------------------------------------
      1          5           0        0.000000    0.000000    0.000000
 ---------------------------------------------------------------------
 Leave Link  202 at Sat Apr 17 08:46:34 2021, MaxMem=   104857600 cpu:              32.4 elap:               0.7
 (Enter /s/ls4/users/knvvv/bin/g16sse/l301.exe)
 General basis read from cards:  (5D, 7F)
 Centers:       1
 S 8 1.00
     Exponent=  4.6447667056D+04 Coefficients=  3.8388681014D-05
     Exponent=  6.9576889042D+03 Coefficients=  2.9836770197D-04
     Exponent=  1.5834428403D+03 Coefficients=  1.5645478806D-03
     Exponent=  4.4846601009D+02 Coefficients=  6.5476770742D-03
     Exponent=  1.4628639262D+02 Coefficients=  2.3139008388D-02
     Exponent=  5.2784386084D+01 Coefficients=  6.9615799357D-02
     Exponent=  2.0519396170D+01 Coefficients=  1.7119636876D-01
     Exponent=  8.4185659258D+00 Coefficients=  3.1913191837D-01
 S 2 1.00
     Exponent=  3.6510018312D+01 Coefficients=  7.8990617244D-02
     Exponent=  1.0541854005D+01 Coefficients=  7.8926384265D-01
 S 1 1.00
     Exponent=  3.6004091387D+00 Coefficients=  1.0000000000D+00
 S 1 1.00
     Exponent=  1.5617023749D+00 Coefficients=  1.0000000000D+00
 S 1 1.00
     Exponent=  4.4997370775D-01 Coefficients=  1.0000000000D+00
 S 1 1.00
     Exponent=  1.8075230237D-01 Coefficients=  1.0000000000D+00
 S 1 1.00
     Exponent=  7.1596696319D-02 Coefficients=  1.0000000000D+00
 S 1 1.00
     Exponent=  2.9941402533D-02 Coefficients=  1.0000000000D+00
 P 5 1.00
     Exponent=  7.2240462760D+01 Coefficients=  8.6539170411D-04
     Exponent=  1.6807707208D+01 Coefficients=  6.8762067365D-03
     Exponent=  5.2259410747D+00 Coefficients=  3.0976687148D-02
     Exponent=  1.8508350671D+00 Coefficients=  1.0432357913D-01
     Exponent=  7.2206782663D-01 Coefficients=  2.6164137577D-01
 P 1 1.00
     Exponent=  2.9491018056D-01 Coefficients=  1.0000000000D+00
 P 1 1.00
     Exponent=  1.2201141839D-01 Coefficients=  1.0000000000D+00
 P 1 1.00
     Exponent=  4.9865393625D-02 Coefficients=  1.0000000000D+00
 D 1 1.00
     Exponent=  1.1100000000D+00 Coefficients=  1.0000000000D+00
 D 1 1.00
     Exponent=  4.0200000000D-01 Coefficients=  1.0000000000D+00
 D 1 1.00
     Exponent=  1.4500000000D-01 Coefficients=  1.0000000000D+00
 D 1 1.00
     Exponent=  5.0896593879D-02 Coefficients=  1.0000000000D+00
 F 1 1.00
     Exponent=  8.8200000000D-01 Coefficients=  1.0000000000D+00
 F 1 1.00
     Exponent=  3.1100000000D-01 Coefficients=  1.0000000000D+00
 G 1 1.00
     Exponent=  6.7300000000D-01 Coefficients=  1.0000000000D+00
 ****
 Ernie: Thresh=  0.10000D-02 Tol=  0.10000D-05 Strict=F.
 There are    26 symmetry adapted cartesian basis functions of AG  symmetry.
 There are     7 symmetry adapted cartesian basis functions of B1G symmetry.
 There are     7 symmetry adapted cartesian basis functions of B2G symmetry.
 There are     7 symmetry adapted cartesian basis functions of B3G symmetry.
 There are     2 symmetry adapted cartesian basis functions of AU  symmetry.
 There are    10 symmetry adapted cartesian basis functions of B1U symmetry.
 There are    10 symmetry adapted cartesian basis functions of B2U symmetry.
 There are    10 symmetry adapted cartesian basis functions of B3U symmetry.
 There are    19 symmetry adapted basis functions of AG  symmetry.
 There are     6 symmetry adapted basis functions of B1G symmetry.
 There are     6 symmetry adapted basis functions of B2G symmetry.
 There are     6 symmetry adapted basis functions of B3G symmetry.
 There are     2 symmetry adapted basis functions of AU  symmetry.
 There are     8 symmetry adapted basis functions of B1U symmetry.
 There are     8 symmetry adapted basis functions of B2U symmetry.
 There are     8 symmetry adapted basis functions of B3U symmetry.
    63 basis functions,    99 primitive gaussians,    79 cartesian basis functions
     3 alpha electrons        2 beta electrons
       nuclear repulsion energy         0.0000000000 Hartrees.
 IExCor= 4336 DFT=T Ex+Corr=M062X ExCW=0 ScaHFX=  0.540000
 ScaDFX=  1.000000  1.000000  1.000000  1.000000 ScalE2=  1.000000  1.000000
 IRadAn=      5 IRanWt=     -1 IRanGd=            0 ICorTp=0 IEmpDi=  4
 NAtoms=    1 NActive=    1 NUniq=    1 SFac= 1.00D+00 NAtFMM=   60 NAOKFM=F Big=F
 Integral buffers will be    131072 words long.
 Raffenetti 2 integral format.
 Two-electron integral symmetry is turned on.
 Leave Link  301 at Sat Apr 17 08:46:35 2021, MaxMem=   104857600 cpu:               7.6 elap:               0.2
 (Enter /s/ls4/users/knvvv/bin/g16sse/l302.exe)
 NPDir=0 NMtPBC=     1 NCelOv=     1 NCel=       1 NClECP=     1 NCelD=      1
         NCelK=      1 NCelE2=     1 NClLst=     1 CellRange=     0.0.
 One-electron integrals computed using PRISM.
 One-electron integral symmetry used in STVInt
 PrsmSu:  requested number of processors reduced to:   4 ShMem   1 Linda.
 PrsmSu:  requested number of processors reduced to:  21 ShMem   1 Linda.
 NBasis=    63 RedAO= T EigKep=  5.78D-03  NBF=    19     6     6     6     2     8     8     8
 NBsUse=    63 1.00D-06 EigRej= -1.00D+00 NBFU=    19     6     6     6     2     8     8     8
 Precomputing XC quadrature grid using
 IXCGrd= 4 IRadAn=           5 IRanWt=          -1 IRanGd=           0 AccXCQ= 0.00D+00.
 Generated NRdTot=       0 NPtTot=           0 NUsed=           0 NTot=          32
 NSgBfM=    79    79    79    79    79 MxSgAt=     1 MxSgA2=     1.
 Leave Link  302 at Sat Apr 17 08:46:35 2021, MaxMem=   104857600 cpu:              17.0 elap:               0.5
 (Enter /s/ls4/users/knvvv/bin/g16sse/l303.exe)
 DipDrv:  MaxL=1.
 Leave Link  303 at Sat Apr 17 08:46:36 2021, MaxMem=   104857600 cpu:              19.9 elap:               0.5
 (Enter /s/ls4/users/knvvv/bin/g16sse/l401.exe)
 SCF N**3 symmetry information disabled.
 ExpMin= 2.99D-02 ExpMax= 4.64D+04 ExpMxC= 4.48D+02 IAcc=3 IRadAn=         5 AccDes= 0.00D+00
 Harris functional with IExCor= 1009 and IRadAn=       5 diagonalized for initial guess.
 HarFok:  IExCor= 1009 AccDes= 0.00D+00 IRadAn=         5 IDoV= 1 UseB2=F ITyADJ=14
 ICtDFT=  3500011 ScaDFX=  1.000000  1.000000  1.000000  1.000000
 FoFCou: FMM=F IPFlag=           0 FMFlag=      100000 FMFlg1=           0
         NFxFlg=           0 DoJE=T BraDBF=F KetDBF=T FulRan=T
         wScrn=  0.000000 ICntrl=       500 IOpCl=  0 I1Cent=   200000004 NGrid=           0
         NMat0=    1 NMatS0=      1 NMatT0=    0 NMatD0=    1 NMtDS0=    0 NMtDT0=    0
 Petite list used in FoFCou.
 CoulSu:  requested number of processors reduced to:  21 ShMem   1 Linda.
 CoulSu:  requested number of processors reduced to:  21 ShMem   1 Linda.
 CoulSu:  requested number of processors reduced to:  21 ShMem   1 Linda.
 CoulSu:  requested number of processors reduced to:  21 ShMem   1 Linda.
 Harris En= -24.5881886825331    
 JPrj=0 DoOrth=F DoCkMO=F.
 Initial guess orbital symmetries:
 Alpha Orbitals:
       Occupied  (A1G) (A1G) (T1U)
       Virtual   (T1U) (T1U) (A1G) (T1U) (T1U) (T1U) (T2G) (T2G)
                 (T2G) (EG) (EG) (A1G) (T2G) (T2G) (T2G) (EG) (EG)
                 (T1U) (T1U) (T1U) (T2U) (T2U) (T2U) (A2U) (T1U)
                 (T1U) (T1U) (A1G) (T2G) (T2G) (T2G) (EG) (EG)
                 (T1U) (T1U) (T1U) (T1G) (T1G) (T1G) (T2G) (T2G)
                 (T2G) (EG) (EG) (A1G) (T2G) (T2G) (T2G) (EG) (EG)
                 (T2U) (T2U) (T2U) (A2U) (T1U) (T1U) (T1U) (A1G)
                 (A1G) (A1G)
 Beta  Orbitals:
       Occupied  (A1G) (A1G)
       Virtual   (T1U) (T1U) (T1U) (A1G) (T1U) (T1U) (T1U) (T2G)
                 (T2G) (T2G) (EG) (EG) (A1G) (T2G) (T2G) (T2G)
                 (EG) (EG) (T1U) (T1U) (T1U) (T2U) (T2U) (T2U)
                 (A2U) (T1U) (T1U) (T1U) (A1G) (T2G) (T2G) (T2G)
                 (EG) (EG) (T1U) (T1U) (T1U) (T1G) (T1G) (T1G)
                 (T2G) (T2G) (T2G) (EG) (EG) (A1G) (T2G) (T2G)
                 (T2G) (EG) (EG) (T2U) (T2U) (T2U) (A2U) (T1U)
                 (T1U) (T1U) (A1G) (A1G) (A1G)
 Initial guess <Sx>= 0.0000 <Sy>= 0.0000 <Sz>= 0.5000 <S**2>= 0.7500 S= 0.5000
 Leave Link  401 at Sat Apr 17 08:46:45 2021, MaxMem=   104857600 cpu:             444.0 elap:               9.6
 (Enter /s/ls4/users/knvvv/bin/g16sse/l502.exe)
 Keep R1 and R2 ints in memory in symmetry-blocked form, NReq=56201984.
 FoFCou: FMM=F IPFlag=           0 FMFlag=           0 FMFlg1=           0
         NFxFlg=           0 DoJE=F BraDBF=F KetDBF=F FulRan=T
         wScrn=  0.000000 ICntrl=       600 IOpCl=  0 I1Cent=           0 NGrid=           0
         NMat0=    1 NMatS0=   2016 NMatT0=    0 NMatD0=    1 NMtDS0=    0 NMtDT0=    0
 Petite list used in FoFCou.
 CoulSu:  requested number of processors reduced to:  22 ShMem   1 Linda.
 UHF open shell SCF:
 Using DIIS extrapolation, IDIIS=  1040.
 NGot=   104857600 LenX=   104299029 LenY=   104292347
 Requested convergence on RMS density matrix=1.00D-08 within 128 cycles.
 Requested convergence on MAX density matrix=1.00D-06.
 Requested convergence on             energy=1.00D-06.
 No special actions if energy rises.

 Cycle   1  Pass 1  IDiag  1:
 Density matrix breaks symmetry, PCut= 1.00D-04
 Density has only Abelian symmetry.
 E= -24.6479702699033    
 DIIS: error= 2.06D-02 at cycle   1 NSaved=   1.
 NSaved= 1 IEnMin= 1 EnMin= -24.6479702699033     IErMin= 1 ErrMin= 2.06D-02
 ErrMax= 2.06D-02  0.00D+00 EMaxC= 1.00D-01 BMatC= 3.48D-02 BMatP= 3.48D-02
 IDIUse=3 WtCom= 7.94D-01 WtEn= 2.06D-01
 Coeff-Com:  0.100D+01
 Coeff-En:   0.100D+01
 Coeff:      0.100D+01
 Gap=     0.168 Goal=   None    Shift=    0.000
 Gap=     0.388 Goal=   None    Shift=    0.000
 GapD=    0.168 DampG=1.000 DampE=0.500 DampFc=0.5000 IDamp=-1.
 Damping current iteration by 5.00D-01
 RMSDP=1.33D-03 MaxDP=3.28D-02              OVMax= 6.65D-02

 Cycle   2  Pass 1  IDiag  1:
 Density matrix breaks symmetry, PCut= 1.00D-04
 Density has only Abelian symmetry.
 E= -24.6501553611797     Delta-E=       -0.002185091276 Rises=F Damp=T
 DIIS: error= 1.06D-02 at cycle   2 NSaved=   2.
 NSaved= 2 IEnMin= 2 EnMin= -24.6501553611797     IErMin= 2 ErrMin= 1.06D-02
 ErrMax= 1.06D-02  0.00D+00 EMaxC= 1.00D-01 BMatC= 8.44D-03 BMatP= 3.48D-02
 IDIUse=3 WtCom= 8.94D-01 WtEn= 1.06D-01
 Coeff-Com: -0.919D+00 0.192D+01
 Coeff-En:   0.000D+00 0.100D+01
 Coeff:     -0.821D+00 0.182D+01
 Gap=     0.175 Goal=   None    Shift=    0.000
 Gap=     0.358 Goal=   None    Shift=    0.000
 RMSDP=6.84D-04 MaxDP=1.62D-02 DE=-2.19D-03 OVMax= 1.27D-02

 Cycle   3  Pass 1  IDiag  1:
 Density matrix breaks symmetry, PCut= 1.00D-04
 Density has only Abelian symmetry.
 E= -24.6524455315782     Delta-E=       -0.002290170398 Rises=F Damp=F
 DIIS: error= 1.01D-03 at cycle   3 NSaved=   3.
 NSaved= 3 IEnMin= 3 EnMin= -24.6524455315782     IErMin= 3 ErrMin= 1.01D-03
 ErrMax= 1.01D-03  0.00D+00 EMaxC= 1.00D-01 BMatC= 2.99D-05 BMatP= 8.44D-03
 IDIUse=3 WtCom= 9.90D-01 WtEn= 1.01D-02
 Coeff-Com: -0.103D-01-0.648D-02 0.102D+01
 Coeff-En:   0.000D+00 0.000D+00 0.100D+01
 Coeff:     -0.102D-01-0.642D-02 0.102D+01
 Gap=     0.175 Goal=   None    Shift=    0.000
 Gap=     0.357 Goal=   None    Shift=    0.000
 RMSDP=9.02D-05 MaxDP=2.79D-03 DE=-2.29D-03 OVMax= 5.36D-03

 Cycle   4  Pass 1  IDiag  1:
 Density matrix breaks symmetry, PCut= 1.00D-04
 Density has only Abelian symmetry.
 E= -24.6524668577495     Delta-E=       -0.000021326171 Rises=F Damp=F
 DIIS: error= 2.81D-04 at cycle   4 NSaved=   4.
 NSaved= 4 IEnMin= 4 EnMin= -24.6524668577495     IErMin= 4 ErrMin= 2.81D-04
 ErrMax= 2.81D-04  0.00D+00 EMaxC= 1.00D-01 BMatC= 2.64D-06 BMatP= 2.99D-05
 IDIUse=3 WtCom= 9.97D-01 WtEn= 2.81D-03
 Coeff-Com:  0.456D-01-0.871D-01-0.274D+00 0.132D+01
 Coeff-En:   0.000D+00 0.000D+00 0.000D+00 0.100D+01
 Coeff:      0.454D-01-0.869D-01-0.273D+00 0.131D+01
 Gap=     0.175 Goal=   None    Shift=    0.000
 Gap=     0.356 Goal=   None    Shift=    0.000
 RMSDP=3.65D-05 MaxDP=1.14D-03 DE=-2.13D-05 OVMax= 2.02D-03

 Cycle   5  Pass 1  IDiag  1:
 Density matrix breaks symmetry, PCut= 1.00D-04
 Density has only Abelian symmetry.
 E= -24.6524693001848     Delta-E=       -0.000002442435 Rises=F Damp=F
 DIIS: error= 3.55D-05 at cycle   5 NSaved=   5.
 NSaved= 5 IEnMin= 5 EnMin= -24.6524693001848     IErMin= 5 ErrMin= 3.55D-05
 ErrMax= 3.55D-05  0.00D+00 EMaxC= 1.00D-01 BMatC= 3.90D-08 BMatP= 2.64D-06
 IDIUse=1 WtCom= 1.00D+00 WtEn= 0.00D+00
 Coeff-Com: -0.898D-02 0.173D-01 0.515D-01-0.289D+00 0.123D+01
 Coeff:     -0.898D-02 0.173D-01 0.515D-01-0.289D+00 0.123D+01
 Gap=     0.175 Goal=   None    Shift=    0.000
 Gap=     0.356 Goal=   None    Shift=    0.000
 RMSDP=3.55D-06 MaxDP=7.46D-05 DE=-2.44D-06 OVMax= 2.13D-04

 Cycle   6  Pass 1  IDiag  1:
 Density matrix breaks symmetry, PCut= 1.00D-04
 Density has only Abelian symmetry.
 E= -24.6524693285473     Delta-E=       -0.000000028362 Rises=F Damp=F
 DIIS: error= 5.35D-06 at cycle   6 NSaved=   6.
 NSaved= 6 IEnMin= 6 EnMin= -24.6524693285473     IErMin= 6 ErrMin= 5.35D-06
 ErrMax= 5.35D-06  0.00D+00 EMaxC= 1.00D-01 BMatC= 7.15D-10 BMatP= 3.90D-08
 IDIUse=1 WtCom= 1.00D+00 WtEn= 0.00D+00
 Coeff-Com: -0.110D-03 0.180D-03 0.213D-02-0.103D-01-0.568D-01 0.106D+01
 Coeff:     -0.110D-03 0.180D-03 0.213D-02-0.103D-01-0.568D-01 0.106D+01
 Gap=     0.175 Goal=   None    Shift=    0.000
 Gap=     0.356 Goal=   None    Shift=    0.000
 RMSDP=5.17D-07 MaxDP=1.18D-05 DE=-2.84D-08 OVMax= 3.13D-05

 Cycle   7  Pass 1  IDiag  1:
 Density matrix breaks symmetry, PCut= 1.00D-04
 Density has only Abelian symmetry.
 E= -24.6524693291782     Delta-E=       -0.000000000631 Rises=F Damp=F
 DIIS: error= 8.91D-07 at cycle   7 NSaved=   7.
 NSaved= 7 IEnMin= 7 EnMin= -24.6524693291782     IErMin= 7 ErrMin= 8.91D-07
 ErrMax= 8.91D-07  0.00D+00 EMaxC= 1.00D-01 BMatC= 2.25D-11 BMatP= 7.15D-10
 IDIUse=1 WtCom= 1.00D+00 WtEn= 0.00D+00
 Coeff-Com:  0.118D-03-0.232D-03-0.623D-03 0.355D-02-0.216D-01-0.870D-01
 Coeff-Com:  0.111D+01
 Coeff:      0.118D-03-0.232D-03-0.623D-03 0.355D-02-0.216D-01-0.870D-01
 Coeff:      0.111D+01
 Gap=     0.175 Goal=   None    Shift=    0.000
 Gap=     0.356 Goal=   None    Shift=    0.000
 RMSDP=1.02D-07 MaxDP=2.51D-06 DE=-6.31D-10 OVMax= 6.03D-06

 Cycle   8  Pass 1  IDiag  1:
 Density matrix breaks symmetry, PCut= 1.00D-04
 Density has only Abelian symmetry.
 E= -24.6524693291959     Delta-E=       -0.000000000018 Rises=F Damp=F
 DIIS: error= 8.13D-08 at cycle   8 NSaved=   8.
 NSaved= 8 IEnMin= 8 EnMin= -24.6524693291959     IErMin= 8 ErrMin= 8.13D-08
 ErrMax= 8.13D-08  0.00D+00 EMaxC= 1.00D-01 BMatC= 2.62D-13 BMatP= 2.25D-11
 IDIUse=1 WtCom= 1.00D+00 WtEn= 0.00D+00
 Coeff-Com: -0.193D-04 0.372D-04 0.118D-03-0.444D-03 0.338D-02 0.983D-03
 Coeff-Com: -0.146D+00 0.114D+01
 Coeff:     -0.193D-04 0.372D-04 0.118D-03-0.444D-03 0.338D-02 0.983D-03
 Coeff:     -0.146D+00 0.114D+01
 Gap=     0.175 Goal=   None    Shift=    0.000
 Gap=     0.356 Goal=   None    Shift=    0.000
 RMSDP=1.06D-08 MaxDP=3.80D-07 DE=-1.77D-11 OVMax= 3.55D-07

 Cycle   9  Pass 1  IDiag  1:
 Density matrix breaks symmetry, PCut= 1.00D-04
 Density has only Abelian symmetry.
 E= -24.6524693291960     Delta-E=       -0.000000000000 Rises=F Damp=F
 DIIS: error= 1.19D-08 at cycle   9 NSaved=   9.
 NSaved= 9 IEnMin= 9 EnMin= -24.6524693291960     IErMin= 9 ErrMin= 1.19D-08
 ErrMax= 1.19D-08  0.00D+00 EMaxC= 1.00D-01 BMatC= 6.27D-15 BMatP= 2.62D-13
 IDIUse=1 WtCom= 1.00D+00 WtEn= 0.00D+00
 Coeff-Com: -0.648D-06 0.143D-05 0.373D-06-0.524D-04 0.272D-03 0.587D-03
 Coeff-Com: -0.419D-02-0.145D+00 0.115D+01
 Coeff:     -0.648D-06 0.143D-05 0.373D-06-0.524D-04 0.272D-03 0.587D-03
 Coeff:     -0.419D-02-0.145D+00 0.115D+01
 Gap=     0.175 Goal=   None    Shift=    0.000
 Gap=     0.356 Goal=   None    Shift=    0.000
 RMSDP=1.33D-09 MaxDP=3.99D-08 DE=-1.46D-13 OVMax= 7.18D-08

 Density matrix breaks symmetry, PCut= 1.00D-04
 Density has only Abelian symmetry.
 SCF Done:  E(UM062X) =  -24.6524693292     A.U. after    9 cycles
            NFock=  9  Conv=0.13D-08     -V/T= 2.0032
 <Sx>= 0.0000 <Sy>= 0.0000 <Sz>= 0.5000 <S**2>= 0.7523 S= 0.5012
 <L.S>= 0.000000000000E+00
 KE= 2.457378243989D+01 PE=-5.697522366084D+01 EE= 7.748971891762D+00
 Annihilation of the first spin contaminant:
 S**2 before annihilation     0.7523,   after     0.7500
 Leave Link  502 at Sat Apr 17 08:48:56 2021, MaxMem=   104857600 cpu:            6109.9 elap:             130.3
 (Enter /s/ls4/users/knvvv/bin/g16sse/l601.exe)
 Copying SCF densities to generalized density rwf, IOpCl= 1 IROHF=0.
 SCF density gives NOpUse=  8 NOpAll= 48.
 Marking SCF density as not fully symmetric.

 **********************************************************************

            Population analysis using the SCF density.

 **********************************************************************

 Orbital symmetries:
 Alpha Orbitals:
       Occupied  (A1G) (?A) (?B)
       Virtual   (?B) (?B) (?A) (?B) (?B) (?A) (?C) (?B) (?A) (?C)
                 (?C) (?A) (?C) (?C) (?A) (?C) (?A) (?B) (?B) (?B)
                 (?B) (?B) (?B) (A2U) (?B) (?B) (?B) (?A) (?D)
                 (?A) (?A) (?D) (?D) (?B) (?B) (?B) (?D) (?D) (?D)
                 (?D) (?A) (?D) (?A) (?A) (?D) (?E) (?E) (?E) (?D)
                 (?D) (A2U) (?E) (?E) (?E) (?A) (?D) (?A) (A1G)
                 (A1G) (A1G)
 Beta  Orbitals:
       Occupied  (A1G) (?A)
       Virtual   (?B) (?B) (?B) (?A) (?A) (?C) (?C) (?C) (?A) (?B)
                 (?B) (?B) (?A) (?A) (?C) (?A) (?C) (?C) (?B) (?B)
                 (?B) (?B) (?B) (?B) (A2U) (?B) (?B) (?B) (?A)
                 (?C) (?C) (?A) (?C) (?A) (?B) (?B) (?B) (?C) (?C)
                 (?C) (?A) (?C) (?A) (?C) (?C) (?A) (?B) (?B) (?A)
                 (?C) (?B) (A2U) (?B) (?B) (?B) (?C) (?C) (?A)
                 (?A) (A1G) (A1G)
 Unable to determine electronic state:  an orbital has unidentified symmetry.
 Alpha  occ. eigenvalues --   -7.15287  -0.45505  -0.22640
 Alpha virt. eigenvalues --   -0.05094  -0.05094   0.02228   0.11109   0.11109
 Alpha virt. eigenvalues --    0.11163   0.11163   0.12386   0.12769   0.12928
 Alpha virt. eigenvalues --    0.12928   0.26571   0.42403   0.42403   0.42643
 Alpha virt. eigenvalues --    0.42643   0.43055   0.51067   0.52082   0.52082
 Alpha virt. eigenvalues --    1.06977   1.06977   1.07232   1.07232   1.07546
 Alpha virt. eigenvalues --    1.07546   1.07671   1.09801   1.23646   1.23646
 Alpha virt. eigenvalues --    1.24116   1.25728   1.25728   1.82566   1.82566
 Alpha virt. eigenvalues --    1.82749   3.07019   3.07019   3.07609   3.07609
 Alpha virt. eigenvalues --    3.07828   3.07953   3.07953   3.09023   3.09023
 Alpha virt. eigenvalues --    3.54945   3.59401   3.59401   3.59412   3.59412
 Alpha virt. eigenvalues --    3.59783   3.59784   3.59917   3.59917   3.61581
 Alpha virt. eigenvalues --    3.63972   3.63972   4.62482  18.47097  99.86093
  Beta  occ. eigenvalues --   -7.14694  -0.40120
  Beta virt. eigenvalues --   -0.04484  -0.04484  -0.03002   0.02477   0.09969
  Beta virt. eigenvalues --    0.10504   0.10504   0.10915   0.10915   0.10925
  Beta virt. eigenvalues --    0.10925   0.11292   0.25952   0.41567   0.41664
  Beta virt. eigenvalues --    0.41664   0.41845   0.41845   0.50991   0.50991
  Beta virt. eigenvalues --    0.51313   1.05013   1.05013   1.05081   1.05485
  Beta virt. eigenvalues --    1.05485   1.06107   1.06107   1.07377   1.21290
  Beta virt. eigenvalues --    1.21290   1.21598   1.22635   1.22635   1.78475
  Beta virt. eigenvalues --    1.78475   1.81479   3.00648   3.00648   3.00910
  Beta virt. eigenvalues --    3.00910   3.01134   3.01134   3.01736   3.01736
  Beta virt. eigenvalues --    3.01813   3.52036   3.52036   3.53231   3.53231
  Beta virt. eigenvalues --    3.55140   3.55140   3.57449   3.57449   3.58643
  Beta virt. eigenvalues --    3.59239   3.59239   3.61193   4.64012  18.48480
  Beta virt. eigenvalues --   99.85916
          Condensed to atoms (all electrons):
               1
     1  B    5.000000
          Atomic-Atomic Spin Densities.
               1
     1  B    1.000000
 Mulliken charges and spin densities:
               1          2
     1  B   -0.000000   1.000000
 Sum of Mulliken charges =  -0.00000   1.00000
 Mulliken charges and spin densities with hydrogens summed into heavy atoms:
               1          2
     1  B   -0.000000   1.000000
 Electronic spatial extent (au):  <R**2>=             15.7999
 Charge=             -0.0000 electrons
 Dipole moment (field-independent basis, Debye):
    X=             -0.0000    Y=              0.0000    Z=             -0.0000  Tot=              0.0000
 Quadrupole moment (field-independent basis, Debye-Ang):
   XX=             -9.2717   YY=             -5.9898   ZZ=             -5.9898
   XY=             -0.0000   XZ=              0.0000   YZ=             -0.0000
 Traceless Quadrupole moment (field-independent basis, Debye-Ang):
   XX=             -2.1880   YY=              1.0940   ZZ=              1.0940
   XY=             -0.0000   XZ=              0.0000   YZ=             -0.0000
 Octapole moment (field-independent basis, Debye-Ang**2):
  XXX=              0.0000  YYY=              0.0000  ZZZ=              0.0000  XYY=             -0.0000
  XXY=             -0.0000  XXZ=             -0.0000  XZZ=              0.0000  YZZ=             -0.0000
  YYZ=             -0.0000  XYZ=             -0.0000
 Hexadecapole moment (field-independent basis, Debye-Ang**3):
 XXXX=            -20.6105 YYYY=             -9.2033 ZZZZ=             -9.2033 XXXY=             -0.0000
 XXXZ=              0.0000 YYYX=             -0.0000 YYYZ=              0.0000 ZZZX=              0.0000
 ZZZY=             -0.0000 XXYY=             -4.9809 XXZZ=             -4.9809 YYZZ=             -3.0678
 XXYZ=              0.0000 YYXZ=              0.0000 ZZXY=             -0.0000
 N-N= 0.000000000000D+00 E-N=-5.697522369953D+01  KE= 2.457378243989D+01
                          Isotropic Fermi Contact Couplings
        Atom                 a.u.       MegaHertz       Gauss      10(-4) cm-1
     1  B(11)              0.09543     136.88641      48.84448      45.66039
 PrsmSu:  requested number of processors reduced to:  21 ShMem   1 Linda.
 --------------------------------------------------------
       Center         ----  Spin Dipole Couplings  ----
                      3XX-RR        3YY-RR        3ZZ-RR
 --------------------------------------------------------
     1   Atom        0.676682     -0.338341     -0.338341
 --------------------------------------------------------
                        XY            XZ            YZ
 --------------------------------------------------------
     1   Atom        0.000000      0.000000      0.000000
 --------------------------------------------------------


 ---------------------------------------------------------------------------------
              Anisotropic Spin Dipole Couplings in Principal Axis System
 ---------------------------------------------------------------------------------

       Atom             a.u.   MegaHertz   Gauss  10(-4) cm-1        Axes

              Baa    -0.3383   -57.929   -20.670   -19.323 -0.0000  1.0000  0.0000
     1 B(11)  Bbb    -0.3383   -57.929   -20.670   -19.323  0.0000  0.0000  1.0000
              Bcc     0.6767   115.858    41.341    38.646  1.0000  0.0000  0.0000
 

 ---------------------------------------------------------------------------------

 PrsmSu:  requested number of processors reduced to:  21 ShMem   1 Linda.
 No NMR shielding tensors so no spin-rotation constants.
 Leave Link  601 at Sat Apr 17 08:49:06 2021, MaxMem=   104857600 cpu:             466.7 elap:              10.1
 (Enter /s/ls4/users/knvvv/bin/g16sse/l801.exe)
 DoSCS=F DFT=T ScalE2(SS,OS)=  1.000000  1.000000
 Range of M.O.s used for correlation:     1    63
 NBasis=    63 NAE=     3 NBE=     2 NFC=     0 NFV=     0
 NROrb=     63 NOA=     3 NOB=     2 NVA=    60 NVB=    61
 Leave Link  801 at Sat Apr 17 08:49:06 2021, MaxMem=   104857600 cpu:               4.6 elap:               0.1
 (Enter /s/ls4/users/knvvv/bin/g16sse/l914.exe)
 UHF ground state
 Doing stability rather than CIS.
 Keep R1 and R2 ints in memory in symmetry-blocked form, NReq=77828977.
 FoFCou: FMM=F IPFlag=           0 FMFlag=           0 FMFlg1=           0
         NFxFlg=           0 DoJE=F BraDBF=F KetDBF=F FulRan=T
         wScrn=  0.000000 ICntrl=       600 IOpCl=  0 I1Cent=           0 NGrid=           0
         NMat0=    1 NMatS0=   2016 NMatT0=    0 NMatD0=    1 NMtDS0=    0 NMtDT0=    0
 Petite list used in FoFCou.
 CoulSu:  requested number of processors reduced to:  22 ShMem   1 Linda.
 MDV=   104857600 DFT=T DoStab=T Mixed=T DoRPA=F DoScal=F NonHer=F
 Making orbital integer symmetry assigments:
 Orbital symmetries:
 Alpha Orbitals:
       Occupied  (A1G) (?A) (?B)
       Virtual   (?B) (?B) (?A) (?B) (?B) (?A) (?C) (?B) (?A) (?C)
                 (?C) (?A) (?C) (?C) (?A) (?C) (?A) (?B) (?B) (?B)
                 (?B) (?B) (?B) (A2U) (?B) (?B) (?B) (?A) (?D)
                 (?A) (?A) (?D) (?D) (?B) (?B) (?B) (?D) (?D) (?D)
                 (?D) (?A) (?D) (?A) (?A) (?D) (?E) (?E) (?E) (?D)
                 (?D) (A2U) (?E) (?E) (?E) (?A) (?D) (?A) (A1G)
                 (A1G) (A1G)
 Beta  Orbitals:
       Occupied  (A1G) (?A)
       Virtual   (?B) (?B) (?B) (?A) (?A) (?C) (?C) (?C) (?A) (?B)
                 (?B) (?B) (?A) (?A) (?C) (?A) (?C) (?C) (?B) (?B)
                 (?B) (?B) (?B) (?B) (A2U) (?B) (?B) (?B) (?A)
                 (?C) (?C) (?A) (?C) (?A) (?B) (?B) (?B) (?C) (?C)
                 (?C) (?A) (?C) (?A) (?C) (?C) (?A) (?B) (?B) (?A)
                 (?C) (?B) (A2U) (?B) (?B) (?B) (?C) (?C) (?A)
                 (?A) (A1G) (A1G)
    24 initial guesses have been made.
 Convergence on wavefunction:    0.001000000000000
 Davidson Disk Diagonalization:  ConvIn= 1.00D-03 SkipCon=T Conv= 1.00D-03.
 Max sub-space:   604 roots to seek:    24 dimension of matrix:          302
 Iteration     1 Dimension    24 NMult     0 NNew     24
 CISAX will form    24 AO SS matrices at one time.
 NMat=    24 NSing=    24 JSym2X= 2.
 Excitation Energies [eV] at current iteration:
 Root      1 :     0.110582310103279
 Root      2 :     0.110582310104107
 Root      3 :     3.847982496706990
 Root      4 :     3.847982496710657
 Root      5 :     4.606089754057407
 Root      6 :     6.616413992674107
 Root      7 :     6.616413992676409
 Root      8 :     6.662255725268853
 Root      9 :     7.033193667354210
 Root     10 :     7.033328756380773
 Root     11 :     7.052530206367385
 Root     12 :     7.139560847092898
 Root     13 :     7.139560847098922
 Root     14 :     8.125003933670772
 Root     15 :     9.494146015460501
 Root     16 :    10.169235140098020
 Root     17 :    10.664535871054440
 Root     18 :    10.664535871058080
 Root     19 :    11.148036411535910
 Root     20 :    11.511772033506430
 Root     21 :    11.511772033541010
 Root     22 :    11.570385857902750
 Root     23 :    11.779597542788830
 Root     24 :    11.779601566568860
 Iteration     2 Dimension    48 NMult    24 NNew     24
 CISAX will form    24 AO SS matrices at one time.
 NMat=    24 NSing=    24 JSym2X= 2.
 Root      1 not converged, maximum delta is    0.033030321572791
 Excitation Energies [eV] at current iteration:
 Root      1 :     0.001008323507587   Change is   -0.109573986595692
 Root      2 :     0.001008323508445   Change is   -0.109573986595662
 Root      3 :     2.498037712585928   Change is   -1.349944784121062
 Root      4 :     2.498037712587873   Change is   -1.349944784122784
 Root      5 :     4.495688254476198   Change is   -0.110401499581209
 Root      6 :     5.979153159836398   Change is   -0.683102565432455
 Root      7 :     6.462904119475601   Change is   -0.153509873198507
 Root      8 :     6.462904119477673   Change is   -0.153509873198736
 Root      9 :     6.726878902571361   Change is   -0.325651303796025
 Root     10 :     6.830141522436354   Change is   -0.309419324656544
 Root     11 :     6.830141522441405   Change is   -0.309419324657517
 Root     12 :     6.908055158773005   Change is   -0.125138508581204
 Root     13 :     6.908170271630993   Change is   -0.125158484749780
 Root     14 :     7.459400181905766   Change is   -0.665603751765007
 Root     15 :     9.197687436295773   Change is   -0.296458579164729
 Root     16 :     9.313227160789856   Change is   -1.351308710264581
 Root     17 :     9.313227160797215   Change is   -1.351308710260865
 Root     18 :    10.090574208198940   Change is   -0.078660931899075
 Root     19 :    10.877082871533830   Change is   -0.270953540002077
 Root     20 :    11.418080265494940   Change is   -0.152305592407803
 Root     21 :    11.480664634818620   Change is   -0.031107398687812
 Root     22 :    11.480664634855180   Change is   -0.031107398685831
 Root     23 :    11.732561927833130   Change is   -0.047035614955697
 Root     24 :    11.732566878343290   Change is   -0.047034688225566
 Iteration     3 Dimension    51 NMult    48 NNew      3
 CISAX will form     3 AO SS matrices at one time.
 NMat=     3 NSing=     3 JSym2X= 2.
 Root      1 not converged, maximum delta is    0.009981937454272
 Excitation Energies [eV] at current iteration:
 Root      1 :     0.000146544798483   Change is   -0.000861778709104
 Root      2 :     0.000146544799329   Change is   -0.000861778709116
 Root      3 :     2.489309644092613   Change is   -0.008728068493314
 Iteration     4 Dimension    54 NMult    51 NNew      3
 CISAX will form     3 AO SS matrices at one time.
 NMat=     3 NSing=     3 JSym2X= 2.
 Root      1 not converged, maximum delta is    0.015107393802152
 Excitation Energies [eV] at current iteration:
 Root      1 :     0.000144381031979   Change is   -0.000002163766504
 Root      2 :     0.000144381032819   Change is   -0.000002163766510
 Root      3 :     2.489261459484080   Change is   -0.000048184608533
 Iteration     5 Dimension    57 NMult    54 NNew      3
 CISAX will form     3 AO SS matrices at one time.
 NMat=     3 NSing=     3 JSym2X= 2.
 Root      1 not converged, maximum delta is    0.013189162763959
 Excitation Energies [eV] at current iteration:
 Root      1 :     0.000144377204984   Change is   -0.000000003826996
 Root      2 :     0.000144377205842   Change is   -0.000000003826977
 Root      3 :     2.489261325252698   Change is   -0.000000134231382
 Iteration     6 Dimension    58 NMult    57 NNew      1
 CISAX will form     1 AO SS matrices at one time.
 NMat=     1 NSing=     1 JSym2X= 2.
 Root      1 not converged, maximum delta is    0.006049845038689
 Excitation Energies [eV] at current iteration:
 Root      1 :     0.000144377204996   Change is    0.000000000000012
 Root      2 :     0.000144377205823   Change is   -0.000000000000018
 Root      3 :     2.489261324484283   Change is   -0.000000000768415
 Convergence on energies, max DE= 7.68D-10.
 Convergence achieved on expansion vectors.
 ***********************************************************************
 Stability analysis using <AA,BB:AA,BB> singles matrix:
 ***********************************************************************
 1PDM for each excited state written to RWF  633
 Ground to excited state transition densities written to RWF  633

 Eigenvectors of the stability matrix:
 
 Excited state symmetry could not be determined.
 Eigenvector   1:  2.005-?Sym  Eigenvalue= 0.0000053  <S**2>=0.755
      3A ->  4A        0.76115
      3A ->  5A       -0.62208
      3A ->  7A       -0.16599
 
 Excited state symmetry could not be determined.
 Eigenvector   2:  2.005-?Sym  Eigenvalue= 0.0000053  <S**2>=0.755
      3A ->  4A        0.62208
      3A ->  5A        0.76115
      3A ->  8A       -0.16599
 
 Excited state symmetry could not be determined.
 Eigenvector   3:  3.461-?Sym  Eigenvalue= 0.0914787  <S**2>=2.745
      2A ->  5A        0.67822
      2A ->  8A       -0.20900
      2B ->  3B       -0.43212
      2B ->  4B       -0.47060
      2B -> 12B        0.23700
 The wavefunction is stable under the perturbations considered.
 Leave Link  914 at Sat Apr 17 08:49:23 2021, MaxMem=   104857600 cpu:             802.0 elap:              17.4
 (Enter /s/ls4/users/knvvv/bin/g16sse/l508.exe)
 The wavefunction is already stable.
 Leave Link  508 at Sat Apr 17 08:49:23 2021, MaxMem=   104857600 cpu:               2.2 elap:               0.1
 (Enter /s/ls4/users/knvvv/bin/g16sse/l601.exe)
 Copying SCF densities to generalized density rwf, IOpCl= 1 IROHF=0.
 SCF density gives NOpUse=  8 NOpAll= 48.
 Marking SCF density as not fully symmetric.

 **********************************************************************

            Population analysis using the SCF density.

 **********************************************************************

 Orbital symmetries:
 Alpha Orbitals:
       Occupied  (A1G) (?A) (?B)
       Virtual   (?B) (?B) (?A) (?B) (?B) (?A) (?C) (?B) (?A) (?C)
                 (?C) (?A) (?C) (?C) (?A) (?C) (?A) (?B) (?B) (?B)
                 (?B) (?B) (?B) (A2U) (?B) (?B) (?B) (?A) (?D)
                 (?A) (?A) (?D) (?D) (?B) (?B) (?B) (?D) (?D) (?D)
                 (?D) (?A) (?D) (?A) (?A) (?D) (?E) (?E) (?E) (?D)
                 (?D) (A2U) (?E) (?E) (?E) (?A) (?D) (?A) (A1G)
                 (A1G) (A1G)
 Beta  Orbitals:
       Occupied  (A1G) (?A)
       Virtual   (?B) (?B) (?B) (?A) (?A) (?C) (?C) (?C) (?A) (?B)
                 (?B) (?B) (?A) (?A) (?C) (?A) (?C) (?C) (?B) (?B)
                 (?B) (?B) (?B) (?B) (A2U) (?B) (?B) (?B) (?A)
                 (?C) (?C) (?A) (?C) (?A) (?B) (?B) (?B) (?C) (?C)
                 (?C) (?A) (?C) (?A) (?C) (?C) (?A) (?B) (?B) (?A)
                 (?C) (?B) (A2U) (?B) (?B) (?B) (?C) (?C) (?A)
                 (?A) (A1G) (A1G)
 Unable to determine electronic state:  an orbital has unidentified symmetry.
 Alpha  occ. eigenvalues --   -7.15287  -0.45505  -0.22640
 Alpha virt. eigenvalues --   -0.05094  -0.05094   0.02228   0.11109   0.11109
 Alpha virt. eigenvalues --    0.11163   0.11163   0.12386   0.12769   0.12928
 Alpha virt. eigenvalues --    0.12928   0.26571   0.42403   0.42403   0.42643
 Alpha virt. eigenvalues --    0.42643   0.43055   0.51067   0.52082   0.52082
 Alpha virt. eigenvalues --    1.06977   1.06977   1.07232   1.07232   1.07546
 Alpha virt. eigenvalues --    1.07546   1.07671   1.09801   1.23646   1.23646
 Alpha virt. eigenvalues --    1.24116   1.25728   1.25728   1.82566   1.82566
 Alpha virt. eigenvalues --    1.82749   3.07019   3.07019   3.07609   3.07609
 Alpha virt. eigenvalues --    3.07828   3.07953   3.07953   3.09023   3.09023
 Alpha virt. eigenvalues --    3.54945   3.59401   3.59401   3.59412   3.59412
 Alpha virt. eigenvalues --    3.59783   3.59784   3.59917   3.59917   3.61581
 Alpha virt. eigenvalues --    3.63972   3.63972   4.62482  18.47097  99.86093
  Beta  occ. eigenvalues --   -7.14694  -0.40120
  Beta virt. eigenvalues --   -0.04484  -0.04484  -0.03002   0.02477   0.09969
  Beta virt. eigenvalues --    0.10504   0.10504   0.10915   0.10915   0.10925
  Beta virt. eigenvalues --    0.10925   0.11292   0.25952   0.41567   0.41664
  Beta virt. eigenvalues --    0.41664   0.41845   0.41845   0.50991   0.50991
  Beta virt. eigenvalues --    0.51313   1.05013   1.05013   1.05081   1.05485
  Beta virt. eigenvalues --    1.05485   1.06107   1.06107   1.07377   1.21290
  Beta virt. eigenvalues --    1.21290   1.21598   1.22635   1.22635   1.78475
  Beta virt. eigenvalues --    1.78475   1.81479   3.00648   3.00648   3.00910
  Beta virt. eigenvalues --    3.00910   3.01134   3.01134   3.01736   3.01736
  Beta virt. eigenvalues --    3.01813   3.52036   3.52036   3.53231   3.53231
  Beta virt. eigenvalues --    3.55140   3.55140   3.57449   3.57449   3.58643
  Beta virt. eigenvalues --    3.59239   3.59239   3.61193   4.64012  18.48480
  Beta virt. eigenvalues --   99.85916
          Condensed to atoms (all electrons):
               1
     1  B    5.000000
          Atomic-Atomic Spin Densities.
               1
     1  B    1.000000
 Mulliken charges and spin densities:
               1          2
     1  B   -0.000000   1.000000
 Sum of Mulliken charges =  -0.00000   1.00000
 Mulliken charges and spin densities with hydrogens summed into heavy atoms:
               1          2
     1  B   -0.000000   1.000000
 Electronic spatial extent (au):  <R**2>=             15.7999
 Charge=             -0.0000 electrons
 Dipole moment (field-independent basis, Debye):
    X=             -0.0000    Y=              0.0000    Z=             -0.0000  Tot=              0.0000
 Quadrupole moment (field-independent basis, Debye-Ang):
   XX=             -9.2717   YY=             -5.9898   ZZ=             -5.9898
   XY=             -0.0000   XZ=              0.0000   YZ=             -0.0000
 Traceless Quadrupole moment (field-independent basis, Debye-Ang):
   XX=             -2.1880   YY=              1.0940   ZZ=              1.0940
   XY=             -0.0000   XZ=              0.0000   YZ=             -0.0000
 Octapole moment (field-independent basis, Debye-Ang**2):
  XXX=              0.0000  YYY=              0.0000  ZZZ=              0.0000  XYY=             -0.0000
  XXY=             -0.0000  XXZ=             -0.0000  XZZ=              0.0000  YZZ=             -0.0000
  YYZ=             -0.0000  XYZ=             -0.0000
 Hexadecapole moment (field-independent basis, Debye-Ang**3):
 XXXX=            -20.6105 YYYY=             -9.2033 ZZZZ=             -9.2033 XXXY=             -0.0000
 XXXZ=              0.0000 YYYX=             -0.0000 YYYZ=              0.0000 ZZZX=              0.0000
 ZZZY=             -0.0000 XXYY=             -4.9809 XXZZ=             -4.9809 YYZZ=             -3.0678
 XXYZ=              0.0000 YYXZ=              0.0000 ZZXY=             -0.0000
 N-N= 0.000000000000D+00 E-N=-5.697522369953D+01  KE= 2.457378243989D+01
                          Isotropic Fermi Contact Couplings
        Atom                 a.u.       MegaHertz       Gauss      10(-4) cm-1
     1  B(11)              0.09543     136.88641      48.84448      45.66039
 PrsmSu:  requested number of processors reduced to:  21 ShMem   1 Linda.
 --------------------------------------------------------
       Center         ----  Spin Dipole Couplings  ----
                      3XX-RR        3YY-RR        3ZZ-RR
 --------------------------------------------------------
     1   Atom        0.676682     -0.338341     -0.338341
 --------------------------------------------------------
                        XY            XZ            YZ
 --------------------------------------------------------
     1   Atom        0.000000      0.000000      0.000000
 --------------------------------------------------------


 ---------------------------------------------------------------------------------
              Anisotropic Spin Dipole Couplings in Principal Axis System
 ---------------------------------------------------------------------------------

       Atom             a.u.   MegaHertz   Gauss  10(-4) cm-1        Axes

              Baa    -0.3383   -57.929   -20.670   -19.323 -0.0000  1.0000  0.0000
     1 B(11)  Bbb    -0.3383   -57.929   -20.670   -19.323  0.0000  0.0000  1.0000
              Bcc     0.6767   115.858    41.341    38.646  1.0000  0.0000  0.0000
 

 ---------------------------------------------------------------------------------

 PrsmSu:  requested number of processors reduced to:  21 ShMem   1 Linda.
 No NMR shielding tensors so no spin-rotation constants.
 Leave Link  601 at Sat Apr 17 08:49:34 2021, MaxMem=   104857600 cpu:             474.8 elap:              10.3
 (Enter /s/ls4/users/knvvv/bin/g16sse/l9999.exe)

 Test job not archived.
 1\1\GINC-N184\Stability\UM062X\Gen\B1(2)\KNVVV\17-Apr-2021\0\\#P M062X
 /GEN Integral=UltraFineGrid SCF=NoSymm Stable=(RExt, Opt) IOp(1/33=1)\
 \Database calculations.\\0,2\B,0,0.,0.,0.\\Version=ES64L-G16RevA.03\HF
 =-24.6524693\S2=0.752318\S2-1=0.\S2A=0.75\RMSD=1.333e-09\Dipole=0.,0.,
 0.\Quadrupole=0.8133463,0.8133463,-1.6266927,0.,0.,0.\PG=OH [O(B1)]\\@


 TRUTH, IN SCIENCE, CAN BE DEFINED AS THE WORKING HYPOTHESIS 
 BEST FITTED TO OPEN THE WAY TO THE NEXT BETTER ONE.

                              -- KONRAD LORENZ
 Job cpu time:       0 days  2 hours 20 minutes  5.5 seconds.
 Elapsed time:       0 days  0 hours  3 minutes  0.3 seconds.
 File lengths (MBytes):  RWF=      9 Int=      0 D2E=      0 Chk=      2 Scr=      1
 Normal termination of Gaussian 16 at Sat Apr 17 08:49:34 2021.
