 Entering Gaussian System, Link 0=/s/ls4/users/knvvv/bin/g16sse/g16
 Input=data/database/M062X--def2-QZVP--Z_013_de2-QZVP_Mg.gjf
 Output=data/database/M062X--def2-QZVP--Z_013_de2-QZVP_Mg.log
 Initial command:
 /s/ls4/users/knvvv/bin/g16sse/l1.exe "/s/ls4/users/knvvv/bin/scratch/Gau-29859.inp" -scrdir="/s/ls4/users/knvvv/bin/scratch/"
 Entering Link 1 = /s/ls4/users/knvvv/bin/g16sse/l1.exe PID=     29860.
  
 Copyright (c) 1988,1990,1992,1993,1995,1998,2003,2009,2016,
            Gaussian, Inc.  All Rights Reserved.
  
 This is part of the Gaussian(R) 16 program.  It is based on
 the Gaussian(R) 09 system (copyright 2009, Gaussian, Inc.),
 the Gaussian(R) 03 system (copyright 2003, Gaussian, Inc.),
 the Gaussian(R) 98 system (copyright 1998, Gaussian, Inc.),
 the Gaussian(R) 94 system (copyright 1995, Gaussian, Inc.),
 the Gaussian 92(TM) system (copyright 1992, Gaussian, Inc.),
 the Gaussian 90(TM) system (copyright 1990, Gaussian, Inc.),
 the Gaussian 88(TM) system (copyright 1988, Gaussian, Inc.),
 the Gaussian 86(TM) system (copyright 1986, Carnegie Mellon
 University), and the Gaussian 82(TM) system (copyright 1983,
 Carnegie Mellon University). Gaussian is a federally registered
 trademark of Gaussian, Inc.
  
 This software contains proprietary and confidential information,
 including trade secrets, belonging to Gaussian, Inc.
  
 This software is provided under written license and may be
 used, copied, transmitted, or stored only in accord with that
 written license.
  
 The following legend is applicable only to US Government
 contracts under FAR:
  
                    RESTRICTED RIGHTS LEGEND
  
 Use, reproduction and disclosure by the US Government is
 subject to restrictions as set forth in subparagraphs (a)
 and (c) of the Commercial Computer Software - Restricted
 Rights clause in FAR 52.227-19.
  
 Gaussian, Inc.
 340 Quinnipiac St., Bldg. 40, Wallingford CT 06492
  
  
 ---------------------------------------------------------------
 Warning -- This program may not be used in any manner that
 competes with the business of Gaussian, Inc. or will provide
 assistance to any competitor of Gaussian, Inc.  The licensee
 of this program is prohibited from giving any competitor of
 Gaussian, Inc. access to this program.  By using this program,
 the user acknowledges that Gaussian, Inc. is engaged in the
 business of creating and licensing software in the field of
 computational chemistry and represents and warrants to the
 licensee that it is not a competitor of Gaussian, Inc. and that
 it will not use this program in any manner prohibited above.
 ---------------------------------------------------------------
  

 Cite this work as:
 Gaussian 16, Revision A.03,
 M. J. Frisch, G. W. Trucks, H. B. Schlegel, G. E. Scuseria, 
 M. A. Robb, J. R. Cheeseman, G. Scalmani, V. Barone, 
 G. A. Petersson, H. Nakatsuji, X. Li, M. Caricato, A. V. Marenich, 
 J. Bloino, B. G. Janesko, R. Gomperts, B. Mennucci, H. P. Hratchian, 
 J. V. Ortiz, A. F. Izmaylov, J. L. Sonnenberg, D. Williams-Young, 
 F. Ding, F. Lipparini, F. Egidi, J. Goings, B. Peng, A. Petrone, 
 T. Henderson, D. Ranasinghe, V. G. Zakrzewski, J. Gao, N. Rega, 
 G. Zheng, W. Liang, M. Hada, M. Ehara, K. Toyota, R. Fukuda, 
 J. Hasegawa, M. Ishida, T. Nakajima, Y. Honda, O. Kitao, H. Nakai, 
 T. Vreven, K. Throssell, J. A. Montgomery, Jr., J. E. Peralta, 
 F. Ogliaro, M. J. Bearpark, J. J. Heyd, E. N. Brothers, K. N. Kudin, 
 V. N. Staroverov, T. A. Keith, R. Kobayashi, J. Normand, 
 K. Raghavachari, A. P. Rendell, J. C. Burant, S. S. Iyengar, 
 J. Tomasi, M. Cossi, J. M. Millam, M. Klene, C. Adamo, R. Cammi, 
 J. W. Ochterski, R. L. Martin, K. Morokuma, O. Farkas, 
 J. B. Foresman, and D. J. Fox, Gaussian, Inc., Wallingford CT, 2016.
 
 ******************************************
 Gaussian 16:  ES64L-G16RevA.03 25-Dec-2016
                18-Apr-2021 
 ******************************************
 %RWF=temp12_58403,70GB
 %nprocshared=48
 Will use up to   48 processors via shared memory.
 Default route: MaxDisk=80GB
 ----------------------------------------------------------------------
 #P M062X/Def2QZVP Integral=UltraFineGrid SCF=NoSymm Stable=(RExt, Opt)
  IOp(1/33=1)
 ----------------------------------------------------------------------
 1/33=1,38=1,172=1/1;
 2/12=2,17=6,18=5,40=1/2;
 3/5=45,7=101,11=2,25=1,30=1,74=-55,75=-5/1,2,3;
 4/9=2/1;
 5/5=2,38=5/2;
 6/7=2,8=2,9=2,10=2,28=1/1;
 8/6=1,10=90,11=11/1;
 9/8=-3,42=1,46=1/14;
 5/5=2,8=3,17=40,38=5/8(-2);
 6/7=2,8=2,9=2,10=2,28=1/1;
 99/5=1,9=1/99;
 Leave Link    1 at Sun Apr 18 07:19:15 2021, MaxMem=           0 cpu:               8.1 elap:               0.2
 (Enter /s/ls4/users/knvvv/bin/g16sse/l101.exe)
 ONIOM data not found on unit 2.
 ----------------------
 Database calculations.
 ----------------------
 TstMul:  ICh=     0
 TstMul:  Mul=     1
 TstMul:  ICh=     0
 TstMul:  Mul=     1
 Symbolic Z-matrix:
 Charge =  0 Multiplicity = 1
 Mg                    0.        0.        0. 
 
 RdStrC is calling ZToCFu for IStruc=1 NZ=     1.
 PrtBox:  NBox=     1 Levels=  0 BoxLen=    8.00 SMaxX=        0.00
          Shift=            0.000000            0.000000            0.000000
 Box      1 Number                   0 centers from      1 to      1:
 After GenITR:
 ITRead=  0
 MicOpt= -1
 ITRead=  0
 MicOpt= -1
 NAtoms=      1 NQM=        1 NQMF=       0 NMMI=      0 NMMIF=      0
                NMic=       0 NMicF=      0.
                    Isotopes and Nuclear Properties:
 (Nuclear quadrupole moments (NQMom) in fm**2, nuclear magnetic moments (NMagM)
  in nuclear magnetons)

  Atom         1
 IAtWgt=          24
 AtmWgt=  23.9850450
 NucSpn=           0
 AtZEff=  -0.0000000
 NQMom=    0.0000000
 NMagM=    0.0000000
 AtZNuc=  12.0000000
 No MM parameters found.
 Leave Link  101 at Sun Apr 18 07:19:15 2021, MaxMem=   104857600 cpu:               5.2 elap:               0.1
 (Enter /s/ls4/users/knvvv/bin/g16sse/l202.exe)
                          Input orientation:                          
 ---------------------------------------------------------------------
 Center     Atomic      Atomic             Coordinates (Angstroms)
 Number     Number       Type             X           Y           Z
 ---------------------------------------------------------------------
      1         12           0        0.000000    0.000000    0.000000
 ---------------------------------------------------------------------
 Stoichiometry    Mg
 Framework group  OH[O(Mg)]
 Deg. of freedom     0
 Full point group                 OH      NOp  48
 Largest Abelian subgroup         D2H     NOp   8
 Largest concise Abelian subgroup C1      NOp   1
                         Standard orientation:                         
 ---------------------------------------------------------------------
 Center     Atomic      Atomic             Coordinates (Angstroms)
 Number     Number       Type             X           Y           Z
 ---------------------------------------------------------------------
      1         12           0        0.000000    0.000000    0.000000
 ---------------------------------------------------------------------
 Leave Link  202 at Sun Apr 18 07:19:16 2021, MaxMem=   104857600 cpu:              33.6 elap:               0.7
 (Enter /s/ls4/users/knvvv/bin/g16sse/l301.exe)
 Standard basis: def2QZVP (5D, 7F)
 Ernie: Thresh=  0.10000D-02 Tol=  0.10000D-05 Strict=F.
 There are    21 symmetry adapted cartesian basis functions of AG  symmetry.
 There are     4 symmetry adapted cartesian basis functions of B1G symmetry.
 There are     4 symmetry adapted cartesian basis functions of B2G symmetry.
 There are     4 symmetry adapted cartesian basis functions of B3G symmetry.
 There are     1 symmetry adapted cartesian basis functions of AU  symmetry.
 There are     8 symmetry adapted cartesian basis functions of B1U symmetry.
 There are     8 symmetry adapted cartesian basis functions of B2U symmetry.
 There are     8 symmetry adapted cartesian basis functions of B3U symmetry.
 There are    17 symmetry adapted basis functions of AG  symmetry.
 There are     4 symmetry adapted basis functions of B1G symmetry.
 There are     4 symmetry adapted basis functions of B2G symmetry.
 There are     4 symmetry adapted basis functions of B3G symmetry.
 There are     1 symmetry adapted basis functions of AU  symmetry.
 There are     7 symmetry adapted basis functions of B1U symmetry.
 There are     7 symmetry adapted basis functions of B2U symmetry.
 There are     7 symmetry adapted basis functions of B3U symmetry.
    51 basis functions,    90 primitive gaussians,    58 cartesian basis functions
     6 alpha electrons        6 beta electrons
       nuclear repulsion energy         0.0000000000 Hartrees.
 IExCor= 4336 DFT=T Ex+Corr=M062X ExCW=0 ScaHFX=  0.540000
 ScaDFX=  1.000000  1.000000  1.000000  1.000000 ScalE2=  1.000000  1.000000
 IRadAn=      5 IRanWt=     -1 IRanGd=            0 ICorTp=0 IEmpDi=  4
 NAtoms=    1 NActive=    1 NUniq=    1 SFac= 1.00D+00 NAtFMM=   60 NAOKFM=F Big=F
 Integral buffers will be    131072 words long.
 Raffenetti 2 integral format.
 Two-electron integral symmetry is turned on.
 Leave Link  301 at Sun Apr 18 07:19:16 2021, MaxMem=   104857600 cpu:               6.7 elap:               0.2
 (Enter /s/ls4/users/knvvv/bin/g16sse/l302.exe)
 NPDir=0 NMtPBC=     1 NCelOv=     1 NCel=       1 NClECP=     1 NCelD=      1
         NCelK=      1 NCelE2=     1 NClLst=     1 CellRange=     0.0.
 One-electron integrals computed using PRISM.
 One-electron integral symmetry used in STVInt
 PrsmSu:  requested number of processors reduced to:  13 ShMem   1 Linda.
  48 Symmetry operations used in ECPInt.
 ECPInt:  NShTT=     190 NPrTT=     779 LenC2=     191 LenP2D=     779.
 LDataN:  DoStor=T MaxTD1= 6 Len=  172
 NBasis=    51 RedAO= T EigKep=  4.22D-03  NBF=    17     4     4     4     1     7     7     7
 NBsUse=    51 1.00D-06 EigRej= -1.00D+00 NBFU=    17     4     4     4     1     7     7     7
 Precomputing XC quadrature grid using
 IXCGrd= 4 IRadAn=           5 IRanWt=          -1 IRanGd=           0 AccXCQ= 0.00D+00.
 Generated NRdTot=       0 NPtTot=           0 NUsed=           0 NTot=          32
 NSgBfM=    58    58    58    58    58 MxSgAt=     1 MxSgA2=     1.
 Leave Link  302 at Sun Apr 18 07:19:25 2021, MaxMem=   104857600 cpu:             396.1 elap:               8.5
 (Enter /s/ls4/users/knvvv/bin/g16sse/l303.exe)
 DipDrv:  MaxL=1.
 Leave Link  303 at Sun Apr 18 07:19:25 2021, MaxMem=   104857600 cpu:              12.9 elap:               0.3
 (Enter /s/ls4/users/knvvv/bin/g16sse/l401.exe)
 SCF N**3 symmetry information disabled.
 ExpMin= 2.92D-02 ExpMax= 6.06D+05 ExpMxC= 1.90D+03 IAcc=3 IRadAn=         5 AccDes= 0.00D+00
 Harris functional with IExCor= 1009 and IRadAn=       5 diagonalized for initial guess.
 HarFok:  IExCor= 1009 AccDes= 0.00D+00 IRadAn=         5 IDoV= 1 UseB2=F ITyADJ=14
 ICtDFT=  3500011 ScaDFX=  1.000000  1.000000  1.000000  1.000000
 FoFCou: FMM=F IPFlag=           0 FMFlag=      100000 FMFlg1=           0
         NFxFlg=           0 DoJE=T BraDBF=F KetDBF=T FulRan=T
         wScrn=  0.000000 ICntrl=       500 IOpCl=  0 I1Cent=   200000004 NGrid=           0
         NMat0=    1 NMatS0=      1 NMatT0=    0 NMatD0=    1 NMtDS0=    0 NMtDT0=    0
 Petite list used in FoFCou.
 Harris En= -199.908830067478    
 JPrj=0 DoOrth=F DoCkMO=F.
 Initial guess orbital symmetries:
       Occupied  (A1G) (A1G) (T1U) (T1U) (T1U) (A1G)
       Virtual   (T1U) (T1U) (T1U) (A1G) (T2G) (T2G) (T2G) (EG)
                 (EG) (T1U) (T1U) (T1U) (A1G) (T1U) (T1U) (T1U)
                 (T2G) (T2G) (T2G) (EG) (EG) (T2U) (T2U) (T2U)
                 (A2U) (T1U) (T1U) (T1U) (T1U) (T1U) (T1U) (T2G)
                 (T2G) (T2G) (EG) (EG) (A1G) (?A) (?A) (?A) (?A)
                 (?A) (A1G) (A1G) (A1G)
 The electronic state of the initial guess is 1-A1G.
 Leave Link  401 at Sun Apr 18 07:19:31 2021, MaxMem=   104857600 cpu:             291.2 elap:               6.2
 (Enter /s/ls4/users/knvvv/bin/g16sse/l502.exe)
 Keep R1 ints in memory in symmetry-blocked form, NReq=43148769.
 FoFCou: FMM=F IPFlag=           0 FMFlag=           0 FMFlg1=           0
         NFxFlg=           0 DoJE=F BraDBF=F KetDBF=F FulRan=T
         wScrn=  0.000000 ICntrl=       600 IOpCl=  0 I1Cent=           0 NGrid=           0
         NMat0=    1 NMatS0=   1326 NMatT0=    0 NMatD0=    1 NMtDS0=    0 NMtDT0=    0
 Petite list used in FoFCou.
 Closed shell SCF:
 Using DIIS extrapolation, IDIIS=  1040.
 NGot=   104857600 LenX=   104718775 LenY=   104714970
 Requested convergence on RMS density matrix=1.00D-08 within 128 cycles.
 Requested convergence on MAX density matrix=1.00D-06.
 Requested convergence on             energy=1.00D-06.
 No special actions if energy rises.

 Cycle   1  Pass 1  IDiag  1:
 E= -200.052908057390    
 DIIS: error= 3.77D-02 at cycle   1 NSaved=   1.
 NSaved= 1 IEnMin= 1 EnMin= -200.052908057390     IErMin= 1 ErrMin= 3.77D-02
 ErrMax= 3.77D-02  0.00D+00 EMaxC= 1.00D-01 BMatC= 3.28D-02 BMatP= 3.28D-02
 IDIUse=3 WtCom= 6.23D-01 WtEn= 3.77D-01
 Coeff-Com:  0.100D+01
 Coeff-En:   0.100D+01
 Coeff:      0.100D+01
 Gap=     0.223 Goal=   None    Shift=    0.000
 GapD=    0.223 DampG=1.000 DampE=0.500 DampFc=0.5000 IDamp=-1.
 Damping current iteration by 5.00D-01
 RMSDP=3.44D-03 MaxDP=8.43D-02              OVMax= 4.66D-02

 Cycle   2  Pass 1  IDiag  1:
 E= -200.056722860118     Delta-E=       -0.003814802728 Rises=F Damp=T
 DIIS: error= 1.55D-02 at cycle   2 NSaved=   2.
 NSaved= 2 IEnMin= 2 EnMin= -200.056722860118     IErMin= 2 ErrMin= 1.55D-02
 ErrMax= 1.55D-02  0.00D+00 EMaxC= 1.00D-01 BMatC= 5.65D-03 BMatP= 3.28D-02
 IDIUse=3 WtCom= 8.45D-01 WtEn= 1.55D-01
 Coeff-Com: -0.625D+00 0.162D+01
 Coeff-En:   0.000D+00 0.100D+01
 Coeff:     -0.528D+00 0.153D+01
 Gap=     0.219 Goal=   None    Shift=    0.000
 RMSDP=1.55D-03 MaxDP=4.13D-02 DE=-3.81D-03 OVMax= 5.77D-03

 Cycle   3  Pass 1  IDiag  1:
 E= -200.060020394100     Delta-E=       -0.003297533983 Rises=F Damp=F
 DIIS: error= 1.21D-03 at cycle   3 NSaved=   3.
 NSaved= 3 IEnMin= 3 EnMin= -200.060020394100     IErMin= 3 ErrMin= 1.21D-03
 ErrMax= 1.21D-03  0.00D+00 EMaxC= 1.00D-01 BMatC= 2.28D-05 BMatP= 5.65D-03
 IDIUse=3 WtCom= 9.88D-01 WtEn= 1.21D-02
 Coeff-Com: -0.736D-01 0.136D+00 0.938D+00
 Coeff-En:   0.000D+00 0.000D+00 0.100D+01
 Coeff:     -0.728D-01 0.134D+00 0.939D+00
 Gap=     0.219 Goal=   None    Shift=    0.000
 RMSDP=9.46D-05 MaxDP=1.54D-03 DE=-3.30D-03 OVMax= 1.48D-03

 Cycle   4  Pass 1  IDiag  1:
 E= -200.060028784323     Delta-E=       -0.000008390222 Rises=F Damp=F
 DIIS: error= 2.60D-05 at cycle   4 NSaved=   4.
 NSaved= 4 IEnMin= 4 EnMin= -200.060028784323     IErMin= 4 ErrMin= 2.60D-05
 ErrMax= 2.60D-05  0.00D+00 EMaxC= 1.00D-01 BMatC= 1.46D-08 BMatP= 2.28D-05
 IDIUse=1 WtCom= 1.00D+00 WtEn= 0.00D+00
 Coeff-Com:  0.518D-02-0.104D-01-0.430D-01 0.105D+01
 Coeff:      0.518D-02-0.104D-01-0.430D-01 0.105D+01
 Gap=     0.219 Goal=   None    Shift=    0.000
 RMSDP=1.44D-05 MaxDP=4.55D-04 DE=-8.39D-06 OVMax= 2.05D-04

 Cycle   5  Pass 1  IDiag  1:
 E= -200.060028815638     Delta-E=       -0.000000031316 Rises=F Damp=F
 DIIS: error= 2.47D-06 at cycle   5 NSaved=   5.
 NSaved= 5 IEnMin= 5 EnMin= -200.060028815638     IErMin= 5 ErrMin= 2.47D-06
 ErrMax= 2.47D-06  0.00D+00 EMaxC= 1.00D-01 BMatC= 1.30D-10 BMatP= 1.46D-08
 IDIUse=1 WtCom= 1.00D+00 WtEn= 0.00D+00
 Coeff-Com: -0.157D-03 0.351D-03-0.968D-03-0.665D-01 0.107D+01
 Coeff:     -0.157D-03 0.351D-03-0.968D-03-0.665D-01 0.107D+01
 Gap=     0.219 Goal=   None    Shift=    0.000
 RMSDP=2.99D-06 MaxDP=1.13D-04 DE=-3.13D-08 OVMax= 2.70D-05

 Cycle   6  Pass 1  IDiag  1:
 E= -200.060028816107     Delta-E=       -0.000000000469 Rises=F Damp=F
 DIIS: error= 1.97D-07 at cycle   6 NSaved=   6.
 NSaved= 6 IEnMin= 6 EnMin= -200.060028816107     IErMin= 6 ErrMin= 1.97D-07
 ErrMax= 1.97D-07  0.00D+00 EMaxC= 1.00D-01 BMatC= 1.01D-12 BMatP= 1.30D-10
 IDIUse=1 WtCom= 1.00D+00 WtEn= 0.00D+00
 Coeff-Com: -0.502D-04 0.979D-04 0.588D-03-0.806D-02-0.538D-01 0.106D+01
 Coeff:     -0.502D-04 0.979D-04 0.588D-03-0.806D-02-0.538D-01 0.106D+01
 Gap=     0.219 Goal=   None    Shift=    0.000
 RMSDP=3.57D-07 MaxDP=1.33D-05 DE=-4.69D-10 OVMax= 3.14D-06

 Cycle   7  Pass 1  IDiag  1:
 E= -200.060028816113     Delta-E=       -0.000000000005 Rises=F Damp=F
 DIIS: error= 1.28D-08 at cycle   7 NSaved=   7.
 NSaved= 7 IEnMin= 7 EnMin= -200.060028816113     IErMin= 7 ErrMin= 1.28D-08
 ErrMax= 1.28D-08  0.00D+00 EMaxC= 1.00D-01 BMatC= 1.09D-14 BMatP= 1.01D-12
 IDIUse=1 WtCom= 1.00D+00 WtEn= 0.00D+00
 Coeff-Com:  0.171D-05-0.348D-05-0.339D-05 0.158D-04 0.127D-02-0.695D-01
 Coeff-Com:  0.107D+01
 Coeff:      0.171D-05-0.348D-05-0.339D-05 0.158D-04 0.127D-02-0.695D-01
 Coeff:      0.107D+01
 Gap=     0.219 Goal=   None    Shift=    0.000
 RMSDP=2.14D-08 MaxDP=8.01D-07 DE=-5.46D-12 OVMax= 1.67D-07

 Cycle   8  Pass 1  IDiag  1:
 E= -200.060028816113     Delta-E=       -0.000000000000 Rises=F Damp=F
 DIIS: error= 1.11D-09 at cycle   8 NSaved=   8.
 NSaved= 8 IEnMin= 8 EnMin= -200.060028816113     IErMin= 8 ErrMin= 1.11D-09
 ErrMax= 1.11D-09  0.00D+00 EMaxC= 1.00D-01 BMatC= 3.00D-17 BMatP= 1.09D-14
 IDIUse=1 WtCom= 1.00D+00 WtEn= 0.00D+00
 Coeff-Com: -0.431D-07 0.940D-07-0.103D-05 0.175D-04 0.109D-03-0.132D-03
 Coeff-Com: -0.199D-01 0.102D+01
 Coeff:     -0.431D-07 0.940D-07-0.103D-05 0.175D-04 0.109D-03-0.132D-03
 Coeff:     -0.199D-01 0.102D+01
 Gap=     0.219 Goal=   None    Shift=    0.000
 DSYEVD-2 returned Info=         103 IAlg= 4 N=    51 NDim=    51 NE2=     2053233 trying  DSYEV.
 RMSDP=1.90D-10 MaxDP=4.29D-09 DE=-1.14D-13 OVMax= 2.64D-09

 SCF Done:  E(RM062X) =  -200.060028816     A.U. after    8 cycles
            NFock=  8  Conv=0.19D-09     -V/T= 2.0037
 KE= 1.993208745383D+02 PE=-4.787758334873D+02 EE= 7.939493013284D+01
 Leave Link  502 at Sun Apr 18 07:20:27 2021, MaxMem=   104857600 cpu:            2612.2 elap:              55.6
 (Enter /s/ls4/users/knvvv/bin/g16sse/l601.exe)
 Copying SCF densities to generalized density rwf, IOpCl= 0 IROHF=0.

 **********************************************************************

            Population analysis using the SCF density.

 **********************************************************************

 Orbital symmetries:
       Occupied  (A1G) (A1G) (T1U) (T1U) (T1U) (A1G)
       Virtual   (T1U) (T1U) (T1U) (A1G) (T1U) (T1U) (T1U) (T2G)
                 (T2G) (T2G) (EG) (EG) (A1G) (T1U) (T1U) (T1U)
                 (T2G) (T2G) (T2G) (EG) (EG) (T2U) (T2U) (T2U)
                 (A2U) (T1U) (T1U) (T1U) (T1U) (T1U) (T1U) (T2G)
                 (T2G) (T2G) (EG) (EG) (A1G) (?A) (?A) (?A) (?A)
                 (?A) (A1G) (A1G) (A1G)
 The electronic state is 1-A1G.
 Alpha  occ. eigenvalues --  -47.57862  -3.31918  -2.00789  -2.00789  -2.00789
 Alpha  occ. eigenvalues --   -0.22690
 Alpha virt. eigenvalues --   -0.00793  -0.00793  -0.00793   0.05236   0.09521
 Alpha virt. eigenvalues --    0.09521   0.09521   0.11034   0.11034   0.11034
 Alpha virt. eigenvalues --    0.11034   0.11034   0.34221   0.43164   0.43164
 Alpha virt. eigenvalues --    0.43164   0.44794   0.44794   0.44794   0.44794
 Alpha virt. eigenvalues --    0.44794   0.52140   0.52140   0.52140   0.52140
 Alpha virt. eigenvalues --    0.52140   0.52140   0.52140   1.41557   1.41557
 Alpha virt. eigenvalues --    1.41557   1.59547   1.59547   1.59547   1.59547
 Alpha virt. eigenvalues --    1.59547   2.04877   8.17377   8.17377   8.17377
 Alpha virt. eigenvalues --    8.17377   8.17377   8.78363  34.43383 194.88359
          Condensed to atoms (all electrons):
               1
     1  Mg  12.000000
 Mulliken charges:
               1
     1  Mg   0.000000
 Sum of Mulliken charges =   0.00000
 Mulliken charges with hydrogens summed into heavy atoms:
               1
     1  Mg   0.000000
 Electronic spatial extent (au):  <R**2>=             27.7264
 Charge=              0.0000 electrons
 Dipole moment (field-independent basis, Debye):
    X=              0.0000    Y=             -0.0000    Z=             -0.0000  Tot=              0.0000
 Quadrupole moment (field-independent basis, Debye-Ang):
   XX=            -12.4310   YY=            -12.4310   ZZ=            -12.4310
   XY=             -0.0000   XZ=              0.0000   YZ=             -0.0000
 Traceless Quadrupole moment (field-independent basis, Debye-Ang):
   XX=              0.0000   YY=              0.0000   ZZ=              0.0000
   XY=             -0.0000   XZ=              0.0000   YZ=             -0.0000
 Octapole moment (field-independent basis, Debye-Ang**2):
  XXX=              0.0000  YYY=             -0.0000  ZZZ=              0.0000  XYY=              0.0000
  XXY=             -0.0000  XXZ=             -0.0000  XZZ=             -0.0000  YZZ=              0.0000
  YYZ=             -0.0000  XYZ=             -0.0000
 Hexadecapole moment (field-independent basis, Debye-Ang**3):
 XXXX=            -35.5935 YYYY=            -35.5935 ZZZZ=            -35.5935 XXXY=              0.0000
 XXXZ=             -0.0000 YYYX=             -0.0000 YYYZ=              0.0000 ZZZX=              0.0000
 ZZZY=             -0.0000 XXYY=            -11.8645 XXZZ=            -11.8645 YYZZ=            -11.8645
 XXYZ=             -0.0000 YYXZ=              0.0000 ZZXY=             -0.0000
 N-N= 0.000000000000D+00 E-N=-4.787758335072D+02  KE= 1.993208745383D+02
 No NMR shielding tensors so no spin-rotation constants.
 Leave Link  601 at Sun Apr 18 07:20:30 2021, MaxMem=   104857600 cpu:             125.4 elap:               2.7
 (Enter /s/ls4/users/knvvv/bin/g16sse/l801.exe)
 DoSCS=F DFT=T ScalE2(SS,OS)=  1.000000  1.000000
 Range of M.O.s used for correlation:     1    51
 NBasis=    51 NAE=     6 NBE=     6 NFC=     0 NFV=     0
 NROrb=     51 NOA=     6 NOB=     6 NVA=    45 NVB=    45
 Leave Link  801 at Sun Apr 18 07:20:30 2021, MaxMem=   104857600 cpu:               4.6 elap:               0.1
 (Enter /s/ls4/users/knvvv/bin/g16sse/l914.exe)
 RHF ground state
 Doing stability rather than CIS.
 Keep R1 and R2 ints in memory in symmetry-blocked form, NReq=85242373.
 FoFCou: FMM=F IPFlag=           0 FMFlag=           0 FMFlg1=           0
         NFxFlg=           0 DoJE=F BraDBF=F KetDBF=F FulRan=T
         wScrn=  0.000000 ICntrl=       600 IOpCl=  0 I1Cent=           0 NGrid=           0
         NMat0=    1 NMatS0=   1326 NMatT0=    0 NMatD0=    1 NMtDS0=    0 NMtDT0=    0
 Petite list used in FoFCou.
 MDV=   104857600 DFT=T DoStab=T Mixed=T DoRPA=F DoScal=F NonHer=F
 Making orbital integer symmetry assigments:
 Orbital symmetries:
       Occupied  (A1G) (A1G) (T1U) (T1U) (T1U) (A1G)
       Virtual   (T1U) (T1U) (T1U) (A1G) (T1U) (T1U) (T1U) (T2G)
                 (T2G) (T2G) (EG) (EG) (A1G) (T1U) (T1U) (T1U)
                 (T2G) (T2G) (T2G) (EG) (EG) (T2U) (T2U) (T2U)
                 (A2U) (T1U) (T1U) (T1U) (T1U) (T1U) (T1U) (T2G)
                 (T2G) (T2G) (EG) (EG) (A1G) (?A) (?A) (?A) (?A)
                 (?A) (A1G) (A1G) (A1G)
    48 initial guesses have been made.
 Convergence on wavefunction:    0.001000000000000
 Davidson Disk Diagonalization:  ConvIn= 1.00D-03 SkipCon=T Conv= 1.00D-03.
 Max sub-space:  1080 roots to seek:    48 dimension of matrix:          540
 Iteration     1 Dimension    48 NMult     0 NNew     48
 CISAX will form    48 AO SS matrices at one time.
 NMat=    48 NSing=    24 JSym2X= 2.
 New state      1 was old state      4
 Excitation Energies [eV] at current iteration:
 Root      1 :     2.931549264023482
 Root      2 :     2.931549264035143
 Root      3 :     2.931549264045789
 Root      4 :     5.221140870141990
 Root      5 :     5.221140870146733
 Root      6 :     5.221140870149651
 Root      7 :     5.744932212346985
 Root      8 :     6.338822030605858
 Root      9 :     6.953647355151138
 Root     10 :     6.953647355154141
 Root     11 :     6.953647355160153
 Root     12 :     6.953647355356686
 Root     13 :     6.953647355361380
 Root     14 :     7.005861499750387
 Root     15 :     7.005861499773940
 Root     16 :     7.005861499778761
 Root     17 :     7.377666984141473
 Root     18 :     7.377666984178668
 Root     19 :     7.377666984192450
 Root     20 :     7.377666984201852
 Root     21 :     7.377666984241669
 Root     22 :     9.105491566024956
 Root     23 :     9.105491566030489
 Root     24 :     9.105491566033407
 Root     25 :    13.149509783545980
 Root     26 :    14.351825085887920
 Root     27 :    14.351825085905280
 Root     28 :    14.351825085956420
 Root     29 :    15.107137326377430
 Root     30 :    15.363572271434600
 Root     31 :    15.363572271437410
 Root     32 :    15.363572271440390
 Root     33 :    15.363572271500840
 Root     34 :    15.363572271507630
 Root     35 :    16.453887833230660
 Root     36 :    16.453887833233310
 Root     37 :    16.453887833266910
 Root     38 :    17.197065277063530
 Root     39 :    17.197065277064630
 Root     40 :    17.197065277065480
 Root     41 :    17.197065277295980
 Root     42 :    17.197065277297870
 Root     43 :    18.306076278438120
 Root     44 :    18.306076278438170
 Root     45 :    18.306076278438230
 Root     46 :    18.774018621735150
 Root     47 :    18.774018621735190
 Root     48 :    18.774018621735260
 Iteration     2 Dimension    96 NMult    48 NNew     48
 CISAX will form    48 AO SS matrices at one time.
 NMat=    48 NSing=    24 JSym2X= 2.
 New state      1 was old state      2
 Root      1 not converged, maximum delta is    0.355212328795561
 Excitation Energies [eV] at current iteration:
 Root      1 :     2.764466733832912   Change is   -0.167082530202231
 Root      2 :     2.764466782655951   Change is   -0.167082481367531
 Root      3 :     2.764466831249358   Change is   -0.167082432796431
 Root      4 :     5.191130687918855   Change is   -0.030010182223134
 Root      5 :     5.191130732320684   Change is   -0.030010137828967
 Root      6 :     5.191130805329170   Change is   -0.030010064817563
 Root      7 :     5.741596306879492   Change is   -0.003335905467493
 Root      8 :     6.323850728238056   Change is   -0.014971302367802
 Root      9 :     6.943381857768799   Change is   -0.010265497592582
 Root     10 :     6.943381867582729   Change is   -0.010265487773957
 Root     11 :     6.943381869180766   Change is   -0.010265485979387
 Root     12 :     6.943381870197169   Change is   -0.010265484956972
 Root     13 :     6.943381880475480   Change is   -0.010265474675658
 Root     14 :     6.961993450469750   Change is   -0.043868049309011
 Root     15 :     6.961993455168301   Change is   -0.043868044582087
 Root     16 :     6.961993462776087   Change is   -0.043868036997852
 Root     17 :     7.339630316102747   Change is   -0.038036668089703
 Root     18 :     7.339630328855605   Change is   -0.038036655323063
 Root     19 :     7.339630329003903   Change is   -0.038036655237767
 Root     20 :     7.339630329929293   Change is   -0.038036654272559
 Root     21 :     7.339630341444768   Change is   -0.038036642696704
 Root     22 :     8.937354928856941   Change is   -0.168136637168015
 Root     23 :     8.937355017081767   Change is   -0.168136548948723
 Root     24 :     8.937355174372751   Change is   -0.168136391660657
 Root     25 :    13.051399569657110   Change is   -0.098110213888871
 Root     26 :    14.314979419674060   Change is   -0.036845666213856
 Root     27 :    14.314979432888820   Change is   -0.036845653016466
 Root     28 :    14.314979439329780   Change is   -0.036845646626636
 Root     29 :    15.009698036833610   Change is   -0.097439289543818
 Root     30 :    15.171588815349810   Change is   -0.191983456084788
 Root     31 :    15.171588822519340   Change is   -0.191983448918071
 Root     32 :    15.171588823077380   Change is   -0.191983448363010
 Root     33 :    15.171588823244940   Change is   -0.191983448255907
 Root     34 :    15.171588831336390   Change is   -0.191983440171244
 Root     35 :    16.167863019278340   Change is   -0.286024813952313
 Root     36 :    16.167863080093260   Change is   -0.286024753173659
 Root     37 :    16.167863549994260   Change is   -0.286024283239048
 Root     38 :    17.114426413101590   Change is   -0.082638863963037
 Root     39 :    17.114426427161670   Change is   -0.082638849901863
 Root     40 :    17.114426428810240   Change is   -0.082638848487627
 Root     41 :    17.114426434042260   Change is   -0.082638843023217
 Root     42 :    17.114426448530890   Change is   -0.082638828765087
 Root     43 :    18.299284365180310   Change is   -0.006791913257804
 Root     44 :    18.299284365180480   Change is   -0.006791913257689
 Root     45 :    18.299284365180490   Change is   -0.006791913257731
 Root     46 :    18.753103468085660   Change is   -0.020915153649491
 Root     47 :    18.753103468085670   Change is   -0.020915153649522
 Root     48 :    18.753103468085700   Change is   -0.020915153649564
 Iteration     3 Dimension   102 NMult    96 NNew      6
 CISAX will form     6 AO SS matrices at one time.
 NMat=     6 NSing=     3 JSym2X= 2.
 DSYEVD-2 returned Info=        8033 IAlg= 4 N=   102 NDim=   102 NE2=     1002643 trying  DSYEV.
 New state      1 was old state      2
 Root      1 not converged, maximum delta is    0.215654419447798
 Excitation Energies [eV] at current iteration:
 Root      1 :     2.764306267302568   Change is   -0.000160515353383
 Root      2 :     2.764306276792686   Change is   -0.000160457040226
 Root      3 :     2.764306279043997   Change is   -0.000160552205361
 Root      4 :     5.191025748005543   Change is   -0.000104984315141
 Root      5 :     5.191025751449388   Change is   -0.000104936469467
 Root      6 :     5.191025779778628   Change is   -0.000105025550542
 Iteration     4 Dimension   108 NMult   102 NNew      6
 CISAX will form     6 AO SS matrices at one time.
 NMat=     6 NSing=     3 JSym2X= 2.
 Root      1 not converged, maximum delta is    0.139855291050306
 Excitation Energies [eV] at current iteration:
 Root      1 :     2.764306081959629   Change is   -0.000000185342939
 Root      2 :     2.764306083876619   Change is   -0.000000195167377
 Root      3 :     2.764306088468230   Change is   -0.000000188324456
 Root      4 :     5.191025638812567   Change is   -0.000000109192976
 Root      5 :     5.191025642787305   Change is   -0.000000136991323
 Root      6 :     5.191025644871686   Change is   -0.000000106577702
 Iteration     5 Dimension   109 NMult   108 NNew      1
 CISAX will form     1 AO SS matrices at one time.
 NMat=     1 NSing=     0 JSym2X= 2.
 Root      1 not converged, maximum delta is    0.099057581690710
 Excitation Energies [eV] at current iteration:
 Root      1 :     2.764306081756625   Change is   -0.000000000203004
 Root      2 :     2.764306083845297   Change is   -0.000000000031322
 Root      3 :     2.764306085565990   Change is   -0.000000002902240
 Root      4 :     5.191025638812555   Change is   -0.000000000000012
 Root      5 :     5.191025642787287   Change is   -0.000000000000018
 Root      6 :     5.191025644871674   Change is   -0.000000000000012
 Convergence achieved on expansion vectors.
 ***********************************************************************
 Stability analysis using <AA,BB:AA,BB> singles matrix:
 ***********************************************************************
 1PDM for each excited state written to RWF  633
 Ground to excited state transition densities written to RWF  633

 Eigenvectors of the stability matrix:
 
 Eigenvector   1:      Triplet-T1U  Eigenvalue= 0.1015864  <S**2>=2.000
       6 ->  7        -0.22489
       6 ->  8         0.59967
       6 ->  9         0.12333
       6 -> 11         0.24083
 
 Eigenvector   2:      Triplet-T1U  Eigenvalue= 0.1015864  <S**2>=2.000
       6 ->  8        -0.16340
       6 ->  9         0.62450
       6 -> 13         0.23888
 
 Eigenvector   3:      Triplet-T1U  Eigenvalue= 0.1015864  <S**2>=2.000
       6 ->  7         0.60508
       6 ->  8         0.19771
       6 ->  9         0.14205
       6 -> 12         0.25005
 
 Eigenvector   4:      Singlet-T1U  Eigenvalue= 0.1907667  <S**2>=0.000
       6 ->  7        -0.25472
       6 ->  8         0.23386
       6 ->  9         0.53436
       6 -> 11        -0.11415
       6 -> 13        -0.27364
 
 Eigenvector   5:      Singlet-T1U  Eigenvalue= 0.1907667  <S**2>=0.000
       6 ->  7         0.49808
       6 ->  8         0.39067
       6 -> 11        -0.10775
       6 -> 12        -0.28218
 
 Eigenvector   6:      Singlet-T1U  Eigenvalue= 0.1907667  <S**2>=0.000
       6 ->  7        -0.30357
       6 ->  8         0.44476
       6 ->  9        -0.33935
       6 -> 11        -0.25862
       6 -> 13         0.12789
 The wavefunction is stable under the perturbations considered.
 Leave Link  914 at Sun Apr 18 07:20:42 2021, MaxMem=   104857600 cpu:             580.4 elap:              12.4
 (Enter /s/ls4/users/knvvv/bin/g16sse/l508.exe)
 The wavefunction is already stable.
 Leave Link  508 at Sun Apr 18 07:20:42 2021, MaxMem=   104857600 cpu:               2.2 elap:               0.1
 (Enter /s/ls4/users/knvvv/bin/g16sse/l601.exe)
 Copying SCF densities to generalized density rwf, IOpCl= 0 IROHF=0.

 **********************************************************************

            Population analysis using the SCF density.

 **********************************************************************

 Orbital symmetries:
       Occupied  (A1G) (A1G) (T1U) (T1U) (T1U) (A1G)
       Virtual   (T1U) (T1U) (T1U) (A1G) (T1U) (T1U) (T1U) (T2G)
                 (T2G) (T2G) (EG) (EG) (A1G) (T1U) (T1U) (T1U)
                 (T2G) (T2G) (T2G) (EG) (EG) (T2U) (T2U) (T2U)
                 (A2U) (T1U) (T1U) (T1U) (T1U) (T1U) (T1U) (T2G)
                 (T2G) (T2G) (EG) (EG) (A1G) (?A) (?A) (?A) (?A)
                 (?A) (A1G) (A1G) (A1G)
 The electronic state is 1-A1G.
 Alpha  occ. eigenvalues --  -47.57862  -3.31918  -2.00789  -2.00789  -2.00789
 Alpha  occ. eigenvalues --   -0.22690
 Alpha virt. eigenvalues --   -0.00793  -0.00793  -0.00793   0.05236   0.09521
 Alpha virt. eigenvalues --    0.09521   0.09521   0.11034   0.11034   0.11034
 Alpha virt. eigenvalues --    0.11034   0.11034   0.34221   0.43164   0.43164
 Alpha virt. eigenvalues --    0.43164   0.44794   0.44794   0.44794   0.44794
 Alpha virt. eigenvalues --    0.44794   0.52140   0.52140   0.52140   0.52140
 Alpha virt. eigenvalues --    0.52140   0.52140   0.52140   1.41557   1.41557
 Alpha virt. eigenvalues --    1.41557   1.59547   1.59547   1.59547   1.59547
 Alpha virt. eigenvalues --    1.59547   2.04877   8.17377   8.17377   8.17377
 Alpha virt. eigenvalues --    8.17377   8.17377   8.78363  34.43383 194.88359
          Condensed to atoms (all electrons):
               1
     1  Mg  12.000000
 Mulliken charges:
               1
     1  Mg   0.000000
 Sum of Mulliken charges =   0.00000
 Mulliken charges with hydrogens summed into heavy atoms:
               1
     1  Mg   0.000000
 Electronic spatial extent (au):  <R**2>=             27.7264
 Charge=              0.0000 electrons
 Dipole moment (field-independent basis, Debye):
    X=              0.0000    Y=             -0.0000    Z=             -0.0000  Tot=              0.0000
 Quadrupole moment (field-independent basis, Debye-Ang):
   XX=            -12.4310   YY=            -12.4310   ZZ=            -12.4310
   XY=             -0.0000   XZ=              0.0000   YZ=             -0.0000
 Traceless Quadrupole moment (field-independent basis, Debye-Ang):
   XX=              0.0000   YY=              0.0000   ZZ=              0.0000
   XY=             -0.0000   XZ=              0.0000   YZ=             -0.0000
 Octapole moment (field-independent basis, Debye-Ang**2):
  XXX=              0.0000  YYY=             -0.0000  ZZZ=              0.0000  XYY=              0.0000
  XXY=             -0.0000  XXZ=             -0.0000  XZZ=             -0.0000  YZZ=              0.0000
  YYZ=             -0.0000  XYZ=             -0.0000
 Hexadecapole moment (field-independent basis, Debye-Ang**3):
 XXXX=            -35.5935 YYYY=            -35.5935 ZZZZ=            -35.5935 XXXY=              0.0000
 XXXZ=             -0.0000 YYYX=             -0.0000 YYYZ=              0.0000 ZZZX=              0.0000
 ZZZY=             -0.0000 XXYY=            -11.8645 XXZZ=            -11.8645 YYZZ=            -11.8645
 XXYZ=             -0.0000 YYXZ=              0.0000 ZZXY=             -0.0000
 N-N= 0.000000000000D+00 E-N=-4.787758335072D+02  KE= 1.993208745383D+02
 No NMR shielding tensors so no spin-rotation constants.
 Leave Link  601 at Sun Apr 18 07:20:45 2021, MaxMem=   104857600 cpu:             135.6 elap:               2.9
 (Enter /s/ls4/users/knvvv/bin/g16sse/l9999.exe)

 Test job not archived.
 1\1\GINC-N178\Stability\RM062X\def2QZVP\Mg1\KNVVV\18-Apr-2021\0\\#P M0
 62X/Def2QZVP Integral=UltraFineGrid SCF=NoSymm Stable=(RExt, Opt) IOp(
 1/33=1)\\Database calculations.\\0,1\Mg,0,0.,0.,0.\\Version=ES64L-G16R
 evA.03\State=1-A1G\HF=-200.0600288\RMSD=1.897e-10\Dipole=0.,0.,0.\Quad
 rupole=0.,0.,0.,0.,0.,0.\PG=OH [O(Mg1)]\\@


 ...THOSE SCIENCES ARE VAIN AND FULL OF ERRORS WHICH 
 ARE NOT BORN FROM EXPERIMENT, THE MOTHER OF CERTAINTY...

                          -- LEONARDO DA VINCI, 1452-1519
 Job cpu time:       0 days  1 hours 10 minutes 21.3 seconds.
 Elapsed time:       0 days  0 hours  1 minutes 30.1 seconds.
 File lengths (MBytes):  RWF=     21 Int=      0 D2E=      0 Chk=      2 Scr=      1
 Normal termination of Gaussian 16 at Sun Apr 18 07:20:45 2021.
