 Entering Gaussian System, Link 0=/s/ls4/users/knvvv/bin/g16sse/g16
 Input=data/database/M062X--def2-QZVPPD--246_so3_W4-11.gjf
 Output=data/database/M062X--def2-QZVPPD--246_so3_W4-11.log
 Initial command:
 /s/ls4/users/knvvv/bin/g16sse/l1.exe "/s/ls4/users/knvvv/bin/scratch/Gau-12321.inp" -scrdir="/s/ls4/users/knvvv/bin/scratch/"
 Entering Link 1 = /s/ls4/users/knvvv/bin/g16sse/l1.exe PID=     12322.
  
 Copyright (c) 1988,1990,1992,1993,1995,1998,2003,2009,2016,
            Gaussian, Inc.  All Rights Reserved.
  
 This is part of the Gaussian(R) 16 program.  It is based on
 the Gaussian(R) 09 system (copyright 2009, Gaussian, Inc.),
 the Gaussian(R) 03 system (copyright 2003, Gaussian, Inc.),
 the Gaussian(R) 98 system (copyright 1998, Gaussian, Inc.),
 the Gaussian(R) 94 system (copyright 1995, Gaussian, Inc.),
 the Gaussian 92(TM) system (copyright 1992, Gaussian, Inc.),
 the Gaussian 90(TM) system (copyright 1990, Gaussian, Inc.),
 the Gaussian 88(TM) system (copyright 1988, Gaussian, Inc.),
 the Gaussian 86(TM) system (copyright 1986, Carnegie Mellon
 University), and the Gaussian 82(TM) system (copyright 1983,
 Carnegie Mellon University). Gaussian is a federally registered
 trademark of Gaussian, Inc.
  
 This software contains proprietary and confidential information,
 including trade secrets, belonging to Gaussian, Inc.
  
 This software is provided under written license and may be
 used, copied, transmitted, or stored only in accord with that
 written license.
  
 The following legend is applicable only to US Government
 contracts under FAR:
  
                    RESTRICTED RIGHTS LEGEND
  
 Use, reproduction and disclosure by the US Government is
 subject to restrictions as set forth in subparagraphs (a)
 and (c) of the Commercial Computer Software - Restricted
 Rights clause in FAR 52.227-19.
  
 Gaussian, Inc.
 340 Quinnipiac St., Bldg. 40, Wallingford CT 06492
  
  
 ---------------------------------------------------------------
 Warning -- This program may not be used in any manner that
 competes with the business of Gaussian, Inc. or will provide
 assistance to any competitor of Gaussian, Inc.  The licensee
 of this program is prohibited from giving any competitor of
 Gaussian, Inc. access to this program.  By using this program,
 the user acknowledges that Gaussian, Inc. is engaged in the
 business of creating and licensing software in the field of
 computational chemistry and represents and warrants to the
 licensee that it is not a competitor of Gaussian, Inc. and that
 it will not use this program in any manner prohibited above.
 ---------------------------------------------------------------
  

 Cite this work as:
 Gaussian 16, Revision A.03,
 M. J. Frisch, G. W. Trucks, H. B. Schlegel, G. E. Scuseria, 
 M. A. Robb, J. R. Cheeseman, G. Scalmani, V. Barone, 
 G. A. Petersson, H. Nakatsuji, X. Li, M. Caricato, A. V. Marenich, 
 J. Bloino, B. G. Janesko, R. Gomperts, B. Mennucci, H. P. Hratchian, 
 J. V. Ortiz, A. F. Izmaylov, J. L. Sonnenberg, D. Williams-Young, 
 F. Ding, F. Lipparini, F. Egidi, J. Goings, B. Peng, A. Petrone, 
 T. Henderson, D. Ranasinghe, V. G. Zakrzewski, J. Gao, N. Rega, 
 G. Zheng, W. Liang, M. Hada, M. Ehara, K. Toyota, R. Fukuda, 
 J. Hasegawa, M. Ishida, T. Nakajima, Y. Honda, O. Kitao, H. Nakai, 
 T. Vreven, K. Throssell, J. A. Montgomery, Jr., J. E. Peralta, 
 F. Ogliaro, M. J. Bearpark, J. J. Heyd, E. N. Brothers, K. N. Kudin, 
 V. N. Staroverov, T. A. Keith, R. Kobayashi, J. Normand, 
 K. Raghavachari, A. P. Rendell, J. C. Burant, S. S. Iyengar, 
 J. Tomasi, M. Cossi, J. M. Millam, M. Klene, C. Adamo, R. Cammi, 
 J. W. Ochterski, R. L. Martin, K. Morokuma, O. Farkas, 
 J. B. Foresman, and D. J. Fox, Gaussian, Inc., Wallingford CT, 2016.
 
 ******************************************
 Gaussian 16:  ES64L-G16RevA.03 25-Dec-2016
                18-Apr-2021 
 ******************************************
 %RWF=temp12_58568,70GB
 %nprocshared=48
 Will use up to   48 processors via shared memory.
 Default route: MaxDisk=80GB
 ----------------------------------------------------------------------
 #P M062X/GEN Integral=UltraFineGrid SCF=NoSymm Stable=(RExt, Opt) IOp(
 1/33=1)
 ----------------------------------------------------------------------
 1/33=1,38=1,172=1/1;
 2/12=2,17=6,18=5,40=1/2;
 3/5=7,11=2,25=1,30=1,74=-55,75=-5/1,2,3;
 4/9=2/1;
 5/5=2,38=5/2;
 6/7=2,8=2,9=2,10=2,28=1/1;
 8/6=1,10=90,11=11/1;
 9/8=-3,42=1,46=1/14;
 5/5=2,8=3,17=40,38=5/8(-2);
 6/7=2,8=2,9=2,10=2,28=1/1;
 99/5=1,9=1/99;
 Leave Link    1 at Sun Apr 18 01:00:15 2021, MaxMem=           0 cpu:               8.5 elap:               0.2
 (Enter /s/ls4/users/knvvv/bin/g16sse/l101.exe)
 ONIOM data not found on unit 2.
 ----------------------
 Database calculations.
 ----------------------
 TstMul:  ICh=     0
 TstMul:  Mul=     1
 TstMul:  ICh=     0
 TstMul:  Mul=     1
 Symbolic Z-matrix:
 Charge =  0 Multiplicity = 1
 S                     0.        0.        0. 
 O                     0.        0.        1.42279 
 O                     1.23217   0.       -0.7114 
 O                    -1.23217   0.       -0.7114 
 
 RdStrC is calling ZToCFu for IStruc=1 NZ=     4.
 PrtBox:  NBox=     1 Levels=  1 BoxLen=    8.00 SMaxX=        4.66
          Shift=            2.328468            0.000000            1.344342
 Box      1 Number                   0 centers from      1 to      4:
 After GenITR:
 ITRead=  0  0  0  0
 MicOpt= -1 -1 -1 -1
 ITRead=  0  0  0  0
 MicOpt= -1 -1 -1 -1
 NAtoms=      4 NQM=        4 NQMF=       0 NMMI=      0 NMMIF=      0
                NMic=       0 NMicF=      0.
                    Isotopes and Nuclear Properties:
 (Nuclear quadrupole moments (NQMom) in fm**2, nuclear magnetic moments (NMagM)
  in nuclear magnetons)

  Atom         1           2           3           4
 IAtWgt=          32          16          16          16
 AtmWgt=  31.9720718  15.9949146  15.9949146  15.9949146
 NucSpn=           0           0           0           0
 AtZEff=  -0.0000000  -0.0000000  -0.0000000  -0.0000000
 NQMom=    0.0000000   0.0000000   0.0000000   0.0000000
 NMagM=    0.0000000   0.0000000   0.0000000   0.0000000
 AtZNuc=  16.0000000   8.0000000   8.0000000   8.0000000
 No MM parameters found.
 Leave Link  101 at Sun Apr 18 01:00:16 2021, MaxMem=   104857600 cpu:               7.1 elap:               0.2
 (Enter /s/ls4/users/knvvv/bin/g16sse/l202.exe)
                          Input orientation:                          
 ---------------------------------------------------------------------
 Center     Atomic      Atomic             Coordinates (Angstroms)
 Number     Number       Type             X           Y           Z
 ---------------------------------------------------------------------
      1         16           0        0.000000    0.000000    0.000000
      2          8           0        0.000000    0.000000    1.422790
      3          8           0        1.232172    0.000000   -0.711395
      4          8           0       -1.232172    0.000000   -0.711395
 ---------------------------------------------------------------------
                    Distance matrix (angstroms):
                    1          2          3          4
     1  S    0.000000
     2  O    1.422790   0.000000
     3  O    1.422790   2.464345   0.000000
     4  O    1.422790   2.464345   2.464345   0.000000
 Stoichiometry    O3S
 Framework group  D3H[O(S),3C2(O)]
 Deg. of freedom     1
 Full point group                 D3H     NOp  12
 Largest Abelian subgroup         C2V     NOp   4
 Largest concise Abelian subgroup C2      NOp   2
                         Standard orientation:                         
 ---------------------------------------------------------------------
 Center     Atomic      Atomic             Coordinates (Angstroms)
 Number     Number       Type             X           Y           Z
 ---------------------------------------------------------------------
      1         16           0        0.000000    0.000000    0.000000
      2          8           0        0.000000    1.422790    0.000000
      3          8           0        1.232172   -0.711395    0.000000
      4          8           0       -1.232172   -0.711395    0.000000
 ---------------------------------------------------------------------
 Rotational constants (GHZ):          10.4054869          10.4054869           5.2027434
 Leave Link  202 at Sun Apr 18 01:00:16 2021, MaxMem=   104857600 cpu:              14.8 elap:               0.3
 (Enter /s/ls4/users/knvvv/bin/g16sse/l301.exe)
 General basis read from cards:  (5D, 7F)
 Centers:       2      3      4
 S 8 1.00
     Exponent=  1.1650646908D+05 Coefficients=  4.0383857939D-05
     Exponent=  1.7504349724D+04 Coefficients=  3.1255139004D-04
     Exponent=  3.9934513230D+03 Coefficients=  1.6341473495D-03
     Exponent=  1.1330063186D+03 Coefficients=  6.8283224757D-03
     Exponent=  3.6999569594D+02 Coefficients=  2.4124410221D-02
     Exponent=  1.3362074349D+02 Coefficients=  7.2730206154D-02
     Exponent=  5.2035643649D+01 Coefficients=  1.7934429892D-01
     Exponent=  2.1461939313D+01 Coefficients=  3.3059588895D-01
 S 2 1.00
     Exponent=  8.9835051252D+01 Coefficients=  9.6468652996D-02
     Exponent=  2.6428010844D+01 Coefficients=  9.4117481120D-01
 S 1 1.00
     Exponent=  9.2822824649D+00 Coefficients=  1.0000000000D+00
 S 1 1.00
     Exponent=  4.0947728533D+00 Coefficients=  1.0000000000D+00
 S 1 1.00
     Exponent=  1.3255349078D+00 Coefficients=  1.0000000000D+00
 S 1 1.00
     Exponent=  5.1877230787D-01 Coefficients=  1.0000000000D+00
 S 1 1.00
     Exponent=  1.9772676454D-01 Coefficients=  1.0000000000D+00
 S 1 1.00
     Exponent=  6.9638535104D-02 Coefficients=  1.0000000000D+00
 P 5 1.00
     Exponent=  1.9115255810D+02 Coefficients=  2.5115697705D-03
     Exponent=  4.5233356739D+01 Coefficients=  2.0039240864D-02
     Exponent=  1.4353465922D+01 Coefficients=  9.3609064762D-02
     Exponent=  5.2422371832D+00 Coefficients=  3.0618127124D-01
     Exponent=  2.0792418599D+00 Coefficients=  6.7810501439D-01
 P 1 1.00
     Exponent=  8.4282371424D-01 Coefficients=  1.0000000000D+00
 P 1 1.00
     Exponent=  3.3617694891D-01 Coefficients=  1.0000000000D+00
 P 1 1.00
     Exponent=  1.2863997974D-01 Coefficients=  1.0000000000D+00
 P 1 1.00
     Exponent=  4.3598162776D-02 Coefficients=  1.0000000000D+00
 D 1 1.00
     Exponent=  3.7750000000D+00 Coefficients=  1.0000000000D+00
 D 1 1.00
     Exponent=  1.3000000000D+00 Coefficients=  1.0000000000D+00
 D 1 1.00
     Exponent=  4.4400000000D-01 Coefficients=  1.0000000000D+00
 D 1 1.00
     Exponent=  1.2546378695D-01 Coefficients=  1.0000000000D+00
 F 1 1.00
     Exponent=  2.6660000000D+00 Coefficients=  1.0000000000D+00
 F 1 1.00
     Exponent=  8.5900000000D-01 Coefficients=  1.0000000000D+00
 G 1 1.00
     Exponent=  1.8460000000D+00 Coefficients=  1.0000000000D+00
 ****
 Centers:       1
 S 10 1.00
     Exponent=  1.2734109023D+06 Coefficients=  1.1767088246D-05
     Exponent=  1.9069783007D+05 Coefficients=  9.1478610166D-05
     Exponent=  4.3397885330D+04 Coefficients=  4.8090078640D-04
     Exponent=  1.2291809677D+04 Coefficients=  2.0257193592D-03
     Exponent=  4.0097420824D+03 Coefficients=  7.3190096406D-03
     Exponent=  1.4473531030D+03 Coefficients=  2.3300499900D-02
     Exponent=  5.6430102913D+02 Coefficients=  6.5386213610D-02
     Exponent=  2.3374506243D+02 Coefficients=  1.5614449910D-01
     Exponent=  1.0156402814D+02 Coefficients=  2.9318563787D-01
     Exponent=  4.5805907187D+01 Coefficients=  3.6287914289D-01
 S 3 1.00
     Exponent=  3.9427281503D+02 Coefficients=  1.8753305081D-02
     Exponent=  1.2172249591D+02 Coefficients=  1.6870726663D-01
     Exponent=  4.6754125963D+01 Coefficients=  6.3806830653D-01
 S 1 1.00
     Exponent=  2.0923008254D+01 Coefficients=  1.0000000000D+00
 S 1 1.00
     Exponent=  8.2685567800D+00 Coefficients=  1.0000000000D+00
 S 1 1.00
     Exponent=  3.8629345671D+00 Coefficients=  1.0000000000D+00
 S 1 1.00
     Exponent=  1.7794684781D+00 Coefficients=  1.0000000000D+00
 S 1 1.00
     Exponent=  6.1064260103D-01 Coefficients=  1.0000000000D+00
 S 1 1.00
     Exponent=  2.7412269445D-01 Coefficients=  1.0000000000D+00
 S 1 1.00
     Exponent=  1.1325939107D-01 Coefficients=  1.0000000000D+00
 S 1 1.00
     Exponent=  4.4392624881D-02 Coefficients=  1.0000000000D+00
 P 8 1.00
     Exponent=  2.1898930459D+03 Coefficients=  2.3912552864D-04
     Exponent=  5.1894596592D+02 Coefficients=  2.0772032158D-03
     Exponent=  1.6819560151D+02 Coefficients=  1.1242420571D-02
     Exponent=  6.3745282788D+01 Coefficients=  4.4069933941D-02
     Exponent=  2.6597033077D+01 Coefficients=  1.2918778608D-01
     Exponent=  1.1774251449D+01 Coefficients=  2.6910820167D-01
     Exponent=  5.3534379024D+00 Coefficients=  3.7855928620D-01
     Exponent=  2.4701911802D+00 Coefficients=  2.9692134655D-01
 P 2 1.00
     Exponent=  8.2120288349D+01 Coefficients= -3.9420318847D-02
     Exponent=  4.9523532869D+00 Coefficients=  6.4048403090D-01
 P 1 1.00
     Exponent=  1.0828262029D+00 Coefficients=  1.0000000000D+00
 P 1 1.00
     Exponent=  4.9271277356D-01 Coefficients=  1.0000000000D+00
 P 1 1.00
     Exponent=  2.0483450942D-01 Coefficients=  1.0000000000D+00
 P 1 1.00
     Exponent=  8.0743615716D-02 Coefficients=  1.0000000000D+00
 P 1 1.00
     Exponent=  2.5661157833D-02 Coefficients=  1.0000000000D+00
 D 1 1.00
     Exponent=  4.1590000000D+00 Coefficients=  1.0000000000D+00
 D 1 1.00
     Exponent=  1.0190000000D+00 Coefficients=  1.0000000000D+00
 D 1 1.00
     Exponent=  4.6400000000D-01 Coefficients=  1.0000000000D+00
 D 1 1.00
     Exponent=  1.9400000000D-01 Coefficients=  1.0000000000D+00
 D 1 1.00
     Exponent=  6.7889829366D-02 Coefficients=  1.0000000000D+00
 F 1 1.00
     Exponent=  8.6900000000D-01 Coefficients=  1.0000000000D+00
 F 1 1.00
     Exponent=  3.3500000000D-01 Coefficients=  1.0000000000D+00
 G 1 1.00
     Exponent=  6.8300000000D-01 Coefficients=  1.0000000000D+00
 ****
 Ernie: Thresh=  0.10000D-02 Tol=  0.10000D-05 Strict=F.
 There are   136 symmetry adapted cartesian basis functions of A1  symmetry.
 There are    46 symmetry adapted cartesian basis functions of A2  symmetry.
 There are    94 symmetry adapted cartesian basis functions of B1  symmetry.
 There are    66 symmetry adapted cartesian basis functions of B2  symmetry.
 There are   105 symmetry adapted basis functions of A1  symmetry.
 There are    40 symmetry adapted basis functions of A2  symmetry.
 There are    76 symmetry adapted basis functions of B1  symmetry.
 There are    56 symmetry adapted basis functions of B2  symmetry.
   277 basis functions,   437 primitive gaussians,   342 cartesian basis functions
    20 alpha electrons       20 beta electrons
       nuclear repulsion energy       184.0496525746 Hartrees.
 IExCor= 4336 DFT=T Ex+Corr=M062X ExCW=0 ScaHFX=  0.540000
 ScaDFX=  1.000000  1.000000  1.000000  1.000000 ScalE2=  1.000000  1.000000
 IRadAn=      5 IRanWt=     -1 IRanGd=            0 ICorTp=0 IEmpDi=  4
 NAtoms=    4 NActive=    4 NUniq=    2 SFac= 4.00D+00 NAtFMM=   60 NAOKFM=F Big=F
 Integral buffers will be    131072 words long.
 Raffenetti 2 integral format.
 Two-electron integral symmetry is turned on.
 Leave Link  301 at Sun Apr 18 01:00:16 2021, MaxMem=   104857600 cpu:               8.5 elap:               0.2
 (Enter /s/ls4/users/knvvv/bin/g16sse/l302.exe)
 NPDir=0 NMtPBC=     1 NCelOv=     1 NCel=       1 NClECP=     1 NCelD=      1
         NCelK=      1 NCelE2=     1 NClLst=     1 CellRange=     0.0.
 One-electron integrals computed using PRISM.
 One-electron integral symmetry used in STVInt
 PrsmSu:  requested number of processors reduced to:   4 ShMem   1 Linda.
 PrsmSu:  requested number of processors reduced to:  21 ShMem   1 Linda.
 NBasis=   277 RedAO= T EigKep=  4.01D-05  NBF=   105    40    76    56
 NBsUse=   277 1.00D-06 EigRej= -1.00D+00 NBFU=   105    40    76    56
 Precomputing XC quadrature grid using
 IXCGrd= 4 IRadAn=           5 IRanWt=          -1 IRanGd=           0 AccXCQ= 0.00D+00.
 Generated NRdTot=       0 NPtTot=           0 NUsed=           0 NTot=          32
 NSgBfM=   340   340   340   340   340 MxSgAt=     4 MxSgA2=     4.
 Leave Link  302 at Sun Apr 18 01:00:45 2021, MaxMem=   104857600 cpu:            1351.4 elap:              28.9
 (Enter /s/ls4/users/knvvv/bin/g16sse/l303.exe)
 DipDrv:  MaxL=1.
 Leave Link  303 at Sun Apr 18 01:00:45 2021, MaxMem=   104857600 cpu:               9.8 elap:               0.3
 (Enter /s/ls4/users/knvvv/bin/g16sse/l401.exe)
 SCF N**3 symmetry information disabled.
 ExpMin= 2.57D-02 ExpMax= 1.27D+06 ExpMxC= 1.45D+03 IAcc=3 IRadAn=         5 AccDes= 0.00D+00
 Harris functional with IExCor= 1009 and IRadAn=       5 diagonalized for initial guess.
 HarFok:  IExCor= 1009 AccDes= 0.00D+00 IRadAn=         5 IDoV= 1 UseB2=F ITyADJ=14
 ICtDFT=  3500011 ScaDFX=  1.000000  1.000000  1.000000  1.000000
 FoFCou: FMM=F IPFlag=           0 FMFlag=      100000 FMFlg1=           0
         NFxFlg=           0 DoJE=T BraDBF=F KetDBF=T FulRan=T
         wScrn=  0.000000 ICntrl=       500 IOpCl=  0 I1Cent=   200000004 NGrid=           0
         NMat0=    1 NMatS0=      1 NMatT0=    0 NMatD0=    1 NMtDS0=    0 NMtDT0=    0
 Petite list used in FoFCou.
 CoulSu:  requested number of processors reduced to:  20 ShMem   1 Linda.
 CoulSu:  requested number of processors reduced to:  20 ShMem   1 Linda.
 CoulSu:  requested number of processors reduced to:  21 ShMem   1 Linda.
 CoulSu:  requested number of processors reduced to:  21 ShMem   1 Linda.
 DSYEVD-2 returned Info=       58101 IAlg= 4 N=   277 NDim=   277 NE2=      377679 trying  DSYEV.
 Harris En= -623.645986466391    
 JPrj=0 DoOrth=F DoCkMO=F.
 Initial guess orbital symmetries:
       Occupied  (A1') (A1') (E') (E') (A1') (E') (E') (A2") (A1')
                 (E') (E') (A1') (E') (E') (A2") (E') (E') (E")
                 (E") (A2')
       Virtual   (A1') (A2") (A1') (E') (E') (A2") (E') (E') (E")
                 (E") (A1') (E') (E') (A2") (A2') (E') (E') (A1')
                 (E") (E") (A1') (E') (E') (E') (E') (A2") (A1')
                 (E") (E") (E') (E') (A1') (A2') (E') (E') (E")
                 (E") (A2") (A1") (E") (E") (E') (E') (A1') (E')
                 (E') (A1') (A2") (E') (E') (E') (E') (E") (E")
                 (A1') (A2') (E') (E') (E') (E') (A1') (E") (E")
                 (A2") (E') (E') (A1') (A1") (A2') (A2") (E") (E")
                 (A1') (E') (E') (E") (E") (E') (E') (A2") (A1')
                 (E') (E') (A2') (E") (E") (E') (E') (E') (E')
                 (A1') (A2") (E") (E") (E') (E') (A2') (A1') (E')
                 (E') (A1') (A1") (A1') (E') (E') (E") (E") (A2')
                 (A2") (E") (E") (E') (E') (E") (E") (A2") (E')
                 (E') (E') (E') (A1') (E") (E") (A1') (A2") (E')
                 (E') (A2') (A2") (E') (E') (E") (E") (E') (E')
                 (A1") (A1') (A1') (E') (E') (E') (E') (E") (E")
                 (E") (E") (A2') (A1') (A2") (A1") (A1') (E') (E')
                 (E') (E') (E") (E") (A2') (A2") (E') (E') (A1')
                 (E') (E') (E") (E") (A2') (A2") (E') (E') (A1')
                 (E') (E') (A1') (E') (E') (E") (E") (A1') (E")
                 (E") (A1") (E') (E') (A1') (E") (E") (A2') (A2")
                 (E') (E') (E") (E") (E') (E') (A1') (A2") (A1")
                 (E") (E") (A2') (E') (E') (E') (E') (A1') (E")
                 (E") (A2') (A2") (E') (E') (E') (E') (E") (E")
                 (A1") (A1') (A2") (E') (E') (E") (E") (A1') (E')
                 (E') (A2') (A1") (E") (E") (E") (E") (A1') (E')
                 (E') (A2') (A2") (E') (E') (A1') (E') (E') (A1')
                 (E') (E') (A1') (A2") (E') (E') (A1') (E') (E')
                 (A1') (A1') (E') (E') (A1')
 The electronic state of the initial guess is 1-A1'.
 Leave Link  401 at Sun Apr 18 01:00:48 2021, MaxMem=   104857600 cpu:             102.4 elap:               2.4
 (Enter /s/ls4/users/knvvv/bin/g16sse/l502.exe)
 Integral symmetry usage will be decided dynamically.
 Closed shell SCF:
 Using DIIS extrapolation, IDIIS=  1040.
 NGot=   104857600 LenX=   104601762 LenY=   104484357
 Requested convergence on RMS density matrix=1.00D-08 within 128 cycles.
 Requested convergence on MAX density matrix=1.00D-06.
 Requested convergence on             energy=1.00D-06.
 No special actions if energy rises.
 Fock matrices will be formed incrementally for  20 cycles.

 Cycle   1  Pass 1  IDiag  1:
 FoFJK:  IHMeth= 1 ICntrl=       0 DoSepK=F KAlg= 0 I1Cent=           0 FoldK=F
 IRaf= 970000000 NMat=       1 IRICut=       1 DoRegI=T DoRafI=F ISym2E= 1 IDoP0=0 IntGTp=1.
 FoFCou: FMM=F IPFlag=           0 FMFlag=      100000 FMFlg1=           0
         NFxFlg=           0 DoJE=F BraDBF=F KetDBF=F FulRan=T
         wScrn=  0.000000 ICntrl=         0 IOpCl=  0 I1Cent=           0 NGrid=           0
         NMat0=    1 NMatS0=      1 NMatT0=    0 NMatD0=    1 NMtDS0=    0 NMtDT0=    0
 Petite list used in FoFCou.
 CoulSu:  requested number of processors reduced to:  21 ShMem   1 Linda.
 E= -623.626557483874    
 DIIS: error= 4.30D-02 at cycle   1 NSaved=   1.
 NSaved= 1 IEnMin= 1 EnMin= -623.626557483874     IErMin= 1 ErrMin= 4.30D-02
 ErrMax= 4.30D-02  0.00D+00 EMaxC= 1.00D-01 BMatC= 5.11D-01 BMatP= 5.11D-01
 IDIUse=3 WtCom= 5.70D-01 WtEn= 4.30D-01
 Coeff-Com:  0.100D+01
 Coeff-En:   0.100D+01
 Coeff:      0.100D+01
 Gap=     0.238 Goal=   None    Shift=    0.000
 GapD=    0.238 DampG=1.000 DampE=0.500 DampFc=0.5000 IDamp=-1.
 Damping current iteration by 5.00D-01
 RMSDP=2.13D-03 MaxDP=1.25D-01              OVMax= 2.83D-01

 Cycle   2  Pass 1  IDiag  1:
 RMSU=  1.06D-03    CP:  1.01D+00
 CoulSu:  requested number of processors reduced to:  21 ShMem   1 Linda.
 E= -623.710142412283     Delta-E=       -0.083584928410 Rises=F Damp=T
 DIIS: error= 2.55D-02 at cycle   2 NSaved=   2.
 NSaved= 2 IEnMin= 2 EnMin= -623.710142412283     IErMin= 2 ErrMin= 2.55D-02
 ErrMax= 2.55D-02  0.00D+00 EMaxC= 1.00D-01 BMatC= 5.95D-02 BMatP= 5.11D-01
 IDIUse=3 WtCom= 7.45D-01 WtEn= 2.55D-01
 Coeff-Com:  0.788D-01 0.921D+00
 Coeff-En:   0.273D+00 0.727D+00
 Coeff:      0.128D+00 0.872D+00
 Gap=     0.374 Goal=   None    Shift=    0.000
 RMSDP=6.27D-04 MaxDP=4.75D-02 DE=-8.36D-02 OVMax= 1.65D-01

 Cycle   3  Pass 1  IDiag  1:
 RMSU=  5.56D-04    CP:  1.00D+00  7.40D-01
 CoulSu:  requested number of processors reduced to:  21 ShMem   1 Linda.
 E= -623.859349901439     Delta-E=       -0.149207489156 Rises=F Damp=F
 DIIS: error= 4.12D-03 at cycle   3 NSaved=   3.
 NSaved= 3 IEnMin= 3 EnMin= -623.859349901439     IErMin= 3 ErrMin= 4.12D-03
 ErrMax= 4.12D-03  0.00D+00 EMaxC= 1.00D-01 BMatC= 2.27D-03 BMatP= 5.95D-02
 IDIUse=3 WtCom= 9.59D-01 WtEn= 4.12D-02
 Coeff-Com: -0.434D-01 0.106D+00 0.937D+00
 Coeff-En:   0.000D+00 0.000D+00 0.100D+01
 Coeff:     -0.416D-01 0.102D+00 0.940D+00
 Gap=     0.368 Goal=   None    Shift=    0.000
 RMSDP=1.15D-04 MaxDP=6.18D-03 DE=-1.49D-01 OVMax= 1.64D-02

 Cycle   4  Pass 1  IDiag  1:
 RMSU=  8.40D-05    CP:  1.01D+00  8.14D-01  9.98D-01
 CoulSu:  requested number of processors reduced to:  21 ShMem   1 Linda.
 E= -623.860900462146     Delta-E=       -0.001550560707 Rises=F Damp=F
 DIIS: error= 1.07D-03 at cycle   4 NSaved=   4.
 NSaved= 4 IEnMin= 4 EnMin= -623.860900462146     IErMin= 4 ErrMin= 1.07D-03
 ErrMax= 1.07D-03  0.00D+00 EMaxC= 1.00D-01 BMatC= 1.05D-04 BMatP= 2.27D-03
 IDIUse=3 WtCom= 9.89D-01 WtEn= 1.07D-02
 Coeff-Com: -0.256D-02 0.560D-02 0.194D+00 0.803D+00
 Coeff-En:   0.000D+00 0.000D+00 0.000D+00 0.100D+01
 Coeff:     -0.254D-02 0.554D-02 0.192D+00 0.805D+00
 Gap=     0.369 Goal=   None    Shift=    0.000
 RMSDP=2.90D-05 MaxDP=2.58D-03 DE=-1.55D-03 OVMax= 2.25D-03

 Cycle   5  Pass 1  IDiag  1:
 RMSU=  2.19D-05    CP:  1.01D+00  7.99D-01  1.00D+00  8.87D-01
 CoulSu:  requested number of processors reduced to:  21 ShMem   1 Linda.
 E= -623.860987046748     Delta-E=       -0.000086584602 Rises=F Damp=F
 DIIS: error= 2.00D-04 at cycle   5 NSaved=   5.
 NSaved= 5 IEnMin= 5 EnMin= -623.860987046748     IErMin= 5 ErrMin= 2.00D-04
 ErrMax= 2.00D-04  0.00D+00 EMaxC= 1.00D-01 BMatC= 4.15D-06 BMatP= 1.05D-04
 IDIUse=3 WtCom= 9.98D-01 WtEn= 2.00D-03
 Coeff-Com:  0.545D-03-0.182D-02 0.129D-01 0.193D+00 0.796D+00
 Coeff-En:   0.000D+00 0.000D+00 0.000D+00 0.000D+00 0.100D+01
 Coeff:      0.544D-03-0.182D-02 0.128D-01 0.192D+00 0.796D+00
 Gap=     0.369 Goal=   None    Shift=    0.000
 RMSDP=4.95D-06 MaxDP=1.69D-04 DE=-8.66D-05 OVMax= 5.27D-04

 Cycle   6  Pass 1  IDiag  1:
 RMSU=  3.83D-06    CP:  1.01D+00  7.99D-01  1.00D+00  9.22D-01  1.02D+00
 CoulSu:  requested number of processors reduced to:  21 ShMem   1 Linda.
 E= -623.860990224045     Delta-E=       -0.000003177297 Rises=F Damp=F
 DIIS: error= 4.94D-05 at cycle   6 NSaved=   6.
 NSaved= 6 IEnMin= 6 EnMin= -623.860990224045     IErMin= 6 ErrMin= 4.94D-05
 ErrMax= 4.94D-05  0.00D+00 EMaxC= 1.00D-01 BMatC= 1.89D-07 BMatP= 4.15D-06
 IDIUse=1 WtCom= 1.00D+00 WtEn= 0.00D+00
 Coeff-Com:  0.200D-03-0.415D-03-0.176D-01-0.466D-01 0.440D-01 0.102D+01
 Coeff:      0.200D-03-0.415D-03-0.176D-01-0.466D-01 0.440D-01 0.102D+01
 Gap=     0.369 Goal=   None    Shift=    0.000
 RMSDP=2.19D-06 MaxDP=7.24D-05 DE=-3.18D-06 OVMax= 2.39D-04

 Cycle   7  Pass 1  IDiag  1:
 RMSU=  8.12D-07    CP:  1.01D+00  8.00D-01  1.00D+00  9.31D-01  1.10D+00
                    CP:  1.10D+00
 CoulSu:  requested number of processors reduced to:  21 ShMem   1 Linda.
 E= -623.860990459586     Delta-E=       -0.000000235541 Rises=F Damp=F
 DIIS: error= 5.43D-06 at cycle   7 NSaved=   7.
 NSaved= 7 IEnMin= 7 EnMin= -623.860990459586     IErMin= 7 ErrMin= 5.43D-06
 ErrMax= 5.43D-06  0.00D+00 EMaxC= 1.00D-01 BMatC= 2.46D-09 BMatP= 1.89D-07
 IDIUse=1 WtCom= 1.00D+00 WtEn= 0.00D+00
 Coeff-Com: -0.147D-04 0.383D-04 0.826D-03-0.160D-02-0.196D-01-0.372D-01
 Coeff-Com:  0.106D+01
 Coeff:     -0.147D-04 0.383D-04 0.826D-03-0.160D-02-0.196D-01-0.372D-01
 Coeff:      0.106D+01
 Gap=     0.369 Goal=   None    Shift=    0.000
 RMSDP=2.31D-07 MaxDP=1.11D-05 DE=-2.36D-07 OVMax= 2.75D-05

 Cycle   8  Pass 1  IDiag  1:
 RMSU=  9.83D-08    CP:  1.01D+00  8.00D-01  1.00D+00  9.32D-01  1.10D+00
                    CP:  1.13D+00  1.15D+00
 CoulSu:  requested number of processors reduced to:  21 ShMem   1 Linda.
 E= -623.860990463913     Delta-E=       -0.000000004327 Rises=F Damp=F
 DIIS: error= 8.77D-07 at cycle   8 NSaved=   8.
 NSaved= 8 IEnMin= 8 EnMin= -623.860990463913     IErMin= 8 ErrMin= 8.77D-07
 ErrMax= 8.77D-07  0.00D+00 EMaxC= 1.00D-01 BMatC= 1.09D-10 BMatP= 2.46D-09
 IDIUse=1 WtCom= 1.00D+00 WtEn= 0.00D+00
 Coeff-Com:  0.432D-05-0.642D-05 0.320D-03 0.591D-03-0.661D-03-0.305D-01
 Coeff-Com:  0.158D-02 0.103D+01
 Coeff:      0.432D-05-0.642D-05 0.320D-03 0.591D-03-0.661D-03-0.305D-01
 Coeff:      0.158D-02 0.103D+01
 Gap=     0.369 Goal=   None    Shift=    0.000
 RMSDP=5.30D-08 MaxDP=1.63D-06 DE=-4.33D-09 OVMax= 4.36D-06

 Cycle   9  Pass 1  IDiag  1:
 RMSU=  2.01D-08    CP:  1.01D+00  8.00D-01  1.00D+00  9.32D-01  1.10D+00
                    CP:  1.13D+00  1.18D+00  1.14D+00
 CoulSu:  requested number of processors reduced to:  21 ShMem   1 Linda.
 E= -623.860990464053     Delta-E=       -0.000000000140 Rises=F Damp=F
 DIIS: error= 8.87D-08 at cycle   9 NSaved=   9.
 NSaved= 9 IEnMin= 9 EnMin= -623.860990464053     IErMin= 9 ErrMin= 8.87D-08
 ErrMax= 8.87D-08  0.00D+00 EMaxC= 1.00D-01 BMatC= 1.09D-12 BMatP= 1.09D-10
 IDIUse=1 WtCom= 1.00D+00 WtEn= 0.00D+00
 Coeff-Com: -0.372D-06 0.577D-07-0.610D-05 0.331D-04 0.610D-03 0.126D-02
 Coeff-Com: -0.220D-01 0.587D-03 0.102D+01
 Coeff:     -0.372D-06 0.577D-07-0.610D-05 0.331D-04 0.610D-03 0.126D-02
 Coeff:     -0.220D-01 0.587D-03 0.102D+01
 Gap=     0.369 Goal=   None    Shift=    0.000
 DSYEVD-2 returned Info=         555 IAlg= 4 N=   277 NDim=   277 NE2=      377198 trying  DSYEV.
 RMSDP=4.69D-09 MaxDP=2.07D-07 DE=-1.40D-10 OVMax= 2.22D-07

 SCF Done:  E(RM062X) =  -623.860990464     A.U. after    9 cycles
            NFock=  9  Conv=0.47D-08     -V/T= 2.0022
 KE= 6.225102456491D+02 PE=-1.846246479309D+03 EE= 4.158255906209D+02
 Leave Link  502 at Sun Apr 18 01:01:31 2021, MaxMem=   104857600 cpu:            1830.4 elap:              42.9
 (Enter /s/ls4/users/knvvv/bin/g16sse/l601.exe)
 Copying SCF densities to generalized density rwf, IOpCl= 0 IROHF=0.

 **********************************************************************

            Population analysis using the SCF density.

 **********************************************************************

 Orbital symmetries:
       Occupied  (A1') (E') (E') (A1') (A1') (A2") (E') (E') (A1')
                 (E') (E') (A1') (A2") (E') (E') (E') (E') (E")
                 (E") (A2')
       Virtual   (A1') (A2") (A2") (E') (E') (A1') (E') (E') (E")
                 (E") (A1') (A2") (E') (E') (A2') (A1') (E') (E')
                 (E") (E") (A1') (A2") (E') (E') (E') (E') (A1')
                 (E") (E") (E') (E') (A1') (E') (E') (A2') (E")
                 (E") (A1") (A2") (E") (E") (E') (E') (A1') (E')
                 (E') (A2") (A1') (E') (E') (E') (E') (E") (E")
                 (A1') (A2') (E') (E') (E') (E') (A1') (A2") (E")
                 (E") (E') (E') (A1') (E") (E") (A1") (A2") (E')
                 (E') (A2') (A1') (E") (E") (E') (E') (A2") (A1')
                 (E') (E') (A2') (E") (E") (E') (E') (E') (E')
                 (A2") (A1') (E") (E") (E') (E') (A2') (A1') (E')
                 (E') (A1') (A1') (E") (E") (A1") (E') (E') (A2")
                 (A2') (E") (E") (E') (E') (E") (E") (E') (E')
                 (A2") (E') (E') (A1') (E") (E") (A2") (A2") (A1')
                 (E') (E') (A2') (E') (E') (E") (E") (E') (E')
                 (A1') (A1") (A1') (E') (E') (E') (E') (E") (E")
                 (E") (E") (A2') (A1') (A2") (A1") (A1') (E') (E')
                 (E') (E') (E") (E") (A2") (A2') (E') (E') (A1')
                 (E') (E') (E") (E") (A2') (A2") (E') (E') (A1')
                 (E') (E') (A1') (E") (E") (E') (E') (A1') (E")
                 (E") (E') (E') (A1") (A1') (E") (E") (A2') (A2")
                 (E') (E') (E") (E") (E') (E') (A1') (A2") (A1")
                 (E") (E") (A2') (E') (E') (E') (E') (A1') (E")
                 (E") (A2') (A2") (E') (E') (E') (E') (E") (E")
                 (A1") (A1') (A2") (E") (E") (E') (E') (A1') (E')
                 (E') (A2') (A1") (E") (E") (A1') (E") (E") (E')
                 (E') (A2') (A2") (E') (E') (A1') (E') (E') (A1')
                 (E') (E') (A1') (A2") (E') (E') (A1') (E') (E')
                 (A1') (A1') (E') (E') (A1')
 The electronic state is 1-A1'.
 Alpha  occ. eigenvalues --  -90.17567 -19.71595 -19.71595 -19.71591  -8.50493
 Alpha  occ. eigenvalues --   -6.43205  -6.42605  -6.42605  -1.35061  -1.21595
 Alpha  occ. eigenvalues --   -1.21595  -0.73237  -0.64964  -0.62899  -0.62899
 Alpha  occ. eigenvalues --   -0.51742  -0.51742  -0.48381  -0.48381  -0.43740
 Alpha virt. eigenvalues --   -0.06795  -0.05410   0.01817   0.02562   0.02562
 Alpha virt. eigenvalues --    0.03123   0.07192   0.07192   0.08029   0.08029
 Alpha virt. eigenvalues --    0.09111   0.12333   0.12410   0.12410   0.12870
 Alpha virt. eigenvalues --    0.16986   0.17429   0.17429   0.19434   0.19434
 Alpha virt. eigenvalues --    0.20495   0.25213   0.25254   0.25254   0.26211
 Alpha virt. eigenvalues --    0.26211   0.32806   0.34779   0.34779   0.35216
 Alpha virt. eigenvalues --    0.35216   0.41510   0.43540   0.43540   0.44633
 Alpha virt. eigenvalues --    0.45261   0.45261   0.46100   0.46107   0.47149
 Alpha virt. eigenvalues --    0.47149   0.50918   0.50918   0.53631   0.54380
 Alpha virt. eigenvalues --    0.54380   0.56495   0.59015   0.62514   0.62514
 Alpha virt. eigenvalues --    0.65679   0.65679   0.66683   0.66683   0.73936
 Alpha virt. eigenvalues --    0.75674   0.88975   0.88975   0.96782   0.96782
 Alpha virt. eigenvalues --    1.01000   1.02370   1.07808   1.07808   1.15858
 Alpha virt. eigenvalues --    1.15858   1.16600   1.26175   1.26175   1.26847
 Alpha virt. eigenvalues --    1.28767   1.31037   1.31037   1.34718   1.34976
 Alpha virt. eigenvalues --    1.46129   1.46129   1.47803   1.47803   1.52583
 Alpha virt. eigenvalues --    1.53681   1.56651   1.56651   1.61881   1.63723
 Alpha virt. eigenvalues --    1.63723   1.64481   1.64481   1.71208   1.71208
 Alpha virt. eigenvalues --    1.80284   1.80851   1.84362   1.84362   2.07266
 Alpha virt. eigenvalues --    2.07266   2.21705   2.26492   2.36286   2.36286
 Alpha virt. eigenvalues --    2.43463   2.73144   2.76075   2.76075   2.79294
 Alpha virt. eigenvalues --    2.79299   2.79299   2.87784   2.92105   2.98058
 Alpha virt. eigenvalues --    2.98058   3.05338   3.05338   3.16827   3.16827
 Alpha virt. eigenvalues --    3.21011   3.21011   3.21900   3.27878   3.27878
 Alpha virt. eigenvalues --    3.29248   3.31171   3.31171   3.45829   3.47090
 Alpha virt. eigenvalues --    3.48496   3.50374   3.50374   3.53006   3.71412
 Alpha virt. eigenvalues --    3.71412   3.72239   3.72239   3.81805   3.81805
 Alpha virt. eigenvalues --    3.89104   3.93261   4.00963   4.07131   4.07131
 Alpha virt. eigenvalues --    4.10434   4.10434   4.13999   4.13999   4.25997
 Alpha virt. eigenvalues --    4.25997   4.33827   4.36889   4.39673   4.51002
 Alpha virt. eigenvalues --    4.62381   4.67112   4.67112   4.76725   4.76725
 Alpha virt. eigenvalues --    4.79768   4.79768   4.87266   4.88690   5.05883
 Alpha virt. eigenvalues --    5.05883   5.09644   5.22601   5.22601   5.36594
 Alpha virt. eigenvalues --    5.36594   5.48605   5.51021   5.85584   5.85584
 Alpha virt. eigenvalues --    6.84688   7.20809   7.20809   7.74767   8.47127
 Alpha virt. eigenvalues --    8.47127   8.47552   8.47552   8.54204   8.69375
 Alpha virt. eigenvalues --    8.69375   8.71482   8.71482   8.71486   8.72242
 Alpha virt. eigenvalues --    8.72776   8.72776   8.72846   8.78444   8.81096
 Alpha virt. eigenvalues --    8.81096   8.86789   8.86789   8.95638   8.95638
 Alpha virt. eigenvalues --    8.99714   9.32966   9.36357   9.47640   9.47640
 Alpha virt. eigenvalues --    9.54547   9.70041   9.70041  10.02720  10.02720
 Alpha virt. eigenvalues --   10.12796  10.75012  10.75012  10.80710  10.80921
 Alpha virt. eigenvalues --   10.80978  10.80978  11.01768  11.01768  11.05834
 Alpha virt. eigenvalues --   11.05834  11.11156  11.29823  11.57286  11.62961
 Alpha virt. eigenvalues --   11.62961  11.64279  11.64279  11.73742  11.75987
 Alpha virt. eigenvalues --   11.75987  11.81041  11.94010  11.99776  11.99776
 Alpha virt. eigenvalues --   12.10149  12.10795  12.10795  12.11429  12.11429
 Alpha virt. eigenvalues --   12.21089  12.23125  12.39845  12.39845  12.89340
 Alpha virt. eigenvalues --   13.07720  13.07720  13.94280  14.03071  14.03071
 Alpha virt. eigenvalues --   24.82415  28.85912  29.77326  29.77326  47.96602
 Alpha virt. eigenvalues --   48.03363  48.03363  84.42599 251.04481 251.12320
 Alpha virt. eigenvalues --  251.12320 450.50855
          Condensed to atoms (all electrons):
               1          2          3          4
     1  S   13.613369   0.489633   0.489633   0.489633
     2  O    0.489633   7.901983  -0.042853  -0.042853
     3  O    0.489633  -0.042853   7.901983  -0.042853
     4  O    0.489633  -0.042853  -0.042853   7.901983
 Mulliken charges:
               1
     1  S    0.917731
     2  O   -0.305910
     3  O   -0.305910
     4  O   -0.305910
 Sum of Mulliken charges =  -0.00000
 Mulliken charges with hydrogens summed into heavy atoms:
               1
     1  S    0.917731
     2  O   -0.305910
     3  O   -0.305910
     4  O   -0.305910
 Electronic spatial extent (au):  <R**2>=            238.7159
 Charge=             -0.0000 electrons
 Dipole moment (field-independent basis, Debye):
    X=             -0.0000    Y=              0.0000    Z=              0.0000  Tot=              0.0000
 Quadrupole moment (field-independent basis, Debye-Ang):
   XX=            -31.3064   YY=            -31.3064   ZZ=            -25.1096
   XY=             -0.0000   XZ=              0.0000   YZ=              0.0000
 Traceless Quadrupole moment (field-independent basis, Debye-Ang):
   XX=             -2.0656   YY=             -2.0656   ZZ=              4.1312
   XY=             -0.0000   XZ=              0.0000   YZ=              0.0000
 Octapole moment (field-independent basis, Debye-Ang**2):
  XXX=              0.0000  YYY=             -2.5388  ZZZ=              0.0000  XYY=              0.0000
  XXY=              2.5388  XXZ=              0.0000  XZZ=              0.0000  YZZ=              0.0000
  YYZ=             -0.0000  XYZ=             -0.0000
 Hexadecapole moment (field-independent basis, Debye-Ang**3):
 XXXX=           -128.1469 YYYY=           -128.1469 ZZZZ=            -20.9875 XXXY=              0.0000
 XXXZ=              0.0000 YYYX=              0.0000 YYYZ=              0.0000 ZZZX=              0.0000
 ZZZY=              0.0000 XXYY=            -42.7156 XXZZ=            -24.2109 YYZZ=            -24.2109
 XXYZ=              0.0000 YYXZ=              0.0000 ZZXY=              0.0000
 N-N= 1.840496525746D+02 E-N=-1.846246476669D+03  KE= 6.225102456491D+02
 PrsmSu:  requested number of processors reduced to:  21 ShMem   1 Linda.
 No NMR shielding tensors so no spin-rotation constants.
 Leave Link  601 at Sun Apr 18 01:01:42 2021, MaxMem=   104857600 cpu:             538.8 elap:              11.6
 (Enter /s/ls4/users/knvvv/bin/g16sse/l801.exe)
 DoSCS=F DFT=T ScalE2(SS,OS)=  1.000000  1.000000
 Range of M.O.s used for correlation:     1   277
 NBasis=   277 NAE=    20 NBE=    20 NFC=     0 NFV=     0
 NROrb=    277 NOA=    20 NOB=    20 NVA=   257 NVB=   257

 **** Warning!!: The largest alpha MO coefficient is  0.60061664D+02

 Leave Link  801 at Sun Apr 18 01:01:43 2021, MaxMem=   104857600 cpu:               3.0 elap:               0.1
 (Enter /s/ls4/users/knvvv/bin/g16sse/l914.exe)
 RHF ground state
 Doing stability rather than CIS.
 Two-electron integrals replicated using symmetry.
 MDV=   104857600 DFT=T DoStab=T Mixed=T DoRPA=F DoScal=F NonHer=F
 Making orbital integer symmetry assigments:
 Orbital symmetries:
       Occupied  (A1') (E') (E') (A1') (A1') (A2") (E') (E') (A1')
                 (E') (E') (A1') (A2") (E') (E') (E') (E') (E")
                 (E") (A2')
       Virtual   (A1') (A2") (A2") (E') (E') (A1') (E') (E') (E")
                 (E") (A1') (A2") (E') (E') (A2') (A1') (E') (E')
                 (E") (E") (A1') (A2") (E') (E') (E') (E') (A1')
                 (E") (E") (E') (E') (A1') (E') (E') (A2') (E")
                 (E") (A1") (A2") (E") (E") (E') (E') (A1') (E')
                 (E') (A2") (A1') (E') (E') (E') (E') (E") (E")
                 (A1') (A2') (E') (E') (E') (E') (A1') (A2") (E")
                 (E") (E') (E') (A1') (E") (E") (A1") (A2") (E')
                 (E') (A2') (A1') (E") (E") (E') (E') (A2") (A1')
                 (E') (E') (A2') (E") (E") (E') (E') (E') (E')
                 (A2") (A1') (E") (E") (E') (E') (A2') (A1') (E')
                 (E') (A1') (A1') (E") (E") (A1") (E') (E') (A2")
                 (A2') (E") (E") (E') (E') (E") (E") (E') (E')
                 (A2") (E') (E') (A1') (E") (E") (A2") (A2") (A1')
                 (E') (E') (A2') (E') (E') (E") (E") (E') (E')
                 (A1') (A1") (A1') (E') (E') (E') (E') (E") (E")
                 (E") (E") (A2') (A1') (A2") (A1") (A1') (E') (E')
                 (E') (E') (E") (E") (A2") (A2') (E') (E') (A1')
                 (E') (E') (E") (E") (A2') (A2") (E') (E') (A1')
                 (E') (E') (A1') (E") (E") (E') (E') (A1') (E")
                 (E") (E') (E') (A1") (A1') (E") (E") (A2') (A2")
                 (E') (E') (E") (E") (E') (E') (A1') (A2") (A1")
                 (E") (E") (A2') (E') (E') (E') (E') (A1') (E")
                 (E") (A2') (A2") (E') (E') (E') (E') (E") (E")
                 (A1") (A1') (A2") (E") (E") (E') (E') (A1') (E')
                 (E') (A2') (A1") (E") (E") (A1') (E") (E") (E')
                 (E') (A2') (A2") (E') (E') (A1') (E') (E') (A1')
                 (E') (E') (A1') (A2") (E') (E') (A1') (E') (E')
                 (A1') (A1') (E') (E') (A1')
    24 initial guesses have been made.
 Convergence on wavefunction:    0.001000000000000
 Davidson Disk Diagonalization:  ConvIn= 1.00D-03 SkipCon=T Conv= 1.00D-03.
 Max sub-space:  2000 roots to seek:    24 dimension of matrix:        10280
 Iteration     1 Dimension    24 NMult     0 NNew     24
 Estimated number of processors is:   18
 CISAX will form     1 AO SS matrices at one time.
 NMat=     1 NSing=     1 JSym2X= 2.
 FoFJK:  IHMeth= 1 ICntrl=       0 DoSepK=F KAlg= 0 I1Cent=           0 FoldK=F
 IRaf= 970000000 NMat=       1 IRICut=       1 DoRegI=T DoRafI=F ISym2E= 2 IDoP0=0 IntGTp=1.
 FoFCou: FMM=F IPFlag=           0 FMFlag=      100000 FMFlg1=           0
         NFxFlg=           0 DoJE=F BraDBF=F KetDBF=F FulRan=T
         wScrn=  0.000000 ICntrl=         0 IOpCl=  0 I1Cent=           0 NGrid=           0
         NMat0=    1 NMatS0=      1 NMatT0=    0 NMatD0=    1 NMtDS0=    0 NMtDT0=    0
 Integrals replicated using symmetry in FoFCou.
 CoulSu:  requested number of processors reduced to:  20 ShMem   1 Linda.
 NMat=     1 NSing=     1 JSym2X= 2.
 CoulSu:  requested number of processors reduced to:  20 ShMem   1 Linda.
 NMat=     1 NSing=     1 JSym2X= 2.
 CoulSu:  requested number of processors reduced to:  20 ShMem   1 Linda.
 NMat=     1 NSing=     1 JSym2X= 2.
 CoulSu:  requested number of processors reduced to:  20 ShMem   1 Linda.
 NMat=     1 NSing=     1 JSym2X= 2.
 CoulSu:  requested number of processors reduced to:  20 ShMem   1 Linda.
 NMat=     1 NSing=     1 JSym2X= 2.
 CoulSu:  requested number of processors reduced to:  20 ShMem   1 Linda.
 NMat=     1 NSing=     1 JSym2X= 2.
 CoulSu:  requested number of processors reduced to:  20 ShMem   1 Linda.
 NMat=     1 NSing=     1 JSym2X= 2.
 CoulSu:  requested number of processors reduced to:  20 ShMem   1 Linda.
 NMat=     1 NSing=     1 JSym2X= 2.
 CoulSu:  requested number of processors reduced to:  20 ShMem   1 Linda.
 NMat=     1 NSing=     1 JSym2X= 2.
 CoulSu:  requested number of processors reduced to:  20 ShMem   1 Linda.
 NMat=     1 NSing=     1 JSym2X= 2.
 CoulSu:  requested number of processors reduced to:  20 ShMem   1 Linda.
 NMat=     1 NSing=     1 JSym2X= 2.
 CoulSu:  requested number of processors reduced to:  20 ShMem   1 Linda.
 NMat=     1 NSing=     0 JSym2X= 2.
 CoulSu:  requested number of processors reduced to:  20 ShMem   1 Linda.
 NMat=     1 NSing=     0 JSym2X= 2.
 CoulSu:  requested number of processors reduced to:  20 ShMem   1 Linda.
 NMat=     1 NSing=     0 JSym2X= 2.
 CoulSu:  requested number of processors reduced to:  20 ShMem   1 Linda.
 NMat=     1 NSing=     0 JSym2X= 2.
 CoulSu:  requested number of processors reduced to:  20 ShMem   1 Linda.
 NMat=     1 NSing=     0 JSym2X= 2.
 CoulSu:  requested number of processors reduced to:  20 ShMem   1 Linda.
 NMat=     1 NSing=     0 JSym2X= 2.
 CoulSu:  requested number of processors reduced to:  20 ShMem   1 Linda.
 NMat=     1 NSing=     0 JSym2X= 2.
 CoulSu:  requested number of processors reduced to:  20 ShMem   1 Linda.
 NMat=     1 NSing=     0 JSym2X= 2.
 CoulSu:  requested number of processors reduced to:  20 ShMem   1 Linda.
 NMat=     1 NSing=     0 JSym2X= 2.
 CoulSu:  requested number of processors reduced to:  20 ShMem   1 Linda.
 NMat=     1 NSing=     0 JSym2X= 2.
 CoulSu:  requested number of processors reduced to:  20 ShMem   1 Linda.
 NMat=     1 NSing=     0 JSym2X= 2.
 CoulSu:  requested number of processors reduced to:  20 ShMem   1 Linda.
 NMat=     1 NSing=     0 JSym2X= 2.
 CoulSu:  requested number of processors reduced to:  20 ShMem   1 Linda.
 New state      1 was old state      4
 Excitation Energies [eV] at current iteration:
 Root      1 :     5.338123367712027
 Root      2 :     5.423207198654902
 Root      3 :     5.423359852520171
 Root      4 :     5.680901163326987
 Root      5 :     5.907473487691836
 Root      6 :     6.206194831817118
 Root      7 :     6.803567698078281
 Root      8 :     6.973119053543661
 Root      9 :     7.350325369337542
 Root     10 :     7.415563738799902
 Root     11 :     7.709900771537556
 Root     12 :     7.714509349813079
 Root     13 :     7.714691146750852
 Root     14 :     8.029565054052499
 Root     15 :     8.029667978989130
 Root     16 :     8.192373699800992
 Root     17 :    10.395510360578390
 Root     18 :    10.407726289940500
 Root     19 :    10.608372911624030
 Root     20 :    10.608384937816800
 Root     21 :    10.621516460441230
 Root     22 :    10.621521863559750
 Root     23 :    15.506578314460020
 Root     24 :    15.506801005600650
 Iteration     2 Dimension    48 NMult    24 NNew     24
 Estimated number of processors is:   18
 CISAX will form     1 AO SS matrices at one time.
 NMat=     1 NSing=     1 JSym2X= 2.
 CoulSu:  requested number of processors reduced to:  20 ShMem   1 Linda.
 NMat=     1 NSing=     1 JSym2X= 2.
 CoulSu:  requested number of processors reduced to:  20 ShMem   1 Linda.
 NMat=     1 NSing=     1 JSym2X= 2.
 CoulSu:  requested number of processors reduced to:  20 ShMem   1 Linda.
 NMat=     1 NSing=     1 JSym2X= 2.
 CoulSu:  requested number of processors reduced to:  20 ShMem   1 Linda.
 NMat=     1 NSing=     1 JSym2X= 2.
 CoulSu:  requested number of processors reduced to:  20 ShMem   1 Linda.
 NMat=     1 NSing=     1 JSym2X= 2.
 CoulSu:  requested number of processors reduced to:  20 ShMem   1 Linda.
 NMat=     1 NSing=     1 JSym2X= 2.
 CoulSu:  requested number of processors reduced to:  20 ShMem   1 Linda.
 NMat=     1 NSing=     1 JSym2X= 2.
 CoulSu:  requested number of processors reduced to:  20 ShMem   1 Linda.
 NMat=     1 NSing=     1 JSym2X= 2.
 CoulSu:  requested number of processors reduced to:  20 ShMem   1 Linda.
 NMat=     1 NSing=     1 JSym2X= 2.
 CoulSu:  requested number of processors reduced to:  20 ShMem   1 Linda.
 NMat=     1 NSing=     1 JSym2X= 2.
 CoulSu:  requested number of processors reduced to:  20 ShMem   1 Linda.
 NMat=     1 NSing=     1 JSym2X= 2.
 CoulSu:  requested number of processors reduced to:  20 ShMem   1 Linda.
 NMat=     1 NSing=     0 JSym2X= 2.
 CoulSu:  requested number of processors reduced to:  20 ShMem   1 Linda.
 NMat=     1 NSing=     0 JSym2X= 2.
 CoulSu:  requested number of processors reduced to:  20 ShMem   1 Linda.
 NMat=     1 NSing=     0 JSym2X= 2.
 CoulSu:  requested number of processors reduced to:  20 ShMem   1 Linda.
 NMat=     1 NSing=     0 JSym2X= 2.
 CoulSu:  requested number of processors reduced to:  20 ShMem   1 Linda.
 NMat=     1 NSing=     0 JSym2X= 2.
 CoulSu:  requested number of processors reduced to:  20 ShMem   1 Linda.
 NMat=     1 NSing=     0 JSym2X= 2.
 CoulSu:  requested number of processors reduced to:  20 ShMem   1 Linda.
 NMat=     1 NSing=     0 JSym2X= 2.
 CoulSu:  requested number of processors reduced to:  20 ShMem   1 Linda.
 NMat=     1 NSing=     0 JSym2X= 2.
 CoulSu:  requested number of processors reduced to:  20 ShMem   1 Linda.
 NMat=     1 NSing=     0 JSym2X= 2.
 CoulSu:  requested number of processors reduced to:  20 ShMem   1 Linda.
 NMat=     1 NSing=     0 JSym2X= 2.
 CoulSu:  requested number of processors reduced to:  20 ShMem   1 Linda.
 NMat=     1 NSing=     0 JSym2X= 2.
 CoulSu:  requested number of processors reduced to:  20 ShMem   1 Linda.
 NMat=     1 NSing=     0 JSym2X= 2.
 CoulSu:  requested number of processors reduced to:  20 ShMem   1 Linda.
 New state      1 was old state      2
 Root      1 not converged, maximum delta is    0.040274724619602
 Excitation Energies [eV] at current iteration:
 Root      1 :     4.757958075201604   Change is   -0.665249123453298
 Root      2 :     4.758098259915720   Change is   -0.665261592604452
 Root      3 :     4.885320339763770   Change is   -0.452803027948257
 Root      4 :     5.019317252088170   Change is   -0.661583911238817
 Root      5 :     5.703141493245578   Change is   -0.204331994446257
 Root      6 :     5.855299288277975   Change is   -0.350895543539143
 Root      7 :     6.074526901523659   Change is   -0.729040796554622
 Root      8 :     6.232160126072746   Change is   -0.740958927470914
 Root      9 :     6.930261276104231   Change is   -0.784248073708849
 Root     10 :     6.930501311790469   Change is   -0.784189834960383
 Root     11 :     7.012082512401002   Change is   -0.338242856936539
 Root     12 :     7.078353988275825   Change is   -0.337209750524078
 Root     13 :     7.381011316102173   Change is   -0.328889455435382
 Root     14 :     7.462802763476733   Change is   -0.566762290575765
 Root     15 :     7.462907619627458   Change is   -0.566760359361671
 Root     16 :     8.005563888954216   Change is   -0.186809810846777
 Root     17 :     9.408962178808347   Change is   -6.097838826792307
 Root     18 :     9.409162571315752   Change is   -6.097415743144270
 Root     19 :    10.252418735659910   Change is   -0.143091624918472
 Root     20 :    10.272100442639310   Change is   -0.135625847301190
 Root     21 :    10.288263788515160   Change is   -0.320109123108877
 Root     22 :    10.288398474879740   Change is   -0.319986462937067
 Root     23 :    10.816311105279410   Change is    0.194789241719661
 Root     24 :    10.816346274072610   Change is    0.194829813631389
 Iteration     3 Dimension    54 NMult    48 NNew      6
 Estimated number of processors is:   18
 CISAX will form     1 AO SS matrices at one time.
 NMat=     1 NSing=     1 JSym2X= 2.
 CoulSu:  requested number of processors reduced to:  20 ShMem   1 Linda.
 NMat=     1 NSing=     1 JSym2X= 2.
 CoulSu:  requested number of processors reduced to:  20 ShMem   1 Linda.
 NMat=     1 NSing=     1 JSym2X= 2.
 CoulSu:  requested number of processors reduced to:  20 ShMem   1 Linda.
 NMat=     1 NSing=     0 JSym2X= 2.
 CoulSu:  requested number of processors reduced to:  20 ShMem   1 Linda.
 NMat=     1 NSing=     0 JSym2X= 2.
 CoulSu:  requested number of processors reduced to:  20 ShMem   1 Linda.
 NMat=     1 NSing=     0 JSym2X= 2.
 CoulSu:  requested number of processors reduced to:  20 ShMem   1 Linda.
 Root      1 not converged, maximum delta is    0.007694133332968
 Excitation Energies [eV] at current iteration:
 Root      1 :     4.737686015571984   Change is   -0.020272059629620
 Root      2 :     4.737819870363166   Change is   -0.020278389552553
 Root      3 :     4.875625982615041   Change is   -0.009694357148729
 Root      4 :     5.697031565566507   Change is   -0.006109927679071
 Root      5 :     5.820400369721233   Change is   -0.034898918556743
 Root      6 :     7.001440811818216   Change is   -0.010641700582786
 Iteration     4 Dimension    60 NMult    54 NNew      6
 Estimated number of processors is:   18
 CISAX will form     1 AO SS matrices at one time.
 NMat=     1 NSing=     1 JSym2X= 2.
 CoulSu:  requested number of processors reduced to:  20 ShMem   1 Linda.
 NMat=     1 NSing=     1 JSym2X= 2.
 CoulSu:  requested number of processors reduced to:  20 ShMem   1 Linda.
 NMat=     1 NSing=     1 JSym2X= 2.
 CoulSu:  requested number of processors reduced to:  20 ShMem   1 Linda.
 NMat=     1 NSing=     0 JSym2X= 2.
 CoulSu:  requested number of processors reduced to:  20 ShMem   1 Linda.
 NMat=     1 NSing=     0 JSym2X= 2.
 CoulSu:  requested number of processors reduced to:  20 ShMem   1 Linda.
 NMat=     1 NSing=     0 JSym2X= 2.
 CoulSu:  requested number of processors reduced to:  20 ShMem   1 Linda.
 Root      1 not converged, maximum delta is    0.002754813796111
 Excitation Energies [eV] at current iteration:
 Root      1 :     4.736133254460467   Change is   -0.001552761111517
 Root      2 :     4.736266941802412   Change is   -0.001552928560755
 Root      3 :     4.875503454585090   Change is   -0.000122528029951
 Root      4 :     5.696795017330538   Change is   -0.000236548235969
 Root      5 :     5.818965115616829   Change is   -0.001435254104403
 Root      6 :     6.999991419287841   Change is   -0.001449392530376
 Iteration     5 Dimension    66 NMult    60 NNew      6
 Estimated number of processors is:   18
 CISAX will form     1 AO SS matrices at one time.
 NMat=     1 NSing=     1 JSym2X= 2.
 CoulSu:  requested number of processors reduced to:  20 ShMem   1 Linda.
 NMat=     1 NSing=     1 JSym2X= 2.
 CoulSu:  requested number of processors reduced to:  20 ShMem   1 Linda.
 NMat=     1 NSing=     1 JSym2X= 2.
 CoulSu:  requested number of processors reduced to:  20 ShMem   1 Linda.
 NMat=     1 NSing=     0 JSym2X= 2.
 CoulSu:  requested number of processors reduced to:  20 ShMem   1 Linda.
 NMat=     1 NSing=     0 JSym2X= 2.
 CoulSu:  requested number of processors reduced to:  20 ShMem   1 Linda.
 NMat=     1 NSing=     0 JSym2X= 2.
 CoulSu:  requested number of processors reduced to:  20 ShMem   1 Linda.
 Root      1 has converged.
 Excitation Energies [eV] at current iteration:
 Root      1 :     4.736053598390929   Change is   -0.000079656069538
 Root      2 :     4.736187279571666   Change is   -0.000079662230746
 Root      3 :     4.875502259359851   Change is   -0.000001195225239
 Root      4 :     5.696793202079272   Change is   -0.000001815251266
 Root      5 :     5.818930906925659   Change is   -0.000034208691170
 Root      6 :     6.999939918126659   Change is   -0.000051501161182
 Convergence achieved on expansion vectors.
 ***********************************************************************
 Stability analysis using <AA,BB:AA,BB> singles matrix:
 ***********************************************************************
 1PDM for each excited state written to RWF  633
 Ground to excited state transition densities written to RWF  633

 Eigenvectors of the stability matrix:
 
 Eigenvector   1:      Triplet-E'   Eigenvalue= 0.1740468  <S**2>=2.000
      18 -> 22         0.58631
      19 -> 22         0.35751
 The wavefunction is stable under the perturbations considered.
 Leave Link  914 at Sun Apr 18 01:09:13 2021, MaxMem=   104857600 cpu:           18008.8 elap:             450.0
 (Enter /s/ls4/users/knvvv/bin/g16sse/l508.exe)
 The wavefunction is already stable.
 Leave Link  508 at Sun Apr 18 01:09:13 2021, MaxMem=   104857600 cpu:               2.2 elap:               0.1
 (Enter /s/ls4/users/knvvv/bin/g16sse/l601.exe)
 Copying SCF densities to generalized density rwf, IOpCl= 0 IROHF=0.

 **********************************************************************

            Population analysis using the SCF density.

 **********************************************************************

 Orbital symmetries:
       Occupied  (A1') (E') (E') (A1') (A1') (A2") (E') (E') (A1')
                 (E') (E') (A1') (A2") (E') (E') (E') (E') (E")
                 (E") (A2')
       Virtual   (A1') (A2") (A2") (E') (E') (A1') (E') (E') (E")
                 (E") (A1') (A2") (E') (E') (A2') (A1') (E') (E')
                 (E") (E") (A1') (A2") (E') (E') (E') (E') (A1')
                 (E") (E") (E') (E') (A1') (E') (E') (A2') (E")
                 (E") (A1") (A2") (E") (E") (E') (E') (A1') (E')
                 (E') (A2") (A1') (E') (E') (E') (E') (E") (E")
                 (A1') (A2') (E') (E') (E') (E') (A1') (A2") (E")
                 (E") (E') (E') (A1') (E") (E") (A1") (A2") (E')
                 (E') (A2') (A1') (E") (E") (E') (E') (A2") (A1')
                 (E') (E') (A2') (E") (E") (E') (E') (E') (E')
                 (A2") (A1') (E") (E") (E') (E') (A2') (A1') (E')
                 (E') (A1') (A1') (E") (E") (A1") (E') (E') (A2")
                 (A2') (E") (E") (E') (E') (E") (E") (E') (E')
                 (A2") (E') (E') (A1') (E") (E") (A2") (A2") (A1')
                 (E') (E') (A2') (E') (E') (E") (E") (E') (E')
                 (A1') (A1") (A1') (E') (E') (E') (E') (E") (E")
                 (E") (E") (A2') (A1') (A2") (A1") (A1') (E') (E')
                 (E') (E') (E") (E") (A2") (A2') (E') (E') (A1')
                 (E') (E') (E") (E") (A2') (A2") (E') (E') (A1')
                 (E') (E') (A1') (E") (E") (E') (E') (A1') (E")
                 (E") (E') (E') (A1") (A1') (E") (E") (A2') (A2")
                 (E') (E') (E") (E") (E') (E') (A1') (A2") (A1")
                 (E") (E") (A2') (E') (E') (E') (E') (A1') (E")
                 (E") (A2') (A2") (E') (E') (E') (E') (E") (E")
                 (A1") (A1') (A2") (E") (E") (E') (E') (A1') (E')
                 (E') (A2') (A1") (E") (E") (A1') (E") (E") (E')
                 (E') (A2') (A2") (E') (E') (A1') (E') (E') (A1')
                 (E') (E') (A1') (A2") (E') (E') (A1') (E') (E')
                 (A1') (A1') (E') (E') (A1')
 The electronic state is 1-A1'.
 Alpha  occ. eigenvalues --  -90.17567 -19.71595 -19.71595 -19.71591  -8.50493
 Alpha  occ. eigenvalues --   -6.43205  -6.42605  -6.42605  -1.35061  -1.21595
 Alpha  occ. eigenvalues --   -1.21595  -0.73237  -0.64964  -0.62899  -0.62899
 Alpha  occ. eigenvalues --   -0.51742  -0.51742  -0.48381  -0.48381  -0.43740
 Alpha virt. eigenvalues --   -0.06795  -0.05410   0.01817   0.02562   0.02562
 Alpha virt. eigenvalues --    0.03123   0.07192   0.07192   0.08029   0.08029
 Alpha virt. eigenvalues --    0.09111   0.12333   0.12410   0.12410   0.12870
 Alpha virt. eigenvalues --    0.16986   0.17429   0.17429   0.19434   0.19434
 Alpha virt. eigenvalues --    0.20495   0.25213   0.25254   0.25254   0.26211
 Alpha virt. eigenvalues --    0.26211   0.32806   0.34779   0.34779   0.35216
 Alpha virt. eigenvalues --    0.35216   0.41510   0.43540   0.43540   0.44633
 Alpha virt. eigenvalues --    0.45261   0.45261   0.46100   0.46107   0.47149
 Alpha virt. eigenvalues --    0.47149   0.50918   0.50918   0.53631   0.54380
 Alpha virt. eigenvalues --    0.54380   0.56495   0.59015   0.62514   0.62514
 Alpha virt. eigenvalues --    0.65679   0.65679   0.66683   0.66683   0.73936
 Alpha virt. eigenvalues --    0.75674   0.88975   0.88975   0.96782   0.96782
 Alpha virt. eigenvalues --    1.01000   1.02370   1.07808   1.07808   1.15858
 Alpha virt. eigenvalues --    1.15858   1.16600   1.26175   1.26175   1.26847
 Alpha virt. eigenvalues --    1.28767   1.31037   1.31037   1.34718   1.34976
 Alpha virt. eigenvalues --    1.46129   1.46129   1.47803   1.47803   1.52583
 Alpha virt. eigenvalues --    1.53681   1.56651   1.56651   1.61881   1.63723
 Alpha virt. eigenvalues --    1.63723   1.64481   1.64481   1.71208   1.71208
 Alpha virt. eigenvalues --    1.80284   1.80851   1.84362   1.84362   2.07266
 Alpha virt. eigenvalues --    2.07266   2.21705   2.26492   2.36286   2.36286
 Alpha virt. eigenvalues --    2.43463   2.73144   2.76075   2.76075   2.79294
 Alpha virt. eigenvalues --    2.79299   2.79299   2.87784   2.92105   2.98058
 Alpha virt. eigenvalues --    2.98058   3.05338   3.05338   3.16827   3.16827
 Alpha virt. eigenvalues --    3.21011   3.21011   3.21900   3.27878   3.27878
 Alpha virt. eigenvalues --    3.29248   3.31171   3.31171   3.45829   3.47090
 Alpha virt. eigenvalues --    3.48496   3.50374   3.50374   3.53006   3.71412
 Alpha virt. eigenvalues --    3.71412   3.72239   3.72239   3.81805   3.81805
 Alpha virt. eigenvalues --    3.89104   3.93261   4.00963   4.07131   4.07131
 Alpha virt. eigenvalues --    4.10434   4.10434   4.13999   4.13999   4.25997
 Alpha virt. eigenvalues --    4.25997   4.33827   4.36889   4.39673   4.51002
 Alpha virt. eigenvalues --    4.62381   4.67112   4.67112   4.76725   4.76725
 Alpha virt. eigenvalues --    4.79768   4.79768   4.87266   4.88690   5.05883
 Alpha virt. eigenvalues --    5.05883   5.09644   5.22601   5.22601   5.36594
 Alpha virt. eigenvalues --    5.36594   5.48605   5.51021   5.85584   5.85584
 Alpha virt. eigenvalues --    6.84688   7.20809   7.20809   7.74767   8.47127
 Alpha virt. eigenvalues --    8.47127   8.47552   8.47552   8.54204   8.69375
 Alpha virt. eigenvalues --    8.69375   8.71482   8.71482   8.71486   8.72242
 Alpha virt. eigenvalues --    8.72776   8.72776   8.72846   8.78444   8.81096
 Alpha virt. eigenvalues --    8.81096   8.86789   8.86789   8.95638   8.95638
 Alpha virt. eigenvalues --    8.99714   9.32966   9.36357   9.47640   9.47640
 Alpha virt. eigenvalues --    9.54547   9.70041   9.70041  10.02720  10.02720
 Alpha virt. eigenvalues --   10.12796  10.75012  10.75012  10.80710  10.80921
 Alpha virt. eigenvalues --   10.80978  10.80978  11.01768  11.01768  11.05834
 Alpha virt. eigenvalues --   11.05834  11.11156  11.29823  11.57286  11.62961
 Alpha virt. eigenvalues --   11.62961  11.64279  11.64279  11.73742  11.75987
 Alpha virt. eigenvalues --   11.75987  11.81041  11.94010  11.99776  11.99776
 Alpha virt. eigenvalues --   12.10149  12.10795  12.10795  12.11429  12.11429
 Alpha virt. eigenvalues --   12.21089  12.23125  12.39845  12.39845  12.89340
 Alpha virt. eigenvalues --   13.07720  13.07720  13.94280  14.03071  14.03071
 Alpha virt. eigenvalues --   24.82415  28.85912  29.77326  29.77326  47.96602
 Alpha virt. eigenvalues --   48.03363  48.03363  84.42599 251.04481 251.12320
 Alpha virt. eigenvalues --  251.12320 450.50855
          Condensed to atoms (all electrons):
               1          2          3          4
     1  S   13.613369   0.489633   0.489633   0.489633
     2  O    0.489633   7.901983  -0.042853  -0.042853
     3  O    0.489633  -0.042853   7.901983  -0.042853
     4  O    0.489633  -0.042853  -0.042853   7.901983
 Mulliken charges:
               1
     1  S    0.917731
     2  O   -0.305910
     3  O   -0.305910
     4  O   -0.305910
 Sum of Mulliken charges =  -0.00000
 Mulliken charges with hydrogens summed into heavy atoms:
               1
     1  S    0.917731
     2  O   -0.305910
     3  O   -0.305910
     4  O   -0.305910
 Electronic spatial extent (au):  <R**2>=            238.7159
 Charge=             -0.0000 electrons
 Dipole moment (field-independent basis, Debye):
    X=             -0.0000    Y=              0.0000    Z=              0.0000  Tot=              0.0000
 Quadrupole moment (field-independent basis, Debye-Ang):
   XX=            -31.3064   YY=            -31.3064   ZZ=            -25.1096
   XY=             -0.0000   XZ=              0.0000   YZ=              0.0000
 Traceless Quadrupole moment (field-independent basis, Debye-Ang):
   XX=             -2.0656   YY=             -2.0656   ZZ=              4.1312
   XY=             -0.0000   XZ=              0.0000   YZ=              0.0000
 Octapole moment (field-independent basis, Debye-Ang**2):
  XXX=              0.0000  YYY=             -2.5388  ZZZ=              0.0000  XYY=              0.0000
  XXY=              2.5388  XXZ=              0.0000  XZZ=              0.0000  YZZ=              0.0000
  YYZ=             -0.0000  XYZ=             -0.0000
 Hexadecapole moment (field-independent basis, Debye-Ang**3):
 XXXX=           -128.1469 YYYY=           -128.1469 ZZZZ=            -20.9875 XXXY=              0.0000
 XXXZ=              0.0000 YYYX=              0.0000 YYYZ=              0.0000 ZZZX=              0.0000
 ZZZY=              0.0000 XXYY=            -42.7156 XXZZ=            -24.2109 YYZZ=            -24.2109
 XXYZ=              0.0000 YYXZ=              0.0000 ZZXY=              0.0000
 N-N= 1.840496525746D+02 E-N=-1.846246476669D+03  KE= 6.225102456491D+02
 PrsmSu:  requested number of processors reduced to:  21 ShMem   1 Linda.
 No NMR shielding tensors so no spin-rotation constants.
 Leave Link  601 at Sun Apr 18 01:09:23 2021, MaxMem=   104857600 cpu:             498.7 elap:              10.7
 (Enter /s/ls4/users/knvvv/bin/g16sse/l9999.exe)

 Test job not archived.
 1\1\GINC-N178\Stability\RM062X\Gen\O3S1\KNVVV\18-Apr-2021\0\\#P M062X/
 GEN Integral=UltraFineGrid SCF=NoSymm Stable=(RExt, Opt) IOp(1/33=1)\\
 Database calculations.\\0,1\S,0,0.,0.,0.\O,0,0.,0.,1.42279\O,0,1.23217
 22843,0.,-0.711395\O,0,-1.2321722843,0.,-0.711395\\Version=ES64L-G16Re
 vA.03\State=1-A1'\HF=-623.8609905\RMSD=4.693e-09\Dipole=0.,0.,0.\Quadr
 upole=-1.5357218,3.0714437,-1.5357218,0.,0.,0.\PG=D03H [O(S1),3C2(O1)]
 \\@


 TO ERR IS HUMAN - AND TO BLAME IT ON A COMPUTER IS EVEN MORE SO.
 Job cpu time:       0 days  6 hours 13 minutes 12.8 seconds.
 Elapsed time:       0 days  0 hours  9 minutes  8.2 seconds.
 File lengths (MBytes):  RWF=    267 Int=      0 D2E=      0 Chk=     11 Scr=      1
 Normal termination of Gaussian 16 at Sun Apr 18 01:09:24 2021.
