 Entering Gaussian System, Link 0=/s/ls4/users/knvvv/bin/g16sse/g16
 Input=data/database/M062X--def2-QZVPPD--16b_triazolidinedione_monA_3B-69.gjf
 Output=data/database/M062X--def2-QZVPPD--16b_triazolidinedione_monA_3B-69.log
 Initial command:
 /s/ls4/users/knvvv/bin/g16sse/l1.exe "/s/ls4/users/knvvv/bin/scratch/Gau-16985.inp" -scrdir="/s/ls4/users/knvvv/bin/scratch/"
 Entering Link 1 = /s/ls4/users/knvvv/bin/g16sse/l1.exe PID=     16986.
  
 Copyright (c) 1988,1990,1992,1993,1995,1998,2003,2009,2016,
            Gaussian, Inc.  All Rights Reserved.
  
 This is part of the Gaussian(R) 16 program.  It is based on
 the Gaussian(R) 09 system (copyright 2009, Gaussian, Inc.),
 the Gaussian(R) 03 system (copyright 2003, Gaussian, Inc.),
 the Gaussian(R) 98 system (copyright 1998, Gaussian, Inc.),
 the Gaussian(R) 94 system (copyright 1995, Gaussian, Inc.),
 the Gaussian 92(TM) system (copyright 1992, Gaussian, Inc.),
 the Gaussian 90(TM) system (copyright 1990, Gaussian, Inc.),
 the Gaussian 88(TM) system (copyright 1988, Gaussian, Inc.),
 the Gaussian 86(TM) system (copyright 1986, Carnegie Mellon
 University), and the Gaussian 82(TM) system (copyright 1983,
 Carnegie Mellon University). Gaussian is a federally registered
 trademark of Gaussian, Inc.
  
 This software contains proprietary and confidential information,
 including trade secrets, belonging to Gaussian, Inc.
  
 This software is provided under written license and may be
 used, copied, transmitted, or stored only in accord with that
 written license.
  
 The following legend is applicable only to US Government
 contracts under FAR:
  
                    RESTRICTED RIGHTS LEGEND
  
 Use, reproduction and disclosure by the US Government is
 subject to restrictions as set forth in subparagraphs (a)
 and (c) of the Commercial Computer Software - Restricted
 Rights clause in FAR 52.227-19.
  
 Gaussian, Inc.
 340 Quinnipiac St., Bldg. 40, Wallingford CT 06492
  
  
 ---------------------------------------------------------------
 Warning -- This program may not be used in any manner that
 competes with the business of Gaussian, Inc. or will provide
 assistance to any competitor of Gaussian, Inc.  The licensee
 of this program is prohibited from giving any competitor of
 Gaussian, Inc. access to this program.  By using this program,
 the user acknowledges that Gaussian, Inc. is engaged in the
 business of creating and licensing software in the field of
 computational chemistry and represents and warrants to the
 licensee that it is not a competitor of Gaussian, Inc. and that
 it will not use this program in any manner prohibited above.
 ---------------------------------------------------------------
  

 Cite this work as:
 Gaussian 16, Revision A.03,
 M. J. Frisch, G. W. Trucks, H. B. Schlegel, G. E. Scuseria, 
 M. A. Robb, J. R. Cheeseman, G. Scalmani, V. Barone, 
 G. A. Petersson, H. Nakatsuji, X. Li, M. Caricato, A. V. Marenich, 
 J. Bloino, B. G. Janesko, R. Gomperts, B. Mennucci, H. P. Hratchian, 
 J. V. Ortiz, A. F. Izmaylov, J. L. Sonnenberg, D. Williams-Young, 
 F. Ding, F. Lipparini, F. Egidi, J. Goings, B. Peng, A. Petrone, 
 T. Henderson, D. Ranasinghe, V. G. Zakrzewski, J. Gao, N. Rega, 
 G. Zheng, W. Liang, M. Hada, M. Ehara, K. Toyota, R. Fukuda, 
 J. Hasegawa, M. Ishida, T. Nakajima, Y. Honda, O. Kitao, H. Nakai, 
 T. Vreven, K. Throssell, J. A. Montgomery, Jr., J. E. Peralta, 
 F. Ogliaro, M. J. Bearpark, J. J. Heyd, E. N. Brothers, K. N. Kudin, 
 V. N. Staroverov, T. A. Keith, R. Kobayashi, J. Normand, 
 K. Raghavachari, A. P. Rendell, J. C. Burant, S. S. Iyengar, 
 J. Tomasi, M. Cossi, J. M. Millam, M. Klene, C. Adamo, R. Cammi, 
 J. W. Ochterski, R. L. Martin, K. Morokuma, O. Farkas, 
 J. B. Foresman, and D. J. Fox, Gaussian, Inc., Wallingford CT, 2016.
 
 ******************************************
 Gaussian 16:  ES64L-G16RevA.03 25-Dec-2016
                17-Apr-2021 
 ******************************************
 %RWF=temp0_15354,70GB
 %nprocshared=48
 Will use up to   48 processors via shared memory.
 Default route: MaxDisk=80GB
 ----------------------------------------------------------------------
 #P M062X/GEN Integral=UltraFineGrid SCF=NoSymm Stable=(RExt, Opt) IOp(
 1/33=1)
 ----------------------------------------------------------------------
 1/33=1,38=1,172=1/1;
 2/12=2,17=6,18=5,40=1/2;
 3/5=7,11=2,25=1,30=1,74=-55,75=-5/1,2,3;
 4/9=2/1;
 5/5=2,38=5/2;
 6/7=2,8=2,9=2,10=2,28=1/1;
 8/6=1,10=90,11=11/1;
 9/8=-3,42=1,46=1/14;
 5/5=2,8=3,17=40,38=5/8(-2);
 6/7=2,8=2,9=2,10=2,28=1/1;
 99/5=1,9=1/99;
 Leave Link    1 at Sat Apr 17 12:35:46 2021, MaxMem=           0 cpu:               8.3 elap:               0.2
 (Enter /s/ls4/users/knvvv/bin/g16sse/l101.exe)
 ONIOM data not found on unit 2.
 ----------------------
 Database calculations.
 ----------------------
 TstMul:  ICh=     0
 TstMul:  Mul=     1
 TstMul:  ICh=     0
 TstMul:  Mul=     1
 Symbolic Z-matrix:
 Charge =  0 Multiplicity = 1
 N                    -0.05007   2.63415   3.30558 
 N                    -0.50844   1.63148   4.17868 
 C                    -0.09452   1.94988   5.44234 
 N                     0.42874   3.22281   5.35659 
 C                     0.45186   3.65442   4.04715 
 O                    -0.18275   1.27341   6.46265 
 O                     0.85213   4.74727   3.64104 
 H                    -0.60237   2.84058   2.4638 
 H                    -0.45571   0.66743   3.85012 
 H                     0.84551   3.73518   6.1493 
 
 RdStrC is calling ZToCFu for IStruc=1 NZ=    10.
 PrtBox:  NBox=     1 Levels=  1 BoxLen=    8.00 SMaxX=        7.71
          Shift=            1.138309           -1.261264           -4.655900
 Box      1 Number                   0 centers from      1 to     10:
 After GenITR:
 ITRead=  0  0  0  0  0  0  0  0  0  0
 MicOpt= -1 -1 -1 -1 -1 -1 -1 -1 -1 -1
 ITRead=  0  0  0  0  0  0  0  0  0  0
 MicOpt= -1 -1 -1 -1 -1 -1 -1 -1 -1 -1
 NAtoms=     10 NQM=       10 NQMF=       0 NMMI=      0 NMMIF=      0
                NMic=       0 NMicF=      0.
                    Isotopes and Nuclear Properties:
 (Nuclear quadrupole moments (NQMom) in fm**2, nuclear magnetic moments (NMagM)
  in nuclear magnetons)

  Atom         1           2           3           4           5           6           7           8           9          10
 IAtWgt=          14          14          12          14          12          16          16           1           1           1
 AtmWgt=  14.0030740  14.0030740  12.0000000  14.0030740  12.0000000  15.9949146  15.9949146   1.0078250   1.0078250   1.0078250
 NucSpn=           2           2           0           2           0           0           0           1           1           1
 AtZEff=  -0.0000000  -0.0000000  -0.0000000  -0.0000000  -0.0000000  -0.0000000  -0.0000000  -0.0000000  -0.0000000  -0.0000000
 NQMom=    2.0440000   2.0440000   0.0000000   2.0440000   0.0000000   0.0000000   0.0000000   0.0000000   0.0000000   0.0000000
 NMagM=    0.4037610   0.4037610   0.0000000   0.4037610   0.0000000   0.0000000   0.0000000   2.7928460   2.7928460   2.7928460
 AtZNuc=   7.0000000   7.0000000   6.0000000   7.0000000   6.0000000   8.0000000   8.0000000   1.0000000   1.0000000   1.0000000
 No MM parameters found.
 Leave Link  101 at Sat Apr 17 12:35:46 2021, MaxMem=   104857600 cpu:               8.3 elap:               0.2
 (Enter /s/ls4/users/knvvv/bin/g16sse/l202.exe)
                          Input orientation:                          
 ---------------------------------------------------------------------
 Center     Atomic      Atomic             Coordinates (Angstroms)
 Number     Number       Type             X           Y           Z
 ---------------------------------------------------------------------
      1          7           0       -0.050072    2.634150    3.305578
      2          7           0       -0.508443    1.631479    4.178684
      3          6           0       -0.094523    1.949880    5.442343
      4          7           0        0.428735    3.222814    5.356588
      5          6           0        0.451861    3.654419    4.047148
      6          8           0       -0.182753    1.273410    6.462645
      7          8           0        0.852126    4.747272    3.641043
      8          1           0       -0.602367    2.840582    2.463796
      9          1           0       -0.455705    0.667432    3.850119
     10          1           0        0.845509    3.735184    6.149304
 ---------------------------------------------------------------------
                    Distance matrix (angstroms):
                    1          2          3          4          5
     1  N    0.000000
     2  N    1.406331   0.000000
     3  C    2.244096   1.367312   0.000000
     4  N    2.186875   2.190458   1.378954   0.000000
     5  C    1.357502   2.243161   2.269484   1.378931   0.000000
     6  O    3.440391   2.334687   1.227360   2.323242   3.450589
     7  O    2.322021   3.442146   3.459224   2.333737   1.232664
     8  H    1.027736   2.100379   3.150079   3.094757   2.068993
     9  H    2.080635   1.019864   2.076127   3.095426   3.128033
    10  H    3.178226   3.184667   2.137935   1.031805   2.140220
                    6          7          8          9         10
     6  O    0.000000
     7  O    4.593488   0.000000
     8  H    4.315426   2.671503   0.000000
     9  H    2.695738   4.289432   2.581856   0.000000
    10  H    2.686231   2.704762   4.059511   4.048520   0.000000
 Stoichiometry    C2H3N3O2
 Framework group  C1[X(C2H3N3O2)]
 Deg. of freedom    24
 Full point group                 C1      NOp   1
 Largest Abelian subgroup         C1      NOp   1
 Largest concise Abelian subgroup C1      NOp   1
                         Standard orientation:                         
 ---------------------------------------------------------------------
 Center     Atomic      Atomic             Coordinates (Angstroms)
 Number     Number       Type             X           Y           Z
 ---------------------------------------------------------------------
      1          7           0       -0.703068    1.122029    0.073608
      2          7           0        0.694845    1.134570   -0.079528
      3          6           0        1.138306   -0.157376   -0.018206
      4          7           0        0.005883   -0.944134   -0.030228
      5          6           0       -1.130884   -0.165074    0.017485
      6          8           0        2.296900   -0.561117    0.014440
      7          8           0       -2.296585   -0.565797    0.012534
      8          1           0       -1.252394    1.861246   -0.382507
      9          1           0        1.209254    1.875777    0.395990
     10          1           0        0.012464   -1.974269    0.028089
 ---------------------------------------------------------------------
 Rotational constants (GHZ):           7.1842030           2.3302496           1.7655908
 Leave Link  202 at Sat Apr 17 12:35:46 2021, MaxMem=   104857600 cpu:               5.5 elap:               0.1
 (Enter /s/ls4/users/knvvv/bin/g16sse/l301.exe)
 General basis read from cards:  (5D, 7F)
 Centers:       8      9     10
 S 4 1.00
     Exponent=  1.9069169000D+02 Coefficients=  7.0815167000D-04
     Exponent=  2.8605532000D+01 Coefficients=  5.4678827000D-03
     Exponent=  6.5095943000D+00 Coefficients=  2.7966605000D-02
     Exponent=  1.8412455000D+00 Coefficients=  1.0764538000D-01
 S 1 1.00
     Exponent=  5.9853725000D-01 Coefficients=  1.0000000000D+00
 S 1 1.00
     Exponent=  2.1397624000D-01 Coefficients=  1.0000000000D+00
 S 1 1.00
     Exponent=  8.0316286000D-02 Coefficients=  1.0000000000D+00
 P 1 1.00
     Exponent=  2.2920000000D+00 Coefficients=  1.0000000000D+00
 P 1 1.00
     Exponent=  8.3800000000D-01 Coefficients=  1.0000000000D+00
 P 1 1.00
     Exponent=  2.9200000000D-01 Coefficients=  1.0000000000D+00
 P 1 1.00
     Exponent=  8.4063199228D-02 Coefficients=  1.0000000000D+00
 D 1 1.00
     Exponent=  2.0620000000D+00 Coefficients=  1.0000000000D+00
 D 1 1.00
     Exponent=  6.6200000000D-01 Coefficients=  1.0000000000D+00
 F 1 1.00
     Exponent=  1.3970000000D+00 Coefficients=  1.0000000000D+00
 ****
 Centers:       3      5
 S 8 1.00
     Exponent=  6.7025071029D+04 Coefficients=  3.8736308501D-05
     Exponent=  1.0039986538D+04 Coefficients=  3.0107917575D-04
     Exponent=  2.2849316911D+03 Coefficients=  1.5787918095D-03
     Exponent=  6.4714122130D+02 Coefficients=  6.6087087195D-03
     Exponent=  2.1109472335D+02 Coefficients=  2.3367123250D-02
     Exponent=  7.6177643862D+01 Coefficients=  7.0420716898D-02
     Exponent=  2.9633839163D+01 Coefficients=  1.7360344953D-01
     Exponent=  1.2187785081D+01 Coefficients=  3.2292305648D-01
 S 2 1.00
     Exponent=  5.3026006299D+01 Coefficients=  7.4897404492D-02
     Exponent=  1.5258502776D+01 Coefficients=  7.6136220983D-01
 S 1 1.00
     Exponent=  5.2403957464D+00 Coefficients=  1.0000000000D+00
 S 1 1.00
     Exponent=  2.2905022379D+00 Coefficients=  1.0000000000D+00
 S 1 1.00
     Exponent=  6.9673283006D-01 Coefficients=  1.0000000000D+00
 S 1 1.00
     Exponent=  2.7599337363D-01 Coefficients=  1.0000000000D+00
 S 1 1.00
     Exponent=  1.0739884389D-01 Coefficients=  1.0000000000D+00
 S 1 1.00
     Exponent=  4.4981404899D-02 Coefficients=  1.0000000000D+00
 P 5 1.00
     Exponent=  1.0512555082D+02 Coefficients=  8.4647553844D-04
     Exponent=  2.4884461066D+01 Coefficients=  6.6274038534D-03
     Exponent=  7.8637230826D+00 Coefficients=  3.0120390419D-02
     Exponent=  2.8407001835D+00 Coefficients=  9.9951435476D-02
     Exponent=  1.1227137335D+00 Coefficients=  2.3826299282D-01
 P 1 1.00
     Exponent=  4.6050725555D-01 Coefficients=  1.0000000000D+00
 P 1 1.00
     Exponent=  1.8937530913D-01 Coefficients=  1.0000000000D+00
 P 1 1.00
     Exponent=  7.5983791611D-02 Coefficients=  1.0000000000D+00
 D 1 1.00
     Exponent=  1.8480000000D+00 Coefficients=  1.0000000000D+00
 D 1 1.00
     Exponent=  6.4900000000D-01 Coefficients=  1.0000000000D+00
 D 1 1.00
     Exponent=  2.2800000000D-01 Coefficients=  1.0000000000D+00
 D 1 1.00
     Exponent=  7.6889830417D-02 Coefficients=  1.0000000000D+00
 F 1 1.00
     Exponent=  1.4190000000D+00 Coefficients=  1.0000000000D+00
 F 1 1.00
     Exponent=  4.8500000000D-01 Coefficients=  1.0000000000D+00
 G 1 1.00
     Exponent=  1.0110000000D+00 Coefficients=  1.0000000000D+00
 ****
 Centers:       1      2      4
 S 8 1.00
     Exponent=  9.0726889210D+04 Coefficients=  3.9257887368D-05
     Exponent=  1.3590528801D+04 Coefficients=  3.0513316455D-04
     Exponent=  3.0929883781D+03 Coefficients=  1.6000560446D-03
     Exponent=  8.7599876362D+02 Coefficients=  6.6982937306D-03
     Exponent=  2.8574469982D+02 Coefficients=  2.3690078765D-02
     Exponent=  1.0311913417D+02 Coefficients=  7.1455405268D-02
     Exponent=  4.0128556777D+01 Coefficients=  1.7632774876D-01
     Exponent=  1.6528095704D+01 Coefficients=  3.2677592815D-01
 S 2 1.00
     Exponent=  6.9390960983D+01 Coefficients=  8.0052094386D-02
     Exponent=  2.0428200596D+01 Coefficients=  7.8268063538D-01
 S 1 1.00
     Exponent=  7.1292587972D+00 Coefficients=  1.0000000000D+00
 S 1 1.00
     Exponent=  3.1324304893D+00 Coefficients=  1.0000000000D+00
 S 1 1.00
     Exponent=  9.8755778723D-01 Coefficients=  1.0000000000D+00
 S 1 1.00
     Exponent=  3.8765721307D-01 Coefficients=  1.0000000000D+00
 S 1 1.00
     Exponent=  1.4909883075D-01 Coefficients=  1.0000000000D+00
 S 1 1.00
     Exponent=  6.2151630318D-02 Coefficients=  1.0000000000D+00
 P 5 1.00
     Exponent=  1.5005742670D+02 Coefficients= -8.6216165986D-04
     Exponent=  3.5491599483D+01 Coefficients= -6.8571273236D-03
     Exponent=  1.1247864223D+01 Coefficients= -3.1795688855D-02
     Exponent=  4.0900305195D+00 Coefficients= -1.0537396822D-01
     Exponent=  1.6220573146D+00 Coefficients= -2.4519708041D-01
 P 1 1.00
     Exponent=  6.6442261530D-01 Coefficients=  1.0000000000D+00
 P 1 1.00
     Exponent=  2.7099770070D-01 Coefficients=  1.0000000000D+00
 P 1 1.00
     Exponent=  1.0688749984D-01 Coefficients=  1.0000000000D+00
 D 1 1.00
     Exponent=  2.8370000000D+00 Coefficients=  1.0000000000D+00
 D 1 1.00
     Exponent=  9.6800000000D-01 Coefficients=  1.0000000000D+00
 D 1 1.00
     Exponent=  3.3500000000D-01 Coefficients=  1.0000000000D+00
 D 1 1.00
     Exponent=  1.0825280010D-01 Coefficients=  1.0000000000D+00
 F 1 1.00
     Exponent=  2.0270000000D+00 Coefficients=  1.0000000000D+00
 F 1 1.00
     Exponent=  6.8500000000D-01 Coefficients=  1.0000000000D+00
 G 1 1.00
     Exponent=  1.4270000000D+00 Coefficients=  1.0000000000D+00
 ****
 Centers:       6      7
 S 8 1.00
     Exponent=  1.1650646908D+05 Coefficients=  4.0383857939D-05
     Exponent=  1.7504349724D+04 Coefficients=  3.1255139004D-04
     Exponent=  3.9934513230D+03 Coefficients=  1.6341473495D-03
     Exponent=  1.1330063186D+03 Coefficients=  6.8283224757D-03
     Exponent=  3.6999569594D+02 Coefficients=  2.4124410221D-02
     Exponent=  1.3362074349D+02 Coefficients=  7.2730206154D-02
     Exponent=  5.2035643649D+01 Coefficients=  1.7934429892D-01
     Exponent=  2.1461939313D+01 Coefficients=  3.3059588895D-01
 S 2 1.00
     Exponent=  8.9835051252D+01 Coefficients=  9.6468652996D-02
     Exponent=  2.6428010844D+01 Coefficients=  9.4117481120D-01
 S 1 1.00
     Exponent=  9.2822824649D+00 Coefficients=  1.0000000000D+00
 S 1 1.00
     Exponent=  4.0947728533D+00 Coefficients=  1.0000000000D+00
 S 1 1.00
     Exponent=  1.3255349078D+00 Coefficients=  1.0000000000D+00
 S 1 1.00
     Exponent=  5.1877230787D-01 Coefficients=  1.0000000000D+00
 S 1 1.00
     Exponent=  1.9772676454D-01 Coefficients=  1.0000000000D+00
 S 1 1.00
     Exponent=  6.9638535104D-02 Coefficients=  1.0000000000D+00
 P 5 1.00
     Exponent=  1.9115255810D+02 Coefficients=  2.5115697705D-03
     Exponent=  4.5233356739D+01 Coefficients=  2.0039240864D-02
     Exponent=  1.4353465922D+01 Coefficients=  9.3609064762D-02
     Exponent=  5.2422371832D+00 Coefficients=  3.0618127124D-01
     Exponent=  2.0792418599D+00 Coefficients=  6.7810501439D-01
 P 1 1.00
     Exponent=  8.4282371424D-01 Coefficients=  1.0000000000D+00
 P 1 1.00
     Exponent=  3.3617694891D-01 Coefficients=  1.0000000000D+00
 P 1 1.00
     Exponent=  1.2863997974D-01 Coefficients=  1.0000000000D+00
 P 1 1.00
     Exponent=  4.3598162776D-02 Coefficients=  1.0000000000D+00
 D 1 1.00
     Exponent=  3.7750000000D+00 Coefficients=  1.0000000000D+00
 D 1 1.00
     Exponent=  1.3000000000D+00 Coefficients=  1.0000000000D+00
 D 1 1.00
     Exponent=  4.4400000000D-01 Coefficients=  1.0000000000D+00
 D 1 1.00
     Exponent=  1.2546378695D-01 Coefficients=  1.0000000000D+00
 F 1 1.00
     Exponent=  2.6660000000D+00 Coefficients=  1.0000000000D+00
 F 1 1.00
     Exponent=  8.5900000000D-01 Coefficients=  1.0000000000D+00
 G 1 1.00
     Exponent=  1.8460000000D+00 Coefficients=  1.0000000000D+00
 ****
 Ernie: Thresh=  0.10000D-02 Tol=  0.10000D-05 Strict=F.
 There are   673 symmetry adapted cartesian basis functions of A   symmetry.
 There are   546 symmetry adapted basis functions of A   symmetry.
   546 basis functions,   822 primitive gaussians,   673 cartesian basis functions
    26 alpha electrons       26 beta electrons
       nuclear repulsion energy       302.5890369033 Hartrees.
 IExCor= 4336 DFT=T Ex+Corr=M062X ExCW=0 ScaHFX=  0.540000
 ScaDFX=  1.000000  1.000000  1.000000  1.000000 ScalE2=  1.000000  1.000000
 IRadAn=      5 IRanWt=     -1 IRanGd=            0 ICorTp=0 IEmpDi=  4
 NAtoms=   10 NActive=   10 NUniq=   10 SFac= 1.00D+00 NAtFMM=   60 NAOKFM=F Big=F
 Integral buffers will be    131072 words long.
 Raffenetti 2 integral format.
 Two-electron integral symmetry is turned on.
 Leave Link  301 at Sat Apr 17 12:35:47 2021, MaxMem=   104857600 cpu:              11.8 elap:               0.3
 (Enter /s/ls4/users/knvvv/bin/g16sse/l302.exe)
 NPDir=0 NMtPBC=     1 NCelOv=     1 NCel=       1 NClECP=     1 NCelD=      1
         NCelK=      1 NCelE2=     1 NClLst=     1 CellRange=     0.0.
 One-electron integrals computed using PRISM.
 One-electron integral symmetry used in STVInt
 PrsmSu:  requested number of processors reduced to:   4 ShMem   1 Linda.
 PrsmSu:  requested number of processors reduced to:  19 ShMem   1 Linda.
 NBasis=   546 RedAO= T EigKep=  5.08D-06  NBF=   546
 NBsUse=   546 1.00D-06 EigRej= -1.00D+00 NBFU=   546
 Precomputing XC quadrature grid using
 IXCGrd= 4 IRadAn=           5 IRanWt=          -1 IRanGd=           0 AccXCQ= 0.00D+00.
 Generated NRdTot=       0 NPtTot=           0 NUsed=           0 NTot=          32
 NSgBfM=   671   671   671   671   671 MxSgAt=    10 MxSgA2=    10.
 Leave Link  302 at Sat Apr 17 12:35:57 2021, MaxMem=   104857600 cpu:             497.5 elap:              10.7
 (Enter /s/ls4/users/knvvv/bin/g16sse/l303.exe)
 DipDrv:  MaxL=1.
 Leave Link  303 at Sat Apr 17 12:36:02 2021, MaxMem=   104857600 cpu:             229.8 elap:               4.9
 (Enter /s/ls4/users/knvvv/bin/g16sse/l401.exe)
 SCF N**3 symmetry information disabled.
 ExpMin= 4.36D-02 ExpMax= 1.17D+05 ExpMxC= 1.13D+03 IAcc=3 IRadAn=         5 AccDes= 0.00D+00
 Harris functional with IExCor= 1009 and IRadAn=       5 diagonalized for initial guess.
 HarFok:  IExCor= 1009 AccDes= 0.00D+00 IRadAn=         5 IDoV= 1 UseB2=F ITyADJ=14
 ICtDFT=  3500011 ScaDFX=  1.000000  1.000000  1.000000  1.000000
 FoFCou: FMM=F IPFlag=           0 FMFlag=      100000 FMFlg1=           0
         NFxFlg=           0 DoJE=T BraDBF=F KetDBF=T FulRan=T
         wScrn=  0.000000 ICntrl=       500 IOpCl=  0 I1Cent=   200000004 NGrid=           0
         NMat0=    1 NMatS0=      1 NMatT0=    0 NMatD0=    1 NMtDS0=    0 NMtDT0=    0
 Petite list used in FoFCou.
 CoulSu:  requested number of processors reduced to:  18 ShMem   1 Linda.
 CoulSu:  requested number of processors reduced to:  19 ShMem   1 Linda.
 CoulSu:  requested number of processors reduced to:  21 ShMem   1 Linda.
 CoulSu:  requested number of processors reduced to:  21 ShMem   1 Linda.
 Harris En= -392.566030324137    
 JPrj=0 DoOrth=F DoCkMO=F.
 Leave Link  401 at Sat Apr 17 12:36:08 2021, MaxMem=   104857600 cpu:             235.4 elap:               5.2
 (Enter /s/ls4/users/knvvv/bin/g16sse/l502.exe)
 Integral symmetry usage will be decided dynamically.
 Closed shell SCF:
 Using DIIS extrapolation, IDIIS=  1040.
 NGot=   104857600 LenX=   103914224 LenY=   103460622
 Requested convergence on RMS density matrix=1.00D-08 within 128 cycles.
 Requested convergence on MAX density matrix=1.00D-06.
 Requested convergence on             energy=1.00D-06.
 No special actions if energy rises.
 Fock matrices will be formed incrementally for  20 cycles.

 Cycle   1  Pass 1  IDiag  1:
 FoFJK:  IHMeth= 1 ICntrl=       0 DoSepK=F KAlg= 0 I1Cent=           0 FoldK=F
 IRaf= 950000000 NMat=       1 IRICut=       1 DoRegI=T DoRafI=F ISym2E= 0 IDoP0=0 IntGTp=1.
 FoFCou: FMM=F IPFlag=           0 FMFlag=      100000 FMFlg1=           0
         NFxFlg=           0 DoJE=F BraDBF=F KetDBF=F FulRan=T
         wScrn=  0.000000 ICntrl=         0 IOpCl=  0 I1Cent=           0 NGrid=           0
         NMat0=    1 NMatS0=      1 NMatT0=    0 NMatD0=    1 NMtDS0=    0 NMtDT0=    0
 Symmetry not used in FoFCou.
 CoulSu:  requested number of processors reduced to:  19 ShMem   1 Linda.
 E= -392.552897804891    
 DIIS: error= 2.58D-02 at cycle   1 NSaved=   1.
 NSaved= 1 IEnMin= 1 EnMin= -392.552897804891     IErMin= 1 ErrMin= 2.58D-02
 ErrMax= 2.58D-02  0.00D+00 EMaxC= 1.00D-01 BMatC= 4.82D-01 BMatP= 4.82D-01
 IDIUse=3 WtCom= 7.42D-01 WtEn= 2.58D-01
 Coeff-Com:  0.100D+01
 Coeff-En:   0.100D+01
 Coeff:      0.100D+01
 Gap=     0.367 Goal=   None    Shift=    0.000
 GapD=    0.367 DampG=1.000 DampE=0.500 DampFc=0.5000 IDamp=-1.
 Damping current iteration by 5.00D-01
 RMSDP=1.34D-03 MaxDP=7.32D-02              OVMax= 3.22D-01

 Cycle   2  Pass 1  IDiag  1:
 RMSU=  6.58D-04    CP:  9.71D-01
 CoulSu:  requested number of processors reduced to:  19 ShMem   1 Linda.
 E= -392.613242519188     Delta-E=       -0.060344714297 Rises=F Damp=T
 DIIS: error= 1.34D-02 at cycle   2 NSaved=   2.
 NSaved= 2 IEnMin= 2 EnMin= -392.613242519188     IErMin= 2 ErrMin= 1.34D-02
 ErrMax= 1.34D-02  0.00D+00 EMaxC= 1.00D-01 BMatC= 9.14D-02 BMatP= 4.82D-01
 IDIUse=3 WtCom= 8.66D-01 WtEn= 1.34D-01
 Coeff-Com:  0.892D-01 0.911D+00
 Coeff-En:   0.334D+00 0.666D+00
 Coeff:      0.122D+00 0.878D+00
 Gap=     0.362 Goal=   None    Shift=    0.000
 RMSDP=7.39D-04 MaxDP=4.59D-02 DE=-6.03D-02 OVMax= 1.72D-01

 Cycle   3  Pass 1  IDiag  1:
 RMSU=  7.08D-04    CP:  9.37D-01  1.23D+00
 CoulSu:  requested number of processors reduced to:  19 ShMem   1 Linda.
 E= -392.745207254059     Delta-E=       -0.131964734871 Rises=F Damp=F
 DIIS: error= 8.15D-03 at cycle   3 NSaved=   3.
 NSaved= 3 IEnMin= 3 EnMin= -392.745207254059     IErMin= 3 ErrMin= 8.15D-03
 ErrMax= 8.15D-03  0.00D+00 EMaxC= 1.00D-01 BMatC= 3.54D-02 BMatP= 9.14D-02
 IDIUse=3 WtCom= 9.18D-01 WtEn= 8.15D-02
 Coeff-Com: -0.115D+00 0.392D+00 0.723D+00
 Coeff-En:   0.000D+00 0.000D+00 0.100D+01
 Coeff:     -0.106D+00 0.360D+00 0.746D+00
 Gap=     0.335 Goal=   None    Shift=    0.000
 RMSDP=3.01D-04 MaxDP=1.66D-02 DE=-1.32D-01 OVMax= 5.74D-02

 Cycle   4  Pass 1  IDiag  1:
 RMSU=  2.79D-04    CP:  9.27D-01  1.35D+00  8.98D-01
 CoulSu:  requested number of processors reduced to:  19 ShMem   1 Linda.
 E= -392.767731682762     Delta-E=       -0.022524428703 Rises=F Damp=F
 DIIS: error= 3.72D-03 at cycle   4 NSaved=   4.
 NSaved= 4 IEnMin= 4 EnMin= -392.767731682762     IErMin= 4 ErrMin= 3.72D-03
 ErrMax= 3.72D-03  0.00D+00 EMaxC= 1.00D-01 BMatC= 5.28D-03 BMatP= 3.54D-02
 IDIUse=3 WtCom= 9.63D-01 WtEn= 3.72D-02
 Coeff-Com: -0.511D-01 0.111D+00 0.370D+00 0.570D+00
 Coeff-En:   0.000D+00 0.000D+00 0.100D+00 0.900D+00
 Coeff:     -0.492D-01 0.107D+00 0.360D+00 0.582D+00
 Gap=     0.321 Goal=   None    Shift=    0.000
 RMSDP=9.13D-05 MaxDP=4.43D-03 DE=-2.25D-02 OVMax= 1.46D-02

 Cycle   5  Pass 1  IDiag  1:
 RMSU=  5.49D-05    CP:  9.27D-01  1.35D+00  9.27D-01  7.50D-01
 CoulSu:  requested number of processors reduced to:  19 ShMem   1 Linda.
 E= -392.771652961560     Delta-E=       -0.003921278798 Rises=F Damp=F
 DIIS: error= 3.39D-04 at cycle   5 NSaved=   5.
 NSaved= 5 IEnMin= 5 EnMin= -392.771652961560     IErMin= 5 ErrMin= 3.39D-04
 ErrMax= 3.39D-04  0.00D+00 EMaxC= 1.00D-01 BMatC= 7.07D-05 BMatP= 5.28D-03
 IDIUse=3 WtCom= 9.97D-01 WtEn= 3.39D-03
 Coeff-Com: -0.126D-01 0.243D-01 0.843D-01 0.179D+00 0.725D+00
 Coeff-En:   0.000D+00 0.000D+00 0.000D+00 0.000D+00 0.100D+01
 Coeff:     -0.126D-01 0.242D-01 0.840D-01 0.178D+00 0.726D+00
 Gap=     0.320 Goal=   None    Shift=    0.000
 RMSDP=1.98D-05 MaxDP=1.45D-03 DE=-3.92D-03 OVMax= 3.11D-03

 Cycle   6  Pass 1  IDiag  1:
 RMSU=  1.50D-05    CP:  9.27D-01  1.36D+00  9.27D-01  7.67D-01  1.19D+00
 CoulSu:  requested number of processors reduced to:  19 ShMem   1 Linda.
 E= -392.771715950793     Delta-E=       -0.000062989233 Rises=F Damp=F
 DIIS: error= 1.31D-04 at cycle   6 NSaved=   6.
 NSaved= 6 IEnMin= 6 EnMin= -392.771715950793     IErMin= 6 ErrMin= 1.31D-04
 ErrMax= 1.31D-04  0.00D+00 EMaxC= 1.00D-01 BMatC= 1.02D-05 BMatP= 7.07D-05
 IDIUse=3 WtCom= 9.99D-01 WtEn= 1.31D-03
 Coeff-Com:  0.182D-02-0.486D-02-0.171D-01-0.139D-01 0.263D+00 0.771D+00
 Coeff-En:   0.000D+00 0.000D+00 0.000D+00 0.000D+00 0.000D+00 0.100D+01
 Coeff:      0.182D-02-0.485D-02-0.171D-01-0.139D-01 0.262D+00 0.772D+00
 Gap=     0.321 Goal=   None    Shift=    0.000
 RMSDP=1.02D-05 MaxDP=7.28D-04 DE=-6.30D-05 OVMax= 1.55D-03

 Cycle   7  Pass 1  IDiag  1:
 RMSU=  5.74D-06    CP:  9.26D-01  1.36D+00  9.29D-01  7.79D-01  1.31D+00
                    CP:  1.17D+00
 CoulSu:  requested number of processors reduced to:  19 ShMem   1 Linda.
 E= -392.771726356767     Delta-E=       -0.000010405974 Rises=F Damp=F
 DIIS: error= 4.63D-05 at cycle   7 NSaved=   7.
 NSaved= 7 IEnMin= 7 EnMin= -392.771726356767     IErMin= 7 ErrMin= 4.63D-05
 ErrMax= 4.63D-05  0.00D+00 EMaxC= 1.00D-01 BMatC= 1.01D-06 BMatP= 1.02D-05
 IDIUse=1 WtCom= 1.00D+00 WtEn= 0.00D+00
 Coeff-Com:  0.232D-02-0.482D-02-0.145D-01-0.275D-01-0.907D-02 0.195D+00
 Coeff-Com:  0.858D+00
 Coeff:      0.232D-02-0.482D-02-0.145D-01-0.275D-01-0.907D-02 0.195D+00
 Coeff:      0.858D+00
 Gap=     0.321 Goal=   None    Shift=    0.000
 RMSDP=3.09D-06 MaxDP=1.59D-04 DE=-1.04D-05 OVMax= 4.51D-04

 Cycle   8  Pass 1  IDiag  1:
 RMSU=  2.02D-06    CP:  9.26D-01  1.36D+00  9.29D-01  7.81D-01  1.34D+00
                    CP:  1.25D+00  1.02D+00
 CoulSu:  requested number of processors reduced to:  19 ShMem   1 Linda.
 E= -392.771727592975     Delta-E=       -0.000001236208 Rises=F Damp=F
 DIIS: error= 1.73D-05 at cycle   8 NSaved=   8.
 NSaved= 8 IEnMin= 8 EnMin= -392.771727592975     IErMin= 8 ErrMin= 1.73D-05
 ErrMax= 1.73D-05  0.00D+00 EMaxC= 1.00D-01 BMatC= 2.29D-07 BMatP= 1.01D-06
 IDIUse=1 WtCom= 1.00D+00 WtEn= 0.00D+00
 Coeff-Com:  0.741D-03-0.145D-02-0.317D-02-0.834D-02-0.201D-01 0.124D-01
 Coeff-Com:  0.359D+00 0.661D+00
 Coeff:      0.741D-03-0.145D-02-0.317D-02-0.834D-02-0.201D-01 0.124D-01
 Coeff:      0.359D+00 0.661D+00
 Gap=     0.321 Goal=   None    Shift=    0.000
 RMSDP=8.97D-07 MaxDP=6.12D-05 DE=-1.24D-06 OVMax= 2.34D-04

 Cycle   9  Pass 1  IDiag  1:
 RMSU=  7.86D-07    CP:  9.26D-01  1.36D+00  9.29D-01  7.81D-01  1.34D+00
                    CP:  1.25D+00  1.04D+00  1.15D+00
 CoulSu:  requested number of processors reduced to:  19 ShMem   1 Linda.
 E= -392.771727802405     Delta-E=       -0.000000209430 Rises=F Damp=F
 DIIS: error= 5.98D-06 at cycle   9 NSaved=   9.
 NSaved= 9 IEnMin= 9 EnMin= -392.771727802405     IErMin= 9 ErrMin= 5.98D-06
 ErrMax= 5.98D-06  0.00D+00 EMaxC= 1.00D-01 BMatC= 2.84D-08 BMatP= 2.29D-07
 IDIUse=1 WtCom= 1.00D+00 WtEn= 0.00D+00
 Coeff-Com: -0.135D-03 0.290D-03 0.164D-02 0.198D-02-0.722D-02-0.359D-01
 Coeff-Com: -0.594D-01 0.212D+00 0.887D+00
 Coeff:     -0.135D-03 0.290D-03 0.164D-02 0.198D-02-0.722D-02-0.359D-01
 Coeff:     -0.594D-01 0.212D+00 0.887D+00
 Gap=     0.321 Goal=   None    Shift=    0.000
 RMSDP=5.35D-07 MaxDP=3.11D-05 DE=-2.09D-07 OVMax= 7.50D-05

 Cycle  10  Pass 1  IDiag  1:
 RMSU=  2.03D-07    CP:  9.26D-01  1.36D+00  9.28D-01  7.81D-01  1.34D+00
                    CP:  1.25D+00  1.04D+00  1.36D+00  1.17D+00
 CoulSu:  requested number of processors reduced to:  19 ShMem   1 Linda.
 E= -392.771727835521     Delta-E=       -0.000000033116 Rises=F Damp=F
 DIIS: error= 2.42D-06 at cycle  10 NSaved=  10.
 NSaved=10 IEnMin=10 EnMin= -392.771727835521     IErMin=10 ErrMin= 2.42D-06
 ErrMax= 2.42D-06  0.00D+00 EMaxC= 1.00D-01 BMatC= 1.81D-09 BMatP= 2.84D-08
 IDIUse=1 WtCom= 1.00D+00 WtEn= 0.00D+00
 Coeff-Com: -0.810D-04 0.165D-03 0.693D-03 0.105D-02-0.130D-02-0.116D-01
 Coeff-Com: -0.415D-01 0.233D-01 0.297D+00 0.733D+00
 Coeff:     -0.810D-04 0.165D-03 0.693D-03 0.105D-02-0.130D-02-0.116D-01
 Coeff:     -0.415D-01 0.233D-01 0.297D+00 0.733D+00
 Gap=     0.321 Goal=   None    Shift=    0.000
 RMSDP=9.35D-08 MaxDP=7.73D-06 DE=-3.31D-08 OVMax= 1.75D-05

 Cycle  11  Pass 1  IDiag  1:
 RMSU=  6.98D-08    CP:  9.26D-01  1.36D+00  9.28D-01  7.81D-01  1.34D+00
                    CP:  1.25D+00  1.04D+00  1.39D+00  1.21D+00  9.85D-01
 CoulSu:  requested number of processors reduced to:  19 ShMem   1 Linda.
 E= -392.771727836772     Delta-E=       -0.000000001251 Rises=F Damp=F
 DIIS: error= 1.54D-06 at cycle  11 NSaved=  11.
 NSaved=11 IEnMin=11 EnMin= -392.771727836772     IErMin=11 ErrMin= 1.54D-06
 ErrMax= 1.54D-06  0.00D+00 EMaxC= 1.00D-01 BMatC= 7.32D-10 BMatP= 1.81D-09
 IDIUse=1 WtCom= 1.00D+00 WtEn= 0.00D+00
 Coeff-Com: -0.254D-04 0.502D-04 0.177D-03 0.321D-03 0.282D-03-0.149D-02
 Coeff-Com: -0.149D-01-0.155D-01 0.501D-01 0.427D+00 0.554D+00
 Coeff:     -0.254D-04 0.502D-04 0.177D-03 0.321D-03 0.282D-03-0.149D-02
 Coeff:     -0.149D-01-0.155D-01 0.501D-01 0.427D+00 0.554D+00
 Gap=     0.321 Goal=   None    Shift=    0.000
 RMSDP=3.09D-08 MaxDP=2.19D-06 DE=-1.25D-09 OVMax= 6.62D-06

 Cycle  12  Pass 1  IDiag  1:
 RMSU=  2.56D-08    CP:  9.26D-01  1.36D+00  9.28D-01  7.81D-01  1.34D+00
                    CP:  1.25D+00  1.04D+00  1.39D+00  1.22D+00  1.04D+00
                    CP:  8.56D-01
 CoulSu:  requested number of processors reduced to:  19 ShMem   1 Linda.
 E= -392.771727837298     Delta-E=       -0.000000000526 Rises=F Damp=F
 DIIS: error= 1.83D-07 at cycle  12 NSaved=  12.
 NSaved=12 IEnMin=12 EnMin= -392.771727837298     IErMin=12 ErrMin= 1.83D-07
 ErrMax= 1.83D-07  0.00D+00 EMaxC= 1.00D-01 BMatC= 1.78D-11 BMatP= 7.32D-10
 IDIUse=1 WtCom= 1.00D+00 WtEn= 0.00D+00
 Coeff-Com:  0.608D-05-0.121D-04-0.284D-04-0.497D-04 0.857D-04 0.643D-03
 Coeff-Com:  0.218D-02-0.390D-02-0.219D-01-0.315D-01 0.344D-01 0.102D+01
 Coeff:      0.608D-05-0.121D-04-0.284D-04-0.497D-04 0.857D-04 0.643D-03
 Coeff:      0.218D-02-0.390D-02-0.219D-01-0.315D-01 0.344D-01 0.102D+01
 Gap=     0.321 Goal=   None    Shift=    0.000
 RMSDP=1.04D-08 MaxDP=5.86D-07 DE=-5.26D-10 OVMax= 1.15D-06

 Cycle  13  Pass 1  IDiag  1:
 RMSU=  5.45D-09    CP:  9.26D-01  1.36D+00  9.28D-01  7.81D-01  1.34D+00
                    CP:  1.25D+00  1.04D+00  1.39D+00  1.22D+00  1.06D+00
                    CP:  9.35D-01  1.16D+00
 CoulSu:  requested number of processors reduced to:  19 ShMem   1 Linda.
 E= -392.771727837301     Delta-E=       -0.000000000003 Rises=F Damp=F
 DIIS: error= 4.54D-08 at cycle  13 NSaved=  13.
 NSaved=13 IEnMin=13 EnMin= -392.771727837301     IErMin=13 ErrMin= 4.54D-08
 ErrMax= 4.54D-08  0.00D+00 EMaxC= 1.00D-01 BMatC= 5.49D-13 BMatP= 1.78D-11
 IDIUse=1 WtCom= 1.00D+00 WtEn= 0.00D+00
 Coeff-Com:  0.864D-06-0.179D-05-0.181D-05-0.422D-05-0.128D-05 0.582D-04
 Coeff-Com:  0.423D-03 0.220D-04-0.112D-02-0.148D-01-0.215D-01 0.215D-01
 Coeff-Com:  0.102D+01
 Coeff:      0.864D-06-0.179D-05-0.181D-05-0.422D-05-0.128D-05 0.582D-04
 Coeff:      0.423D-03 0.220D-04-0.112D-02-0.148D-01-0.215D-01 0.215D-01
 Coeff:      0.102D+01
 Gap=     0.321 Goal=   None    Shift=    0.000
 RMSDP=2.15D-09 MaxDP=1.38D-07 DE=-2.50D-12 OVMax= 2.24D-07

 SCF Done:  E(RM062X) =  -392.771727837     A.U. after   13 cycles
            NFock= 13  Conv=0.22D-08     -V/T= 2.0040
 KE= 3.912063444636D+02 PE=-1.525488623782D+03 EE= 4.389215145780D+02
 Leave Link  502 at Sat Apr 17 12:42:44 2021, MaxMem=   104857600 cpu:           11317.7 elap:             396.3
 (Enter /s/ls4/users/knvvv/bin/g16sse/l601.exe)
 Copying SCF densities to generalized density rwf, IOpCl= 0 IROHF=0.

 **********************************************************************

            Population analysis using the SCF density.

 **********************************************************************

 Orbital symmetries:
       Occupied  (A) (A) (A) (A) (A) (A) (A) (A) (A) (A) (A) (A)
                 (A) (A) (A) (A) (A) (A) (A) (A) (A) (A) (A) (A)
                 (A) (A)
       Virtual   (A) (A) (A) (A) (A) (A) (A) (A) (A) (A) (A) (A)
                 (A) (A) (A) (A) (A) (A) (A) (A) (A) (A) (A) (A)
                 (A) (A) (A) (A) (A) (A) (A) (A) (A) (A) (A) (A)
                 (A) (A) (A) (A) (A) (A) (A) (A) (A) (A) (A) (A)
                 (A) (A) (A) (A) (A) (A) (A) (A) (A) (A) (A) (A)
                 (A) (A) (A) (A) (A) (A) (A) (A) (A) (A) (A) (A)
                 (A) (A) (A) (A) (A) (A) (A) (A) (A) (A) (A) (A)
                 (A) (A) (A) (A) (A) (A) (A) (A) (A) (A) (A) (A)
                 (A) (A) (A) (A) (A) (A) (A) (A) (A) (A) (A) (A)
                 (A) (A) (A) (A) (A) (A) (A) (A) (A) (A) (A) (A)
                 (A) (A) (A) (A) (A) (A) (A) (A) (A) (A) (A) (A)
                 (A) (A) (A) (A) (A) (A) (A) (A) (A) (A) (A) (A)
                 (A) (A) (A) (A) (A) (A) (A) (A) (A) (A) (A) (A)
                 (A) (A) (A) (A) (A) (A) (A) (A) (A) (A) (A) (A)
                 (A) (A) (A) (A) (A) (A) (A) (A) (A) (A) (A) (A)
                 (A) (A) (A) (A) (A) (A) (A) (A) (A) (A) (A) (A)
                 (A) (A) (A) (A) (A) (A) (A) (A) (A) (A) (A) (A)
                 (A) (A) (A) (A) (A) (A) (A) (A) (A) (A) (A) (A)
                 (A) (A) (A) (A) (A) (A) (A) (A) (A) (A) (A) (A)
                 (A) (A) (A) (A) (A) (A) (A) (A) (A) (A) (A) (A)
                 (A) (A) (A) (A) (A) (A) (A) (A) (A) (A) (A) (A)
                 (A) (A) (A) (A) (A) (A) (A) (A) (A) (A) (A) (A)
                 (A) (A) (A) (A) (A) (A) (A) (A) (A) (A) (A) (A)
                 (A) (A) (A) (A) (A) (A) (A) (A) (A) (A) (A) (A)
                 (A) (A) (A) (A) (A) (A) (A) (A) (A) (A) (A) (A)
                 (A) (A) (A) (A) (A) (A) (A) (A) (A) (A) (A) (A)
                 (A) (A) (A) (A) (A) (A) (A) (A) (A) (A) (A) (A)
                 (A) (A) (A) (A) (A) (A) (A) (A) (A) (A) (A) (A)
                 (A) (A) (A) (A) (A) (A) (A) (A) (A) (A) (A) (A)
                 (A) (A) (A) (A) (A) (A) (A) (A) (A) (A) (A) (A)
                 (A) (A) (A) (A) (A) (A) (A) (A) (A) (A) (A) (A)
                 (A) (A) (A) (A) (A) (A) (A) (A) (A) (A) (A) (A)
                 (A) (A) (A) (A) (A) (A) (A) (A) (A) (A) (A) (A)
                 (A) (A) (A) (A) (A) (A) (A) (A) (A) (A) (A) (A)
                 (A) (A) (A) (A) (A) (A) (A) (A) (A) (A) (A) (A)
                 (A) (A) (A) (A) (A) (A) (A) (A) (A) (A) (A) (A)
                 (A) (A) (A) (A) (A) (A) (A) (A) (A) (A) (A) (A)
                 (A) (A) (A) (A) (A) (A) (A) (A) (A) (A) (A) (A)
                 (A) (A) (A) (A) (A) (A) (A) (A) (A) (A) (A) (A)
                 (A) (A) (A) (A) (A) (A) (A) (A) (A) (A) (A) (A)
                 (A) (A) (A) (A) (A) (A) (A) (A) (A) (A) (A) (A)
                 (A) (A) (A) (A) (A) (A) (A) (A) (A) (A) (A) (A)
                 (A) (A) (A) (A) (A) (A) (A) (A) (A) (A) (A) (A)
                 (A) (A) (A) (A)
 The electronic state is 1-A.
 Alpha  occ. eigenvalues --  -19.61796 -19.61528 -14.84755 -14.84720 -14.82393
 Alpha  occ. eigenvalues --  -10.70956 -10.70783  -1.24952  -1.17687  -1.14359
 Alpha  occ. eigenvalues --   -1.05873  -0.96764  -0.78489  -0.74647  -0.67129
 Alpha  occ. eigenvalues --   -0.63990  -0.60681  -0.58375  -0.53999  -0.52705
 Alpha  occ. eigenvalues --   -0.49664  -0.45770  -0.39172  -0.37152  -0.36316
 Alpha  occ. eigenvalues --   -0.32840
 Alpha virt. eigenvalues --   -0.00767   0.01748   0.01881   0.03170   0.03472
 Alpha virt. eigenvalues --    0.04759   0.05413   0.06282   0.07300   0.07326
 Alpha virt. eigenvalues --    0.08029   0.09250   0.09418   0.11429   0.13588
 Alpha virt. eigenvalues --    0.13675   0.13898   0.14244   0.14297   0.16288
 Alpha virt. eigenvalues --    0.17380   0.17884   0.19646   0.20979   0.21053
 Alpha virt. eigenvalues --    0.21328   0.22069   0.23144   0.23562   0.24340
 Alpha virt. eigenvalues --    0.24746   0.25488   0.25648   0.26572   0.27817
 Alpha virt. eigenvalues --    0.28805   0.29555   0.30227   0.31502   0.31828
 Alpha virt. eigenvalues --    0.32053   0.33359   0.33595   0.34954   0.35765
 Alpha virt. eigenvalues --    0.35921   0.36687   0.38155   0.38431   0.39721
 Alpha virt. eigenvalues --    0.40329   0.40739   0.40974   0.42715   0.44053
 Alpha virt. eigenvalues --    0.44766   0.45005   0.46275   0.47003   0.47886
 Alpha virt. eigenvalues --    0.48076   0.48757   0.49576   0.50824   0.51669
 Alpha virt. eigenvalues --    0.52292   0.53949   0.54907   0.55903   0.56078
 Alpha virt. eigenvalues --    0.57978   0.58242   0.59570   0.60030   0.60263
 Alpha virt. eigenvalues --    0.60319   0.61363   0.63953   0.64585   0.64835
 Alpha virt. eigenvalues --    0.66320   0.66737   0.67204   0.68268   0.68716
 Alpha virt. eigenvalues --    0.70043   0.72175   0.72890   0.74082   0.75314
 Alpha virt. eigenvalues --    0.77593   0.78163   0.79146   0.80390   0.81529
 Alpha virt. eigenvalues --    0.83680   0.85009   0.87956   0.88390   0.90610
 Alpha virt. eigenvalues --    0.90876   0.91839   0.92966   0.96021   0.96947
 Alpha virt. eigenvalues --    0.99267   0.99978   1.01712   1.02541   1.05130
 Alpha virt. eigenvalues --    1.06487   1.07987   1.09863   1.11529   1.12526
 Alpha virt. eigenvalues --    1.14640   1.15438   1.17072   1.17748   1.19206
 Alpha virt. eigenvalues --    1.19949   1.23172   1.25621   1.25979   1.27471
 Alpha virt. eigenvalues --    1.29768   1.30292   1.33925   1.34380   1.37534
 Alpha virt. eigenvalues --    1.38673   1.40269   1.41622   1.44618   1.46825
 Alpha virt. eigenvalues --    1.50179   1.52429   1.53282   1.54387   1.55374
 Alpha virt. eigenvalues --    1.57039   1.58825   1.59826   1.63093   1.63848
 Alpha virt. eigenvalues --    1.66016   1.67392   1.69036   1.69264   1.70057
 Alpha virt. eigenvalues --    1.71855   1.72781   1.74233   1.77126   1.77794
 Alpha virt. eigenvalues --    1.80064   1.82085   1.89762   1.92191   1.92853
 Alpha virt. eigenvalues --    1.94641   1.95950   1.98271   1.99616   2.02255
 Alpha virt. eigenvalues --    2.04480   2.05074   2.06901   2.09883   2.11489
 Alpha virt. eigenvalues --    2.14079   2.16035   2.17665   2.20522   2.23051
 Alpha virt. eigenvalues --    2.23620   2.26340   2.28425   2.29395   2.30078
 Alpha virt. eigenvalues --    2.33143   2.36565   2.39877   2.43226   2.44213
 Alpha virt. eigenvalues --    2.45599   2.46747   2.47950   2.51189   2.52859
 Alpha virt. eigenvalues --    2.54965   2.55698   2.58961   2.60621   2.62105
 Alpha virt. eigenvalues --    2.65356   2.66283   2.70745   2.71487   2.72492
 Alpha virt. eigenvalues --    2.73878   2.75130   2.75911   2.78213   2.79018
 Alpha virt. eigenvalues --    2.82715   2.85502   2.86566   2.87400   2.90144
 Alpha virt. eigenvalues --    2.93881   2.96302   2.98398   2.98831   3.02109
 Alpha virt. eigenvalues --    3.03920   3.07131   3.07827   3.09823   3.10288
 Alpha virt. eigenvalues --    3.13322   3.14838   3.18540   3.19207   3.20490
 Alpha virt. eigenvalues --    3.21601   3.22829   3.25155   3.32236   3.35372
 Alpha virt. eigenvalues --    3.38249   3.39965   3.41315   3.43857   3.45893
 Alpha virt. eigenvalues --    3.46756   3.47944   3.50596   3.53734   3.58477
 Alpha virt. eigenvalues --    3.62443   3.63278   3.65194   3.69517   3.71077
 Alpha virt. eigenvalues --    3.73531   3.75891   3.79582   3.83238   3.87195
 Alpha virt. eigenvalues --    3.89077   3.90175   3.91894   3.95897   3.98208
 Alpha virt. eigenvalues --    4.01039   4.03050   4.04045   4.11456   4.13523
 Alpha virt. eigenvalues --    4.14123   4.17608   4.18255   4.20815   4.21105
 Alpha virt. eigenvalues --    4.25732   4.26629   4.30173   4.32808   4.34599
 Alpha virt. eigenvalues --    4.36761   4.40204   4.43437   4.45604   4.47710
 Alpha virt. eigenvalues --    4.48155   4.51348   4.56806   4.60147   4.64701
 Alpha virt. eigenvalues --    4.70527   4.73208   4.75499   4.80992   4.88906
 Alpha virt. eigenvalues --    4.92532   4.97971   5.02826   5.08144   5.08943
 Alpha virt. eigenvalues --    5.09496   5.14703   5.20906   5.26935   5.28385
 Alpha virt. eigenvalues --    5.29184   5.30543   5.34864   5.36144   5.38129
 Alpha virt. eigenvalues --    5.44077   5.45774   5.49086   5.52216   5.58161
 Alpha virt. eigenvalues --    5.59410   5.65048   5.65977   5.67742   5.68303
 Alpha virt. eigenvalues --    5.73935   5.77390   5.80207   5.80396   5.86894
 Alpha virt. eigenvalues --    5.89534   5.93184   5.96932   5.98390   5.99950
 Alpha virt. eigenvalues --    6.02696   6.03111   6.04529   6.09314   6.11486
 Alpha virt. eigenvalues --    6.12494   6.13555   6.14393   6.17445   6.25359
 Alpha virt. eigenvalues --    6.28179   6.30662   6.34583   6.36811   6.38906
 Alpha virt. eigenvalues --    6.45890   6.50667   6.55505   6.58121   6.60436
 Alpha virt. eigenvalues --    6.61563   6.70011   6.73322   6.75985   6.82690
 Alpha virt. eigenvalues --    6.84671   6.89298   6.94367   6.95125   6.96865
 Alpha virt. eigenvalues --    7.01968   7.09257   7.11832   7.12577   7.15556
 Alpha virt. eigenvalues --    7.18754   7.20794   7.23052   7.27274   7.30225
 Alpha virt. eigenvalues --    7.31407   7.34127   7.34990   7.35769   7.44141
 Alpha virt. eigenvalues --    7.48622   7.49606   7.50895   7.53320   7.55239
 Alpha virt. eigenvalues --    7.62710   7.64828   7.67126   7.68652   7.72156
 Alpha virt. eigenvalues --    7.73047   7.75475   7.79895   7.83846   7.87729
 Alpha virt. eigenvalues --    7.88116   7.91062   7.94408   7.97628   7.97844
 Alpha virt. eigenvalues --    7.99751   8.00888   8.04995   8.09516   8.14076
 Alpha virt. eigenvalues --    8.17240   8.22194   8.25673   8.28740   8.32059
 Alpha virt. eigenvalues --    8.35730   8.36817   8.42177   8.43401   8.47809
 Alpha virt. eigenvalues --    8.52181   8.56367   8.58023   8.60163   8.61482
 Alpha virt. eigenvalues --    8.65847   8.70302   8.76158   8.78690   8.81429
 Alpha virt. eigenvalues --    8.81886   8.82486   8.83360   8.85626   8.91458
 Alpha virt. eigenvalues --    8.93210   8.94665   8.96977   8.99077   9.02149
 Alpha virt. eigenvalues --    9.03006   9.05624   9.08478   9.11175   9.16427
 Alpha virt. eigenvalues --    9.17645   9.26060   9.28373   9.29260   9.34423
 Alpha virt. eigenvalues --    9.38750   9.43915   9.46612   9.48864   9.49164
 Alpha virt. eigenvalues --    9.52158   9.64599   9.66818   9.69323   9.69746
 Alpha virt. eigenvalues --    9.73692   9.83300   9.86565   9.87039   9.90294
 Alpha virt. eigenvalues --    9.93333   9.98334  10.04892  10.10503  10.13653
 Alpha virt. eigenvalues --   10.20419  10.22191  10.25709  10.33485  10.34208
 Alpha virt. eigenvalues --   10.39322  10.52810  10.54310  10.63996  10.65636
 Alpha virt. eigenvalues --   10.84811  10.90665  10.91294  10.92435  10.95856
 Alpha virt. eigenvalues --   10.96842  11.04074  11.11661  11.17772  11.21190
 Alpha virt. eigenvalues --   11.28035  11.31178  11.33260  11.33771  11.34984
 Alpha virt. eigenvalues --   11.43985  11.46287  11.54357  11.56821  11.65199
 Alpha virt. eigenvalues --   11.66847  11.72074  11.76133  11.77264  11.80736
 Alpha virt. eigenvalues --   11.86305  11.91759  11.97761  11.98480  12.10148
 Alpha virt. eigenvalues --   12.14568  12.16583  12.27009  12.29974  12.30394
 Alpha virt. eigenvalues --   12.99199  13.02345  13.41524  13.55456  14.16981
 Alpha virt. eigenvalues --   14.20015  14.31879  14.36211  14.48975  14.51288
 Alpha virt. eigenvalues --   14.62972  28.43331  28.55167  37.94027  37.98210
 Alpha virt. eigenvalues --   37.99446  48.27566  48.30888 145.84438 145.98025
 Alpha virt. eigenvalues --  195.51951 195.57179 195.58667 251.38390 251.42218
          Condensed to atoms (all electrons):
               1          2          3          4          5          6
     1  N    6.810781   0.154406  -0.113099  -0.157005   0.488548   0.005888
     2  N    0.154406   6.825652   0.481539  -0.154016  -0.112288  -0.044092
     3  C   -0.113099   0.481539   4.502729   0.416560  -0.257494   0.479079
     4  N   -0.157005  -0.154016   0.416560   6.842988   0.416015  -0.080613
     5  C    0.488548  -0.112288  -0.257494   0.416015   4.539632   0.029856
     6  O    0.005888  -0.044092   0.479079  -0.080613   0.029856   8.025575
     7  O   -0.045245   0.005467   0.030431  -0.074529   0.479603   0.001126
     8  H    0.246529  -0.018714   0.001018   0.003450  -0.011652   0.001075
     9  H   -0.020174   0.246352  -0.001235   0.001279  -0.003761   0.010069
    10  H    0.013746   0.015120  -0.007998   0.181582  -0.009705   0.029986
               7          8          9         10
     1  N   -0.045245   0.246529  -0.020174   0.013746
     2  N    0.005467  -0.018714   0.246352   0.015120
     3  C    0.030431   0.001018  -0.001235  -0.007998
     4  N   -0.074529   0.003450   0.001279   0.181582
     5  C    0.479603  -0.011652  -0.003761  -0.009705
     6  O    0.001126   0.001075   0.010069   0.029986
     7  O    8.018103   0.014748   0.001270   0.028061
     8  H    0.014748   0.370964  -0.003377   0.000183
     9  H    0.001270  -0.003377   0.367550   0.000407
    10  H    0.028061   0.000183   0.000407   0.359238
 Mulliken charges:
               1
     1  N   -0.384376
     2  N   -0.399426
     3  C    0.468471
     4  N   -0.395710
     5  C    0.441245
     6  O   -0.457948
     7  O   -0.459035
     8  H    0.395777
     9  H    0.401621
    10  H    0.389379
 Sum of Mulliken charges =  -0.00000
 Mulliken charges with hydrogens summed into heavy atoms:
               1
     1  N    0.011401
     2  N    0.002196
     3  C    0.468471
     4  N   -0.006331
     5  C    0.441245
     6  O   -0.457948
     7  O   -0.459035
 Electronic spatial extent (au):  <R**2>=            630.7784
 Charge=             -0.0000 electrons
 Dipole moment (field-independent basis, Debye):
    X=              0.0446    Y=              2.8431    Z=              0.0596  Tot=              2.8440
 Quadrupole moment (field-independent basis, Debye-Ang):
   XX=            -57.1080   YY=            -29.0430   ZZ=            -39.6060
   XY=             -0.2275   XZ=              1.9903   YZ=             -0.0729
 Traceless Quadrupole moment (field-independent basis, Debye-Ang):
   XX=            -15.1890   YY=             12.8760   ZZ=              2.3130
   XY=             -0.2275   XZ=              1.9903   YZ=             -0.0729
 Octapole moment (field-independent basis, Debye-Ang**2):
  XXX=              0.2543  YYY=              5.4769  ZZZ=              0.1477  XYY=             -0.0434
  XXY=             19.9261  XXZ=             -0.4667  XZZ=              0.0723  YZZ=             -0.0339
  YYZ=              0.4952  XYZ=              4.4142
 Hexadecapole moment (field-independent basis, Debye-Ang**3):
 XXXX=           -648.4303 YYYY=           -144.5206 ZZZZ=            -38.1584 XXXY=             -1.1221
 XXXZ=              3.2923 YYYX=             -0.7864 YYYZ=             -0.2656 ZZZX=              1.7278
 ZZZY=             -0.0568 XXYY=           -116.3780 XXZZ=            -93.5913 YYZZ=            -41.4687
 XXYZ=              0.1075 YYXZ=              8.2515 ZZXY=             -0.0546
 N-N= 3.025890369033D+02 E-N=-1.525488623839D+03  KE= 3.912063444636D+02
 PrsmSu:  requested number of processors reduced to:  20 ShMem   1 Linda.
 No NMR shielding tensors so no spin-rotation constants.
 Leave Link  601 at Sat Apr 17 12:42:51 2021, MaxMem=   104857600 cpu:             331.0 elap:               7.2
 (Enter /s/ls4/users/knvvv/bin/g16sse/l801.exe)
 DoSCS=F DFT=T ScalE2(SS,OS)=  1.000000  1.000000
 Range of M.O.s used for correlation:     1   546
 NBasis=   546 NAE=    26 NBE=    26 NFC=     0 NFV=     0
 NROrb=    546 NOA=    26 NOB=    26 NVA=   520 NVB=   520

 **** Warning!!: The largest alpha MO coefficient is  0.97912343D+02

 Leave Link  801 at Sat Apr 17 12:42:51 2021, MaxMem=   104857600 cpu:               3.9 elap:               0.1
 (Enter /s/ls4/users/knvvv/bin/g16sse/l914.exe)
 RHF ground state
 Doing stability rather than CIS.
 Two-electron integrals replicated using symmetry.
 MDV=   104857600 DFT=T DoStab=T Mixed=T DoRPA=F DoScal=F NonHer=F
 Making orbital integer symmetry assigments:
 Orbital symmetries:
       Occupied  (A) (A) (A) (A) (A) (A) (A) (A) (A) (A) (A) (A)
                 (A) (A) (A) (A) (A) (A) (A) (A) (A) (A) (A) (A)
                 (A) (A)
       Virtual   (A) (A) (A) (A) (A) (A) (A) (A) (A) (A) (A) (A)
                 (A) (A) (A) (A) (A) (A) (A) (A) (A) (A) (A) (A)
                 (A) (A) (A) (A) (A) (A) (A) (A) (A) (A) (A) (A)
                 (A) (A) (A) (A) (A) (A) (A) (A) (A) (A) (A) (A)
                 (A) (A) (A) (A) (A) (A) (A) (A) (A) (A) (A) (A)
                 (A) (A) (A) (A) (A) (A) (A) (A) (A) (A) (A) (A)
                 (A) (A) (A) (A) (A) (A) (A) (A) (A) (A) (A) (A)
                 (A) (A) (A) (A) (A) (A) (A) (A) (A) (A) (A) (A)
                 (A) (A) (A) (A) (A) (A) (A) (A) (A) (A) (A) (A)
                 (A) (A) (A) (A) (A) (A) (A) (A) (A) (A) (A) (A)
                 (A) (A) (A) (A) (A) (A) (A) (A) (A) (A) (A) (A)
                 (A) (A) (A) (A) (A) (A) (A) (A) (A) (A) (A) (A)
                 (A) (A) (A) (A) (A) (A) (A) (A) (A) (A) (A) (A)
                 (A) (A) (A) (A) (A) (A) (A) (A) (A) (A) (A) (A)
                 (A) (A) (A) (A) (A) (A) (A) (A) (A) (A) (A) (A)
                 (A) (A) (A) (A) (A) (A) (A) (A) (A) (A) (A) (A)
                 (A) (A) (A) (A) (A) (A) (A) (A) (A) (A) (A) (A)
                 (A) (A) (A) (A) (A) (A) (A) (A) (A) (A) (A) (A)
                 (A) (A) (A) (A) (A) (A) (A) (A) (A) (A) (A) (A)
                 (A) (A) (A) (A) (A) (A) (A) (A) (A) (A) (A) (A)
                 (A) (A) (A) (A) (A) (A) (A) (A) (A) (A) (A) (A)
                 (A) (A) (A) (A) (A) (A) (A) (A) (A) (A) (A) (A)
                 (A) (A) (A) (A) (A) (A) (A) (A) (A) (A) (A) (A)
                 (A) (A) (A) (A) (A) (A) (A) (A) (A) (A) (A) (A)
                 (A) (A) (A) (A) (A) (A) (A) (A) (A) (A) (A) (A)
                 (A) (A) (A) (A) (A) (A) (A) (A) (A) (A) (A) (A)
                 (A) (A) (A) (A) (A) (A) (A) (A) (A) (A) (A) (A)
                 (A) (A) (A) (A) (A) (A) (A) (A) (A) (A) (A) (A)
                 (A) (A) (A) (A) (A) (A) (A) (A) (A) (A) (A) (A)
                 (A) (A) (A) (A) (A) (A) (A) (A) (A) (A) (A) (A)
                 (A) (A) (A) (A) (A) (A) (A) (A) (A) (A) (A) (A)
                 (A) (A) (A) (A) (A) (A) (A) (A) (A) (A) (A) (A)
                 (A) (A) (A) (A) (A) (A) (A) (A) (A) (A) (A) (A)
                 (A) (A) (A) (A) (A) (A) (A) (A) (A) (A) (A) (A)
                 (A) (A) (A) (A) (A) (A) (A) (A) (A) (A) (A) (A)
                 (A) (A) (A) (A) (A) (A) (A) (A) (A) (A) (A) (A)
                 (A) (A) (A) (A) (A) (A) (A) (A) (A) (A) (A) (A)
                 (A) (A) (A) (A) (A) (A) (A) (A) (A) (A) (A) (A)
                 (A) (A) (A) (A) (A) (A) (A) (A) (A) (A) (A) (A)
                 (A) (A) (A) (A) (A) (A) (A) (A) (A) (A) (A) (A)
                 (A) (A) (A) (A) (A) (A) (A) (A) (A) (A) (A) (A)
                 (A) (A) (A) (A) (A) (A) (A) (A) (A) (A) (A) (A)
                 (A) (A) (A) (A) (A) (A) (A) (A) (A) (A) (A) (A)
                 (A) (A) (A) (A)
    24 initial guesses have been made.
 Convergence on wavefunction:    0.001000000000000
 Davidson Disk Diagonalization:  ConvIn= 1.00D-03 SkipCon=T Conv= 1.00D-03.
 Max sub-space:  2000 roots to seek:    24 dimension of matrix:        27040
 Iteration     1 Dimension    24 NMult     0 NNew     24
 Estimated number of processors is:   14
 CISAX will form     1 AO SS matrices at one time.
 NMat=     1 NSing=     1 JSym2X= 0.
 FoFJK:  IHMeth= 1 ICntrl=       0 DoSepK=F KAlg= 0 I1Cent=           0 FoldK=F
 IRaf= 950000000 NMat=       1 IRICut=       1 DoRegI=T DoRafI=F ISym2E= 0 IDoP0=0 IntGTp=1.
 FoFCou: FMM=F IPFlag=           0 FMFlag=      100000 FMFlg1=           0
         NFxFlg=           0 DoJE=F BraDBF=F KetDBF=F FulRan=T
         wScrn=  0.000000 ICntrl=         0 IOpCl=  0 I1Cent=           0 NGrid=           0
         NMat0=    1 NMatS0=      1 NMatT0=    0 NMatD0=    1 NMtDS0=    0 NMtDT0=    0
 Symmetry not used in FoFCou.
 CoulSu:  requested number of processors reduced to:  19 ShMem   1 Linda.
 CalDSu:  requested number of processors reduced to:  43 ShMem   1 Linda.
 NMat=     1 NSing=     1 JSym2X= 0.
 CoulSu:  requested number of processors reduced to:  19 ShMem   1 Linda.
 CalDSu:  requested number of processors reduced to:  43 ShMem   1 Linda.
 NMat=     1 NSing=     1 JSym2X= 0.
 CoulSu:  requested number of processors reduced to:  19 ShMem   1 Linda.
 CalDSu:  requested number of processors reduced to:  43 ShMem   1 Linda.
 NMat=     1 NSing=     1 JSym2X= 0.
 CoulSu:  requested number of processors reduced to:  19 ShMem   1 Linda.
 CalDSu:  requested number of processors reduced to:  43 ShMem   1 Linda.
 NMat=     1 NSing=     1 JSym2X= 0.
 CoulSu:  requested number of processors reduced to:  19 ShMem   1 Linda.
 CalDSu:  requested number of processors reduced to:  43 ShMem   1 Linda.
 NMat=     1 NSing=     1 JSym2X= 0.
 CoulSu:  requested number of processors reduced to:  19 ShMem   1 Linda.
 CalDSu:  requested number of processors reduced to:  43 ShMem   1 Linda.
 NMat=     1 NSing=     1 JSym2X= 0.
 CoulSu:  requested number of processors reduced to:  19 ShMem   1 Linda.
 CalDSu:  requested number of processors reduced to:  43 ShMem   1 Linda.
 NMat=     1 NSing=     1 JSym2X= 0.
 CoulSu:  requested number of processors reduced to:  19 ShMem   1 Linda.
 CalDSu:  requested number of processors reduced to:  43 ShMem   1 Linda.
 NMat=     1 NSing=     1 JSym2X= 0.
 CoulSu:  requested number of processors reduced to:  19 ShMem   1 Linda.
 CalDSu:  requested number of processors reduced to:  43 ShMem   1 Linda.
 NMat=     1 NSing=     1 JSym2X= 0.
 CoulSu:  requested number of processors reduced to:  19 ShMem   1 Linda.
 CalDSu:  requested number of processors reduced to:  43 ShMem   1 Linda.
 NMat=     1 NSing=     1 JSym2X= 0.
 CoulSu:  requested number of processors reduced to:  19 ShMem   1 Linda.
 CalDSu:  requested number of processors reduced to:  43 ShMem   1 Linda.
 NMat=     1 NSing=     1 JSym2X= 0.
 CoulSu:  requested number of processors reduced to:  19 ShMem   1 Linda.
 CalDSu:  requested number of processors reduced to:  43 ShMem   1 Linda.
 NMat=     1 NSing=     0 JSym2X= 0.
 CoulSu:  requested number of processors reduced to:  19 ShMem   1 Linda.
 CalDSu:  requested number of processors reduced to:  43 ShMem   1 Linda.
 NMat=     1 NSing=     0 JSym2X= 0.
 CoulSu:  requested number of processors reduced to:  19 ShMem   1 Linda.
 CalDSu:  requested number of processors reduced to:  43 ShMem   1 Linda.
 NMat=     1 NSing=     0 JSym2X= 0.
 CoulSu:  requested number of processors reduced to:  19 ShMem   1 Linda.
 CalDSu:  requested number of processors reduced to:  43 ShMem   1 Linda.
 NMat=     1 NSing=     0 JSym2X= 0.
 CoulSu:  requested number of processors reduced to:  19 ShMem   1 Linda.
 CalDSu:  requested number of processors reduced to:  43 ShMem   1 Linda.
 NMat=     1 NSing=     0 JSym2X= 0.
 CoulSu:  requested number of processors reduced to:  19 ShMem   1 Linda.
 CalDSu:  requested number of processors reduced to:  43 ShMem   1 Linda.
 NMat=     1 NSing=     0 JSym2X= 0.
 CoulSu:  requested number of processors reduced to:  19 ShMem   1 Linda.
 CalDSu:  requested number of processors reduced to:  43 ShMem   1 Linda.
 NMat=     1 NSing=     0 JSym2X= 0.
 CoulSu:  requested number of processors reduced to:  19 ShMem   1 Linda.
 CalDSu:  requested number of processors reduced to:  43 ShMem   1 Linda.
 NMat=     1 NSing=     0 JSym2X= 0.
 CoulSu:  requested number of processors reduced to:  19 ShMem   1 Linda.
 CalDSu:  requested number of processors reduced to:  43 ShMem   1 Linda.
 NMat=     1 NSing=     0 JSym2X= 0.
 CoulSu:  requested number of processors reduced to:  19 ShMem   1 Linda.
 CalDSu:  requested number of processors reduced to:  43 ShMem   1 Linda.
 NMat=     1 NSing=     0 JSym2X= 0.
 CoulSu:  requested number of processors reduced to:  19 ShMem   1 Linda.
 CalDSu:  requested number of processors reduced to:  43 ShMem   1 Linda.
 NMat=     1 NSing=     0 JSym2X= 0.
 CoulSu:  requested number of processors reduced to:  19 ShMem   1 Linda.
 CalDSu:  requested number of processors reduced to:  43 ShMem   1 Linda.
 NMat=     1 NSing=     0 JSym2X= 0.
 CoulSu:  requested number of processors reduced to:  19 ShMem   1 Linda.
 CalDSu:  requested number of processors reduced to:  43 ShMem   1 Linda.
 New state      1 was old state     10
 Excitation Energies [eV] at current iteration:
 Root      1 :     5.501309393541447
 Root      2 :     6.386381189933703
 Root      3 :     6.393492633942654
 Root      4 :     6.974328005478192
 Root      5 :     7.222539892892944
 Root      6 :     7.448068834453843
 Root      7 :     7.458891780923002
 Root      8 :     7.647365647219215
 Root      9 :     7.682140282135459
 Root     10 :     7.807951194825967
 Root     11 :     7.820131349388647
 Root     12 :     7.946348176192988
 Root     13 :     7.976082938361761
 Root     14 :     8.078247950753310
 Root     15 :     8.130762227586304
 Root     16 :     8.162013997729558
 Root     17 :     8.183491936953891
 Root     18 :     8.249878262401918
 Root     19 :     8.398049104415739
 Root     20 :     8.621533797702908
 Root     21 :     8.676275686275698
 Root     22 :     8.711752095323355
 Root     23 :     8.728707462738617
 Root     24 :     9.759897990468758
 Iteration     2 Dimension    48 NMult    24 NNew     24
 Estimated number of processors is:   14
 CISAX will form     1 AO SS matrices at one time.
 NMat=     1 NSing=     1 JSym2X= 0.
 CoulSu:  requested number of processors reduced to:  19 ShMem   1 Linda.
 CalDSu:  requested number of processors reduced to:  43 ShMem   1 Linda.
 NMat=     1 NSing=     1 JSym2X= 0.
 CoulSu:  requested number of processors reduced to:  19 ShMem   1 Linda.
 CalDSu:  requested number of processors reduced to:  43 ShMem   1 Linda.
 NMat=     1 NSing=     1 JSym2X= 0.
 CoulSu:  requested number of processors reduced to:  19 ShMem   1 Linda.
 CalDSu:  requested number of processors reduced to:  43 ShMem   1 Linda.
 NMat=     1 NSing=     1 JSym2X= 0.
 CoulSu:  requested number of processors reduced to:  19 ShMem   1 Linda.
 CalDSu:  requested number of processors reduced to:  43 ShMem   1 Linda.
 NMat=     1 NSing=     1 JSym2X= 0.
 CoulSu:  requested number of processors reduced to:  19 ShMem   1 Linda.
 CalDSu:  requested number of processors reduced to:  43 ShMem   1 Linda.
 NMat=     1 NSing=     1 JSym2X= 0.
 CoulSu:  requested number of processors reduced to:  19 ShMem   1 Linda.
 CalDSu:  requested number of processors reduced to:  43 ShMem   1 Linda.
 NMat=     1 NSing=     1 JSym2X= 0.
 CoulSu:  requested number of processors reduced to:  19 ShMem   1 Linda.
 CalDSu:  requested number of processors reduced to:  43 ShMem   1 Linda.
 NMat=     1 NSing=     1 JSym2X= 0.
 CoulSu:  requested number of processors reduced to:  19 ShMem   1 Linda.
 CalDSu:  requested number of processors reduced to:  43 ShMem   1 Linda.
 NMat=     1 NSing=     1 JSym2X= 0.
 CoulSu:  requested number of processors reduced to:  19 ShMem   1 Linda.
 CalDSu:  requested number of processors reduced to:  43 ShMem   1 Linda.
 NMat=     1 NSing=     1 JSym2X= 0.
 CoulSu:  requested number of processors reduced to:  19 ShMem   1 Linda.
 CalDSu:  requested number of processors reduced to:  43 ShMem   1 Linda.
 NMat=     1 NSing=     1 JSym2X= 0.
 CoulSu:  requested number of processors reduced to:  19 ShMem   1 Linda.
 CalDSu:  requested number of processors reduced to:  43 ShMem   1 Linda.
 NMat=     1 NSing=     1 JSym2X= 0.
 CoulSu:  requested number of processors reduced to:  19 ShMem   1 Linda.
 CalDSu:  requested number of processors reduced to:  43 ShMem   1 Linda.
 NMat=     1 NSing=     0 JSym2X= 0.
 CoulSu:  requested number of processors reduced to:  19 ShMem   1 Linda.
 CalDSu:  requested number of processors reduced to:  43 ShMem   1 Linda.
 NMat=     1 NSing=     0 JSym2X= 0.
 CoulSu:  requested number of processors reduced to:  19 ShMem   1 Linda.
 CalDSu:  requested number of processors reduced to:  43 ShMem   1 Linda.
 NMat=     1 NSing=     0 JSym2X= 0.
 CoulSu:  requested number of processors reduced to:  19 ShMem   1 Linda.
 CalDSu:  requested number of processors reduced to:  43 ShMem   1 Linda.
 NMat=     1 NSing=     0 JSym2X= 0.
 CoulSu:  requested number of processors reduced to:  19 ShMem   1 Linda.
 CalDSu:  requested number of processors reduced to:  43 ShMem   1 Linda.
 NMat=     1 NSing=     0 JSym2X= 0.
 CoulSu:  requested number of processors reduced to:  19 ShMem   1 Linda.
 CalDSu:  requested number of processors reduced to:  43 ShMem   1 Linda.
 NMat=     1 NSing=     0 JSym2X= 0.
 CoulSu:  requested number of processors reduced to:  19 ShMem   1 Linda.
 CalDSu:  requested number of processors reduced to:  43 ShMem   1 Linda.
 NMat=     1 NSing=     0 JSym2X= 0.
 CoulSu:  requested number of processors reduced to:  19 ShMem   1 Linda.
 CalDSu:  requested number of processors reduced to:  43 ShMem   1 Linda.
 NMat=     1 NSing=     0 JSym2X= 0.
 CoulSu:  requested number of processors reduced to:  19 ShMem   1 Linda.
 CalDSu:  requested number of processors reduced to:  43 ShMem   1 Linda.
 NMat=     1 NSing=     0 JSym2X= 0.
 CoulSu:  requested number of processors reduced to:  19 ShMem   1 Linda.
 CalDSu:  requested number of processors reduced to:  43 ShMem   1 Linda.
 NMat=     1 NSing=     0 JSym2X= 0.
 CoulSu:  requested number of processors reduced to:  19 ShMem   1 Linda.
 CalDSu:  requested number of processors reduced to:  43 ShMem   1 Linda.
 NMat=     1 NSing=     0 JSym2X= 0.
 CoulSu:  requested number of processors reduced to:  19 ShMem   1 Linda.
 CalDSu:  requested number of processors reduced to:  43 ShMem   1 Linda.
 NMat=     1 NSing=     0 JSym2X= 0.
 CoulSu:  requested number of processors reduced to:  19 ShMem   1 Linda.
 CalDSu:  requested number of processors reduced to:  43 ShMem   1 Linda.
 Root      1 not converged, maximum delta is    0.203441363759575
 Excitation Energies [eV] at current iteration:
 Root      1 :     4.346372839292068   Change is   -1.154936554249379
 Root      2 :     6.053924460494478   Change is   -0.920403544983714
 Root      3 :     6.089911266231331   Change is   -0.303581367711322
 Root      4 :     6.207058588648866   Change is   -0.179322601284837
 Root      5 :     6.808749617278655   Change is   -1.441128645123264
 Root      6 :     7.011335695136109   Change is   -0.211204197756835
 Root      7 :     7.172622403101530   Change is   -0.635328791724437
 Root      8 :     7.213024608088817   Change is   -0.235044226365026
 Root      9 :     7.257534942266024   Change is   -0.201356838656978
 Root     10 :     7.429747498505537   Change is   -0.217618148713678
 Root     11 :     7.469074174202700   Change is   -0.213066107932759
 Root     12 :     7.492277946140514   Change is   -0.585970004612797
 Root     13 :     7.551251047255620   Change is   -0.395097128937368
 Root     14 :     7.601386754691764   Change is   -0.218744594696883
 Root     15 :     7.689217971839343   Change is   -0.441544255746962
 Root     16 :     7.699638073050536   Change is   -0.276444865311224
 Root     17 :     7.936976768058952   Change is   -0.225037229670605
 Root     18 :     8.019049265231411   Change is   -0.164442671722479
 Root     19 :     8.062172146848035   Change is   -0.335876957567704
 Root     20 :     8.131648939037913   Change is   -1.628249051430846
 Root     21 :     8.272895534132655   Change is   -0.348638263570253
 Root     22 :     8.458131889322827   Change is   -0.253620206000528
 Root     23 :     8.529452997679607   Change is   -0.146822688596091
 Root     24 :     8.667043539160817   Change is   -0.061663923577800
 Iteration     3 Dimension    54 NMult    48 NNew      6
 Estimated number of processors is:   14
 CISAX will form     1 AO SS matrices at one time.
 NMat=     1 NSing=     1 JSym2X= 0.
 CoulSu:  requested number of processors reduced to:  19 ShMem   1 Linda.
 CalDSu:  requested number of processors reduced to:  43 ShMem   1 Linda.
 NMat=     1 NSing=     1 JSym2X= 0.
 CoulSu:  requested number of processors reduced to:  19 ShMem   1 Linda.
 CalDSu:  requested number of processors reduced to:  43 ShMem   1 Linda.
 NMat=     1 NSing=     1 JSym2X= 0.
 CoulSu:  requested number of processors reduced to:  19 ShMem   1 Linda.
 CalDSu:  requested number of processors reduced to:  43 ShMem   1 Linda.
 NMat=     1 NSing=     0 JSym2X= 0.
 CoulSu:  requested number of processors reduced to:  19 ShMem   1 Linda.
 CalDSu:  requested number of processors reduced to:  43 ShMem   1 Linda.
 NMat=     1 NSing=     0 JSym2X= 0.
 CoulSu:  requested number of processors reduced to:  19 ShMem   1 Linda.
 CalDSu:  requested number of processors reduced to:  43 ShMem   1 Linda.
 NMat=     1 NSing=     0 JSym2X= 0.
 CoulSu:  requested number of processors reduced to:  19 ShMem   1 Linda.
 CalDSu:  requested number of processors reduced to:  43 ShMem   1 Linda.
 Root      1 not converged, maximum delta is    0.062418699052568
 Excitation Energies [eV] at current iteration:
 Root      1 :     4.166488375200841   Change is   -0.179884464091227
 Root      2 :     5.175806314756455   Change is   -0.878118145738022
 Root      3 :     6.042310997142802   Change is   -0.047600269088530
 Root      4 :     6.198570726178508   Change is   -0.008487862470358
 Root      5 :     6.960711005546227   Change is   -0.050624689589881
 Root      6 :     7.129113794361168   Change is   -0.083910813727649
 Iteration     4 Dimension    60 NMult    54 NNew      6
 Estimated number of processors is:   14
 CISAX will form     1 AO SS matrices at one time.
 NMat=     1 NSing=     1 JSym2X= 0.
 CoulSu:  requested number of processors reduced to:  19 ShMem   1 Linda.
 CalDSu:  requested number of processors reduced to:  43 ShMem   1 Linda.
 NMat=     1 NSing=     1 JSym2X= 0.
 CoulSu:  requested number of processors reduced to:  19 ShMem   1 Linda.
 CalDSu:  requested number of processors reduced to:  43 ShMem   1 Linda.
 NMat=     1 NSing=     1 JSym2X= 0.
 CoulSu:  requested number of processors reduced to:  19 ShMem   1 Linda.
 CalDSu:  requested number of processors reduced to:  43 ShMem   1 Linda.
 NMat=     1 NSing=     0 JSym2X= 0.
 CoulSu:  requested number of processors reduced to:  19 ShMem   1 Linda.
 CalDSu:  requested number of processors reduced to:  43 ShMem   1 Linda.
 NMat=     1 NSing=     0 JSym2X= 0.
 CoulSu:  requested number of processors reduced to:  19 ShMem   1 Linda.
 CalDSu:  requested number of processors reduced to:  43 ShMem   1 Linda.
 NMat=     1 NSing=     0 JSym2X= 0.
 CoulSu:  requested number of processors reduced to:  19 ShMem   1 Linda.
 CalDSu:  requested number of processors reduced to:  43 ShMem   1 Linda.
 Root      1 not converged, maximum delta is    0.031501440841964
 Excitation Energies [eV] at current iteration:
 Root      1 :     4.127377787291883   Change is   -0.039110587908958
 Root      2 :     4.785498606459765   Change is   -0.390307708296691
 Root      3 :     6.027586241502829   Change is   -0.014724755639974
 Root      4 :     6.197601095581961   Change is   -0.000969630596547
 Root      5 :     6.948323812807350   Change is   -0.012387192738877
 Root      6 :     7.087539770485220   Change is   -0.041574023875948
 Iteration     5 Dimension    66 NMult    60 NNew      6
 Estimated number of processors is:   14
 CISAX will form     1 AO SS matrices at one time.
 NMat=     1 NSing=     1 JSym2X= 0.
 CoulSu:  requested number of processors reduced to:  19 ShMem   1 Linda.
 CalDSu:  requested number of processors reduced to:  43 ShMem   1 Linda.
 NMat=     1 NSing=     1 JSym2X= 0.
 CoulSu:  requested number of processors reduced to:  19 ShMem   1 Linda.
 CalDSu:  requested number of processors reduced to:  43 ShMem   1 Linda.
 NMat=     1 NSing=     1 JSym2X= 0.
 CoulSu:  requested number of processors reduced to:  19 ShMem   1 Linda.
 CalDSu:  requested number of processors reduced to:  43 ShMem   1 Linda.
 NMat=     1 NSing=     0 JSym2X= 0.
 CoulSu:  requested number of processors reduced to:  19 ShMem   1 Linda.
 CalDSu:  requested number of processors reduced to:  43 ShMem   1 Linda.
 NMat=     1 NSing=     0 JSym2X= 0.
 CoulSu:  requested number of processors reduced to:  19 ShMem   1 Linda.
 CalDSu:  requested number of processors reduced to:  43 ShMem   1 Linda.
 NMat=     1 NSing=     0 JSym2X= 0.
 CoulSu:  requested number of processors reduced to:  19 ShMem   1 Linda.
 CalDSu:  requested number of processors reduced to:  43 ShMem   1 Linda.
 Root      1 not converged, maximum delta is    0.004656062904876
 Excitation Energies [eV] at current iteration:
 Root      1 :     4.122540987878822   Change is   -0.004836799413061
 Root      2 :     4.680817203801742   Change is   -0.104681402658023
 Root      3 :     6.011088237668078   Change is   -0.016498003834751
 Root      4 :     6.197396054021477   Change is   -0.000205041560484
 Root      5 :     6.942620109144771   Change is   -0.005703703662579
 Root      6 :     7.063271001264555   Change is   -0.024268769220666
 Iteration     6 Dimension    72 NMult    66 NNew      6
 Estimated number of processors is:   14
 CISAX will form     1 AO SS matrices at one time.
 NMat=     1 NSing=     1 JSym2X= 0.
 CoulSu:  requested number of processors reduced to:  19 ShMem   1 Linda.
 CalDSu:  requested number of processors reduced to:  43 ShMem   1 Linda.
 NMat=     1 NSing=     1 JSym2X= 0.
 CoulSu:  requested number of processors reduced to:  19 ShMem   1 Linda.
 CalDSu:  requested number of processors reduced to:  43 ShMem   1 Linda.
 NMat=     1 NSing=     1 JSym2X= 0.
 CoulSu:  requested number of processors reduced to:  19 ShMem   1 Linda.
 CalDSu:  requested number of processors reduced to:  43 ShMem   1 Linda.
 NMat=     1 NSing=     0 JSym2X= 0.
 CoulSu:  requested number of processors reduced to:  19 ShMem   1 Linda.
 CalDSu:  requested number of processors reduced to:  43 ShMem   1 Linda.
 NMat=     1 NSing=     0 JSym2X= 0.
 CoulSu:  requested number of processors reduced to:  19 ShMem   1 Linda.
 CalDSu:  requested number of processors reduced to:  43 ShMem   1 Linda.
 NMat=     1 NSing=     0 JSym2X= 0.
 CoulSu:  requested number of processors reduced to:  19 ShMem   1 Linda.
 CalDSu:  requested number of processors reduced to:  43 ShMem   1 Linda.
 Root      1 has converged.
 Excitation Energies [eV] at current iteration:
 Root      1 :     4.122272526143103   Change is   -0.000268461735719
 Root      2 :     4.660694333947069   Change is   -0.020122869854673
 Root      3 :     5.898689351191467
 Root      4 :     6.197303396477372   Change is   -0.000092657544104
 Root      5 :     6.882103161384601   Change is   -0.181167839879954
 Root      6 :     6.943049627010288   Change is    0.000429517865517
 Convergence achieved on expansion vectors.
 ***********************************************************************
 Stability analysis using <AA,BB:AA,BB> singles matrix:
 ***********************************************************************
 1PDM for each excited state written to RWF  633
 Ground to excited state transition densities written to RWF  633

 Eigenvectors of the stability matrix:
 
 Eigenvector   1:      Triplet-A    Eigenvalue= 0.1514907  <S**2>=2.000
      24 -> 35         0.21421
      24 -> 36        -0.10827
      26 -> 28        -0.16699
      26 -> 30         0.52776
      26 -> 36        -0.17778
 The wavefunction is stable under the perturbations considered.
 Leave Link  914 at Sat Apr 17 13:39:25 2021, MaxMem=   104857600 cpu:          112647.9 elap:            3394.0
 (Enter /s/ls4/users/knvvv/bin/g16sse/l508.exe)
 The wavefunction is already stable.
 Leave Link  508 at Sat Apr 17 13:39:25 2021, MaxMem=   104857600 cpu:               2.2 elap:               0.1
 (Enter /s/ls4/users/knvvv/bin/g16sse/l601.exe)
 Copying SCF densities to generalized density rwf, IOpCl= 0 IROHF=0.

 **********************************************************************

            Population analysis using the SCF density.

 **********************************************************************

 Orbital symmetries:
       Occupied  (A) (A) (A) (A) (A) (A) (A) (A) (A) (A) (A) (A)
                 (A) (A) (A) (A) (A) (A) (A) (A) (A) (A) (A) (A)
                 (A) (A)
       Virtual   (A) (A) (A) (A) (A) (A) (A) (A) (A) (A) (A) (A)
                 (A) (A) (A) (A) (A) (A) (A) (A) (A) (A) (A) (A)
                 (A) (A) (A) (A) (A) (A) (A) (A) (A) (A) (A) (A)
                 (A) (A) (A) (A) (A) (A) (A) (A) (A) (A) (A) (A)
                 (A) (A) (A) (A) (A) (A) (A) (A) (A) (A) (A) (A)
                 (A) (A) (A) (A) (A) (A) (A) (A) (A) (A) (A) (A)
                 (A) (A) (A) (A) (A) (A) (A) (A) (A) (A) (A) (A)
                 (A) (A) (A) (A) (A) (A) (A) (A) (A) (A) (A) (A)
                 (A) (A) (A) (A) (A) (A) (A) (A) (A) (A) (A) (A)
                 (A) (A) (A) (A) (A) (A) (A) (A) (A) (A) (A) (A)
                 (A) (A) (A) (A) (A) (A) (A) (A) (A) (A) (A) (A)
                 (A) (A) (A) (A) (A) (A) (A) (A) (A) (A) (A) (A)
                 (A) (A) (A) (A) (A) (A) (A) (A) (A) (A) (A) (A)
                 (A) (A) (A) (A) (A) (A) (A) (A) (A) (A) (A) (A)
                 (A) (A) (A) (A) (A) (A) (A) (A) (A) (A) (A) (A)
                 (A) (A) (A) (A) (A) (A) (A) (A) (A) (A) (A) (A)
                 (A) (A) (A) (A) (A) (A) (A) (A) (A) (A) (A) (A)
                 (A) (A) (A) (A) (A) (A) (A) (A) (A) (A) (A) (A)
                 (A) (A) (A) (A) (A) (A) (A) (A) (A) (A) (A) (A)
                 (A) (A) (A) (A) (A) (A) (A) (A) (A) (A) (A) (A)
                 (A) (A) (A) (A) (A) (A) (A) (A) (A) (A) (A) (A)
                 (A) (A) (A) (A) (A) (A) (A) (A) (A) (A) (A) (A)
                 (A) (A) (A) (A) (A) (A) (A) (A) (A) (A) (A) (A)
                 (A) (A) (A) (A) (A) (A) (A) (A) (A) (A) (A) (A)
                 (A) (A) (A) (A) (A) (A) (A) (A) (A) (A) (A) (A)
                 (A) (A) (A) (A) (A) (A) (A) (A) (A) (A) (A) (A)
                 (A) (A) (A) (A) (A) (A) (A) (A) (A) (A) (A) (A)
                 (A) (A) (A) (A) (A) (A) (A) (A) (A) (A) (A) (A)
                 (A) (A) (A) (A) (A) (A) (A) (A) (A) (A) (A) (A)
                 (A) (A) (A) (A) (A) (A) (A) (A) (A) (A) (A) (A)
                 (A) (A) (A) (A) (A) (A) (A) (A) (A) (A) (A) (A)
                 (A) (A) (A) (A) (A) (A) (A) (A) (A) (A) (A) (A)
                 (A) (A) (A) (A) (A) (A) (A) (A) (A) (A) (A) (A)
                 (A) (A) (A) (A) (A) (A) (A) (A) (A) (A) (A) (A)
                 (A) (A) (A) (A) (A) (A) (A) (A) (A) (A) (A) (A)
                 (A) (A) (A) (A) (A) (A) (A) (A) (A) (A) (A) (A)
                 (A) (A) (A) (A) (A) (A) (A) (A) (A) (A) (A) (A)
                 (A) (A) (A) (A) (A) (A) (A) (A) (A) (A) (A) (A)
                 (A) (A) (A) (A) (A) (A) (A) (A) (A) (A) (A) (A)
                 (A) (A) (A) (A) (A) (A) (A) (A) (A) (A) (A) (A)
                 (A) (A) (A) (A) (A) (A) (A) (A) (A) (A) (A) (A)
                 (A) (A) (A) (A) (A) (A) (A) (A) (A) (A) (A) (A)
                 (A) (A) (A) (A) (A) (A) (A) (A) (A) (A) (A) (A)
                 (A) (A) (A) (A)
 The electronic state is 1-A.
 Alpha  occ. eigenvalues --  -19.61796 -19.61528 -14.84755 -14.84720 -14.82393
 Alpha  occ. eigenvalues --  -10.70956 -10.70783  -1.24952  -1.17687  -1.14359
 Alpha  occ. eigenvalues --   -1.05873  -0.96764  -0.78489  -0.74647  -0.67129
 Alpha  occ. eigenvalues --   -0.63990  -0.60681  -0.58375  -0.53999  -0.52705
 Alpha  occ. eigenvalues --   -0.49664  -0.45770  -0.39172  -0.37152  -0.36316
 Alpha  occ. eigenvalues --   -0.32840
 Alpha virt. eigenvalues --   -0.00767   0.01748   0.01881   0.03170   0.03472
 Alpha virt. eigenvalues --    0.04759   0.05413   0.06282   0.07300   0.07326
 Alpha virt. eigenvalues --    0.08029   0.09250   0.09418   0.11429   0.13588
 Alpha virt. eigenvalues --    0.13675   0.13898   0.14244   0.14297   0.16288
 Alpha virt. eigenvalues --    0.17380   0.17884   0.19646   0.20979   0.21053
 Alpha virt. eigenvalues --    0.21328   0.22069   0.23144   0.23562   0.24340
 Alpha virt. eigenvalues --    0.24746   0.25488   0.25648   0.26572   0.27817
 Alpha virt. eigenvalues --    0.28805   0.29555   0.30227   0.31502   0.31828
 Alpha virt. eigenvalues --    0.32053   0.33359   0.33595   0.34954   0.35765
 Alpha virt. eigenvalues --    0.35921   0.36687   0.38155   0.38431   0.39721
 Alpha virt. eigenvalues --    0.40329   0.40739   0.40974   0.42715   0.44053
 Alpha virt. eigenvalues --    0.44766   0.45005   0.46275   0.47003   0.47886
 Alpha virt. eigenvalues --    0.48076   0.48757   0.49576   0.50824   0.51669
 Alpha virt. eigenvalues --    0.52292   0.53949   0.54907   0.55903   0.56078
 Alpha virt. eigenvalues --    0.57978   0.58242   0.59570   0.60030   0.60263
 Alpha virt. eigenvalues --    0.60319   0.61363   0.63953   0.64585   0.64835
 Alpha virt. eigenvalues --    0.66320   0.66737   0.67204   0.68268   0.68716
 Alpha virt. eigenvalues --    0.70043   0.72175   0.72890   0.74082   0.75314
 Alpha virt. eigenvalues --    0.77593   0.78163   0.79146   0.80390   0.81529
 Alpha virt. eigenvalues --    0.83680   0.85009   0.87956   0.88390   0.90610
 Alpha virt. eigenvalues --    0.90876   0.91839   0.92966   0.96021   0.96947
 Alpha virt. eigenvalues --    0.99267   0.99978   1.01712   1.02541   1.05130
 Alpha virt. eigenvalues --    1.06487   1.07987   1.09863   1.11529   1.12526
 Alpha virt. eigenvalues --    1.14640   1.15438   1.17072   1.17748   1.19206
 Alpha virt. eigenvalues --    1.19949   1.23172   1.25621   1.25979   1.27471
 Alpha virt. eigenvalues --    1.29768   1.30292   1.33925   1.34380   1.37534
 Alpha virt. eigenvalues --    1.38673   1.40269   1.41622   1.44618   1.46825
 Alpha virt. eigenvalues --    1.50179   1.52429   1.53282   1.54387   1.55374
 Alpha virt. eigenvalues --    1.57039   1.58825   1.59826   1.63093   1.63848
 Alpha virt. eigenvalues --    1.66016   1.67392   1.69036   1.69264   1.70057
 Alpha virt. eigenvalues --    1.71855   1.72781   1.74233   1.77126   1.77794
 Alpha virt. eigenvalues --    1.80064   1.82085   1.89762   1.92191   1.92853
 Alpha virt. eigenvalues --    1.94641   1.95950   1.98271   1.99616   2.02255
 Alpha virt. eigenvalues --    2.04480   2.05074   2.06901   2.09883   2.11489
 Alpha virt. eigenvalues --    2.14079   2.16035   2.17665   2.20522   2.23051
 Alpha virt. eigenvalues --    2.23620   2.26340   2.28425   2.29395   2.30078
 Alpha virt. eigenvalues --    2.33143   2.36565   2.39877   2.43226   2.44213
 Alpha virt. eigenvalues --    2.45599   2.46747   2.47950   2.51189   2.52859
 Alpha virt. eigenvalues --    2.54965   2.55698   2.58961   2.60621   2.62105
 Alpha virt. eigenvalues --    2.65356   2.66283   2.70745   2.71487   2.72492
 Alpha virt. eigenvalues --    2.73878   2.75130   2.75911   2.78213   2.79018
 Alpha virt. eigenvalues --    2.82715   2.85502   2.86566   2.87400   2.90144
 Alpha virt. eigenvalues --    2.93881   2.96302   2.98398   2.98831   3.02109
 Alpha virt. eigenvalues --    3.03920   3.07131   3.07827   3.09823   3.10288
 Alpha virt. eigenvalues --    3.13322   3.14838   3.18540   3.19207   3.20490
 Alpha virt. eigenvalues --    3.21601   3.22829   3.25155   3.32236   3.35372
 Alpha virt. eigenvalues --    3.38249   3.39965   3.41315   3.43857   3.45893
 Alpha virt. eigenvalues --    3.46756   3.47944   3.50596   3.53734   3.58477
 Alpha virt. eigenvalues --    3.62443   3.63278   3.65194   3.69517   3.71077
 Alpha virt. eigenvalues --    3.73531   3.75891   3.79582   3.83238   3.87195
 Alpha virt. eigenvalues --    3.89077   3.90175   3.91894   3.95897   3.98208
 Alpha virt. eigenvalues --    4.01039   4.03050   4.04045   4.11456   4.13523
 Alpha virt. eigenvalues --    4.14123   4.17608   4.18255   4.20815   4.21105
 Alpha virt. eigenvalues --    4.25732   4.26629   4.30173   4.32808   4.34599
 Alpha virt. eigenvalues --    4.36761   4.40204   4.43437   4.45604   4.47710
 Alpha virt. eigenvalues --    4.48155   4.51348   4.56806   4.60147   4.64701
 Alpha virt. eigenvalues --    4.70527   4.73208   4.75499   4.80992   4.88906
 Alpha virt. eigenvalues --    4.92532   4.97971   5.02826   5.08144   5.08943
 Alpha virt. eigenvalues --    5.09496   5.14703   5.20906   5.26935   5.28385
 Alpha virt. eigenvalues --    5.29184   5.30543   5.34864   5.36144   5.38129
 Alpha virt. eigenvalues --    5.44077   5.45774   5.49086   5.52216   5.58161
 Alpha virt. eigenvalues --    5.59410   5.65048   5.65977   5.67742   5.68303
 Alpha virt. eigenvalues --    5.73935   5.77390   5.80207   5.80396   5.86894
 Alpha virt. eigenvalues --    5.89534   5.93184   5.96932   5.98390   5.99950
 Alpha virt. eigenvalues --    6.02696   6.03111   6.04529   6.09314   6.11486
 Alpha virt. eigenvalues --    6.12494   6.13555   6.14393   6.17445   6.25359
 Alpha virt. eigenvalues --    6.28179   6.30662   6.34583   6.36811   6.38906
 Alpha virt. eigenvalues --    6.45890   6.50667   6.55505   6.58121   6.60436
 Alpha virt. eigenvalues --    6.61563   6.70011   6.73322   6.75985   6.82690
 Alpha virt. eigenvalues --    6.84671   6.89298   6.94367   6.95125   6.96865
 Alpha virt. eigenvalues --    7.01968   7.09257   7.11832   7.12577   7.15556
 Alpha virt. eigenvalues --    7.18754   7.20794   7.23052   7.27274   7.30225
 Alpha virt. eigenvalues --    7.31407   7.34127   7.34990   7.35769   7.44141
 Alpha virt. eigenvalues --    7.48622   7.49606   7.50895   7.53320   7.55239
 Alpha virt. eigenvalues --    7.62710   7.64828   7.67126   7.68652   7.72156
 Alpha virt. eigenvalues --    7.73047   7.75475   7.79895   7.83846   7.87729
 Alpha virt. eigenvalues --    7.88116   7.91062   7.94408   7.97628   7.97844
 Alpha virt. eigenvalues --    7.99751   8.00888   8.04995   8.09516   8.14076
 Alpha virt. eigenvalues --    8.17240   8.22194   8.25673   8.28740   8.32059
 Alpha virt. eigenvalues --    8.35730   8.36817   8.42177   8.43401   8.47809
 Alpha virt. eigenvalues --    8.52181   8.56367   8.58023   8.60163   8.61482
 Alpha virt. eigenvalues --    8.65847   8.70302   8.76158   8.78690   8.81429
 Alpha virt. eigenvalues --    8.81886   8.82486   8.83360   8.85626   8.91458
 Alpha virt. eigenvalues --    8.93210   8.94665   8.96977   8.99077   9.02149
 Alpha virt. eigenvalues --    9.03006   9.05624   9.08478   9.11175   9.16427
 Alpha virt. eigenvalues --    9.17645   9.26060   9.28373   9.29260   9.34423
 Alpha virt. eigenvalues --    9.38750   9.43915   9.46612   9.48864   9.49164
 Alpha virt. eigenvalues --    9.52158   9.64599   9.66818   9.69323   9.69746
 Alpha virt. eigenvalues --    9.73692   9.83300   9.86565   9.87039   9.90294
 Alpha virt. eigenvalues --    9.93333   9.98334  10.04892  10.10503  10.13653
 Alpha virt. eigenvalues --   10.20419  10.22191  10.25709  10.33485  10.34208
 Alpha virt. eigenvalues --   10.39322  10.52810  10.54310  10.63996  10.65636
 Alpha virt. eigenvalues --   10.84811  10.90665  10.91294  10.92435  10.95856
 Alpha virt. eigenvalues --   10.96842  11.04074  11.11661  11.17772  11.21190
 Alpha virt. eigenvalues --   11.28035  11.31178  11.33260  11.33771  11.34984
 Alpha virt. eigenvalues --   11.43985  11.46287  11.54357  11.56821  11.65199
 Alpha virt. eigenvalues --   11.66847  11.72074  11.76133  11.77264  11.80736
 Alpha virt. eigenvalues --   11.86305  11.91759  11.97761  11.98480  12.10148
 Alpha virt. eigenvalues --   12.14568  12.16583  12.27009  12.29974  12.30394
 Alpha virt. eigenvalues --   12.99199  13.02345  13.41524  13.55456  14.16981
 Alpha virt. eigenvalues --   14.20015  14.31879  14.36211  14.48975  14.51288
 Alpha virt. eigenvalues --   14.62972  28.43331  28.55167  37.94027  37.98210
 Alpha virt. eigenvalues --   37.99446  48.27566  48.30888 145.84438 145.98025
 Alpha virt. eigenvalues --  195.51951 195.57179 195.58667 251.38390 251.42218
          Condensed to atoms (all electrons):
               1          2          3          4          5          6
     1  N    6.810781   0.154406  -0.113099  -0.157005   0.488548   0.005888
     2  N    0.154406   6.825652   0.481539  -0.154016  -0.112288  -0.044092
     3  C   -0.113099   0.481539   4.502729   0.416560  -0.257494   0.479079
     4  N   -0.157005  -0.154016   0.416560   6.842988   0.416015  -0.080613
     5  C    0.488548  -0.112288  -0.257494   0.416015   4.539632   0.029856
     6  O    0.005888  -0.044092   0.479079  -0.080613   0.029856   8.025575
     7  O   -0.045245   0.005467   0.030431  -0.074529   0.479603   0.001126
     8  H    0.246529  -0.018714   0.001018   0.003450  -0.011652   0.001075
     9  H   -0.020174   0.246352  -0.001235   0.001279  -0.003761   0.010069
    10  H    0.013746   0.015120  -0.007998   0.181582  -0.009705   0.029986
               7          8          9         10
     1  N   -0.045245   0.246529  -0.020174   0.013746
     2  N    0.005467  -0.018714   0.246352   0.015120
     3  C    0.030431   0.001018  -0.001235  -0.007998
     4  N   -0.074529   0.003450   0.001279   0.181582
     5  C    0.479603  -0.011652  -0.003761  -0.009705
     6  O    0.001126   0.001075   0.010069   0.029986
     7  O    8.018103   0.014748   0.001270   0.028061
     8  H    0.014748   0.370964  -0.003377   0.000183
     9  H    0.001270  -0.003377   0.367550   0.000407
    10  H    0.028061   0.000183   0.000407   0.359238
 Mulliken charges:
               1
     1  N   -0.384376
     2  N   -0.399426
     3  C    0.468471
     4  N   -0.395710
     5  C    0.441245
     6  O   -0.457948
     7  O   -0.459035
     8  H    0.395777
     9  H    0.401621
    10  H    0.389379
 Sum of Mulliken charges =  -0.00000
 Mulliken charges with hydrogens summed into heavy atoms:
               1
     1  N    0.011401
     2  N    0.002196
     3  C    0.468471
     4  N   -0.006331
     5  C    0.441245
     6  O   -0.457948
     7  O   -0.459035
 Electronic spatial extent (au):  <R**2>=            630.7784
 Charge=             -0.0000 electrons
 Dipole moment (field-independent basis, Debye):
    X=              0.0446    Y=              2.8431    Z=              0.0596  Tot=              2.8440
 Quadrupole moment (field-independent basis, Debye-Ang):
   XX=            -57.1080   YY=            -29.0430   ZZ=            -39.6060
   XY=             -0.2275   XZ=              1.9903   YZ=             -0.0729
 Traceless Quadrupole moment (field-independent basis, Debye-Ang):
   XX=            -15.1890   YY=             12.8760   ZZ=              2.3130
   XY=             -0.2275   XZ=              1.9903   YZ=             -0.0729
 Octapole moment (field-independent basis, Debye-Ang**2):
  XXX=              0.2543  YYY=              5.4769  ZZZ=              0.1477  XYY=             -0.0434
  XXY=             19.9261  XXZ=             -0.4667  XZZ=              0.0723  YZZ=             -0.0339
  YYZ=              0.4952  XYZ=              4.4142
 Hexadecapole moment (field-independent basis, Debye-Ang**3):
 XXXX=           -648.4303 YYYY=           -144.5206 ZZZZ=            -38.1584 XXXY=             -1.1221
 XXXZ=              3.2923 YYYX=             -0.7864 YYYZ=             -0.2656 ZZZX=              1.7278
 ZZZY=             -0.0568 XXYY=           -116.3780 XXZZ=            -93.5913 YYZZ=            -41.4687
 XXYZ=              0.1075 YYXZ=              8.2515 ZZXY=             -0.0546
 N-N= 3.025890369033D+02 E-N=-1.525488623839D+03  KE= 3.912063444636D+02
 PrsmSu:  requested number of processors reduced to:  20 ShMem   1 Linda.
 No NMR shielding tensors so no spin-rotation constants.
 Leave Link  601 at Sat Apr 17 13:39:34 2021, MaxMem=   104857600 cpu:             390.3 elap:               8.5
 (Enter /s/ls4/users/knvvv/bin/g16sse/l9999.exe)

 Test job not archived.
 1\1\GINC-N146\Stability\RM062X\Gen\C2H3N3O2\KNVVV\17-Apr-2021\0\\#P M0
 62X/GEN Integral=UltraFineGrid SCF=NoSymm Stable=(RExt, Opt) IOp(1/33=
 1)\\Database calculations.\\0,1\N,0,-0.050072,2.63415,3.305578\N,0,-0.
 508443,1.631479,4.178684\C,0,-0.094523,1.94988,5.442343\N,0,0.428735,3
 .222814,5.356588\C,0,0.451861,3.654419,4.047148\O,0,-0.182753,1.27341,
 6.462645\O,0,0.852126,4.747272,3.641043\H,0,-0.602367,2.840582,2.46379
 6\H,0,-0.455705,0.667432,3.850119\H,0,0.845509,3.735184,6.149304\\Vers
 ion=ES64L-G16RevA.03\State=1-A\HF=-392.7717278\RMSD=2.154e-09\Dipole=-
 0.3793761,-0.6090689,-0.8585488\Quadrupole=1.4496382,-2.827377,1.37773
 88,-1.6852316,4.8778101,8.98068\PG=C01 [X(C2H3N3O2)]\\@


 NATURE WILL TELL YOU A DIRECT LIE IF SHE CAN.

                                -- CHARLES DARWIN
 Job cpu time:       1 days 10 hours 54 minutes 59.8 seconds.
 Elapsed time:       0 days  1 hours  3 minutes 48.2 seconds.
 File lengths (MBytes):  RWF=    664 Int=      0 D2E=      0 Chk=     36 Scr=      1
 Normal termination of Gaussian 16 at Sat Apr 17 13:39:34 2021.
