 Entering Gaussian System, Link 0=/s/ls4/users/knvvv/bin/g16sse/g16
 Input=data/database/M062X--cc-pVTZ-DK--06_Ru+_es_4dAEE5.gjf
 Output=data/database/M062X--cc-pVTZ-DK--06_Ru+_es_4dAEE5.log
 Initial command:
 /s/ls4/users/knvvv/bin/g16sse/l1.exe "/s/ls4/users/knvvv/bin/scratch/Gau-45147.inp" -scrdir="/s/ls4/users/knvvv/bin/scratch/"
 Entering Link 1 = /s/ls4/users/knvvv/bin/g16sse/l1.exe PID=     45148.
  
 Copyright (c) 1988,1990,1992,1993,1995,1998,2003,2009,2016,
            Gaussian, Inc.  All Rights Reserved.
  
 This is part of the Gaussian(R) 16 program.  It is based on
 the Gaussian(R) 09 system (copyright 2009, Gaussian, Inc.),
 the Gaussian(R) 03 system (copyright 2003, Gaussian, Inc.),
 the Gaussian(R) 98 system (copyright 1998, Gaussian, Inc.),
 the Gaussian(R) 94 system (copyright 1995, Gaussian, Inc.),
 the Gaussian 92(TM) system (copyright 1992, Gaussian, Inc.),
 the Gaussian 90(TM) system (copyright 1990, Gaussian, Inc.),
 the Gaussian 88(TM) system (copyright 1988, Gaussian, Inc.),
 the Gaussian 86(TM) system (copyright 1986, Carnegie Mellon
 University), and the Gaussian 82(TM) system (copyright 1983,
 Carnegie Mellon University). Gaussian is a federally registered
 trademark of Gaussian, Inc.
  
 This software contains proprietary and confidential information,
 including trade secrets, belonging to Gaussian, Inc.
  
 This software is provided under written license and may be
 used, copied, transmitted, or stored only in accord with that
 written license.
  
 The following legend is applicable only to US Government
 contracts under FAR:
  
                    RESTRICTED RIGHTS LEGEND
  
 Use, reproduction and disclosure by the US Government is
 subject to restrictions as set forth in subparagraphs (a)
 and (c) of the Commercial Computer Software - Restricted
 Rights clause in FAR 52.227-19.
  
 Gaussian, Inc.
 340 Quinnipiac St., Bldg. 40, Wallingford CT 06492
  
  
 ---------------------------------------------------------------
 Warning -- This program may not be used in any manner that
 competes with the business of Gaussian, Inc. or will provide
 assistance to any competitor of Gaussian, Inc.  The licensee
 of this program is prohibited from giving any competitor of
 Gaussian, Inc. access to this program.  By using this program,
 the user acknowledges that Gaussian, Inc. is engaged in the
 business of creating and licensing software in the field of
 computational chemistry and represents and warrants to the
 licensee that it is not a competitor of Gaussian, Inc. and that
 it will not use this program in any manner prohibited above.
 ---------------------------------------------------------------
  

 Cite this work as:
 Gaussian 16, Revision A.03,
 M. J. Frisch, G. W. Trucks, H. B. Schlegel, G. E. Scuseria, 
 M. A. Robb, J. R. Cheeseman, G. Scalmani, V. Barone, 
 G. A. Petersson, H. Nakatsuji, X. Li, M. Caricato, A. V. Marenich, 
 J. Bloino, B. G. Janesko, R. Gomperts, B. Mennucci, H. P. Hratchian, 
 J. V. Ortiz, A. F. Izmaylov, J. L. Sonnenberg, D. Williams-Young, 
 F. Ding, F. Lipparini, F. Egidi, J. Goings, B. Peng, A. Petrone, 
 T. Henderson, D. Ranasinghe, V. G. Zakrzewski, J. Gao, N. Rega, 
 G. Zheng, W. Liang, M. Hada, M. Ehara, K. Toyota, R. Fukuda, 
 J. Hasegawa, M. Ishida, T. Nakajima, Y. Honda, O. Kitao, H. Nakai, 
 T. Vreven, K. Throssell, J. A. Montgomery, Jr., J. E. Peralta, 
 F. Ogliaro, M. J. Bearpark, J. J. Heyd, E. N. Brothers, K. N. Kudin, 
 V. N. Staroverov, T. A. Keith, R. Kobayashi, J. Normand, 
 K. Raghavachari, A. P. Rendell, J. C. Burant, S. S. Iyengar, 
 J. Tomasi, M. Cossi, J. M. Millam, M. Klene, C. Adamo, R. Cammi, 
 J. W. Ochterski, R. L. Martin, K. Morokuma, O. Farkas, 
 J. B. Foresman, and D. J. Fox, Gaussian, Inc., Wallingford CT, 2016.
 
 ******************************************
 Gaussian 16:  ES64L-G16RevA.03 25-Dec-2016
                16-Apr-2021 
 ******************************************
 %RWF=temp10_87546,70GB
 %nprocshared=48
 Will use up to   48 processors via shared memory.
 Default route: MaxDisk=80GB
 ----------------------------------------------------------------------
 #P M062X/GEN Integral=UltraFineGrid SCF=NoSymm Stable=(RExt, Opt) IOp(
 1/33=1)
 ----------------------------------------------------------------------
 1/33=1,38=1,172=1/1;
 2/12=2,17=6,18=5,40=1/2;
 3/5=7,11=2,25=1,30=1,74=-55,75=-5/1,2,3;
 4/9=2/1;
 5/5=2,38=5/2;
 6/7=2,8=2,9=2,10=2,28=1/1;
 8/6=1,10=90,11=11/1;
 9/8=-3,42=1,46=1/14;
 5/5=2,8=3,17=40,38=5/8(-2);
 6/7=2,8=2,9=2,10=2,28=1/1;
 99/5=1,9=1/99;
 Leave Link    1 at Fri Apr 16 22:51:07 2021, MaxMem=           0 cpu:              10.8 elap:               0.2
 (Enter /s/ls4/users/knvvv/bin/g16sse/l101.exe)
 ONIOM data not found on unit 2.
 ----------------------
 Database calculations.
 ----------------------
 TstMul:  ICh=     1
 TstMul:  Mul=     6
 TstMul:  ICh=     1
 TstMul:  Mul=     6
 Symbolic Z-matrix:
 Charge =  1 Multiplicity = 6
 Ru                    0.        0.        0. 
 
 RdStrC is calling ZToCFu for IStruc=1 NZ=     1.
 PrtBox:  NBox=     1 Levels=  0 BoxLen=    8.00 SMaxX=        0.00
          Shift=            0.000000            0.000000            0.000000
 Box      1 Number                   0 centers from      1 to      1:
 After GenITR:
 ITRead=  0
 MicOpt= -1
 ITRead=  0
 MicOpt= -1
 NAtoms=      1 NQM=        1 NQMF=       0 NMMI=      0 NMMIF=      0
                NMic=       0 NMicF=      0.
                    Isotopes and Nuclear Properties:
 (Nuclear quadrupole moments (NQMom) in fm**2, nuclear magnetic moments (NMagM)
  in nuclear magnetons)

  Atom         1
 IAtWgt=         102
 AtmWgt= 101.9037000
 NucSpn=           0
 AtZEff=  -0.0000000
 NQMom=    0.0000000
 NMagM=    0.0000000
 AtZNuc=  44.0000000
 No MM parameters found.
 Leave Link  101 at Fri Apr 16 22:51:07 2021, MaxMem=   104857600 cpu:               8.3 elap:               0.2
 (Enter /s/ls4/users/knvvv/bin/g16sse/l202.exe)
                          Input orientation:                          
 ---------------------------------------------------------------------
 Center     Atomic      Atomic             Coordinates (Angstroms)
 Number     Number       Type             X           Y           Z
 ---------------------------------------------------------------------
      1         44           0        0.000000    0.000000    0.000000
 ---------------------------------------------------------------------
 Stoichiometry    Ru(1+,6)
 Framework group  OH[O(Ru)]
 Deg. of freedom     0
 Full point group                 OH      NOp  48
 Largest Abelian subgroup         D2H     NOp   8
 Largest concise Abelian subgroup C1      NOp   1
                         Standard orientation:                         
 ---------------------------------------------------------------------
 Center     Atomic      Atomic             Coordinates (Angstroms)
 Number     Number       Type             X           Y           Z
 ---------------------------------------------------------------------
      1         44           0        0.000000    0.000000    0.000000
 ---------------------------------------------------------------------
 Leave Link  202 at Fri Apr 16 22:51:08 2021, MaxMem=   104857600 cpu:              29.9 elap:               0.7
 (Enter /s/ls4/users/knvvv/bin/g16sse/l301.exe)
 General basis read from cards:  (5D, 7F)
 Centers:       1
 S 25 1.00
     Exponent=  1.9270800000D+08 Coefficients=  4.3000000000D-05
     Exponent=  3.0168800000D+07 Coefficients=  1.1400000000D-04
     Exponent=  6.3390700000D+06 Coefficients=  3.1300000000D-04
     Exponent=  1.6689400000D+06 Coefficients=  7.1000000000D-04
     Exponent=  5.2045500000D+05 Coefficients=  1.5130000000D-03
     Exponent=  1.8380000000D+05 Coefficients=  3.0630000000D-03
     Exponent=  7.0986500000D+04 Coefficients=  6.1410000000D-03
     Exponent=  2.9211000000D+04 Coefficients=  1.2376000000D-02
     Exponent=  1.2572000000D+04 Coefficients=  2.5427000000D-02
     Exponent=  5.5903500000D+03 Coefficients=  5.2784000000D-02
     Exponent=  2.5499300000D+03 Coefficients=  1.0718800000D-01
     Exponent=  1.1890600000D+03 Coefficients=  1.9716800000D-01
     Exponent=  5.6638400000D+02 Coefficients=  2.8753700000D-01
     Exponent=  2.7571400000D+02 Coefficients=  2.6336600000D-01
     Exponent=  1.3724200000D+02 Coefficients=  1.1266400000D-01
     Exponent=  6.9809600000D+01 Coefficients=  5.5188000000D-02
     Exponent=  3.6175100000D+01 Coefficients=  7.3522000000D-02
     Exponent=  1.8968600000D+01 Coefficients=  3.4576000000D-02
     Exponent=  9.9474900000D+00 Coefficients=  1.1321000000D-02
     Exponent=  5.1249000000D+00 Coefficients=  1.0233000000D-02
     Exponent=  2.5290800000D+00 Coefficients=  2.5890000000D-03
     Exponent=  1.2282400000D+00 Coefficients= -5.5000000000D-05
     Exponent=  5.5766600000D-01 Coefficients=  1.9000000000D-05
     Exponent=  1.4121900000D-01 Coefficients= -1.1000000000D-05
     Exponent=  6.7797000000D-02 Coefficients=  7.0000000000D-06
 S 25 1.00
     Exponent=  1.9270800000D+08 Coefficients= -2.2000000000D-05
     Exponent=  3.0168800000D+07 Coefficients= -5.7000000000D-05
     Exponent=  6.3390700000D+06 Coefficients= -1.5600000000D-04
     Exponent=  1.6689400000D+06 Coefficients= -3.5500000000D-04
     Exponent=  5.2045500000D+05 Coefficients= -7.5800000000D-04
     Exponent=  1.8380000000D+05 Coefficients= -1.5390000000D-03
     Exponent=  7.0986500000D+04 Coefficients= -3.0990000000D-03
     Exponent=  2.9211000000D+04 Coefficients= -6.2850000000D-03
     Exponent=  1.2572000000D+04 Coefficients= -1.3061000000D-02
     Exponent=  5.5903500000D+03 Coefficients= -2.7633000000D-02
     Exponent=  2.5499300000D+03 Coefficients= -5.8225000000D-02
     Exponent=  1.1890600000D+03 Coefficients= -1.1492600000D-01
     Exponent=  5.6638400000D+02 Coefficients= -1.9350600000D-01
     Exponent=  2.7571400000D+02 Coefficients= -2.2602400000D-01
     Exponent=  1.3724200000D+02 Coefficients= -7.5190000000D-02
     Exponent=  6.9809600000D+01 Coefficients=  3.0721900000D-01
     Exponent=  3.6175100000D+01 Coefficients=  5.2831300000D-01
     Exponent=  1.8968600000D+01 Coefficients=  2.5872700000D-01
     Exponent=  9.9474900000D+00 Coefficients=  4.7955000000D-02
     Exponent=  5.1249000000D+00 Coefficients=  2.5136000000D-02
     Exponent=  2.5290800000D+00 Coefficients=  5.7370000000D-03
     Exponent=  1.2282400000D+00 Coefficients= -1.6600000000D-04
     Exponent=  5.5766600000D-01 Coefficients= -4.0000000000D-05
     Exponent=  1.4121900000D-01 Coefficients= -1.7000000000D-05
     Exponent=  6.7797000000D-02 Coefficients=  9.0000000000D-06
 S 25 1.00
     Exponent=  1.9270800000D+08 Coefficients=  7.0000000000D-06
     Exponent=  3.0168800000D+07 Coefficients=  1.8000000000D-05
     Exponent=  6.3390700000D+06 Coefficients=  4.8000000000D-05
     Exponent=  1.6689400000D+06 Coefficients=  1.1000000000D-04
     Exponent=  5.2045500000D+05 Coefficients=  2.3400000000D-04
     Exponent=  1.8380000000D+05 Coefficients=  4.7600000000D-04
     Exponent=  7.0986500000D+04 Coefficients=  9.6200000000D-04
     Exponent=  2.9211000000D+04 Coefficients=  1.9580000000D-03
     Exponent=  1.2572000000D+04 Coefficients=  4.1060000000D-03
     Exponent=  5.5903500000D+03 Coefficients=  8.7800000000D-03
     Exponent=  2.5499300000D+03 Coefficients=  1.8983000000D-02
     Exponent=  1.1890600000D+03 Coefficients=  3.8978000000D-02
     Exponent=  5.6638400000D+02 Coefficients=  7.1221000000D-02
     Exponent=  2.7571400000D+02 Coefficients=  9.2547000000D-02
     Exponent=  1.3724200000D+02 Coefficients=  3.0635000000D-02
     Exponent=  6.9809600000D+01 Coefficients= -2.2073800000D-01
     Exponent=  3.6175100000D+01 Coefficients= -5.0594100000D-01
     Exponent=  1.8968600000D+01 Coefficients= -2.9861100000D-01
     Exponent=  9.9474900000D+00 Coefficients=  4.4929400000D-01
     Exponent=  5.1249000000D+00 Coefficients=  7.3958900000D-01
     Exponent=  2.5290800000D+00 Coefficients=  1.8260200000D-01
     Exponent=  1.2282400000D+00 Coefficients=  3.4490000000D-03
     Exponent=  5.5766600000D-01 Coefficients=  2.9330000000D-03
     Exponent=  1.4121900000D-01 Coefficients= -2.3800000000D-04
     Exponent=  6.7797000000D-02 Coefficients=  2.0200000000D-04
 S 25 1.00
     Exponent=  1.9270800000D+08 Coefficients= -3.0000000000D-06
     Exponent=  3.0168800000D+07 Coefficients= -7.0000000000D-06
     Exponent=  6.3390700000D+06 Coefficients= -1.9000000000D-05
     Exponent=  1.6689400000D+06 Coefficients= -4.4000000000D-05
     Exponent=  5.2045500000D+05 Coefficients= -9.4000000000D-05
     Exponent=  1.8380000000D+05 Coefficients= -1.9100000000D-04
     Exponent=  7.0986500000D+04 Coefficients= -3.8500000000D-04
     Exponent=  2.9211000000D+04 Coefficients= -7.8300000000D-04
     Exponent=  1.2572000000D+04 Coefficients= -1.6400000000D-03
     Exponent=  5.5903500000D+03 Coefficients= -3.5080000000D-03
     Exponent=  2.5499300000D+03 Coefficients= -7.5650000000D-03
     Exponent=  1.1890600000D+03 Coefficients= -1.5534000000D-02
     Exponent=  5.6638400000D+02 Coefficients= -2.8256000000D-02
     Exponent=  2.7571400000D+02 Coefficients= -3.6927000000D-02
     Exponent=  1.3724200000D+02 Coefficients= -1.2177000000D-02
     Exponent=  6.9809600000D+01 Coefficients=  9.1845000000D-02
     Exponent=  3.6175100000D+01 Coefficients=  2.3022300000D-01
     Exponent=  1.8968600000D+01 Coefficients=  1.3963900000D-01
     Exponent=  9.9474900000D+00 Coefficients= -2.6419300000D-01
     Exponent=  5.1249000000D+00 Coefficients= -7.3963200000D-01
     Exponent=  2.5290800000D+00 Coefficients= -1.0409000000D-01
     Exponent=  1.2282400000D+00 Coefficients=  8.1856600000D-01
     Exponent=  5.5766600000D-01 Coefficients=  5.2107500000D-01
     Exponent=  1.4121900000D-01 Coefficients=  3.4706000000D-02
     Exponent=  6.7797000000D-02 Coefficients= -1.1930000000D-02
 S 25 1.00
     Exponent=  1.9270800000D+08 Coefficients=  1.0000000000D-06
     Exponent=  3.0168800000D+07 Coefficients=  2.0000000000D-06
     Exponent=  6.3390700000D+06 Coefficients=  5.0000000000D-06
     Exponent=  1.6689400000D+06 Coefficients=  1.2000000000D-05
     Exponent=  5.2045500000D+05 Coefficients=  2.5000000000D-05
     Exponent=  1.8380000000D+05 Coefficients=  5.0000000000D-05
     Exponent=  7.0986500000D+04 Coefficients=  1.0100000000D-04
     Exponent=  2.9211000000D+04 Coefficients=  2.0700000000D-04
     Exponent=  1.2572000000D+04 Coefficients=  4.3200000000D-04
     Exponent=  5.5903500000D+03 Coefficients=  9.2500000000D-04
     Exponent=  2.5499300000D+03 Coefficients=  1.9940000000D-03
     Exponent=  1.1890600000D+03 Coefficients=  4.0990000000D-03
     Exponent=  5.6638400000D+02 Coefficients=  7.4550000000D-03
     Exponent=  2.7571400000D+02 Coefficients=  9.7680000000D-03
     Exponent=  1.3724200000D+02 Coefficients=  3.2110000000D-03
     Exponent=  6.9809600000D+01 Coefficients= -2.4499000000D-02
     Exponent=  3.6175100000D+01 Coefficients= -6.2145000000D-02
     Exponent=  1.8968600000D+01 Coefficients= -3.8023000000D-02
     Exponent=  9.9474900000D+00 Coefficients=  7.4258000000D-02
     Exponent=  5.1249000000D+00 Coefficients=  2.2718800000D-01
     Exponent=  2.5290800000D+00 Coefficients=  2.3251000000D-02
     Exponent=  1.2282400000D+00 Coefficients= -3.3137000000D-01
     Exponent=  5.5766600000D-01 Coefficients= -3.3316800000D-01
     Exponent=  1.4121900000D-01 Coefficients=  2.7618900000D-01
     Exponent=  6.7797000000D-02 Coefficients=  6.2177200000D-01
 S 25 1.00
     Exponent=  1.9270800000D+08 Coefficients=  1.0000000000D-06
     Exponent=  3.0168800000D+07 Coefficients=  4.0000000000D-06
     Exponent=  6.3390700000D+06 Coefficients=  1.0000000000D-05
     Exponent=  1.6689400000D+06 Coefficients=  2.4000000000D-05
     Exponent=  5.2045500000D+05 Coefficients=  5.1000000000D-05
     Exponent=  1.8380000000D+05 Coefficients=  1.0200000000D-04
     Exponent=  7.0986500000D+04 Coefficients=  2.0900000000D-04
     Exponent=  2.9211000000D+04 Coefficients=  4.1300000000D-04
     Exponent=  1.2572000000D+04 Coefficients=  9.0300000000D-04
     Exponent=  5.5903500000D+03 Coefficients=  1.8220000000D-03
     Exponent=  2.5499300000D+03 Coefficients=  4.2320000000D-03
     Exponent=  1.1890600000D+03 Coefficients=  7.9160000000D-03
     Exponent=  5.6638400000D+02 Coefficients=  1.6324000000D-02
     Exponent=  2.7571400000D+02 Coefficients=  1.7137000000D-02
     Exponent=  1.3724200000D+02 Coefficients=  1.3387000000D-02
     Exponent=  6.9809600000D+01 Coefficients= -6.6185000000D-02
     Exponent=  3.6175100000D+01 Coefficients= -9.4292000000D-02
     Exponent=  1.8968600000D+01 Coefficients= -1.4766700000D-01
     Exponent=  9.9474900000D+00 Coefficients=  2.8968100000D-01
     Exponent=  5.1249000000D+00 Coefficients=  2.7572900000D-01
     Exponent=  2.5290800000D+00 Coefficients=  4.4518300000D-01
     Exponent=  1.2282400000D+00 Coefficients= -1.7607630000D+00
     Exponent=  5.5766600000D-01 Coefficients=  5.5542400000D-01
     Exponent=  1.4121900000D-01 Coefficients=  2.0537870000D+00
     Exponent=  6.7797000000D-02 Coefficients= -1.3630430000D+00
 S 25 1.00
     Exponent=  1.9270800000D+08 Coefficients=  2.0000000000D-06
     Exponent=  3.0168800000D+07 Coefficients=  5.0000000000D-06
     Exponent=  6.3390700000D+06 Coefficients=  1.5000000000D-05
     Exponent=  1.6689400000D+06 Coefficients=  3.4000000000D-05
     Exponent=  5.2045500000D+05 Coefficients=  7.2000000000D-05
     Exponent=  1.8380000000D+05 Coefficients=  1.4700000000D-04
     Exponent=  7.0986500000D+04 Coefficients=  2.9900000000D-04
     Exponent=  2.9211000000D+04 Coefficients=  5.9900000000D-04
     Exponent=  1.2572000000D+04 Coefficients=  1.2830000000D-03
     Exponent=  5.5903500000D+03 Coefficients=  2.6640000000D-03
     Exponent=  2.5499300000D+03 Coefficients=  5.9650000000D-03
     Exponent=  1.1890600000D+03 Coefficients=  1.1705000000D-02
     Exponent=  5.6638400000D+02 Coefficients=  2.2695000000D-02
     Exponent=  2.7571400000D+02 Coefficients=  2.6780000000D-02
     Exponent=  1.3724200000D+02 Coefficients=  1.4322000000D-02
     Exponent=  6.9809600000D+01 Coefficients= -8.4570000000D-02
     Exponent=  3.6175100000D+01 Coefficients= -1.6926200000D-01
     Exponent=  1.8968600000D+01 Coefficients= -1.5466100000D-01
     Exponent=  9.9474900000D+00 Coefficients=  3.4094100000D-01
     Exponent=  5.1249000000D+00 Coefficients=  6.7676800000D-01
     Exponent=  2.5290800000D+00 Coefficients=  2.5553800000D-01
     Exponent=  1.2282400000D+00 Coefficients= -3.5119980000D+00
     Exponent=  5.5766600000D-01 Coefficients=  3.7906500000D+00
     Exponent=  1.4121900000D-01 Coefficients= -1.5455260000D+00
     Exponent=  6.7797000000D-02 Coefficients= -6.5543900000D-01
 S 1 1.00
     Exponent=  2.9950000000D-02 Coefficients=  1.0000000000D+00
 P 20 1.00
     Exponent=  1.4520000000D+06 Coefficients=  1.6000000000D-05
     Exponent=  2.4244000000D+05 Coefficients=  5.5000000000D-05
     Exponent=  5.4514600000D+04 Coefficients=  2.0700000000D-04
     Exponent=  1.5468700000D+04 Coefficients=  7.3700000000D-04
     Exponent=  5.2483500000D+03 Coefficients=  2.5880000000D-03
     Exponent=  2.0376900000D+03 Coefficients=  8.7400000000D-03
     Exponent=  8.7406800000D+02 Coefficients=  2.7233000000D-02
     Exponent=  4.0300300000D+02 Coefficients=  7.5229000000D-02
     Exponent=  1.9557100000D+02 Coefficients=  1.7240100000D-01
     Exponent=  9.8339400000D+01 Coefficients=  3.0264500000D-01
     Exponent=  5.0649000000D+01 Coefficients=  3.5165000000D-01
     Exponent=  2.6493200000D+01 Coefficients=  2.0784400000D-01
     Exponent=  1.3980300000D+01 Coefficients=  4.1711000000D-02
     Exponent=  7.3979000000D+00 Coefficients= -6.4740000000D-03
     Exponent=  3.9002600000D+00 Coefficients= -5.4520000000D-03
     Exponent=  2.0320700000D+00 Coefficients= -7.6300000000D-04
     Exponent=  1.0086100000D+00 Coefficients=  2.4000000000D-05
     Exponent=  4.8195500000D-01 Coefficients=  8.7000000000D-05
     Exponent=  1.8504000000D-01 Coefficients= -1.0000000000D-06
     Exponent=  7.6242000000D-02 Coefficients=  3.0000000000D-06
 P 20 1.00
     Exponent=  1.4520000000D+06 Coefficients= -7.0000000000D-06
     Exponent=  2.4244000000D+05 Coefficients= -2.3000000000D-05
     Exponent=  5.4514600000D+04 Coefficients= -8.7000000000D-05
     Exponent=  1.5468700000D+04 Coefficients= -3.1100000000D-04
     Exponent=  5.2483500000D+03 Coefficients= -1.0960000000D-03
     Exponent=  2.0376900000D+03 Coefficients= -3.7280000000D-03
     Exponent=  8.7406800000D+02 Coefficients= -1.1768000000D-02
     Exponent=  4.0300300000D+02 Coefficients= -3.3329000000D-02
     Exponent=  1.9557100000D+02 Coefficients= -7.9517000000D-02
     Exponent=  9.8339400000D+01 Coefficients= -1.4746800000D-01
     Exponent=  5.0649000000D+01 Coefficients= -1.7625200000D-01
     Exponent=  2.6493200000D+01 Coefficients= -1.9699000000D-02
     Exponent=  1.3980300000D+01 Coefficients=  3.0331900000D-01
     Exponent=  7.3979000000D+00 Coefficients=  4.9809400000D-01
     Exponent=  3.9002600000D+00 Coefficients=  2.8159300000D-01
     Exponent=  2.0320700000D+00 Coefficients=  4.0423000000D-02
     Exponent=  1.0086100000D+00 Coefficients= -3.9500000000D-04
     Exponent=  4.8195500000D-01 Coefficients= -2.2270000000D-03
     Exponent=  1.8504000000D-01 Coefficients= -5.3000000000D-05
     Exponent=  7.6242000000D-02 Coefficients= -7.2000000000D-05
 P 20 1.00
     Exponent=  1.4520000000D+06 Coefficients=  3.0000000000D-06
     Exponent=  2.4244000000D+05 Coefficients=  9.0000000000D-06
     Exponent=  5.4514600000D+04 Coefficients=  3.4000000000D-05
     Exponent=  1.5468700000D+04 Coefficients=  1.2100000000D-04
     Exponent=  5.2483500000D+03 Coefficients=  4.2500000000D-04
     Exponent=  2.0376900000D+03 Coefficients=  1.4470000000D-03
     Exponent=  8.7406800000D+02 Coefficients=  4.5760000000D-03
     Exponent=  4.0300300000D+02 Coefficients=  1.2994000000D-02
     Exponent=  1.9557100000D+02 Coefficients=  3.1191000000D-02
     Exponent=  9.8339400000D+01 Coefficients=  5.8260000000D-02
     Exponent=  5.0649000000D+01 Coefficients=  7.0104000000D-02
     Exponent=  2.6493200000D+01 Coefficients= -3.6400000000D-04
     Exponent=  1.3980300000D+01 Coefficients= -1.5196700000D-01
     Exponent=  7.3979000000D+00 Coefficients= -2.8399300000D-01
     Exponent=  3.9002600000D+00 Coefficients= -1.3290900000D-01
     Exponent=  2.0320700000D+00 Coefficients=  3.3704200000D-01
     Exponent=  1.0086100000D+00 Coefficients=  5.3864100000D-01
     Exponent=  4.8195500000D-01 Coefficients=  2.9945800000D-01
     Exponent=  1.8504000000D-01 Coefficients=  4.0939000000D-02
     Exponent=  7.6242000000D-02 Coefficients= -3.1450000000D-03
 P 20 1.00
     Exponent=  1.4520000000D+06 Coefficients= -1.0000000000D-06
     Exponent=  2.4244000000D+05 Coefficients= -2.0000000000D-06
     Exponent=  5.4514600000D+04 Coefficients= -9.0000000000D-06
     Exponent=  1.5468700000D+04 Coefficients= -3.1000000000D-05
     Exponent=  5.2483500000D+03 Coefficients= -1.0900000000D-04
     Exponent=  2.0376900000D+03 Coefficients= -3.7100000000D-04
     Exponent=  8.7406800000D+02 Coefficients= -1.1790000000D-03
     Exponent=  4.0300300000D+02 Coefficients= -3.3370000000D-03
     Exponent=  1.9557100000D+02 Coefficients= -8.0470000000D-03
     Exponent=  9.8339400000D+01 Coefficients= -1.4974000000D-02
     Exponent=  5.0649000000D+01 Coefficients= -1.8195000000D-02
     Exponent=  2.6493200000D+01 Coefficients=  6.2400000000D-04
     Exponent=  1.3980300000D+01 Coefficients=  3.9940000000D-02
     Exponent=  7.3979000000D+00 Coefficients=  7.7864000000D-02
     Exponent=  3.9002600000D+00 Coefficients=  3.2127000000D-02
     Exponent=  2.0320700000D+00 Coefficients= -1.0725600000D-01
     Exponent=  1.0086100000D+00 Coefficients= -2.0392900000D-01
     Exponent=  4.8195500000D-01 Coefficients= -8.3274000000D-02
     Exponent=  1.8504000000D-01 Coefficients=  3.0003200000D-01
     Exponent=  7.6242000000D-02 Coefficients=  5.7367400000D-01
 P 20 1.00
     Exponent=  1.4520000000D+06 Coefficients= -1.0000000000D-06
     Exponent=  2.4244000000D+05 Coefficients= -4.0000000000D-06
     Exponent=  5.4514600000D+04 Coefficients= -1.6000000000D-05
     Exponent=  1.5468700000D+04 Coefficients= -5.6000000000D-05
     Exponent=  5.2483500000D+03 Coefficients= -1.9900000000D-04
     Exponent=  2.0376900000D+03 Coefficients= -6.6900000000D-04
     Exponent=  8.7406800000D+02 Coefficients= -2.1410000000D-03
     Exponent=  4.0300300000D+02 Coefficients= -6.0000000000D-03
     Exponent=  1.9557100000D+02 Coefficients= -1.4649000000D-02
     Exponent=  9.8339400000D+01 Coefficients= -2.6834000000D-02
     Exponent=  5.0649000000D+01 Coefficients= -3.3555000000D-02
     Exponent=  2.6493200000D+01 Coefficients=  2.6000000000D-03
     Exponent=  1.3980300000D+01 Coefficients=  6.9941000000D-02
     Exponent=  7.3979000000D+00 Coefficients=  1.4735200000D-01
     Exponent=  3.9002600000D+00 Coefficients=  5.0738000000D-02
     Exponent=  2.0320700000D+00 Coefficients= -1.9325500000D-01
     Exponent=  1.0086100000D+00 Coefficients= -4.4912100000D-01
     Exponent=  4.8195500000D-01 Coefficients=  5.7943000000D-02
     Exponent=  1.8504000000D-01 Coefficients=  7.1290200000D-01
     Exponent=  7.6242000000D-02 Coefficients=  3.5858300000D-01
 P 20 1.00
     Exponent=  1.4520000000D+06 Coefficients= -2.0000000000D-06
     Exponent=  2.4244000000D+05 Coefficients= -6.0000000000D-06
     Exponent=  5.4514600000D+04 Coefficients= -2.4000000000D-05
     Exponent=  1.5468700000D+04 Coefficients= -8.6000000000D-05
     Exponent=  5.2483500000D+03 Coefficients= -3.1000000000D-04
     Exponent=  2.0376900000D+03 Coefficients= -1.0280000000D-03
     Exponent=  8.7406800000D+02 Coefficients= -3.3530000000D-03
     Exponent=  4.0300300000D+02 Coefficients= -9.2050000000D-03
     Exponent=  1.9557100000D+02 Coefficients= -2.3036000000D-02
     Exponent=  9.8339400000D+01 Coefficients= -4.0939000000D-02
     Exponent=  5.0649000000D+01 Coefficients= -5.4262000000D-02
     Exponent=  2.6493200000D+01 Coefficients=  9.0420000000D-03
     Exponent=  1.3980300000D+01 Coefficients=  1.0613600000D-01
     Exponent=  7.3979000000D+00 Coefficients=  2.5032600000D-01
     Exponent=  3.9002600000D+00 Coefficients=  7.1279000000D-02
     Exponent=  2.0320700000D+00 Coefficients= -4.2983900000D-01
     Exponent=  1.0086100000D+00 Coefficients= -9.5022700000D-01
     Exponent=  4.8195500000D-01 Coefficients=  1.4174230000D+00
     Exponent=  1.8504000000D-01 Coefficients=  3.2559500000D-01
     Exponent=  7.6242000000D-02 Coefficients= -1.0012110000D+00
 P 1 1.00
     Exponent=  3.0654000000D-02 Coefficients=  1.0000000000D+00
 D 13 1.00
     Exponent=  2.5423500000D+03 Coefficients=  1.5500000000D-04
     Exponent=  7.4300800000D+02 Coefficients=  1.2990000000D-03
     Exponent=  2.7695200000D+02 Coefficients=  7.7890000000D-03
     Exponent=  1.1966900000D+02 Coefficients=  3.1919000000D-02
     Exponent=  5.6344800000D+01 Coefficients=  9.6772000000D-02
     Exponent=  2.7856800000D+01 Coefficients=  2.1476300000D-01
     Exponent=  1.4159100000D+01 Coefficients=  3.2811100000D-01
     Exponent=  7.2956800000D+00 Coefficients=  3.3753000000D-01
     Exponent=  3.7509000000D+00 Coefficients=  1.8933400000D-01
     Exponent=  1.8552600000D+00 Coefficients=  4.1793000000D-02
     Exponent=  8.8205900000D-01 Coefficients=  2.1340000000D-03
     Exponent=  4.0062200000D-01 Coefficients=  5.0900000000D-04
     Exponent=  1.7133100000D-01 Coefficients=  1.7000000000D-05
 D 13 1.00
     Exponent=  2.5423500000D+03 Coefficients= -4.5000000000D-05
     Exponent=  7.4300800000D+02 Coefficients= -3.7500000000D-04
     Exponent=  2.7695200000D+02 Coefficients= -2.2530000000D-03
     Exponent=  1.1966900000D+02 Coefficients= -9.3050000000D-03
     Exponent=  5.6344800000D+01 Coefficients= -2.8464000000D-02
     Exponent=  2.7856800000D+01 Coefficients= -6.3860000000D-02
     Exponent=  1.4159100000D+01 Coefficients= -9.4166000000D-02
     Exponent=  7.2956800000D+00 Coefficients= -8.7808000000D-02
     Exponent=  3.7509000000D+00 Coefficients=  2.7267000000D-02
     Exponent=  1.8552600000D+00 Coefficients=  2.4113600000D-01
     Exponent=  8.8205900000D-01 Coefficients=  3.7601500000D-01
     Exponent=  4.0062200000D-01 Coefficients=  3.4791900000D-01
     Exponent=  1.7133100000D-01 Coefficients=  2.0772400000D-01
 D 13 1.00
     Exponent=  2.5423500000D+03 Coefficients=  4.4000000000D-05
     Exponent=  7.4300800000D+02 Coefficients=  3.6800000000D-04
     Exponent=  2.7695200000D+02 Coefficients=  2.2170000000D-03
     Exponent=  1.1966900000D+02 Coefficients=  9.1350000000D-03
     Exponent=  5.6344800000D+01 Coefficients=  2.8138000000D-02
     Exponent=  2.7856800000D+01 Coefficients=  6.3096000000D-02
     Exponent=  1.4159100000D+01 Coefficients=  9.2046000000D-02
     Exponent=  7.2956800000D+00 Coefficients=  7.7982000000D-02
     Exponent=  3.7509000000D+00 Coefficients= -4.1517000000D-02
     Exponent=  1.8552600000D+00 Coefficients= -3.0244600000D-01
     Exponent=  8.8205900000D-01 Coefficients= -3.9084600000D-01
     Exponent=  4.0062200000D-01 Coefficients=  8.9314000000D-02
     Exponent=  1.7133100000D-01 Coefficients=  5.6648900000D-01
 D 13 1.00
     Exponent=  2.5423500000D+03 Coefficients= -6.8000000000D-05
     Exponent=  7.4300800000D+02 Coefficients= -5.6000000000D-04
     Exponent=  2.7695200000D+02 Coefficients= -3.4280000000D-03
     Exponent=  1.1966900000D+02 Coefficients= -1.3995000000D-02
     Exponent=  5.6344800000D+01 Coefficients= -4.3926000000D-02
     Exponent=  2.7856800000D+01 Coefficients= -9.7602000000D-02
     Exponent=  1.4159100000D+01 Coefficients= -1.3828300000D-01
     Exponent=  7.2956800000D+00 Coefficients= -9.1001000000D-02
     Exponent=  3.7509000000D+00 Coefficients=  1.2251500000D-01
     Exponent=  1.8552600000D+00 Coefficients=  6.4967600000D-01
     Exponent=  8.8205900000D-01 Coefficients=  3.0089000000D-02
     Exponent=  4.0062200000D-01 Coefficients= -9.1564500000D-01
     Exponent=  1.7133100000D-01 Coefficients=  7.8068000000D-02
 D 1 1.00
     Exponent=  6.6865000000D-02 Coefficients=  1.0000000000D+00
 F 1 1.00
     Exponent=  1.5074000000D+00 Coefficients=  1.0000000000D+00
 F 1 1.00
     Exponent=  4.3860000000D-01 Coefficients=  1.0000000000D+00
 G 1 1.00
     Exponent=  1.0050000000D+00 Coefficients=  1.0000000000D+00
 ****
 Ernie: Thresh=  0.10000D-02 Tol=  0.10000D-05 Strict=F.
 Ernie:  141 primitive shells out of 353 were deleted.
 There are    29 symmetry adapted cartesian basis functions of AG  symmetry.
 There are     8 symmetry adapted cartesian basis functions of B1G symmetry.
 There are     8 symmetry adapted cartesian basis functions of B2G symmetry.
 There are     8 symmetry adapted cartesian basis functions of B3G symmetry.
 There are     2 symmetry adapted cartesian basis functions of AU  symmetry.
 There are    13 symmetry adapted cartesian basis functions of B1U symmetry.
 There are    13 symmetry adapted cartesian basis functions of B2U symmetry.
 There are    13 symmetry adapted cartesian basis functions of B3U symmetry.
 There are    21 symmetry adapted basis functions of AG  symmetry.
 There are     7 symmetry adapted basis functions of B1G symmetry.
 There are     7 symmetry adapted basis functions of B2G symmetry.
 There are     7 symmetry adapted basis functions of B3G symmetry.
 There are     2 symmetry adapted basis functions of AU  symmetry.
 There are    11 symmetry adapted basis functions of B1U symmetry.
 There are    11 symmetry adapted basis functions of B2U symmetry.
 There are    11 symmetry adapted basis functions of B3U symmetry.
    77 basis functions,   578 primitive gaussians,    94 cartesian basis functions
    24 alpha electrons       19 beta electrons
       nuclear repulsion energy         0.0000000000 Hartrees.
 IExCor= 4336 DFT=T Ex+Corr=M062X ExCW=0 ScaHFX=  0.540000
 ScaDFX=  1.000000  1.000000  1.000000  1.000000 ScalE2=  1.000000  1.000000
 IRadAn=      5 IRanWt=     -1 IRanGd=            0 ICorTp=0 IEmpDi=  4
 NAtoms=    1 NActive=    1 NUniq=    1 SFac= 1.00D+00 NAtFMM=   60 NAOKFM=F Big=F
 Integral buffers will be    131072 words long.
 Raffenetti 2 integral format.
 Two-electron integral symmetry is turned on.
 Leave Link  301 at Fri Apr 16 22:51:08 2021, MaxMem=   104857600 cpu:              17.8 elap:               0.4
 (Enter /s/ls4/users/knvvv/bin/g16sse/l302.exe)
 NPDir=0 NMtPBC=     1 NCelOv=     1 NCel=       1 NClECP=     1 NCelD=      1
         NCelK=      1 NCelE2=     1 NClLst=     1 CellRange=     0.0.
 One-electron integrals computed using PRISM.
 One-electron integral symmetry used in STVInt
 PrsmSu:  requested number of processors reduced to:   1 ShMem   1 Linda.
 PrsmSu:  requested number of processors reduced to:   8 ShMem   1 Linda.
 NBasis=    77 RedAO= T EigKep=  1.20D-02  NBF=    21     7     7     7     2    11    11    11
 NBsUse=    77 1.00D-06 EigRej= -1.00D+00 NBFU=    21     7     7     7     2    11    11    11
 Precomputing XC quadrature grid using
 IXCGrd= 4 IRadAn=           5 IRanWt=          -1 IRanGd=           0 AccXCQ= 0.00D+00.
 Defaulting to unpruned grid for atomic number  44.
 Generated NRdTot=       0 NPtTot=           0 NUsed=           0 NTot=          32
 NSgBfM=    94    94    94    94    94 MxSgAt=     1 MxSgA2=     1.
 Leave Link  302 at Fri Apr 16 22:51:22 2021, MaxMem=   104857600 cpu:             667.0 elap:              14.3
 (Enter /s/ls4/users/knvvv/bin/g16sse/l303.exe)
 DipDrv:  MaxL=1.
 Leave Link  303 at Fri Apr 16 22:51:23 2021, MaxMem=   104857600 cpu:              22.2 elap:               0.5
 (Enter /s/ls4/users/knvvv/bin/g16sse/l401.exe)
 SCF N**3 symmetry information disabled.
 ExpMin= 3.00D-02 ExpMax= 1.93D+08 ExpMxC= 2.92D+04 IAcc=3 IRadAn=         5 AccDes= 0.00D+00
 Harris functional with IExCor= 1009 and IRadAn=       5 diagonalized for initial guess.
 HarFok:  IExCor= 1009 AccDes= 0.00D+00 IRadAn=         5 IDoV= 1 UseB2=F ITyADJ=14
 ICtDFT=  3500011 ScaDFX=  1.000000  1.000000  1.000000  1.000000
 Defaulting to unpruned grid for atomic number  44.
 FoFCou: FMM=F IPFlag=           0 FMFlag=      100000 FMFlg1=           0
         NFxFlg=           0 DoJE=T BraDBF=F KetDBF=T FulRan=T
         wScrn=  0.000000 ICntrl=       500 IOpCl=  0 I1Cent=   200000004 NGrid=           0
         NMat0=    1 NMatS0=      1 NMatT0=    0 NMatD0=    1 NMtDS0=    0 NMtDT0=    0
 Petite list used in FoFCou.
 CoulSu:  requested number of processors reduced to:   8 ShMem   1 Linda.
 CoulSu:  requested number of processors reduced to:   7 ShMem   1 Linda.
 CoulSu:  requested number of processors reduced to:   8 ShMem   1 Linda.
 CoulSu:  requested number of processors reduced to:   8 ShMem   1 Linda.
 DSYEVD-2 returned Info=         120 IAlg= 4 N=    77 NDim=    77 NE2=     1361525 trying  DSYEV.
 Harris En= -4360.78854331671    
 JPrj=0 DoOrth=F DoCkMO=F.
 Initial guess orbital symmetries:
 Alpha Orbitals:
       Occupied  (A1G) (A1G) (T1U) (T1U) (T1U) (A1G) (T1U) (T1U)
                 (T1U) (T2G) (T2G) (T2G) (EG) (EG) (A1G) (T1U)
                 (T1U) (T1U) (T2G) (T2G) (T2G) (EG) (EG) (A1G)
       Virtual   (T1U) (T1U) (T1U) (A1G) (T1U) (T1U) (T1U) (T2G)
                 (T2G) (T2G) (EG) (EG) (A1G) (T1U) (T1U) (T1U)
                 (T2G) (T2G) (T2G) (EG) (EG) (T2U) (T2U) (T2U)
                 (A2U) (T1U) (T1U) (T1U) (T1U) (T1U) (T1U) (T2G)
                 (T2G) (T2G) (EG) (EG) (A1G) (T2U) (T2U) (T2U)
                 (A2U) (T1U) (T1U) (T1U) (T1G) (T1G) (T1G) (T2G)
                 (T2G) (T2G) (EG) (EG) (A1G)
 Beta  Orbitals:
       Occupied  (A1G) (A1G) (T1U) (T1U) (T1U) (A1G) (T1U) (T1U)
                 (T1U) (T2G) (T2G) (T2G) (EG) (EG) (A1G) (T1U)
                 (T1U) (T1U) (T2G)
       Virtual   (T2G) (T2G) (EG) (EG) (A1G) (T1U) (T1U) (T1U)
                 (A1G) (T1U) (T1U) (T1U) (T2G) (T2G) (T2G) (EG)
                 (EG) (A1G) (T1U) (T1U) (T1U) (T2G) (T2G) (T2G)
                 (EG) (EG) (T2U) (T2U) (T2U) (A2U) (T1U) (T1U)
                 (T1U) (T1U) (T1U) (T1U) (T2G) (T2G) (T2G) (EG)
                 (EG) (A1G) (T2U) (T2U) (T2U) (A2U) (T1U) (T1U)
                 (T1U) (T1G) (T1G) (T1G) (T2G) (T2G) (T2G) (EG)
                 (EG) (A1G)
 Initial guess <Sx>= 0.0000 <Sy>= 0.0000 <Sz>= 2.5000 <S**2>= 8.7500 S= 2.5000
 Leave Link  401 at Fri Apr 16 22:51:34 2021, MaxMem=   104857600 cpu:             532.8 elap:              11.6
 (Enter /s/ls4/users/knvvv/bin/g16sse/l502.exe)
 Integral symmetry usage will be decided dynamically.
 UHF open shell SCF:
 Using DIIS extrapolation, IDIIS=  1040.
 NGot=   104857600 LenX=   104832277 LenY=   104823000
 Requested convergence on RMS density matrix=1.00D-08 within 128 cycles.
 Requested convergence on MAX density matrix=1.00D-06.
 Requested convergence on             energy=1.00D-06.
 No special actions if energy rises.
 Fock matrices will be formed incrementally for  20 cycles.

 Cycle   1  Pass 1  IDiag  1:
 Density matrix breaks symmetry, PCut= 1.00D-04
 Density matrix has no symmetry -- integrals replicated.
 FoFJK:  IHMeth= 1 ICntrl=       0 DoSepK=F KAlg= 0 I1Cent=           0 FoldK=F
 IRaf= 990000000 NMat=       1 IRICut=       1 DoRegI=T DoRafI=F ISym2E= 2 IDoP0=0 IntGTp=1.
 FoFCou: FMM=F IPFlag=           0 FMFlag=      100000 FMFlg1=           0
         NFxFlg=           0 DoJE=F BraDBF=F KetDBF=F FulRan=T
         wScrn=  0.000000 ICntrl=         0 IOpCl=  1 I1Cent=           0 NGrid=           0
         NMat0=    1 NMatS0=      1 NMatT0=    0 NMatD0=    1 NMtDS0=    0 NMtDT0=    0
 Integrals replicated using symmetry in FoFCou.
 CoulSu:  requested number of processors reduced to:   7 ShMem   1 Linda.
 Defaulting to unpruned grid for atomic number  44.
 Defaulting to unpruned grid for atomic number  44.
 Defaulting to unpruned grid for atomic number  44.
 Defaulting to unpruned grid for atomic number  44.
 Defaulting to unpruned grid for atomic number  44.
 Defaulting to unpruned grid for atomic number  44.
 Defaulting to unpruned grid for atomic number  44.
 Defaulting to unpruned grid for atomic number  44.
 Defaulting to unpruned grid for atomic number  44.
 Defaulting to unpruned grid for atomic number  44.
 Defaulting to unpruned grid for atomic number  44.
 Defaulting to unpruned grid for atomic number  44.
 Defaulting to unpruned grid for atomic number  44.
 Defaulting to unpruned grid for atomic number  44.
 Defaulting to unpruned grid for atomic number  44.
 Defaulting to unpruned grid for atomic number  44.
 Defaulting to unpruned grid for atomic number  44.
 Defaulting to unpruned grid for atomic number  44.
 Defaulting to unpruned grid for atomic number  44.
 Defaulting to unpruned grid for atomic number  44.
 Defaulting to unpruned grid for atomic number  44.
 Defaulting to unpruned grid for atomic number  44.
 Defaulting to unpruned grid for atomic number  44.
 Defaulting to unpruned grid for atomic number  44.
 Defaulting to unpruned grid for atomic number  44.
 Defaulting to unpruned grid for atomic number  44.
 Defaulting to unpruned grid for atomic number  44.
 Defaulting to unpruned grid for atomic number  44.
 Defaulting to unpruned grid for atomic number  44.
 Defaulting to unpruned grid for atomic number  44.
 Defaulting to unpruned grid for atomic number  44.
 Defaulting to unpruned grid for atomic number  44.
 Defaulting to unpruned grid for atomic number  44.
 Defaulting to unpruned grid for atomic number  44.
 Defaulting to unpruned grid for atomic number  44.
 Defaulting to unpruned grid for atomic number  44.
 Defaulting to unpruned grid for atomic number  44.
 Defaulting to unpruned grid for atomic number  44.
 Defaulting to unpruned grid for atomic number  44.
 Defaulting to unpruned grid for atomic number  44.
 Defaulting to unpruned grid for atomic number  44.
 Defaulting to unpruned grid for atomic number  44.
 Defaulting to unpruned grid for atomic number  44.
 Defaulting to unpruned grid for atomic number  44.
 Defaulting to unpruned grid for atomic number  44.
 Defaulting to unpruned grid for atomic number  44.
 Defaulting to unpruned grid for atomic number  44.
 Defaulting to unpruned grid for atomic number  44.
 E= -4361.17988486818    
 DIIS: error= 1.24D-01 at cycle   1 NSaved=   1.
 NSaved= 1 IEnMin= 1 EnMin= -4361.17988486818     IErMin= 1 ErrMin= 1.24D-01
 ErrMax= 1.24D-01  0.00D+00 EMaxC= 1.00D-01 BMatC= 3.89D+00 BMatP= 3.89D+00
 IDIUse=3 WtCom= 0.00D+00 WtEn= 1.00D+00
 Coeff-Com:  0.100D+01
 Coeff-En:   0.100D+01
 Coeff:      0.100D+01
 Gap=     0.255 Goal=   None    Shift=    0.000
 Gap=     0.205 Goal=   None    Shift=    0.000
 GapD=    0.205 DampG=1.000 DampE=0.125 DampFc=0.1250 IDamp=-1.
 Damping current iteration by 1.25D-01
 RMSDP=2.40D-02 MaxDP=1.02D+00              OVMax= 3.01D-01

 Cycle   2  Pass 1  IDiag  1:
 Density matrix breaks symmetry, PCut= 1.00D-04
 Density matrix has no symmetry -- integrals replicated.
 RMSU=  2.95D-03    CP:  1.01D+00
 CoulSu:  requested number of processors reduced to:   7 ShMem   1 Linda.
 E= -4361.25722949234     Delta-E=       -0.077344624160 Rises=F Damp=T
 DIIS: error= 9.70D-02 at cycle   2 NSaved=   2.
 NSaved= 2 IEnMin= 2 EnMin= -4361.25722949234     IErMin= 2 ErrMin= 9.70D-02
 ErrMax= 9.70D-02  0.00D+00 EMaxC= 1.00D-01 BMatC= 2.35D+00 BMatP= 3.89D+00
 IDIUse=3 WtCom= 2.98D-02 WtEn= 9.70D-01
 Coeff-Com: -0.340D+01 0.440D+01
 Coeff-En:   0.000D+00 0.100D+01
 Coeff:     -0.101D+00 0.110D+01
 Gap=     0.239 Goal=   None    Shift=    0.000
 Gap=     0.229 Goal=   None    Shift=    0.000
 RMSDP=1.79D-02 MaxDP=7.05D-01 DE=-7.73D-02 OVMax= 2.25D-02

 Cycle   3  Pass 1  IDiag  1:
 Density matrix breaks symmetry, PCut= 1.00D-04
 Density matrix has no symmetry -- integrals replicated.
 RMSU=  1.17D-02    CP:  1.05D+00  3.00D+00
 CoulSu:  requested number of processors reduced to:   7 ShMem   1 Linda.
 E= -4361.45725005906     Delta-E=       -0.200020566721 Rises=F Damp=F
 DIIS: error= 7.04D-02 at cycle   3 NSaved=   3.
 NSaved= 3 IEnMin= 3 EnMin= -4361.45725005906     IErMin= 3 ErrMin= 7.04D-02
 ErrMax= 7.04D-02  0.00D+00 EMaxC= 1.00D-01 BMatC= 1.38D+00 BMatP= 2.35D+00
 IDIUse=3 WtCom= 2.96D-01 WtEn= 7.04D-01
 EnCoef did   100 forward-backward iterations
 Coeff-Com: -0.521D+01 0.651D+01-0.304D+00
 Coeff-En:   0.143D+00 0.673D-02 0.850D+00
 Coeff:     -0.144D+01 0.193D+01 0.508D+00
 Gap=     0.234 Goal=   None    Shift=    0.000
 Gap=     0.240 Goal=   None    Shift=    0.000
 RMSDP=1.28D-02 MaxDP=5.45D-01 DE=-2.00D-01 OVMax= 1.13D-01

 Cycle   4  Pass 1  IDiag  1:
 Density matrix breaks symmetry, PCut= 1.00D-04
 Density matrix has no symmetry -- integrals replicated.
 RMSU=  6.25D-03    CP:  1.03D+00  2.96D+00  7.00D-02
 CoulSu:  requested number of processors reduced to:   7 ShMem   1 Linda.
 E= -4361.56751265726     Delta-E=       -0.110262598197 Rises=F Damp=F
 DIIS: error= 2.46D-02 at cycle   4 NSaved=   4.
 NSaved= 4 IEnMin= 4 EnMin= -4361.56751265726     IErMin= 4 ErrMin= 2.46D-02
 ErrMax= 2.46D-02  0.00D+00 EMaxC= 1.00D-01 BMatC= 1.46D-01 BMatP= 1.38D+00
 IDIUse=3 WtCom= 7.54D-01 WtEn= 2.46D-01
 Coeff-Com: -0.197D+00 0.187D+00 0.184D+00 0.826D+00
 Coeff-En:   0.000D+00 0.000D+00 0.000D+00 0.100D+01
 Coeff:     -0.149D+00 0.141D+00 0.139D+00 0.869D+00
 Gap=     0.237 Goal=   None    Shift=    0.000
 Gap=     0.236 Goal=   None    Shift=    0.000
 RMSDP=2.83D-03 MaxDP=8.73D-02 DE=-1.10D-01 OVMax= 2.48D-02

 Cycle   5  Pass 1  IDiag  1:
 Density matrix breaks symmetry, PCut= 1.00D-04
 Density matrix has no symmetry -- integrals replicated.
 RMSU=  7.27D-04    CP:  1.04D+00  3.00D+00  2.83D-01  8.94D-01
 CoulSu:  requested number of processors reduced to:   7 ShMem   1 Linda.
 E= -4361.57893145032     Delta-E=       -0.011418793060 Rises=F Damp=F
 DIIS: error= 4.32D-03 at cycle   5 NSaved=   5.
 NSaved= 5 IEnMin= 5 EnMin= -4361.57893145032     IErMin= 5 ErrMin= 4.32D-03
 ErrMax= 4.32D-03  0.00D+00 EMaxC= 1.00D-01 BMatC= 4.28D-03 BMatP= 1.46D-01
 IDIUse=3 WtCom= 9.57D-01 WtEn= 4.32D-02
 Coeff-Com: -0.409D-01 0.483D-01-0.169D-01 0.119D+00 0.890D+00
 Coeff-En:   0.000D+00 0.000D+00 0.000D+00 0.000D+00 0.100D+01
 Coeff:     -0.391D-01 0.462D-01-0.161D-01 0.114D+00 0.895D+00
 Gap=     0.236 Goal=   None    Shift=    0.000
 Gap=     0.233 Goal=   None    Shift=    0.000
 RMSDP=4.71D-04 MaxDP=1.69D-02 DE=-1.14D-02 OVMax= 5.06D-03

 Cycle   6  Pass 1  IDiag  1:
 Density matrix breaks symmetry, PCut= 1.00D-04
 Density matrix has no symmetry -- integrals replicated.
 RMSU=  4.32D-05    CP:  1.03D+00  3.00D+00  2.48D-01  9.27D-01  9.36D-01
 CoulSu:  requested number of processors reduced to:   7 ShMem   1 Linda.
 E= -4361.57926818163     Delta-E=       -0.000336731315 Rises=F Damp=F
 DIIS: error= 9.56D-05 at cycle   6 NSaved=   6.
 NSaved= 6 IEnMin= 6 EnMin= -4361.57926818163     IErMin= 6 ErrMin= 9.56D-05
 ErrMax= 9.56D-05  0.00D+00 EMaxC= 1.00D-01 BMatC= 1.67D-06 BMatP= 4.28D-03
 IDIUse=1 WtCom= 1.00D+00 WtEn= 0.00D+00
 Coeff-Com:  0.144D-01-0.167D-01-0.186D-02-0.352D-01-0.111D+00 0.115D+01
 Coeff:      0.144D-01-0.167D-01-0.186D-02-0.352D-01-0.111D+00 0.115D+01
 Gap=     0.236 Goal=   None    Shift=    0.000
 Gap=     0.232 Goal=   None    Shift=    0.000
 RMSDP=1.70D-05 MaxDP=6.10D-04 DE=-3.37D-04 OVMax= 4.11D-04

 Cycle   7  Pass 1  IDiag  1:
 Density matrix breaks symmetry, PCut= 1.00D-04
 Density matrix has no symmetry -- integrals replicated.
 RMSU=  7.72D-06    CP:  1.03D+00  3.00D+00  2.48D-01  9.29D-01  9.41D-01
                    CP:  1.18D+00
 CoulSu:  requested number of processors reduced to:   7 ShMem   1 Linda.
 E= -4361.57926854702     Delta-E=       -0.000000365384 Rises=F Damp=F
 DIIS: error= 2.18D-05 at cycle   7 NSaved=   7.
 NSaved= 7 IEnMin= 7 EnMin= -4361.57926854702     IErMin= 7 ErrMin= 2.18D-05
 ErrMax= 2.18D-05  0.00D+00 EMaxC= 1.00D-01 BMatC= 4.80D-08 BMatP= 1.67D-06
 IDIUse=1 WtCom= 1.00D+00 WtEn= 0.00D+00
 Coeff-Com: -0.192D-02 0.217D-02 0.912D-03 0.461D-02 0.491D-02-0.101D+00
 Coeff-Com:  0.109D+01
 Coeff:     -0.192D-02 0.217D-02 0.912D-03 0.461D-02 0.491D-02-0.101D+00
 Coeff:      0.109D+01
 Gap=     0.236 Goal=   None    Shift=    0.000
 Gap=     0.232 Goal=   None    Shift=    0.000
 RMSDP=4.13D-06 MaxDP=1.60D-04 DE=-3.65D-07 OVMax= 3.31D-05

 Cycle   8  Pass 1  IDiag  1:
 Density matrix breaks symmetry, PCut= 1.00D-04
 Density matrix has no symmetry -- integrals replicated.
 RMSU=  1.40D-06    CP:  1.03D+00  3.00D+00  2.48D-01  9.28D-01  9.39D-01
                    CP:  1.16D+00  1.07D+00
 CoulSu:  requested number of processors reduced to:   7 ShMem   1 Linda.
 E= -4361.57926855537     Delta-E=       -0.000000008353 Rises=F Damp=F
 DIIS: error= 3.03D-06 at cycle   8 NSaved=   8.
 NSaved= 8 IEnMin= 8 EnMin= -4361.57926855537     IErMin= 8 ErrMin= 3.03D-06
 ErrMax= 3.03D-06  0.00D+00 EMaxC= 1.00D-01 BMatC= 1.22D-09 BMatP= 4.80D-08
 IDIUse=1 WtCom= 1.00D+00 WtEn= 0.00D+00
 Coeff-Com:  0.197D-03-0.233D-03-0.398D-04 0.550D-04 0.871D-03-0.178D-01
 Coeff-Com: -0.588D-02 0.102D+01
 Coeff:      0.197D-03-0.233D-03-0.398D-04 0.550D-04 0.871D-03-0.178D-01
 Coeff:     -0.588D-02 0.102D+01
 Gap=     0.236 Goal=   None    Shift=    0.000
 Gap=     0.232 Goal=   None    Shift=    0.000
 RMSDP=6.64D-07 MaxDP=2.83D-05 DE=-8.35D-09 OVMax= 1.37D-05

 Cycle   9  Pass 1  IDiag  1:
 Density matrix breaks symmetry, PCut= 1.00D-04
 Density matrix has no symmetry -- integrals replicated.
 RMSU=  1.67D-07    CP:  1.03D+00  3.00D+00  2.48D-01  9.28D-01  9.40D-01
                    CP:  1.16D+00  1.08D+00  1.04D+00
 CoulSu:  requested number of processors reduced to:   7 ShMem   1 Linda.
 E= -4361.57926855564     Delta-E=       -0.000000000273 Rises=F Damp=F
 DIIS: error= 4.74D-07 at cycle   9 NSaved=   9.
 NSaved= 9 IEnMin= 9 EnMin= -4361.57926855564     IErMin= 9 ErrMin= 4.74D-07
 ErrMax= 4.74D-07  0.00D+00 EMaxC= 1.00D-01 BMatC= 4.08D-11 BMatP= 1.22D-09
 IDIUse=1 WtCom= 1.00D+00 WtEn= 0.00D+00
 Coeff-Com:  0.173D-05 0.144D-06-0.125D-04-0.799D-04-0.151D-03 0.237D-02
 Coeff-Com: -0.270D-01 0.104D-02 0.102D+01
 Coeff:      0.173D-05 0.144D-06-0.125D-04-0.799D-04-0.151D-03 0.237D-02
 Coeff:     -0.270D-01 0.104D-02 0.102D+01
 Gap=     0.236 Goal=   None    Shift=    0.000
 Gap=     0.232 Goal=   None    Shift=    0.000
 RMSDP=1.35D-07 MaxDP=5.62D-06 DE=-2.73D-10 OVMax= 3.79D-06

 Cycle  10  Pass 1  IDiag  1:
 Density matrix breaks symmetry, PCut= 1.00D-04
 Density matrix has no symmetry -- integrals replicated.
 RMSU=  3.65D-08    CP:  1.03D+00  3.00D+00  2.48D-01  9.28D-01  9.40D-01
                    CP:  1.16D+00  1.07D+00  1.07D+00  1.33D+00
 CoulSu:  requested number of processors reduced to:   7 ShMem   1 Linda.
 E= -4361.57926855566     Delta-E=       -0.000000000015 Rises=F Damp=F
 DIIS: error= 1.75D-07 at cycle  10 NSaved=  10.
 NSaved=10 IEnMin=10 EnMin= -4361.57926855566     IErMin=10 ErrMin= 1.75D-07
 ErrMax= 1.75D-07  0.00D+00 EMaxC= 1.00D-01 BMatC= 2.76D-12 BMatP= 4.08D-11
 IDIUse=1 WtCom= 1.00D+00 WtEn= 0.00D+00
 Coeff-Com: -0.283D-05 0.276D-05 0.253D-05 0.871D-05-0.108D-04 0.153D-03
 Coeff-Com:  0.407D-02-0.299D-01-0.200D+00 0.123D+01
 Coeff:     -0.283D-05 0.276D-05 0.253D-05 0.871D-05-0.108D-04 0.153D-03
 Coeff:      0.407D-02-0.299D-01-0.200D+00 0.123D+01
 Gap=     0.236 Goal=   None    Shift=    0.000
 Gap=     0.232 Goal=   None    Shift=    0.000
 RMSDP=8.11D-08 MaxDP=3.20D-06 DE=-1.55D-11 OVMax= 4.52D-06

 Cycle  11  Pass 1  IDiag  1:
 Density matrix breaks symmetry, PCut= 1.00D-04
 Density matrix has no symmetry -- integrals replicated.
 RMSU=  2.15D-08    CP:  1.03D+00  3.00D+00  2.48D-01  9.28D-01  9.40D-01
                    CP:  1.16D+00  1.07D+00  1.08D+00  1.51D+00  2.11D+00
 CoulSu:  requested number of processors reduced to:   7 ShMem   1 Linda.
 E= -4361.57926855568     Delta-E=       -0.000000000018 Rises=F Damp=F
 DIIS: error= 1.75D-07 at cycle  11 NSaved=  11.
 NSaved=11 IEnMin=11 EnMin= -4361.57926855568     IErMin=11 ErrMin= 1.75D-07
 ErrMax= 1.75D-07  0.00D+00 EMaxC= 1.00D-01 BMatC= 2.37D-12 BMatP= 2.76D-12
 IDIUse=1 WtCom= 1.00D+00 WtEn= 0.00D+00
 Coeff-Com: -0.373D-06 0.351D-06 0.267D-06 0.148D-05 0.368D-06-0.240D-04
 Coeff-Com:  0.650D-03-0.228D-02-0.310D-01 0.123D+00 0.909D+00
 Coeff:     -0.373D-06 0.351D-06 0.267D-06 0.148D-05 0.368D-06-0.240D-04
 Coeff:      0.650D-03-0.228D-02-0.310D-01 0.123D+00 0.909D+00
 Gap=     0.236 Goal=   None    Shift=    0.000
 Gap=     0.232 Goal=   None    Shift=    0.000
 RMSDP=3.80D-08 MaxDP=9.35D-07 DE=-1.82D-11 OVMax= 3.35D-06

 Cycle  12  Pass 1  IDiag  1:
 Density matrix breaks symmetry, PCut= 1.00D-04
 Density matrix has no symmetry -- integrals replicated.
 RMSU=  3.08D-09    CP:  1.03D+00  3.00D+00  2.48D-01  9.28D-01  9.40D-01
                    CP:  1.16D+00  1.07D+00  1.08D+00  1.57D+00  2.91D+00
                    CP:  1.99D+00
 CoulSu:  requested number of processors reduced to:   7 ShMem   1 Linda.
 E= -4361.57926855567     Delta-E=        0.000000000005 Rises=F Damp=F
 DIIS: error= 1.75D-07 at cycle  12 NSaved=  12.
 NSaved=12 IEnMin=11 EnMin= -4361.57926855568     IErMin=11 ErrMin= 1.75D-07
 ErrMax= 1.75D-07  0.00D+00 EMaxC= 1.00D-01 BMatC= 2.41D-12 BMatP= 2.37D-12
 IDIUse=1 WtCom= 1.00D+00 WtEn= 0.00D+00
 Large coefficients: NSaved= 12 BigCof=    0.00 CofMax=   10.00 Det=-6.29D-16
 Inversion failed.  Reducing to 11 matrices.
 Large coefficients: NSaved= 11 BigCof=    0.00 CofMax=   10.00 Det=-6.20D-16
 Inversion failed.  Reducing to 10 matrices.
 Large coefficients: NSaved= 10 BigCof=   24.16 CofMax=   10.00 Det=-7.25D-16
 Inversion failed.  Reducing to  9 matrices.
 Large coefficients: NSaved=  9 BigCof=   22.49 CofMax=   10.00 Det=-7.80D-16
 Inversion failed.  Reducing to  8 matrices.
 Large coefficients: NSaved=  8 BigCof=   18.77 CofMax=   10.00 Det=-9.55D-16
 Inversion failed.  Reducing to  7 matrices.
 Large coefficients: NSaved=  7 BigCof=   17.13 CofMax=   10.00 Det=-1.05D-15
 Inversion failed.  Reducing to  6 matrices.
 Large coefficients: NSaved=  6 BigCof=   10.10 CofMax=   10.00 Det=-1.94D-15
 Inversion failed.  Reducing to  5 matrices.
 Large coefficients: NSaved=  5 BigCof=   10.04 CofMax=   10.00 Det=-1.94D-15
 Inversion failed.  Reducing to  4 matrices.
 Coeff-Com: -0.268D-01-0.414D+00 0.918D+01-0.774D+01
 Coeff:     -0.268D-01-0.414D+00 0.918D+01-0.774D+01
 Gap=     0.236 Goal=   None    Shift=    0.000
 Gap=     0.232 Goal=   None    Shift=    0.000
 RMSDP=2.67D-07 MaxDP=6.55D-06 DE= 5.46D-12 OVMax= 2.38D-05

 Cycle  13  Pass 1  IDiag  1:
 Density matrix breaks symmetry, PCut= 1.00D-04
 Density matrix has no symmetry -- integrals replicated.
 RMSU=  5.22D-08    CP:  1.03D+00  3.00D+00  2.48D-01  9.28D-01  9.40D-01
                    CP:  1.16D+00  1.07D+00  1.07D+00  1.19D+00 -2.70D+00
                    CP: -3.00D+00 -3.00D+00
 CoulSu:  requested number of processors reduced to:   7 ShMem   1 Linda.
 E= -4361.57926855563     Delta-E=        0.000000000038 Rises=F Damp=F
 DIIS: error= 1.75D-07 at cycle  13 NSaved=   5.
 NSaved= 5 IEnMin= 3 EnMin= -4361.57926855568     IErMin= 5 ErrMin= 1.75D-07
 ErrMax= 1.75D-07  0.00D+00 EMaxC= 1.00D-01 BMatC= 2.10D-12 BMatP= 2.37D-12
 IDIUse=1 WtCom= 1.00D+00 WtEn= 0.00D+00
 Coeff-Com:  0.822D-01-0.130D+00-0.743D+01 0.161D+01 0.687D+01
 Coeff:      0.822D-01-0.130D+00-0.743D+01 0.161D+01 0.687D+01
 Gap=     0.236 Goal=   None    Shift=    0.000
 Gap=     0.232 Goal=   None    Shift=    0.000
 RMSDP=1.27D-06 MaxDP=3.11D-05 DE= 3.82D-11 OVMax= 1.13D-04

 Cycle  14  Pass 1  IDiag  1:
 Density matrix breaks symmetry, PCut= 1.00D-04
 Density matrix has no symmetry -- integrals replicated.
 RMSU=  1.16D-06    CP:  1.03D+00  3.00D+00  2.48D-01  9.28D-01  9.40D-01
                    CP:  1.16D+00  1.07D+00  1.05D+00 -5.49D-01 -3.00D+00
                    CP: -3.00D+00 -3.00D+00  3.00D+00
 CoulSu:  requested number of processors reduced to:   7 ShMem   1 Linda.
 E= -4361.57926855547     Delta-E=        0.000000000162 Rises=F Damp=F
 DIIS: error= 1.73D-07 at cycle  14 NSaved=   6.
 NSaved= 6 IEnMin= 3 EnMin= -4361.57926855568     IErMin= 6 ErrMin= 1.73D-07
 ErrMax= 1.73D-07  0.00D+00 EMaxC= 1.00D-01 BMatC= 1.29D-12 BMatP= 2.10D-12
 IDIUse=1 WtCom= 1.00D+00 WtEn= 0.00D+00
 Coeff-Com:  0.229D-02 0.410D-01-0.215D+00 0.450D+00-0.454D+00 0.118D+01
 Coeff:      0.229D-02 0.410D-01-0.215D+00 0.450D+00-0.454D+00 0.118D+01
 Gap=     0.236 Goal=   None    Shift=    0.000
 Gap=     0.232 Goal=   None    Shift=    0.000
 RMSDP=1.27D-07 MaxDP=3.35D-06 DE= 1.62D-10 OVMax= 1.12D-05

 Cycle  15  Pass 1  IDiag  1:
 Density matrix breaks symmetry, PCut= 1.00D-04
 Density matrix has no symmetry -- integrals replicated.
 RMSU=  2.45D-08    CP:  1.03D+00  3.00D+00  2.48D-01  9.28D-01  9.40D-01
                    CP:  1.16D+00  1.07D+00  1.05D+00 -7.20D-01 -3.00D+00
                    CP: -3.00D+00 -3.00D+00  3.00D+00  1.10D+00
 CoulSu:  requested number of processors reduced to:   7 ShMem   1 Linda.
 E= -4361.57926855546     Delta-E=        0.000000000009 Rises=F Damp=F
 DIIS: error= 1.73D-07 at cycle  15 NSaved=   7.
 NSaved= 7 IEnMin= 3 EnMin= -4361.57926855568     IErMin= 7 ErrMin= 1.73D-07
 ErrMax= 1.73D-07  0.00D+00 EMaxC= 1.00D-01 BMatC= 1.27D-12 BMatP= 1.29D-12
 IDIUse=1 WtCom= 1.00D+00 WtEn= 0.00D+00
 Coeff-Com: -0.746D-02-0.238D-02 0.380D+00-0.212D+00-0.137D+00-0.440D+00
 Coeff-Com:  0.142D+01
 Coeff:     -0.746D-02-0.238D-02 0.380D+00-0.212D+00-0.137D+00-0.440D+00
 Coeff:      0.142D+01
 Gap=     0.236 Goal=   None    Shift=    0.000
 Gap=     0.232 Goal=   None    Shift=    0.000
 RMSDP=3.83D-08 MaxDP=1.30D-06 DE= 9.09D-12 OVMax= 3.47D-06

 Cycle  16  Pass 1  IDiag  1:
 Density matrix breaks symmetry, PCut= 1.00D-04
 Density matrix has no symmetry -- integrals replicated.
 RMSU=  1.13D-08    CP:  1.03D+00  3.00D+00  2.48D-01  9.28D-01  9.40D-01
                    CP:  1.16D+00  1.07D+00  1.05D+00 -6.85D-01 -3.00D+00
                    CP: -3.00D+00 -3.00D+00  3.00D+00  1.09D+00  2.16D+00
 CoulSu:  requested number of processors reduced to:   7 ShMem   1 Linda.
 E= -4361.57926855547     Delta-E=       -0.000000000009 Rises=F Damp=F
 DIIS: error= 1.73D-07 at cycle  16 NSaved=   8.
 NSaved= 8 IEnMin= 3 EnMin= -4361.57926855568     IErMin= 7 ErrMin= 1.73D-07
 ErrMax= 1.73D-07  0.00D+00 EMaxC= 1.00D-01 BMatC= 1.27D-12 BMatP= 1.27D-12
 IDIUse=1 WtCom= 1.00D+00 WtEn= 0.00D+00
 Large coefficients: NSaved=  8 BigCof=   20.42 CofMax=   10.00 Det=-7.09D-17
 Inversion failed.  Reducing to  7 matrices.
 Large coefficients: NSaved=  7 BigCof=   17.43 CofMax=   10.00 Det=-1.00D-16
 Inversion failed.  Reducing to  6 matrices.
 Large coefficients: NSaved=  6 BigCof=   12.66 CofMax=   10.00 Det=-1.51D-16
 Inversion failed.  Reducing to  5 matrices.
 Coeff-Com: -0.118D+00 0.117D+01-0.102D+01-0.515D+01 0.612D+01
 Coeff:     -0.118D+00 0.117D+01-0.102D+01-0.515D+01 0.612D+01
 Gap=     0.236 Goal=   None    Shift=    0.000
 Gap=     0.232 Goal=   None    Shift=    0.000
 RMSDP=2.34D-07 MaxDP=8.01D-06 DE=-9.09D-12 OVMax= 2.12D-05

 Cycle  17  Pass 1  IDiag  1:
 Density matrix breaks symmetry, PCut= 1.00D-04
 Density matrix has no symmetry -- integrals replicated.
 RMSU=  1.48D-07    CP:  1.03D+00  3.00D+00  2.48D-01  9.28D-01  9.40D-01
                    CP:  1.16D+00  1.07D+00  1.05D+00 -4.53D-01 -3.00D+00
                    CP: -3.00D+00 -3.00D+00  3.00D+00  9.57D-01  3.00D+00
                    CP:  3.00D+00
 CoulSu:  requested number of processors reduced to:   7 ShMem   1 Linda.
 E= -4361.57926855549     Delta-E=       -0.000000000022 Rises=F Damp=F
 DIIS: error= 1.74D-07 at cycle  17 NSaved=   6.
 NSaved= 6 IEnMin= 2 EnMin= -4361.57926855568     IErMin= 4 ErrMin= 1.73D-07
 ErrMax= 1.74D-07  0.00D+00 EMaxC= 1.00D-01 BMatC= 1.25D-12 BMatP= 1.27D-12
 IDIUse=1 WtCom= 1.00D+00 WtEn= 0.00D+00
 Coeff-Com:  0.290D+00-0.127D+01 0.997D+00-0.897D+01 0.312D+01 0.683D+01
 Coeff:      0.290D+00-0.127D+01 0.997D+00-0.897D+01 0.312D+01 0.683D+01
 Gap=     0.236 Goal=   None    Shift=    0.000
 Gap=     0.232 Goal=   None    Shift=    0.000
 RMSDP=1.76D-06 MaxDP=6.06D-05 DE=-2.18D-11 OVMax= 1.60D-04

 Cycle  18  Pass 1  IDiag  1:
 Density matrix breaks symmetry, PCut= 1.00D-04
 Density matrix has no symmetry -- integrals replicated.
 RMSU=  1.02D-06    CP:  1.03D+00  3.00D+00  2.48D-01  9.28D-01  9.40D-01
                    CP:  1.16D+00  1.07D+00  1.08D+00  1.30D+00 -1.83D+00
                    CP: -3.00D+00 -3.00D+00  3.00D+00  7.38D-03  3.00D+00
                    CP:  3.00D+00  3.00D+00
 CoulSu:  requested number of processors reduced to:   7 ShMem   1 Linda.
 E= -4361.57926855571     Delta-E=       -0.000000000214 Rises=F Damp=F
 DIIS: error= 1.77D-07 at cycle  18 NSaved=   7.
 NSaved= 7 IEnMin= 7 EnMin= -4361.57926855571     IErMin= 4 ErrMin= 1.73D-07
 ErrMax= 1.77D-07  0.00D+00 EMaxC= 1.00D-01 BMatC= 1.15D-12 BMatP= 1.25D-12
 IDIUse=1 WtCom= 1.00D+00 WtEn= 0.00D+00
 Coeff-Com: -0.515D-01 0.353D+00-0.309D+00 0.433D+01-0.483D+01-0.423D+00
 Coeff-Com:  0.193D+01
 Coeff:     -0.515D-01 0.353D+00-0.309D+00 0.433D+01-0.483D+01-0.423D+00
 Coeff:      0.193D+01
 Gap=     0.236 Goal=   None    Shift=    0.000
 Gap=     0.232 Goal=   None    Shift=    0.000
 RMSDP=1.60D-06 MaxDP=5.52D-05 DE=-2.14D-10 OVMax= 1.45D-04

 Cycle  19  Pass 1  IDiag  1:
 Density matrix breaks symmetry, PCut= 1.00D-04
 Density matrix has no symmetry -- integrals replicated.
 RMSU=  3.21D-07    CP:  1.03D+00  3.00D+00  2.48D-01  9.28D-01  9.40D-01
                    CP:  1.16D+00  1.07D+00  1.10D+00  2.89D+00  3.00D+00
                    CP:  3.00D+00 -3.00D+00 -3.00D+00 -5.42D-01  3.00D+00
                    CP:  3.00D+00  3.00D+00  2.16D+00
 CoulSu:  requested number of processors reduced to:   7 ShMem   1 Linda.
 E= -4361.57926855588     Delta-E=       -0.000000000171 Rises=F Damp=F
 DIIS: error= 1.80D-07 at cycle  19 NSaved=   8.
 NSaved= 8 IEnMin= 8 EnMin= -4361.57926855588     IErMin= 4 ErrMin= 1.73D-07
 ErrMax= 1.80D-07  0.00D+00 EMaxC= 1.00D-01 BMatC= 1.11D-12 BMatP= 1.15D-12
 IDIUse=1 WtCom= 1.00D+00 WtEn= 0.00D+00
 Coeff-Com: -0.122D-01 0.459D-01-0.347D-01 0.694D+00-0.640D+00-0.393D-01
 Coeff-Com: -0.125D+00 0.111D+01
 Coeff:     -0.122D-01 0.459D-01-0.347D-01 0.694D+00-0.640D+00-0.393D-01
 Coeff:     -0.125D+00 0.111D+01
 Gap=     0.236 Goal=   None    Shift=    0.000
 Gap=     0.232 Goal=   None    Shift=    0.000
 RMSDP=1.39D-07 MaxDP=4.94D-06 DE=-1.71D-10 OVMax= 1.26D-05

 Cycle  20  Pass 1  IDiag  1:
 Density matrix breaks symmetry, PCut= 1.00D-04
 Density matrix has no symmetry -- integrals replicated.
 RMSU=  1.15D-08    CP:  1.03D+00  3.00D+00  2.48D-01  9.28D-01  9.40D-01
                    CP:  1.16D+00  1.07D+00  1.10D+00  3.00D+00  3.00D+00
                    CP:  3.00D+00 -3.00D+00 -3.00D+00 -6.19D-01  3.00D+00
                    CP:  3.00D+00  3.00D+00  2.26D+00  1.02D+00
 CoulSu:  requested number of processors reduced to:   7 ShMem   1 Linda.
 E= -4361.57926855589     Delta-E=       -0.000000000015 Rises=F Damp=F
 DIIS: error= 1.80D-07 at cycle  20 NSaved=   9.
 NSaved= 9 IEnMin= 9 EnMin= -4361.57926855589     IErMin= 4 ErrMin= 1.73D-07
 ErrMax= 1.80D-07  0.00D+00 EMaxC= 1.00D-01 BMatC= 1.11D-12 BMatP= 1.11D-12
 IDIUse=1 WtCom= 1.00D+00 WtEn= 0.00D+00
 Coeff-Com: -0.183D-01 0.349D-01-0.219D-01 0.181D+01-0.181D+01 0.203D-01
 Coeff-Com: -0.244D+00 0.244D+01-0.121D+01
 Coeff:     -0.183D-01 0.349D-01-0.219D-01 0.181D+01-0.181D+01 0.203D-01
 Coeff:     -0.244D+00 0.244D+01-0.121D+01
 Gap=     0.236 Goal=   None    Shift=    0.000
 Gap=     0.232 Goal=   None    Shift=    0.000
 RMSDP=2.70D-08 MaxDP=1.03D-06 DE=-1.46D-11 OVMax= 2.45D-06

 Cycle  21  Pass 1  IDiag  1:
 Density matrix breaks symmetry, PCut= 1.00D-04
 Density matrix has no symmetry -- integrals replicated.
 Restarting incremental Fock formation.
 CoulSu:  requested number of processors reduced to:   7 ShMem   1 Linda.
 E= -4361.57926855589     Delta-E=        0.000000000003 Rises=F Damp=F
 DIIS: error= 1.80D-07 at cycle  21 NSaved=  10.
 NSaved=10 IEnMin= 9 EnMin= -4361.57926855589     IErMin= 4 ErrMin= 1.73D-07
 ErrMax= 1.80D-07  0.00D+00 EMaxC= 1.00D-01 BMatC= 1.11D-12 BMatP= 1.11D-12
 IDIUse=1 WtCom= 1.00D+00 WtEn= 0.00D+00
 Large coefficients: NSaved= 10 BigCof=   96.47 CofMax=   10.00 Det=-3.08D-18
 Inversion failed.  Reducing to  9 matrices.
 Large coefficients: NSaved=  9 BigCof=   38.92 CofMax=   10.00 Det=-7.21D-18
 Inversion failed.  Reducing to  8 matrices.
 Large coefficients: NSaved=  8 BigCof=   23.96 CofMax=   10.00 Det=-1.15D-17
 Inversion failed.  Reducing to  7 matrices.
 Large coefficients: NSaved=  7 BigCof=   23.60 CofMax=   10.00 Det=-1.16D-17
 Inversion failed.  Reducing to  6 matrices.
 Large coefficients: NSaved=  6 BigCof=   22.62 CofMax=   10.00 Det=-1.22D-17
 Inversion failed.  Reducing to  5 matrices.
 Large coefficients: NSaved=  5 BigCof=   21.48 CofMax=   10.00 Det=-1.28D-17
 Inversion failed.  Reducing to  4 matrices.
 Large coefficients: NSaved=  4 BigCof=   17.30 CofMax=   10.00 Det=-1.57D-17
 Inversion failed.  Reducing to  3 matrices.
 Large coefficients: NSaved=  3 BigCof=   15.36 CofMax=   10.00 Det=-1.73D-17
 Inversion failed.  Reducing to  2 matrices.
 Coeff-Com: -0.824D+01 0.924D+01
 Coeff:     -0.824D+01 0.924D+01
 Gap=     0.236 Goal=   None    Shift=    0.000
 Gap=     0.232 Goal=   None    Shift=    0.000
 RMSDP=1.96D-07 MaxDP=7.49D-06 DE= 2.73D-12 OVMax= 1.78D-05

 Cycle  22  Pass 1  IDiag  1:
 Density matrix breaks symmetry, PCut= 1.00D-04
 Density matrix has no symmetry -- integrals replicated.
 RMSU=  1.96D-07    CP:  1.00D+00
 CoulSu:  requested number of processors reduced to:   7 ShMem   1 Linda.
 E= -4361.57926855587     Delta-E=        0.000000000022 Rises=F Damp=F
 DIIS: error= 1.80D-07 at cycle  22 NSaved=   3.
 NSaved= 3 IEnMin= 1 EnMin= -4361.57926855589     IErMin= 3 ErrMin= 1.80D-07
 ErrMax= 1.80D-07  0.00D+00 EMaxC= 1.00D-01 BMatC= 1.11D-12 BMatP= 1.11D-12
 IDIUse=1 WtCom= 1.00D+00 WtEn= 0.00D+00
 Large coefficients: NSaved=  3 BigCof=   24.18 CofMax=   10.00 Det=-1.77D-17
 Inversion failed.  Reducing to  2 matrices.
 Coeff-Com: -0.260D+00 0.126D+01
 Coeff:     -0.260D+00 0.126D+01
 Gap=     0.236 Goal=   None    Shift=    0.000
 Gap=     0.232 Goal=   None    Shift=    0.000
 RMSDP=2.45D-08 MaxDP=9.16D-07 DE= 2.18D-11 OVMax= 2.22D-06

 Cycle  23  Pass 1  IDiag  1:
 Density matrix breaks symmetry, PCut= 1.00D-04
 Density matrix has no symmetry -- integrals replicated.
 RMSU=  4.36D-09    CP:  1.00D+00  1.12D+00
 CoulSu:  requested number of processors reduced to:   7 ShMem   1 Linda.
 E= -4361.57926855586     Delta-E=        0.000000000004 Rises=F Damp=F
 DIIS: error= 1.80D-07 at cycle  23 NSaved=   3.
 NSaved= 3 IEnMin= 1 EnMin= -4361.57926855589     IErMin= 3 ErrMin= 1.80D-07
 ErrMax= 1.80D-07  0.00D+00 EMaxC= 1.00D-01 BMatC= 1.11D-12 BMatP= 1.11D-12
 IDIUse=1 WtCom= 1.00D+00 WtEn= 0.00D+00
 Coeff-Com: -0.828D+01 0.405D+01 0.522D+01
 Coeff:     -0.828D+01 0.405D+01 0.522D+01
 Gap=     0.236 Goal=   None    Shift=    0.000
 Gap=     0.232 Goal=   None    Shift=    0.000
 RMSDP=1.70D-06 MaxDP=6.48D-05 DE= 3.64D-12 OVMax= 1.54D-04

 Cycle  24  Pass 1  IDiag  1:
 Density matrix breaks symmetry, PCut= 1.00D-04
 Density matrix has no symmetry -- integrals replicated.
 RMSU=  1.33D-06    CP:  1.00D+00  3.00D+00  3.00D+00
 CoulSu:  requested number of processors reduced to:   7 ShMem   1 Linda.
 E= -4361.57926855568     Delta-E=        0.000000000189 Rises=F Damp=F
 DIIS: error= 1.76D-07 at cycle  24 NSaved=   4.
 NSaved= 4 IEnMin= 1 EnMin= -4361.57926855589     IErMin= 4 ErrMin= 1.76D-07
 ErrMax= 1.76D-07  0.00D+00 EMaxC= 1.00D-01 BMatC= 1.09D-12 BMatP= 1.11D-12
 IDIUse=1 WtCom= 1.00D+00 WtEn= 0.00D+00
 Large coefficients: NSaved=  4 BigCof=   12.64 CofMax=   10.00 Det=-5.58D-17
 Inversion failed.  Reducing to  3 matrices.
 Coeff-Com:  0.331D+00-0.265D+00 0.934D+00
 Coeff:      0.331D+00-0.265D+00 0.934D+00
 Gap=     0.236 Goal=   None    Shift=    0.000
 Gap=     0.232 Goal=   None    Shift=    0.000
 RMSDP=2.11D-07 MaxDP=8.08D-06 DE= 1.89D-10 OVMax= 1.92D-05

 Cycle  25  Pass 1  IDiag  1:
 Density matrix breaks symmetry, PCut= 1.00D-04
 Density matrix has no symmetry -- integrals replicated.
 RMSU=  6.67D-09    CP:  1.00D+00  3.00D+00  3.00D+00  8.41D-01
 CoulSu:  requested number of processors reduced to:   7 ShMem   1 Linda.
 E= -4361.57926855571     Delta-E=       -0.000000000035 Rises=F Damp=F
 DIIS: error= 1.76D-07 at cycle  25 NSaved=   4.
 NSaved= 4 IEnMin= 1 EnMin= -4361.57926855589     IErMin= 3 ErrMin= 1.76D-07
 ErrMax= 1.76D-07  0.00D+00 EMaxC= 1.00D-01 BMatC= 1.09D-12 BMatP= 1.09D-12
 IDIUse=1 WtCom= 1.00D+00 WtEn= 0.00D+00
 Coeff-Com:  0.289D+01-0.270D+01 0.569D+01-0.488D+01
 Coeff:      0.289D+01-0.270D+01 0.569D+01-0.488D+01
 Gap=     0.236 Goal=   None    Shift=    0.000
 Gap=     0.232 Goal=   None    Shift=    0.000
 RMSDP=2.52D-07 MaxDP=9.68D-06 DE=-3.46D-11 OVMax= 2.29D-05

 Cycle  26  Pass 1  IDiag  1:
 Density matrix breaks symmetry, PCut= 1.00D-04
 Density matrix has no symmetry -- integrals replicated.
 RMSU=  1.96D-09    CP:  1.00D+00  3.00D+00  5.18D-01  1.03D+00 -3.00D+00
 CoulSu:  requested number of processors reduced to:   7 ShMem   1 Linda.
 E= -4361.57926855568     Delta-E=        0.000000000031 Rises=F Damp=F
 DIIS: error= 1.76D-07 at cycle  26 NSaved=   5.
 NSaved= 5 IEnMin= 1 EnMin= -4361.57926855589     IErMin= 5 ErrMin= 1.76D-07
 ErrMax= 1.76D-07  0.00D+00 EMaxC= 1.00D-01 BMatC= 1.08D-12 BMatP= 1.09D-12
 IDIUse=1 WtCom= 1.00D+00 WtEn= 0.00D+00
 Large coefficients: NSaved=  5 BigCof=  104.89 CofMax=   10.00 Det=-2.14D-17
 Inversion failed.  Reducing to  4 matrices.
 Large coefficients: NSaved=  4 BigCof=   43.85 CofMax=   10.00 Det=-9.79D-17
 Inversion failed.  Reducing to  3 matrices.
 Large coefficients: NSaved=  3 BigCof=   19.99 CofMax=   10.00 Det=-2.23D-16
 Inversion failed.  Reducing to  2 matrices.
 Large coefficients: NSaved=  2 BigCof=   16.43 CofMax=   10.00 Det=-2.53D-16
 Coeff-Com: -0.154D+02 0.164D+02
 Coeff:     -0.154D+02 0.164D+02
 Gap=     0.236 Goal=   None    Shift=    0.000
 Gap=     0.232 Goal=   None    Shift=    0.000
 RMSDP=3.87D-06 MaxDP=1.48D-04 DE= 3.09D-11 OVMax= 3.51D-04

 Cycle  27  Pass 1  IDiag  1:
 Density matrix breaks symmetry, PCut= 1.00D-04
 Density matrix has no symmetry -- integrals replicated.
 RMSU=  1.33D-06    CP:  1.00D+00  3.00D+00 -3.00D+00  3.00D+00 -3.00D+00
                    CP: -3.00D+00
 CoulSu:  requested number of processors reduced to:   7 ShMem   1 Linda.
 E= -4361.57926855525     Delta-E=        0.000000000431 Rises=F Damp=F
 DIIS: error= 1.68D-07 at cycle  27 NSaved=   3.
 NSaved= 3 IEnMin= 1 EnMin= -4361.57926855571     IErMin= 3 ErrMin= 1.68D-07
 ErrMax= 1.68D-07  0.00D+00 EMaxC= 1.00D-01 BMatC= 9.97D-13 BMatP= 1.08D-12
 IDIUse=1 WtCom= 1.00D+00 WtEn= 0.00D+00
 Large coefficients: NSaved=  3 BigCof=   19.68 CofMax=   10.00 Det=-2.44D-16
 Inversion failed.  Reducing to  2 matrices.
 Coeff-Com: -0.540D+00 0.154D+01
 Coeff:     -0.540D+00 0.154D+01
 Gap=     0.236 Goal=   None    Shift=    0.000
 Gap=     0.232 Goal=   None    Shift=    0.000
 RMSDP=2.06D-06 MaxDP=7.91D-05 DE= 4.31D-10 OVMax= 1.88D-04

 Cycle  28  Pass 1  IDiag  1:
 Density matrix breaks symmetry, PCut= 1.00D-04
 Density matrix has no symmetry -- integrals replicated.
 RMSU=  5.65D-07    CP:  1.00D+00  3.00D+00 -3.00D+00  3.00D+00 -3.00D+00
                    CP: -3.00D+00  2.50D+00
 CoulSu:  requested number of processors reduced to:   7 ShMem   1 Linda.
 E= -4361.57926855503     Delta-E=        0.000000000215 Rises=F Damp=F
 DIIS: error= 1.64D-07 at cycle  28 NSaved=   3.
 NSaved= 3 IEnMin= 1 EnMin= -4361.57926855568     IErMin= 3 ErrMin= 1.64D-07
 ErrMax= 1.64D-07  0.00D+00 EMaxC= 1.00D-01 BMatC= 9.64D-13 BMatP= 9.97D-13
 IDIUse=1 WtCom= 1.00D+00 WtEn= 0.00D+00
 Coeff-Com: -0.183D+01 0.147D+01 0.136D+01
 Coeff:     -0.183D+01 0.147D+01 0.136D+01
 Gap=     0.236 Goal=   None    Shift=    0.000
 Gap=     0.232 Goal=   None    Shift=    0.000
 RMSDP=7.78D-06 MaxDP=2.98D-04 DE= 2.15D-10 OVMax= 7.07D-04

 Cycle  29  Pass 1  IDiag  1:
 Density matrix breaks symmetry, PCut= 1.00D-04
 Density matrix has no symmetry -- integrals replicated.
 RMSU=  6.89D-06    CP:  1.00D+00  3.00D+00 -3.00D+00  3.00D+00 -3.00D+00
                    CP: -3.00D+00  3.00D+00  3.00D+00
 CoulSu:  requested number of processors reduced to:   7 ShMem   1 Linda.
 E= -4361.57926855427     Delta-E=        0.000000000767 Rises=F Damp=F
 DIIS: error= 1.48D-07 at cycle  29 NSaved=   4.
 NSaved= 4 IEnMin= 1 EnMin= -4361.57926855568     IErMin= 4 ErrMin= 1.48D-07
 ErrMax= 1.48D-07  0.00D+00 EMaxC= 1.00D-01 BMatC= 9.17D-13 BMatP= 9.64D-13
 IDIUse=1 WtCom= 1.00D+00 WtEn= 0.00D+00
 Coeff-Com: -0.353D+01 0.272D+01 0.264D+01-0.832D+00
 Coeff:     -0.353D+01 0.272D+01 0.264D+01-0.832D+00
 Gap=     0.236 Goal=   None    Shift=    0.000
 Gap=     0.232 Goal=   None    Shift=    0.000
 RMSDP=1.05D-06 MaxDP=4.03D-05 DE= 7.67D-10 OVMax= 9.57D-05

 Cycle  30  Pass 1  IDiag  1:
 Density matrix breaks symmetry, PCut= 1.00D-04
 Density matrix has no symmetry -- integrals replicated.
 RMSU=  1.43D-07    CP:  1.00D+00  3.00D+00 -3.00D+00  3.00D+00 -3.00D+00
                    CP: -3.00D+00  3.00D+00  3.00D+00  1.15D+00
 CoulSu:  requested number of processors reduced to:   7 ShMem   1 Linda.
 E= -4361.57926855418     Delta-E=        0.000000000083 Rises=F Damp=F
 DIIS: error= 1.47D-07 at cycle  30 NSaved=   5.
 NSaved= 5 IEnMin= 1 EnMin= -4361.57926855568     IErMin= 5 ErrMin= 1.47D-07
 ErrMax= 1.47D-07  0.00D+00 EMaxC= 1.00D-01 BMatC= 1.12D-12 BMatP= 9.17D-13
 IDIUse=1 WtCom= 1.00D+00 WtEn= 0.00D+00
 Coeff-Com: -0.217D+01 0.158D+01 0.166D+01 0.381D+00-0.444D+00
 Coeff:     -0.217D+01 0.158D+01 0.166D+01 0.381D+00-0.444D+00
 Gap=     0.236 Goal=   None    Shift=    0.000
 Gap=     0.232 Goal=   None    Shift=    0.000
 RMSDP=2.03D-07 MaxDP=7.77D-06 DE= 8.28D-11 OVMax= 1.84D-05

 Cycle  31  Pass 1  IDiag  1:
 Density matrix breaks symmetry, PCut= 1.00D-04
 Density matrix has no symmetry -- integrals replicated.
 RMSU=  7.20D-09    CP:  1.00D+00  3.00D+00 -3.00D+00  3.00D+00 -3.00D+00
                    CP: -3.00D+00  3.00D+00  3.00D+00  1.12D+00  7.71D-01
 CoulSu:  requested number of processors reduced to:   7 ShMem   1 Linda.
 E= -4361.57926855420     Delta-E=       -0.000000000020 Rises=F Damp=F
 DIIS: error= 1.47D-07 at cycle  31 NSaved=   6.
 NSaved= 6 IEnMin= 1 EnMin= -4361.57926855568     IErMin= 6 ErrMin= 1.47D-07
 ErrMax= 1.47D-07  0.00D+00 EMaxC= 1.00D-01 BMatC= 9.70D-13 BMatP= 9.17D-13
 IDIUse=1 WtCom= 1.00D+00 WtEn= 0.00D+00
 Coeff-Com: -0.274D+01 0.184D+01 0.216D+01 0.162D+01 0.350D+00-0.223D+01
 Coeff:     -0.274D+01 0.184D+01 0.216D+01 0.162D+01 0.350D+00-0.223D+01
 Gap=     0.236 Goal=   None    Shift=    0.000
 Gap=     0.232 Goal=   None    Shift=    0.000
 RMSDP=2.87D-07 MaxDP=1.10D-05 DE=-2.00D-11 OVMax= 2.60D-05

 Cycle  32  Pass 1  IDiag  1:
 Density matrix breaks symmetry, PCut= 1.00D-04
 Density matrix has no symmetry -- integrals replicated.
 RMSU=  1.16D-09    CP:  1.00D+00  3.00D+00 -3.00D+00  3.00D+00 -3.00D+00
                    CP: -3.00D+00  3.00D+00  3.00D+00  1.16D+00  1.10D+00
                    CP: -3.60D-01
 CoulSu:  requested number of processors reduced to:   7 ShMem   1 Linda.
 E= -4361.57926855417     Delta-E=        0.000000000035 Rises=F Damp=F
 DIIS: error= 1.47D-07 at cycle  32 NSaved=   7.
 NSaved= 7 IEnMin= 1 EnMin= -4361.57926855568     IErMin= 6 ErrMin= 1.47D-07
 ErrMax= 1.47D-07  0.00D+00 EMaxC= 1.00D-01 BMatC= 1.06D-12 BMatP= 9.17D-13
 IDIUse=1 WtCom= 1.00D+00 WtEn= 0.00D+00
 Large coefficients: NSaved=  7 BigCof=   22.24 CofMax=   10.00 Det=-1.18D-16
 Inversion failed.  Reducing to  6 matrices.
 Coeff-Com: -0.461D+01 0.306D+01 0.363D+01 0.305D+01-0.726D+01 0.314D+01
 Coeff:     -0.461D+01 0.306D+01 0.363D+01 0.305D+01-0.726D+01 0.314D+01
 Gap=     0.236 Goal=   None    Shift=    0.000
 Gap=     0.232 Goal=   None    Shift=    0.000
 RMSDP=1.11D-06 MaxDP=4.24D-05 DE= 3.46D-11 OVMax= 1.01D-04

 Cycle  33  Pass 1  IDiag  1:
 Density matrix breaks symmetry, PCut= 1.00D-04
 Density matrix has no symmetry -- integrals replicated.
 RMSU=  1.92D-08    CP:  1.00D+00  3.00D+00 -3.00D+00  3.00D+00 -3.00D+00
                    CP: -3.00D+00  3.00D+00  3.00D+00  1.32D+00  2.36D+00
                    CP: -3.00D+00  3.00D+00
 CoulSu:  requested number of processors reduced to:   7 ShMem   1 Linda.
 E= -4361.57926855407     Delta-E=        0.000000000096 Rises=F Damp=F
 DIIS: error= 1.46D-07 at cycle  33 NSaved=   7.
 NSaved= 7 IEnMin= 1 EnMin= -4361.57926855568     IErMin= 7 ErrMin= 1.46D-07
 ErrMax= 1.46D-07  0.00D+00 EMaxC= 1.00D-01 BMatC= 1.43D-12 BMatP= 9.17D-13
 IDIUse=1 WtCom= 1.00D+00 WtEn= 0.00D+00
 Large coefficients: NSaved=  7 BigCof=   21.42 CofMax=   10.00 Det=-3.05D-17
 Inversion failed.  Reducing to  6 matrices.
 Coeff-Com: -0.572D+01 0.373D+01 0.454D+01 0.412D+01-0.947D+01 0.379D+01
 Coeff:     -0.572D+01 0.373D+01 0.454D+01 0.412D+01-0.947D+01 0.379D+01
 Gap=     0.236 Goal=   None    Shift=    0.000
 Gap=     0.232 Goal=   None    Shift=    0.000
 RMSDP=1.78D-06 MaxDP=6.82D-05 DE= 9.64D-11 OVMax= 1.62D-04

 Cycle  34  Pass 1  IDiag  1:
 Density matrix breaks symmetry, PCut= 1.00D-04
 Density matrix has no symmetry -- integrals replicated.
 RMSU=  2.06D-07    CP:  1.00D+00  3.00D+00 -3.00D+00  3.00D+00 -3.00D+00
                    CP: -3.00D+00  3.00D+00  3.00D+00  1.58D+00  3.00D+00
                    CP: -3.00D+00  3.00D+00  3.00D+00
 CoulSu:  requested number of processors reduced to:   7 ShMem   1 Linda.
 E= -4361.57926855392     Delta-E=        0.000000000156 Rises=F Damp=F
 DIIS: error= 1.44D-07 at cycle  34 NSaved=   7.
 NSaved= 7 IEnMin= 1 EnMin= -4361.57926855568     IErMin= 7 ErrMin= 1.44D-07
 ErrMax= 1.44D-07  0.00D+00 EMaxC= 1.00D-01 BMatC= 1.75D-12 BMatP= 9.17D-13
 IDIUse=1 WtCom= 1.00D+00 WtEn= 0.00D+00
 Large coefficients: NSaved=  7 BigCof=   12.14 CofMax=   10.00 Det=-2.24D-16
 Inversion failed.  Reducing to  6 matrices.
 Coeff-Com: -0.339D+01 0.241D+01 0.262D+01 0.723D+00-0.480D+01 0.344D+01
 Coeff:     -0.339D+01 0.241D+01 0.262D+01 0.723D+00-0.480D+01 0.344D+01
 Gap=     0.236 Goal=   None    Shift=    0.000
 Gap=     0.232 Goal=   None    Shift=    0.000
 RMSDP=1.46D-06 MaxDP=5.60D-05 DE= 1.56D-10 OVMax= 1.33D-04

 Cycle  35  Pass 1  IDiag  1:
 Density matrix breaks symmetry, PCut= 1.00D-04
 Density matrix has no symmetry -- integrals replicated.
 RMSU=  1.96D-08    CP:  1.00D+00  3.00D+00 -3.00D+00  3.00D+00 -3.00D+00
                    CP: -3.00D+00  3.00D+00  3.00D+00  1.79D+00  3.00D+00
                    CP: -3.00D+00  3.00D+00  3.00D+00  2.22D+00
 CoulSu:  requested number of processors reduced to:   7 ShMem   1 Linda.
 E= -4361.57926855378     Delta-E=        0.000000000133 Rises=F Damp=F
 DIIS: error= 1.37D-07 at cycle  35 NSaved=   7.
 NSaved= 7 IEnMin= 1 EnMin= -4361.57926855568     IErMin= 7 ErrMin= 1.37D-07
 ErrMax= 1.37D-07  0.00D+00 EMaxC= 1.00D-01 BMatC= 1.07D-12 BMatP= 9.17D-13
 IDIUse=1 WtCom= 1.00D+00 WtEn= 0.00D+00
 Large coefficients: NSaved=  7 BigCof=   11.64 CofMax=   10.00 Det=-6.99D-16
 Inversion failed.  Reducing to  6 matrices.
 Coeff-Com: -0.716D+01 0.579D+01 0.525D+01-0.407D+01-0.251D-01 0.122D+01
 Coeff:     -0.716D+01 0.579D+01 0.525D+01-0.407D+01-0.251D-01 0.122D+01
 Gap=     0.236 Goal=   None    Shift=    0.000
 Gap=     0.232 Goal=   None    Shift=    0.000
 RMSDP=1.47D-06 MaxDP=5.61D-05 DE= 1.33D-10 OVMax= 1.33D-04

 Cycle  36  Pass 1  IDiag  1:
 Density matrix breaks symmetry, PCut= 1.00D-04
 Density matrix has no symmetry -- integrals replicated.
 RMSU=  8.76D-08    CP:  1.00D+00  3.00D+00 -3.00D+00  3.00D+00 -3.00D+00
                    CP: -3.00D+00  3.00D+00  3.00D+00  2.00D+00  3.00D+00
                    CP: -3.00D+00  3.00D+00  3.00D+00  3.00D+00  1.86D+00
 CoulSu:  requested number of processors reduced to:   7 ShMem   1 Linda.
 E= -4361.57926855366     Delta-E=        0.000000000125 Rises=F Damp=F
 DIIS: error= 1.37D-07 at cycle  36 NSaved=   7.
 NSaved= 7 IEnMin= 1 EnMin= -4361.57926855568     IErMin= 7 ErrMin= 1.37D-07
 ErrMax= 1.37D-07  0.00D+00 EMaxC= 1.00D-01 BMatC= 1.80D-12 BMatP= 9.17D-13
 IDIUse=1 WtCom= 1.00D+00 WtEn= 0.00D+00
 Coeff-Com:  0.911D-01-0.339D+00 0.196D+00 0.631D+00-0.643D+01 0.183D+01
 Coeff-Com:  0.502D+01
 Coeff:      0.911D-01-0.339D+00 0.196D+00 0.631D+00-0.643D+01 0.183D+01
 Coeff:      0.502D+01
 Gap=     0.236 Goal=   None    Shift=    0.000
 Gap=     0.232 Goal=   None    Shift=    0.000
 RMSDP=1.27D-05 MaxDP=4.84D-04 DE= 1.25D-10 OVMax= 1.15D-03

 Cycle  37  Pass 1  IDiag  1:
 Density matrix breaks symmetry, PCut= 1.00D-04
 Density matrix has no symmetry -- integrals replicated.
 RMSU=  5.90D-06    CP:  1.00D+00  3.00D+00 -3.00D+00  3.00D+00 -3.00D+00
                    CP: -3.00D+00  3.00D+00  3.00D+00  3.00D+00  3.00D+00
                    CP: -3.00D+00  3.00D+00  3.00D+00  3.00D+00  3.00D+00
                    CP:  3.00D+00
 CoulSu:  requested number of processors reduced to:   7 ShMem   1 Linda.
 E= -4361.57926855271     Delta-E=        0.000000000954 Rises=F Damp=F
 DIIS: error= 1.04D-07 at cycle  37 NSaved=   8.
 NSaved= 8 IEnMin= 1 EnMin= -4361.57926855568     IErMin= 8 ErrMin= 1.04D-07
 ErrMax= 1.04D-07  0.00D+00 EMaxC= 1.00D-01 BMatC= 7.93D-13 BMatP= 9.17D-13
 IDIUse=1 WtCom= 1.00D+00 WtEn= 0.00D+00
 Coeff-Com:  0.120D+01-0.986D+00-0.978D+00 0.151D+01 0.574D+01-0.254D+01
 Coeff-Com: -0.548D+01 0.254D+01
 Coeff:      0.120D+01-0.986D+00-0.978D+00 0.151D+01 0.574D+01-0.254D+01
 Coeff:     -0.548D+01 0.254D+01
 Gap=     0.236 Goal=   None    Shift=    0.000
 Gap=     0.232 Goal=   None    Shift=    0.000
 RMSDP=1.99D-06 MaxDP=7.64D-05 DE= 9.54D-10 OVMax= 1.81D-04

 Cycle  38  Pass 1  IDiag  1:
 Density matrix breaks symmetry, PCut= 1.00D-04
 Density matrix has no symmetry -- integrals replicated.
 RMSU=  3.45D-07    CP:  1.00D+00  3.00D+00 -3.00D+00  3.00D+00 -3.00D+00
[...]
       Virtual   (?C) (?C) (?C) (A1G) (?C) (?C) (?C) (?B) (?B)
                 (?B) (?B) (?B) (?B) (?C) (?C) (?C) (?B) (?B) (?B)
                 (?B) (?B) (?C) (?C) (?C) (?C) (?C) (?C) (?C) (?C)
                 (?C) (?C) (?D) (?D) (?D) (?D) (?D) (?D) (?E) (?E)
                 (?E) (?E) (?E) (?E) (?E) (?D) (?D) (?D) (?D) (?D)
                 (?D) (?D) (?D) (?D)
 Beta  Orbitals:
       Occupied  (A1G) (A1G) (T1U) (T1U) (T1U) (A1G) (T1U) (T1U)
                 (T1U) (?A) (?A) (?A) (?A) (?A) (A1G) (T1U) (T1U)
                 (T1U) (?B)
       Virtual   (?B) (?B) (?B) (?B) (?B) (?C) (?C) (?C) (?B) (?B)
                 (?B) (?B) (?C) (?C) (?C) (?B) (?B) (?B) (?C) (?C)
                 (?C) (?B) (?B) (?B) (?B) (?B) (?C) (?C) (?C) (?C)
                 (?C) (?C) (?C) (?C) (?C) (?C) (?D) (?D) (?D) (?D)
                 (?D) (?D) (?C) (?C) (?C) (?C) (?C) (?C) (?C) (?D)
                 (?D) (?D) (?D) (?D) (?D) (?D) (?D) (?D)
    24 initial guesses have been made.
 Convergence on wavefunction:    0.001000000000000
 Davidson Disk Diagonalization:  ConvIn= 1.00D-03 SkipCon=T Conv= 1.00D-03.
 Max sub-space:  2000 roots to seek:    24 dimension of matrix:         2374
 Iteration     1 Dimension    24 NMult     0 NNew     24
 Estimated number of processors is:    7
 CISAX will form     3 AO SS matrices at one time.
 NMat=     3 NSing=     3 JSym2X= 2.
 FoFJK:  IHMeth= 1 ICntrl=       0 DoSepK=F KAlg= 0 I1Cent=           0 FoldK=F
 IRaf= 990000000 NMat=       3 IRICut=       1 DoRegI=T DoRafI=F ISym2E= 2 IDoP0=0 IntGTp=1.
 FoFCou: FMM=F IPFlag=           0 FMFlag=      100000 FMFlg1=           0
         NFxFlg=           0 DoJE=F BraDBF=F KetDBF=F FulRan=T
         wScrn=  0.000000 ICntrl=         0 IOpCl=  1 I1Cent=           0 NGrid=           0
         NMat0=    3 NMatS0=      3 NMatT0=    0 NMatD0=    3 NMtDS0=    0 NMtDT0=    0
 Integrals replicated using symmetry in FoFCou.
 CoulSu:  requested number of processors reduced to:   8 ShMem   1 Linda.
 Defaulting to unpruned grid for atomic number  44.
 Defaulting to unpruned grid for atomic number  44.
 Defaulting to unpruned grid for atomic number  44.
 Defaulting to unpruned grid for atomic number  44.
 Defaulting to unpruned grid for atomic number  44.
 Defaulting to unpruned grid for atomic number  44.
 Defaulting to unpruned grid for atomic number  44.
 Defaulting to unpruned grid for atomic number  44.
 Defaulting to unpruned grid for atomic number  44.
 Defaulting to unpruned grid for atomic number  44.
 Defaulting to unpruned grid for atomic number  44.
 Defaulting to unpruned grid for atomic number  44.
 Defaulting to unpruned grid for atomic number  44.
 Defaulting to unpruned grid for atomic number  44.
 Defaulting to unpruned grid for atomic number  44.
 Defaulting to unpruned grid for atomic number  44.
 Defaulting to unpruned grid for atomic number  44.
 Defaulting to unpruned grid for atomic number  44.
 Defaulting to unpruned grid for atomic number  44.
 Defaulting to unpruned grid for atomic number  44.
 Defaulting to unpruned grid for atomic number  44.
 Defaulting to unpruned grid for atomic number  44.
 Defaulting to unpruned grid for atomic number  44.
 Defaulting to unpruned grid for atomic number  44.
 Defaulting to unpruned grid for atomic number  44.
 Defaulting to unpruned grid for atomic number  44.
 Defaulting to unpruned grid for atomic number  44.
 Defaulting to unpruned grid for atomic number  44.
 Defaulting to unpruned grid for atomic number  44.
 Defaulting to unpruned grid for atomic number  44.
 Defaulting to unpruned grid for atomic number  44.
 Defaulting to unpruned grid for atomic number  44.
 Defaulting to unpruned grid for atomic number  44.
 Defaulting to unpruned grid for atomic number  44.
 Defaulting to unpruned grid for atomic number  44.
 Defaulting to unpruned grid for atomic number  44.
 Defaulting to unpruned grid for atomic number  44.
 Defaulting to unpruned grid for atomic number  44.
 Defaulting to unpruned grid for atomic number  44.
 Defaulting to unpruned grid for atomic number  44.
 Defaulting to unpruned grid for atomic number  44.
 Defaulting to unpruned grid for atomic number  44.
 Defaulting to unpruned grid for atomic number  44.
 Defaulting to unpruned grid for atomic number  44.
 Defaulting to unpruned grid for atomic number  44.
 Defaulting to unpruned grid for atomic number  44.
 Defaulting to unpruned grid for atomic number  44.
 Defaulting to unpruned grid for atomic number  44.
 NMat=     3 NSing=     3 JSym2X= 2.
 CoulSu:  requested number of processors reduced to:   8 ShMem   1 Linda.
 NMat=     3 NSing=     3 JSym2X= 2.
 CoulSu:  requested number of processors reduced to:   8 ShMem   1 Linda.
 NMat=     3 NSing=     3 JSym2X= 2.
 CoulSu:  requested number of processors reduced to:   8 ShMem   1 Linda.
 NMat=     3 NSing=     3 JSym2X= 2.
 CoulSu:  requested number of processors reduced to:   8 ShMem   1 Linda.
 NMat=     3 NSing=     3 JSym2X= 2.
 CoulSu:  requested number of processors reduced to:   8 ShMem   1 Linda.
 NMat=     3 NSing=     3 JSym2X= 2.
 CoulSu:  requested number of processors reduced to:   8 ShMem   1 Linda.
 NMat=     3 NSing=     3 JSym2X= 2.
 CoulSu:  requested number of processors reduced to:   8 ShMem   1 Linda.
 New state      1 was old state      2
 Excitation Energies [eV] at current iteration:
 Root      1 :     0.506570849855183
 Root      2 :     0.530341137205401
 Root      3 :     0.791182783644834
 Root      4 :     0.811788006032025
 Root      5 :     4.965734954616699
 Root      6 :     4.966465546667438
 Root      7 :     5.118961049687512
 Root      8 :     5.274334293142424
 Root      9 :     8.474685363998702
 Root     10 :     8.474712523835150
 Root     11 :     8.510857563501700
 Root     12 :     8.510962250289920
 Root     13 :     8.645256409011955
 Root     14 :     8.693696018410687
 Root     15 :     8.808269182078904
 Root     16 :     8.909518972504683
 Root     17 :     9.254647251605464
 Root     18 :     9.906248320914742
 Root     19 :     9.906507836993597
 Root     20 :    10.017055093644970
 Root     21 :    10.318688577924060
 Root     22 :    10.323095565403210
 Root     23 :    10.945197535105210
 Root     24 :    10.989163404049160
 Iteration     2 Dimension    48 NMult    24 NNew     24
 Estimated number of processors is:    7
 CISAX will form     3 AO SS matrices at one time.
 NMat=     3 NSing=     3 JSym2X= 2.
 CoulSu:  requested number of processors reduced to:   8 ShMem   1 Linda.
 NMat=     3 NSing=     3 JSym2X= 2.
 CoulSu:  requested number of processors reduced to:   8 ShMem   1 Linda.
 NMat=     3 NSing=     3 JSym2X= 2.
 CoulSu:  requested number of processors reduced to:   8 ShMem   1 Linda.
 NMat=     3 NSing=     3 JSym2X= 2.
 CoulSu:  requested number of processors reduced to:   8 ShMem   1 Linda.
 NMat=     3 NSing=     3 JSym2X= 2.
 CoulSu:  requested number of processors reduced to:   8 ShMem   1 Linda.
 NMat=     3 NSing=     3 JSym2X= 2.
 CoulSu:  requested number of processors reduced to:   8 ShMem   1 Linda.
 NMat=     3 NSing=     3 JSym2X= 2.
 CoulSu:  requested number of processors reduced to:   8 ShMem   1 Linda.
 NMat=     3 NSing=     3 JSym2X= 2.
 CoulSu:  requested number of processors reduced to:   8 ShMem   1 Linda.
 Root      1 not converged, maximum delta is    0.101354201564507
 Excitation Energies [eV] at current iteration:
 Root      1 :     0.017108211925671   Change is   -0.489462637929512
 Root      2 :     0.026419024861037   Change is   -0.503922112344364
 Root      3 :     0.161822287206676   Change is   -0.629360496438158
 Root      4 :     0.168062266972993   Change is   -0.643725739059032
 Root      5 :     4.411036372900075   Change is   -0.554698581716624
 Root      6 :     4.411220410018942   Change is   -0.555245136648496
 Root      7 :     4.589648657811725   Change is   -0.529312391875789
 Root      8 :     5.084400955996093   Change is   -0.189933337146331
 Root      9 :     8.286917781194580   Change is   -0.406778237216107
 Root     10 :     8.361898810108141   Change is   -0.547620162396543
 Root     11 :     8.405071747556455   Change is   -0.069640776278694
 Root     12 :     8.405079226197808   Change is   -0.069606137800894
 Root     13 :     8.443690836485295   Change is   -0.067166727016405
 Root     14 :     8.443783834144300   Change is   -0.067178416145619
 Root     15 :     8.468257122810186   Change is   -0.340012059268718
 Root     16 :     8.560976236290712   Change is   -0.084280172721243
 Root     17 :     8.837985717554401   Change is   -0.416661534051063
 Root     18 :     9.595470701132768   Change is   -0.311037135860829
 Root     19 :     9.595647215924943   Change is   -0.310601104989799
 Root     20 :     9.754527778164752   Change is   -0.262527315480221
 Root     21 :     9.802579973156186   Change is   -0.516108604767869
 Root     22 :     9.806915152866724   Change is   -0.516180412536489
 Root     23 :    10.267166857835680   Change is   -0.721996546213483
 Root     24 :    10.532658629178830   Change is   -0.412538905926378
 Iteration     3 Dimension    51 NMult    48 NNew      3
 Estimated number of processors is:    7
 CISAX will form     3 AO SS matrices at one time.
 NMat=     3 NSing=     3 JSym2X= 2.
 CoulSu:  requested number of processors reduced to:   8 ShMem   1 Linda.
 Root      1 not converged, maximum delta is    0.010169664002075
 Excitation Energies [eV] at current iteration:
 Root      1 :     0.012662553580149   Change is   -0.004445658345522
 Root      2 :     0.022499589400843   Change is   -0.003919435460194
 Root      3 :     0.153197223778404   Change is   -0.008625063428272
 Iteration     4 Dimension    54 NMult    51 NNew      3
 Estimated number of processors is:    7
 CISAX will form     3 AO SS matrices at one time.
 NMat=     3 NSing=     3 JSym2X= 2.
 CoulSu:  requested number of processors reduced to:   8 ShMem   1 Linda.
 Root      1 has converged.
 Excitation Energies [eV] at current iteration:
 Root      1 :     0.012586865339464   Change is   -0.000075688240685
 Root      2 :     0.022437240359977   Change is   -0.000062349040866
 Root      3 :     0.153016844478202   Change is   -0.000180379300203
 Convergence achieved on expansion vectors.
 ***********************************************************************
 Stability analysis using <AA,BB:AA,BB> singles matrix:
 ***********************************************************************
 1PDM for each excited state written to RWF  633
 Ground to excited state transition densities written to RWF  633

 Eigenvectors of the stability matrix:
 
 Excited state symmetry could not be determined.
 Eigenvector   1:  6.001-?Sym  Eigenvalue= 0.0004626  <S**2>=8.753
     19B -> 20B        0.20176
     19B -> 21B        0.96425
     19B -> 36B       -0.10154
 The wavefunction is stable under the perturbations considered.
 Leave Link  914 at Sat Apr 17 00:07:42 2021, MaxMem=   104857600 cpu:            2396.3 elap:             180.9
 (Enter /s/ls4/users/knvvv/bin/g16sse/l508.exe)
 The wavefunction is already stable.
 Leave Link  508 at Sat Apr 17 00:07:42 2021, MaxMem=   104857600 cpu:               2.2 elap:               0.1
 (Enter /s/ls4/users/knvvv/bin/g16sse/l601.exe)
 Copying SCF densities to generalized density rwf, IOpCl= 1 IROHF=0.
 SCF density gives NOpUse=  1 NOpAll= 48.
 Marking SCF density as not fully symmetric.

 **********************************************************************

            Population analysis using the SCF density.

 **********************************************************************

 Orbital symmetries:
 Alpha Orbitals:
       Occupied  (A1G) (A1G) (T1U) (T1U) (T1U) (A1G) (T1U) (T1U)
                 (T1U) (?A) (?A) (?A) (?A) (?A) (?B) (?C) (?C)
                 (?C) (?B) (?B) (?B) (?B) (?B) (?B)
       Virtual   (?C) (?C) (?C) (A1G) (?C) (?C) (?C) (?B) (?B)
                 (?B) (?B) (?B) (?B) (?C) (?C) (?C) (?B) (?B) (?B)
                 (?B) (?B) (?C) (?C) (?C) (?C) (?C) (?C) (?C) (?C)
                 (?C) (?C) (?D) (?D) (?D) (?D) (?D) (?D) (?E) (?E)
                 (?E) (?E) (?E) (?E) (?E) (?D) (?D) (?D) (?D) (?D)
                 (?D) (?D) (?D) (?D)
 Beta  Orbitals:
       Occupied  (A1G) (A1G) (T1U) (T1U) (T1U) (A1G) (T1U) (T1U)
                 (T1U) (?A) (?A) (?A) (?A) (?A) (A1G) (T1U) (T1U)
                 (T1U) (?B)
       Virtual   (?B) (?B) (?B) (?B) (?B) (?C) (?C) (?C) (?B) (?B)
                 (?B) (?B) (?C) (?C) (?C) (?B) (?B) (?B) (?C) (?C)
                 (?C) (?B) (?B) (?B) (?B) (?B) (?C) (?C) (?C) (?C)
                 (?C) (?C) (?C) (?C) (?C) (?C) (?D) (?D) (?D) (?D)
                 (?D) (?D) (?C) (?C) (?C) (?C) (?C) (?C) (?C) (?D)
                 (?D) (?D) (?D) (?D) (?D) (?D) (?D) (?D)
 Unable to determine electronic state:  an orbital has unidentified symmetry.
 Alpha  occ. eigenvalues -- -753.65138-107.33788-103.89816-103.89814-103.88810
 Alpha  occ. eigenvalues --  -19.43649 -17.30632 -17.30630 -17.28545 -11.26868
 Alpha  occ. eigenvalues --  -11.26868 -11.25707 -11.25705 -11.24511  -3.17624
 Alpha  occ. eigenvalues --   -2.39853  -2.39847  -2.35513  -0.79166  -0.79166
 Alpha  occ. eigenvalues --   -0.77237  -0.77234  -0.74403  -0.45791
 Alpha virt. eigenvalues --   -0.21704  -0.21702  -0.20635  -0.07886  -0.06064
 Alpha virt. eigenvalues --   -0.06063  -0.05777  -0.01550  -0.01550  -0.01229
 Alpha virt. eigenvalues --   -0.01228  -0.00972   0.24302   0.34404   0.34406
 Alpha virt. eigenvalues --    0.35881   0.44737   0.44737   0.45529   0.45530
 Alpha virt. eigenvalues --    0.46467   0.70988   0.70988   0.71595   0.71595
 Alpha virt. eigenvalues --    0.73396   0.73398   0.74148   1.98349   1.98353
 Alpha virt. eigenvalues --    2.00982   2.50367   2.50367   2.51786   2.51788
 Alpha virt. eigenvalues --    2.53841   2.73418   2.82885   2.82885   2.84061
 Alpha virt. eigenvalues --    2.84061   2.86461   2.86465   2.87695   3.30439
 Alpha virt. eigenvalues --    3.30439   3.30937   3.30937   3.32593   3.32593
 Alpha virt. eigenvalues --    3.34162   3.34165   3.34549
  Beta  occ. eigenvalues -- -753.64869-107.30881-103.86921-103.86921-103.86546
  Beta  occ. eigenvalues --  -19.41330 -17.28376 -17.28374 -17.26858 -11.22805
  Beta  occ. eigenvalues --  -11.22533 -11.22533 -11.21374 -11.21373  -3.04473
  Beta  occ. eigenvalues --   -2.21933  -2.21517  -2.21516  -0.66269
  Beta virt. eigenvalues --   -0.43079  -0.43073  -0.42637  -0.42635  -0.36752
  Beta virt. eigenvalues --   -0.24168  -0.24143  -0.22056  -0.02543  -0.01713
  Beta virt. eigenvalues --   -0.00368  -0.00278  -0.00252  -0.00246   0.00187
  Beta virt. eigenvalues --    0.03938   0.04030   0.26693   0.31468   0.31515
  Beta virt. eigenvalues --    0.32790   0.39014   0.39021   0.40172   0.40187
  Beta virt. eigenvalues --    0.45026   0.67992   0.67993   0.73512   0.73826
  Beta virt. eigenvalues --    0.73826   0.76014   0.76016   2.03204   2.03215
  Beta virt. eigenvalues --    2.05457   2.57843   2.59429   2.59436   2.62716
  Beta virt. eigenvalues --    2.62724   2.77942   2.89075   2.89076   2.91732
  Beta virt. eigenvalues --    2.91732   2.92125   2.93596   2.93597   3.38775
  Beta virt. eigenvalues --    3.38775   3.39905   3.39905   3.40522   3.40525
  Beta virt. eigenvalues --    3.40552   3.40552   3.40637
          Condensed to atoms (all electrons):
               1
     1  Ru  43.000000
          Atomic-Atomic Spin Densities.
               1
     1  Ru   5.000000
 Mulliken charges and spin densities:
               1          2
     1  Ru   1.000000   5.000000
 Sum of Mulliken charges =   1.00000   5.00000
 Mulliken charges and spin densities with hydrogens summed into heavy atoms:
               1          2
     1  Ru   1.000000   5.000000
 Electronic spatial extent (au):  <R**2>=             43.0779
 Charge=              1.0000 electrons
 Dipole moment (field-independent basis, Debye):
    X=             -0.0000    Y=             -0.0000    Z=              0.0000  Tot=              0.0000
 Quadrupole moment (field-independent basis, Debye-Ang):
   XX=            -19.3926   YY=            -19.3677   ZZ=            -19.1810
   XY=             -0.3080   XZ=              0.1883   YZ=              0.1800
 Traceless Quadrupole moment (field-independent basis, Debye-Ang):
   XX=             -0.0788   YY=             -0.0540   ZZ=              0.1328
   XY=             -0.3080   XZ=              0.1883   YZ=              0.1800
 Octapole moment (field-independent basis, Debye-Ang**2):
  XXX=             -0.0000  YYY=             -0.0000  ZZZ=              0.0000  XYY=             -0.0000
  XXY=             -0.0000  XXZ=              0.0000  XZZ=             -0.0000  YZZ=             -0.0000
  YYZ=              0.0000  XYZ=              0.0000
 Hexadecapole moment (field-independent basis, Debye-Ang**3):
 XXXX=            -24.3042 YYYY=            -24.2883 ZZZZ=            -24.3194 XXXY=             -0.1134
 XXXZ=              0.0693 YYYX=             -0.0833 YYYZ=              0.0487 ZZZX=             -0.0826
 ZZZY=             -0.0797 XXYY=             -8.3412 XXZZ=             -8.1654 YYZZ=             -8.1624
 XXYZ=              0.1699 YYXZ=              0.1591 ZZXY=             -0.0411
 N-N= 0.000000000000D+00 E-N=-1.107703270239D+04  KE= 5.028471203599D+03
                          Isotropic Fermi Contact Couplings
        Atom                 a.u.       MegaHertz       Gauss      10(-4) cm-1
     1  Ru(99)            76.98253   -3160.54709   -1127.76180   -1054.24503
 PrsmSu:  requested number of processors reduced to:   8 ShMem   1 Linda.
 --------------------------------------------------------
       Center         ----  Spin Dipole Couplings  ----
                      3XX-RR        3YY-RR        3ZZ-RR
 --------------------------------------------------------
     1   Atom       -0.532300     -0.363508      0.895809
 --------------------------------------------------------
                        XY            XZ            YZ
 --------------------------------------------------------
     1   Atom       -2.080026      1.270296      1.215525
 --------------------------------------------------------


 ---------------------------------------------------------------------------------
              Anisotropic Spin Dipole Couplings in Principal Axis System
 ---------------------------------------------------------------------------------

       Atom             a.u.   MegaHertz   Gauss  10(-4) cm-1        Axes

              Baa    -3.2714    80.160    28.603    26.738  0.6647  0.6380 -0.3887
     1 Ru(99) Bbb     1.6323   -39.997   -14.272   -13.341 -0.4769  0.7629  0.4366
              Bcc     1.6391   -40.163   -14.331   -13.397  0.5751 -0.1048  0.8114
 

 ---------------------------------------------------------------------------------

 PrsmSu:  requested number of processors reduced to:   8 ShMem   1 Linda.
 No NMR shielding tensors so no spin-rotation constants.
 Leave Link  601 at Sat Apr 17 00:07:52 2021, MaxMem=   104857600 cpu:             444.5 elap:               9.8
 (Enter /s/ls4/users/knvvv/bin/g16sse/l9999.exe)

 Test job not archived.
 1\1\GINC-N156\Stability\UM062X\Gen\Ru1(1+,6)\KNVVV\17-Apr-2021\0\\#P M
 062X/GEN Integral=UltraFineGrid SCF=NoSymm Stable=(RExt, Opt) IOp(1/33
 =1)\\Database calculations.\\1,6\Ru,0,0.,0.,0.\\Version=ES64L-G16RevA.
 03\HF=-4361.5801496\S2=8.753139\S2-1=0.\S2A=8.750001\RMSD=7.492e-09\Di
 pole=0.0000002,-0.0000003,0.0000003\Quadrupole=0.0987025,-0.0401141,-0
 .0585884,0.1337975,-0.1399774,0.2289749\PG=OH [O(Ru1)]\\@


 "THE TIME HAS COME", THE WALRUS SAID,
 "TO TALK OF MANY THINGS,
 OF SHOES AND SHIPS AND SEALING WAX,
 OF CABBAGES AND KINGS,
 AND WHY THE SEA IS BOILING HOT,
 AND WHETHER PIGS HAVE WINGS."
 Job cpu time:       0 days 17 hours 18 minutes 34.0 seconds.
 Elapsed time:       0 days  1 hours 16 minutes 45.2 seconds.
 File lengths (MBytes):  RWF=     86 Int=      0 D2E=      0 Chk=      3 Scr=      1
 Normal termination of Gaussian 16 at Sat Apr 17 00:07:52 2021.
