 Entering Gaussian System, Link 0=/s/ls4/users/knvvv/bin/g16sse/g16
 Input=data/database/M062X--def2-QZVPPD--49_hcnts_BH76.gjf
 Output=data/database/M062X--def2-QZVPPD--49_hcnts_BH76.log
 Initial command:
 /s/ls4/users/knvvv/bin/g16sse/l1.exe "/s/ls4/users/knvvv/bin/scratch/Gau-41468.inp" -scrdir="/s/ls4/users/knvvv/bin/scratch/"
 Entering Link 1 = /s/ls4/users/knvvv/bin/g16sse/l1.exe PID=     41469.
  
 Copyright (c) 1988,1990,1992,1993,1995,1998,2003,2009,2016,
            Gaussian, Inc.  All Rights Reserved.
  
 This is part of the Gaussian(R) 16 program.  It is based on
 the Gaussian(R) 09 system (copyright 2009, Gaussian, Inc.),
 the Gaussian(R) 03 system (copyright 2003, Gaussian, Inc.),
 the Gaussian(R) 98 system (copyright 1998, Gaussian, Inc.),
 the Gaussian(R) 94 system (copyright 1995, Gaussian, Inc.),
 the Gaussian 92(TM) system (copyright 1992, Gaussian, Inc.),
 the Gaussian 90(TM) system (copyright 1990, Gaussian, Inc.),
 the Gaussian 88(TM) system (copyright 1988, Gaussian, Inc.),
 the Gaussian 86(TM) system (copyright 1986, Carnegie Mellon
 University), and the Gaussian 82(TM) system (copyright 1983,
 Carnegie Mellon University). Gaussian is a federally registered
 trademark of Gaussian, Inc.
  
 This software contains proprietary and confidential information,
 including trade secrets, belonging to Gaussian, Inc.
  
 This software is provided under written license and may be
 used, copied, transmitted, or stored only in accord with that
 written license.
  
 The following legend is applicable only to US Government
 contracts under FAR:
  
                    RESTRICTED RIGHTS LEGEND
  
 Use, reproduction and disclosure by the US Government is
 subject to restrictions as set forth in subparagraphs (a)
 and (c) of the Commercial Computer Software - Restricted
 Rights clause in FAR 52.227-19.
  
 Gaussian, Inc.
 340 Quinnipiac St., Bldg. 40, Wallingford CT 06492
  
  
 ---------------------------------------------------------------
 Warning -- This program may not be used in any manner that
 competes with the business of Gaussian, Inc. or will provide
 assistance to any competitor of Gaussian, Inc.  The licensee
 of this program is prohibited from giving any competitor of
 Gaussian, Inc. access to this program.  By using this program,
 the user acknowledges that Gaussian, Inc. is engaged in the
 business of creating and licensing software in the field of
 computational chemistry and represents and warrants to the
 licensee that it is not a competitor of Gaussian, Inc. and that
 it will not use this program in any manner prohibited above.
 ---------------------------------------------------------------
  

 Cite this work as:
 Gaussian 16, Revision A.03,
 M. J. Frisch, G. W. Trucks, H. B. Schlegel, G. E. Scuseria, 
 M. A. Robb, J. R. Cheeseman, G. Scalmani, V. Barone, 
 G. A. Petersson, H. Nakatsuji, X. Li, M. Caricato, A. V. Marenich, 
 J. Bloino, B. G. Janesko, R. Gomperts, B. Mennucci, H. P. Hratchian, 
 J. V. Ortiz, A. F. Izmaylov, J. L. Sonnenberg, D. Williams-Young, 
 F. Ding, F. Lipparini, F. Egidi, J. Goings, B. Peng, A. Petrone, 
 T. Henderson, D. Ranasinghe, V. G. Zakrzewski, J. Gao, N. Rega, 
 G. Zheng, W. Liang, M. Hada, M. Ehara, K. Toyota, R. Fukuda, 
 J. Hasegawa, M. Ishida, T. Nakajima, Y. Honda, O. Kitao, H. Nakai, 
 T. Vreven, K. Throssell, J. A. Montgomery, Jr., J. E. Peralta, 
 F. Ogliaro, M. J. Bearpark, J. J. Heyd, E. N. Brothers, K. N. Kudin, 
 V. N. Staroverov, T. A. Keith, R. Kobayashi, J. Normand, 
 K. Raghavachari, A. P. Rendell, J. C. Burant, S. S. Iyengar, 
 J. Tomasi, M. Cossi, J. M. Millam, M. Klene, C. Adamo, R. Cammi, 
 J. W. Ochterski, R. L. Martin, K. Morokuma, O. Farkas, 
 J. B. Foresman, and D. J. Fox, Gaussian, Inc., Wallingford CT, 2016.
 
 ******************************************
 Gaussian 16:  ES64L-G16RevA.03 25-Dec-2016
                18-Apr-2021 
 ******************************************
 %RWF=temp23_38354,70GB
 %nprocshared=48
 Will use up to   48 processors via shared memory.
 Default route: MaxDisk=80GB
 ----------------------------------------------------------------------
 #P M062X/GEN Integral=UltraFineGrid SCF=NoSymm Stable=(RExt, Opt) IOp(
 1/33=1)
 ----------------------------------------------------------------------
 1/33=1,38=1,172=1/1;
 2/12=2,17=6,18=5,40=1/2;
 3/5=7,11=2,25=1,30=1,74=-55,75=-5/1,2,3;
 4/9=2/1;
 5/5=2,38=5/2;
 6/7=2,8=2,9=2,10=2,28=1/1;
 8/6=1,10=90,11=11/1;
 9/8=-3,42=1,46=1/14;
 5/5=2,8=3,17=40,38=5/8(-2);
 6/7=2,8=2,9=2,10=2,28=1/1;
 99/5=1,9=1/99;
 Leave Link    1 at Sun Apr 18 02:42:15 2021, MaxMem=           0 cpu:              10.9 elap:               0.3
 (Enter /s/ls4/users/knvvv/bin/g16sse/l101.exe)
 ONIOM data not found on unit 2.
 ----------------------
 Database calculations.
 ----------------------
 TstMul:  ICh=     0
 TstMul:  Mul=     1
 TstMul:  ICh=     0
 TstMul:  Mul=     1
 Symbolic Z-matrix:
 Charge =  0 Multiplicity = 1
 C                     0.08032   0.62026   0. 
 N                     0.08032  -0.56809   0. 
 H                    -1.04415   0.25512   0. 
 
 RdStrC is calling ZToCFu for IStruc=1 NZ=     3.
 PrtBox:  NBox=     1 Levels=  1 BoxLen=    8.00 SMaxX=        2.25
          Shift=            1.973150            1.073540            0.000000
 Box      1 Number                   0 centers from      1 to      3:
 After GenITR:
 ITRead=  0  0  0
 MicOpt= -1 -1 -1
 ITRead=  0  0  0
 MicOpt= -1 -1 -1
 NAtoms=      3 NQM=        3 NQMF=       0 NMMI=      0 NMMIF=      0
                NMic=       0 NMicF=      0.
                    Isotopes and Nuclear Properties:
 (Nuclear quadrupole moments (NQMom) in fm**2, nuclear magnetic moments (NMagM)
  in nuclear magnetons)

  Atom         1           2           3
 IAtWgt=          12          14           1
 AtmWgt=  12.0000000  14.0030740   1.0078250
 NucSpn=           0           2           1
 AtZEff=  -0.0000000  -0.0000000  -0.0000000
 NQMom=    0.0000000   2.0440000   0.0000000
 NMagM=    0.0000000   0.4037610   2.7928460
 AtZNuc=   6.0000000   7.0000000   1.0000000
 No MM parameters found.
 Leave Link  101 at Sun Apr 18 02:42:16 2021, MaxMem=   104857600 cpu:              23.1 elap:               0.7
 (Enter /s/ls4/users/knvvv/bin/g16sse/l202.exe)
                          Input orientation:                          
 ---------------------------------------------------------------------
 Center     Atomic      Atomic             Coordinates (Angstroms)
 Number     Number       Type             X           Y           Z
 ---------------------------------------------------------------------
      1          6           0        0.080319    0.620259    0.000000
      2          7           0        0.080319   -0.568093    0.000000
      3          1           0       -1.044146    0.255121    0.000000
 ---------------------------------------------------------------------
                    Distance matrix (angstroms):
                    1          2          3
     1  C    0.000000
     2  N    1.188352   0.000000
     3  H    1.182264   1.393594   0.000000
 Stoichiometry    CHN
 Framework group  CS[SG(CHN)]
 Deg. of freedom     3
 Full point group                 CS      NOp   2
 Largest Abelian subgroup         CS      NOp   2
 Largest concise Abelian subgroup C1      NOp   1
                         Standard orientation:                         
 ---------------------------------------------------------------------
 Center     Atomic      Atomic             Coordinates (Angstroms)
 Number     Number       Type             X           Y           Z
 ---------------------------------------------------------------------
      1          6           0        0.080319    0.620257    0.000000
      2          7           0        0.080319   -0.568095    0.000000
      3          1           0       -1.044146    0.255119    0.000000
 ---------------------------------------------------------------------
 Rotational constants (GHZ):         415.7753317          54.8709834          48.4737702
 Leave Link  202 at Sun Apr 18 02:42:17 2021, MaxMem=   104857600 cpu:               9.9 elap:               0.3
 (Enter /s/ls4/users/knvvv/bin/g16sse/l301.exe)
 General basis read from cards:  (5D, 7F)
 Centers:       3
 S 4 1.00
     Exponent=  1.9069169000D+02 Coefficients=  7.0815167000D-04
     Exponent=  2.8605532000D+01 Coefficients=  5.4678827000D-03
     Exponent=  6.5095943000D+00 Coefficients=  2.7966605000D-02
     Exponent=  1.8412455000D+00 Coefficients=  1.0764538000D-01
 S 1 1.00
     Exponent=  5.9853725000D-01 Coefficients=  1.0000000000D+00
 S 1 1.00
     Exponent=  2.1397624000D-01 Coefficients=  1.0000000000D+00
 S 1 1.00
     Exponent=  8.0316286000D-02 Coefficients=  1.0000000000D+00
 P 1 1.00
     Exponent=  2.2920000000D+00 Coefficients=  1.0000000000D+00
 P 1 1.00
     Exponent=  8.3800000000D-01 Coefficients=  1.0000000000D+00
 P 1 1.00
     Exponent=  2.9200000000D-01 Coefficients=  1.0000000000D+00
 P 1 1.00
     Exponent=  8.4063199228D-02 Coefficients=  1.0000000000D+00
 D 1 1.00
     Exponent=  2.0620000000D+00 Coefficients=  1.0000000000D+00
 D 1 1.00
     Exponent=  6.6200000000D-01 Coefficients=  1.0000000000D+00
 F 1 1.00
     Exponent=  1.3970000000D+00 Coefficients=  1.0000000000D+00
 ****
 Centers:       1
 S 8 1.00
     Exponent=  6.7025071029D+04 Coefficients=  3.8736308501D-05
     Exponent=  1.0039986538D+04 Coefficients=  3.0107917575D-04
     Exponent=  2.2849316911D+03 Coefficients=  1.5787918095D-03
     Exponent=  6.4714122130D+02 Coefficients=  6.6087087195D-03
     Exponent=  2.1109472335D+02 Coefficients=  2.3367123250D-02
     Exponent=  7.6177643862D+01 Coefficients=  7.0420716898D-02
     Exponent=  2.9633839163D+01 Coefficients=  1.7360344953D-01
     Exponent=  1.2187785081D+01 Coefficients=  3.2292305648D-01
 S 2 1.00
     Exponent=  5.3026006299D+01 Coefficients=  7.4897404492D-02
     Exponent=  1.5258502776D+01 Coefficients=  7.6136220983D-01
 S 1 1.00
     Exponent=  5.2403957464D+00 Coefficients=  1.0000000000D+00
 S 1 1.00
     Exponent=  2.2905022379D+00 Coefficients=  1.0000000000D+00
 S 1 1.00
     Exponent=  6.9673283006D-01 Coefficients=  1.0000000000D+00
 S 1 1.00
     Exponent=  2.7599337363D-01 Coefficients=  1.0000000000D+00
 S 1 1.00
     Exponent=  1.0739884389D-01 Coefficients=  1.0000000000D+00
 S 1 1.00
     Exponent=  4.4981404899D-02 Coefficients=  1.0000000000D+00
 P 5 1.00
     Exponent=  1.0512555082D+02 Coefficients=  8.4647553844D-04
     Exponent=  2.4884461066D+01 Coefficients=  6.6274038534D-03
     Exponent=  7.8637230826D+00 Coefficients=  3.0120390419D-02
     Exponent=  2.8407001835D+00 Coefficients=  9.9951435476D-02
     Exponent=  1.1227137335D+00 Coefficients=  2.3826299282D-01
 P 1 1.00
     Exponent=  4.6050725555D-01 Coefficients=  1.0000000000D+00
 P 1 1.00
     Exponent=  1.8937530913D-01 Coefficients=  1.0000000000D+00
 P 1 1.00
     Exponent=  7.5983791611D-02 Coefficients=  1.0000000000D+00
 D 1 1.00
     Exponent=  1.8480000000D+00 Coefficients=  1.0000000000D+00
 D 1 1.00
     Exponent=  6.4900000000D-01 Coefficients=  1.0000000000D+00
 D 1 1.00
     Exponent=  2.2800000000D-01 Coefficients=  1.0000000000D+00
 D 1 1.00
     Exponent=  7.6889830417D-02 Coefficients=  1.0000000000D+00
 F 1 1.00
     Exponent=  1.4190000000D+00 Coefficients=  1.0000000000D+00
 F 1 1.00
     Exponent=  4.8500000000D-01 Coefficients=  1.0000000000D+00
 G 1 1.00
     Exponent=  1.0110000000D+00 Coefficients=  1.0000000000D+00
 ****
 Centers:       2
 S 8 1.00
     Exponent=  9.0726889210D+04 Coefficients=  3.9257887368D-05
     Exponent=  1.3590528801D+04 Coefficients=  3.0513316455D-04
     Exponent=  3.0929883781D+03 Coefficients=  1.6000560446D-03
     Exponent=  8.7599876362D+02 Coefficients=  6.6982937306D-03
     Exponent=  2.8574469982D+02 Coefficients=  2.3690078765D-02
     Exponent=  1.0311913417D+02 Coefficients=  7.1455405268D-02
     Exponent=  4.0128556777D+01 Coefficients=  1.7632774876D-01
     Exponent=  1.6528095704D+01 Coefficients=  3.2677592815D-01
 S 2 1.00
     Exponent=  6.9390960983D+01 Coefficients=  8.0052094386D-02
     Exponent=  2.0428200596D+01 Coefficients=  7.8268063538D-01
 S 1 1.00
     Exponent=  7.1292587972D+00 Coefficients=  1.0000000000D+00
 S 1 1.00
     Exponent=  3.1324304893D+00 Coefficients=  1.0000000000D+00
 S 1 1.00
     Exponent=  9.8755778723D-01 Coefficients=  1.0000000000D+00
 S 1 1.00
     Exponent=  3.8765721307D-01 Coefficients=  1.0000000000D+00
 S 1 1.00
     Exponent=  1.4909883075D-01 Coefficients=  1.0000000000D+00
 S 1 1.00
     Exponent=  6.2151630318D-02 Coefficients=  1.0000000000D+00
 P 5 1.00
     Exponent=  1.5005742670D+02 Coefficients= -8.6216165986D-04
     Exponent=  3.5491599483D+01 Coefficients= -6.8571273236D-03
     Exponent=  1.1247864223D+01 Coefficients= -3.1795688855D-02
     Exponent=  4.0900305195D+00 Coefficients= -1.0537396822D-01
     Exponent=  1.6220573146D+00 Coefficients= -2.4519708041D-01
 P 1 1.00
     Exponent=  6.6442261530D-01 Coefficients=  1.0000000000D+00
 P 1 1.00
     Exponent=  2.7099770070D-01 Coefficients=  1.0000000000D+00
 P 1 1.00
     Exponent=  1.0688749984D-01 Coefficients=  1.0000000000D+00
 D 1 1.00
     Exponent=  2.8370000000D+00 Coefficients=  1.0000000000D+00
 D 1 1.00
     Exponent=  9.6800000000D-01 Coefficients=  1.0000000000D+00
 D 1 1.00
     Exponent=  3.3500000000D-01 Coefficients=  1.0000000000D+00
 D 1 1.00
     Exponent=  1.0825280010D-01 Coefficients=  1.0000000000D+00
 F 1 1.00
     Exponent=  2.0270000000D+00 Coefficients=  1.0000000000D+00
 F 1 1.00
     Exponent=  6.8500000000D-01 Coefficients=  1.0000000000D+00
 G 1 1.00
     Exponent=  1.4270000000D+00 Coefficients=  1.0000000000D+00
 ****
 Ernie: Thresh=  0.10000D-02 Tol=  0.10000D-05 Strict=F.
 There are   132 symmetry adapted cartesian basis functions of A'  symmetry.
 There are    64 symmetry adapted cartesian basis functions of A"  symmetry.
 There are   104 symmetry adapted basis functions of A'  symmetry.
 There are    55 symmetry adapted basis functions of A"  symmetry.
   159 basis functions,   239 primitive gaussians,   196 cartesian basis functions
     7 alpha electrons        7 beta electrons
       nuclear repulsion energy        24.0463711332 Hartrees.
 IExCor= 4336 DFT=T Ex+Corr=M062X ExCW=0 ScaHFX=  0.540000
 ScaDFX=  1.000000  1.000000  1.000000  1.000000 ScalE2=  1.000000  1.000000
 IRadAn=      5 IRanWt=     -1 IRanGd=            0 ICorTp=0 IEmpDi=  4
 NAtoms=    3 NActive=    3 NUniq=    3 SFac= 1.00D+00 NAtFMM=   60 NAOKFM=F Big=F
 Integral buffers will be    131072 words long.
 Raffenetti 2 integral format.
 Two-electron integral symmetry is turned on.
 Leave Link  301 at Sun Apr 18 02:42:18 2021, MaxMem=   104857600 cpu:              16.4 elap:               0.5
 (Enter /s/ls4/users/knvvv/bin/g16sse/l302.exe)
 NPDir=0 NMtPBC=     1 NCelOv=     1 NCel=       1 NClECP=     1 NCelD=      1
         NCelK=      1 NCelE2=     1 NClLst=     1 CellRange=     0.0.
 One-electron integrals computed using PRISM.
 One-electron integral symmetry used in STVInt
 PrsmSu:  requested number of processors reduced to:   4 ShMem   1 Linda.
 PrsmSu:  requested number of processors reduced to:  21 ShMem   1 Linda.
 NBasis=   159 RedAO= T EigKep=  2.63D-05  NBF=   104    55
 NBsUse=   159 1.00D-06 EigRej= -1.00D+00 NBFU=   104    55
 Precomputing XC quadrature grid using
 IXCGrd= 4 IRadAn=           5 IRanWt=          -1 IRanGd=           0 AccXCQ= 0.00D+00.
 Generated NRdTot=       0 NPtTot=           0 NUsed=           0 NTot=          32
 NSgBfM=   196   196   196   196   196 MxSgAt=     3 MxSgA2=     3.
 Leave Link  302 at Sun Apr 18 02:42:23 2021, MaxMem=   104857600 cpu:             223.7 elap:               5.2
 (Enter /s/ls4/users/knvvv/bin/g16sse/l303.exe)
 DipDrv:  MaxL=1.
 Leave Link  303 at Sun Apr 18 02:42:25 2021, MaxMem=   104857600 cpu:              48.9 elap:               1.3
 (Enter /s/ls4/users/knvvv/bin/g16sse/l401.exe)
 SCF N**3 symmetry information disabled.
 ExpMin= 4.50D-02 ExpMax= 9.07D+04 ExpMxC= 8.76D+02 IAcc=3 IRadAn=         5 AccDes= 0.00D+00
 Harris functional with IExCor= 1009 and IRadAn=       5 diagonalized for initial guess.
 HarFok:  IExCor= 1009 AccDes= 0.00D+00 IRadAn=         5 IDoV= 1 UseB2=F ITyADJ=14
 ICtDFT=  3500011 ScaDFX=  1.000000  1.000000  1.000000  1.000000
 FoFCou: FMM=F IPFlag=           0 FMFlag=      100000 FMFlg1=           0
         NFxFlg=           0 DoJE=T BraDBF=F KetDBF=T FulRan=T
         wScrn=  0.000000 ICntrl=       500 IOpCl=  0 I1Cent=   200000004 NGrid=           0
         NMat0=    1 NMatS0=      1 NMatT0=    0 NMatD0=    1 NMtDS0=    0 NMtDT0=    0
 Petite list used in FoFCou.
 CoulSu:  requested number of processors reduced to:  21 ShMem   1 Linda.
 CoulSu:  requested number of processors reduced to:  21 ShMem   1 Linda.
 CoulSu:  requested number of processors reduced to:  21 ShMem   1 Linda.
 CoulSu:  requested number of processors reduced to:  21 ShMem   1 Linda.
 Harris En= -93.2944466079413    
 JPrj=0 DoOrth=F DoCkMO=F.
 Initial guess orbital symmetries:
       Occupied  (A') (A') (A') (A') (A') (A") (A')
       Virtual   (A') (A") (A') (A') (A') (A") (A') (A") (A') (A')
                 (A") (A') (A') (A') (A') (A") (A') (A") (A') (A")
                 (A') (A') (A') (A") (A') (A") (A') (A') (A') (A')
                 (A") (A') (A') (A") (A') (A") (A') (A") (A') (A")
                 (A') (A') (A') (A') (A") (A') (A') (A') (A") (A')
                 (A") (A') (A') (A") (A') (A") (A') (A') (A") (A")
                 (A') (A') (A') (A") (A') (A') (A') (A") (A") (A')
                 (A") (A') (A") (A') (A') (A") (A') (A') (A") (A')
                 (A') (A") (A') (A') (A') (A") (A') (A") (A') (A')
                 (A") (A') (A") (A') (A") (A') (A') (A") (A') (A")
                 (A") (A') (A") (A') (A') (A') (A") (A') (A") (A')
                 (A') (A") (A') (A") (A') (A') (A") (A') (A') (A')
                 (A") (A') (A") (A') (A") (A") (A') (A') (A") (A")
                 (A') (A') (A') (A") (A') (A') (A") (A") (A") (A')
                 (A') (A') (A') (A') (A") (A') (A') (A') (A') (A')
                 (A') (A')
 The electronic state of the initial guess is 1-A'.
 Leave Link  401 at Sun Apr 18 02:42:27 2021, MaxMem=   104857600 cpu:              74.5 elap:               2.1
 (Enter /s/ls4/users/knvvv/bin/g16sse/l502.exe)
 Integral symmetry usage will be decided dynamically.
 Closed shell SCF:
 Using DIIS extrapolation, IDIIS=  1040.
 NGot=   104857600 LenX=   104769319 LenY=   104730462
 Requested convergence on RMS density matrix=1.00D-08 within 128 cycles.
 Requested convergence on MAX density matrix=1.00D-06.
 Requested convergence on             energy=1.00D-06.
 No special actions if energy rises.
 Fock matrices will be formed incrementally for  20 cycles.

 Cycle   1  Pass 1  IDiag  1:
 FoFJK:  IHMeth= 1 ICntrl=       0 DoSepK=F KAlg= 0 I1Cent=           0 FoldK=F
 IRaf= 990000000 NMat=       1 IRICut=       1 DoRegI=T DoRafI=F ISym2E= 1 IDoP0=0 IntGTp=1.
 FoFCou: FMM=F IPFlag=           0 FMFlag=      100000 FMFlg1=           0
         NFxFlg=           0 DoJE=F BraDBF=F KetDBF=F FulRan=T
         wScrn=  0.000000 ICntrl=         0 IOpCl=  0 I1Cent=           0 NGrid=           0
         NMat0=    1 NMatS0=      1 NMatT0=    0 NMatD0=    1 NMtDS0=    0 NMtDT0=    0
 Petite list used in FoFCou.
 CoulSu:  requested number of processors reduced to:  21 ShMem   1 Linda.
 E= -93.3297835053161    
 DIIS: error= 1.90D-02 at cycle   1 NSaved=   1.
 NSaved= 1 IEnMin= 1 EnMin= -93.3297835053161     IErMin= 1 ErrMin= 1.90D-02
 ErrMax= 1.90D-02  0.00D+00 EMaxC= 1.00D-01 BMatC= 7.42D-02 BMatP= 7.42D-02
 IDIUse=3 WtCom= 8.10D-01 WtEn= 1.90D-01
 Coeff-Com:  0.100D+01
 Coeff-En:   0.100D+01
 Coeff:      0.100D+01
 Gap=     0.387 Goal=   None    Shift=    0.000
 GapD=    0.387 DampG=1.000 DampE=0.500 DampFc=0.5000 IDamp=-1.
 Damping current iteration by 5.00D-01
 RMSDP=1.47D-03 MaxDP=1.01D-01              OVMax= 7.57D-02

 Cycle   2  Pass 1  IDiag  1:
 RMSU=  6.77D-04    CP:  9.66D-01
 CoulSu:  requested number of processors reduced to:  21 ShMem   1 Linda.
 E= -93.3452154858147     Delta-E=       -0.015431980499 Rises=F Damp=T
 DIIS: error= 9.15D-03 at cycle   2 NSaved=   2.
 NSaved= 2 IEnMin= 2 EnMin= -93.3452154858147     IErMin= 2 ErrMin= 9.15D-03
 ErrMax= 9.15D-03  0.00D+00 EMaxC= 1.00D-01 BMatC= 1.27D-02 BMatP= 7.42D-02
 IDIUse=3 WtCom= 9.08D-01 WtEn= 9.15D-02
 Coeff-Com: -0.532D+00 0.153D+01
 Coeff-En:   0.000D+00 0.100D+01
 Coeff:     -0.484D+00 0.148D+01
 Gap=     0.404 Goal=   None    Shift=    0.000
 RMSDP=5.78D-04 MaxDP=3.19D-02 DE=-1.54D-02 OVMax= 3.92D-02

 Cycle   3  Pass 1  IDiag  1:
 RMSU=  4.18D-04    CP:  9.45D-01  1.54D+00
 CoulSu:  requested number of processors reduced to:  21 ShMem   1 Linda.
 E= -93.3577139399376     Delta-E=       -0.012498454123 Rises=F Damp=F
 DIIS: error= 2.70D-03 at cycle   3 NSaved=   3.
 NSaved= 3 IEnMin= 3 EnMin= -93.3577139399376     IErMin= 3 ErrMin= 2.70D-03
 ErrMax= 2.70D-03  0.00D+00 EMaxC= 1.00D-01 BMatC= 7.08D-04 BMatP= 1.27D-02
 IDIUse=3 WtCom= 9.73D-01 WtEn= 2.70D-02
 Coeff-Com: -0.194D+00 0.413D+00 0.781D+00
 Coeff-En:   0.000D+00 0.000D+00 0.100D+01
 Coeff:     -0.188D+00 0.402D+00 0.787D+00
 Gap=     0.387 Goal=   None    Shift=    0.000
 RMSDP=1.18D-04 MaxDP=4.07D-03 DE=-1.25D-02 OVMax= 1.05D-02

 Cycle   4  Pass 1  IDiag  1:
 RMSU=  8.66D-05    CP:  9.40D-01  1.61D+00  8.81D-01
 CoulSu:  requested number of processors reduced to:  21 ShMem   1 Linda.
 E= -93.3582631030565     Delta-E=       -0.000549163119 Rises=F Damp=F
 DIIS: error= 1.45D-03 at cycle   4 NSaved=   4.
 NSaved= 4 IEnMin= 4 EnMin= -93.3582631030565     IErMin= 4 ErrMin= 1.45D-03
 ErrMax= 1.45D-03  0.00D+00 EMaxC= 1.00D-01 BMatC= 1.39D-04 BMatP= 7.08D-04
 IDIUse=3 WtCom= 9.86D-01 WtEn= 1.45D-02
 Coeff-Com: -0.104D+00 0.216D+00 0.452D+00 0.436D+00
 Coeff-En:   0.000D+00 0.000D+00 0.000D+00 0.100D+01
 Coeff:     -0.102D+00 0.213D+00 0.445D+00 0.444D+00
 Gap=     0.388 Goal=   None    Shift=    0.000
 RMSDP=3.75D-05 MaxDP=1.07D-03 DE=-5.49D-04 OVMax= 4.11D-03

 Cycle   5  Pass 1  IDiag  1:
 RMSU=  3.20D-05    CP:  9.40D-01  1.61D+00  9.03D-01  8.12D-01
 CoulSu:  requested number of processors reduced to:  21 ShMem   1 Linda.
 E= -93.3583746324002     Delta-E=       -0.000111529344 Rises=F Damp=F
 DIIS: error= 3.62D-04 at cycle   5 NSaved=   5.
 NSaved= 5 IEnMin= 5 EnMin= -93.3583746324002     IErMin= 5 ErrMin= 3.62D-04
 ErrMax= 3.62D-04  0.00D+00 EMaxC= 1.00D-01 BMatC= 6.61D-06 BMatP= 1.39D-04
 IDIUse=3 WtCom= 9.96D-01 WtEn= 3.62D-03
 Coeff-Com: -0.313D-02 0.665D-02 0.245D-01 0.177D+00 0.795D+00
 Coeff-En:   0.000D+00 0.000D+00 0.000D+00 0.000D+00 0.100D+01
 Coeff:     -0.312D-02 0.662D-02 0.244D-01 0.177D+00 0.795D+00
 Gap=     0.388 Goal=   None    Shift=    0.000
 RMSDP=1.74D-05 MaxDP=8.02D-04 DE=-1.12D-04 OVMax= 1.20D-03

 Cycle   6  Pass 1  IDiag  1:
 RMSU=  9.03D-06    CP:  9.39D-01  1.61D+00  9.14D-01  9.61D-01  1.10D+00
 CoulSu:  requested number of processors reduced to:  21 ShMem   1 Linda.
 E= -93.3583809362977     Delta-E=       -0.000006303897 Rises=F Damp=F
 DIIS: error= 6.26D-05 at cycle   6 NSaved=   6.
 NSaved= 6 IEnMin= 6 EnMin= -93.3583809362977     IErMin= 6 ErrMin= 6.26D-05
 ErrMax= 6.26D-05  0.00D+00 EMaxC= 1.00D-01 BMatC= 2.83D-07 BMatP= 6.61D-06
 IDIUse=1 WtCom= 1.00D+00 WtEn= 0.00D+00
 Coeff-Com:  0.122D-01-0.251D-01-0.505D-01-0.918D-02 0.165D+00 0.908D+00
 Coeff:      0.122D-01-0.251D-01-0.505D-01-0.918D-02 0.165D+00 0.908D+00
 Gap=     0.388 Goal=   None    Shift=    0.000
 RMSDP=5.55D-06 MaxDP=1.98D-04 DE=-6.30D-06 OVMax= 4.12D-04

 Cycle   7  Pass 1  IDiag  1:
 RMSU=  2.05D-06    CP:  9.39D-01  1.60D+00  9.18D-01  9.99D-01  1.19D+00
                    CP:  1.11D+00
 CoulSu:  requested number of processors reduced to:  21 ShMem   1 Linda.
 E= -93.3583813715868     Delta-E=       -0.000000435289 Rises=F Damp=F
 DIIS: error= 1.37D-05 at cycle   7 NSaved=   7.
 NSaved= 7 IEnMin= 7 EnMin= -93.3583813715868     IErMin= 7 ErrMin= 1.37D-05
 ErrMax= 1.37D-05  0.00D+00 EMaxC= 1.00D-01 BMatC= 7.83D-09 BMatP= 2.83D-07
 IDIUse=1 WtCom= 1.00D+00 WtEn= 0.00D+00
 Coeff-Com: -0.233D-03 0.426D-03 0.792D-03-0.402D-02-0.372D-01-0.375D-01
 Coeff-Com:  0.108D+01
 Coeff:     -0.233D-03 0.426D-03 0.792D-03-0.402D-02-0.372D-01-0.375D-01
 Coeff:      0.108D+01
 Gap=     0.388 Goal=   None    Shift=    0.000
 RMSDP=1.11D-06 MaxDP=3.01D-05 DE=-4.35D-07 OVMax= 1.42D-04

 Cycle   8  Pass 1  IDiag  1:
 RMSU=  8.41D-07    CP:  9.39D-01  1.60D+00  9.19D-01  9.97D-01  1.20D+00
                    CP:  1.12D+00  1.31D+00
 CoulSu:  requested number of processors reduced to:  21 ShMem   1 Linda.
 E= -93.3583814007862     Delta-E=       -0.000000029199 Rises=F Damp=F
 DIIS: error= 4.19D-06 at cycle   8 NSaved=   8.
 NSaved= 8 IEnMin= 8 EnMin= -93.3583814007862     IErMin= 8 ErrMin= 4.19D-06
 ErrMax= 4.19D-06  0.00D+00 EMaxC= 1.00D-01 BMatC= 6.64D-10 BMatP= 7.83D-09
 IDIUse=1 WtCom= 1.00D+00 WtEn= 0.00D+00
 Coeff-Com: -0.552D-03 0.114D-02 0.209D-02 0.166D-03-0.903D-02-0.572D-01
 Coeff-Com: -0.933D-01 0.116D+01
 Coeff:     -0.552D-03 0.114D-02 0.209D-02 0.166D-03-0.903D-02-0.572D-01
 Coeff:     -0.933D-01 0.116D+01
 Gap=     0.388 Goal=   None    Shift=    0.000
 RMSDP=3.41D-07 MaxDP=7.95D-06 DE=-2.92D-08 OVMax= 4.88D-05

 Cycle   9  Pass 1  IDiag  1:
 RMSU=  1.18D-07    CP:  9.39D-01  1.60D+00  9.19D-01  9.97D-01  1.20D+00
                    CP:  1.13D+00  1.42D+00  1.26D+00
 CoulSu:  requested number of processors reduced to:  21 ShMem   1 Linda.
 E= -93.3583814033859     Delta-E=       -0.000000002600 Rises=F Damp=F
 DIIS: error= 4.94D-07 at cycle   9 NSaved=   9.
 NSaved= 9 IEnMin= 9 EnMin= -93.3583814033859     IErMin= 9 ErrMin= 4.94D-07
 ErrMax= 4.94D-07  0.00D+00 EMaxC= 1.00D-01 BMatC= 3.14D-11 BMatP= 6.64D-10
 IDIUse=1 WtCom= 1.00D+00 WtEn= 0.00D+00
 Coeff-Com: -0.109D-04 0.266D-04 0.600D-04-0.352D-04 0.154D-02 0.326D-02
 Coeff-Com: -0.352D-01-0.190D-01 0.105D+01
 Coeff:     -0.109D-04 0.266D-04 0.600D-04-0.352D-04 0.154D-02 0.326D-02
 Coeff:     -0.352D-01-0.190D-01 0.105D+01
 Gap=     0.388 Goal=   None    Shift=    0.000
 RMSDP=5.47D-08 MaxDP=1.97D-06 DE=-2.60D-09 OVMax= 6.12D-06

 Cycle  10  Pass 1  IDiag  1:
 RMSU=  3.24D-08    CP:  9.39D-01  1.60D+00  9.19D-01  9.97D-01  1.20D+00
                    CP:  1.13D+00  1.42D+00  1.28D+00  1.21D+00
 CoulSu:  requested number of processors reduced to:  21 ShMem   1 Linda.
 E= -93.3583814034489     Delta-E=       -0.000000000063 Rises=F Damp=F
 DIIS: error= 1.14D-07 at cycle  10 NSaved=  10.
 NSaved=10 IEnMin=10 EnMin= -93.3583814034489     IErMin=10 ErrMin= 1.14D-07
 ErrMax= 1.14D-07  0.00D+00 EMaxC= 1.00D-01 BMatC= 1.22D-12 BMatP= 3.14D-11
 IDIUse=1 WtCom= 1.00D+00 WtEn= 0.00D+00
 Coeff-Com:  0.161D-04-0.331D-04-0.515D-04-0.216D-04 0.169D-03 0.273D-02
 Coeff-Com:  0.404D-02-0.584D-01-0.444D-01 0.110D+01
 Coeff:      0.161D-04-0.331D-04-0.515D-04-0.216D-04 0.169D-03 0.273D-02
 Coeff:      0.404D-02-0.584D-01-0.444D-01 0.110D+01
 Gap=     0.388 Goal=   None    Shift=    0.000
 RMSDP=1.18D-08 MaxDP=2.54D-07 DE=-6.31D-11 OVMax= 1.52D-06

 Cycle  11  Pass 1  IDiag  1:
 RMSU=  6.69D-09    CP:  9.39D-01  1.60D+00  9.19D-01  9.97D-01  1.20D+00
                    CP:  1.13D+00  1.42D+00  1.28D+00  1.28D+00  1.12D+00
 CoulSu:  requested number of processors reduced to:  21 ShMem   1 Linda.
 E= -93.3583814034523     Delta-E=       -0.000000000003 Rises=F Damp=F
 DIIS: error= 2.13D-08 at cycle  11 NSaved=  11.
 NSaved=11 IEnMin=11 EnMin= -93.3583814034523     IErMin=11 ErrMin= 2.13D-08
 ErrMax= 2.13D-08  0.00D+00 EMaxC= 1.00D-01 BMatC= 4.38D-14 BMatP= 1.22D-12
 IDIUse=1 WtCom= 1.00D+00 WtEn= 0.00D+00
 Coeff-Com: -0.742D-06 0.131D-05-0.101D-07 0.650D-05-0.491D-04-0.362D-03
 Coeff-Com: -0.555D-03 0.127D-01 0.862D-03-0.294D+00 0.128D+01
 Coeff:     -0.742D-06 0.131D-05-0.101D-07 0.650D-05-0.491D-04-0.362D-03
 Coeff:     -0.555D-03 0.127D-01 0.862D-03-0.294D+00 0.128D+01
 Gap=     0.388 Goal=   None    Shift=    0.000
 RMSDP=2.22D-09 MaxDP=5.49D-08 DE=-3.31D-12 OVMax= 2.92D-07

 SCF Done:  E(RM062X) =  -93.3583814035     A.U. after   11 cycles
            NFock= 11  Conv=0.22D-08     -V/T= 2.0042
 KE= 9.297040125138D+01 PE=-2.656944570057D+02 EE= 5.531930321770D+01
 Leave Link  502 at Sun Apr 18 02:43:26 2021, MaxMem=   104857600 cpu:            2579.3 elap:              58.9
 (Enter /s/ls4/users/knvvv/bin/g16sse/l601.exe)
 Copying SCF densities to generalized density rwf, IOpCl= 0 IROHF=0.

 **********************************************************************

            Population analysis using the SCF density.

 **********************************************************************

 Orbital symmetries:
       Occupied  (A') (A') (A') (A') (A') (A") (A')
       Virtual   (A') (A') (A") (A') (A') (A") (A') (A") (A') (A')
                 (A') (A") (A') (A') (A") (A') (A') (A") (A") (A')
                 (A') (A') (A') (A") (A') (A") (A') (A') (A') (A')
                 (A") (A') (A') (A") (A') (A") (A') (A") (A') (A')
                 (A") (A') (A') (A') (A') (A") (A') (A') (A") (A')
                 (A") (A') (A') (A') (A") (A") (A') (A") (A') (A")
                 (A') (A') (A") (A') (A') (A') (A') (A") (A") (A')
                 (A') (A") (A") (A') (A") (A') (A') (A') (A") (A')
                 (A') (A") (A') (A') (A') (A") (A') (A") (A') (A')
                 (A") (A') (A") (A') (A") (A') (A") (A') (A') (A")
                 (A") (A') (A") (A') (A') (A') (A") (A') (A") (A')
                 (A') (A") (A') (A") (A') (A') (A") (A') (A') (A')
                 (A") (A') (A") (A') (A") (A") (A') (A") (A') (A')
                 (A") (A') (A') (A") (A') (A") (A') (A") (A') (A")
                 (A') (A') (A') (A') (A") (A') (A') (A') (A') (A')
                 (A') (A')
 The electronic state is 1-A'.
 Alpha  occ. eigenvalues --  -14.83178 -10.60884  -1.09906  -0.60311  -0.53374
 Alpha  occ. eigenvalues --   -0.46177  -0.41114
 Alpha virt. eigenvalues --   -0.02305   0.01977   0.03800   0.06013   0.08109
 Alpha virt. eigenvalues --    0.11714   0.12180   0.16064   0.16484   0.17930
 Alpha virt. eigenvalues --    0.21077   0.21639   0.24993   0.26306   0.26424
 Alpha virt. eigenvalues --    0.27383   0.31713   0.34410   0.35106   0.36015
 Alpha virt. eigenvalues --    0.37925   0.44267   0.45494   0.47435   0.48945
 Alpha virt. eigenvalues --    0.58193   0.58631   0.63886   0.69629   0.72917
 Alpha virt. eigenvalues --    0.74971   0.78782   0.87362   0.87810   0.91404
 Alpha virt. eigenvalues --    0.93498   0.96138   1.06638   1.07767   1.12144
 Alpha virt. eigenvalues --    1.13584   1.17995   1.18987   1.23318   1.39837
 Alpha virt. eigenvalues --    1.40204   1.46833   1.66753   1.78269   1.79487
 Alpha virt. eigenvalues --    1.80114   1.91566   1.94501   2.00301   2.01485
 Alpha virt. eigenvalues --    2.02277   2.08906   2.12442   2.15875   2.27201
 Alpha virt. eigenvalues --    2.28094   2.36776   2.45300   2.51210   2.61733
 Alpha virt. eigenvalues --    2.65802   2.73019   2.73387   2.86140   2.90810
 Alpha virt. eigenvalues --    2.96815   2.97478   3.07102   3.08764   3.16817
 Alpha virt. eigenvalues --    3.17409   3.21265   3.26898   3.29172   3.49069
 Alpha virt. eigenvalues --    3.70802   3.82181   3.88437   4.01647   4.23803
 Alpha virt. eigenvalues --    4.44211   4.61958   4.70632   4.84115   5.01600
 Alpha virt. eigenvalues --    5.10092   5.20920   5.30197   5.40143   5.54283
 Alpha virt. eigenvalues --    5.57919   5.63593   5.63664   5.67593   5.74072
 Alpha virt. eigenvalues --    5.82845   5.86880   5.89275   5.92392   6.05426
 Alpha virt. eigenvalues --    6.11473   6.33703   6.47617   6.55722   6.67724
 Alpha virt. eigenvalues --    6.84838   6.90246   6.95463   7.03258   7.03974
 Alpha virt. eigenvalues --    7.15774   7.17827   7.28238   7.56149   7.70681
 Alpha virt. eigenvalues --    7.73287   7.79845   7.83842   8.02252   8.06527
 Alpha virt. eigenvalues --    8.13724   8.13919   8.28426   8.31572   8.42133
 Alpha virt. eigenvalues --    8.44661   8.48283   8.64690   8.70955   8.81166
 Alpha virt. eigenvalues --    8.95242   8.98452   9.16600   9.18171   9.35669
 Alpha virt. eigenvalues --    9.51770   9.70328  10.40541  10.65251  10.82329
 Alpha virt. eigenvalues --   11.02130  11.24239  12.21209  28.33743  37.45030
 Alpha virt. eigenvalues --  145.77620 194.96152
          Condensed to atoms (all electrons):
               1          2          3
     1  C    5.510431   0.290627   0.202876
     2  N    0.290627   6.970379   0.073931
     3  H    0.202876   0.073931   0.384324
 Mulliken charges:
               1
     1  C   -0.003934
     2  N   -0.334936
     3  H    0.338870
 Sum of Mulliken charges =  -0.00000
 Mulliken charges with hydrogens summed into heavy atoms:
               1
     1  C    0.334936
     2  N   -0.334936
 Electronic spatial extent (au):  <R**2>=             47.9085
 Charge=             -0.0000 electrons
 Dipole moment (field-independent basis, Debye):
    X=             -1.2421    Y=              0.1168    Z=              0.0000  Tot=              1.2476
 Quadrupole moment (field-independent basis, Debye-Ang):
   XX=             -9.8449   YY=            -14.3757   ZZ=            -12.3276
   XY=             -0.3211   XZ=              0.0000   YZ=              0.0000
 Traceless Quadrupole moment (field-independent basis, Debye-Ang):
   XX=              2.3378   YY=             -2.1929   ZZ=             -0.1449
   XY=             -0.3211   XZ=              0.0000   YZ=              0.0000
 Octapole moment (field-independent basis, Debye-Ang**2):
  XXX=             -2.6123  YYY=             -3.2565  ZZZ=              0.0000  XYY=             -0.1125
  XXY=             -0.5629  XXZ=              0.0000  XZZ=             -0.1792  YZZ=             -0.6358
  YYZ=              0.0000  XYZ=              0.0000
 Hexadecapole moment (field-independent basis, Debye-Ang**3):
 XXXX=            -13.4063 YYYY=            -44.7007 ZZZZ=            -13.1848 XXXY=             -0.1970
 XXXZ=              0.0000 YYYX=              0.4766 YYYZ=              0.0000 ZZZX=              0.0000
 ZZZY=              0.0000 XXYY=             -9.5034 XXZZ=             -4.9271 YYZZ=             -9.0459
 XXYZ=              0.0000 YYXZ=              0.0000 ZZXY=              0.1404
 N-N= 2.404637113320D+01 E-N=-2.656944572288D+02  KE= 9.297040125138D+01
 PrsmSu:  requested number of processors reduced to:  21 ShMem   1 Linda.
 No NMR shielding tensors so no spin-rotation constants.
 Leave Link  601 at Sun Apr 18 02:43:28 2021, MaxMem=   104857600 cpu:             103.3 elap:               2.4
 (Enter /s/ls4/users/knvvv/bin/g16sse/l801.exe)
 DoSCS=F DFT=T ScalE2(SS,OS)=  1.000000  1.000000
 Range of M.O.s used for correlation:     1   159
 NBasis=   159 NAE=     7 NBE=     7 NFC=     0 NFV=     0
 NROrb=    159 NOA=     7 NOB=     7 NVA=   152 NVB=   152

 **** Warning!!: The largest alpha MO coefficient is  0.46747996D+02

 Leave Link  801 at Sun Apr 18 02:43:28 2021, MaxMem=   104857600 cpu:               3.9 elap:               0.1
 (Enter /s/ls4/users/knvvv/bin/g16sse/l914.exe)
 RHF ground state
 Doing stability rather than CIS.
 Two-electron integrals replicated using symmetry.
 MDV=   104857600 DFT=T DoStab=T Mixed=T DoRPA=F DoScal=F NonHer=F
 Making orbital integer symmetry assigments:
 Orbital symmetries:
       Occupied  (A') (A') (A') (A') (A') (A") (A')
       Virtual   (A') (A') (A") (A') (A') (A") (A') (A") (A') (A')
                 (A') (A") (A') (A') (A") (A') (A') (A") (A") (A')
                 (A') (A') (A') (A") (A') (A") (A') (A') (A') (A')
                 (A") (A') (A') (A") (A') (A") (A') (A") (A') (A')
                 (A") (A') (A') (A') (A') (A") (A') (A') (A") (A')
                 (A") (A') (A') (A') (A") (A") (A') (A") (A') (A")
                 (A') (A') (A") (A') (A') (A') (A') (A") (A") (A')
                 (A') (A") (A") (A') (A") (A') (A') (A') (A") (A')
                 (A') (A") (A') (A') (A') (A") (A') (A") (A') (A')
                 (A") (A') (A") (A') (A") (A') (A") (A') (A') (A")
                 (A") (A') (A") (A') (A') (A') (A") (A') (A") (A')
                 (A') (A") (A') (A") (A') (A') (A") (A') (A') (A')
                 (A") (A') (A") (A') (A") (A") (A') (A") (A') (A')
                 (A") (A') (A') (A") (A') (A") (A') (A") (A') (A")
                 (A') (A') (A') (A') (A") (A') (A') (A') (A') (A')
                 (A') (A')
    24 initial guesses have been made.
 Convergence on wavefunction:    0.001000000000000
 Davidson Disk Diagonalization:  ConvIn= 1.00D-03 SkipCon=T Conv= 1.00D-03.
 Max sub-space:  2000 roots to seek:    24 dimension of matrix:         2128
 Iteration     1 Dimension    24 NMult     0 NNew     24
 Estimated number of processors is:   20
 CISAX will form     1 AO SS matrices at one time.
 NMat=     1 NSing=     1 JSym2X= 2.
 FoFJK:  IHMeth= 1 ICntrl=       0 DoSepK=F KAlg= 0 I1Cent=           0 FoldK=F
 IRaf= 990000000 NMat=       1 IRICut=       1 DoRegI=T DoRafI=F ISym2E= 2 IDoP0=0 IntGTp=1.
 FoFCou: FMM=F IPFlag=           0 FMFlag=      100000 FMFlg1=           0
         NFxFlg=           0 DoJE=F BraDBF=F KetDBF=F FulRan=T
         wScrn=  0.000000 ICntrl=         0 IOpCl=  0 I1Cent=           0 NGrid=           0
         NMat0=    1 NMatS0=      1 NMatT0=    0 NMatD0=    1 NMtDS0=    0 NMtDT0=    0
 Integrals replicated using symmetry in FoFCou.
 CoulSu:  requested number of processors reduced to:  21 ShMem   1 Linda.
 NMat=     1 NSing=     1 JSym2X= 2.
 CoulSu:  requested number of processors reduced to:  21 ShMem   1 Linda.
 NMat=     1 NSing=     1 JSym2X= 2.
 CoulSu:  requested number of processors reduced to:  21 ShMem   1 Linda.
 NMat=     1 NSing=     1 JSym2X= 2.
 CoulSu:  requested number of processors reduced to:  21 ShMem   1 Linda.
 NMat=     1 NSing=     1 JSym2X= 2.
 CoulSu:  requested number of processors reduced to:  21 ShMem   1 Linda.
 NMat=     1 NSing=     1 JSym2X= 2.
 CoulSu:  requested number of processors reduced to:  21 ShMem   1 Linda.
 NMat=     1 NSing=     1 JSym2X= 2.
 CoulSu:  requested number of processors reduced to:  21 ShMem   1 Linda.
 NMat=     1 NSing=     1 JSym2X= 2.
 CoulSu:  requested number of processors reduced to:  21 ShMem   1 Linda.
 NMat=     1 NSing=     1 JSym2X= 2.
 CoulSu:  requested number of processors reduced to:  21 ShMem   1 Linda.
 NMat=     1 NSing=     1 JSym2X= 2.
 CoulSu:  requested number of processors reduced to:  21 ShMem   1 Linda.
 NMat=     1 NSing=     1 JSym2X= 2.
 CoulSu:  requested number of processors reduced to:  21 ShMem   1 Linda.
 NMat=     1 NSing=     1 JSym2X= 2.
 CoulSu:  requested number of processors reduced to:  21 ShMem   1 Linda.
 NMat=     1 NSing=     0 JSym2X= 2.
 CoulSu:  requested number of processors reduced to:  21 ShMem   1 Linda.
 NMat=     1 NSing=     0 JSym2X= 2.
 CoulSu:  requested number of processors reduced to:  21 ShMem   1 Linda.
 NMat=     1 NSing=     0 JSym2X= 2.
 CoulSu:  requested number of processors reduced to:  21 ShMem   1 Linda.
 NMat=     1 NSing=     0 JSym2X= 2.
 CoulSu:  requested number of processors reduced to:  21 ShMem   1 Linda.
 NMat=     1 NSing=     0 JSym2X= 2.
 CoulSu:  requested number of processors reduced to:  21 ShMem   1 Linda.
 NMat=     1 NSing=     0 JSym2X= 2.
 CoulSu:  requested number of processors reduced to:  21 ShMem   1 Linda.
 NMat=     1 NSing=     0 JSym2X= 2.
 CoulSu:  requested number of processors reduced to:  21 ShMem   1 Linda.
 NMat=     1 NSing=     0 JSym2X= 2.
 CoulSu:  requested number of processors reduced to:  21 ShMem   1 Linda.
 NMat=     1 NSing=     0 JSym2X= 2.
 CoulSu:  requested number of processors reduced to:  21 ShMem   1 Linda.
 NMat=     1 NSing=     0 JSym2X= 2.
 CoulSu:  requested number of processors reduced to:  21 ShMem   1 Linda.
 NMat=     1 NSing=     0 JSym2X= 2.
 CoulSu:  requested number of processors reduced to:  21 ShMem   1 Linda.
 NMat=     1 NSing=     0 JSym2X= 2.
 CoulSu:  requested number of processors reduced to:  21 ShMem   1 Linda.
 New state      1 was old state      2
 Excitation Energies [eV] at current iteration:
 Root      1 :     4.727828945683859
 Root      2 :     6.078141594962455
 Root      3 :     6.778012212971062
 Root      4 :     7.000155356680821
 Root      5 :     7.341507373021594
 Root      6 :     7.531206639813462
 Root      7 :     7.737055149348811
 Root      8 :     8.593974388288242
 Root      9 :     9.419470386674599
 Root     10 :     9.539270202686161
 Root     11 :     9.862399864658784
 Root     12 :    10.123779790768800
 Root     13 :    10.292659552554150
 Root     14 :    10.402133372589160
 Root     15 :    10.748815576263680
 Root     16 :    10.920202451123260
 Root     17 :    11.186015680267430
 Root     18 :    11.702450829714590
 Root     19 :    11.745299202888090
 Root     20 :    11.854643198988520
 Root     21 :    11.899819825882530
 Root     22 :    11.972593974267030
 Root     23 :    11.991705602884090
 Root     24 :    22.920511694035670
 Iteration     2 Dimension    48 NMult    24 NNew     24
 Estimated number of processors is:   20
 CISAX will form     1 AO SS matrices at one time.
 NMat=     1 NSing=     1 JSym2X= 2.
 CoulSu:  requested number of processors reduced to:  21 ShMem   1 Linda.
 NMat=     1 NSing=     1 JSym2X= 2.
 CoulSu:  requested number of processors reduced to:  21 ShMem   1 Linda.
 NMat=     1 NSing=     1 JSym2X= 2.
 CoulSu:  requested number of processors reduced to:  21 ShMem   1 Linda.
 NMat=     1 NSing=     1 JSym2X= 2.
 CoulSu:  requested number of processors reduced to:  21 ShMem   1 Linda.
 NMat=     1 NSing=     1 JSym2X= 2.
 CoulSu:  requested number of processors reduced to:  21 ShMem   1 Linda.
 NMat=     1 NSing=     1 JSym2X= 2.
 CoulSu:  requested number of processors reduced to:  21 ShMem   1 Linda.
 NMat=     1 NSing=     1 JSym2X= 2.
 CoulSu:  requested number of processors reduced to:  21 ShMem   1 Linda.
 NMat=     1 NSing=     1 JSym2X= 2.
 CoulSu:  requested number of processors reduced to:  21 ShMem   1 Linda.
 NMat=     1 NSing=     1 JSym2X= 2.
 CoulSu:  requested number of processors reduced to:  21 ShMem   1 Linda.
 NMat=     1 NSing=     1 JSym2X= 2.
 CoulSu:  requested number of processors reduced to:  21 ShMem   1 Linda.
 NMat=     1 NSing=     1 JSym2X= 2.
 CoulSu:  requested number of processors reduced to:  21 ShMem   1 Linda.
 NMat=     1 NSing=     1 JSym2X= 2.
 CoulSu:  requested number of processors reduced to:  21 ShMem   1 Linda.
 NMat=     1 NSing=     0 JSym2X= 2.
 CoulSu:  requested number of processors reduced to:  21 ShMem   1 Linda.
 NMat=     1 NSing=     0 JSym2X= 2.
 CoulSu:  requested number of processors reduced to:  21 ShMem   1 Linda.
 NMat=     1 NSing=     0 JSym2X= 2.
 CoulSu:  requested number of processors reduced to:  21 ShMem   1 Linda.
 NMat=     1 NSing=     0 JSym2X= 2.
 CoulSu:  requested number of processors reduced to:  21 ShMem   1 Linda.
 NMat=     1 NSing=     0 JSym2X= 2.
 CoulSu:  requested number of processors reduced to:  21 ShMem   1 Linda.
 NMat=     1 NSing=     0 JSym2X= 2.
 CoulSu:  requested number of processors reduced to:  21 ShMem   1 Linda.
 NMat=     1 NSing=     0 JSym2X= 2.
 CoulSu:  requested number of processors reduced to:  21 ShMem   1 Linda.
 NMat=     1 NSing=     0 JSym2X= 2.
 CoulSu:  requested number of processors reduced to:  21 ShMem   1 Linda.
 NMat=     1 NSing=     0 JSym2X= 2.
 CoulSu:  requested number of processors reduced to:  21 ShMem   1 Linda.
 NMat=     1 NSing=     0 JSym2X= 2.
 CoulSu:  requested number of processors reduced to:  21 ShMem   1 Linda.
 NMat=     1 NSing=     0 JSym2X= 2.
 CoulSu:  requested number of processors reduced to:  21 ShMem   1 Linda.
 NMat=     1 NSing=     0 JSym2X= 2.
 CoulSu:  requested number of processors reduced to:  21 ShMem   1 Linda.
 Root      1 not converged, maximum delta is    0.094146355328651
 Excitation Energies [eV] at current iteration:
 Root      1 :     4.144872207344214   Change is   -0.582956738339645
 Root      2 :     5.538329312860617   Change is   -0.539812282101838
 Root      3 :     5.774646777739631   Change is   -1.003365435231432
 Root      4 :     6.581700580749613   Change is   -0.418454775931208
 Root      5 :     6.868618993709664   Change is   -0.662587646103798
 Root      6 :     6.990207881524347   Change is   -0.746847267824465
 Root      7 :     7.136694269990388   Change is   -0.204813103031207
 Root      8 :     8.050143912618209   Change is   -0.543830475670033
 Root      9 :     8.604488970368408   Change is   -0.814981416306191
 Root     10 :     9.169147063370982   Change is   -0.370123139315179
 Root     11 :     9.412913189308904   Change is   -0.449486675349880
 Root     12 :     9.726244674887452   Change is   -0.566414877666698
 Root     13 :     9.877640353093138   Change is   -0.246139437675665
 Root     14 :    10.127442460202130   Change is   -0.274690912387029
 Root     15 :    10.532755519448270   Change is   -0.216060056815414
 Root     16 :    10.720214751410080   Change is   -0.199987699713183
 Root     17 :    10.948107605653380   Change is   -0.237908074614045
 Root     18 :    11.562644607787780   Change is   -0.139806221926816
 Root     19 :    11.571329716804670   Change is   -0.173969486083422
 Root     20 :    11.599391856040860   Change is   -0.392313746843230
 Root     21 :    11.622706706936100   Change is   -0.277113118946430
 Root     22 :    11.665293986043180   Change is   -0.307299988223845
 Root     23 :    11.727435179450480   Change is   -0.127208019538040
 Root     24 :    14.016511930106440
 Iteration     3 Dimension    54 NMult    48 NNew      6
 Estimated number of processors is:   20
 CISAX will form     1 AO SS matrices at one time.
 NMat=     1 NSing=     1 JSym2X= 2.
 CoulSu:  requested number of processors reduced to:  21 ShMem   1 Linda.
 NMat=     1 NSing=     1 JSym2X= 2.
 CoulSu:  requested number of processors reduced to:  21 ShMem   1 Linda.
 NMat=     1 NSing=     1 JSym2X= 2.
 CoulSu:  requested number of processors reduced to:  21 ShMem   1 Linda.
 NMat=     1 NSing=     0 JSym2X= 2.
 CoulSu:  requested number of processors reduced to:  21 ShMem   1 Linda.
 NMat=     1 NSing=     0 JSym2X= 2.
 CoulSu:  requested number of processors reduced to:  21 ShMem   1 Linda.
 NMat=     1 NSing=     0 JSym2X= 2.
 CoulSu:  requested number of processors reduced to:  21 ShMem   1 Linda.
 Root      1 not converged, maximum delta is    0.035607114189300
 Excitation Energies [eV] at current iteration:
 Root      1 :     4.109059595236619   Change is   -0.035812612107594
 Root      2 :     5.522440592938813   Change is   -0.015888719921803
 Root      3 :     5.748479712720640   Change is   -0.026167065018991
 Root      4 :     6.831527920495092   Change is   -0.037091073214572
 Root      5 :     7.122489595854450   Change is   -0.014204674135938
 Root      6 :     8.531318554598640   Change is   -0.073170415769768
 Iteration     4 Dimension    60 NMult    54 NNew      6
 Estimated number of processors is:   20
 CISAX will form     1 AO SS matrices at one time.
 NMat=     1 NSing=     1 JSym2X= 2.
 CoulSu:  requested number of processors reduced to:  21 ShMem   1 Linda.
 NMat=     1 NSing=     1 JSym2X= 2.
 CoulSu:  requested number of processors reduced to:  21 ShMem   1 Linda.
 NMat=     1 NSing=     1 JSym2X= 2.
 CoulSu:  requested number of processors reduced to:  21 ShMem   1 Linda.
 NMat=     1 NSing=     0 JSym2X= 2.
 CoulSu:  requested number of processors reduced to:  21 ShMem   1 Linda.
 NMat=     1 NSing=     0 JSym2X= 2.
 CoulSu:  requested number of processors reduced to:  21 ShMem   1 Linda.
 NMat=     1 NSing=     0 JSym2X= 2.
 CoulSu:  requested number of processors reduced to:  21 ShMem   1 Linda.
 Root      1 not converged, maximum delta is    0.014435327577870
 Excitation Energies [eV] at current iteration:
 Root      1 :     4.104006346771719   Change is   -0.005053248464901
 Root      2 :     5.520181202959278   Change is   -0.002259389979536
 Root      3 :     5.745942413316098   Change is   -0.002537299404542
 Root      4 :     6.830277949784822   Change is   -0.001249970710270
 Root      5 :     7.121949921956126   Change is   -0.000539673898323
 Root      6 :     8.513195091831811   Change is   -0.018123462766828
 Iteration     5 Dimension    66 NMult    60 NNew      6
 Estimated number of processors is:   20
 CISAX will form     1 AO SS matrices at one time.
 NMat=     1 NSing=     1 JSym2X= 2.
 CoulSu:  requested number of processors reduced to:  21 ShMem   1 Linda.
 NMat=     1 NSing=     1 JSym2X= 2.
 CoulSu:  requested number of processors reduced to:  21 ShMem   1 Linda.
 NMat=     1 NSing=     1 JSym2X= 2.
 CoulSu:  requested number of processors reduced to:  21 ShMem   1 Linda.
 NMat=     1 NSing=     0 JSym2X= 2.
 CoulSu:  requested number of processors reduced to:  21 ShMem   1 Linda.
 NMat=     1 NSing=     0 JSym2X= 2.
 CoulSu:  requested number of processors reduced to:  21 ShMem   1 Linda.
 NMat=     1 NSing=     0 JSym2X= 2.
 CoulSu:  requested number of processors reduced to:  21 ShMem   1 Linda.
 Root      1 not converged, maximum delta is    0.001140789068784
 Excitation Energies [eV] at current iteration:
 Root      1 :     4.103816711421687   Change is   -0.000189635350032
 Root      2 :     5.520038446479433   Change is   -0.000142756479845
 Root      3 :     5.745769355745909   Change is   -0.000173057570189
 Root      4 :     6.830251685880406   Change is   -0.000026263904416
 Root      5 :     7.121936589709919   Change is   -0.000013332246208
 Root      6 :     8.512223680028310   Change is   -0.000971411803502
 Iteration     6 Dimension    72 NMult    66 NNew      6
 Estimated number of processors is:   20
 CISAX will form     1 AO SS matrices at one time.
 NMat=     1 NSing=     1 JSym2X= 2.
 CoulSu:  requested number of processors reduced to:  21 ShMem   1 Linda.
 NMat=     1 NSing=     1 JSym2X= 2.
 CoulSu:  requested number of processors reduced to:  21 ShMem   1 Linda.
 NMat=     1 NSing=     1 JSym2X= 2.
 CoulSu:  requested number of processors reduced to:  21 ShMem   1 Linda.
 NMat=     1 NSing=     0 JSym2X= 2.
 CoulSu:  requested number of processors reduced to:  21 ShMem   1 Linda.
 NMat=     1 NSing=     0 JSym2X= 2.
 CoulSu:  requested number of processors reduced to:  21 ShMem   1 Linda.
 NMat=     1 NSing=     0 JSym2X= 2.
 CoulSu:  requested number of processors reduced to:  21 ShMem   1 Linda.
 Root      1 has converged.
 Excitation Energies [eV] at current iteration:
 Root      1 :     4.103812088021367   Change is   -0.000004623400320
 Root      2 :     5.520030354460439   Change is   -0.000008092018994
 Root      3 :     5.745764039684378   Change is   -0.000005316061531
 Root      4 :     6.830250964922797   Change is   -0.000000720957610
 Root      5 :     7.121936158641944   Change is   -0.000000431067975
 Root      6 :     8.512180078781926   Change is   -0.000043601246383
 Convergence achieved on expansion vectors.
 ***********************************************************************
 Stability analysis using <AA,BB:AA,BB> singles matrix:
 ***********************************************************************
 1PDM for each excited state written to RWF  633
 Ground to excited state transition densities written to RWF  633

 Eigenvectors of the stability matrix:
 
 Eigenvector   1:      Triplet-A'   Eigenvalue= 0.1508123  <S**2>=2.000
       6 -> 10        -0.17037
       7 ->  8         0.64051
       7 ->  9        -0.11280
 The wavefunction is stable under the perturbations considered.
 Leave Link  914 at Sun Apr 18 02:47:07 2021, MaxMem=   104857600 cpu:            8988.2 elap:             218.3
 (Enter /s/ls4/users/knvvv/bin/g16sse/l508.exe)
 The wavefunction is already stable.
 Leave Link  508 at Sun Apr 18 02:47:07 2021, MaxMem=   104857600 cpu:               2.2 elap:               0.1
 (Enter /s/ls4/users/knvvv/bin/g16sse/l601.exe)
 Copying SCF densities to generalized density rwf, IOpCl= 0 IROHF=0.

 **********************************************************************

            Population analysis using the SCF density.

 **********************************************************************

 Orbital symmetries:
       Occupied  (A') (A') (A') (A') (A') (A") (A')
       Virtual   (A') (A') (A") (A') (A') (A") (A') (A") (A') (A')
                 (A') (A") (A') (A') (A") (A') (A') (A") (A") (A')
                 (A') (A') (A') (A") (A') (A") (A') (A') (A') (A')
                 (A") (A') (A') (A") (A') (A") (A') (A") (A') (A')
                 (A") (A') (A') (A') (A') (A") (A') (A') (A") (A')
                 (A") (A') (A') (A') (A") (A") (A') (A") (A') (A")
                 (A') (A') (A") (A') (A') (A') (A') (A") (A") (A')
                 (A') (A") (A") (A') (A") (A') (A') (A') (A") (A')
                 (A') (A") (A') (A') (A') (A") (A') (A") (A') (A')
                 (A") (A') (A") (A') (A") (A') (A") (A') (A') (A")
                 (A") (A') (A") (A') (A') (A') (A") (A') (A") (A')
                 (A') (A") (A') (A") (A') (A') (A") (A') (A') (A')
                 (A") (A') (A") (A') (A") (A") (A') (A") (A') (A')
                 (A") (A') (A') (A") (A') (A") (A') (A") (A') (A")
                 (A') (A') (A') (A') (A") (A') (A') (A') (A') (A')
                 (A') (A')
 The electronic state is 1-A'.
 Alpha  occ. eigenvalues --  -14.83178 -10.60884  -1.09906  -0.60311  -0.53374
 Alpha  occ. eigenvalues --   -0.46177  -0.41114
 Alpha virt. eigenvalues --   -0.02305   0.01977   0.03800   0.06013   0.08109
 Alpha virt. eigenvalues --    0.11714   0.12180   0.16064   0.16484   0.17930
 Alpha virt. eigenvalues --    0.21077   0.21639   0.24993   0.26306   0.26424
 Alpha virt. eigenvalues --    0.27383   0.31713   0.34410   0.35106   0.36015
 Alpha virt. eigenvalues --    0.37925   0.44267   0.45494   0.47435   0.48945
 Alpha virt. eigenvalues --    0.58193   0.58631   0.63886   0.69629   0.72917
 Alpha virt. eigenvalues --    0.74971   0.78782   0.87362   0.87810   0.91404
 Alpha virt. eigenvalues --    0.93498   0.96138   1.06638   1.07767   1.12144
 Alpha virt. eigenvalues --    1.13584   1.17995   1.18987   1.23318   1.39837
 Alpha virt. eigenvalues --    1.40204   1.46833   1.66753   1.78269   1.79487
 Alpha virt. eigenvalues --    1.80114   1.91566   1.94501   2.00301   2.01485
 Alpha virt. eigenvalues --    2.02277   2.08906   2.12442   2.15875   2.27201
 Alpha virt. eigenvalues --    2.28094   2.36776   2.45300   2.51210   2.61733
 Alpha virt. eigenvalues --    2.65802   2.73019   2.73387   2.86140   2.90810
 Alpha virt. eigenvalues --    2.96815   2.97478   3.07102   3.08764   3.16817
 Alpha virt. eigenvalues --    3.17409   3.21265   3.26898   3.29172   3.49069
 Alpha virt. eigenvalues --    3.70802   3.82181   3.88437   4.01647   4.23803
 Alpha virt. eigenvalues --    4.44211   4.61958   4.70632   4.84115   5.01600
 Alpha virt. eigenvalues --    5.10092   5.20920   5.30197   5.40143   5.54283
 Alpha virt. eigenvalues --    5.57919   5.63593   5.63664   5.67593   5.74072
 Alpha virt. eigenvalues --    5.82845   5.86880   5.89275   5.92392   6.05426
 Alpha virt. eigenvalues --    6.11473   6.33703   6.47617   6.55722   6.67724
 Alpha virt. eigenvalues --    6.84838   6.90246   6.95463   7.03258   7.03974
 Alpha virt. eigenvalues --    7.15774   7.17827   7.28238   7.56149   7.70681
 Alpha virt. eigenvalues --    7.73287   7.79845   7.83842   8.02252   8.06527
 Alpha virt. eigenvalues --    8.13724   8.13919   8.28426   8.31572   8.42133
 Alpha virt. eigenvalues --    8.44661   8.48283   8.64690   8.70955   8.81166
 Alpha virt. eigenvalues --    8.95242   8.98452   9.16600   9.18171   9.35669
 Alpha virt. eigenvalues --    9.51770   9.70328  10.40541  10.65251  10.82329
 Alpha virt. eigenvalues --   11.02130  11.24239  12.21209  28.33743  37.45030
 Alpha virt. eigenvalues --  145.77620 194.96152
          Condensed to atoms (all electrons):
               1          2          3
     1  C    5.510431   0.290627   0.202876
     2  N    0.290627   6.970379   0.073931
     3  H    0.202876   0.073931   0.384324
 Mulliken charges:
               1
     1  C   -0.003934
     2  N   -0.334936
     3  H    0.338870
 Sum of Mulliken charges =  -0.00000
 Mulliken charges with hydrogens summed into heavy atoms:
               1
     1  C    0.334936
     2  N   -0.334936
 Electronic spatial extent (au):  <R**2>=             47.9085
 Charge=             -0.0000 electrons
 Dipole moment (field-independent basis, Debye):
    X=             -1.2421    Y=              0.1168    Z=              0.0000  Tot=              1.2476
 Quadrupole moment (field-independent basis, Debye-Ang):
   XX=             -9.8449   YY=            -14.3757   ZZ=            -12.3276
   XY=             -0.3211   XZ=              0.0000   YZ=              0.0000
 Traceless Quadrupole moment (field-independent basis, Debye-Ang):
   XX=              2.3378   YY=             -2.1929   ZZ=             -0.1449
   XY=             -0.3211   XZ=              0.0000   YZ=              0.0000
 Octapole moment (field-independent basis, Debye-Ang**2):
  XXX=             -2.6123  YYY=             -3.2565  ZZZ=              0.0000  XYY=             -0.1125
  XXY=             -0.5629  XXZ=              0.0000  XZZ=             -0.1792  YZZ=             -0.6358
  YYZ=              0.0000  XYZ=              0.0000
 Hexadecapole moment (field-independent basis, Debye-Ang**3):
 XXXX=            -13.4063 YYYY=            -44.7007 ZZZZ=            -13.1848 XXXY=             -0.1970
 XXXZ=              0.0000 YYYX=              0.4766 YYYZ=              0.0000 ZZZX=              0.0000
 ZZZY=              0.0000 XXYY=             -9.5034 XXZZ=             -4.9271 YYZZ=             -9.0459
 XXYZ=              0.0000 YYXZ=              0.0000 ZZXY=              0.1404
 N-N= 2.404637113320D+01 E-N=-2.656944572288D+02  KE= 9.297040125138D+01
 PrsmSu:  requested number of processors reduced to:  21 ShMem   1 Linda.
 No NMR shielding tensors so no spin-rotation constants.
 Leave Link  601 at Sun Apr 18 02:47:09 2021, MaxMem=   104857600 cpu:              88.9 elap:               2.0
 (Enter /s/ls4/users/knvvv/bin/g16sse/l9999.exe)

 Test job not archived.
 1\1\GINC-N305\Stability\RM062X\Gen\C1H1N1\KNVVV\18-Apr-2021\0\\#P M062
 X/GEN Integral=UltraFineGrid SCF=NoSymm Stable=(RExt, Opt) IOp(1/33=1)
 \\Database calculations.\\0,1\C,0,0.0803190462,0.6202591923,0.\N,0,0.0
 803190462,-0.5680929029,0.\H,0,-1.0441460135,0.2551210959,0.\\Version=
 ES64L-G16RevA.03\State=1-A'\HF=-93.3583814\RMSD=2.219e-09\Dipole=-0.48
 86828,0.0459537,0.\Quadrupole=1.7381263,-1.6303932,-0.1077331,-0.23871
 01,0.,0.\PG=CS [SG(C1H1N1)]\\@


 LORD, MAN... WERE YE BUT WHYLES WHERE I AM, 
 THE GENTILES YE WAD NE'ER ENVY 'EM.        
 IT'S TRUE, THEY NEEDNA STARVE OR SWEAT,     
 THRO' WINTER'S CAULD OR SIMMER'S HEAT...  
 THEY'VE NAE SAIR WARK TO CRAZE THEIR BANES, 
 AND FILL AULD AGE WITH GRIPS AN' GRANES...  
                                             
 BUT HUMAN BODIES ARE SIC FOOLS              
 FOR A' THEIR COLLEGES AND SCHOOLS,           
 THAT WHEN NAE REAL ILLS PERPLEX THEM,       
 THEY MAK ENOW THEMSELVES TO VEX THEM,       
 AN' AYE THE LESS THEY HAE TO STURT THEM,    
 IN LIKE PROPORTION LESS WILL HURT THEM....  
                                             
                (ROBERT BURNS 'THE TWA DOGS')
 Job cpu time:       0 days  3 hours 23 minutes  0.5 seconds.
 Elapsed time:       0 days  0 hours  4 minutes 52.4 seconds.
 File lengths (MBytes):  RWF=     84 Int=      0 D2E=      0 Chk=      4 Scr=      1
 Normal termination of Gaussian 16 at Sun Apr 18 02:47:09 2021.
