 Entering Gaussian System, Link 0=/s/ls4/users/knvvv/bin/g16sse/g16
 Input=data/database/M062X--def2-QZVPPD--15_NeNe_4p3_RG10.gjf
 Output=data/database/M062X--def2-QZVPPD--15_NeNe_4p3_RG10.log
 Initial command:
 /s/ls4/users/knvvv/bin/g16sse/l1.exe "/s/ls4/users/knvvv/bin/scratch/Gau-42757.inp" -scrdir="/s/ls4/users/knvvv/bin/scratch/"
 Entering Link 1 = /s/ls4/users/knvvv/bin/g16sse/l1.exe PID=     42758.
  
 Copyright (c) 1988,1990,1992,1993,1995,1998,2003,2009,2016,
            Gaussian, Inc.  All Rights Reserved.
  
 This is part of the Gaussian(R) 16 program.  It is based on
 the Gaussian(R) 09 system (copyright 2009, Gaussian, Inc.),
 the Gaussian(R) 03 system (copyright 2003, Gaussian, Inc.),
 the Gaussian(R) 98 system (copyright 1998, Gaussian, Inc.),
 the Gaussian(R) 94 system (copyright 1995, Gaussian, Inc.),
 the Gaussian 92(TM) system (copyright 1992, Gaussian, Inc.),
 the Gaussian 90(TM) system (copyright 1990, Gaussian, Inc.),
 the Gaussian 88(TM) system (copyright 1988, Gaussian, Inc.),
 the Gaussian 86(TM) system (copyright 1986, Carnegie Mellon
 University), and the Gaussian 82(TM) system (copyright 1983,
 Carnegie Mellon University). Gaussian is a federally registered
 trademark of Gaussian, Inc.
  
 This software contains proprietary and confidential information,
 including trade secrets, belonging to Gaussian, Inc.
  
 This software is provided under written license and may be
 used, copied, transmitted, or stored only in accord with that
 written license.
  
 The following legend is applicable only to US Government
 contracts under FAR:
  
                    RESTRICTED RIGHTS LEGEND
  
 Use, reproduction and disclosure by the US Government is
 subject to restrictions as set forth in subparagraphs (a)
 and (c) of the Commercial Computer Software - Restricted
 Rights clause in FAR 52.227-19.
  
 Gaussian, Inc.
 340 Quinnipiac St., Bldg. 40, Wallingford CT 06492
  
  
 ---------------------------------------------------------------
 Warning -- This program may not be used in any manner that
 competes with the business of Gaussian, Inc. or will provide
 assistance to any competitor of Gaussian, Inc.  The licensee
 of this program is prohibited from giving any competitor of
 Gaussian, Inc. access to this program.  By using this program,
 the user acknowledges that Gaussian, Inc. is engaged in the
 business of creating and licensing software in the field of
 computational chemistry and represents and warrants to the
 licensee that it is not a competitor of Gaussian, Inc. and that
 it will not use this program in any manner prohibited above.
 ---------------------------------------------------------------
  

 Cite this work as:
 Gaussian 16, Revision A.03,
 M. J. Frisch, G. W. Trucks, H. B. Schlegel, G. E. Scuseria, 
 M. A. Robb, J. R. Cheeseman, G. Scalmani, V. Barone, 
 G. A. Petersson, H. Nakatsuji, X. Li, M. Caricato, A. V. Marenich, 
 J. Bloino, B. G. Janesko, R. Gomperts, B. Mennucci, H. P. Hratchian, 
 J. V. Ortiz, A. F. Izmaylov, J. L. Sonnenberg, D. Williams-Young, 
 F. Ding, F. Lipparini, F. Egidi, J. Goings, B. Peng, A. Petrone, 
 T. Henderson, D. Ranasinghe, V. G. Zakrzewski, J. Gao, N. Rega, 
 G. Zheng, W. Liang, M. Hada, M. Ehara, K. Toyota, R. Fukuda, 
 J. Hasegawa, M. Ishida, T. Nakajima, Y. Honda, O. Kitao, H. Nakai, 
 T. Vreven, K. Throssell, J. A. Montgomery, Jr., J. E. Peralta, 
 F. Ogliaro, M. J. Bearpark, J. J. Heyd, E. N. Brothers, K. N. Kudin, 
 V. N. Staroverov, T. A. Keith, R. Kobayashi, J. Normand, 
 K. Raghavachari, A. P. Rendell, J. C. Burant, S. S. Iyengar, 
 J. Tomasi, M. Cossi, J. M. Millam, M. Klene, C. Adamo, R. Cammi, 
 J. W. Ochterski, R. L. Martin, K. Morokuma, O. Farkas, 
 J. B. Foresman, and D. J. Fox, Gaussian, Inc., Wallingford CT, 2016.
 
 ******************************************
 Gaussian 16:  ES64L-G16RevA.03 25-Dec-2016
                17-Apr-2021 
 ******************************************
 %RWF=temp18_74681,70GB
 %nprocshared=48
 Will use up to   48 processors via shared memory.
 Default route: MaxDisk=80GB
 ----------------------------------------------------------------------
 #P M062X/GEN Integral=UltraFineGrid SCF=NoSymm Stable=(RExt, Opt) IOp(
 1/33=1)
 ----------------------------------------------------------------------
 1/33=1,38=1,172=1/1;
 2/12=2,17=6,18=5,40=1/2;
 3/5=7,11=2,25=1,30=1,74=-55,75=-5/1,2,3;
 4/9=2/1;
 5/5=2,38=5/2;
 6/7=2,8=2,9=2,10=2,28=1/1;
 8/6=1,10=90,11=11/1;
 9/8=-3,42=1,46=1/14;
 5/5=2,8=3,17=40,38=5/8(-2);
 6/7=2,8=2,9=2,10=2,28=1/1;
 99/5=1,9=1/99;
 Leave Link    1 at Sat Apr 17 08:49:48 2021, MaxMem=           0 cpu:               9.9 elap:               0.2
 (Enter /s/ls4/users/knvvv/bin/g16sse/l101.exe)
 ONIOM data not found on unit 2.
 ----------------------
 Database calculations.
 ----------------------
 TstMul:  ICh=     0
 TstMul:  Mul=     1
 TstMul:  ICh=     0
 TstMul:  Mul=     1
 Symbolic Z-matrix:
 Charge =  0 Multiplicity = 1
 Ne                    0.        0.        0. 
 Ne                    0.        0.        4.3 
 
 RdStrC is calling ZToCFu for IStruc=1 NZ=     2.
 PrtBox:  NBox=     2 Levels=  1 BoxLen=    8.00 SMaxX=        8.13
          Shift=            0.000000            0.000000            0.000000
 Box      1 Number                   0 centers from      1 to      1:
 Box      2 Number                   1 centers from      2 to      2:
 After GenITR:
 ITRead=  0  0
 MicOpt= -1 -1
 ITRead=  0  0
 MicOpt= -1 -1
 NAtoms=      2 NQM=        2 NQMF=       0 NMMI=      0 NMMIF=      0
                NMic=       0 NMicF=      0.
                    Isotopes and Nuclear Properties:
 (Nuclear quadrupole moments (NQMom) in fm**2, nuclear magnetic moments (NMagM)
  in nuclear magnetons)

  Atom         1           2
 IAtWgt=          20          20
 AtmWgt=  19.9924391  19.9924391
 NucSpn=           0           0
 AtZEff=  -0.0000000  -0.0000000
 NQMom=    0.0000000   0.0000000
 NMagM=    0.0000000   0.0000000
 AtZNuc=  10.0000000  10.0000000
 No MM parameters found.
 Leave Link  101 at Sat Apr 17 08:49:48 2021, MaxMem=   104857600 cpu:               8.1 elap:               0.2
 (Enter /s/ls4/users/knvvv/bin/g16sse/l202.exe)
                          Input orientation:                          
 ---------------------------------------------------------------------
 Center     Atomic      Atomic             Coordinates (Angstroms)
 Number     Number       Type             X           Y           Z
 ---------------------------------------------------------------------
      1         10           0        0.000000    0.000000    0.000000
      2         10           0        0.000000    0.000000    4.300000
 ---------------------------------------------------------------------
 Stoichiometry    Ne2
 Framework group  D*H[C*(Ne.Ne)]
 Deg. of freedom     1
 Full point group                 D*H     NOp   8
 Largest Abelian subgroup         D2H     NOp   8
 Largest concise Abelian subgroup C2      NOp   2
                         Standard orientation:                         
 ---------------------------------------------------------------------
 Center     Atomic      Atomic             Coordinates (Angstroms)
 Number     Number       Type             X           Y           Z
 ---------------------------------------------------------------------
      1         10           0        0.000000    0.000000    2.150000
      2         10           0        0.000000    0.000000   -2.150000
 ---------------------------------------------------------------------
 Rotational constants (GHZ):           0.0000000           2.7342895           2.7342895
 Leave Link  202 at Sat Apr 17 08:49:48 2021, MaxMem=   104857600 cpu:               9.0 elap:               0.2
 (Enter /s/ls4/users/knvvv/bin/g16sse/l301.exe)
 General basis read from cards:  (5D, 7F)
 Centers:       1      2
 S 8 1.00
     Exponent=  1.6067627955D+05 Coefficients=  4.7387482743D-05
     Exponent=  2.3953195039D+04 Coefficients=  3.7070120897D-04
     Exponent=  5.4375063711D+03 Coefficients=  1.9450784713D-03
     Exponent=  1.5442741024D+03 Coefficients=  8.0573291994D-03
     Exponent=  5.0788814269D+02 Coefficients=  2.7992880781D-02
     Exponent=  1.8494847750D+02 Coefficients=  8.2735120175D-02
     Exponent=  7.2522952039D+01 Coefficients=  1.9854169012D-01
     Exponent=  3.0088713575D+01 Coefficients=  3.4860632233D-01
 S 2 1.00
     Exponent=  1.2068434940D+02 Coefficients=  1.0400597014D-01
     Exponent=  3.6074294857D+01 Coefficients=  9.1999988986D-01
 S 1 1.00
     Exponent=  1.3052091210D+01 Coefficients=  1.0000000000D+00
 S 1 1.00
     Exponent=  5.7974783353D+00 Coefficients=  1.0000000000D+00
 S 1 1.00
     Exponent=  2.0478626895D+00 Coefficients=  1.0000000000D+00
 S 1 1.00
     Exponent=  8.0214571994D-01 Coefficients=  1.0000000000D+00
 S 1 1.00
     Exponent=  3.0548672205D-01 Coefficients=  1.0000000000D+00
 S 1 1.00
     Exponent=  1.0621243030D-01 Coefficients=  1.0000000000D+00
 P 6 1.00
     Exponent=  4.9843397466D+02 Coefficients=  4.3118261050D-04
     Exponent=  1.1814109217D+02 Coefficients=  3.6206397703D-03
     Exponent=  3.8032529735D+01 Coefficients=  1.8245344081D-02
     Exponent=  1.4183731950D+01 Coefficients=  6.5133035572D-02
     Exponent=  5.7864190721D+00 Coefficients=  1.6708915089D-01
     Exponent=  2.4599622160D+00 Coefficients=  2.9268019613D-01
 P 1 1.00
     Exponent=  1.0421999498D+00 Coefficients=  1.0000000000D+00
 P 1 1.00
     Exponent=  4.2987748916D-01 Coefficients=  1.0000000000D+00
 P 1 1.00
     Exponent=  1.6889708453D-01 Coefficients=  1.0000000000D+00
 P 1 1.00
     Exponent=  4.7169461232D-02 Coefficients=  1.0000000000D+00
 D 1 1.00
     Exponent=  6.4710000000D+00 Coefficients=  1.0000000000D+00
 D 1 1.00
     Exponent=  2.2130000000D+00 Coefficients=  1.0000000000D+00
 D 1 1.00
     Exponent=  7.4700000000D-01 Coefficients=  1.0000000000D+00
 D 1 1.00
     Exponent=  1.9790459442D-01 Coefficients=  1.0000000000D+00
 F 1 1.00
     Exponent=  4.6570000000D+00 Coefficients=  1.0000000000D+00
 F 1 1.00
     Exponent=  1.5240000000D+00 Coefficients=  1.0000000000D+00
 G 1 1.00
     Exponent=  2.9830000000D+00 Coefficients=  1.0000000000D+00
 ****
 Ernie: Thresh=  0.10000D-02 Tol=  0.10000D-05 Strict=F.
 There are    37 symmetry adapted cartesian basis functions of AG  symmetry.
 There are     9 symmetry adapted cartesian basis functions of B1G symmetry.
 There are    18 symmetry adapted cartesian basis functions of B2G symmetry.
 There are    18 symmetry adapted cartesian basis functions of B3G symmetry.
 There are     9 symmetry adapted cartesian basis functions of AU  symmetry.
 There are    37 symmetry adapted cartesian basis functions of B1U symmetry.
 There are    18 symmetry adapted cartesian basis functions of B2U symmetry.
 There are    18 symmetry adapted cartesian basis functions of B3U symmetry.
 There are    28 symmetry adapted basis functions of AG  symmetry.
 There are     8 symmetry adapted basis functions of B1G symmetry.
 There are    15 symmetry adapted basis functions of B2G symmetry.
 There are    15 symmetry adapted basis functions of B3G symmetry.
 There are     8 symmetry adapted basis functions of AU  symmetry.
 There are    28 symmetry adapted basis functions of B1U symmetry.
 There are    15 symmetry adapted basis functions of B2U symmetry.
 There are    15 symmetry adapted basis functions of B3U symmetry.
   132 basis functions,   210 primitive gaussians,   164 cartesian basis functions
    10 alpha electrons       10 beta electrons
       nuclear repulsion energy        12.3064467656 Hartrees.
 IExCor= 4336 DFT=T Ex+Corr=M062X ExCW=0 ScaHFX=  0.540000
 ScaDFX=  1.000000  1.000000  1.000000  1.000000 ScalE2=  1.000000  1.000000
 IRadAn=      5 IRanWt=     -1 IRanGd=            0 ICorTp=0 IEmpDi=  4
 NAtoms=    2 NActive=    2 NUniq=    1 SFac= 4.00D+00 NAtFMM=   60 NAOKFM=F Big=F
 Integral buffers will be    131072 words long.
 Raffenetti 2 integral format.
 Two-electron integral symmetry is turned on.
 Leave Link  301 at Sat Apr 17 08:49:48 2021, MaxMem=   104857600 cpu:               7.3 elap:               0.2
 (Enter /s/ls4/users/knvvv/bin/g16sse/l302.exe)
 NPDir=0 NMtPBC=     1 NCelOv=     1 NCel=       1 NClECP=     1 NCelD=      1
         NCelK=      1 NCelE2=     1 NClLst=     1 CellRange=     0.0.
 One-electron integrals computed using PRISM.
 One-electron integral symmetry used in STVInt
 PrsmSu:  requested number of processors reduced to:   4 ShMem   1 Linda.
 PrsmSu:  requested number of processors reduced to:  21 ShMem   1 Linda.
 NBasis=   132 RedAO= T EigKep=  4.74D-03  NBF=    28     8    15    15     8    28    15    15
 NBsUse=   132 1.00D-06 EigRej= -1.00D+00 NBFU=    28     8    15    15     8    28    15    15
 Precomputing XC quadrature grid using
 IXCGrd= 4 IRadAn=           5 IRanWt=          -1 IRanGd=           0 AccXCQ= 0.00D+00.
 Generated NRdTot=       0 NPtTot=           0 NUsed=           0 NTot=          32
 NSgBfM=   124   124   124   124   124 MxSgAt=     2 MxSgA2=     2.
 Leave Link  302 at Sat Apr 17 08:49:55 2021, MaxMem=   104857600 cpu:             300.4 elap:               6.5
 (Enter /s/ls4/users/knvvv/bin/g16sse/l303.exe)
 DipDrv:  MaxL=1.
 Leave Link  303 at Sat Apr 17 08:49:56 2021, MaxMem=   104857600 cpu:              30.4 elap:               0.7
 (Enter /s/ls4/users/knvvv/bin/g16sse/l401.exe)
 SCF N**3 symmetry information disabled.
 ExpMin= 4.72D-02 ExpMax= 1.61D+05 ExpMxC= 1.54D+03 IAcc=3 IRadAn=         5 AccDes= 0.00D+00
 Harris functional with IExCor= 1009 and IRadAn=       5 diagonalized for initial guess.
 HarFok:  IExCor= 1009 AccDes= 0.00D+00 IRadAn=         5 IDoV= 1 UseB2=F ITyADJ=14
 ICtDFT=  3500011 ScaDFX=  1.000000  1.000000  1.000000  1.000000
 FoFCou: FMM=F IPFlag=           0 FMFlag=      100000 FMFlg1=           0
         NFxFlg=           0 DoJE=T BraDBF=F KetDBF=T FulRan=T
         wScrn=  0.000000 ICntrl=       500 IOpCl=  0 I1Cent=   200000004 NGrid=           0
         NMat0=    1 NMatS0=      1 NMatT0=    0 NMatD0=    1 NMtDS0=    0 NMtDT0=    0
 Petite list used in FoFCou.
 CoulSu:  requested number of processors reduced to:  21 ShMem   1 Linda.
 CoulSu:  requested number of processors reduced to:  21 ShMem   1 Linda.
 CoulSu:  requested number of processors reduced to:  21 ShMem   1 Linda.
 CoulSu:  requested number of processors reduced to:  21 ShMem   1 Linda.
 Harris En= -257.710464014521    
 JPrj=0 DoOrth=F DoCkMO=F.
 Initial guess orbital symmetries:
       Occupied  (SGU) (SGG) (SGG) (SGU) (SGG) (PIU) (PIU) (PIG)
                 (PIG) (SGU)
       Virtual   (SGG) (SGU) (PIU) (PIU) (PIG) (PIG) (SGG) (SGU)
                 (SGG) (PIU) (PIU) (SGU) (PIG) (PIG) (PIU) (PIU)
                 (SGG) (DLTG) (DLTG) (DLTU) (DLTU) (PIG) (PIG)
                 (SGU) (SGG) (SGU) (SGG) (PIU) (PIU) (PIG) (PIG)
                 (SGU) (SGG) (PIU) (PIU) (DLTG) (DLTG) (DLTU) (DLTU)
                 (PIG) (PIG) (SGU) (SGG) (SGU) (DLTG) (DLTU) (?A)
                 (?A) (?B) (?B) (?A) (?A) (?B) (?B) (DLTG) (DLTU)
                 (SGG) (SGU) (SGG) (PIU) (PIU) (PIG) (PIG) (SGU)
                 (SGG) (PIU) (PIU) (DLTG) (DLTG) (DLTU) (DLTU)
                 (PIG) (PIG) (SGU) (?C) (?C) (DLTG) (DLTU) (?C)
                 (?C) (?A) (?A) (?B) (?B) (?C) (?C) (DLTU) (DLTG)
                 (?A) (?A) (?B) (?B) (SGG) (SGU) (?D) (?D) (?A)
                 (?A) (?B) (?B) (?A) (?A) (?D) (?D) (?B) (?B) (SGG)
                 (SGU) (SGG) (PIU) (PIU) (DLTG) (DLTG) (DLTU) (DLTU)
                 (PIG) (PIG) (SGU) (SGG) (SGU) (SGG) (SGU)
 The electronic state of the initial guess is 1-SGG.
 Leave Link  401 at Sat Apr 17 08:50:00 2021, MaxMem=   104857600 cpu:             173.5 elap:               3.9
 (Enter /s/ls4/users/knvvv/bin/g16sse/l502.exe)
 Keep R1 ints in memory in symmetry-blocked form, NReq=92796449.
 FoFCou: FMM=F IPFlag=           0 FMFlag=           0 FMFlg1=           0
         NFxFlg=           0 DoJE=F BraDBF=F KetDBF=F FulRan=T
         wScrn=  0.000000 ICntrl=       600 IOpCl=  0 I1Cent=           0 NGrid=           0
         NMat0=    1 NMatS0=   8778 NMatT0=    0 NMatD0=    1 NMtDS0=    0 NMtDT0=    0
 Petite list used in FoFCou.
 CoulSu:  requested number of processors reduced to:  14 ShMem   1 Linda.
 Closed shell SCF:
 Using DIIS extrapolation, IDIIS=  1040.
 NGot=   104857600 LenX=    99851147 LenY=    99823810
 Requested convergence on RMS density matrix=1.00D-08 within 128 cycles.
 Requested convergence on MAX density matrix=1.00D-06.
 Requested convergence on             energy=1.00D-06.
 No special actions if energy rises.

 Cycle   1  Pass 1  IDiag  1:
 E= -257.870705914407    
 DIIS: error= 4.21D-02 at cycle   1 NSaved=   1.
 NSaved= 1 IEnMin= 1 EnMin= -257.870705914407     IErMin= 1 ErrMin= 4.21D-02
 ErrMax= 4.21D-02  0.00D+00 EMaxC= 1.00D-01 BMatC= 6.34D-02 BMatP= 6.34D-02
 IDIUse=3 WtCom= 5.79D-01 WtEn= 4.21D-01
 Coeff-Com:  0.100D+01
 Coeff-En:   0.100D+01
 Coeff:      0.100D+01
 Gap=     0.793 Goal=   None    Shift=    0.000
 GapD=    0.793 DampG=2.000 DampE=0.500 DampFc=1.0000 IDamp=-1.
 RMSDP=7.00D-04 MaxDP=2.77D-02              OVMax= 2.92D-02

 Cycle   2  Pass 1  IDiag  1:
 E= -257.879292196892     Delta-E=       -0.008586282485 Rises=F Damp=F
 DIIS: error= 1.02D-02 at cycle   2 NSaved=   2.
 NSaved= 2 IEnMin= 2 EnMin= -257.879292196892     IErMin= 2 ErrMin= 1.02D-02
 ErrMax= 1.02D-02  0.00D+00 EMaxC= 1.00D-01 BMatC= 6.63D-03 BMatP= 6.34D-02
 IDIUse=3 WtCom= 8.98D-01 WtEn= 1.02D-01
 Coeff-Com:  0.142D+00 0.858D+00
 Coeff-En:   0.000D+00 0.100D+01
 Coeff:      0.127D+00 0.873D+00
 Gap=     0.729 Goal=   None    Shift=    0.000
 RMSDP=2.47D-04 MaxDP=7.72D-03 DE=-8.59D-03 OVMax= 1.25D-02

 Cycle   3  Pass 1  IDiag  1:
 E= -257.880817888055     Delta-E=       -0.001525691164 Rises=F Damp=F
 DIIS: error= 7.41D-03 at cycle   3 NSaved=   3.
 NSaved= 3 IEnMin= 3 EnMin= -257.880817888055     IErMin= 3 ErrMin= 7.41D-03
 ErrMax= 7.41D-03  0.00D+00 EMaxC= 1.00D-01 BMatC= 2.80D-03 BMatP= 6.63D-03
 IDIUse=3 WtCom= 9.26D-01 WtEn= 7.41D-02
 Coeff-Com: -0.998D-02 0.392D+00 0.618D+00
 Coeff-En:   0.000D+00 0.261D+00 0.739D+00
 Coeff:     -0.924D-02 0.382D+00 0.627D+00
 Gap=     0.745 Goal=   None    Shift=    0.000
 RMSDP=9.61D-05 MaxDP=3.04D-03 DE=-1.53D-03 OVMax= 5.14D-03

 Cycle   4  Pass 1  IDiag  1:
 E= -257.881857805352     Delta-E=       -0.001039917297 Rises=F Damp=F
 DIIS: error= 9.81D-05 at cycle   4 NSaved=   4.
 NSaved= 4 IEnMin= 4 EnMin= -257.881857805352     IErMin= 4 ErrMin= 9.81D-05
 ErrMax= 9.81D-05  0.00D+00 EMaxC= 1.00D-01 BMatC= 5.71D-07 BMatP= 2.80D-03
 IDIUse=1 WtCom= 1.00D+00 WtEn= 0.00D+00
 Coeff-Com: -0.374D-04-0.123D-01-0.510D-02 0.102D+01
 Coeff:     -0.374D-04-0.123D-01-0.510D-02 0.102D+01
 Gap=     0.745 Goal=   None    Shift=    0.000
 RMSDP=2.25D-06 MaxDP=5.09D-05 DE=-1.04D-03 OVMax= 6.22D-05

 Cycle   5  Pass 1  IDiag  1:
 E= -257.881858019223     Delta-E=       -0.000000213871 Rises=F Damp=F
 DIIS: error= 6.94D-06 at cycle   5 NSaved=   5.
 NSaved= 5 IEnMin= 5 EnMin= -257.881858019223     IErMin= 5 ErrMin= 6.94D-06
 ErrMax= 6.94D-06  0.00D+00 EMaxC= 1.00D-01 BMatC= 2.71D-09 BMatP= 5.71D-07
 IDIUse=1 WtCom= 1.00D+00 WtEn= 0.00D+00
 Coeff-Com: -0.626D-06-0.128D-03 0.370D-03-0.297D-01 0.103D+01
 Coeff:     -0.626D-06-0.128D-03 0.370D-03-0.297D-01 0.103D+01
 Gap=     0.745 Goal=   None    Shift=    0.000
 RMSDP=2.00D-07 MaxDP=5.62D-06 DE=-2.14D-07 OVMax= 5.06D-06

 Cycle   6  Pass 1  IDiag  1:
 E= -257.881858020399     Delta-E=       -0.000000001176 Rises=F Damp=F
 DIIS: error= 1.69D-07 at cycle   6 NSaved=   6.
 NSaved= 6 IEnMin= 6 EnMin= -257.881858020399     IErMin= 6 ErrMin= 1.69D-07
 ErrMax= 1.69D-07  0.00D+00 EMaxC= 1.00D-01 BMatC= 1.40D-12 BMatP= 2.71D-09
 IDIUse=1 WtCom= 1.00D+00 WtEn= 0.00D+00
 Coeff-Com:  0.119D-05 0.400D-04-0.225D-04-0.272D-02-0.402D-01 0.104D+01
 Coeff:      0.119D-05 0.400D-04-0.225D-04-0.272D-02-0.402D-01 0.104D+01
 Gap=     0.745 Goal=   None    Shift=    0.000
 RMSDP=1.17D-08 MaxDP=3.54D-07 DE=-1.18D-09 OVMax= 4.26D-07

 Cycle   7  Pass 1  IDiag  1:
 E= -257.881858020401     Delta-E=       -0.000000000001 Rises=F Damp=F
 DIIS: error= 2.96D-08 at cycle   7 NSaved=   7.
 NSaved= 7 IEnMin= 7 EnMin= -257.881858020401     IErMin= 7 ErrMin= 2.96D-08
 ErrMax= 2.96D-08  0.00D+00 EMaxC= 1.00D-01 BMatC= 2.22D-14 BMatP= 1.40D-12
 IDIUse=1 WtCom= 1.00D+00 WtEn= 0.00D+00
 Coeff-Com: -0.172D-06-0.373D-05 0.516D-05 0.401D-03 0.171D-02-0.116D+00
 Coeff-Com:  0.111D+01
 Coeff:     -0.172D-06-0.373D-05 0.516D-05 0.401D-03 0.171D-02-0.116D+00
 Coeff:      0.111D+01
 Gap=     0.745 Goal=   None    Shift=    0.000
 RMSDP=5.64D-10 MaxDP=1.62D-08 DE=-1.36D-12 OVMax= 2.22D-08

 SCF Done:  E(RM062X) =  -257.881858020     A.U. after    7 cycles
            NFock=  7  Conv=0.56D-09     -V/T= 2.0024
 KE= 2.572670932743D+02 PE=-6.467342354732D+02 EE= 1.192788374129D+02
 Leave Link  502 at Sat Apr 17 08:50:55 2021, MaxMem=   104857600 cpu:            2579.7 elap:              55.3
 (Enter /s/ls4/users/knvvv/bin/g16sse/l601.exe)
 Copying SCF densities to generalized density rwf, IOpCl= 0 IROHF=0.

 **********************************************************************

            Population analysis using the SCF density.

 **********************************************************************

 Orbital symmetries:
       Occupied  (SGU) (SGG) (SGG) (SGU) (SGG) (PIU) (PIU) (PIG)
                 (PIG) (SGU)
       Virtual   (PIU) (PIU) (SGG) (SGU) (PIG) (PIG) (SGG) (SGU)
                 (SGG) (PIU) (PIU) (SGU) (PIG) (PIG) (PIU) (PIU)
                 (DLTG) (DLTG) (SGG) (DLTU) (DLTU) (PIG) (PIG)
                 (SGU) (SGG) (SGU) (SGG) (PIU) (PIU) (PIG) (PIG)
                 (SGU) (SGG) (PIU) (PIU) (DLTG) (DLTG) (DLTU) (DLTU)
                 (PIG) (PIG) (SGU) (SGG) (SGU) (DLTG) (DLTU) (?A)
                 (?A) (?B) (?B) (DLTG) (DLTU) (?A) (?A) (?B) (?B)
                 (SGG) (SGU) (SGG) (PIU) (PIU) (PIG) (PIG) (SGU)
                 (SGG) (PIU) (PIU) (DLTG) (DLTG) (DLTU) (DLTU)
                 (PIG) (PIG) (SGU) (?C) (?D) (?E) (?E) (?A) (?A)
                 (?B) (?B) (?E) (?E) (?A) (?A) (?B) (?B) (?C) (?D)
                 (?D) (?C) (SGG) (SGU) (DLTG) (DLTU) (?A) (?A)
                 (?B) (?B) (DLTG) (DLTU) (SGG) (?A) (?A) (?B) (?B)
                 (SGU) (SGG) (PIU) (PIU) (DLTG) (DLTG) (DLTU) (DLTU)
                 (PIG) (PIG) (SGU) (SGG) (SGU) (SGG) (SGU)
 The electronic state is 1-SGG.
 Alpha  occ. eigenvalues --  -31.59004 -31.59004  -1.62328  -1.62327  -0.68677
 Alpha  occ. eigenvalues --   -0.68653  -0.68653  -0.68648  -0.68648  -0.68623
 Alpha virt. eigenvalues --    0.05899   0.05899   0.05977   0.06165   0.09056
 Alpha virt. eigenvalues --    0.09056   0.12557   0.20542   0.46568   0.48600
 Alpha virt. eigenvalues --    0.48600   0.48992   0.49281   0.49281   0.52696
 Alpha virt. eigenvalues --    0.52696   0.53930   0.53932   0.53954   0.54301
 Alpha virt. eigenvalues --    0.54303   0.56802   0.56802   0.61567   1.06988
 Alpha virt. eigenvalues --    1.16738   1.77331   1.78011   1.78011   1.78966
 Alpha virt. eigenvalues --    1.78966   1.80674   2.10063   2.11097   2.11097
 Alpha virt. eigenvalues --    2.11932   2.11932   2.12140   2.12140   2.13456
 Alpha virt. eigenvalues --    2.13456   2.17657   4.60414   4.68340   5.50384
 Alpha virt. eigenvalues --    5.50384   5.50385   5.50385   5.50385   5.50385
 Alpha virt. eigenvalues --    5.50386   5.50386   5.50386   5.50386   5.50386
 Alpha virt. eigenvalues --    5.50386   5.50387   5.50391   5.96516   5.96693
 Alpha virt. eigenvalues --    5.96693   5.97545   5.97545   5.98967   6.60431
 Alpha virt. eigenvalues --    6.61326   6.61326   6.61860   6.61861   6.61988
 Alpha virt. eigenvalues --    6.61988   6.62833   6.62833   6.65631  14.21193
 Alpha virt. eigenvalues --   14.21193  14.21193  14.21193  14.21193  14.21193
 Alpha virt. eigenvalues --   14.21193  14.21193  14.21193  14.21193  14.21193
 Alpha virt. eigenvalues --   14.21193  14.21193  14.21193  14.21194  14.21194
 Alpha virt. eigenvalues --   14.21194  14.21194  17.70342  17.77531  18.88205
 Alpha virt. eigenvalues --   18.88205  18.88205  18.88205  18.88205  18.88205
 Alpha virt. eigenvalues --   18.88205  18.88205  18.88206  18.88206  18.88206
 Alpha virt. eigenvalues --   18.88206  18.88206  18.88207  20.23379  20.24070
 Alpha virt. eigenvalues --   20.24070  20.24418  20.24418  20.24499  20.24499
 Alpha virt. eigenvalues --   20.25047  20.25047  20.26884  64.45041  64.51621
 Alpha virt. eigenvalues --  336.64578 336.72876
          Condensed to atoms (all electrons):
               1          2
     1  Ne   9.999930   0.000070
     2  Ne   0.000070   9.999930
 Mulliken charges:
               1
     1  Ne  -0.000000
     2  Ne  -0.000000
 Sum of Mulliken charges =  -0.00000
 Mulliken charges with hydrogens summed into heavy atoms:
               1
     1  Ne  -0.000000
     2  Ne  -0.000000
 Electronic spatial extent (au):  <R**2>=            349.3543
 Charge=             -0.0000 electrons
 Dipole moment (field-independent basis, Debye):
    X=             -0.0000    Y=              0.0000    Z=             -0.0000  Tot=              0.0000
 Quadrupole moment (field-independent basis, Debye-Ang):
   XX=             -8.6139   YY=             -8.6139   ZZ=             -8.6095
   XY=             -0.0000   XZ=             -0.0000   YZ=              0.0000
 Traceless Quadrupole moment (field-independent basis, Debye-Ang):
   XX=             -0.0015   YY=             -0.0015   ZZ=              0.0029
   XY=             -0.0000   XZ=             -0.0000   YZ=              0.0000
 Octapole moment (field-independent basis, Debye-Ang**2):
  XXX=             -0.0000  YYY=              0.0000  ZZZ=             -0.0000  XYY=             -0.0000
  XXY=              0.0000  XXZ=              0.0000  XZZ=             -0.0000  YZZ=              0.0000
  YYZ=             -0.0000  XYZ=             -0.0000
 Hexadecapole moment (field-independent basis, Debye-Ang**3):
 XXXX=             -4.4673 YYYY=             -4.4673 ZZZZ=           -243.3384 XXXY=              0.0000
 XXXZ=              0.0000 YYYX=              0.0000 YYYZ=              0.0000 ZZZX=              0.0000
 ZZZY=              0.0000 XXYY=             -1.4891 XXZZ=            -41.3056 YYZZ=            -41.3056
 XXYZ=              0.0000 YYXZ=              0.0000 ZZXY=             -0.0000
 N-N= 1.230644676558D+01 E-N=-6.467342345269D+02  KE= 2.572670932743D+02
 PrsmSu:  requested number of processors reduced to:  21 ShMem   1 Linda.
 No NMR shielding tensors so no spin-rotation constants.
 Leave Link  601 at Sat Apr 17 08:50:58 2021, MaxMem=   104857600 cpu:             164.8 elap:               3.6
 (Enter /s/ls4/users/knvvv/bin/g16sse/l801.exe)
 DoSCS=F DFT=T ScalE2(SS,OS)=  1.000000  1.000000
 Range of M.O.s used for correlation:     1   132
 NBasis=   132 NAE=    10 NBE=    10 NFC=     0 NFV=     0
 NROrb=    132 NOA=    10 NOB=    10 NVA=   122 NVB=   122
 Leave Link  801 at Sat Apr 17 08:50:59 2021, MaxMem=   104857600 cpu:               3.2 elap:               0.1
 (Enter /s/ls4/users/knvvv/bin/g16sse/l914.exe)
 RHF ground state
 Doing stability rather than CIS.
 Two-electron integrals replicated using symmetry.
 MDV=   104857600 DFT=T DoStab=T Mixed=T DoRPA=F DoScal=F NonHer=F
 Making orbital integer symmetry assigments:
 Orbital symmetries:
       Occupied  (SGU) (SGG) (SGG) (SGU) (SGG) (PIU) (PIU) (PIG)
                 (PIG) (SGU)
       Virtual   (PIU) (PIU) (SGG) (SGU) (PIG) (PIG) (SGG) (SGU)
                 (SGG) (PIU) (PIU) (SGU) (PIG) (PIG) (PIU) (PIU)
                 (DLTG) (DLTG) (SGG) (DLTU) (DLTU) (PIG) (PIG)
                 (SGU) (SGG) (SGU) (SGG) (PIU) (PIU) (PIG) (PIG)
                 (SGU) (SGG) (PIU) (PIU) (DLTG) (DLTG) (DLTU) (DLTU)
                 (PIG) (PIG) (SGU) (SGG) (SGU) (DLTG) (DLTU) (?A)
                 (?A) (?B) (?B) (DLTG) (DLTU) (?A) (?A) (?B) (?B)
                 (SGG) (SGU) (SGG) (PIU) (PIU) (PIG) (PIG) (SGU)
                 (SGG) (PIU) (PIU) (DLTG) (DLTG) (DLTU) (DLTU)
                 (PIG) (PIG) (SGU) (?C) (?D) (?E) (?E) (?A) (?A)
                 (?B) (?B) (?E) (?E) (?A) (?A) (?B) (?B) (?C) (?D)
                 (?D) (?C) (SGG) (SGU) (DLTG) (DLTU) (?A) (?A)
                 (?B) (?B) (DLTG) (DLTU) (SGG) (?A) (?A) (?B) (?B)
                 (SGU) (SGG) (PIU) (PIU) (DLTG) (DLTG) (DLTU) (DLTU)
                 (PIG) (PIG) (SGU) (SGG) (SGU) (SGG) (SGU)
    48 initial guesses have been made.
 Convergence on wavefunction:    0.001000000000000
 Davidson Disk Diagonalization:  ConvIn= 1.00D-03 SkipCon=T Conv= 1.00D-03.
 Max sub-space:  2000 roots to seek:    48 dimension of matrix:         2440
 Iteration     1 Dimension    48 NMult     0 NNew     48
 Estimated number of processors is:   20
 CISAX will form     1 AO SS matrices at one time.
 NMat=     1 NSing=     1 JSym2X= 2.
 FoFJK:  IHMeth= 1 ICntrl=       0 DoSepK=F KAlg= 0 I1Cent=           0 FoldK=F
 IRaf= 810000000 NMat=       1 IRICut=       1 DoRegI=T DoRafI=F ISym2E= 2 IDoP0=0 IntGTp=1.
 FoFCou: FMM=F IPFlag=           0 FMFlag=      100000 FMFlg1=           0
         NFxFlg=           0 DoJE=F BraDBF=F KetDBF=F FulRan=T
         wScrn=  0.000000 ICntrl=         0 IOpCl=  0 I1Cent=           0 NGrid=           0
         NMat0=    1 NMatS0=      1 NMatT0=    0 NMatD0=    1 NMtDS0=    0 NMtDT0=    0
 Integrals replicated using symmetry in FoFCou.
 CoulSu:  requested number of processors reduced to:  20 ShMem   1 Linda.
 NMat=     1 NSing=     1 JSym2X= 2.
 CoulSu:  requested number of processors reduced to:  20 ShMem   1 Linda.
 NMat=     1 NSing=     1 JSym2X= 2.
 CoulSu:  requested number of processors reduced to:  20 ShMem   1 Linda.
 NMat=     1 NSing=     1 JSym2X= 2.
 CoulSu:  requested number of processors reduced to:  20 ShMem   1 Linda.
 NMat=     1 NSing=     1 JSym2X= 2.
 CoulSu:  requested number of processors reduced to:  20 ShMem   1 Linda.
 NMat=     1 NSing=     1 JSym2X= 2.
 CoulSu:  requested number of processors reduced to:  20 ShMem   1 Linda.
 NMat=     1 NSing=     1 JSym2X= 2.
 CoulSu:  requested number of processors reduced to:  20 ShMem   1 Linda.
 NMat=     1 NSing=     1 JSym2X= 2.
 CoulSu:  requested number of processors reduced to:  20 ShMem   1 Linda.
 NMat=     1 NSing=     1 JSym2X= 2.
 CoulSu:  requested number of processors reduced to:  20 ShMem   1 Linda.
 NMat=     1 NSing=     1 JSym2X= 2.
 CoulSu:  requested number of processors reduced to:  20 ShMem   1 Linda.
 NMat=     1 NSing=     1 JSym2X= 2.
 CoulSu:  requested number of processors reduced to:  20 ShMem   1 Linda.
 NMat=     1 NSing=     1 JSym2X= 2.
 CoulSu:  requested number of processors reduced to:  20 ShMem   1 Linda.
 NMat=     1 NSing=     1 JSym2X= 2.
 CoulSu:  requested number of processors reduced to:  20 ShMem   1 Linda.
 NMat=     1 NSing=     1 JSym2X= 2.
 CoulSu:  requested number of processors reduced to:  20 ShMem   1 Linda.
 NMat=     1 NSing=     1 JSym2X= 2.
 CoulSu:  requested number of processors reduced to:  20 ShMem   1 Linda.
 NMat=     1 NSing=     1 JSym2X= 2.
 CoulSu:  requested number of processors reduced to:  20 ShMem   1 Linda.
 NMat=     1 NSing=     1 JSym2X= 2.
 CoulSu:  requested number of processors reduced to:  20 ShMem   1 Linda.
 NMat=     1 NSing=     1 JSym2X= 2.
 CoulSu:  requested number of processors reduced to:  20 ShMem   1 Linda.
 NMat=     1 NSing=     1 JSym2X= 2.
 CoulSu:  requested number of processors reduced to:  20 ShMem   1 Linda.
 NMat=     1 NSing=     1 JSym2X= 2.
 CoulSu:  requested number of processors reduced to:  20 ShMem   1 Linda.
 NMat=     1 NSing=     1 JSym2X= 2.
 CoulSu:  requested number of processors reduced to:  20 ShMem   1 Linda.
 NMat=     1 NSing=     1 JSym2X= 2.
 CoulSu:  requested number of processors reduced to:  20 ShMem   1 Linda.
 NMat=     1 NSing=     1 JSym2X= 2.
 CoulSu:  requested number of processors reduced to:  20 ShMem   1 Linda.
 NMat=     1 NSing=     1 JSym2X= 2.
 CoulSu:  requested number of processors reduced to:  20 ShMem   1 Linda.
 NMat=     1 NSing=     0 JSym2X= 2.
 CoulSu:  requested number of processors reduced to:  20 ShMem   1 Linda.
 NMat=     1 NSing=     0 JSym2X= 2.
 CoulSu:  requested number of processors reduced to:  20 ShMem   1 Linda.
 NMat=     1 NSing=     0 JSym2X= 2.
 CoulSu:  requested number of processors reduced to:  20 ShMem   1 Linda.
 NMat=     1 NSing=     0 JSym2X= 2.
 CoulSu:  requested number of processors reduced to:  20 ShMem   1 Linda.
 NMat=     1 NSing=     0 JSym2X= 2.
 CoulSu:  requested number of processors reduced to:  20 ShMem   1 Linda.
 NMat=     1 NSing=     0 JSym2X= 2.
 CoulSu:  requested number of processors reduced to:  20 ShMem   1 Linda.
 NMat=     1 NSing=     0 JSym2X= 2.
 CoulSu:  requested number of processors reduced to:  20 ShMem   1 Linda.
 NMat=     1 NSing=     0 JSym2X= 2.
 CoulSu:  requested number of processors reduced to:  20 ShMem   1 Linda.
 NMat=     1 NSing=     0 JSym2X= 2.
 CoulSu:  requested number of processors reduced to:  20 ShMem   1 Linda.
 NMat=     1 NSing=     0 JSym2X= 2.
 CoulSu:  requested number of processors reduced to:  20 ShMem   1 Linda.
 NMat=     1 NSing=     0 JSym2X= 2.
 CoulSu:  requested number of processors reduced to:  20 ShMem   1 Linda.
 NMat=     1 NSing=     0 JSym2X= 2.
 CoulSu:  requested number of processors reduced to:  20 ShMem   1 Linda.
 NMat=     1 NSing=     0 JSym2X= 2.
 CoulSu:  requested number of processors reduced to:  20 ShMem   1 Linda.
 NMat=     1 NSing=     0 JSym2X= 2.
 CoulSu:  requested number of processors reduced to:  20 ShMem   1 Linda.
 NMat=     1 NSing=     0 JSym2X= 2.
 CoulSu:  requested number of processors reduced to:  20 ShMem   1 Linda.
 NMat=     1 NSing=     0 JSym2X= 2.
 CoulSu:  requested number of processors reduced to:  20 ShMem   1 Linda.
 NMat=     1 NSing=     0 JSym2X= 2.
 CoulSu:  requested number of processors reduced to:  20 ShMem   1 Linda.
 NMat=     1 NSing=     0 JSym2X= 2.
 CoulSu:  requested number of processors reduced to:  20 ShMem   1 Linda.
 NMat=     1 NSing=     0 JSym2X= 2.
 CoulSu:  requested number of processors reduced to:  20 ShMem   1 Linda.
 NMat=     1 NSing=     0 JSym2X= 2.
 CoulSu:  requested number of processors reduced to:  20 ShMem   1 Linda.
 NMat=     1 NSing=     0 JSym2X= 2.
 CoulSu:  requested number of processors reduced to:  20 ShMem   1 Linda.
 NMat=     1 NSing=     0 JSym2X= 2.
 CoulSu:  requested number of processors reduced to:  20 ShMem   1 Linda.
 NMat=     1 NSing=     0 JSym2X= 2.
 CoulSu:  requested number of processors reduced to:  20 ShMem   1 Linda.
 NMat=     1 NSing=     0 JSym2X= 2.
 CoulSu:  requested number of processors reduced to:  20 ShMem   1 Linda.
 New state      1 was old state     34
 Excitation Energies [eV] at current iteration:
 Root      1 :    17.384699326909890
 Root      2 :    17.384699326928540
 Root      3 :    17.384945378590820
 Root      4 :    17.408534539510520
 Root      5 :    17.408534539528790
 Root      6 :    17.467121595342610
 Root      7 :    17.467121595347160
 Root      8 :    17.473092663418130
 Root      9 :    17.473092663426940
 Root     10 :    17.635132529032990
 Root     11 :    17.655365589374550
 Root     12 :    17.729517562590740
 Root     13 :    17.753027691546340
 Root     14 :    17.805334456831290
 Root     15 :    17.826832148219720
 Root     16 :    17.826988518376360
 Root     17 :    17.858692655716160
 Root     18 :    17.858894712134510
 Root     19 :    17.909972335359070
 Root     20 :    17.909972335449310
 Root     21 :    17.919657140698140
 Root     22 :    17.919657140794000
 Root     23 :    17.948428887982230
 Root     24 :    17.948428887982440
 Root     25 :    17.949815069482990
 Root     26 :    17.949815069483030
 Root     27 :    17.967955221310340
 Root     28 :    17.967955221417740
 Root     29 :    17.975300299774140
 Root     30 :    17.976159817197450
 Root     31 :    17.979233985359140
 Root     32 :    17.979233985466480
 Root     33 :    17.982629310644990
 Root     34 :    17.982835486331090
 Root     35 :    18.137491570733910
 Root     36 :    18.137491570746160
 Root     37 :    18.145082950831950
 Root     38 :    18.145082950839490
 Root     39 :    18.145128957758220
 Root     40 :    18.195693036527620
 Root     41 :    18.195693036531360
 Root     42 :    18.198360450902850
 Root     43 :    18.198360450909010
 Root     44 :    18.219536127507830
 Root     45 :    18.221046072592080
 Root     46 :    18.230384047904470
 Root     47 :    19.077808077783440
 Root     48 :    19.106442917836430
 Iteration     2 Dimension    96 NMult    48 NNew     48
 Estimated number of processors is:   20
 CISAX will form     1 AO SS matrices at one time.
 NMat=     1 NSing=     1 JSym2X= 2.
 CoulSu:  requested number of processors reduced to:  20 ShMem   1 Linda.
 NMat=     1 NSing=     1 JSym2X= 2.
 CoulSu:  requested number of processors reduced to:  20 ShMem   1 Linda.
 NMat=     1 NSing=     1 JSym2X= 2.
 CoulSu:  requested number of processors reduced to:  20 ShMem   1 Linda.
 NMat=     1 NSing=     1 JSym2X= 2.
 CoulSu:  requested number of processors reduced to:  20 ShMem   1 Linda.
 NMat=     1 NSing=     1 JSym2X= 2.
 CoulSu:  requested number of processors reduced to:  20 ShMem   1 Linda.
 NMat=     1 NSing=     1 JSym2X= 2.
 CoulSu:  requested number of processors reduced to:  20 ShMem   1 Linda.
 NMat=     1 NSing=     1 JSym2X= 2.
 CoulSu:  requested number of processors reduced to:  20 ShMem   1 Linda.
 NMat=     1 NSing=     1 JSym2X= 2.
 CoulSu:  requested number of processors reduced to:  20 ShMem   1 Linda.
 NMat=     1 NSing=     1 JSym2X= 2.
 CoulSu:  requested number of processors reduced to:  20 ShMem   1 Linda.
 NMat=     1 NSing=     1 JSym2X= 2.
 CoulSu:  requested number of processors reduced to:  20 ShMem   1 Linda.
 NMat=     1 NSing=     1 JSym2X= 2.
 CoulSu:  requested number of processors reduced to:  20 ShMem   1 Linda.
 NMat=     1 NSing=     1 JSym2X= 2.
 CoulSu:  requested number of processors reduced to:  20 ShMem   1 Linda.
 NMat=     1 NSing=     1 JSym2X= 2.
 CoulSu:  requested number of processors reduced to:  20 ShMem   1 Linda.
 NMat=     1 NSing=     1 JSym2X= 2.
 CoulSu:  requested number of processors reduced to:  20 ShMem   1 Linda.
 NMat=     1 NSing=     1 JSym2X= 2.
 CoulSu:  requested number of processors reduced to:  20 ShMem   1 Linda.
 NMat=     1 NSing=     1 JSym2X= 2.
 CoulSu:  requested number of processors reduced to:  20 ShMem   1 Linda.
 NMat=     1 NSing=     1 JSym2X= 2.
 CoulSu:  requested number of processors reduced to:  20 ShMem   1 Linda.
 NMat=     1 NSing=     1 JSym2X= 2.
 CoulSu:  requested number of processors reduced to:  20 ShMem   1 Linda.
 NMat=     1 NSing=     1 JSym2X= 2.
 CoulSu:  requested number of processors reduced to:  20 ShMem   1 Linda.
 NMat=     1 NSing=     1 JSym2X= 2.
 CoulSu:  requested number of processors reduced to:  20 ShMem   1 Linda.
 NMat=     1 NSing=     1 JSym2X= 2.
 CoulSu:  requested number of processors reduced to:  20 ShMem   1 Linda.
 NMat=     1 NSing=     1 JSym2X= 2.
 CoulSu:  requested number of processors reduced to:  20 ShMem   1 Linda.
 NMat=     1 NSing=     1 JSym2X= 2.
 CoulSu:  requested number of processors reduced to:  20 ShMem   1 Linda.
 NMat=     1 NSing=     1 JSym2X= 2.
 CoulSu:  requested number of processors reduced to:  20 ShMem   1 Linda.
 NMat=     1 NSing=     0 JSym2X= 2.
 CoulSu:  requested number of processors reduced to:  20 ShMem   1 Linda.
 NMat=     1 NSing=     0 JSym2X= 2.
 CoulSu:  requested number of processors reduced to:  20 ShMem   1 Linda.
 NMat=     1 NSing=     0 JSym2X= 2.
 CoulSu:  requested number of processors reduced to:  20 ShMem   1 Linda.
 NMat=     1 NSing=     0 JSym2X= 2.
 CoulSu:  requested number of processors reduced to:  20 ShMem   1 Linda.
 NMat=     1 NSing=     0 JSym2X= 2.
 CoulSu:  requested number of processors reduced to:  20 ShMem   1 Linda.
 NMat=     1 NSing=     0 JSym2X= 2.
 CoulSu:  requested number of processors reduced to:  20 ShMem   1 Linda.
 NMat=     1 NSing=     0 JSym2X= 2.
 CoulSu:  requested number of processors reduced to:  20 ShMem   1 Linda.
 NMat=     1 NSing=     0 JSym2X= 2.
 CoulSu:  requested number of processors reduced to:  20 ShMem   1 Linda.
 NMat=     1 NSing=     0 JSym2X= 2.
 CoulSu:  requested number of processors reduced to:  20 ShMem   1 Linda.
 NMat=     1 NSing=     0 JSym2X= 2.
 CoulSu:  requested number of processors reduced to:  20 ShMem   1 Linda.
 NMat=     1 NSing=     0 JSym2X= 2.
 CoulSu:  requested number of processors reduced to:  20 ShMem   1 Linda.
 NMat=     1 NSing=     0 JSym2X= 2.
 CoulSu:  requested number of processors reduced to:  20 ShMem   1 Linda.
 NMat=     1 NSing=     0 JSym2X= 2.
 CoulSu:  requested number of processors reduced to:  20 ShMem   1 Linda.
 NMat=     1 NSing=     0 JSym2X= 2.
 CoulSu:  requested number of processors reduced to:  20 ShMem   1 Linda.
 NMat=     1 NSing=     0 JSym2X= 2.
 CoulSu:  requested number of processors reduced to:  20 ShMem   1 Linda.
 NMat=     1 NSing=     0 JSym2X= 2.
 CoulSu:  requested number of processors reduced to:  20 ShMem   1 Linda.
 NMat=     1 NSing=     0 JSym2X= 2.
 CoulSu:  requested number of processors reduced to:  20 ShMem   1 Linda.
 NMat=     1 NSing=     0 JSym2X= 2.
 CoulSu:  requested number of processors reduced to:  20 ShMem   1 Linda.
 NMat=     1 NSing=     0 JSym2X= 2.
 CoulSu:  requested number of processors reduced to:  20 ShMem   1 Linda.
 NMat=     1 NSing=     0 JSym2X= 2.
 CoulSu:  requested number of processors reduced to:  20 ShMem   1 Linda.
 NMat=     1 NSing=     0 JSym2X= 2.
 CoulSu:  requested number of processors reduced to:  20 ShMem   1 Linda.
 NMat=     1 NSing=     0 JSym2X= 2.
 CoulSu:  requested number of processors reduced to:  20 ShMem   1 Linda.
 NMat=     1 NSing=     0 JSym2X= 2.
 CoulSu:  requested number of processors reduced to:  20 ShMem   1 Linda.
 NMat=     1 NSing=     0 JSym2X= 2.
 CoulSu:  requested number of processors reduced to:  20 ShMem   1 Linda.
 Root      1 not converged, maximum delta is    0.509140790954635
 Excitation Energies [eV] at current iteration:
 Root      1 :    16.898158008224570   Change is   -0.486541318685322
 Root      2 :    16.898158008227830   Change is   -0.486541318700711
 Root      3 :    16.906674851226390   Change is   -1.238408099605560
 Root      4 :    16.906674851228530   Change is   -1.238408099610959
 Root      5 :    16.929526102912940   Change is   -1.215602854845273
 Root      6 :    16.986333858819030   Change is   -1.233202268688795
 Root      7 :    17.066235327999000   Change is   -0.686792363547340
 Root      8 :    17.099014099479000   Change is   -0.706320357352288
 Root      9 :    17.142831664745580   Change is   -0.242113713845248
 Root     10 :    17.158464297920290   Change is   -0.751508037529026
 Root     11 :    17.158464297945730   Change is   -0.751508037413337
 Root     12 :    17.166856025664790   Change is   -0.306236637753346
 Root     13 :    17.166856025668540   Change is   -0.306236637758400
 Root     14 :    17.178736548437390   Change is   -0.648095599782328
 Root     15 :    17.178888328439820   Change is   -0.648100189936542
 Root     16 :    17.183738328243430   Change is   -0.451394200789560
 Root     17 :    17.187052612707380   Change is   -0.280068982635232
 Root     18 :    17.187052612709170   Change is   -0.280068982637987
 Root     19 :    17.192547004828050   Change is   -0.215987534682469
 Root     20 :    17.192547004877140   Change is   -0.215987534651651
 Root     21 :    17.203226519961820   Change is   -0.655466135754340
 Root     22 :    17.203376646534820   Change is   -0.655518065599682
 Root     23 :    17.313419799824560   Change is   -0.916964248079913
 Root     24 :    17.363902028190970   Change is   -0.291463561183573
 Root     25 :    17.419405046877480   Change is   -0.778955404031535
 Root     26 :    17.419405046879990   Change is   -0.778955404022861
 Root     27 :    17.427278093069720   Change is   -0.768414943457899
 Root     28 :    17.427278093078900   Change is   -0.768414943452464
 Root     29 :    17.427333963534740   Change is   -0.793712109057337
 Root     30 :    17.442626285529180   Change is   -0.286891277061554
 Root     31 :    17.473069960496700   Change is   -0.502230339277439
 Root     32 :    17.473747335254710   Change is   -0.502412481942742
 Root     33 :    17.475852552290730   Change is   -0.661639018455435
 Root     34 :    17.475852552361410   Change is   -0.661639018372492
 Root     35 :    17.476512315525970   Change is   -0.443144825172169
 Root     36 :    17.476512315600520   Change is   -0.443144825193476
 Root     37 :    17.482104274892050   Change is   -0.500525035752935
 Root     38 :    17.482294996800780   Change is   -0.500540489530310
 Root     39 :    17.508957363732120   Change is   -0.458997857578223
 Root     40 :    17.508957363838930   Change is   -0.458997857578813
 Root     41 :    17.509477844076620   Change is   -0.469756141282520
 Root     42 :    17.509477844174810   Change is   -0.469756141291662
 Root     43 :    17.522116058453550   Change is   -0.426312829528678
 Root     44 :    17.522116058546360   Change is   -0.426312829436073
 Root     45 :    17.522917542365410   Change is   -0.426897527117583
 Root     46 :    17.522917542390900   Change is   -0.426897527092127
 Root     47 :    18.532337248945910   Change is   -0.545470828837530
 Root     48 :    18.563335034004860   Change is   -0.543107883831567
 Iteration     3 Dimension   102 NMult    96 NNew      6
 Estimated number of processors is:   20
 CISAX will form     1 AO SS matrices at one time.
 NMat=     1 NSing=     1 JSym2X= 2.
 CoulSu:  requested number of processors reduced to:  20 ShMem   1 Linda.
 NMat=     1 NSing=     1 JSym2X= 2.
 CoulSu:  requested number of processors reduced to:  20 ShMem   1 Linda.
 NMat=     1 NSing=     1 JSym2X= 2.
 CoulSu:  requested number of processors reduced to:  20 ShMem   1 Linda.
 NMat=     1 NSing=     0 JSym2X= 2.
 CoulSu:  requested number of processors reduced to:  20 ShMem   1 Linda.
 NMat=     1 NSing=     0 JSym2X= 2.
 CoulSu:  requested number of processors reduced to:  20 ShMem   1 Linda.
 NMat=     1 NSing=     0 JSym2X= 2.
 CoulSu:  requested number of processors reduced to:  20 ShMem   1 Linda.
 Root      1 not converged, maximum delta is    0.048289202056819
 Excitation Energies [eV] at current iteration:
 Root      1 :    16.864499559238400   Change is   -0.033658448986170
 Root      2 :    16.864499559241430   Change is   -0.033658448986399
 Root      3 :    16.869540244247470   Change is   -0.037134606978911
 Root      4 :    17.155722827760330   Change is   -0.011133197904455
 Root      5 :    17.155729377485150   Change is   -0.011126648183392
 Root      6 :    17.172637596473330   Change is   -0.011100731770105
 Iteration     4 Dimension   108 NMult   102 NNew      6
 Estimated number of processors is:   20
 CISAX will form     1 AO SS matrices at one time.
 NMat=     1 NSing=     1 JSym2X= 2.
 CoulSu:  requested number of processors reduced to:  20 ShMem   1 Linda.
 NMat=     1 NSing=     1 JSym2X= 2.
 CoulSu:  requested number of processors reduced to:  20 ShMem   1 Linda.
 NMat=     1 NSing=     1 JSym2X= 2.
 CoulSu:  requested number of processors reduced to:  20 ShMem   1 Linda.
 NMat=     1 NSing=     0 JSym2X= 2.
 CoulSu:  requested number of processors reduced to:  20 ShMem   1 Linda.
 NMat=     1 NSing=     0 JSym2X= 2.
 CoulSu:  requested number of processors reduced to:  20 ShMem   1 Linda.
 NMat=     1 NSing=     0 JSym2X= 2.
 CoulSu:  requested number of processors reduced to:  20 ShMem   1 Linda.
 Root      1 not converged, maximum delta is    0.003582864776820
 Excitation Energies [eV] at current iteration:
 Root      1 :    16.863740707172590   Change is   -0.000758852065810
 Root      2 :    16.863740707175650   Change is   -0.000758852065783
 Root      3 :    16.868736330911100   Change is   -0.000803913336374
 Root      4 :    17.155111422281170   Change is   -0.000617955203985
 Root      5 :    17.155111739747470   Change is   -0.000611088012861
 Root      6 :    17.172034512782250   Change is   -0.000603083691079
 Iteration     5 Dimension   114 NMult   108 NNew      6
 Estimated number of processors is:   20
 CISAX will form     1 AO SS matrices at one time.
 NMat=     1 NSing=     1 JSym2X= 2.
 CoulSu:  requested number of processors reduced to:  20 ShMem   1 Linda.
 NMat=     1 NSing=     1 JSym2X= 2.
 CoulSu:  requested number of processors reduced to:  20 ShMem   1 Linda.
 NMat=     1 NSing=     1 JSym2X= 2.
 CoulSu:  requested number of processors reduced to:  20 ShMem   1 Linda.
 NMat=     1 NSing=     0 JSym2X= 2.
 CoulSu:  requested number of processors reduced to:  20 ShMem   1 Linda.
 NMat=     1 NSing=     0 JSym2X= 2.
 CoulSu:  requested number of processors reduced to:  20 ShMem   1 Linda.
 NMat=     1 NSing=     0 JSym2X= 2.
 CoulSu:  requested number of processors reduced to:  20 ShMem   1 Linda.
 Root      1 has converged.
 Excitation Energies [eV] at current iteration:
 Root      1 :    16.863725778666930   Change is   -0.000014928505659
 Root      2 :    16.863725778670000   Change is   -0.000014928505650
 Root      3 :    16.868723333165660   Change is   -0.000012997745441
 Root      4 :    17.155077488483840   Change is   -0.000033933797329
 Root      5 :    17.155077496905370   Change is   -0.000034242842105
 Root      6 :    17.171987483741080   Change is   -0.000047029041166
 Convergence achieved on expansion vectors.
 ***********************************************************************
 Stability analysis using <AA,BB:AA,BB> singles matrix:
 ***********************************************************************
 1PDM for each excited state written to RWF  633
 Ground to excited state transition densities written to RWF  633

 Eigenvectors of the stability matrix:
 
 Excited state symmetry could not be determined.
 Eigenvector   1:      Triplet-?Sym  Eigenvalue= 0.6197305  <S**2>=2.000
       6 -> 13        -0.26358
       6 -> 17         0.18882
       7 -> 13         0.39032
       7 -> 17        -0.27961
       8 -> 14        -0.33454
       8 -> 18        -0.21052
 The wavefunction is stable under the perturbations considered.
 Leave Link  914 at Sat Apr 17 08:53:26 2021, MaxMem=   104857600 cpu:            5168.1 elap:             147.5
 (Enter /s/ls4/users/knvvv/bin/g16sse/l508.exe)
 The wavefunction is already stable.
 Leave Link  508 at Sat Apr 17 08:53:26 2021, MaxMem=   104857600 cpu:               2.2 elap:               0.1
 (Enter /s/ls4/users/knvvv/bin/g16sse/l601.exe)
 Copying SCF densities to generalized density rwf, IOpCl= 0 IROHF=0.

 **********************************************************************

            Population analysis using the SCF density.

 **********************************************************************

 Orbital symmetries:
       Occupied  (SGU) (SGG) (SGG) (SGU) (SGG) (PIU) (PIU) (PIG)
                 (PIG) (SGU)
       Virtual   (PIU) (PIU) (SGG) (SGU) (PIG) (PIG) (SGG) (SGU)
                 (SGG) (PIU) (PIU) (SGU) (PIG) (PIG) (PIU) (PIU)
                 (DLTG) (DLTG) (SGG) (DLTU) (DLTU) (PIG) (PIG)
                 (SGU) (SGG) (SGU) (SGG) (PIU) (PIU) (PIG) (PIG)
                 (SGU) (SGG) (PIU) (PIU) (DLTG) (DLTG) (DLTU) (DLTU)
                 (PIG) (PIG) (SGU) (SGG) (SGU) (DLTG) (DLTU) (?A)
                 (?A) (?B) (?B) (DLTG) (DLTU) (?A) (?A) (?B) (?B)
                 (SGG) (SGU) (SGG) (PIU) (PIU) (PIG) (PIG) (SGU)
                 (SGG) (PIU) (PIU) (DLTG) (DLTG) (DLTU) (DLTU)
                 (PIG) (PIG) (SGU) (?C) (?D) (?E) (?E) (?A) (?A)
                 (?B) (?B) (?E) (?E) (?A) (?A) (?B) (?B) (?C) (?D)
                 (?D) (?C) (SGG) (SGU) (DLTG) (DLTU) (?A) (?A)
                 (?B) (?B) (DLTG) (DLTU) (SGG) (?A) (?A) (?B) (?B)
                 (SGU) (SGG) (PIU) (PIU) (DLTG) (DLTG) (DLTU) (DLTU)
                 (PIG) (PIG) (SGU) (SGG) (SGU) (SGG) (SGU)
 The electronic state is 1-SGG.
 Alpha  occ. eigenvalues --  -31.59004 -31.59004  -1.62328  -1.62327  -0.68677
 Alpha  occ. eigenvalues --   -0.68653  -0.68653  -0.68648  -0.68648  -0.68623
 Alpha virt. eigenvalues --    0.05899   0.05899   0.05977   0.06165   0.09056
 Alpha virt. eigenvalues --    0.09056   0.12557   0.20542   0.46568   0.48600
 Alpha virt. eigenvalues --    0.48600   0.48992   0.49281   0.49281   0.52696
 Alpha virt. eigenvalues --    0.52696   0.53930   0.53932   0.53954   0.54301
 Alpha virt. eigenvalues --    0.54303   0.56802   0.56802   0.61567   1.06988
 Alpha virt. eigenvalues --    1.16738   1.77331   1.78011   1.78011   1.78966
 Alpha virt. eigenvalues --    1.78966   1.80674   2.10063   2.11097   2.11097
 Alpha virt. eigenvalues --    2.11932   2.11932   2.12140   2.12140   2.13456
 Alpha virt. eigenvalues --    2.13456   2.17657   4.60414   4.68340   5.50384
 Alpha virt. eigenvalues --    5.50384   5.50385   5.50385   5.50385   5.50385
 Alpha virt. eigenvalues --    5.50386   5.50386   5.50386   5.50386   5.50386
 Alpha virt. eigenvalues --    5.50386   5.50387   5.50391   5.96516   5.96693
 Alpha virt. eigenvalues --    5.96693   5.97545   5.97545   5.98967   6.60431
 Alpha virt. eigenvalues --    6.61326   6.61326   6.61860   6.61861   6.61988
 Alpha virt. eigenvalues --    6.61988   6.62833   6.62833   6.65631  14.21193
 Alpha virt. eigenvalues --   14.21193  14.21193  14.21193  14.21193  14.21193
 Alpha virt. eigenvalues --   14.21193  14.21193  14.21193  14.21193  14.21193
 Alpha virt. eigenvalues --   14.21193  14.21193  14.21193  14.21194  14.21194
 Alpha virt. eigenvalues --   14.21194  14.21194  17.70342  17.77531  18.88205
 Alpha virt. eigenvalues --   18.88205  18.88205  18.88205  18.88205  18.88205
 Alpha virt. eigenvalues --   18.88205  18.88205  18.88206  18.88206  18.88206
 Alpha virt. eigenvalues --   18.88206  18.88206  18.88207  20.23379  20.24070
 Alpha virt. eigenvalues --   20.24070  20.24418  20.24418  20.24499  20.24499
 Alpha virt. eigenvalues --   20.25047  20.25047  20.26884  64.45041  64.51621
 Alpha virt. eigenvalues --  336.64578 336.72876
          Condensed to atoms (all electrons):
               1          2
     1  Ne   9.999930   0.000070
     2  Ne   0.000070   9.999930
 Mulliken charges:
               1
     1  Ne  -0.000000
     2  Ne  -0.000000
 Sum of Mulliken charges =  -0.00000
 Mulliken charges with hydrogens summed into heavy atoms:
               1
     1  Ne  -0.000000
     2  Ne  -0.000000
 Electronic spatial extent (au):  <R**2>=            349.3543
 Charge=             -0.0000 electrons
 Dipole moment (field-independent basis, Debye):
    X=             -0.0000    Y=              0.0000    Z=             -0.0000  Tot=              0.0000
 Quadrupole moment (field-independent basis, Debye-Ang):
   XX=             -8.6139   YY=             -8.6139   ZZ=             -8.6095
   XY=             -0.0000   XZ=             -0.0000   YZ=              0.0000
 Traceless Quadrupole moment (field-independent basis, Debye-Ang):
   XX=             -0.0015   YY=             -0.0015   ZZ=              0.0029
   XY=             -0.0000   XZ=             -0.0000   YZ=              0.0000
 Octapole moment (field-independent basis, Debye-Ang**2):
  XXX=             -0.0000  YYY=              0.0000  ZZZ=             -0.0000  XYY=             -0.0000
  XXY=              0.0000  XXZ=              0.0000  XZZ=             -0.0000  YZZ=              0.0000
  YYZ=             -0.0000  XYZ=             -0.0000
 Hexadecapole moment (field-independent basis, Debye-Ang**3):
 XXXX=             -4.4673 YYYY=             -4.4673 ZZZZ=           -243.3384 XXXY=              0.0000
 XXXZ=              0.0000 YYYX=              0.0000 YYYZ=              0.0000 ZZZX=              0.0000
 ZZZY=              0.0000 XXYY=             -1.4891 XXZZ=            -41.3056 YYZZ=            -41.3056
 XXYZ=              0.0000 YYXZ=              0.0000 ZZXY=             -0.0000
 N-N= 1.230644676558D+01 E-N=-6.467342345269D+02  KE= 2.572670932743D+02
 PrsmSu:  requested number of processors reduced to:  21 ShMem   1 Linda.
 No NMR shielding tensors so no spin-rotation constants.
 Leave Link  601 at Sat Apr 17 08:53:29 2021, MaxMem=   104857600 cpu:             142.6 elap:               3.2
 (Enter /s/ls4/users/knvvv/bin/g16sse/l9999.exe)

 Test job not archived.
 1\1\GINC-N184\Stability\RM062X\Gen\Ne2\KNVVV\17-Apr-2021\0\\#P M062X/G
 EN Integral=UltraFineGrid SCF=NoSymm Stable=(RExt, Opt) IOp(1/33=1)\\D
 atabase calculations.\\0,1\Ne,0,0.,0.,0.\Ne,0,0.,0.,4.3\\Version=ES64L
 -G16RevA.03\State=1-SGG\HF=-257.881858\RMSD=5.641e-10\Dipole=0.,0.,0.\
 Quadrupole=-0.0010805,-0.0010805,0.002161,0.,0.,0.\PG=D*H [C*(Ne1.Ne1)
 ]\\@


 Standing in the middle of the road is very dangerous;
 you get knocked down by the traffic from both sides.
                                -- Margaret Thatcher
 Job cpu time:       0 days  2 hours 23 minutes 26.7 seconds.
 Elapsed time:       0 days  0 hours  3 minutes 41.7 seconds.
 File lengths (MBytes):  RWF=    104 Int=      0 D2E=      0 Chk=      4 Scr=      1
 Normal termination of Gaussian 16 at Sat Apr 17 08:53:29 2021.
