 Entering Gaussian System, Link 0=/s/ls4/users/knvvv/bin/g16sse/g16
 Input=data/database/M062X--def2-QZVPPD--28_H3OpH2O6OHm_WATER27.gjf
 Output=data/database/M062X--def2-QZVPPD--28_H3OpH2O6OHm_WATER27.log
 Initial command:
 /s/ls4/users/knvvv/bin/g16sse/l1.exe "/s/ls4/users/knvvv/bin/scratch/Gau-1829.inp" -scrdir="/s/ls4/users/knvvv/bin/scratch/"
 Entering Link 1 = /s/ls4/users/knvvv/bin/g16sse/l1.exe PID=      1830.
  
 Copyright (c) 1988,1990,1992,1993,1995,1998,2003,2009,2016,
            Gaussian, Inc.  All Rights Reserved.
  
 This is part of the Gaussian(R) 16 program.  It is based on
 the Gaussian(R) 09 system (copyright 2009, Gaussian, Inc.),
 the Gaussian(R) 03 system (copyright 2003, Gaussian, Inc.),
 the Gaussian(R) 98 system (copyright 1998, Gaussian, Inc.),
 the Gaussian(R) 94 system (copyright 1995, Gaussian, Inc.),
 the Gaussian 92(TM) system (copyright 1992, Gaussian, Inc.),
 the Gaussian 90(TM) system (copyright 1990, Gaussian, Inc.),
 the Gaussian 88(TM) system (copyright 1988, Gaussian, Inc.),
 the Gaussian 86(TM) system (copyright 1986, Carnegie Mellon
 University), and the Gaussian 82(TM) system (copyright 1983,
 Carnegie Mellon University). Gaussian is a federally registered
 trademark of Gaussian, Inc.
  
 This software contains proprietary and confidential information,
 including trade secrets, belonging to Gaussian, Inc.
  
 This software is provided under written license and may be
 used, copied, transmitted, or stored only in accord with that
 written license.
  
 The following legend is applicable only to US Government
 contracts under FAR:
  
                    RESTRICTED RIGHTS LEGEND
  
 Use, reproduction and disclosure by the US Government is
 subject to restrictions as set forth in subparagraphs (a)
 and (c) of the Commercial Computer Software - Restricted
 Rights clause in FAR 52.227-19.
  
 Gaussian, Inc.
 340 Quinnipiac St., Bldg. 40, Wallingford CT 06492
  
  
 ---------------------------------------------------------------
 Warning -- This program may not be used in any manner that
 competes with the business of Gaussian, Inc. or will provide
 assistance to any competitor of Gaussian, Inc.  The licensee
 of this program is prohibited from giving any competitor of
 Gaussian, Inc. access to this program.  By using this program,
 the user acknowledges that Gaussian, Inc. is engaged in the
 business of creating and licensing software in the field of
 computational chemistry and represents and warrants to the
 licensee that it is not a competitor of Gaussian, Inc. and that
 it will not use this program in any manner prohibited above.
 ---------------------------------------------------------------
  

 Cite this work as:
 Gaussian 16, Revision A.03,
 M. J. Frisch, G. W. Trucks, H. B. Schlegel, G. E. Scuseria, 
 M. A. Robb, J. R. Cheeseman, G. Scalmani, V. Barone, 
 G. A. Petersson, H. Nakatsuji, X. Li, M. Caricato, A. V. Marenich, 
 J. Bloino, B. G. Janesko, R. Gomperts, B. Mennucci, H. P. Hratchian, 
 J. V. Ortiz, A. F. Izmaylov, J. L. Sonnenberg, D. Williams-Young, 
 F. Ding, F. Lipparini, F. Egidi, J. Goings, B. Peng, A. Petrone, 
 T. Henderson, D. Ranasinghe, V. G. Zakrzewski, J. Gao, N. Rega, 
 G. Zheng, W. Liang, M. Hada, M. Ehara, K. Toyota, R. Fukuda, 
 J. Hasegawa, M. Ishida, T. Nakajima, Y. Honda, O. Kitao, H. Nakai, 
 T. Vreven, K. Throssell, J. A. Montgomery, Jr., J. E. Peralta, 
 F. Ogliaro, M. J. Bearpark, J. J. Heyd, E. N. Brothers, K. N. Kudin, 
 V. N. Staroverov, T. A. Keith, R. Kobayashi, J. Normand, 
 K. Raghavachari, A. P. Rendell, J. C. Burant, S. S. Iyengar, 
 J. Tomasi, M. Cossi, J. M. Millam, M. Klene, C. Adamo, R. Cammi, 
 J. W. Ochterski, R. L. Martin, K. Morokuma, O. Farkas, 
 J. B. Foresman, and D. J. Fox, Gaussian, Inc., Wallingford CT, 2016.
 
 ******************************************
 Gaussian 16:  ES64L-G16RevA.03 25-Dec-2016
                17-Apr-2021 
 ******************************************
 %RWF=temp23_90156,70GB
 %nprocshared=48
 Will use up to   48 processors via shared memory.
 Default route: MaxDisk=80GB
 ----------------------------------------------------------------------
 #P M062X/GEN Integral=UltraFineGrid SCF=NoSymm Stable=(RExt, Opt) IOp(
 1/33=1)
 ----------------------------------------------------------------------
 1/33=1,38=1,172=1/1;
 2/12=2,17=6,18=5,40=1/2;
 3/5=7,11=2,25=1,30=1,74=-55,75=-5/1,2,3;
 4/9=2/1;
 5/5=2,38=5/2;
 6/7=2,8=2,9=2,10=2,28=1/1;
 8/6=1,10=90,11=11/1;
 9/8=-3,42=1,46=1/14;
 5/5=2,8=3,17=40,38=5/8(-2);
 6/7=2,8=2,9=2,10=2,28=1/1;
 99/5=1,9=1/99;
 Leave Link    1 at Sat Apr 17 21:29:14 2021, MaxMem=           0 cpu:              11.6 elap:               0.3
 (Enter /s/ls4/users/knvvv/bin/g16sse/l101.exe)
 ONIOM data not found on unit 2.
 ----------------------
 Database calculations.
 ----------------------
 TstMul:  ICh=     0
 TstMul:  Mul=     1
 TstMul:  ICh=     0
 TstMul:  Mul=     1
 Symbolic Z-matrix:
 Charge =  0 Multiplicity = 1
 O                    -1.29245   1.94314   1.22265 
 O                     0.        0.        2.19102 
 O                     2.32904   0.14773   1.22265 
 O                    -1.03658  -2.09087   1.22265 
 O                    -0.11737  -2.36664  -1.18115 
 O                     0.        0.       -2.12815 
 O                     2.10826   1.08167  -1.18115 
 O                    -1.99088   1.28497  -1.18115 
 H                    -1.61213   1.7108    0.29023 
 H                    -2.03299   2.32681   1.69771 
 H                    -2.74718   0.69699  -1.2447 
 H                    -0.99858  -2.92403   1.69771 
 H                    -0.67553  -2.25155   0.29023 
 H                    -1.20365   0.77463  -1.6091 
 H                    -0.55754   0.79063   1.83294 
 H                    -0.40593  -0.87816   1.83294 
 H                     1.9772    2.03064  -1.2447 
 H                    -0.06903  -1.4297   -1.6091 
 H                     0.96348   0.08753   1.83294 
 H                     0.76998  -2.72762  -1.2447 
 H                     0.        0.       -3.08863 
 H                     1.27267   0.65507  -1.6091 
 H                     3.03157   0.59722   1.69771 
 H                     2.28767   0.54075   0.29023 
 
 RdStrC is calling ZToCFu for IStruc=1 NZ=    24.
 PrtBox:  NBox=     7 Levels=  2 BoxLen=    8.00 SMaxX=       10.92
          Shift=            5.191425            5.525611            5.836665
 Box      1 Number                   0 centers from      1 to     10:
 Box      2 Number                   1 centers from     11 to     16:
 Box      3 Number                   2 centers from     17 to     17:
 Box      4 Number                   3 centers from     18 to     19:
 Box      5 Number                   4 centers from     20 to     21:
 Box      6 Number                   5 centers from     22 to     23:
 Box      7 Number                   6 centers from     24 to     24:
 After GenITR:
 ITRead=  0  0  0  0  0  0  0  0  0  0  0  0  0  0  0  0  0  0  0  0
 ITRead=  0  0  0  0
 MicOpt= -1 -1 -1 -1 -1 -1 -1 -1 -1 -1 -1 -1 -1 -1 -1 -1 -1 -1 -1 -1
 MicOpt= -1 -1 -1 -1
 ITRead=  0  0  0  0  0  0  0  0  0  0  0  0  0  0  0  0  0  0  0  0
 ITRead=  0  0  0  0
 MicOpt= -1 -1 -1 -1 -1 -1 -1 -1 -1 -1 -1 -1 -1 -1 -1 -1 -1 -1 -1 -1
 MicOpt= -1 -1 -1 -1
 NAtoms=     24 NQM=       24 NQMF=       0 NMMI=      0 NMMIF=      0
                NMic=       0 NMicF=      0.
                    Isotopes and Nuclear Properties:
 (Nuclear quadrupole moments (NQMom) in fm**2, nuclear magnetic moments (NMagM)
  in nuclear magnetons)

  Atom         1           2           3           4           5           6           7           8           9          10
 IAtWgt=          16          16          16          16          16          16          16          16           1           1
 AtmWgt=  15.9949146  15.9949146  15.9949146  15.9949146  15.9949146  15.9949146  15.9949146  15.9949146   1.0078250   1.0078250
 NucSpn=           0           0           0           0           0           0           0           0           1           1
 AtZEff=  -0.0000000  -0.0000000  -0.0000000  -0.0000000  -0.0000000  -0.0000000  -0.0000000  -0.0000000  -0.0000000  -0.0000000
 NQMom=    0.0000000   0.0000000   0.0000000   0.0000000   0.0000000   0.0000000   0.0000000   0.0000000   0.0000000   0.0000000
 NMagM=    0.0000000   0.0000000   0.0000000   0.0000000   0.0000000   0.0000000   0.0000000   0.0000000   2.7928460   2.7928460
 AtZNuc=   8.0000000   8.0000000   8.0000000   8.0000000   8.0000000   8.0000000   8.0000000   8.0000000   1.0000000   1.0000000

  Atom        11          12          13          14          15          16          17          18          19          20
 IAtWgt=           1           1           1           1           1           1           1           1           1           1
 AtmWgt=   1.0078250   1.0078250   1.0078250   1.0078250   1.0078250   1.0078250   1.0078250   1.0078250   1.0078250   1.0078250
 NucSpn=           1           1           1           1           1           1           1           1           1           1
 AtZEff=  -0.0000000  -0.0000000  -0.0000000  -0.0000000  -0.0000000  -0.0000000  -0.0000000  -0.0000000  -0.0000000  -0.0000000
 NQMom=    0.0000000   0.0000000   0.0000000   0.0000000   0.0000000   0.0000000   0.0000000   0.0000000   0.0000000   0.0000000
 NMagM=    2.7928460   2.7928460   2.7928460   2.7928460   2.7928460   2.7928460   2.7928460   2.7928460   2.7928460   2.7928460
 AtZNuc=   1.0000000   1.0000000   1.0000000   1.0000000   1.0000000   1.0000000   1.0000000   1.0000000   1.0000000   1.0000000

  Atom        21          22          23          24
 IAtWgt=           1           1           1           1
 AtmWgt=   1.0078250   1.0078250   1.0078250   1.0078250
 NucSpn=           1           1           1           1
 AtZEff=  -0.0000000  -0.0000000  -0.0000000  -0.0000000
 NQMom=    0.0000000   0.0000000   0.0000000   0.0000000
 NMagM=    2.7928460   2.7928460   2.7928460   2.7928460
 AtZNuc=   1.0000000   1.0000000   1.0000000   1.0000000
 No MM parameters found.
 Leave Link  101 at Sat Apr 17 21:29:14 2021, MaxMem=   104857600 cpu:               7.3 elap:               0.2
 (Enter /s/ls4/users/knvvv/bin/g16sse/l202.exe)
                          Input orientation:                          
 ---------------------------------------------------------------------
 Center     Atomic      Atomic             Coordinates (Angstroms)
 Number     Number       Type             X           Y           Z
 ---------------------------------------------------------------------
      1          8           0       -1.292452    1.943142    1.222650
      2          8           0        0.000000    0.000000    2.191018
      3          8           0        2.329037    0.147725    1.222650
      4          8           0       -1.036584   -2.090868    1.222650
      5          8           0       -0.117374   -2.366640   -1.181147
      6          8           0        0.000000    0.000000   -2.128150
      7          8           0        2.108257    1.081671   -1.181147
      8          8           0       -1.990883    1.284969   -1.181147
      9          1           0       -1.612133    1.710804    0.290226
     10          1           0       -2.032992    2.326809    1.697714
     11          1           0       -2.747184    0.696988   -1.244698
     12          1           0       -0.998580   -2.924027    1.697714
     13          1           0       -0.675533   -2.251550    0.290226
     14          1           0       -1.203647    0.774632   -1.609100
     15          1           0       -0.557543    0.790631    1.832942
     16          1           0       -0.405935   -0.878162    1.832942
     17          1           0        1.977201    2.030637   -1.244698
     18          1           0       -0.069027   -1.429704   -1.609100
     19          1           0        0.963478    0.087531    1.832942
     20          1           0        0.769983   -2.727625   -1.244698
     21          1           0        0.000000    0.000000   -3.088630
     22          1           0        1.272674    0.655073   -1.609100
     23          1           0        3.031572    0.597218    1.697714
     24          1           0        2.287666    0.540746    0.290226
 ---------------------------------------------------------------------
                    Distance matrix (angstroms):
                    1          2          3          4          5
     1  O    0.000000
     2  O    2.526652   0.000000
     3  O    4.042116   2.526652   0.000000
     4  O    4.042116   2.526652   4.042116   0.000000
     5  O    5.072797   4.121438   4.252669   2.588288   0.000000
     6  O    4.083392   4.319168   4.083392   4.083392   2.551779
     7  O    4.252669   4.121438   2.588288   5.072797   4.104178
     8  O    2.588288   4.121438   5.072797   4.252669   4.104178
     9  H    1.012715   3.023050   4.341135   3.956435   4.585280
    10  H    0.959836   3.128969   4.899121   4.553502   5.829742
    11  H    3.123612   4.453870   5.670759   4.097083   4.038038
    12  H    4.899121   3.128969   4.553502   0.959836   3.061870
    13  H    4.341135   3.023050   3.956435   1.012715   1.577886
    14  H    3.064655   4.060753   4.570741   4.032096   3.351226
    15  H    1.496940   1.031587   3.019624   2.984120   4.387121
    16  H    3.019624   1.031587   2.984120   1.496940   3.373953
    17  H    4.097083   4.453870   3.123612   5.670759   4.871070
    18  H    4.570741   4.060753   4.032096   3.064655   1.031178
    19  H    2.984120   1.031587   1.496940   3.019624   4.034343
    20  H    5.670759   4.453870   4.097083   3.123612   0.960079
    21  H    4.902384   5.279648   4.902384   4.902384   3.041916
    22  H    4.032096   4.060753   3.064655   4.570741   3.353524
    23  H    4.553502   3.128969   0.959836   4.899121   5.195012
    24  H    3.956435   3.023050   1.012715   4.341135   4.049944
                    6          7          8          9         10
     6  O    0.000000
     7  O    2.551779   0.000000
     8  O    2.551779   4.104178   0.000000
     9  H    3.372591   4.049944   1.577886   0.000000
    10  H    4.917757   5.195012   3.061870   1.592987   0.000000
    11  H    2.968720   4.871070   0.960079   2.161517   3.438630
    12  H    4.917757   5.829742   5.195012   4.882533   5.351756
    13  H    3.372591   4.585280   4.049944   4.071544   4.978463
    14  H    1.522574   3.353524   1.031178   2.156553   3.745943
    15  H    4.077524   4.034343   3.373953   2.082990   2.134263
    16  H    4.077524   4.387121   4.034343   3.246172   3.596865
    17  H    2.968720   0.960079   4.038038   3.916836   4.982686
    18  H    1.522574   3.351226   3.353524   3.981383   5.376204
    19  H    4.077524   3.373953   4.387121   3.413028   3.743192
    20  H    2.968720   4.038038   4.871070   5.265939   6.485504
    21  H    0.960480   3.041916   3.041916   4.116126   5.697034
    22  H    1.522574   1.031178   3.351226   3.611664   4.965597
    23  H    4.917757   3.061870   5.829742   4.978463   5.351756
    24  H    3.372591   1.577886   4.585280   4.071544   4.882533
                   11         12         13         14         15
    11  H    0.000000
    12  H    4.982686   0.000000
    13  H    3.916836   1.592987   0.000000
    14  H    1.587868   4.965597   3.611664   0.000000
    15  H    3.778248   3.743192   3.413028   3.502193   0.000000
    16  H    4.175453   2.134263   2.082990   3.900733   1.675666
    17  H    4.909015   6.485504   5.265939   3.439205   4.175453
    18  H    3.439205   3.745943   2.156553   2.479205   4.125068
    19  H    4.859250   3.596865   3.246172   4.125068   1.675666
    20  H    4.909015   3.438630   2.161517   4.036558   4.859250
    21  H    3.381257   5.697034   4.116126   2.058599   5.015757
    22  H    4.036558   5.376204   3.981383   2.479205   3.900733
    23  H    6.485504   5.351756   4.882533   5.376204   3.596865
    24  H    5.265939   4.978463   4.071544   3.981383   3.246172
                   16         17         18         19         20
    16  H    0.000000
    17  H    4.859250   0.000000
    18  H    3.502193   4.036558   0.000000
    19  H    1.675666   3.778248   3.900733   0.000000
    20  H    3.778248   4.909015   1.587868   4.175453   0.000000
    21  H    5.015757   3.381257   2.058599   5.015757   3.381257
    22  H    4.125068   1.587868   2.479205   3.502193   3.439205
    23  H    3.743192   3.438630   4.965597   2.134263   4.982686
    24  H    3.413028   2.161517   3.611664   2.082990   3.916836
                   21         22         23         24
    21  H    0.000000
    22  H    2.058599   0.000000
    23  H    5.697034   3.745943   0.000000
    24  H    4.116126   2.156553   1.592987   0.000000
 Stoichiometry    H16O8
 Framework group  C3[C3(HOO),X(H15O6)]
 Deg. of freedom    22
 Full point group                 C3      NOp   3
 Largest Abelian subgroup         C1      NOp   1
 Largest concise Abelian subgroup C1      NOp   1
                         Standard orientation:                         
 ---------------------------------------------------------------------
 Center     Atomic      Atomic             Coordinates (Angstroms)
 Number     Number       Type             X           Y           Z
 ---------------------------------------------------------------------
      1          8           0        0.000000    2.333717    1.206254
      2          8           0        0.000000    0.000000    2.174623
      3          8           0        2.021058   -1.166858    1.206254
      4          8           0       -2.021058   -1.166858    1.206254
      5          8           0       -1.408415   -1.905551   -1.197542
      6          8           0        0.000000    0.000000   -2.144546
      7          8           0        2.354464   -0.266948   -1.197542
      8          8           0       -0.946048    2.172499   -1.197542
      9          1           0       -0.394851    2.317308    0.273831
     10          1           0       -0.404121    3.063296    1.681319
     11          1           0       -1.901407    2.101776   -1.261093
     12          1           0       -2.450832   -1.881627    1.681319
     13          1           0       -1.809422   -1.500605    0.273831
     14          1           0       -0.573198    1.311588   -1.625496
     15          1           0       -0.026367    0.967087    1.816546
     16          1           0       -0.824338   -0.506378    1.816546
     17          1           0        2.770895    0.595779   -1.261093
     18          1           0       -0.849269   -1.152198   -1.625496
     19          1           0        0.850705   -0.460709    1.816546
     20          1           0       -0.869488   -2.697555   -1.261093
     21          1           0        0.000000    0.000000   -3.105026
     22          1           0        1.422468   -0.159390   -1.625496
     23          1           0        2.854953   -1.181669    1.681319
     24          1           0        2.204273   -0.816703    0.273831
 ---------------------------------------------------------------------
 Rotational constants (GHZ):           0.8289754           0.7972267           0.7972267
 Leave Link  202 at Sat Apr 17 21:29:14 2021, MaxMem=   104857600 cpu:               7.4 elap:               0.2
 (Enter /s/ls4/users/knvvv/bin/g16sse/l301.exe)
 General basis read from cards:  (5D, 7F)
 Centers:       9     10     11     12     13     14     15     16     17     18
 Centers:      19     20     21     22     23     24
 S 4 1.00
     Exponent=  1.9069169000D+02 Coefficients=  7.0815167000D-04
     Exponent=  2.8605532000D+01 Coefficients=  5.4678827000D-03
     Exponent=  6.5095943000D+00 Coefficients=  2.7966605000D-02
     Exponent=  1.8412455000D+00 Coefficients=  1.0764538000D-01
 S 1 1.00
     Exponent=  5.9853725000D-01 Coefficients=  1.0000000000D+00
 S 1 1.00
     Exponent=  2.1397624000D-01 Coefficients=  1.0000000000D+00
 S 1 1.00
     Exponent=  8.0316286000D-02 Coefficients=  1.0000000000D+00
 P 1 1.00
     Exponent=  2.2920000000D+00 Coefficients=  1.0000000000D+00
 P 1 1.00
     Exponent=  8.3800000000D-01 Coefficients=  1.0000000000D+00
 P 1 1.00
     Exponent=  2.9200000000D-01 Coefficients=  1.0000000000D+00
 P 1 1.00
     Exponent=  8.4063199228D-02 Coefficients=  1.0000000000D+00
 D 1 1.00
     Exponent=  2.0620000000D+00 Coefficients=  1.0000000000D+00
 D 1 1.00
     Exponent=  6.6200000000D-01 Coefficients=  1.0000000000D+00
 F 1 1.00
     Exponent=  1.3970000000D+00 Coefficients=  1.0000000000D+00
 ****
 Centers:       1      2      3      4      5      6      7      8
 S 8 1.00
     Exponent=  1.1650646908D+05 Coefficients=  4.0383857939D-05
     Exponent=  1.7504349724D+04 Coefficients=  3.1255139004D-04
     Exponent=  3.9934513230D+03 Coefficients=  1.6341473495D-03
     Exponent=  1.1330063186D+03 Coefficients=  6.8283224757D-03
     Exponent=  3.6999569594D+02 Coefficients=  2.4124410221D-02
     Exponent=  1.3362074349D+02 Coefficients=  7.2730206154D-02
     Exponent=  5.2035643649D+01 Coefficients=  1.7934429892D-01
     Exponent=  2.1461939313D+01 Coefficients=  3.3059588895D-01
 S 2 1.00
     Exponent=  8.9835051252D+01 Coefficients=  9.6468652996D-02
     Exponent=  2.6428010844D+01 Coefficients=  9.4117481120D-01
 S 1 1.00
     Exponent=  9.2822824649D+00 Coefficients=  1.0000000000D+00
 S 1 1.00
     Exponent=  4.0947728533D+00 Coefficients=  1.0000000000D+00
 S 1 1.00
     Exponent=  1.3255349078D+00 Coefficients=  1.0000000000D+00
 S 1 1.00
     Exponent=  5.1877230787D-01 Coefficients=  1.0000000000D+00
 S 1 1.00
     Exponent=  1.9772676454D-01 Coefficients=  1.0000000000D+00
 S 1 1.00
     Exponent=  6.9638535104D-02 Coefficients=  1.0000000000D+00
 P 5 1.00
     Exponent=  1.9115255810D+02 Coefficients=  2.5115697705D-03
     Exponent=  4.5233356739D+01 Coefficients=  2.0039240864D-02
     Exponent=  1.4353465922D+01 Coefficients=  9.3609064762D-02
     Exponent=  5.2422371832D+00 Coefficients=  3.0618127124D-01
     Exponent=  2.0792418599D+00 Coefficients=  6.7810501439D-01
 P 1 1.00
     Exponent=  8.4282371424D-01 Coefficients=  1.0000000000D+00
 P 1 1.00
     Exponent=  3.3617694891D-01 Coefficients=  1.0000000000D+00
 P 1 1.00
     Exponent=  1.2863997974D-01 Coefficients=  1.0000000000D+00
 P 1 1.00
     Exponent=  4.3598162776D-02 Coefficients=  1.0000000000D+00
 D 1 1.00
     Exponent=  3.7750000000D+00 Coefficients=  1.0000000000D+00
 D 1 1.00
     Exponent=  1.3000000000D+00 Coefficients=  1.0000000000D+00
 D 1 1.00
     Exponent=  4.4400000000D-01 Coefficients=  1.0000000000D+00
 D 1 1.00
     Exponent=  1.2546378695D-01 Coefficients=  1.0000000000D+00
 F 1 1.00
     Exponent=  2.6660000000D+00 Coefficients=  1.0000000000D+00
 F 1 1.00
     Exponent=  8.5900000000D-01 Coefficients=  1.0000000000D+00
 G 1 1.00
     Exponent=  1.8460000000D+00 Coefficients=  1.0000000000D+00
 ****
 Ernie: Thresh=  0.10000D-02 Tol=  0.10000D-05 Strict=F.
 There are  1264 symmetry adapted cartesian basis functions of A   symmetry.
 There are  1056 symmetry adapted basis functions of A   symmetry.
  1056 basis functions,  1472 primitive gaussians,  1264 cartesian basis functions
    40 alpha electrons       40 beta electrons
       nuclear repulsion energy       495.2894875762 Hartrees.
 IExCor= 4336 DFT=T Ex+Corr=M062X ExCW=0 ScaHFX=  0.540000
 ScaDFX=  1.000000  1.000000  1.000000  1.000000 ScalE2=  1.000000  1.000000
 IRadAn=      5 IRanWt=     -1 IRanGd=            0 ICorTp=0 IEmpDi=  4
 NAtoms=   24 NActive=   24 NUniq=   10 SFac= 4.00D+00 NAtFMM=   60 NAOKFM=F Big=F
 Integral buffers will be    131072 words long.
 Raffenetti 2 integral format.
 Two-electron integral symmetry is turned on.
 Leave Link  301 at Sat Apr 17 21:29:15 2021, MaxMem=   104857600 cpu:               7.1 elap:               0.2
 (Enter /s/ls4/users/knvvv/bin/g16sse/l302.exe)
 NPDir=0 NMtPBC=     1 NCelOv=     1 NCel=       1 NClECP=     1 NCelD=      1
         NCelK=      1 NCelE2=     1 NClLst=     1 CellRange=     0.0.
 One-electron integrals computed using PRISM.
 One-electron integral symmetry used in STVInt
 PrsmSu:  requested number of processors reduced to:   3 ShMem   1 Linda.
 PrsmSu:  requested number of processors reduced to:  16 ShMem   1 Linda.
 NBasis=  1056 RedAO= T EigKep=  3.36D-06  NBF=  1056
 NBsUse=  1056 1.00D-06 EigRej= -1.00D+00 NBFU=  1056
 Precomputing XC quadrature grid using
 IXCGrd= 4 IRadAn=           5 IRanWt=          -1 IRanGd=           0 AccXCQ= 0.00D+00.
 Generated NRdTot=       0 NPtTot=           0 NUsed=           0 NTot=          32
 NSgBfM=  1240  1240  1240  1240  1240 MxSgAt=    24 MxSgA2=    24.
 Leave Link  302 at Sat Apr 17 21:29:53 2021, MaxMem=   104857600 cpu:            1818.9 elap:              38.8
 (Enter /s/ls4/users/knvvv/bin/g16sse/l303.exe)
 DipDrv:  MaxL=1.
 Leave Link  303 at Sat Apr 17 21:30:04 2021, MaxMem=   104857600 cpu:             485.4 elap:              10.4
 (Enter /s/ls4/users/knvvv/bin/g16sse/l401.exe)
 SCF N**3 symmetry information disabled.
 ExpMin= 4.36D-02 ExpMax= 1.17D+05 ExpMxC= 1.13D+03 IAcc=3 IRadAn=         5 AccDes= 0.00D+00
 Harris functional with IExCor= 1009 and IRadAn=       5 diagonalized for initial guess.
 HarFok:  IExCor= 1009 AccDes= 0.00D+00 IRadAn=         5 IDoV= 1 UseB2=F ITyADJ=14
 ICtDFT=  3500011 ScaDFX=  1.000000  1.000000  1.000000  1.000000
 CalDSu:  requested number of processors reduced to:  35 ShMem   1 Linda.
 FoFCou: FMM=F IPFlag=           0 FMFlag=      100000 FMFlg1=           0
         NFxFlg=           0 DoJE=T BraDBF=F KetDBF=T FulRan=T
         wScrn=  0.000000 ICntrl=       500 IOpCl=  0 I1Cent=   200000004 NGrid=           0
         NMat0=    1 NMatS0=      1 NMatT0=    0 NMatD0=    1 NMtDS0=    0 NMtDT0=    0
 Petite list used in FoFCou.
 CoulSu:  requested number of processors reduced to:  14 ShMem   1 Linda.
 CoulSu:  requested number of processors reduced to:  15 ShMem   1 Linda.
 CoulSu:  requested number of processors reduced to:  20 ShMem   1 Linda.
 CoulSu:  requested number of processors reduced to:  20 ShMem   1 Linda.
 DSYEVD-2 returned Info=        2113 IAlg= 4 N=  1056 NDim=  1056 NE2=       96263 trying  DSYEV.
 Harris En= -611.446641388832    
 JPrj=0 DoOrth=F DoCkMO=F.
 Initial guess orbital symmetries:
       Occupied  (A) (E) (E) (A) (E) (E) (A) (A) (A) (E) (E) (A)
                 (E) (E) (A) (A) (E) (E) (A) (E) (E) (A) (E) (E)
                 (A) (A) (E) (E) (E) (E) (A) (A) (A) (E) (E) (E)
                 (E) (A) (E) (E)
       Virtual   (A) (E) (E) (A) (E) (E) (A) (A) (E) (E) (A) (E)
                 (E) (E) (E) (A) (A) (E) (E) (A) (A) (E) (E) (A)
                 (E) (E) (A) (E) (E) (A) (E) (E) (A) (E) (E) (A)
                 (A) (E) (E) (E) (E) (A) (E) (E) (A) (E) (E) (E)
                 (E) (E) (E) (A) (E) (E) (A) (E) (E) (A) (E) (E)
                 (A) (A) (E) (E) (A) (E) (E) (A) (E) (E) (E) (E)
                 (E) (E) (A) (A) (E) (E) (A) (E) (E) (A) (A) (E)
                 (E) (A) (E) (E) (A) (A) (E) (E) (A) (E) (E) (E)
                 (E) (A) (E) (E) (A) (A) (E) (E) (E) (E) (A) (E)
                 (E) (A) (A) (A) (E) (E) (E) (E) (A) (A) (E) (E)
                 (A) (E) (E) (E) (E) (A) (E) (E) (A) (A) (E) (E)
                 (E) (E) (A) (E) (E) (A) (E) (E) (A) (A) (E) (E)
                 (A) (E) (E) (A) (E) (E) (A) (E) (E) (E) (E) (A)
                 (E) (E) (A) (E) (E) (E) (E) (A) (A) (E) (E) (A)
                 (E) (E) (A) (E) (E) (A) (E) (E) (A) (E) (E) (A)
                 (E) (E) (E) (E) (A) (A) (E) (E) (A) (A) (E) (E)
                 (E) (E) (A) (E) (E) (A) (A) (E) (E) (E) (E) (A)
                 (A) (E) (E) (E) (E) (A) (A) (E) (E) (A) (E) (E)
                 (A) (A) (E) (E) (A) (A) (E) (E) (E) (E) (E) (E)
                 (A) (E) (E) (E) (E) (A) (E) (E) (A) (A) (E) (E)
                 (E) (E) (A) (E) (E) (A) (E) (E) (A) (A) (E) (E)
                 (A) (E) (E) (A) (E) (E) (A) (A) (E) (E) (A) (E)
                 (E) (E) (E) (E) (E) (E) (E) (A) (A) (A) (E) (E)
                 (A) (E) (E) (A) (E) (E) (A) (E) (E) (A) (E) (E)
                 (A) (E) (E) (E) (E) (A) (A) (A) (E) (E) (E) (E)
                 (A) (E) (E) (A) (E) (E) (A) (E) (E) (A) (E) (E)
                 (A) (A) (E) (E) (E) (E) (A) (E) (E) (A) (A) (E)
                 (E) (E) (E) (A) (E) (E) (A) (A) (E) (E) (E) (E)
                 (E) (E) (A) (A) (E) (E) (E) (E) (A) (A) (E) (E)
                 (A) (A) (E) (E) (E) (E) (A) (A) (E) (E) (A) (E)
                 (E) (E) (E) (A) (E) (E) (E) (E) (A) (A) (E) (E)
                 (E) (E) (A) (E) (E) (A) (A) (A) (E) (E) (E) (E)
                 (E) (E) (A) (A) (E) (E) (E) (E) (A) (E) (E) (A)
                 (E) (E) (E) (E) (A) (A) (E) (E) (A) (E) (E) (A)
                 (E) (E) (E) (E) (A) (A) (E) (E) (A) (E) (E) (A)
                 (E) (E) (A) (A) (E) (E) (A) (E) (E) (A) (E) (E)
                 (E) (E) (A) (E) (E) (A) (A) (A) (E) (E) (A) (E)
                 (E) (E) (E) (A) (E) (E) (A) (E) (E) (A) (E) (E)
                 (A) (A) (E) (E) (E) (E) (A) (A) (E) (E) (A) (E)
                 (E) (A) (E) (E) (A) (E) (E) (E) (E) (A) (A) (E)
                 (E) (E) (E) (A) (A) (E) (E) (A) (A) (E) (E) (E)
                 (E) (A) (E) (E) (A) (E) (E) (E) (E) (A) (A) (E)
                 (E) (A) (A) (E) (E) (E) (E) (A) (E) (E) (E) (E)
                 (A) (A) (E) (E) (E) (E) (A) (E) (E) (A) (E) (E)
                 (A) (E) (E) (A) (A) (E) (E) (A) (E) (E) (A) (E)
                 (E) (A) (E) (E) (A) (E) (E) (A) (E) (E) (A) (E)
                 (E) (A) (A) (E) (E) (A) (E) (E) (A) (E) (E) (E)
                 (E) (A) (E) (E) (A) (A) (E) (E) (A) (E) (E) (A)
                 (E) (E) (A) (E) (E) (A) (E) (E) (E) (E) (A) (A)
                 (E) (E) (A) (E) (E) (A) (E) (E) (E) (E) (A) (A)
                 (E) (E) (E) (E) (A) (E) (E) (A) (A) (E) (E) (A)
                 (E) (E) (A) (E) (E) (A) (E) (E) (E) (E) (A) (E)
                 (E) (A) (E) (E) (A) (E) (E) (A) (E) (E) (A) (E)
                 (E) (A) (A) (E) (E) (A) (E) (E) (E) (E) (A) (A)
                 (E) (E) (E) (E) (A) (A) (A) (E) (E) (A) (E) (E)
                 (A) (E) (E) (A) (A) (E) (E) (A) (E) (E) (A) (E)
                 (E) (E) (E) (A) (A) (E) (E) (E) (E) (E) (E) (A)
                 (A) (E) (E) (A) (E) (E) (A) (E) (E) (E) (E) (E)
                 (E) (A) (E) (E) (A) (A) (E) (E) (A) (E) (E) (E)
                 (E) (A) (E) (E) (A) (E) (E) (A) (E) (E) (E) (E)
                 (A) (A) (E) (E) (A) (E) (E) (A) (E) (E) (A) (A)
                 (E) (E) (A) (E) (E) (E) (E) (A) (E) (E) (A) (E)
                 (E) (A) (A) (E) (E) (A) (E) (E) (A) (E) (E) (A)
                 (E) (E) (E) (E) (A) (A) (E) (E) (A) (E) (E) (A)
                 (E) (E) (A) (E) (E) (A) (E) (E) (A) (E) (E) (A)
                 (E) (E) (A) (E) (E) (A) (E) (E) (A) (E) (E) (A)
                 (E) (E) (A) (E) (E) (A) (E) (E) (A) (E) (E) (A)
                 (E) (E) (E) (E) (A) (A) (E) (E) (E) (E) (A) (A)
                 (E) (E) (A) (A) (E) (E) (E) (E) (E) (E) (A) (E)
                 (E) (A) (E) (E) (A) (E) (E) (A) (E) (E) (A) (A)
                 (E) (E) (E) (E) (E) (E) (A) (A) (E) (E) (A) (E)
                 (E) (A) (E) (E) (A) (E) (E) (A) (E) (E) (A) (E)
                 (E) (E) (E) (A) (A) (E) (E) (E) (E) (A) (A) (E)
                 (E) (A) (E) (E) (A) (E) (E) (A) (A) (A) (E) (E)
                 (E) (E) (A) (E) (E) (A) (E) (E) (A) (E) (E) (A)
                 (E) (E) (A) (E) (E) (A) (E) (E) (A) (E) (E) (A)
                 (E) (E) (A) (E) (E) (E) (E) (A) (A) (E) (E) (A)
                 (E) (E) (E) (E) (A) (A) (E) (E) (A) (E) (E) (E)
                 (E) (A) (A) (E) (E) (A) (A) (E) (E) (A) (E) (E)
                 (E) (E) (A) (A) (E) (E) (A) (E) (E) (A) (E) (E)
                 (A) (E) (E) (E) (E) (A) (E) (E) (E) (E) (A) (E)
                 (E) (A) (E) (E) (A) (E) (E) (A) (A) (E) (E) (A)
                 (A) (E) (E) (E) (E) (A) (A) (E) (E) (A) (E) (E)
                 (A) (A) (E) (E) (A) (A) (E) (E) (A) (E) (E) (A)
                 (A) (A) (E) (E) (A) (E) (E) (A)
 The electronic state of the initial guess is 1-A.
 Leave Link  401 at Sat Apr 17 21:30:47 2021, MaxMem=   104857600 cpu:            2001.9 elap:              43.6
 (Enter /s/ls4/users/knvvv/bin/g16sse/l502.exe)
 Integral symmetry usage will be decided dynamically.
 Closed shell SCF:
 Using DIIS extrapolation, IDIIS=  1040.
 NGot=   104857600 LenX=   101591020 LenY=    99992060
 Requested convergence on RMS density matrix=1.00D-08 within 128 cycles.
 Requested convergence on MAX density matrix=1.00D-06.
 Requested convergence on             energy=1.00D-06.
 No special actions if energy rises.
 Fock matrices will be formed incrementally for  20 cycles.

 Cycle   1  Pass 1  IDiag  1:
 FoFJK:  IHMeth= 1 ICntrl=       0 DoSepK=F KAlg= 0 I1Cent=           0 FoldK=F
 IRaf= 850000000 NMat=       1 IRICut=       1 DoRegI=T DoRafI=F ISym2E= 1 IDoP0=0 IntGTp=1.
 FoFCou: FMM=F IPFlag=           0 FMFlag=      100000 FMFlg1=           0
         NFxFlg=           0 DoJE=F BraDBF=F KetDBF=F FulRan=T
         wScrn=  0.000000 ICntrl=         0 IOpCl=  0 I1Cent=           0 NGrid=           0
         NMat0=    1 NMatS0=      1 NMatT0=    0 NMatD0=    1 NMtDS0=    0 NMtDT0=    0
 Petite list used in FoFCou.
 CoulSu:  requested number of processors reduced to:  16 ShMem   1 Linda.
 CalDSu:  requested number of processors reduced to:  35 ShMem   1 Linda.
 E= -611.086262904673    
 DIIS: error= 2.36D-02 at cycle   1 NSaved=   1.
 NSaved= 1 IEnMin= 1 EnMin= -611.086262904673     IErMin= 1 ErrMin= 2.36D-02
 ErrMax= 2.36D-02  0.00D+00 EMaxC= 1.00D-01 BMatC= 9.80D-01 BMatP= 9.80D-01
 IDIUse=3 WtCom= 7.64D-01 WtEn= 2.36D-01
 Coeff-Com:  0.100D+01
 Coeff-En:   0.100D+01
 Coeff:      0.100D+01
 Gap=     0.191 Goal=   None    Shift=    0.000
 DSYEVD-2 returned Info=      560209 IAlg= 4 N=  1056 NDim=  1056 NE2=       94688 trying  DSYEV.
 GapD=    0.191 DampG=1.000 DampE=0.500 DampFc=0.5000 IDamp=-1.
 Damping current iteration by 5.00D-01
 RMSDP=9.62D-04 MaxDP=9.43D-02              OVMax= 1.77D-01

 Cycle   2  Pass 1  IDiag  1:
 RMSU=  4.51D-04    CP:  9.39D-01
 CoulSu:  requested number of processors reduced to:  16 ShMem   1 Linda.
 CalDSu:  requested number of processors reduced to:  35 ShMem   1 Linda.
 E= -611.305429474056     Delta-E=       -0.219166569384 Rises=F Damp=T
 DIIS: error= 1.30D-02 at cycle   2 NSaved=   2.
 NSaved= 2 IEnMin= 2 EnMin= -611.305429474056     IErMin= 2 ErrMin= 1.30D-02
 ErrMax= 1.30D-02  0.00D+00 EMaxC= 1.00D-01 BMatC= 9.64D-02 BMatP= 9.80D-01
 IDIUse=3 WtCom= 8.70D-01 WtEn= 1.30D-01
 Coeff-Com: -0.974D-02 0.101D+01
 Coeff-En:   0.101D+00 0.899D+00
 Coeff:      0.464D-02 0.995D+00
 Gap=     0.338 Goal=   None    Shift=    0.000
 RMSDP=5.53D-04 MaxDP=8.78D-02 DE=-2.19D-01 OVMax= 1.14D-01

 Cycle   3  Pass 1  IDiag  1:
 RMSU=  5.30D-04    CP:  9.02D-01  1.26D+00
 CoulSu:  requested number of processors reduced to:  16 ShMem   1 Linda.
 CalDSu:  requested number of processors reduced to:  35 ShMem   1 Linda.
 E= -611.566514700712     Delta-E=       -0.261085226656 Rises=F Damp=F
 DIIS: error= 3.47D-03 at cycle   3 NSaved=   3.
 NSaved= 3 IEnMin= 3 EnMin= -611.566514700712     IErMin= 3 ErrMin= 3.47D-03
 ErrMax= 3.47D-03  0.00D+00 EMaxC= 1.00D-01 BMatC= 7.85D-03 BMatP= 9.64D-02
 IDIUse=3 WtCom= 9.65D-01 WtEn= 3.47D-02
 Coeff-Com: -0.683D-01 0.162D+00 0.906D+00
 Coeff-En:   0.000D+00 0.000D+00 0.100D+01
 Coeff:     -0.659D-01 0.157D+00 0.909D+00
 Gap=     0.314 Goal=   None    Shift=    0.000
 DSYEVD-2 returned Info=        2113 IAlg= 4 N=  1056 NDim=  1056 NE2=       94688 trying  DSYEV.
 RMSDP=1.14D-04 MaxDP=2.97D-02 DE=-2.61D-01 OVMax= 2.07D-02

 Cycle   4  Pass 1  IDiag  1:
 RMSU=  8.56D-05    CP:  8.94D-01  1.39D+00  9.13D-01
 CoulSu:  requested number of processors reduced to:  16 ShMem   1 Linda.
 CalDSu:  requested number of processors reduced to:  35 ShMem   1 Linda.
 E= -611.569886894089     Delta-E=       -0.003372193376 Rises=F Damp=F
 DIIS: error= 1.66D-03 at cycle   4 NSaved=   4.
 NSaved= 4 IEnMin= 4 EnMin= -611.569886894089     IErMin= 4 ErrMin= 1.66D-03
 ErrMax= 1.66D-03  0.00D+00 EMaxC= 1.00D-01 BMatC= 2.76D-03 BMatP= 7.85D-03
 IDIUse=3 WtCom= 9.83D-01 WtEn= 1.66D-02
 Coeff-Com: -0.359D-01 0.685D-01 0.499D+00 0.469D+00
 Coeff-En:   0.000D+00 0.000D+00 0.204D+00 0.796D+00
 Coeff:     -0.353D-01 0.674D-01 0.494D+00 0.474D+00
 Gap=     0.326 Goal=   None    Shift=    0.000
 DSYEVD-2 returned Info=        2113 IAlg= 4 N=  1056 NDim=  1056 NE2=       94688 trying  DSYEV.
 RMSDP=3.93D-05 MaxDP=9.33D-03 DE=-3.37D-03 OVMax= 9.51D-03

 Cycle   5  Pass 1  IDiag  1:
 RMSU=  3.36D-05    CP:  8.95D-01  1.38D+00  9.36D-01  8.10D-01
 CoulSu:  requested number of processors reduced to:  16 ShMem   1 Linda.
 CalDSu:  requested number of processors reduced to:  35 ShMem   1 Linda.
 E= -611.571579343117     Delta-E=       -0.001692449028 Rises=F Damp=F
 DIIS: error= 1.68D-04 at cycle   5 NSaved=   5.
 NSaved= 5 IEnMin= 5 EnMin= -611.571579343117     IErMin= 5 ErrMin= 1.68D-04
 ErrMax= 1.68D-04  0.00D+00 EMaxC= 1.00D-01 BMatC= 3.19D-05 BMatP= 2.76D-03
 IDIUse=3 WtCom= 9.98D-01 WtEn= 1.68D-03
 Coeff-Com: -0.741D-02 0.141D-01 0.107D+00 0.143D+00 0.743D+00
 Coeff-En:   0.000D+00 0.000D+00 0.000D+00 0.000D+00 0.100D+01
 Coeff:     -0.740D-02 0.141D-01 0.107D+00 0.143D+00 0.744D+00
 Gap=     0.325 Goal=   None    Shift=    0.000
 DSYEVD-2 returned Info=      560209 IAlg= 4 N=  1056 NDim=  1056 NE2=       94688 trying  DSYEV.
 RMSDP=1.06D-05 MaxDP=9.99D-04 DE=-1.69D-03 OVMax= 1.18D-03

 Cycle   6  Pass 1  IDiag  1:
 RMSU=  7.66D-06    CP:  8.94D-01  1.39D+00  9.38D-01  8.64D-01  1.15D+00
 CoulSu:  requested number of processors reduced to:  16 ShMem   1 Linda.
 CalDSu:  requested number of processors reduced to:  35 ShMem   1 Linda.
 E= -611.571595098051     Delta-E=       -0.000015754934 Rises=F Damp=F
 DIIS: error= 7.59D-05 at cycle   6 NSaved=   6.
 NSaved= 6 IEnMin= 6 EnMin= -611.571595098051     IErMin= 6 ErrMin= 7.59D-05
 ErrMax= 7.59D-05  0.00D+00 EMaxC= 1.00D-01 BMatC= 8.45D-06 BMatP= 3.19D-05
 IDIUse=1 WtCom= 1.00D+00 WtEn= 0.00D+00
 Coeff-Com:  0.223D-02-0.407D-02-0.296D-01-0.672D-02 0.360D+00 0.678D+00
 Coeff:      0.223D-02-0.407D-02-0.296D-01-0.672D-02 0.360D+00 0.678D+00
 Gap=     0.326 Goal=   None    Shift=    0.000
 DSYEVD-2 returned Info=        1585 IAlg= 4 N=  1056 NDim=  1056 NE2=       94688 trying  DSYEV.
 RMSDP=5.22D-06 MaxDP=5.82D-04 DE=-1.58D-05 OVMax= 4.29D-04

 Cycle   7  Pass 1  IDiag  1:
 RMSU=  2.61D-06    CP:  8.94D-01  1.39D+00  9.39D-01  8.85D-01  1.26D+00
                    CP:  1.15D+00
 CoulSu:  requested number of processors reduced to:  16 ShMem   1 Linda.
 CalDSu:  requested number of processors reduced to:  35 ShMem   1 Linda.
 E= -611.571600365120     Delta-E=       -0.000005267068 Rises=F Damp=F
 DIIS: error= 2.01D-05 at cycle   7 NSaved=   7.
 NSaved= 7 IEnMin= 7 EnMin= -611.571600365120     IErMin= 7 ErrMin= 2.01D-05
 ErrMax= 2.01D-05  0.00D+00 EMaxC= 1.00D-01 BMatC= 3.19D-07 BMatP= 8.45D-06
 IDIUse=1 WtCom= 1.00D+00 WtEn= 0.00D+00
 Coeff-Com:  0.110D-02-0.209D-02-0.153D-01-0.123D-01 0.415D-01 0.206D+00
 Coeff-Com:  0.781D+00
 Coeff:      0.110D-02-0.209D-02-0.153D-01-0.123D-01 0.415D-01 0.206D+00
 Coeff:      0.781D+00
 Gap=     0.326 Goal=   None    Shift=    0.000
 DSYEVD-2 returned Info=        2113 IAlg= 4 N=  1056 NDim=  1056 NE2=       94688 trying  DSYEV.
 RMSDP=8.82D-07 MaxDP=8.58D-05 DE=-5.27D-06 OVMax= 8.08D-05

 Cycle   8  Pass 1  IDiag  1:
 RMSU=  5.80D-07    CP:  8.94D-01  1.39D+00  9.39D-01  8.89D-01  1.28D+00
                    CP:  1.17D+00  9.92D-01
 CoulSu:  requested number of processors reduced to:  16 ShMem   1 Linda.
 CalDSu:  requested number of processors reduced to:  35 ShMem   1 Linda.
 E= -611.571600589856     Delta-E=       -0.000000224736 Rises=F Damp=F
 DIIS: error= 3.24D-06 at cycle   8 NSaved=   8.
 NSaved= 8 IEnMin= 8 EnMin= -611.571600589856     IErMin= 8 ErrMin= 3.24D-06
 ErrMax= 3.24D-06  0.00D+00 EMaxC= 1.00D-01 BMatC= 1.08D-08 BMatP= 3.19D-07
 IDIUse=1 WtCom= 1.00D+00 WtEn= 0.00D+00
 Coeff-Com:  0.157D-04-0.685D-04-0.489D-03-0.109D-02-0.826D-02 0.783D-02
 Coeff-Com:  0.159D+00 0.843D+00
 Coeff:      0.157D-04-0.685D-04-0.489D-03-0.109D-02-0.826D-02 0.783D-02
 Coeff:      0.159D+00 0.843D+00
 Gap=     0.326 Goal=   None    Shift=    0.000
 DSYEVD-2 returned Info=        2113 IAlg= 4 N=  1056 NDim=  1056 NE2=       94688 trying  DSYEV.
 RMSDP=2.70D-07 MaxDP=7.04D-05 DE=-2.25D-07 OVMax= 2.41D-05

 Cycle   9  Pass 1  IDiag  1:
 RMSU=  2.47D-07    CP:  8.94D-01  1.39D+00  9.39D-01  8.89D-01  1.28D+00
                    CP:  1.17D+00  1.01D+00  1.13D+00
 CoulSu:  requested number of processors reduced to:  16 ShMem   1 Linda.
 CalDSu:  requested number of processors reduced to:  35 ShMem   1 Linda.
 E= -611.571600597598     Delta-E=       -0.000000007743 Rises=F Damp=F
 DIIS: error= 1.27D-06 at cycle   9 NSaved=   9.
 NSaved= 9 IEnMin= 9 EnMin= -611.571600597598     IErMin= 9 ErrMin= 1.27D-06
 ErrMax= 1.27D-06  0.00D+00 EMaxC= 1.00D-01 BMatC= 2.24D-09 BMatP= 1.08D-08
 IDIUse=1 WtCom= 1.00D+00 WtEn= 0.00D+00
 Coeff-Com: -0.468D-04 0.723D-04 0.464D-03 0.100D-03-0.605D-02-0.763D-02
 Coeff-Com:  0.251D-01 0.342D+00 0.646D+00
 Coeff:     -0.468D-04 0.723D-04 0.464D-03 0.100D-03-0.605D-02-0.763D-02
 Coeff:      0.251D-01 0.342D+00 0.646D+00
 Gap=     0.326 Goal=   None    Shift=    0.000
 DSYEVD-2 returned Info=        2113 IAlg= 4 N=  1056 NDim=  1056 NE2=       94688 trying  DSYEV.
 RMSDP=6.65D-08 MaxDP=1.93D-05 DE=-7.74D-09 OVMax= 7.01D-06

 Cycle  10  Pass 1  IDiag  1:
 RMSU=  3.88D-08    CP:  8.94D-01  1.39D+00  9.39D-01  8.89D-01  1.28D+00
                    CP:  1.17D+00  1.02D+00  1.18D+00  1.13D+00
 CoulSu:  requested number of processors reduced to:  16 ShMem   1 Linda.
 CalDSu:  requested number of processors reduced to:  35 ShMem   1 Linda.
 E= -611.571600599088     Delta-E=       -0.000000001490 Rises=F Damp=F
 DIIS: error= 3.99D-07 at cycle  10 NSaved=  10.
 NSaved=10 IEnMin=10 EnMin= -611.571600599088     IErMin=10 ErrMin= 3.99D-07
 ErrMax= 3.99D-07  0.00D+00 EMaxC= 1.00D-01 BMatC= 3.13D-10 BMatP= 2.24D-09
 IDIUse=1 WtCom= 1.00D+00 WtEn= 0.00D+00
 Coeff-Com: -0.189D-04 0.364D-04 0.194D-03 0.167D-03-0.135D-02-0.429D-02
 Coeff-Com: -0.149D-01-0.629D-02 0.271D+00 0.756D+00
 Coeff:     -0.189D-04 0.364D-04 0.194D-03 0.167D-03-0.135D-02-0.429D-02
 Coeff:     -0.149D-01-0.629D-02 0.271D+00 0.756D+00
 Gap=     0.326 Goal=   None    Shift=    0.000
 DSYEVD-2 returned Info=        2113 IAlg= 4 N=  1056 NDim=  1056 NE2=       94688 trying  DSYEV.
 RMSDP=3.03D-08 MaxDP=3.97D-06 DE=-1.49D-09 OVMax= 2.59D-06

 Cycle  11  Pass 1  IDiag  1:
 RMSU=  1.28D-08    CP:  8.94D-01  1.39D+00  9.39D-01  8.89D-01  1.28D+00
                    CP:  1.17D+00  1.02D+00  1.21D+00  1.16D+00  8.29D-01
 CoulSu:  requested number of processors reduced to:  16 ShMem   1 Linda.
 CalDSu:  requested number of processors reduced to:  35 ShMem   1 Linda.
 E= -611.571600599333     Delta-E=       -0.000000000245 Rises=F Damp=F
 DIIS: error= 7.20D-08 at cycle  11 NSaved=  11.
 NSaved=11 IEnMin=11 EnMin= -611.571600599333     IErMin=11 ErrMin= 7.20D-08
 ErrMax= 7.20D-08  0.00D+00 EMaxC= 1.00D-01 BMatC= 4.75D-12 BMatP= 3.13D-10
 IDIUse=1 WtCom= 1.00D+00 WtEn= 0.00D+00
 Coeff-Com: -0.827D-06 0.301D-05 0.136D-04 0.162D-04-0.417D-04-0.358D-03
 Coeff-Com: -0.277D-02-0.164D-01 0.341D-02 0.996D-01 0.917D+00
 Coeff:     -0.827D-06 0.301D-05 0.136D-04 0.162D-04-0.417D-04-0.358D-03
 Coeff:     -0.277D-02-0.164D-01 0.341D-02 0.996D-01 0.917D+00
 Gap=     0.326 Goal=   None    Shift=    0.000
 DSYEVD-2 returned Info=      560209 IAlg= 4 N=  1056 NDim=  1056 NE2=       94688 trying  DSYEV.
 RMSDP=7.02D-09 MaxDP=1.08D-06 DE=-2.45D-10 OVMax= 6.72D-07

 Cycle  12  Pass 1  IDiag  1:
 RMSU=  2.63D-09    CP:  8.94D-01  1.39D+00  9.39D-01  8.89D-01  1.28D+00
                    CP:  1.17D+00  1.02D+00  1.21D+00  1.17D+00  8.52D-01
                    CP:  1.22D+00
 CoulSu:  requested number of processors reduced to:  16 ShMem   1 Linda.
 CalDSu:  requested number of processors reduced to:  35 ShMem   1 Linda.
 E= -611.571600599350     Delta-E=       -0.000000000017 Rises=F Damp=F
 DIIS: error= 1.40D-08 at cycle  12 NSaved=  12.
 NSaved=12 IEnMin=12 EnMin= -611.571600599350     IErMin=12 ErrMin= 1.40D-08
 ErrMax= 1.40D-08  0.00D+00 EMaxC= 1.00D-01 BMatC= 2.21D-13 BMatP= 4.75D-12
 IDIUse=1 WtCom= 1.00D+00 WtEn= 0.00D+00
 Coeff-Com:  0.965D-06-0.186D-05-0.618D-05-0.789D-05 0.494D-04 0.216D-03
 Coeff-Com:  0.979D-03 0.598D-03-0.158D-01-0.456D-01-0.655D-02 0.107D+01
 Coeff:      0.965D-06-0.186D-05-0.618D-05-0.789D-05 0.494D-04 0.216D-03
 Coeff:      0.979D-03 0.598D-03-0.158D-01-0.456D-01-0.655D-02 0.107D+01
 Gap=     0.326 Goal=   None    Shift=    0.000
 DSYEVD-2 returned Info=      560209 IAlg= 4 N=  1056 NDim=  1056 NE2=       94688 trying  DSYEV.
 RMSDP=1.64D-09 MaxDP=2.69D-07 DE=-1.68D-11 OVMax= 2.18D-07

 SCF Done:  E(RM062X) =  -611.571600599     A.U. after   12 cycles
            NFock= 12  Conv=0.16D-08     -V/T= 2.0035
 KE= 6.094302028835D+02 PE=-2.437917972117D+03 EE= 7.216266810578D+02
 Leave Link  502 at Sat Apr 17 21:53:46 2021, MaxMem=   104857600 cpu:           49214.6 elap:            1378.6
 (Enter /s/ls4/users/knvvv/bin/g16sse/l601.exe)
 Copying SCF densities to generalized density rwf, IOpCl= 0 IROHF=0.

 **********************************************************************

            Population analysis using the SCF density.

 **********************************************************************

 Orbital symmetries:
       Occupied  (A) (E) (E) (A) (E) (E) (A) (A) (A) (E) (E) (A)
                 (A) (E) (E) (A) (E) (E) (A) (E) (E) (E) (E) (A)
                 (A) (E) (E) (A) (A) (E) (E) (A) (A) (E) (E) (E)
                 (E) (A) (E) (E)
       Virtual   (A) (E) (E) (A) (E) (E) (A) (E) (E) (A) (E) (E)
                 (A) (E) (E) (A) (A) (A) (E) (E) (A) (E) (E) (E)
                 (E) (A) (A) (E) (E) (E) (E) (A) (E) (E) (A) (E)
                 (E) (A) (A) (E) (E) (E) (E) (E) (E) (A) (E) (E)
                 (A) (A) (E) (E) (A) (E) (E) (A) (E) (E) (A) (A)
                 (E) (E) (A) (E) (E) (E) (E) (A) (E) (E) (E) (E)
                 (A) (A) (E) (E) (A) (E) (E) (A) (A) (E) (E) (A)
                 (E) (E) (E) (E) (A) (E) (E) (A) (A) (E) (E) (E)
                 (E) (E) (E) (A) (A) (E) (E) (A) (E) (E) (A) (E)
                 (E) (A) (A) (E) (E) (A) (E) (E) (A) (A) (A) (E)
                 (E) (E) (E) (E) (E) (A) (E) (E) (A) (E) (E) (A)
                 (E) (E) (A) (E) (E) (A) (E) (E) (A) (A) (E) (E)
                 (A) (E) (E) (A) (E) (E) (A) (E) (E) (A) (E) (E)
                 (E) (E) (E) (E) (A) (A) (E) (E) (E) (E) (A) (A)
                 (E) (E) (A) (E) (E) (A) (E) (E) (A) (E) (E) (A)
                 (E) (E) (E) (E) (A) (A) (E) (E) (A) (E) (E) (A)
                 (A) (E) (E) (E) (E) (A) (E) (E) (A) (E) (E) (A)
                 (E) (E) (A) (A) (E) (E) (E) (E) (A) (A) (E) (E)
                 (A) (A) (E) (E) (A) (E) (E) (A) (E) (E) (A) (E)
                 (E) (E) (E) (A) (E) (E) (A) (E) (E) (E) (E) (A)
                 (A) (E) (E) (E) (E) (A) (A) (E) (E) (A) (E) (E)
                 (E) (E) (A) (A) (A) (E) (E) (A) (E) (E) (E) (E)
                 (A) (E) (E) (E) (E) (E) (E) (A) (A) (E) (E) (A)
                 (A) (A) (E) (E) (E) (E) (A) (E) (E) (A) (E) (E)
                 (A) (E) (E) (E) (E) (A) (A) (A) (E) (E) (E) (E)
                 (A) (E) (E) (A) (E) (E) (A) (E) (E) (A) (E) (E)
                 (A) (E) (E) (A) (E) (E) (A) (A) (E) (E) (A) (E)
                 (E) (E) (E) (A) (E) (E) (A) (A) (E) (E) (E) (E)
                 (A) (E) (E) (A) (E) (E) (A) (E) (E) (A) (E) (E)
                 (A) (E) (E) (A) (E) (E) (A) (A) (E) (E) (A) (E)
                 (E) (E) (E) (A) (E) (E) (A) (E) (E) (A) (E) (E)
                 (A) (E) (E) (E) (E) (A) (A) (E) (E) (A) (E) (E)
                 (E) (E) (A) (A) (E) (E) (E) (E) (A) (E) (E) (E)
                 (E) (A) (A) (E) (E) (A) (A) (E) (E) (E) (E) (A)
                 (E) (E) (E) (E) (A) (A) (E) (E) (A) (E) (E) (A)
                 (E) (E) (A) (A) (E) (E) (A) (E) (E) (A) (E) (E)
                 (A) (E) (E) (E) (E) (A) (A) (E) (E) (A) (A) (E)
                 (E) (E) (E) (A) (A) (E) (E) (E) (E) (A) (E) (E)
                 (A) (A) (A) (E) (E) (E) (E) (A) (E) (E) (A) (E)
                 (E) (A) (E) (E) (A) (E) (E) (E) (E) (A) (A) (E)
                 (E) (A) (E) (E) (A) (E) (E) (A) (E) (E) (A) (A)
                 (E) (E) (E) (E) (E) (E) (A) (E) (E) (A) (A) (E)
                 (E) (A) (E) (E) (E) (E) (A) (A) (E) (E) (A) (E)
                 (E) (A) (E) (E) (E) (E) (A) (E) (E) (A) (E) (E)
                 (A) (E) (E) (A) (A) (E) (E) (A) (E) (E) (A) (E)
                 (E) (A) (E) (E) (A) (E) (E) (A) (E) (E) (A) (E)
                 (E) (A) (E) (E) (A) (A) (E) (E) (E) (E) (A) (A)
                 (E) (E) (A) (E) (E) (A) (E) (E) (A) (E) (E) (A)
                 (E) (E) (A) (E) (E) (A) (A) (E) (E) (A) (E) (E)
                 (E) (E) (A) (E) (E) (E) (E) (A) (E) (E) (A) (A)
                 (E) (E) (E) (E) (A) (E) (E) (A) (A) (E) (E) (A)
                 (E) (E) (A) (E) (E) (A) (E) (E) (E) (E) (A) (E)
                 (E) (A) (E) (E) (A) (E) (E) (A) (E) (E) (A) (A)
                 (E) (E) (A) (E) (E) (A) (E) (E) (A) (E) (E) (E)
                 (E) (A) (A) (E) (E) (A) (E) (E) (A) (A) (A) (E)
                 (E) (A) (E) (E) (A) (E) (E) (A) (E) (E) (A) (E)
                 (E) (E) (E) (E) (E) (A) (A) (A) (E) (E) (E) (E)
                 (A) (E) (E) (A) (E) (E) (E) (E) (A) (E) (E) (A)
                 (E) (E) (E) (E) (A) (A) (E) (E) (E) (E) (A) (A)
                 (E) (E) (A) (E) (E) (E) (E) (A) (E) (E) (A) (E)
                 (E) (A) (E) (E) (A) (E) (E) (A) (E) (E) (A) (E)
                 (E) (A) (A) (E) (E) (E) (E) (A) (E) (E) (A) (E)
                 (E) (A) (E) (E) (A) (A) (A) (E) (E) (A) (E) (E)
                 (E) (E) (A) (E) (E) (A) (E) (E) (A) (E) (E) (A)
                 (E) (E) (A) (E) (E) (A) (E) (E) (A) (E) (E) (A)
                 (E) (E) (A) (E) (E) (E) (E) (A) (A) (E) (E) (A)
                 (E) (E) (A) (E) (E) (A) (E) (E) (A) (E) (E) (A)
                 (E) (E) (E) (E) (A) (A) (E) (E) (E) (E) (A) (A)
                 (E) (E) (A) (A) (E) (E) (E) (E) (E) (E) (A) (E)
                 (E) (A) (A) (E) (E) (E) (E) (A) (E) (E) (A) (E)
                 (E) (A) (E) (E) (E) (E) (A) (A) (E) (E) (A) (E)
                 (E) (A) (A) (E) (E) (E) (E) (A) (E) (E) (A) (E)
                 (E) (A) (E) (E) (E) (E) (A) (E) (E) (A) (A) (E)
                 (E) (A) (E) (E) (A) (E) (E) (A) (A) (A) (E) (E)
                 (E) (E) (E) (E) (A) (A) (E) (E) (A) (E) (E) (A)
                 (E) (E) (E) (E) (A) (E) (E) (A) (A) (E) (E) (A)
                 (A) (E) (E) (E) (E) (E) (E) (A) (E) (E) (A) (A)
                 (E) (E) (A) (E) (E) (E) (E) (E) (E) (A) (A) (A)
                 (E) (E) (A) (A) (E) (E) (A) (E) (E) (A) (E) (E)
                 (A) (A) (E) (E) (E) (E) (A) (A) (E) (E) (E) (E)
                 (E) (E) (A) (E) (E) (A) (E) (E) (A) (E) (E) (A)
                 (E) (E) (E) (E) (A) (E) (E) (A) (E) (E) (A) (A)
                 (A) (E) (E) (E) (E) (A) (A) (E) (E) (A) (E) (E)
                 (A) (E) (E) (A) (A) (A) (E) (E) (A) (E) (E) (A)
                 (A) (A) (E) (E) (A) (E) (E) (A)
 The electronic state is 1-A.
 Alpha  occ. eigenvalues --  -19.67434 -19.63493 -19.63493 -19.63493 -19.59975
 Alpha  occ. eigenvalues --  -19.59975 -19.59975 -19.55322  -1.20248  -1.14460
 Alpha  occ. eigenvalues --   -1.14460  -1.13725  -1.10606  -1.10043  -1.10043
 Alpha  occ. eigenvalues --   -1.02609  -0.66368  -0.66368  -0.62706  -0.62465
 Alpha  occ. eigenvalues --   -0.62465  -0.58464  -0.58464  -0.58300  -0.53853
 Alpha  occ. eigenvalues --   -0.49882  -0.49882  -0.48656  -0.47323  -0.45616
 Alpha  occ. eigenvalues --   -0.45616  -0.42901  -0.42240  -0.41648  -0.41648
 Alpha  occ. eigenvalues --   -0.38163  -0.38163  -0.38121  -0.33505  -0.33505
 Alpha virt. eigenvalues --   -0.00945   0.00680   0.00680   0.01574   0.03245
 Alpha virt. eigenvalues --    0.03245   0.04041   0.04732   0.04732   0.06022
 Alpha virt. eigenvalues --    0.07339   0.07339   0.07430   0.07789   0.07789
 Alpha virt. eigenvalues --    0.07943   0.09659   0.10871   0.10880   0.10880
 Alpha virt. eigenvalues --    0.11570   0.11962   0.11962   0.12768   0.12768
 Alpha virt. eigenvalues --    0.14490   0.15105   0.15476   0.15476   0.16570
 Alpha virt. eigenvalues --    0.16570   0.17838   0.18528   0.18528   0.18990
 Alpha virt. eigenvalues --    0.19564   0.19564   0.19728   0.20363   0.21278
 Alpha virt. eigenvalues --    0.21278   0.22470   0.22470   0.23299   0.23299
 Alpha virt. eigenvalues --    0.23875   0.25116   0.25116   0.25241   0.25595
 Alpha virt. eigenvalues --    0.26121   0.26121   0.26502   0.27069   0.27069
 Alpha virt. eigenvalues --    0.27096   0.27896   0.27896   0.28187   0.28841
 Alpha virt. eigenvalues --    0.29189   0.29189   0.30065   0.31115   0.31115
 Alpha virt. eigenvalues --    0.32171   0.32171   0.32517   0.33180   0.33180
 Alpha virt. eigenvalues --    0.33649   0.33649   0.34558   0.35165   0.35507
 Alpha virt. eigenvalues --    0.35507   0.35924   0.36911   0.36911   0.37349
 Alpha virt. eigenvalues --    0.37981   0.38498   0.38498   0.39036   0.39876
 Alpha virt. eigenvalues --    0.39876   0.40479   0.40479   0.41804   0.41903
 Alpha virt. eigenvalues --    0.41903   0.42341   0.43608   0.43776   0.43776
 Alpha virt. eigenvalues --    0.44790   0.44790   0.45606   0.45606   0.46494
 Alpha virt. eigenvalues --    0.47728   0.49268   0.49268   0.49626   0.50009
 Alpha virt. eigenvalues --    0.50009   0.50999   0.51473   0.51473   0.52291
 Alpha virt. eigenvalues --    0.52581   0.54329   0.54329   0.54587   0.56031
 Alpha virt. eigenvalues --    0.56031   0.56394   0.57026   0.57595   0.57673
 Alpha virt. eigenvalues --    0.57673   0.58444   0.58444   0.59400   0.59400
 Alpha virt. eigenvalues --    0.60763   0.61105   0.61105   0.61888   0.62328
 Alpha virt. eigenvalues --    0.62328   0.62557   0.63409   0.63409   0.63872
 Alpha virt. eigenvalues --    0.64429   0.64429   0.66004   0.66821   0.66821
 Alpha virt. eigenvalues --    0.66950   0.67156   0.67853   0.67853   0.69417
 Alpha virt. eigenvalues --    0.69850   0.69850   0.71632   0.71798   0.71798
 Alpha virt. eigenvalues --    0.72982   0.73753   0.73753   0.75288   0.75357
 Alpha virt. eigenvalues --    0.75357   0.77218   0.77218   0.79631   0.79631
 Alpha virt. eigenvalues --    0.80425   0.81998   0.82594   0.82594   0.83874
 Alpha virt. eigenvalues --    0.83874   0.85063   0.85785   0.86788   0.86788
 Alpha virt. eigenvalues --    0.88242   0.89999   0.89999   0.93057   0.93130
 Alpha virt. eigenvalues --    0.93130   0.95472   0.96171   0.96171   0.99771
 Alpha virt. eigenvalues --    1.02193   1.02193   1.02700   1.02700   1.03904
 Alpha virt. eigenvalues --    1.05315   1.05609   1.05609   1.05729   1.07403
 Alpha virt. eigenvalues --    1.07403   1.08414   1.09680   1.10354   1.10354
 Alpha virt. eigenvalues --    1.11983   1.11983   1.13299   1.14576   1.14576
 Alpha virt. eigenvalues --    1.15349   1.15644   1.15644   1.15959   1.18350
 Alpha virt. eigenvalues --    1.18350   1.18468   1.20450   1.20703   1.20703
 Alpha virt. eigenvalues --    1.21973   1.21973   1.23129   1.24484   1.25267
 Alpha virt. eigenvalues --    1.25267   1.26418   1.28428   1.29624   1.29624
 Alpha virt. eigenvalues --    1.30624   1.31715   1.31715   1.33491   1.35872
 Alpha virt. eigenvalues --    1.35872   1.37408   1.38857   1.38857   1.44118
 Alpha virt. eigenvalues --    1.44118   1.44150   1.45758   1.45758   1.48070
 Alpha virt. eigenvalues --    1.48590   1.48590   1.49619   1.49619   1.49828
 Alpha virt. eigenvalues --    1.51567   1.51841   1.51841   1.52884   1.52884
 Alpha virt. eigenvalues --    1.54340   1.56260   1.57372   1.57372   1.60511
 Alpha virt. eigenvalues --    1.60899   1.60899   1.62912   1.62912   1.62949
 Alpha virt. eigenvalues --    1.63771   1.67930   1.68344   1.68344   1.68771
 Alpha virt. eigenvalues --    1.69652   1.69652   1.71552   1.71552   1.71912
 Alpha virt. eigenvalues --    1.73792   1.73792   1.74616   1.74616   1.78892
 Alpha virt. eigenvalues --    1.78892   1.79075   1.79316   1.80860   1.80860
 Alpha virt. eigenvalues --    1.81249   1.83227   1.86253   1.86304   1.86304
 Alpha virt. eigenvalues --    1.88308   1.88308   1.90123   1.91868   1.91868
 Alpha virt. eigenvalues --    1.95336   1.96300   1.96300   1.99765   2.00779
 Alpha virt. eigenvalues --    2.00779   2.03720   2.03720   2.03865   2.05879
 Alpha virt. eigenvalues --    2.09287   2.10237   2.10237   2.12188   2.12188
 Alpha virt. eigenvalues --    2.14754   2.16743   2.16743   2.17234   2.18651
 Alpha virt. eigenvalues --    2.18651   2.21334   2.22041   2.22041   2.24093
 Alpha virt. eigenvalues --    2.24407   2.24407   2.26987   2.28285   2.28285
 Alpha virt. eigenvalues --    2.29591   2.30428   2.30428   2.32518   2.33903
 Alpha virt. eigenvalues --    2.34304   2.34304   2.36334   2.37681   2.37681
 Alpha virt. eigenvalues --    2.39145   2.39145   2.42586   2.43935   2.43935
 Alpha virt. eigenvalues --    2.46573   2.47293   2.47618   2.47618   2.50472
 Alpha virt. eigenvalues --    2.50472   2.52652   2.53122   2.53122   2.55340
 Alpha virt. eigenvalues --    2.55376   2.55376   2.57328   2.57413   2.57413
 Alpha virt. eigenvalues --    2.58647   2.62657   2.62657   2.62774   2.63688
 Alpha virt. eigenvalues --    2.63688   2.64336   2.64751   2.64751   2.66638
 Alpha virt. eigenvalues --    2.66871   2.67326   2.67326   2.67507   2.68591
 Alpha virt. eigenvalues --    2.68591   2.70371   2.70371   2.72004   2.74037
 Alpha virt. eigenvalues --    2.74037   2.76584   2.76834   2.76834   2.78246
 Alpha virt. eigenvalues --    2.78527   2.78527   2.80418   2.80421   2.80421
 Alpha virt. eigenvalues --    2.83680   2.83680   2.84455   2.85459   2.87796
 Alpha virt. eigenvalues --    2.87796   2.88118   2.90934   2.90934   2.91815
 Alpha virt. eigenvalues --    2.91815   2.92496   2.94780   2.97566   2.97566
 Alpha virt. eigenvalues --    2.98566   2.98566   3.00209   3.01758   3.01758
 Alpha virt. eigenvalues --    3.05712   3.05712   3.05770   3.09045   3.09565
 Alpha virt. eigenvalues --    3.09565   3.10746   3.15701   3.16080   3.16080
 Alpha virt. eigenvalues --    3.18386   3.18386   3.21094   3.23314   3.23314
 Alpha virt. eigenvalues --    3.27292   3.27292   3.28034   3.33122   3.35553
 Alpha virt. eigenvalues --    3.35553   3.35823   3.37808   3.37808   3.41474
 Alpha virt. eigenvalues --    3.42898   3.42898   3.45319   3.45993   3.51691
 Alpha virt. eigenvalues --    3.51691   3.53304   3.53698   3.53698   3.55310
 Alpha virt. eigenvalues --    3.57043   3.57043   3.60923   3.62018   3.62018
 Alpha virt. eigenvalues --    3.62827   3.62827   3.65563   3.75643   3.79070
 Alpha virt. eigenvalues --    3.79070   3.80250   3.84335   3.86569   3.86569
 Alpha virt. eigenvalues --    3.89203   3.89203   3.89498   3.91429   3.93319
 Alpha virt. eigenvalues --    3.93319   3.96110   3.96110   3.98137   3.99916
 Alpha virt. eigenvalues --    3.99916   4.00585   4.01927   4.04875   4.04944
 Alpha virt. eigenvalues --    4.04944   4.07364   4.07364   4.07825   4.12275
 Alpha virt. eigenvalues --    4.12275   4.13002   4.18253   4.18253   4.20013
 Alpha virt. eigenvalues --    4.20961   4.20961   4.23846   4.25051   4.25051
 Alpha virt. eigenvalues --    4.28827   4.28827   4.29566   4.32187   4.34159
 Alpha virt. eigenvalues --    4.34159   4.37619   4.38660   4.38660   4.40251
 Alpha virt. eigenvalues --    4.44278   4.44278   4.44789   4.46120   4.46120
 Alpha virt. eigenvalues --    4.47533   4.50379   4.50473   4.50473   4.52975
 Alpha virt. eigenvalues --    4.52975   4.55550   4.55550   4.56066   4.59570
 Alpha virt. eigenvalues --    4.59570   4.64848   4.65268   4.66566   4.66566
 Alpha virt. eigenvalues --    4.67043   4.70314   4.70314   4.72284   4.72284
 Alpha virt. eigenvalues --    4.73020   4.75556   4.77673   4.77673   4.79576
 Alpha virt. eigenvalues --    4.79613   4.79613   4.81996   4.86534   4.86534
 Alpha virt. eigenvalues --    4.90089   4.90089   4.91699   4.93784   4.93784
 Alpha virt. eigenvalues --    4.98238   5.00102   5.00102   5.04334   5.04698
 Alpha virt. eigenvalues --    5.04698   5.07218   5.10868   5.16174   5.16174
 Alpha virt. eigenvalues --    5.30150   5.33910   5.33910   5.39621   5.41083
 Alpha virt. eigenvalues --    5.41083   5.42902   5.44684   5.44684   5.49314
 Alpha virt. eigenvalues --    5.52327   5.52327   5.54756   5.55017   5.55017
 Alpha virt. eigenvalues --    5.60366   5.63034   5.63034   5.66610   5.67127
 Alpha virt. eigenvalues --    5.67127   5.67443   5.70399   5.72579   5.72579
 Alpha virt. eigenvalues --    5.74002   5.74002   5.75948   5.76459   5.78451
 Alpha virt. eigenvalues --    5.78451   5.79798   5.80554   5.80554   5.83976
 Alpha virt. eigenvalues --    5.85250   5.85250   5.85531   5.87088   5.87088
 Alpha virt. eigenvalues --    5.88168   5.88667   5.88667   5.90650   5.91378
 Alpha virt. eigenvalues --    5.91378   5.91418   5.93353   5.93937   5.93937
 Alpha virt. eigenvalues --    5.98163   6.01353   6.01353   6.05401   6.05401
 Alpha virt. eigenvalues --    6.08791   6.08860   6.08860   6.12223   6.12223
 Alpha virt. eigenvalues --    6.14518   6.20545   6.20545   6.21507   6.27653
 Alpha virt. eigenvalues --    6.29418   6.29418   6.33166   6.33166   6.33460
 Alpha virt. eigenvalues --    6.36240   6.36240   6.41054   6.46369   6.48047
 Alpha virt. eigenvalues --    6.48047   6.49644   6.51740   6.51740   6.54065
 Alpha virt. eigenvalues --    6.63434   6.63434   6.64163   6.72275   6.72275
 Alpha virt. eigenvalues --    6.77613   6.77613   6.78186   6.91439   6.91439
 Alpha virt. eigenvalues --    6.96551   7.00225   7.00225   7.03319   7.06165
 Alpha virt. eigenvalues --    7.06165   7.09833   7.14157   7.14157   7.17908
 Alpha virt. eigenvalues --    7.19941   7.20436   7.20436   7.26402   7.27893
 Alpha virt. eigenvalues --    7.27893   7.28308   7.28936   7.28936   7.32331
 Alpha virt. eigenvalues --    7.32568   7.32568   7.33355   7.33355   7.33788
 Alpha virt. eigenvalues --    7.35390   7.35805   7.35805   7.37951   7.38352
 Alpha virt. eigenvalues --    7.38352   7.39007   7.40483   7.40704   7.42230
 Alpha virt. eigenvalues --    7.42230   7.42667   7.43205   7.43205   7.44985
 Alpha virt. eigenvalues --    7.45771   7.45771   7.46374   7.47621   7.47621
 Alpha virt. eigenvalues --    7.50124   7.50537   7.50537   7.53947   7.53947
 Alpha virt. eigenvalues --    7.55963   7.55963   7.56700   7.57553   7.61388
 Alpha virt. eigenvalues --    7.61999   7.61999   7.63565   7.63565   7.63997
 Alpha virt. eigenvalues --    7.65844   7.65844   7.66819   7.69620   7.69620
 Alpha virt. eigenvalues --    7.72889   7.72889   7.73148   7.75782   7.75782
 Alpha virt. eigenvalues --    7.77752   7.78359   7.78359   7.80082   7.80082
 Alpha virt. eigenvalues --    7.80644   7.82773   7.83214   7.83214   7.84134
 Alpha virt. eigenvalues --    7.84134   7.84797   7.86613   7.86753   7.86753
 Alpha virt. eigenvalues --    7.88742   7.89478   7.89478   7.90597   7.90597
 Alpha virt. eigenvalues --    7.91200   7.93607   7.93607   7.96223   7.96457
 Alpha virt. eigenvalues --    7.96457   7.96651   7.98728   7.98728   8.02487
 Alpha virt. eigenvalues --    8.04295   8.04295   8.08041   8.08314   8.08314
 Alpha virt. eigenvalues --    8.13613   8.13790   8.13790   8.16352   8.19349
 Alpha virt. eigenvalues --    8.19498   8.19498   8.20441   8.20441   8.24052
 Alpha virt. eigenvalues --    8.24350   8.24350   8.27111   8.27759   8.27759
 Alpha virt. eigenvalues --    8.28209   8.28963   8.28963   8.29500   8.32949
 Alpha virt. eigenvalues --    8.35291   8.36859   8.36859   8.40764   8.40922
 Alpha virt. eigenvalues --    8.40922   8.43579   8.43579   8.44727   8.45782
 Alpha virt. eigenvalues --    8.45782   8.47553   8.48193   8.48193   8.50204
 Alpha virt. eigenvalues --    8.51683   8.51683   8.53373   8.54389   8.54389
 Alpha virt. eigenvalues --    8.55696   8.57398   8.57398   8.60954   8.61942
 Alpha virt. eigenvalues --    8.61942   8.66171   8.66729   8.66729   8.67564
 Alpha virt. eigenvalues --    8.71890   8.71890   8.72395   8.73807   8.73807
 Alpha virt. eigenvalues --    8.78251   8.78251   8.78397   8.79433   8.80998
 Alpha virt. eigenvalues --    8.80998   8.81732   8.86533   8.86533   8.87363
 Alpha virt. eigenvalues --    8.90011   8.90011   8.93236   8.99679   8.99679
 Alpha virt. eigenvalues --    9.06762   9.11356   9.11356   9.16018   9.18676
 Alpha virt. eigenvalues --    9.18676   9.22116   9.22116   9.39270   9.60372
 Alpha virt. eigenvalues --    9.62815   9.62815   9.66360   9.66360   9.66413
 Alpha virt. eigenvalues --    9.68449   9.78435   9.78435   9.83582   9.94077
 Alpha virt. eigenvalues --    9.96454   9.96454   9.99948   9.99948  10.15994
 Alpha virt. eigenvalues --   10.15994  10.17608  10.18931  10.18931  10.19830
 Alpha virt. eigenvalues --   10.21130  10.21229  10.21229  10.23720  10.23720
 Alpha virt. eigenvalues --   10.24206  10.26676  10.26676  10.32694  10.38225
 Alpha virt. eigenvalues --   10.38225  10.45381  10.49110  10.49110  10.53357
 Alpha virt. eigenvalues --   10.53357  10.55758  10.64249  10.68865  10.68865
 Alpha virt. eigenvalues --   10.70787  10.73787  10.73787  10.74700  10.75847
 Alpha virt. eigenvalues --   10.76606  10.76606  10.79100  10.79100  10.79553
 Alpha virt. eigenvalues --   10.86656  10.86656  10.90375  10.92249  10.92249
 Alpha virt. eigenvalues --   10.97992  11.00488  11.00488  11.08024  11.08024
 Alpha virt. eigenvalues --   11.09649  11.16555  11.16555  11.20667  11.27461
 Alpha virt. eigenvalues --   11.29410  11.29410  11.30925  11.32433  11.32433
 Alpha virt. eigenvalues --   11.33321  11.34463  11.34463  11.36097  11.40076
 Alpha virt. eigenvalues --   11.43976  11.48297  11.48297  11.53455  11.53455
 Alpha virt. eigenvalues --   11.59361  11.59361  11.59964  11.63242  11.64240
 Alpha virt. eigenvalues --   11.64240  11.66786  11.67255  11.67255  11.71726
 Alpha virt. eigenvalues --   11.75120  11.75120  11.77127  11.77127  11.78090
 Alpha virt. eigenvalues --   11.82643  11.82643  11.82652  11.85411  11.90391
 Alpha virt. eigenvalues --   11.90391  11.91903  11.97854  11.97887  11.97887
 Alpha virt. eigenvalues --   12.01025  12.01025  12.04038  12.04038  12.04465
 Alpha virt. eigenvalues --   12.09492  12.09492  12.11062  12.19645  12.33940
 Alpha virt. eigenvalues --   12.33940  12.43834  12.44396  12.44396  12.46604
 Alpha virt. eigenvalues --   12.46604  12.49305  12.49305  12.49349  12.52212
 Alpha virt. eigenvalues --   12.58975  12.61867  12.61867  12.62505  12.64919
 Alpha virt. eigenvalues --   12.68692  12.68692  12.70780  12.77317  12.77317
 Alpha virt. eigenvalues --   12.93365  13.07256  13.07256  13.10630  13.12671
 Alpha virt. eigenvalues --   13.13669  13.13669  13.15663  13.15663  13.34657
 Alpha virt. eigenvalues --   13.36122  13.36689  13.36689  13.42394  13.42394
 Alpha virt. eigenvalues --   13.66220  13.66220  13.67402  13.69110  13.69110
 Alpha virt. eigenvalues --   13.70880  13.73923  13.73923  13.82184  13.83345
 Alpha virt. eigenvalues --   13.83345  13.87239  13.87674  13.87674  13.89013
 Alpha virt. eigenvalues --   13.89013  14.51115  14.57022  14.57022  14.65538
 Alpha virt. eigenvalues --   14.72138  14.72138  14.72794  14.82846  15.93580
 Alpha virt. eigenvalues --   16.01233  16.01233  16.12889  16.12889  16.23857
 Alpha virt. eigenvalues --   16.29573  16.33263  16.33263  16.60185  16.60373
 Alpha virt. eigenvalues --   16.60373  16.61019  16.63209  16.63209  16.67731
 Alpha virt. eigenvalues --   48.57308  48.62916  48.63680  48.63680  48.70462
 Alpha virt. eigenvalues --   48.79284  48.79284  48.90132 251.68596 251.75982
 Alpha virt. eigenvalues --  251.76779 251.76779 251.85951 251.95867 251.95867
 Alpha virt. eigenvalues --  252.11308
          Condensed to atoms (all electrons):
               1          2          3          4          5          6
     1  O    8.032049  -0.062626  -0.001776  -0.001776  -0.000184   0.002026
     2  O   -0.062626   7.838769  -0.062626  -0.062626   0.000708   0.005051
     3  O   -0.001776  -0.062626   8.032049  -0.001776   0.000823   0.002026
     4  O   -0.001776  -0.062626  -0.001776   8.032049  -0.056510   0.002026
     5  O   -0.000184   0.000708   0.000823  -0.056510   8.128438  -0.115954
     6  O    0.002026   0.005051   0.002026   0.002026  -0.115954   9.687534
     7  O    0.000823   0.000708  -0.056510  -0.000184   0.000850  -0.115954
     8  O   -0.056510   0.000708  -0.000184   0.000823   0.000850  -0.115954
     9  H    0.275510   0.001240   0.000052  -0.000497   0.000415  -0.014771
    10  H    0.278284   0.001758   0.000076   0.000478   0.000016  -0.001081
    11  H    0.003497  -0.000062   0.000044  -0.000490  -0.001107  -0.011783
    12  H    0.000076   0.001758   0.000478   0.278284  -0.004752  -0.001081
    13  H    0.000052   0.001240  -0.000497   0.275510   0.142719  -0.014771
    14  H   -0.004483  -0.000853  -0.000327   0.000799   0.012758   0.011151
    15  H    0.207668   0.273942  -0.029629  -0.013899  -0.005682   0.001805
    16  H   -0.029629   0.273942  -0.013899   0.207668  -0.001042   0.001805
    17  H   -0.000490  -0.000062   0.003497   0.000044   0.000039  -0.011783
    18  H   -0.000327  -0.000853   0.000799  -0.004483   0.286016   0.011151
    19  H   -0.013899   0.273942   0.207668  -0.029629   0.002929   0.001805
    20  H    0.000044  -0.000062  -0.000490   0.003497   0.290073  -0.011783
    21  H   -0.000161  -0.001009  -0.000161  -0.000161   0.015435  -0.151939
    22  H    0.000799  -0.000853  -0.004483  -0.000327   0.010283   0.011151
    23  H    0.000478   0.001758   0.278284   0.000076  -0.000126  -0.001081
    24  H   -0.000497   0.001240   0.275510   0.000052   0.000545  -0.014771
               7          8          9         10         11         12
     1  O    0.000823  -0.056510   0.275510   0.278284   0.003497   0.000076
     2  O    0.000708   0.000708   0.001240   0.001758  -0.000062   0.001758
     3  O   -0.056510  -0.000184   0.000052   0.000076   0.000044   0.000478
     4  O   -0.000184   0.000823  -0.000497   0.000478  -0.000490   0.278284
     5  O    0.000850   0.000850   0.000415   0.000016  -0.001107  -0.004752
     6  O   -0.115954  -0.115954  -0.014771  -0.001081  -0.011783  -0.001081
     7  O    8.128438   0.000850   0.000545  -0.000126   0.000039   0.000016
     8  O    0.000850   8.128438   0.142719  -0.004752   0.290073  -0.000126
     9  H    0.000545   0.142719   0.343733   0.000766  -0.017839   0.000023
    10  H   -0.000126  -0.004752   0.000766   0.339469  -0.000436  -0.000001
    11  H    0.000039   0.290073  -0.017839  -0.000436   0.324095  -0.000021
    12  H    0.000016  -0.000126   0.000023  -0.000001  -0.000021   0.339469
    13  H    0.000415   0.000545  -0.000163  -0.000163   0.000029   0.000766
    14  H    0.010283   0.286016   0.001390   0.000788  -0.010923   0.000203
    15  H    0.002929  -0.001042  -0.032273  -0.017467   0.001366  -0.003041
    16  H   -0.005682   0.002929   0.007264   0.007167  -0.001104  -0.017467
    17  H    0.290073  -0.001107   0.000029  -0.000021  -0.000151   0.000003
    18  H    0.012758   0.010283   0.000267   0.000013   0.001529   0.000788
    19  H   -0.001042  -0.005682   0.004163  -0.003041   0.000763   0.007167
    20  H   -0.001107   0.000039  -0.000044   0.000003  -0.000151  -0.000436
    21  H    0.015435   0.015435   0.000575   0.000102   0.000378   0.000102
    22  H    0.286016   0.012758   0.002779   0.000203  -0.000405   0.000013
    23  H   -0.004752   0.000016  -0.000163  -0.000001   0.000003  -0.000001
    24  H    0.142719   0.000415  -0.000163   0.000023  -0.000044  -0.000163
              13         14         15         16         17         18
     1  O    0.000052  -0.004483   0.207668  -0.029629  -0.000490  -0.000327
     2  O    0.001240  -0.000853   0.273942   0.273942  -0.000062  -0.000853
     3  O   -0.000497  -0.000327  -0.029629  -0.013899   0.003497   0.000799
     4  O    0.275510   0.000799  -0.013899   0.207668   0.000044  -0.004483
     5  O    0.142719   0.012758  -0.005682  -0.001042   0.000039   0.286016
     6  O   -0.014771   0.011151   0.001805   0.001805  -0.011783   0.011151
     7  O    0.000415   0.010283   0.002929  -0.005682   0.290073   0.012758
     8  O    0.000545   0.286016  -0.001042   0.002929  -0.001107   0.010283
     9  H   -0.000163   0.001390  -0.032273   0.007264   0.000029   0.000267
    10  H   -0.000163   0.000788  -0.017467   0.007167  -0.000021   0.000013
    11  H    0.000029  -0.010923   0.001366  -0.001104  -0.000151   0.001529
    12  H    0.000766   0.000203  -0.003041  -0.017467   0.000003   0.000788
    13  H    0.343733   0.002779   0.004163  -0.032273  -0.000044   0.001390
    14  H    0.002779   0.368415  -0.000864   0.002860   0.001529  -0.005400
    15  H    0.004163  -0.000864   0.516368  -0.110202  -0.001104  -0.003150
    16  H   -0.032273   0.002860  -0.110202   0.516368   0.000763  -0.000864
    17  H   -0.000044   0.001529  -0.001104   0.000763   0.324095  -0.000405
    18  H    0.001390  -0.005400  -0.003150  -0.000864  -0.000405   0.368415
    19  H    0.007264  -0.003150  -0.110202  -0.110202   0.001366   0.002860
    20  H   -0.017839  -0.000405   0.000763   0.001366  -0.000151  -0.010923
    21  H    0.000575   0.035481  -0.000277  -0.000277   0.000378   0.035481
    22  H    0.000267  -0.005400   0.002860  -0.003150  -0.010923  -0.005400
    23  H    0.000023   0.000013   0.007167  -0.003041  -0.000436   0.000203
    24  H   -0.000163   0.000267   0.007264   0.004163  -0.017839   0.002779
              19         20         21         22         23         24
     1  O   -0.013899   0.000044  -0.000161   0.000799   0.000478  -0.000497
     2  O    0.273942  -0.000062  -0.001009  -0.000853   0.001758   0.001240
     3  O    0.207668  -0.000490  -0.000161  -0.004483   0.278284   0.275510
     4  O   -0.029629   0.003497  -0.000161  -0.000327   0.000076   0.000052
     5  O    0.002929   0.290073   0.015435   0.010283  -0.000126   0.000545
     6  O    0.001805  -0.011783  -0.151939   0.011151  -0.001081  -0.014771
     7  O   -0.001042  -0.001107   0.015435   0.286016  -0.004752   0.142719
     8  O   -0.005682   0.000039   0.015435   0.012758   0.000016   0.000415
     9  H    0.004163  -0.000044   0.000575   0.002779  -0.000163  -0.000163
    10  H   -0.003041   0.000003   0.000102   0.000203  -0.000001   0.000023
    11  H    0.000763  -0.000151   0.000378  -0.000405   0.000003  -0.000044
    12  H    0.007167  -0.000436   0.000102   0.000013  -0.000001  -0.000163
    13  H    0.007264  -0.017839   0.000575   0.000267   0.000023  -0.000163
    14  H   -0.003150  -0.000405   0.035481  -0.005400   0.000013   0.000267
    15  H   -0.110202   0.000763  -0.000277   0.002860   0.007167   0.007264
    16  H   -0.110202   0.001366  -0.000277  -0.003150  -0.003041   0.004163
    17  H    0.001366  -0.000151   0.000378  -0.010923  -0.000436  -0.017839
    18  H    0.002860  -0.010923   0.035481  -0.005400   0.000203   0.002779
    19  H    0.516368  -0.001104  -0.000277  -0.000864  -0.017467  -0.032273
    20  H   -0.001104   0.324095   0.000378   0.001529  -0.000021   0.000029
    21  H   -0.000277   0.000378   0.463007   0.035481   0.000102   0.000575
    22  H   -0.000864   0.001529   0.035481   0.368415   0.000788   0.001390
    23  H   -0.017467  -0.000021   0.000102   0.000788   0.339469   0.000766
    24  H   -0.032273   0.000029   0.000575   0.001390   0.000766   0.343733
 Mulliken charges:
               1
     1  O   -0.628949
     2  O   -0.485132
     3  O   -0.628949
     4  O   -0.628949
     5  O   -0.707541
     6  O   -1.154825
     7  O   -0.707541
     8  O   -0.707541
     9  H    0.284444
    10  H    0.397942
    11  H    0.422698
    12  H    0.397942
    13  H    0.284444
    14  H    0.297073
    15  H    0.302537
    16  H    0.302537
    17  H    0.422698
    18  H    0.297073
    19  H    0.302537
    20  H    0.422698
    21  H    0.535343
    22  H    0.297073
    23  H    0.397942
    24  H    0.284444
 Sum of Mulliken charges =  -0.00000
 Mulliken charges with hydrogens summed into heavy atoms:
               1
     1  O    0.053437
     2  O    0.422480
     3  O    0.053437
     4  O    0.053437
     5  O    0.012230
     6  O   -0.619482
     7  O    0.012230
     8  O    0.012230
 Electronic spatial extent (au):  <R**2>=           1994.9341
 Charge=             -0.0000 electrons
 Dipole moment (field-independent basis, Debye):
    X=             -0.0000    Y=             -0.0000    Z=              3.3619  Tot=              3.3619
 Quadrupole moment (field-independent basis, Debye-Ang):
   XX=            -47.0661   YY=            -47.0661   ZZ=            -49.9396
   XY=             -0.0000   XZ=             -0.0000   YZ=              0.0000
 Traceless Quadrupole moment (field-independent basis, Debye-Ang):
   XX=              0.9578   YY=              0.9578   ZZ=             -1.9156
   XY=             -0.0000   XZ=             -0.0000   YZ=              0.0000
 Octapole moment (field-independent basis, Debye-Ang**2):
  XXX=             18.1586  YYY=             -8.9959  ZZZ=             -2.3255  XYY=            -18.1586
  XXY=              8.9959  XXZ=             24.9434  XZZ=             -0.0000  YZZ=              0.0000
  YYZ=             24.9434  XYZ=              0.0000
 Hexadecapole moment (field-independent basis, Debye-Ang**3):
 XXXX=           -635.3242 YYYY=           -635.3242 ZZZZ=           -732.8407 XXXY=             -0.0000
 XXXZ=             39.7698 YYYX=             -0.0000 YYYZ=             74.8334 ZZZX=              0.0000
 ZZZY=             -0.0000 XXYY=           -211.7747 XXZZ=           -223.9728 YYZZ=           -223.9728
 XXYZ=            -74.8334 YYXZ=            -39.7698 ZZXY=             -0.0000
 N-N= 4.952894875762D+02 E-N=-2.437917975323D+03  KE= 6.094302028835D+02
 PrsmSu:  requested number of processors reduced to:  18 ShMem   1 Linda.
 No NMR shielding tensors so no spin-rotation constants.
 Leave Link  601 at Sat Apr 17 21:54:09 2021, MaxMem=   104857600 cpu:            1046.4 elap:              22.6
 (Enter /s/ls4/users/knvvv/bin/g16sse/l801.exe)
 DoSCS=F DFT=T ScalE2(SS,OS)=  1.000000  1.000000
 Range of M.O.s used for correlation:     1  1056
 NBasis=  1056 NAE=    40 NBE=    40 NFC=     0 NFV=     0
 NROrb=   1056 NOA=    40 NOB=    40 NVA=  1016 NVB=  1016

 **** Warning!!: The largest alpha MO coefficient is  0.13882674D+03

 Leave Link  801 at Sat Apr 17 21:54:09 2021, MaxMem=   104857600 cpu:               7.0 elap:               0.3
 (Enter /s/ls4/users/knvvv/bin/g16sse/l914.exe)
 RHF ground state
 Doing stability rather than CIS.
 Two-electron integrals replicated using symmetry.
 MDV=   104857600 DFT=T DoStab=T Mixed=T DoRPA=F DoScal=F NonHer=F
 Making orbital integer symmetry assigments:
 Orbital symmetries:
       Occupied  (A) (E) (E) (A) (E) (E) (A) (A) (A) (E) (E) (A)
                 (A) (E) (E) (A) (E) (E) (A) (E) (E) (E) (E) (A)
                 (A) (E) (E) (A) (A) (E) (E) (A) (A) (E) (E) (E)
                 (E) (A) (E) (E)
       Virtual   (A) (E) (E) (A) (E) (E) (A) (E) (E) (A) (E) (E)
                 (A) (E) (E) (A) (A) (A) (E) (E) (A) (E) (E) (E)
                 (E) (A) (A) (E) (E) (E) (E) (A) (E) (E) (A) (E)
                 (E) (A) (A) (E) (E) (E) (E) (E) (E) (A) (E) (E)
                 (A) (A) (E) (E) (A) (E) (E) (A) (E) (E) (A) (A)
                 (E) (E) (A) (E) (E) (E) (E) (A) (E) (E) (E) (E)
                 (A) (A) (E) (E) (A) (E) (E) (A) (A) (E) (E) (A)
                 (E) (E) (E) (E) (A) (E) (E) (A) (A) (E) (E) (E)
                 (E) (E) (E) (A) (A) (E) (E) (A) (E) (E) (A) (E)
[...]
 Alpha virt. eigenvalues --    4.98238   5.00102   5.00102   5.04334   5.04698
 Alpha virt. eigenvalues --    5.04698   5.07218   5.10868   5.16174   5.16174
 Alpha virt. eigenvalues --    5.30150   5.33910   5.33910   5.39621   5.41083
 Alpha virt. eigenvalues --    5.41083   5.42902   5.44684   5.44684   5.49314
 Alpha virt. eigenvalues --    5.52327   5.52327   5.54756   5.55017   5.55017
 Alpha virt. eigenvalues --    5.60366   5.63034   5.63034   5.66610   5.67127
 Alpha virt. eigenvalues --    5.67127   5.67443   5.70399   5.72579   5.72579
 Alpha virt. eigenvalues --    5.74002   5.74002   5.75948   5.76459   5.78451
 Alpha virt. eigenvalues --    5.78451   5.79798   5.80554   5.80554   5.83976
 Alpha virt. eigenvalues --    5.85250   5.85250   5.85531   5.87088   5.87088
 Alpha virt. eigenvalues --    5.88168   5.88667   5.88667   5.90650   5.91378
 Alpha virt. eigenvalues --    5.91378   5.91418   5.93353   5.93937   5.93937
 Alpha virt. eigenvalues --    5.98163   6.01353   6.01353   6.05401   6.05401
 Alpha virt. eigenvalues --    6.08791   6.08860   6.08860   6.12223   6.12223
 Alpha virt. eigenvalues --    6.14518   6.20545   6.20545   6.21507   6.27653
 Alpha virt. eigenvalues --    6.29418   6.29418   6.33166   6.33166   6.33460
 Alpha virt. eigenvalues --    6.36240   6.36240   6.41054   6.46369   6.48047
 Alpha virt. eigenvalues --    6.48047   6.49644   6.51740   6.51740   6.54065
 Alpha virt. eigenvalues --    6.63434   6.63434   6.64163   6.72275   6.72275
 Alpha virt. eigenvalues --    6.77613   6.77613   6.78186   6.91439   6.91439
 Alpha virt. eigenvalues --    6.96551   7.00225   7.00225   7.03319   7.06165
 Alpha virt. eigenvalues --    7.06165   7.09833   7.14157   7.14157   7.17908
 Alpha virt. eigenvalues --    7.19941   7.20436   7.20436   7.26402   7.27893
 Alpha virt. eigenvalues --    7.27893   7.28308   7.28936   7.28936   7.32331
 Alpha virt. eigenvalues --    7.32568   7.32568   7.33355   7.33355   7.33788
 Alpha virt. eigenvalues --    7.35390   7.35805   7.35805   7.37951   7.38352
 Alpha virt. eigenvalues --    7.38352   7.39007   7.40483   7.40704   7.42230
 Alpha virt. eigenvalues --    7.42230   7.42667   7.43205   7.43205   7.44985
 Alpha virt. eigenvalues --    7.45771   7.45771   7.46374   7.47621   7.47621
 Alpha virt. eigenvalues --    7.50124   7.50537   7.50537   7.53947   7.53947
 Alpha virt. eigenvalues --    7.55963   7.55963   7.56700   7.57553   7.61388
 Alpha virt. eigenvalues --    7.61999   7.61999   7.63565   7.63565   7.63997
 Alpha virt. eigenvalues --    7.65844   7.65844   7.66819   7.69620   7.69620
 Alpha virt. eigenvalues --    7.72889   7.72889   7.73148   7.75782   7.75782
 Alpha virt. eigenvalues --    7.77752   7.78359   7.78359   7.80082   7.80082
 Alpha virt. eigenvalues --    7.80644   7.82773   7.83214   7.83214   7.84134
 Alpha virt. eigenvalues --    7.84134   7.84797   7.86613   7.86753   7.86753
 Alpha virt. eigenvalues --    7.88742   7.89478   7.89478   7.90597   7.90597
 Alpha virt. eigenvalues --    7.91200   7.93607   7.93607   7.96223   7.96457
 Alpha virt. eigenvalues --    7.96457   7.96651   7.98728   7.98728   8.02487
 Alpha virt. eigenvalues --    8.04295   8.04295   8.08041   8.08314   8.08314
 Alpha virt. eigenvalues --    8.13613   8.13790   8.13790   8.16352   8.19349
 Alpha virt. eigenvalues --    8.19498   8.19498   8.20441   8.20441   8.24052
 Alpha virt. eigenvalues --    8.24350   8.24350   8.27111   8.27759   8.27759
 Alpha virt. eigenvalues --    8.28209   8.28963   8.28963   8.29500   8.32949
 Alpha virt. eigenvalues --    8.35291   8.36859   8.36859   8.40764   8.40922
 Alpha virt. eigenvalues --    8.40922   8.43579   8.43579   8.44727   8.45782
 Alpha virt. eigenvalues --    8.45782   8.47553   8.48193   8.48193   8.50204
 Alpha virt. eigenvalues --    8.51683   8.51683   8.53373   8.54389   8.54389
 Alpha virt. eigenvalues --    8.55696   8.57398   8.57398   8.60954   8.61942
 Alpha virt. eigenvalues --    8.61942   8.66171   8.66729   8.66729   8.67564
 Alpha virt. eigenvalues --    8.71890   8.71890   8.72395   8.73807   8.73807
 Alpha virt. eigenvalues --    8.78251   8.78251   8.78397   8.79433   8.80998
 Alpha virt. eigenvalues --    8.80998   8.81732   8.86533   8.86533   8.87363
 Alpha virt. eigenvalues --    8.90011   8.90011   8.93236   8.99679   8.99679
 Alpha virt. eigenvalues --    9.06762   9.11356   9.11356   9.16018   9.18676
 Alpha virt. eigenvalues --    9.18676   9.22116   9.22116   9.39270   9.60372
 Alpha virt. eigenvalues --    9.62815   9.62815   9.66360   9.66360   9.66413
 Alpha virt. eigenvalues --    9.68449   9.78435   9.78435   9.83582   9.94077
 Alpha virt. eigenvalues --    9.96454   9.96454   9.99948   9.99948  10.15994
 Alpha virt. eigenvalues --   10.15994  10.17608  10.18931  10.18931  10.19830
 Alpha virt. eigenvalues --   10.21130  10.21229  10.21229  10.23720  10.23720
 Alpha virt. eigenvalues --   10.24206  10.26676  10.26676  10.32694  10.38225
 Alpha virt. eigenvalues --   10.38225  10.45381  10.49110  10.49110  10.53357
 Alpha virt. eigenvalues --   10.53357  10.55758  10.64249  10.68865  10.68865
 Alpha virt. eigenvalues --   10.70787  10.73787  10.73787  10.74700  10.75847
 Alpha virt. eigenvalues --   10.76606  10.76606  10.79100  10.79100  10.79553
 Alpha virt. eigenvalues --   10.86656  10.86656  10.90375  10.92249  10.92249
 Alpha virt. eigenvalues --   10.97992  11.00488  11.00488  11.08024  11.08024
 Alpha virt. eigenvalues --   11.09649  11.16555  11.16555  11.20667  11.27461
 Alpha virt. eigenvalues --   11.29410  11.29410  11.30925  11.32433  11.32433
 Alpha virt. eigenvalues --   11.33321  11.34463  11.34463  11.36097  11.40076
 Alpha virt. eigenvalues --   11.43976  11.48297  11.48297  11.53455  11.53455
 Alpha virt. eigenvalues --   11.59361  11.59361  11.59964  11.63242  11.64240
 Alpha virt. eigenvalues --   11.64240  11.66786  11.67255  11.67255  11.71726
 Alpha virt. eigenvalues --   11.75120  11.75120  11.77127  11.77127  11.78090
 Alpha virt. eigenvalues --   11.82643  11.82643  11.82652  11.85411  11.90391
 Alpha virt. eigenvalues --   11.90391  11.91903  11.97854  11.97887  11.97887
 Alpha virt. eigenvalues --   12.01025  12.01025  12.04038  12.04038  12.04465
 Alpha virt. eigenvalues --   12.09492  12.09492  12.11062  12.19645  12.33940
 Alpha virt. eigenvalues --   12.33940  12.43834  12.44396  12.44396  12.46604
 Alpha virt. eigenvalues --   12.46604  12.49305  12.49305  12.49349  12.52212
 Alpha virt. eigenvalues --   12.58975  12.61867  12.61867  12.62505  12.64919
 Alpha virt. eigenvalues --   12.68692  12.68692  12.70780  12.77317  12.77317
 Alpha virt. eigenvalues --   12.93365  13.07256  13.07256  13.10630  13.12671
 Alpha virt. eigenvalues --   13.13669  13.13669  13.15663  13.15663  13.34657
 Alpha virt. eigenvalues --   13.36122  13.36689  13.36689  13.42394  13.42394
 Alpha virt. eigenvalues --   13.66220  13.66220  13.67402  13.69110  13.69110
 Alpha virt. eigenvalues --   13.70880  13.73923  13.73923  13.82184  13.83345
 Alpha virt. eigenvalues --   13.83345  13.87239  13.87674  13.87674  13.89013
 Alpha virt. eigenvalues --   13.89013  14.51115  14.57022  14.57022  14.65538
 Alpha virt. eigenvalues --   14.72138  14.72138  14.72794  14.82846  15.93580
 Alpha virt. eigenvalues --   16.01233  16.01233  16.12889  16.12889  16.23857
 Alpha virt. eigenvalues --   16.29573  16.33263  16.33263  16.60185  16.60373
 Alpha virt. eigenvalues --   16.60373  16.61019  16.63209  16.63209  16.67731
 Alpha virt. eigenvalues --   48.57308  48.62916  48.63680  48.63680  48.70462
 Alpha virt. eigenvalues --   48.79284  48.79284  48.90132 251.68596 251.75982
 Alpha virt. eigenvalues --  251.76779 251.76779 251.85951 251.95867 251.95867
 Alpha virt. eigenvalues --  252.11308
          Condensed to atoms (all electrons):
               1          2          3          4          5          6
     1  O    8.032049  -0.062626  -0.001776  -0.001776  -0.000184   0.002026
     2  O   -0.062626   7.838769  -0.062626  -0.062626   0.000708   0.005051
     3  O   -0.001776  -0.062626   8.032049  -0.001776   0.000823   0.002026
     4  O   -0.001776  -0.062626  -0.001776   8.032049  -0.056510   0.002026
     5  O   -0.000184   0.000708   0.000823  -0.056510   8.128438  -0.115954
     6  O    0.002026   0.005051   0.002026   0.002026  -0.115954   9.687534
     7  O    0.000823   0.000708  -0.056510  -0.000184   0.000850  -0.115954
     8  O   -0.056510   0.000708  -0.000184   0.000823   0.000850  -0.115954
     9  H    0.275510   0.001240   0.000052  -0.000497   0.000415  -0.014771
    10  H    0.278284   0.001758   0.000076   0.000478   0.000016  -0.001081
    11  H    0.003497  -0.000062   0.000044  -0.000490  -0.001107  -0.011783
    12  H    0.000076   0.001758   0.000478   0.278284  -0.004752  -0.001081
    13  H    0.000052   0.001240  -0.000497   0.275510   0.142719  -0.014771
    14  H   -0.004483  -0.000853  -0.000327   0.000799   0.012758   0.011151
    15  H    0.207668   0.273942  -0.029629  -0.013899  -0.005682   0.001805
    16  H   -0.029629   0.273942  -0.013899   0.207668  -0.001042   0.001805
    17  H   -0.000490  -0.000062   0.003497   0.000044   0.000039  -0.011783
    18  H   -0.000327  -0.000853   0.000799  -0.004483   0.286016   0.011151
    19  H   -0.013899   0.273942   0.207668  -0.029629   0.002929   0.001805
    20  H    0.000044  -0.000062  -0.000490   0.003497   0.290073  -0.011783
    21  H   -0.000161  -0.001009  -0.000161  -0.000161   0.015435  -0.151939
    22  H    0.000799  -0.000853  -0.004483  -0.000327   0.010283   0.011151
    23  H    0.000478   0.001758   0.278284   0.000076  -0.000126  -0.001081
    24  H   -0.000497   0.001240   0.275510   0.000052   0.000545  -0.014771
               7          8          9         10         11         12
     1  O    0.000823  -0.056510   0.275510   0.278284   0.003497   0.000076
     2  O    0.000708   0.000708   0.001240   0.001758  -0.000062   0.001758
     3  O   -0.056510  -0.000184   0.000052   0.000076   0.000044   0.000478
     4  O   -0.000184   0.000823  -0.000497   0.000478  -0.000490   0.278284
     5  O    0.000850   0.000850   0.000415   0.000016  -0.001107  -0.004752
     6  O   -0.115954  -0.115954  -0.014771  -0.001081  -0.011783  -0.001081
     7  O    8.128438   0.000850   0.000545  -0.000126   0.000039   0.000016
     8  O    0.000850   8.128438   0.142719  -0.004752   0.290073  -0.000126
     9  H    0.000545   0.142719   0.343733   0.000766  -0.017839   0.000023
    10  H   -0.000126  -0.004752   0.000766   0.339469  -0.000436  -0.000001
    11  H    0.000039   0.290073  -0.017839  -0.000436   0.324095  -0.000021
    12  H    0.000016  -0.000126   0.000023  -0.000001  -0.000021   0.339469
    13  H    0.000415   0.000545  -0.000163  -0.000163   0.000029   0.000766
    14  H    0.010283   0.286016   0.001390   0.000788  -0.010923   0.000203
    15  H    0.002929  -0.001042  -0.032273  -0.017467   0.001366  -0.003041
    16  H   -0.005682   0.002929   0.007264   0.007167  -0.001104  -0.017467
    17  H    0.290073  -0.001107   0.000029  -0.000021  -0.000151   0.000003
    18  H    0.012758   0.010283   0.000267   0.000013   0.001529   0.000788
    19  H   -0.001042  -0.005682   0.004163  -0.003041   0.000763   0.007167
    20  H   -0.001107   0.000039  -0.000044   0.000003  -0.000151  -0.000436
    21  H    0.015435   0.015435   0.000575   0.000102   0.000378   0.000102
    22  H    0.286016   0.012758   0.002779   0.000203  -0.000405   0.000013
    23  H   -0.004752   0.000016  -0.000163  -0.000001   0.000003  -0.000001
    24  H    0.142719   0.000415  -0.000163   0.000023  -0.000044  -0.000163
              13         14         15         16         17         18
     1  O    0.000052  -0.004483   0.207668  -0.029629  -0.000490  -0.000327
     2  O    0.001240  -0.000853   0.273942   0.273942  -0.000062  -0.000853
     3  O   -0.000497  -0.000327  -0.029629  -0.013899   0.003497   0.000799
     4  O    0.275510   0.000799  -0.013899   0.207668   0.000044  -0.004483
     5  O    0.142719   0.012758  -0.005682  -0.001042   0.000039   0.286016
     6  O   -0.014771   0.011151   0.001805   0.001805  -0.011783   0.011151
     7  O    0.000415   0.010283   0.002929  -0.005682   0.290073   0.012758
     8  O    0.000545   0.286016  -0.001042   0.002929  -0.001107   0.010283
     9  H   -0.000163   0.001390  -0.032273   0.007264   0.000029   0.000267
    10  H   -0.000163   0.000788  -0.017467   0.007167  -0.000021   0.000013
    11  H    0.000029  -0.010923   0.001366  -0.001104  -0.000151   0.001529
    12  H    0.000766   0.000203  -0.003041  -0.017467   0.000003   0.000788
    13  H    0.343733   0.002779   0.004163  -0.032273  -0.000044   0.001390
    14  H    0.002779   0.368415  -0.000864   0.002860   0.001529  -0.005400
    15  H    0.004163  -0.000864   0.516368  -0.110202  -0.001104  -0.003150
    16  H   -0.032273   0.002860  -0.110202   0.516368   0.000763  -0.000864
    17  H   -0.000044   0.001529  -0.001104   0.000763   0.324095  -0.000405
    18  H    0.001390  -0.005400  -0.003150  -0.000864  -0.000405   0.368415
    19  H    0.007264  -0.003150  -0.110202  -0.110202   0.001366   0.002860
    20  H   -0.017839  -0.000405   0.000763   0.001366  -0.000151  -0.010923
    21  H    0.000575   0.035481  -0.000277  -0.000277   0.000378   0.035481
    22  H    0.000267  -0.005400   0.002860  -0.003150  -0.010923  -0.005400
    23  H    0.000023   0.000013   0.007167  -0.003041  -0.000436   0.000203
    24  H   -0.000163   0.000267   0.007264   0.004163  -0.017839   0.002779
              19         20         21         22         23         24
     1  O   -0.013899   0.000044  -0.000161   0.000799   0.000478  -0.000497
     2  O    0.273942  -0.000062  -0.001009  -0.000853   0.001758   0.001240
     3  O    0.207668  -0.000490  -0.000161  -0.004483   0.278284   0.275510
     4  O   -0.029629   0.003497  -0.000161  -0.000327   0.000076   0.000052
     5  O    0.002929   0.290073   0.015435   0.010283  -0.000126   0.000545
     6  O    0.001805  -0.011783  -0.151939   0.011151  -0.001081  -0.014771
     7  O   -0.001042  -0.001107   0.015435   0.286016  -0.004752   0.142719
     8  O   -0.005682   0.000039   0.015435   0.012758   0.000016   0.000415
     9  H    0.004163  -0.000044   0.000575   0.002779  -0.000163  -0.000163
    10  H   -0.003041   0.000003   0.000102   0.000203  -0.000001   0.000023
    11  H    0.000763  -0.000151   0.000378  -0.000405   0.000003  -0.000044
    12  H    0.007167  -0.000436   0.000102   0.000013  -0.000001  -0.000163
    13  H    0.007264  -0.017839   0.000575   0.000267   0.000023  -0.000163
    14  H   -0.003150  -0.000405   0.035481  -0.005400   0.000013   0.000267
    15  H   -0.110202   0.000763  -0.000277   0.002860   0.007167   0.007264
    16  H   -0.110202   0.001366  -0.000277  -0.003150  -0.003041   0.004163
    17  H    0.001366  -0.000151   0.000378  -0.010923  -0.000436  -0.017839
    18  H    0.002860  -0.010923   0.035481  -0.005400   0.000203   0.002779
    19  H    0.516368  -0.001104  -0.000277  -0.000864  -0.017467  -0.032273
    20  H   -0.001104   0.324095   0.000378   0.001529  -0.000021   0.000029
    21  H   -0.000277   0.000378   0.463007   0.035481   0.000102   0.000575
    22  H   -0.000864   0.001529   0.035481   0.368415   0.000788   0.001390
    23  H   -0.017467  -0.000021   0.000102   0.000788   0.339469   0.000766
    24  H   -0.032273   0.000029   0.000575   0.001390   0.000766   0.343733
 Mulliken charges:
               1
     1  O   -0.628949
     2  O   -0.485132
     3  O   -0.628949
     4  O   -0.628949
     5  O   -0.707541
     6  O   -1.154825
     7  O   -0.707541
     8  O   -0.707541
     9  H    0.284444
    10  H    0.397942
    11  H    0.422698
    12  H    0.397942
    13  H    0.284444
    14  H    0.297073
    15  H    0.302537
    16  H    0.302537
    17  H    0.422698
    18  H    0.297073
    19  H    0.302537
    20  H    0.422698
    21  H    0.535343
    22  H    0.297073
    23  H    0.397942
    24  H    0.284444
 Sum of Mulliken charges =  -0.00000
 Mulliken charges with hydrogens summed into heavy atoms:
               1
     1  O    0.053437
     2  O    0.422480
     3  O    0.053437
     4  O    0.053437
     5  O    0.012230
     6  O   -0.619482
     7  O    0.012230
     8  O    0.012230
 Electronic spatial extent (au):  <R**2>=           1994.9341
 Charge=             -0.0000 electrons
 Dipole moment (field-independent basis, Debye):
    X=             -0.0000    Y=             -0.0000    Z=              3.3619  Tot=              3.3619
 Quadrupole moment (field-independent basis, Debye-Ang):
   XX=            -47.0661   YY=            -47.0661   ZZ=            -49.9396
   XY=             -0.0000   XZ=             -0.0000   YZ=              0.0000
 Traceless Quadrupole moment (field-independent basis, Debye-Ang):
   XX=              0.9578   YY=              0.9578   ZZ=             -1.9156
   XY=             -0.0000   XZ=             -0.0000   YZ=              0.0000
 Octapole moment (field-independent basis, Debye-Ang**2):
  XXX=             18.1586  YYY=             -8.9959  ZZZ=             -2.3255  XYY=            -18.1586
  XXY=              8.9959  XXZ=             24.9434  XZZ=             -0.0000  YZZ=              0.0000
  YYZ=             24.9434  XYZ=              0.0000
 Hexadecapole moment (field-independent basis, Debye-Ang**3):
 XXXX=           -635.3242 YYYY=           -635.3242 ZZZZ=           -732.8407 XXXY=             -0.0000
 XXXZ=             39.7698 YYYX=             -0.0000 YYYZ=             74.8334 ZZZX=              0.0000
 ZZZY=             -0.0000 XXYY=           -211.7747 XXZZ=           -223.9728 YYZZ=           -223.9728
 XXYZ=            -74.8334 YYXZ=            -39.7698 ZZXY=             -0.0000
 N-N= 4.952894875762D+02 E-N=-2.437917975323D+03  KE= 6.094302028835D+02
 PrsmSu:  requested number of processors reduced to:  18 ShMem   1 Linda.
 No NMR shielding tensors so no spin-rotation constants.
 Leave Link  601 at Sun Apr 18 02:42:01 2021, MaxMem=   104857600 cpu:            1011.8 elap:              22.1
 (Enter /s/ls4/users/knvvv/bin/g16sse/l9999.exe)

 Test job not archived.
 1\1\GINC-N305\Stability\RM062X\Gen\H16O8\KNVVV\18-Apr-2021\0\\#P M062X
 /GEN Integral=UltraFineGrid SCF=NoSymm Stable=(RExt, Opt) IOp(1/33=1)\
 \Database calculations.\\0,1\O,0,-1.2924523235,1.9431422982,1.22264972
 19\O,0,0.,0.,2.1910180562\O,0,2.3290367552,0.1477253962,1.2226497219\O
 ,0,-1.0365844317,-2.0908676945,1.2226497219\O,0,-0.1173737998,-2.36663
 96206,-1.1811465625\O,0,0.,0.,-2.1281500021\O,0,2.108256933,1.08167111
 79,-1.1811465625\O,0,-1.9908831332,1.2849685027,-1.1811465625\H,0,-1.6
 121332079,1.710804092,0.2902261256\H,0,-2.0329920611,2.3268088497,1.69
 77144703\H,0,-2.7471836531,0.6969876209,-1.2446979079\H,0,-0.998579543
 ,-2.9240271955,1.6977144703\H,0,-0.6755332007,-2.2515503583,0.29022612
 56\H,0,-1.2036467944,0.7746315204,-1.6090999902\H,0,-0.5575433437,0.79
 06310028,1.8329415765\H,0,-0.4059348616,-0.8781622008,1.8329415765\H,0
 ,1.9772008123,2.030637022,-1.2446979079\H,0,-0.0690271781,-1.429704461
 3,-1.6090999902\H,0,0.9634782053,0.087531198,1.8329415765\H,0,0.769982
 8407,-2.7276246428,-1.2446979079\H,0,0.,0.,-3.0886303552\H,0,1.2726739
 724,0.6550729409,-1.6090999902\H,0,3.0315716042,0.5972183458,1.6977144
 703\H,0,2.2876664085,0.5407462663,0.2902261256\\Version=ES64L-G16RevA.
 03\State=1-A\HF=-611.5716006\RMSD=1.637e-09\Dipole=0.,0.,1.3226873\Qua
 drupole=0.7121164,0.7121164,-1.4242328,0.,0.,0.\PG=C03 [C3(H1O1O1),X(H
 15O6)]\\@


 A MAN IS NEVER SO BRILLIANT AS WHEN HE TAKES THE WORDS RIGHT OUT
 OF YOUR MOUTH. -- ARNOT SHEPPARD, JR.
 Job cpu time:       4 days 20 hours 10 minutes 56.1 seconds.
 Elapsed time:       0 days  5 hours 12 minutes 46.9 seconds.
 File lengths (MBytes):  RWF=   1985 Int=      0 D2E=      0 Chk=    125 Scr=      1
 Normal termination of Gaussian 16 at Sun Apr 18 02:42:02 2021.
