 Entering Gaussian System, Link 0=/s/ls4/users/knvvv/bin/g16sse/g16
 Input=data/database/M062X--MG3S--22_c2_MR-MGN-BE17.gjf
 Output=data/database/M062X--MG3S--22_c2_MR-MGN-BE17.log
 Initial command:
 /s/ls4/users/knvvv/bin/g16sse/l1.exe "/s/ls4/users/knvvv/bin/scratch/Gau-19303.inp" -scrdir="/s/ls4/users/knvvv/bin/scratch/"
 Entering Link 1 = /s/ls4/users/knvvv/bin/g16sse/l1.exe PID=     19304.
  
 Copyright (c) 1988,1990,1992,1993,1995,1998,2003,2009,2016,
            Gaussian, Inc.  All Rights Reserved.
  
 This is part of the Gaussian(R) 16 program.  It is based on
 the Gaussian(R) 09 system (copyright 2009, Gaussian, Inc.),
 the Gaussian(R) 03 system (copyright 2003, Gaussian, Inc.),
 the Gaussian(R) 98 system (copyright 1998, Gaussian, Inc.),
 the Gaussian(R) 94 system (copyright 1995, Gaussian, Inc.),
 the Gaussian 92(TM) system (copyright 1992, Gaussian, Inc.),
 the Gaussian 90(TM) system (copyright 1990, Gaussian, Inc.),
 the Gaussian 88(TM) system (copyright 1988, Gaussian, Inc.),
 the Gaussian 86(TM) system (copyright 1986, Carnegie Mellon
 University), and the Gaussian 82(TM) system (copyright 1983,
 Carnegie Mellon University). Gaussian is a federally registered
 trademark of Gaussian, Inc.
  
 This software contains proprietary and confidential information,
 including trade secrets, belonging to Gaussian, Inc.
  
 This software is provided under written license and may be
 used, copied, transmitted, or stored only in accord with that
 written license.
  
 The following legend is applicable only to US Government
 contracts under FAR:
  
                    RESTRICTED RIGHTS LEGEND
  
 Use, reproduction and disclosure by the US Government is
 subject to restrictions as set forth in subparagraphs (a)
 and (c) of the Commercial Computer Software - Restricted
 Rights clause in FAR 52.227-19.
  
 Gaussian, Inc.
 340 Quinnipiac St., Bldg. 40, Wallingford CT 06492
  
  
 ---------------------------------------------------------------
 Warning -- This program may not be used in any manner that
 competes with the business of Gaussian, Inc. or will provide
 assistance to any competitor of Gaussian, Inc.  The licensee
 of this program is prohibited from giving any competitor of
 Gaussian, Inc. access to this program.  By using this program,
 the user acknowledges that Gaussian, Inc. is engaged in the
 business of creating and licensing software in the field of
 computational chemistry and represents and warrants to the
 licensee that it is not a competitor of Gaussian, Inc. and that
 it will not use this program in any manner prohibited above.
 ---------------------------------------------------------------
  

 Cite this work as:
 Gaussian 16, Revision A.03,
 M. J. Frisch, G. W. Trucks, H. B. Schlegel, G. E. Scuseria, 
 M. A. Robb, J. R. Cheeseman, G. Scalmani, V. Barone, 
 G. A. Petersson, H. Nakatsuji, X. Li, M. Caricato, A. V. Marenich, 
 J. Bloino, B. G. Janesko, R. Gomperts, B. Mennucci, H. P. Hratchian, 
 J. V. Ortiz, A. F. Izmaylov, J. L. Sonnenberg, D. Williams-Young, 
 F. Ding, F. Lipparini, F. Egidi, J. Goings, B. Peng, A. Petrone, 
 T. Henderson, D. Ranasinghe, V. G. Zakrzewski, J. Gao, N. Rega, 
 G. Zheng, W. Liang, M. Hada, M. Ehara, K. Toyota, R. Fukuda, 
 J. Hasegawa, M. Ishida, T. Nakajima, Y. Honda, O. Kitao, H. Nakai, 
 T. Vreven, K. Throssell, J. A. Montgomery, Jr., J. E. Peralta, 
 F. Ogliaro, M. J. Bearpark, J. J. Heyd, E. N. Brothers, K. N. Kudin, 
 V. N. Staroverov, T. A. Keith, R. Kobayashi, J. Normand, 
 K. Raghavachari, A. P. Rendell, J. C. Burant, S. S. Iyengar, 
 J. Tomasi, M. Cossi, J. M. Millam, M. Klene, C. Adamo, R. Cammi, 
 J. W. Ochterski, R. L. Martin, K. Morokuma, O. Farkas, 
 J. B. Foresman, and D. J. Fox, Gaussian, Inc., Wallingford CT, 2016.
 
 ******************************************
 Gaussian 16:  ES64L-G16RevA.03 25-Dec-2016
                18-Apr-2021 
 ******************************************
 %RWF=temp12_38698,70GB
 %nprocshared=48
 Will use up to   48 processors via shared memory.
 Default route: MaxDisk=80GB
 ----------------------------------------------------------------------
 #P M062X/GEN Integral=UltraFineGrid SCF=NoSymm Stable=(RExt, Opt) IOp(
 1/33=1)
 ----------------------------------------------------------------------
 1/33=1,38=1,172=1/1;
 2/12=2,17=6,18=5,40=1/2;
 3/5=7,11=2,25=1,30=1,74=-55,75=-5/1,2,3;
 4/9=2/1;
 5/5=2,38=5/2;
 6/7=2,8=2,9=2,10=2,28=1/1;
 8/6=1,10=90,11=11/1;
 9/8=-3,42=1,46=1/14;
 5/5=2,8=3,17=40,38=5/8(-2);
 6/7=2,8=2,9=2,10=2,28=1/1;
 99/5=1,9=1/99;
 Leave Link    1 at Sun Apr 18 09:53:19 2021, MaxMem=           0 cpu:              11.7 elap:               0.3
 (Enter /s/ls4/users/knvvv/bin/g16sse/l101.exe)
 ONIOM data not found on unit 2.
 ----------------------
 Database calculations.
 ----------------------
 TstMul:  ICh=     0
 TstMul:  Mul=     1
 TstMul:  ICh=     0
 TstMul:  Mul=     1
 Symbolic Z-matrix:
 Charge =  0 Multiplicity = 1
 C                     0.        0.       -0.62 
 C                     0.        0.        0.62 
 
 RdStrC is calling ZToCFu for IStruc=1 NZ=     2.
 PrtBox:  NBox=     1 Levels=  1 BoxLen=    8.00 SMaxX=        2.34
          Shift=            0.000000            0.000000            1.171630
 Box      1 Number                   0 centers from      1 to      2:
 After GenITR:
 ITRead=  0  0
 MicOpt= -1 -1
 ITRead=  0  0
 MicOpt= -1 -1
 NAtoms=      2 NQM=        2 NQMF=       0 NMMI=      0 NMMIF=      0
                NMic=       0 NMicF=      0.
                    Isotopes and Nuclear Properties:
 (Nuclear quadrupole moments (NQMom) in fm**2, nuclear magnetic moments (NMagM)
  in nuclear magnetons)

  Atom         1           2
 IAtWgt=          12          12
 AtmWgt=  12.0000000  12.0000000
 NucSpn=           0           0
 AtZEff=  -0.0000000  -0.0000000
 NQMom=    0.0000000   0.0000000
 NMagM=    0.0000000   0.0000000
 AtZNuc=   6.0000000   6.0000000
 No MM parameters found.
 Leave Link  101 at Sun Apr 18 09:53:20 2021, MaxMem=   104857600 cpu:               5.4 elap:               0.1
 (Enter /s/ls4/users/knvvv/bin/g16sse/l202.exe)
                          Input orientation:                          
 ---------------------------------------------------------------------
 Center     Atomic      Atomic             Coordinates (Angstroms)
 Number     Number       Type             X           Y           Z
 ---------------------------------------------------------------------
      1          6           0        0.000000    0.000000   -0.620000
      2          6           0        0.000000    0.000000    0.620000
 ---------------------------------------------------------------------
 Stoichiometry    C2
 Framework group  D*H[C*(C.C)]
 Deg. of freedom     1
 Full point group                 D*H     NOp   8
 Largest Abelian subgroup         D2H     NOp   8
 Largest concise Abelian subgroup C2      NOp   2
                         Standard orientation:                         
 ---------------------------------------------------------------------
 Center     Atomic      Atomic             Coordinates (Angstroms)
 Number     Number       Type             X           Y           Z
 ---------------------------------------------------------------------
      1          6           0        0.000000    0.000000    0.620000
      2          6           0        0.000000    0.000000   -0.620000
 ---------------------------------------------------------------------
 Rotational constants (GHZ):           0.0000000          54.7800695          54.7800695
 Leave Link  202 at Sun Apr 18 09:53:20 2021, MaxMem=   104857600 cpu:              10.5 elap:               0.2
 (Enter /s/ls4/users/knvvv/bin/g16sse/l301.exe)
 General basis read from cards:  (5D, 7F)
 Centers:       1      2
 S 6 1.00
     Exponent=  4.5632400000D+03 Coefficients=  1.9666500000D-03
     Exponent=  6.8202400000D+02 Coefficients=  1.5230600000D-02
     Exponent=  1.5497300000D+02 Coefficients=  7.6126900000D-02
     Exponent=  4.4455300000D+01 Coefficients=  2.6080100000D-01
     Exponent=  1.3029000000D+01 Coefficients=  6.1646200000D-01
     Exponent=  1.8277300000D+00 Coefficients=  2.2100600000D-01
 S 3 1.00
     Exponent=  2.0964200000D+01 Coefficients=  1.1466000000D-01
     Exponent=  4.8033100000D+00 Coefficients=  9.1999900000D-01
     Exponent=  1.4593300000D+00 Coefficients= -3.0306800000D-03
 S 1 1.00
     Exponent=  4.8345600000D-01 Coefficients=  1.0000000000D+00
 S 1 1.00
     Exponent=  1.4558500000D-01 Coefficients=  1.0000000000D+00
 S 1 1.00
     Exponent=  4.3800000000D-02 Coefficients=  1.0000000000D+00
 P 3 1.00
     Exponent=  2.0964200000D+01 Coefficients=  4.0248700000D-02
     Exponent=  4.8033100000D+00 Coefficients=  2.3759400000D-01
     Exponent=  1.4593300000D+00 Coefficients=  8.1585400000D-01
 P 1 1.00
     Exponent=  4.8345600000D-01 Coefficients=  1.0000000000D+00
 P 1 1.00
     Exponent=  1.4558500000D-01 Coefficients=  1.0000000000D+00
 P 1 1.00
     Exponent=  4.3800000000D-02 Coefficients=  1.0000000000D+00
 D 1 1.00
     Exponent=  1.2520000000D+00 Coefficients=  1.0000000000D+00
 D 1 1.00
     Exponent=  3.1300000000D-01 Coefficients=  1.0000000000D+00
 F 1 1.00
     Exponent=  8.0000000000D-01 Coefficients=  1.0000000000D+00
 ****
 Ernie: Thresh=  0.10000D-02 Tol=  0.10000D-05 Strict=F.
 There are    18 symmetry adapted cartesian basis functions of AG  symmetry.
 There are     3 symmetry adapted cartesian basis functions of B1G symmetry.
 There are     9 symmetry adapted cartesian basis functions of B2G symmetry.
 There are     9 symmetry adapted cartesian basis functions of B3G symmetry.
 There are     3 symmetry adapted cartesian basis functions of AU  symmetry.
 There are    18 symmetry adapted cartesian basis functions of B1U symmetry.
 There are     9 symmetry adapted cartesian basis functions of B2U symmetry.
 There are     9 symmetry adapted cartesian basis functions of B3U symmetry.
 There are    15 symmetry adapted basis functions of AG  symmetry.
 There are     3 symmetry adapted basis functions of B1G symmetry.
 There are     8 symmetry adapted basis functions of B2G symmetry.
 There are     8 symmetry adapted basis functions of B3G symmetry.
 There are     3 symmetry adapted basis functions of AU  symmetry.
 There are    15 symmetry adapted basis functions of B1U symmetry.
 There are     8 symmetry adapted basis functions of B2U symmetry.
 There are     8 symmetry adapted basis functions of B3U symmetry.
    68 basis functions,   104 primitive gaussians,    78 cartesian basis functions
     6 alpha electrons        6 beta electrons
       nuclear repulsion energy        15.3632093493 Hartrees.
 IExCor= 4336 DFT=T Ex+Corr=M062X ExCW=0 ScaHFX=  0.540000
 ScaDFX=  1.000000  1.000000  1.000000  1.000000 ScalE2=  1.000000  1.000000
 IRadAn=      5 IRanWt=     -1 IRanGd=            0 ICorTp=0 IEmpDi=  4
 NAtoms=    2 NActive=    2 NUniq=    1 SFac= 4.00D+00 NAtFMM=   60 NAOKFM=F Big=F
 Integral buffers will be    131072 words long.
 Raffenetti 2 integral format.
 Two-electron integral symmetry is turned on.
 Leave Link  301 at Sun Apr 18 09:53:20 2021, MaxMem=   104857600 cpu:               6.2 elap:               0.2
 (Enter /s/ls4/users/knvvv/bin/g16sse/l302.exe)
 NPDir=0 NMtPBC=     1 NCelOv=     1 NCel=       1 NClECP=     1 NCelD=      1
         NCelK=      1 NCelE2=     1 NClLst=     1 CellRange=     0.0.
 One-electron integrals computed using PRISM.
 One-electron integral symmetry used in STVInt
 PrsmSu:  requested number of processors reduced to:  13 ShMem   1 Linda.
 NBasis=    68 RedAO= T EigKep=  1.43D-04  NBF=    15     3     8     8     3    15     8     8
 NBsUse=    68 1.00D-06 EigRej= -1.00D+00 NBFU=    15     3     8     8     3    15     8     8
 Precomputing XC quadrature grid using
 IXCGrd= 4 IRadAn=           5 IRanWt=          -1 IRanGd=           0 AccXCQ= 0.00D+00.
 Generated NRdTot=       0 NPtTot=           0 NUsed=           0 NTot=          32
 NSgBfM=    78    78    78    78    78 MxSgAt=     2 MxSgA2=     2.
 Leave Link  302 at Sun Apr 18 09:53:22 2021, MaxMem=   104857600 cpu:              87.7 elap:               1.9
 (Enter /s/ls4/users/knvvv/bin/g16sse/l303.exe)
 DipDrv:  MaxL=1.
 Leave Link  303 at Sun Apr 18 09:53:22 2021, MaxMem=   104857600 cpu:              10.8 elap:               0.3
 (Enter /s/ls4/users/knvvv/bin/g16sse/l401.exe)
 SCF N**3 symmetry information disabled.
 ExpMin= 4.38D-02 ExpMax= 4.56D+03 ExpMxC= 6.82D+02 IAcc=3 IRadAn=         5 AccDes= 0.00D+00
 Harris functional with IExCor= 1009 and IRadAn=       5 diagonalized for initial guess.
 HarFok:  IExCor= 1009 AccDes= 0.00D+00 IRadAn=         5 IDoV= 1 UseB2=F ITyADJ=14
 ICtDFT=  3500011 ScaDFX=  1.000000  1.000000  1.000000  1.000000
 FoFCou: FMM=F IPFlag=           0 FMFlag=      100000 FMFlg1=           0
         NFxFlg=           0 DoJE=T BraDBF=F KetDBF=T FulRan=T
         wScrn=  0.000000 ICntrl=       500 IOpCl=  0 I1Cent=   200000004 NGrid=           0
         NMat0=    1 NMatS0=      1 NMatT0=    0 NMatD0=    1 NMtDS0=    0 NMtDT0=    0
 Petite list used in FoFCou.
 Harris En= -75.8415922202354    
 JPrj=0 DoOrth=F DoCkMO=F.
 Initial guess orbital symmetries:
       Occupied  (SGG) (SGU) (SGG) (SGU) (PIU) (PIU)
       Virtual   (SGG) (PIG) (PIG) (SGG) (SGU) (PIU) (PIU) (SGG)
                 (PIG) (PIG) (SGU) (SGU) (SGG) (PIU) (PIU) (DLTG)
                 (DLTG) (PIG) (PIG) (SGG) (SGU) (PIU) (PIU) (SGU)
                 (DLTU) (DLTU) (PIG) (PIG) (SGG) (SGU) (SGG) (DLTG)
                 (DLTG) (PIU) (PIU) (PHIU) (PHIU) (PIU) (PIU) (PIG)
                 (PIG) (PHIG) (PHIG) (SGG) (SGU) (DLTG) (DLTG)
                 (PIG) (PIG) (DLTU) (DLTU) (SGU) (DLTU) (DLTU)
                 (PIU) (PIU) (SGG) (PIG) (PIG) (SGU) (SGG) (SGU)
 The electronic state of the initial guess is 1-SGG.
 Leave Link  401 at Sun Apr 18 09:53:24 2021, MaxMem=   104857600 cpu:              78.5 elap:               1.7
 (Enter /s/ls4/users/knvvv/bin/g16sse/l502.exe)
 Keep R1 ints in memory in symmetry-blocked form, NReq=46017011.
 FoFCou: FMM=F IPFlag=           0 FMFlag=           0 FMFlg1=           0
         NFxFlg=           0 DoJE=F BraDBF=F KetDBF=F FulRan=T
         wScrn=  0.000000 ICntrl=       600 IOpCl=  0 I1Cent=           0 NGrid=           0
         NMat0=    1 NMatS0=   2346 NMatT0=    0 NMatD0=    1 NMtDS0=    0 NMtDT0=    0
 Petite list used in FoFCou.
 Closed shell SCF:
 Using DIIS extrapolation, IDIIS=  1040.
 NGot=   104857600 LenX=   104472769 LenY=   104466244
 Requested convergence on RMS density matrix=1.00D-08 within 128 cycles.
 Requested convergence on MAX density matrix=1.00D-06.
 Requested convergence on             energy=1.00D-06.
 No special actions if energy rises.

 Cycle   1  Pass 1  IDiag  1:
 E= -75.8297642907228    
 DIIS: error= 4.66D-02 at cycle   1 NSaved=   1.
 NSaved= 1 IEnMin= 1 EnMin= -75.8297642907228     IErMin= 1 ErrMin= 4.66D-02
 ErrMax= 4.66D-02  0.00D+00 EMaxC= 1.00D-01 BMatC= 3.99D-02 BMatP= 3.99D-02
 IDIUse=3 WtCom= 5.34D-01 WtEn= 4.66D-01
 Coeff-Com:  0.100D+01
 Coeff-En:   0.100D+01
 Coeff:      0.100D+01
 Gap=     0.141 Goal=   None    Shift=    0.000
 GapD=    0.141 DampG=1.000 DampE=0.500 DampFc=0.5000 IDamp=-1.
 Damping current iteration by 5.00D-01
 RMSDP=5.36D-03 MaxDP=9.60D-02              OVMax= 1.47D-01

 Cycle   2  Pass 1  IDiag  1:
 E= -75.8506782593628     Delta-E=       -0.020913968640 Rises=F Damp=T
 DIIS: error= 1.37D-02 at cycle   2 NSaved=   2.
 NSaved= 2 IEnMin= 2 EnMin= -75.8506782593628     IErMin= 2 ErrMin= 1.37D-02
 ErrMax= 1.37D-02  0.00D+00 EMaxC= 1.00D-01 BMatC= 3.52D-03 BMatP= 3.99D-02
 IDIUse=3 WtCom= 8.63D-01 WtEn= 1.37D-01
 Coeff-Com: -0.281D+00 0.128D+01
 Coeff-En:   0.000D+00 0.100D+01
 Coeff:     -0.242D+00 0.124D+01
 Gap=     0.167 Goal=   None    Shift=    0.000
 RMSDP=1.13D-03 MaxDP=2.05D-02 DE=-2.09D-02 OVMax= 3.66D-02

 Cycle   3  Pass 1  IDiag  1:
 E= -75.8690609781209     Delta-E=       -0.018382718758 Rises=F Damp=F
 DIIS: error= 1.57D-03 at cycle   3 NSaved=   3.
 NSaved= 3 IEnMin= 3 EnMin= -75.8690609781209     IErMin= 3 ErrMin= 1.57D-03
 ErrMax= 1.57D-03  0.00D+00 EMaxC= 1.00D-01 BMatC= 6.47D-05 BMatP= 3.52D-03
 IDIUse=3 WtCom= 9.84D-01 WtEn= 1.57D-02
 Coeff-Com:  0.102D-01-0.282D-01 0.102D+01
 Coeff-En:   0.000D+00 0.000D+00 0.100D+01
 Coeff:      0.100D-01-0.278D-01 0.102D+01
 Gap=     0.171 Goal=   None    Shift=    0.000
 RMSDP=3.01D-04 MaxDP=4.99D-03 DE=-1.84D-02 OVMax= 7.07D-03

 Cycle   4  Pass 1  IDiag  1:
 E= -75.8691636629610     Delta-E=       -0.000102684840 Rises=F Damp=F
 DIIS: error= 5.49D-04 at cycle   4 NSaved=   4.
 NSaved= 4 IEnMin= 4 EnMin= -75.8691636629610     IErMin= 4 ErrMin= 5.49D-04
 ErrMax= 5.49D-04  0.00D+00 EMaxC= 1.00D-01 BMatC= 8.69D-06 BMatP= 6.47D-05
 IDIUse=3 WtCom= 9.95D-01 WtEn= 5.49D-03
 Coeff-Com:  0.264D-01-0.638D-01-0.478D-01 0.109D+01
 Coeff-En:   0.000D+00 0.000D+00 0.000D+00 0.100D+01
 Coeff:      0.263D-01-0.634D-01-0.476D-01 0.108D+01
 Gap=     0.172 Goal=   None    Shift=    0.000
 RMSDP=6.56D-05 MaxDP=1.34D-03 DE=-1.03D-04 OVMax= 1.51D-03

 Cycle   5  Pass 1  IDiag  1:
 E= -75.8691745527234     Delta-E=       -0.000010889762 Rises=F Damp=F
 DIIS: error= 6.90D-05 at cycle   5 NSaved=   5.
 NSaved= 5 IEnMin= 5 EnMin= -75.8691745527234     IErMin= 5 ErrMin= 6.90D-05
 ErrMax= 6.90D-05  0.00D+00 EMaxC= 1.00D-01 BMatC= 1.59D-07 BMatP= 8.69D-06
 IDIUse=1 WtCom= 1.00D+00 WtEn= 0.00D+00
 Coeff-Com:  0.289D-02-0.574D-02-0.351D-01 0.359D-01 0.100D+01
 Coeff:      0.289D-02-0.574D-02-0.351D-01 0.359D-01 0.100D+01
 Gap=     0.172 Goal=   None    Shift=    0.000
 RMSDP=1.05D-05 MaxDP=2.32D-04 DE=-1.09D-05 OVMax= 2.25D-04

 Cycle   6  Pass 1  IDiag  1:
 E= -75.8691747233209     Delta-E=       -0.000000170598 Rises=F Damp=F
 DIIS: error= 2.80D-06 at cycle   6 NSaved=   6.
 NSaved= 6 IEnMin= 6 EnMin= -75.8691747233209     IErMin= 6 ErrMin= 2.80D-06
 ErrMax= 2.80D-06  0.00D+00 EMaxC= 1.00D-01 BMatC= 1.96D-10 BMatP= 1.59D-07
 IDIUse=1 WtCom= 1.00D+00 WtEn= 0.00D+00
 Coeff-Com: -0.137D-03 0.274D-03 0.175D-02-0.710D-02-0.338D-01 0.104D+01
 Coeff:     -0.137D-03 0.274D-03 0.175D-02-0.710D-02-0.338D-01 0.104D+01
 Gap=     0.172 Goal=   None    Shift=    0.000
 RMSDP=1.12D-06 MaxDP=1.78D-05 DE=-1.71D-07 OVMax= 8.23D-06

 Cycle   7  Pass 1  IDiag  1:
 E= -75.8691747236279     Delta-E=       -0.000000000307 Rises=F Damp=F
 DIIS: error= 2.29D-07 at cycle   7 NSaved=   7.
 NSaved= 7 IEnMin= 7 EnMin= -75.8691747236279     IErMin= 7 ErrMin= 2.29D-07
 ErrMax= 2.29D-07  0.00D+00 EMaxC= 1.00D-01 BMatC= 1.10D-12 BMatP= 1.96D-10
 IDIUse=1 WtCom= 1.00D+00 WtEn= 0.00D+00
 Coeff-Com: -0.173D-04 0.316D-04 0.151D-03 0.208D-03-0.606D-02-0.607D-01
 Coeff-Com:  0.107D+01
 Coeff:     -0.173D-04 0.316D-04 0.151D-03 0.208D-03-0.606D-02-0.607D-01
 Coeff:      0.107D+01
 Gap=     0.172 Goal=   None    Shift=    0.000
 RMSDP=2.15D-07 MaxDP=3.51D-06 DE=-3.07D-10 OVMax= 8.14D-07

 Cycle   8  Pass 1  IDiag  1:
 E= -75.8691747236303     Delta-E=       -0.000000000002 Rises=F Damp=F
 DIIS: error= 2.59D-08 at cycle   8 NSaved=   8.
 NSaved= 8 IEnMin= 8 EnMin= -75.8691747236303     IErMin= 8 ErrMin= 2.59D-08
 ErrMax= 2.59D-08  0.00D+00 EMaxC= 1.00D-01 BMatC= 1.55D-14 BMatP= 1.10D-12
 IDIUse=1 WtCom= 1.00D+00 WtEn= 0.00D+00
 Coeff-Com:  0.136D-05-0.240D-05-0.112D-04-0.111D-04 0.510D-03 0.657D-02
 Coeff-Com: -0.169D+00 0.116D+01
 Coeff:      0.136D-05-0.240D-05-0.112D-04-0.111D-04 0.510D-03 0.657D-02
 Coeff:     -0.169D+00 0.116D+01
 Gap=     0.172 Goal=   None    Shift=    0.000
 RMSDP=3.65D-08 MaxDP=5.48D-07 DE=-2.42D-12 OVMax= 1.36D-07

 Cycle   9  Pass 1  IDiag  1:
 E= -75.8691747236305     Delta-E=       -0.000000000000 Rises=F Damp=F
 DIIS: error= 1.45D-09 at cycle   9 NSaved=   9.
 NSaved= 9 IEnMin= 9 EnMin= -75.8691747236305     IErMin= 9 ErrMin= 1.45D-09
 ErrMax= 1.45D-09  0.00D+00 EMaxC= 1.00D-01 BMatC= 5.59D-17 BMatP= 1.55D-14
 IDIUse=1 WtCom= 1.00D+00 WtEn= 0.00D+00
 Coeff-Com: -0.106D-06 0.181D-06 0.561D-06 0.608D-06-0.346D-04-0.517D-03
 Coeff-Com:  0.126D-01-0.127D+00 0.112D+01
 Coeff:     -0.106D-06 0.181D-06 0.561D-06 0.608D-06-0.346D-04-0.517D-03
 Coeff:      0.126D-01-0.127D+00 0.112D+01
 Gap=     0.172 Goal=   None    Shift=    0.000
 RMSDP=2.57D-09 MaxDP=5.36D-08 DE=-1.56D-13 OVMax= 1.03D-08

 SCF Done:  E(RM062X) =  -75.8691747236     A.U. after    9 cycles
            NFock=  9  Conv=0.26D-08     -V/T= 2.0032
 KE= 7.562418447787D+01 PE=-2.070022262672D+02 EE= 4.014565771637D+01
 Leave Link  502 at Sun Apr 18 09:53:41 2021, MaxMem=   104857600 cpu:             817.1 elap:              17.4
 (Enter /s/ls4/users/knvvv/bin/g16sse/l601.exe)
 Copying SCF densities to generalized density rwf, IOpCl= 0 IROHF=0.

 **********************************************************************

            Population analysis using the SCF density.

 **********************************************************************

 Orbital symmetries:
       Occupied  (SGG) (SGU) (SGG) (SGU) (PIU) (PIU)
       Virtual   (SGG) (PIG) (PIG) (SGU) (SGG) (PIU) (PIU) (SGG)
                 (PIG) (PIG) (SGU) (SGU) (SGG) (PIU) (PIU) (DLTG)
                 (DLTG) (PIG) (PIG) (SGG) (SGU) (PIU) (PIU) (SGU)
                 (DLTU) (DLTU) (PIG) (PIG) (SGG) (SGU) (SGG) (DLTG)
                 (DLTG) (PHIU) (PHIU) (PIU) (PIU) (PIU) (PIU) (PIG)
                 (PIG) (PHIG) (PHIG) (SGG) (SGU) (PIG) (PIG) (DLTG)
                 (DLTG) (DLTU) (DLTU) (SGU) (DLTU) (DLTU) (PIU)
                 (PIU) (SGG) (PIG) (PIG) (SGU) (SGG) (SGU)
 The electronic state is 1-SGG.
 Alpha  occ. eigenvalues --  -10.65538 -10.65362  -0.89049  -0.46017  -0.39120
 Alpha  occ. eigenvalues --   -0.39120
 Alpha virt. eigenvalues --   -0.21922   0.03545   0.03545   0.04711   0.05182
 Alpha virt. eigenvalues --    0.07185   0.07185   0.10776   0.13304   0.13304
 Alpha virt. eigenvalues --    0.18339   0.38281   0.49474   0.53259   0.53259
 Alpha virt. eigenvalues --    0.60378   0.60378   0.61893   0.61893   0.64276
 Alpha virt. eigenvalues --    0.70683   0.81312   0.81312   0.87601   0.90186
 Alpha virt. eigenvalues --    0.90186   1.23024   1.23024   1.27523   1.49427
 Alpha virt. eigenvalues --    2.44699   2.54609   2.54609   2.63035   2.63035
 Alpha virt. eigenvalues --    2.65132   2.65132   2.68872   2.68872   2.77870
 Alpha virt. eigenvalues --    2.77870   2.99800   2.99800   3.04969   3.15251
 Alpha virt. eigenvalues --    3.19268   3.19268   3.20800   3.20801   3.26396
 Alpha virt. eigenvalues --    3.26396   3.41902   3.62856   3.62857   3.64484
 Alpha virt. eigenvalues --    3.64484   4.39749   4.79968   4.79968   4.92130
 Alpha virt. eigenvalues --   23.25228  24.88855
          Condensed to atoms (all electrons):
               1          2
     1  C    5.051030   0.948970
     2  C    0.948970   5.051030
 Mulliken charges:
               1
     1  C   -0.000000
     2  C   -0.000000
 Sum of Mulliken charges =  -0.00000
 Mulliken charges with hydrogens summed into heavy atoms:
               1
     1  C   -0.000000
     2  C   -0.000000
 Electronic spatial extent (au):  <R**2>=             41.5542
 Charge=             -0.0000 electrons
 Dipole moment (field-independent basis, Debye):
    X=             -0.0000    Y=              0.0000    Z=              0.0000  Tot=              0.0000
 Quadrupole moment (field-independent basis, Debye-Ang):
   XX=            -12.3795   YY=            -12.3795   ZZ=             -8.9766
   XY=             -0.0000   XZ=             -0.0000   YZ=              0.0000
 Traceless Quadrupole moment (field-independent basis, Debye-Ang):
   XX=             -1.1343   YY=             -1.1343   ZZ=              2.2686
   XY=             -0.0000   XZ=             -0.0000   YZ=              0.0000
 Octapole moment (field-independent basis, Debye-Ang**2):
  XXX=             -0.0000  YYY=             -0.0000  ZZZ=              0.0000  XYY=             -0.0000
  XXY=             -0.0000  XXZ=             -0.0000  XZZ=             -0.0000  YZZ=             -0.0000
  YYZ=             -0.0000  XYZ=              0.0000
 Hexadecapole moment (field-independent basis, Debye-Ang**3):
 XXXX=            -15.1301 YYYY=            -15.1301 ZZZZ=            -34.0782 XXXY=             -0.0000
 XXXZ=              0.0000 YYYX=             -0.0000 YYYZ=              0.0000 ZZZX=              0.0000
 ZZZY=              0.0000 XXYY=             -5.0434 XXZZ=             -8.6250 YYZZ=             -8.6250
 XXYZ=              0.0000 YYXZ=              0.0000 ZZXY=             -0.0000
 N-N= 1.536320934929D+01 E-N=-2.070022262457D+02  KE= 7.562418447787D+01
 No NMR shielding tensors so no spin-rotation constants.
 Leave Link  601 at Sun Apr 18 09:53:43 2021, MaxMem=   104857600 cpu:              55.1 elap:               1.2
 (Enter /s/ls4/users/knvvv/bin/g16sse/l801.exe)
 DoSCS=F DFT=T ScalE2(SS,OS)=  1.000000  1.000000
 Range of M.O.s used for correlation:     1    68
 NBasis=    68 NAE=     6 NBE=     6 NFC=     0 NFV=     0
 NROrb=     68 NOA=     6 NOB=     6 NVA=    62 NVB=    62

 **** Warning!!: The largest alpha MO coefficient is  0.47177657D+02

 Leave Link  801 at Sun Apr 18 09:53:43 2021, MaxMem=   104857600 cpu:               3.2 elap:               0.1
 (Enter /s/ls4/users/knvvv/bin/g16sse/l914.exe)
 RHF ground state
 Doing stability rather than CIS.
 Two-electron integrals replicated using symmetry.
 MDV=   104857600 DFT=T DoStab=T Mixed=T DoRPA=F DoScal=F NonHer=F
 Making orbital integer symmetry assigments:
 Orbital symmetries:
       Occupied  (SGG) (SGU) (SGG) (SGU) (PIU) (PIU)
       Virtual   (SGG) (PIG) (PIG) (SGU) (SGG) (PIU) (PIU) (SGG)
                 (PIG) (PIG) (SGU) (SGU) (SGG) (PIU) (PIU) (DLTG)
                 (DLTG) (PIG) (PIG) (SGG) (SGU) (PIU) (PIU) (SGU)
                 (DLTU) (DLTU) (PIG) (PIG) (SGG) (SGU) (SGG) (DLTG)
                 (DLTG) (PHIU) (PHIU) (PIU) (PIU) (PIU) (PIU) (PIG)
                 (PIG) (PHIG) (PHIG) (SGG) (SGU) (PIG) (PIG) (DLTG)
                 (DLTG) (DLTU) (DLTU) (SGU) (DLTU) (DLTU) (PIU)
                 (PIU) (SGG) (PIG) (PIG) (SGU) (SGG) (SGU)
    48 initial guesses have been made.
 Convergence on wavefunction:    0.001000000000000
 Davidson Disk Diagonalization:  ConvIn= 1.00D-03 SkipCon=T Conv= 1.00D-03.
 Max sub-space:  1488 roots to seek:    48 dimension of matrix:          744
 Iteration     1 Dimension    48 NMult     0 NNew     48
 Estimated number of processors is:   47
 CISAX will form     1 AO SS matrices at one time.
 NMat=     1 NSing=     1 JSym2X= 2.
 FoFJK:  IHMeth= 1 ICntrl=       0 DoSepK=F KAlg= 0 I1Cent=           0 FoldK=F
 IRaf= 990000000 NMat=       1 IRICut=       1 DoRegI=T DoRafI=F ISym2E= 2 IDoP0=0 IntGTp=1.
 FoFCou: FMM=F IPFlag=           0 FMFlag=      100000 FMFlg1=           0
         NFxFlg=           0 DoJE=F BraDBF=F KetDBF=F FulRan=T
         wScrn=  0.000000 ICntrl=         0 IOpCl=  0 I1Cent=           0 NGrid=           0
         NMat0=    1 NMatS0=      1 NMatT0=    0 NMatD0=    1 NMtDS0=    0 NMtDT0=    0
 Integrals replicated using symmetry in FoFCou.
 CoulSu:  requested number of processors reduced to:  47 ShMem   1 Linda.
 NMat=     1 NSing=     1 JSym2X= 2.
 CoulSu:  requested number of processors reduced to:  47 ShMem   1 Linda.
 NMat=     1 NSing=     1 JSym2X= 2.
 CoulSu:  requested number of processors reduced to:  47 ShMem   1 Linda.
 NMat=     1 NSing=     1 JSym2X= 2.
 CoulSu:  requested number of processors reduced to:  47 ShMem   1 Linda.
 NMat=     1 NSing=     1 JSym2X= 2.
 CoulSu:  requested number of processors reduced to:  47 ShMem   1 Linda.
 NMat=     1 NSing=     1 JSym2X= 2.
 CoulSu:  requested number of processors reduced to:  47 ShMem   1 Linda.
 NMat=     1 NSing=     1 JSym2X= 2.
 CoulSu:  requested number of processors reduced to:  47 ShMem   1 Linda.
 NMat=     1 NSing=     1 JSym2X= 2.
 CoulSu:  requested number of processors reduced to:  47 ShMem   1 Linda.
 NMat=     1 NSing=     1 JSym2X= 2.
 CoulSu:  requested number of processors reduced to:  47 ShMem   1 Linda.
 NMat=     1 NSing=     1 JSym2X= 2.
 CoulSu:  requested number of processors reduced to:  47 ShMem   1 Linda.
 NMat=     1 NSing=     1 JSym2X= 2.
 CoulSu:  requested number of processors reduced to:  47 ShMem   1 Linda.
 NMat=     1 NSing=     1 JSym2X= 2.
 CoulSu:  requested number of processors reduced to:  47 ShMem   1 Linda.
 NMat=     1 NSing=     1 JSym2X= 2.
 CoulSu:  requested number of processors reduced to:  47 ShMem   1 Linda.
 NMat=     1 NSing=     1 JSym2X= 2.
 CoulSu:  requested number of processors reduced to:  47 ShMem   1 Linda.
 NMat=     1 NSing=     1 JSym2X= 2.
 CoulSu:  requested number of processors reduced to:  47 ShMem   1 Linda.
 NMat=     1 NSing=     1 JSym2X= 2.
 CoulSu:  requested number of processors reduced to:  47 ShMem   1 Linda.
 NMat=     1 NSing=     1 JSym2X= 2.
 CoulSu:  requested number of processors reduced to:  47 ShMem   1 Linda.
 NMat=     1 NSing=     1 JSym2X= 2.
 CoulSu:  requested number of processors reduced to:  47 ShMem   1 Linda.
 NMat=     1 NSing=     1 JSym2X= 2.
 CoulSu:  requested number of processors reduced to:  47 ShMem   1 Linda.
 NMat=     1 NSing=     1 JSym2X= 2.
 CoulSu:  requested number of processors reduced to:  47 ShMem   1 Linda.
 NMat=     1 NSing=     1 JSym2X= 2.
 CoulSu:  requested number of processors reduced to:  47 ShMem   1 Linda.
 NMat=     1 NSing=     1 JSym2X= 2.
 CoulSu:  requested number of processors reduced to:  47 ShMem   1 Linda.
 NMat=     1 NSing=     1 JSym2X= 2.
 CoulSu:  requested number of processors reduced to:  47 ShMem   1 Linda.
 NMat=     1 NSing=     1 JSym2X= 2.
 CoulSu:  requested number of processors reduced to:  47 ShMem   1 Linda.
 NMat=     1 NSing=     0 JSym2X= 2.
 CoulSu:  requested number of processors reduced to:  47 ShMem   1 Linda.
 NMat=     1 NSing=     0 JSym2X= 2.
 CoulSu:  requested number of processors reduced to:  47 ShMem   1 Linda.
 NMat=     1 NSing=     0 JSym2X= 2.
 CoulSu:  requested number of processors reduced to:  47 ShMem   1 Linda.
 NMat=     1 NSing=     0 JSym2X= 2.
 CoulSu:  requested number of processors reduced to:  47 ShMem   1 Linda.
 NMat=     1 NSing=     0 JSym2X= 2.
 CoulSu:  requested number of processors reduced to:  47 ShMem   1 Linda.
 NMat=     1 NSing=     0 JSym2X= 2.
 CoulSu:  requested number of processors reduced to:  47 ShMem   1 Linda.
 NMat=     1 NSing=     0 JSym2X= 2.
 CoulSu:  requested number of processors reduced to:  47 ShMem   1 Linda.
 NMat=     1 NSing=     0 JSym2X= 2.
 CoulSu:  requested number of processors reduced to:  47 ShMem   1 Linda.
 NMat=     1 NSing=     0 JSym2X= 2.
 CoulSu:  requested number of processors reduced to:  47 ShMem   1 Linda.
 NMat=     1 NSing=     0 JSym2X= 2.
 CoulSu:  requested number of processors reduced to:  47 ShMem   1 Linda.
 NMat=     1 NSing=     0 JSym2X= 2.
 CoulSu:  requested number of processors reduced to:  47 ShMem   1 Linda.
 NMat=     1 NSing=     0 JSym2X= 2.
 CoulSu:  requested number of processors reduced to:  47 ShMem   1 Linda.
 NMat=     1 NSing=     0 JSym2X= 2.
 CoulSu:  requested number of processors reduced to:  47 ShMem   1 Linda.
 NMat=     1 NSing=     0 JSym2X= 2.
 CoulSu:  requested number of processors reduced to:  47 ShMem   1 Linda.
 NMat=     1 NSing=     0 JSym2X= 2.
 CoulSu:  requested number of processors reduced to:  47 ShMem   1 Linda.
 NMat=     1 NSing=     0 JSym2X= 2.
 CoulSu:  requested number of processors reduced to:  47 ShMem   1 Linda.
 NMat=     1 NSing=     0 JSym2X= 2.
 CoulSu:  requested number of processors reduced to:  47 ShMem   1 Linda.
 NMat=     1 NSing=     0 JSym2X= 2.
 CoulSu:  requested number of processors reduced to:  47 ShMem   1 Linda.
 NMat=     1 NSing=     0 JSym2X= 2.
 CoulSu:  requested number of processors reduced to:  47 ShMem   1 Linda.
 NMat=     1 NSing=     0 JSym2X= 2.
 CoulSu:  requested number of processors reduced to:  47 ShMem   1 Linda.
 NMat=     1 NSing=     0 JSym2X= 2.
 CoulSu:  requested number of processors reduced to:  47 ShMem   1 Linda.
 NMat=     1 NSing=     0 JSym2X= 2.
 CoulSu:  requested number of processors reduced to:  47 ShMem   1 Linda.
 NMat=     1 NSing=     0 JSym2X= 2.
 CoulSu:  requested number of processors reduced to:  47 ShMem   1 Linda.
 NMat=     1 NSing=     0 JSym2X= 2.
 CoulSu:  requested number of processors reduced to:  47 ShMem   1 Linda.
 New state      1 was old state      6
 Excitation Energies [eV] at current iteration:
 Root      1 :    -1.328951391724966
 Root      2 :    -0.969596771729355
 Root      3 :    -0.969596771729186
 Root      4 :     0.504687048467976
 Root      5 :     0.504687048468079
 Root      6 :     4.853998396060294
 Root      7 :     5.006794298115747
 Root      8 :     5.496692491189459
 Root      9 :     6.119624541953494
 Root     10 :     7.013219727279597
 Root     11 :     7.212072933427947
 Root     12 :     7.589873221584194
 Root     13 :     7.607906436838437
 Root     14 :     8.709837589697051
 Root     15 :     8.709837589699280
 Root     16 :     9.482866071385008
 Root     17 :     9.482866071395534
 Root     18 :     9.654308869868910
 Root     19 :     9.654308869892860
 Root     20 :     9.692943415358069
 Root     21 :     9.692943415363914
 Root     22 :     9.776262457418140
 Root     23 :     9.776262457429135
 Root     24 :     9.943272457732183
 Root     25 :     9.943409610907242
 Root     26 :    10.003798289202800
 Root     27 :    10.003798289202840
 Root     28 :    10.058703972987460
 Root     29 :    10.058839911297050
 Root     30 :    10.385625865232870
 Root     31 :    10.886007808862590
 Root     32 :    10.886007808885440
 Root     33 :    10.986172142063200
 Root     34 :    10.986172142081210
 Root     35 :    11.103575171833450
 Root     36 :    11.228081052473900
 Root     37 :    11.361374859482420
 Root     38 :    11.453741592585030
 Root     39 :    11.496610198951590
 Root     40 :    11.497598844426120
 Root     41 :    11.538159938802110
 Root     42 :    11.538768044175620
 Root     43 :    11.596013071847120
 Root     44 :    11.614911897547130
 Root     45 :    12.797962170612380
 Root     46 :    12.797962170616530
 Root     47 :    12.803120375873730
 Root     48 :    35.581778004714360
 Iteration     2 Dimension    96 NMult    48 NNew     48
 Estimated number of processors is:   47
 CISAX will form     1 AO SS matrices at one time.
 NMat=     1 NSing=     1 JSym2X= 2.
 CoulSu:  requested number of processors reduced to:  47 ShMem   1 Linda.
 NMat=     1 NSing=     1 JSym2X= 2.
 CoulSu:  requested number of processors reduced to:  47 ShMem   1 Linda.
 NMat=     1 NSing=     1 JSym2X= 2.
 CoulSu:  requested number of processors reduced to:  47 ShMem   1 Linda.
 NMat=     1 NSing=     1 JSym2X= 2.
 CoulSu:  requested number of processors reduced to:  47 ShMem   1 Linda.
 NMat=     1 NSing=     1 JSym2X= 2.
 CoulSu:  requested number of processors reduced to:  47 ShMem   1 Linda.
 NMat=     1 NSing=     1 JSym2X= 2.
 CoulSu:  requested number of processors reduced to:  47 ShMem   1 Linda.
 NMat=     1 NSing=     1 JSym2X= 2.
 CoulSu:  requested number of processors reduced to:  47 ShMem   1 Linda.
 NMat=     1 NSing=     1 JSym2X= 2.
 CoulSu:  requested number of processors reduced to:  47 ShMem   1 Linda.
 NMat=     1 NSing=     1 JSym2X= 2.
 CoulSu:  requested number of processors reduced to:  47 ShMem   1 Linda.
 NMat=     1 NSing=     1 JSym2X= 2.
 CoulSu:  requested number of processors reduced to:  47 ShMem   1 Linda.
 NMat=     1 NSing=     1 JSym2X= 2.
 CoulSu:  requested number of processors reduced to:  47 ShMem   1 Linda.
 NMat=     1 NSing=     1 JSym2X= 2.
 CoulSu:  requested number of processors reduced to:  47 ShMem   1 Linda.
 NMat=     1 NSing=     1 JSym2X= 2.
 CoulSu:  requested number of processors reduced to:  47 ShMem   1 Linda.
 NMat=     1 NSing=     1 JSym2X= 2.
 CoulSu:  requested number of processors reduced to:  47 ShMem   1 Linda.
 NMat=     1 NSing=     1 JSym2X= 2.
 CoulSu:  requested number of processors reduced to:  47 ShMem   1 Linda.
 NMat=     1 NSing=     1 JSym2X= 2.
 CoulSu:  requested number of processors reduced to:  47 ShMem   1 Linda.
 NMat=     1 NSing=     1 JSym2X= 2.
 CoulSu:  requested number of processors reduced to:  47 ShMem   1 Linda.
 NMat=     1 NSing=     1 JSym2X= 2.
 CoulSu:  requested number of processors reduced to:  47 ShMem   1 Linda.
 NMat=     1 NSing=     1 JSym2X= 2.
 CoulSu:  requested number of processors reduced to:  47 ShMem   1 Linda.
 NMat=     1 NSing=     1 JSym2X= 2.
 CoulSu:  requested number of processors reduced to:  47 ShMem   1 Linda.
 NMat=     1 NSing=     1 JSym2X= 2.
 CoulSu:  requested number of processors reduced to:  47 ShMem   1 Linda.
 NMat=     1 NSing=     1 JSym2X= 2.
 CoulSu:  requested number of processors reduced to:  47 ShMem   1 Linda.
 NMat=     1 NSing=     1 JSym2X= 2.
 CoulSu:  requested number of processors reduced to:  47 ShMem   1 Linda.
 NMat=     1 NSing=     1 JSym2X= 2.
 CoulSu:  requested number of processors reduced to:  47 ShMem   1 Linda.
 NMat=     1 NSing=     0 JSym2X= 2.
 CoulSu:  requested number of processors reduced to:  47 ShMem   1 Linda.
 NMat=     1 NSing=     0 JSym2X= 2.
 CoulSu:  requested number of processors reduced to:  47 ShMem   1 Linda.
 NMat=     1 NSing=     0 JSym2X= 2.
 CoulSu:  requested number of processors reduced to:  47 ShMem   1 Linda.
 NMat=     1 NSing=     0 JSym2X= 2.
 CoulSu:  requested number of processors reduced to:  47 ShMem   1 Linda.
 NMat=     1 NSing=     0 JSym2X= 2.
 CoulSu:  requested number of processors reduced to:  47 ShMem   1 Linda.
 NMat=     1 NSing=     0 JSym2X= 2.
 CoulSu:  requested number of processors reduced to:  47 ShMem   1 Linda.
 NMat=     1 NSing=     0 JSym2X= 2.
 CoulSu:  requested number of processors reduced to:  47 ShMem   1 Linda.
 NMat=     1 NSing=     0 JSym2X= 2.
 CoulSu:  requested number of processors reduced to:  47 ShMem   1 Linda.
 NMat=     1 NSing=     0 JSym2X= 2.
 CoulSu:  requested number of processors reduced to:  47 ShMem   1 Linda.
 NMat=     1 NSing=     0 JSym2X= 2.
 CoulSu:  requested number of processors reduced to:  47 ShMem   1 Linda.
 NMat=     1 NSing=     0 JSym2X= 2.
 CoulSu:  requested number of processors reduced to:  47 ShMem   1 Linda.
 NMat=     1 NSing=     0 JSym2X= 2.
 CoulSu:  requested number of processors reduced to:  47 ShMem   1 Linda.
 NMat=     1 NSing=     0 JSym2X= 2.
 CoulSu:  requested number of processors reduced to:  47 ShMem   1 Linda.
 NMat=     1 NSing=     0 JSym2X= 2.
 CoulSu:  requested number of processors reduced to:  47 ShMem   1 Linda.
 NMat=     1 NSing=     0 JSym2X= 2.
 CoulSu:  requested number of processors reduced to:  47 ShMem   1 Linda.
 NMat=     1 NSing=     0 JSym2X= 2.
 CoulSu:  requested number of processors reduced to:  47 ShMem   1 Linda.
 NMat=     1 NSing=     0 JSym2X= 2.
 CoulSu:  requested number of processors reduced to:  47 ShMem   1 Linda.
 NMat=     1 NSing=     0 JSym2X= 2.
 CoulSu:  requested number of processors reduced to:  47 ShMem   1 Linda.
 NMat=     1 NSing=     0 JSym2X= 2.
 CoulSu:  requested number of processors reduced to:  47 ShMem   1 Linda.
 NMat=     1 NSing=     0 JSym2X= 2.
 CoulSu:  requested number of processors reduced to:  47 ShMem   1 Linda.
 NMat=     1 NSing=     0 JSym2X= 2.
 CoulSu:  requested number of processors reduced to:  47 ShMem   1 Linda.
 NMat=     1 NSing=     0 JSym2X= 2.
 CoulSu:  requested number of processors reduced to:  47 ShMem   1 Linda.
 NMat=     1 NSing=     0 JSym2X= 2.
 CoulSu:  requested number of processors reduced to:  47 ShMem   1 Linda.
 NMat=     1 NSing=     0 JSym2X= 2.
 CoulSu:  requested number of processors reduced to:  47 ShMem   1 Linda.
 Root      1 not converged, maximum delta is    0.057075897097696
 Excitation Energies [eV] at current iteration:
 Root      1 :    -1.664437033936944   Change is   -0.335485642211978
 Root      2 :    -1.124136025762353   Change is   -0.154539254032997
 Root      3 :    -1.124136025762186   Change is   -0.154539254033000
 Root      4 :     0.389740607939483   Change is   -0.114946440528596
 Root      5 :     0.389740607939483   Change is   -0.114946440528493
 Root      6 :     4.216721528059996   Change is   -0.637276868000297
 Root      7 :     4.615355287614867   Change is   -0.391439010500880
 Root      8 :     5.305858082197351   Change is   -0.190834408992108
 Root      9 :     5.308374840768096   Change is   -0.811249701185398
 Root     10 :     6.923576415656409   Change is   -0.089643311623189
 Root     11 :     6.925084507056874   Change is   -0.286988426371074
 Root     12 :     7.479182856527654   Change is   -0.110690365056541
 Root     13 :     7.479358286221346   Change is   -0.128548150617092
 Root     14 :     7.956742918051282   Change is   -0.753094671647998
 Root     15 :     7.956742918054750   Change is   -0.753094671642300
 Root     16 :     9.452469963888024   Change is   -0.030396107496985
 Root     17 :     9.452469963898054   Change is   -0.030396107497480
 Root     18 :     9.525576844929750   Change is   -0.128732024939159
 Root     19 :     9.525576844949533   Change is   -0.128732024943328
 Root     20 :     9.588489027606581   Change is   -0.104454387751489
 Root     21 :     9.588489027612647   Change is   -0.104454387751266
 Root     22 :     9.703624154441462   Change is   -0.072638302976678
 Root     23 :     9.703624154451322   Change is   -0.072638302977814
 Root     24 :     9.870325796051578   Change is   -0.072946661680605
 Root     25 :     9.870528745681547   Change is   -0.072880865225695
 Root     26 :     9.938395282360281   Change is   -0.120308690627178
 Root     27 :     9.938641954924609   Change is   -0.120197956372442
 Root     28 :     9.972079081651840   Change is   -0.031719207550963
 Root     29 :     9.972079081651888   Change is   -0.031719207550956
 Root     30 :    10.193203194615360   Change is   -0.192422670617510
 Root     31 :    10.686179256066260   Change is   -0.417395915767197
 Root     32 :    10.769614526750950   Change is   -0.116393282111640
 Root     33 :    10.769614526770210   Change is   -0.116393282115229
 Root     34 :    10.862138464110770   Change is   -0.124033677952423
 Root     35 :    10.862138464127810   Change is   -0.124033677953408
 Root     36 :    10.984483755774910   Change is   -0.243597296698992
 Root     37 :    11.146346277823300   Change is   -0.215028581659120
 Root     38 :    11.379153287037600   Change is   -0.117456911913994
 Root     39 :    11.385360717968350   Change is   -0.068380874616676
 Root     40 :    11.403365102226730   Change is   -0.094233742199390
 Root     41 :    11.452576570127100   Change is   -0.086191474048521
 Root     42 :    11.486559421216230   Change is   -0.051600517585881
 Root     43 :    11.519639930852110   Change is   -0.076373140995004
 Root     44 :    11.544062346097860   Change is   -0.070849551449272
 Root     45 :    11.605026559149880   Change is   -1.192935611462496
 Root     46 :    11.605026559153420   Change is   -1.192935611463112
 Root     47 :    11.667402770172260   Change is  -23.914375234542100
 Root     48 :    12.172237642718460   Change is   -0.630882733155271
 Iteration     3 Dimension   102 NMult    96 NNew      6
 Estimated number of processors is:   47
 CISAX will form     1 AO SS matrices at one time.
 NMat=     1 NSing=     1 JSym2X= 2.
 CoulSu:  requested number of processors reduced to:  47 ShMem   1 Linda.
 NMat=     1 NSing=     1 JSym2X= 2.
 CoulSu:  requested number of processors reduced to:  47 ShMem   1 Linda.
 NMat=     1 NSing=     1 JSym2X= 2.
 CoulSu:  requested number of processors reduced to:  47 ShMem   1 Linda.
 NMat=     1 NSing=     0 JSym2X= 2.
 CoulSu:  requested number of processors reduced to:  47 ShMem   1 Linda.
 NMat=     1 NSing=     0 JSym2X= 2.
 CoulSu:  requested number of processors reduced to:  47 ShMem   1 Linda.
 NMat=     1 NSing=     0 JSym2X= 2.
 CoulSu:  requested number of processors reduced to:  47 ShMem   1 Linda.
 Root      1 not converged, maximum delta is    0.002340255124300
 Excitation Energies [eV] at current iteration:
 Root      1 :    -1.666112761363157   Change is   -0.001675727426213
 Root      2 :    -1.124710311474086   Change is   -0.000574285711734
 Root      3 :    -1.124710311473939   Change is   -0.000574285711752
 Root      4 :     0.389323718228680   Change is   -0.000416889710803
 Root      5 :     0.389323718228771   Change is   -0.000416889710712
 Root      6 :     4.613140655355494   Change is   -0.002214632259374
 Cease iterating as an instability has been found.
 ***********************************************************************
 Stability analysis using <AA,BB:AA,BB> singles matrix:
 ***********************************************************************
 1PDM for each excited state written to RWF  633
 Ground to excited state transition densities written to RWF  633

 Eigenvectors of the stability matrix:
 
 Eigenvector   1:      Triplet-SGU  Eigenvalue=-0.0612285  <S**2>=2.000
       4 ->  7         0.67529
       5 ->  8         0.10427
       6 ->  9        -0.10427
 
 Excited state symmetry could not be determined.
 Eigenvector   2:      Triplet-?Sym  Eigenvalue=-0.0413323  <S**2>=2.000
       5 ->  7         0.52165
       6 ->  7        -0.46243
 
 Excited state symmetry could not be determined.
 Eigenvector   3:      Triplet-?Sym  Eigenvalue=-0.0413323  <S**2>=2.000
       5 ->  7         0.46243
       6 ->  7         0.52165
 
 Excited state symmetry could not be determined.
 Eigenvector   4:      Singlet-?Sym  Eigenvalue= 0.0143074  <S**2>=0.000
       5 ->  7        -0.48130
       6 ->  7         0.51443
 
 Excited state symmetry could not be determined.
 Eigenvector   5:      Singlet-?Sym  Eigenvalue= 0.0143074  <S**2>=0.000
       5 ->  7         0.51443
       6 ->  7         0.48130
 
 Eigenvector   6:      Singlet-SGU  Eigenvalue= 0.1695298  <S**2>=0.000
       4 ->  7         0.58292
       5 ->  8        -0.25205
       6 ->  9         0.25206
 The wavefunction has an RHF -> UHF instability.
 Leave Link  914 at Sun Apr 18 09:54:44 2021, MaxMem=   104857600 cpu:            2891.3 elap:              61.9
 (Enter /s/ls4/users/knvvv/bin/g16sse/l508.exe)
 Keep R1 and R2 ints in memory in symmetry-blocked form, NReq=46017411.
 FoFCou: FMM=F IPFlag=           0 FMFlag=           0 FMFlg1=           0
         NFxFlg=           0 DoJE=F BraDBF=F KetDBF=F FulRan=T
         wScrn=  0.000000 ICntrl=       600 IOpCl=  0 I1Cent=           0 NGrid=           0
         NMat0=    1 NMatS0=   2346 NMatT0=    0 NMatD0=    1 NMtDS0=    0 NMtDT0=    0
 Petite list used in FoFCou.
 Tight linear equation convergence will be used.
 UM062X wavefunction.
 Quadratic Convergence SCF Method.
 Line search only if initial step raises energy.
 Perform preliminary linear searches along instability eigenvector.
     ILin= 1 X=0.000D+00 Y=-7.586917472363D+01 DE= 0.00D+00
     ILin= 2 X=1.000D-01 Y=-7.586978916472D+01 DE=-6.14D-04
     ILin= 3 X=1.414D-01 Y=-7.587040771101D+01 DE=-1.23D-03
     ILin= 4 X=2.000D-01 Y=-7.587165526990D+01 DE=-2.48D-03
     ILin= 5 X=2.828D-01 Y=-7.587417355971D+01 DE=-5.00D-03
     ILin= 6 X=4.000D-01 Y=-7.587911273098D+01 DE=-9.94D-03
     ILin= 7 X=5.657D-01 Y=-7.588728140402D+01 DE=-1.81D-02
     ILin= 8 X=8.000D-01 Y=-7.589305729528D+01 DE=-2.39D-02
     ILin= 9 X=1.131D+00 Y=-7.586666065557D+01 DE= 2.51D-03
     An  expanding polynomial of degree  9 produced  0.7848
 Iteration F X= 7.848D-01 EE=-7.589309058221947D+01
     ILin= 1 X=0.000D+00 Y=-7.586917472363D+01 DE= 0.00D+00
     ILin= 2 X=1.000D-01 Y=-7.586978916472D+01 DE=-6.14D-04
     ILin= 3 X=1.414D-01 Y=-7.587040771101D+01 DE=-1.23D-03
 The two search directions are symmetric.
 Iteration B X= 7.848D-01 EE=-7.589309058221947D+01
 Take forward step, X= 7.848D-01 Step= 7.848D-01
 Iteration   1 EE= -75.8931517828245                                    Grad=9.453D-02 Max rot=    1.5544 deg.
 Gradient too large for Newton-Raphson -- use scaled steepest descent instead.
 Alpha Gap=     0.242 HL deriv= 2.06D-16
  Beta Gap=     0.242 HL deriv= 5.67D-19
     ILin= 1 X=0.000D+00 Y=-7.589315178282D+01 DE= 0.00D+00 F= -8.47D-03
     ILin= 2 X=3.000D-01 Y=-7.589534931028D+01 DE=-2.20D-03 F= -6.17D-03
     ILin= 3 X=6.000D-01 Y=-7.589684798225D+01 DE=-3.70D-03 F= -3.82D-03
     ILin= 4 X=1.200D+00 Y=-7.589770314403D+01 DE=-4.55D-03 F=  9.82D-04
     Accept linear search using points  3 and  4.
     An  expanding polynomial of degree  4 produced  0.9832
 Iteration   2 EE= -75.8977268107178     Delta-E=       -0.004575027893 Grad=1.755D-02 Max rot=    0.4354 deg.
 Gradient too large for Newton-Raphson -- use scaled steepest descent instead.
 Alpha Gap=     0.238 HL deriv= 7.60D-17
  Beta Gap=     0.238 HL deriv= 1.11D-16
     ILin= 1 X=0.000D+00 Y=-7.589772681072D+01 DE= 0.00D+00 F= -6.00D-04
     ILin= 2 X=5.000D-01 Y=-7.589795801550D+01 DE=-2.31D-04 F= -3.25D-04
     ILin= 3 X=1.100D+00 Y=-7.589805441616D+01 DE=-3.28D-04 F=  3.50D-06
     Accept linear search using points  2 and  3.
     An  expanding polynomial of degree  3 produced  1.0492
     Minimum is close to point  3 DX= -5.08D-02 DF= -1.63D-07 DXR=  4.84D-02 DFR=  4.96D-04 which will be used.
 Iteration   3 EE= -75.8980544161631     Delta-E=       -0.000327605445 Grad=1.041D-02 Max rot=    0.1360 deg.
 Gradient too large for Newton-Raphson -- use scaled steepest descent instead.
 Alpha Gap=     0.235 HL deriv= 1.02D-16
  Beta Gap=     0.235 HL deriv= 1.27D-16
     ILin= 1 X=0.000D+00 Y=-7.589805441616D+01 DE= 0.00D+00 F= -1.59D-04
     ILin= 2 X=1.000D+00 Y=-7.589811727865D+01 DE=-6.29D-05 F=  3.31D-05
     Accept linear search using points  1 and  2.
     An  expanding polynomial of degree  2 produced  0.8277
 Iteration   4 EE= -75.8981201266527     Delta-E=       -0.000065710490 Grad=3.504D-03 Max rot=    0.0711 deg.
 QCNR:  CnvC1=2.73D-09 CnvC2=2.73D-08
 LinEq1:  Iter=  0 NonCon=     1 RMS=2.11D-04 Max=3.17D-03 NDo=     1
 AX will form     1 AO Fock derivatives at one time.
 LinEq1:  Iter=  1 NonCon=     1 RMS=9.61D-05 Max=6.75D-04 NDo=     1
 LinEq1:  Iter=  2 NonCon=     1 RMS=2.77D-05 Max=2.53D-04 NDo=     1
 LinEq1:  Iter=  3 NonCon=     1 RMS=5.52D-06 Max=5.43D-05 NDo=     1
 LinEq1:  Iter=  4 NonCon=     1 RMS=1.42D-06 Max=1.50D-05 NDo=     1
 LinEq1:  Iter=  5 NonCon=     1 RMS=2.07D-07 Max=1.82D-06 NDo=     1
 LinEq1:  Iter=  6 NonCon=     1 RMS=2.69D-08 Max=1.51D-07 NDo=     1
 LinEq1:  Iter=  7 NonCon=     1 RMS=3.30D-09 Max=2.72D-08 NDo=     1
 LinEq1:  Iter=  8 NonCon=     0 RMS=3.59D-10 Max=2.41D-09 NDo=     1
 Linear equations converged to 2.728D-09 2.728D-08 after     8 iterations.
 Angle between quadratic step and gradient=  47.66 degrees.
     ILin= 1 X=0.000D+00 Y=-7.589812012665D+01 DE= 0.00D+00 F= -5.79D-05
     ILin= 2 X=1.000D+00 Y=-7.589814895655D+01 DE=-2.88D-05 F=  3.94D-07
     Accept linear search using points  1 and  2.
     An  expanding polynomial of degree  2 produced  0.9933
     Minimum is close to point  2 DX= -6.72D-03 DF= -1.32D-09 DXR=  6.76D-03 DFR=  4.59D-05 which will be used.
 Iteration   5 EE= -75.8981489565527     Delta-E=       -0.000028829900 Grad=6.015D-05 Max rot=    0.0010 deg.
 QCNR:  CnvC1=6.02D-10 CnvC2=6.02D-09
 LinEq1:  Iter=  0 NonCon=     1 RMS=2.92D-06 Max=5.06D-05 NDo=     1
 LinEq1:  Iter=  1 NonCon=     1 RMS=7.82D-07 Max=7.20D-06 NDo=     1
 LinEq1:  Iter=  2 NonCon=     1 RMS=2.95D-07 Max=2.88D-06 NDo=     1
 LinEq1:  Iter=  3 NonCon=     1 RMS=1.41D-07 Max=8.82D-07 NDo=     1
 LinEq1:  Iter=  4 NonCon=     1 RMS=3.72D-08 Max=2.56D-07 NDo=     1
 LinEq1:  Iter=  5 NonCon=     1 RMS=7.55D-09 Max=7.47D-08 NDo=     1
 LinEq1:  Iter=  6 NonCon=     1 RMS=1.05D-09 Max=8.73D-09 NDo=     1
 LinEq1:  Iter=  7 NonCon=     0 RMS=1.47D-10 Max=9.76D-10 NDo=     1
 Linear equations converged to 6.015D-10 6.015D-09 after     7 iterations.
 Angle between quadratic step and gradient=  58.94 degrees.
     ILin= 1 X=0.000D+00 Y=-7.589814895655D+01 DE= 0.00D+00 F= -7.22D-09
     ILin= 2 X=1.000D+00 Y=-7.589814896016D+01 DE=-3.61D-09
 Iteration   6 EE= -75.8981489601623     Delta-E=       -0.000000003610 Grad=3.946D-08 Max rot=    0.0000 deg.
 Rotation gradient small -- convergence achieved.
 Density matrix breaks symmetry, PCut= 1.00D-04
 Density matrix has no symmetry -- integrals replicated.
 Density matrix is not symmetric, so final MOs not symmetrized.
 SCF Done:  E(UM062X) =  -75.8981489602     a.u. after    6 cycles
            Convg  =    0.3946D-07                    36 Fock formations.
              S**2 =  0.8861                  -V/T =  2.0046
 <Sx>= 0.0000 <Sy>= 0.0000 <Sz>= 0.0000 <S**2>= 0.8861 S= 0.5659
 <L.S>= 0.000000000000E+00
 Annihilation of the first spin contaminant:
 S**2 before annihilation     0.8861,   after     0.4832
 Leave Link  508 at Sun Apr 18 09:54:51 2021, MaxMem=   104857600 cpu:             285.1 elap:               6.1
 (Enter /s/ls4/users/knvvv/bin/g16sse/l801.exe)
 DoSCS=F DFT=T ScalE2(SS,OS)=  1.000000  1.000000
 Range of M.O.s used for correlation:     1    68
 NBasis=    68 NAE=     6 NBE=     6 NFC=     0 NFV=     0
 NROrb=     68 NOA=     6 NOB=     6 NVA=    62 NVB=    62

 **** Warning!!: The largest alpha MO coefficient is  0.47450891D+02


 **** Warning!!: The largest beta MO coefficient is  0.47450891D+02

 Leave Link  801 at Sun Apr 18 09:54:51 2021, MaxMem=   104857600 cpu:               3.7 elap:               0.1
 (Enter /s/ls4/users/knvvv/bin/g16sse/l914.exe)
 UHF ground state
 Doing stability rather than CIS.
 Keep R1 and R2 ints in memory in symmetry-blocked form, NReq=77798679.
 FoFCou: FMM=F IPFlag=           0 FMFlag=           0 FMFlg1=           0
         NFxFlg=           0 DoJE=F BraDBF=F KetDBF=F FulRan=T
         wScrn=  0.000000 ICntrl=       600 IOpCl=  0 I1Cent=           0 NGrid=           0
         NMat0=    1 NMatS0=   2346 NMatT0=    0 NMatD0=    1 NMtDS0=    0 NMtDT0=    0
 Petite list used in FoFCou.
 MDV=   104857600 DFT=T DoStab=T Mixed=T DoRPA=F DoScal=F NonHer=F
 Making orbital integer symmetry assigments:
 Orbital symmetries:
 Alpha Orbitals:
       Occupied  (?A) (?A) (?B) (?B) (?C) (?C)
       Virtual   (?B) (?C) (?C) (?B) (?B) (?C) (?C) (?B) (?C) (?C)
                 (?B) (?B) (?B) (?C) (?C) (?D) (?D) (?C) (?C) (?B)
                 (?B) (?C) (?C) (?B) (?D) (?D) (?C) (?C) (?B) (?B)
                 (?B) (?D) (?D) (?E) (?E) (?C) (?C) (?C) (?C) (?C)
                 (?C) (?E) (?E) (?B) (?B) (?C) (?C) (?D) (?D) (?D)
                 (?D) (?B) (?D) (?D) (?C) (?C) (?B) (?C) (?C) (?B)
                 (SGG) (SGU)
 Beta  Orbitals:
       Occupied  (?A) (?A) (?B) (?B) (?C) (?C)
       Virtual   (?B) (?C) (?C) (?B) (?B) (?C) (?C) (?B) (?C) (?C)
                 (?B) (?B) (?B) (?C) (?C) (?D) (?D) (?C) (?C) (?B)
                 (?B) (?C) (?C) (?B) (?D) (?D) (?C) (?C) (?B) (?B)
                 (?B) (?D) (?D) (?E) (?E) (?C) (?C) (?C) (?C) (?C)
                 (?C) (?E) (?E) (?B) (?B) (?C) (?C) (?D) (?D) (?D)
                 (?D) (?B) (?D) (?D) (?C) (?C) (?B) (?C) (?C) (?B)
                 (SGG) (SGU)
    24 initial guesses have been made.
 Convergence on wavefunction:    0.001000000000000
 Davidson Disk Diagonalization:  ConvIn= 1.00D-03 SkipCon=T Conv= 1.00D-03.
 Max sub-space:  1488 roots to seek:    24 dimension of matrix:          744
 Iteration     1 Dimension    24 NMult     0 NNew     24
 CISAX will form    24 AO SS matrices at one time.
 NMat=    24 NSing=    24 JSym2X= 2.
 Excitation Energies [eV] at current iteration:
 Root      1 :     1.317447496343676
 Root      2 :     1.317447496690289
 Root      3 :     1.646094992453902
 Root      4 :     1.646094992829699
 Root      5 :     6.348886867944739
 Root      6 :     6.684711591335583
 Root      7 :     6.698681897248140
 Root      8 :     7.578525984698547
 Root      9 :     7.579626296520883
 Root     10 :     7.614376629325982
 Root     11 :     7.854176318045178
 Root     12 :     7.869269832652916
 Root     13 :     7.958241589110358
 Root     14 :     9.253024648725534
 Root     15 :     9.253024648782860
 Root     16 :     9.292998763198209
 Root     17 :     9.292998763248015
 Root     18 :     9.382012659505238
 Root     19 :     9.382012659537073
 Root     20 :     9.536515127491652
 Root     21 :     9.536515127497029
 Root     22 :     9.786506012036950
 Root     23 :    10.396080595129080
 Root     24 :    20.421870638582960
 Iteration     2 Dimension    48 NMult    24 NNew     24
 CISAX will form    24 AO SS matrices at one time.
 NMat=    24 NSing=    24 JSym2X= 2.
 Root      1 not converged, maximum delta is    0.067310456399314
 Excitation Energies [eV] at current iteration:
 Root      1 :     0.812237540282026   Change is   -0.505209956061650
 Root      2 :     0.812237540940317   Change is   -0.505209955749972
 Root      3 :     1.297655114268154   Change is   -0.348439878185748
 Root      4 :     1.297655114811590   Change is   -0.348439878018109
 Root      5 :     3.809949249893076   Change is   -2.538937618051663
 Root      6 :     5.182459972728800   Change is   -1.502251618606783
 Root      7 :     5.183995249444414   Change is   -1.514686647803726
 Root      8 :     6.479315567309338   Change is   -1.135061062016644
 Root      9 :     6.825797148338564   Change is   -0.752728836359982
 Root     10 :     6.827223993677753   Change is   -0.752402302843131
 Root     11 :     6.874008658928418   Change is   -1.084232930181940
 Root     12 :     7.472267594319793   Change is   -0.381908723725386
 Root     13 :     7.474422683004813   Change is   -0.394847149648102
 Root     14 :     8.930066922042263   Change is   -0.322957726683269
 Root     15 :     8.930066922099181   Change is   -0.322957726683680
 Root     16 :     9.182970981209410   Change is   -0.110027781988801
 Root     17 :     9.182970981295147   Change is   -0.110027781952868
 Root     18 :     9.295731467552704   Change is   -0.086281191984368
 Root     19 :     9.295731467593567   Change is   -0.086281191911669
 Root     20 :     9.410068172204062   Change is   -0.126446955292967
 Root     21 :     9.410068172242580   Change is   -0.126446955249071
 Root     22 :     9.722187638796143   Change is   -0.064318373240808
 Root     23 :     9.938485519049664   Change is   -0.457595076079415
 Root     24 :    11.090021671697300
 Iteration     3 Dimension    51 NMult    48 NNew      3
 CISAX will form     3 AO SS matrices at one time.
 NMat=     3 NSing=     3 JSym2X= 2.
 Root      1 not converged, maximum delta is    0.012184073104776
 Excitation Energies [eV] at current iteration:
 Root      1 :     0.786108238955571   Change is   -0.026129301326454
 Root      2 :     0.786108239639711   Change is   -0.026129301300606
 Root      3 :     1.286287718248987   Change is   -0.011367396019167
 Iteration     4 Dimension    54 NMult    51 NNew      3
 CISAX will form     3 AO SS matrices at one time.
 NMat=     3 NSing=     3 JSym2X= 2.
 Root      1 not converged, maximum delta is    0.002158641910885
 Excitation Energies [eV] at current iteration:
 Root      1 :     0.785407140247814   Change is   -0.000701098707757
 Root      2 :     0.785407140932528   Change is   -0.000701098707183
 Root      3 :     1.285504746481948   Change is   -0.000782971767039
 Iteration     5 Dimension    57 NMult    54 NNew      3
 CISAX will form     3 AO SS matrices at one time.
 NMat=     3 NSing=     3 JSym2X= 2.
 Root      1 has converged.
 Excitation Energies [eV] at current iteration:
 Root      1 :     0.785403827334311   Change is   -0.000003312913503
 Root      2 :     0.785403828019019   Change is   -0.000003312913509
 Root      3 :     1.285499016438989   Change is   -0.000005730042959
 Convergence achieved on expansion vectors.
 ***********************************************************************
 Stability analysis using <AA,BB:AA,BB> singles matrix:
 ***********************************************************************
 1PDM for each excited state written to RWF  633
 Ground to excited state transition densities written to RWF  633

 Eigenvectors of the stability matrix:
 
 Excited state symmetry could not be determined.
 Eigenvector   1:  2.640-?Sym  Eigenvalue= 0.0288631  <S**2>=1.493
      6A ->  7A        0.68445
      6A -> 11A       -0.11463
      6B ->  7B        0.68450
      6B -> 11B        0.11463
 The wavefunction is stable under the perturbations considered.
 Leave Link  914 at Sun Apr 18 09:55:02 2021, MaxMem=   104857600 cpu:             542.3 elap:              11.6
 (Enter /s/ls4/users/knvvv/bin/g16sse/l508.exe)
 The wavefunction is already stable.
 Leave Link  508 at Sun Apr 18 09:55:02 2021, MaxMem=   104857600 cpu:               2.2 elap:               0.1
 (Enter /s/ls4/users/knvvv/bin/g16sse/l601.exe)
 Copying SCF densities to generalized density rwf, IOpCl= 1 IROHF=0.
 SCF density gives NOpUse=  1 NOpAll=  8.
 Marking SCF density as not fully symmetric.

 **********************************************************************

            Population analysis using the SCF density.

 **********************************************************************

 Orbital symmetries:
 Alpha Orbitals:
       Occupied  (?A) (?A) (?B) (?B) (?C) (?C)
       Virtual   (?B) (?C) (?C) (?B) (?B) (?C) (?C) (?B) (?C) (?C)
                 (?B) (?B) (?B) (?C) (?C) (?D) (?D) (?C) (?C) (?B)
                 (?B) (?C) (?C) (?B) (?D) (?D) (?C) (?C) (?B) (?B)
                 (?B) (?D) (?D) (?E) (?E) (?C) (?C) (?C) (?C) (?C)
                 (?C) (?E) (?E) (?B) (?B) (?C) (?C) (?D) (?D) (?D)
                 (?D) (?B) (?D) (?D) (?C) (?C) (?B) (?C) (?C) (?B)
                 (SGG) (SGU)
 Beta  Orbitals:
       Occupied  (?A) (?A) (?B) (?B) (?C) (?C)
       Virtual   (?B) (?C) (?C) (?B) (?B) (?C) (?C) (?B) (?C) (?C)
                 (?B) (?B) (?B) (?C) (?C) (?D) (?D) (?C) (?C) (?B)
                 (?B) (?C) (?C) (?B) (?D) (?D) (?C) (?C) (?B) (?B)
                 (?B) (?D) (?D) (?E) (?E) (?C) (?C) (?C) (?C) (?C)
                 (?C) (?E) (?E) (?B) (?B) (?C) (?C) (?D) (?D) (?D)
                 (?D) (?B) (?D) (?D) (?C) (?C) (?B) (?C) (?C) (?B)
                 (SGG) (SGU)
 Unable to determine electronic state:  an orbital has unidentified symmetry.
 Alpha  occ. eigenvalues --  -10.63561 -10.62141  -0.86767  -0.49970  -0.38261
 Alpha  occ. eigenvalues --   -0.38261
 Alpha virt. eigenvalues --   -0.16311   0.03658   0.03658   0.04781   0.05625
 Alpha virt. eigenvalues --    0.07363   0.07363   0.10391   0.13857   0.13857
 Alpha virt. eigenvalues --    0.18316   0.32084   0.47510   0.53026   0.53026
 Alpha virt. eigenvalues --    0.60249   0.60249   0.61360   0.61360   0.64066
 Alpha virt. eigenvalues --    0.71467   0.81006   0.81006   0.85657   0.89563
 Alpha virt. eigenvalues --    0.89563   1.20088   1.20088   1.20497   1.47227
 Alpha virt. eigenvalues --    2.45851   2.55433   2.55433   2.63301   2.63301
 Alpha virt. eigenvalues --    2.65377   2.65377   2.69511   2.69511   2.79114
 Alpha virt. eigenvalues --    2.79114   3.00013   3.00013   3.00214   3.12596
 Alpha virt. eigenvalues --    3.16890   3.16890   3.18931   3.18932   3.28994
 Alpha virt. eigenvalues --    3.28995   3.41145   3.63328   3.63329   3.63554
 Alpha virt. eigenvalues --    3.63554   4.38695   4.78370   4.78370   4.86935
 Alpha virt. eigenvalues --   23.27893  24.90407
  Beta  occ. eigenvalues --  -10.63561 -10.62141  -0.86767  -0.49970  -0.38261
  Beta  occ. eigenvalues --   -0.38261
  Beta virt. eigenvalues --   -0.16311   0.03658   0.03658   0.04781   0.05625
  Beta virt. eigenvalues --    0.07363   0.07363   0.10391   0.13857   0.13857
  Beta virt. eigenvalues --    0.18316   0.32084   0.47510   0.53026   0.53026
  Beta virt. eigenvalues --    0.60249   0.60249   0.61360   0.61360   0.64066
  Beta virt. eigenvalues --    0.71467   0.81006   0.81006   0.85657   0.89563
  Beta virt. eigenvalues --    0.89563   1.20088   1.20088   1.20497   1.47227
  Beta virt. eigenvalues --    2.45851   2.55433   2.55433   2.63301   2.63301
  Beta virt. eigenvalues --    2.65377   2.65377   2.69511   2.69511   2.79114
  Beta virt. eigenvalues --    2.79114   3.00013   3.00013   3.00214   3.12596
  Beta virt. eigenvalues --    3.16890   3.16890   3.18931   3.18932   3.28994
  Beta virt. eigenvalues --    3.28995   3.41145   3.63328   3.63329   3.63554
  Beta virt. eigenvalues --    3.63554   4.38695   4.78370   4.78370   4.86935
  Beta virt. eigenvalues --   23.27893  24.90407
          Condensed to atoms (all electrons):
               1          2
     1  C    5.010426   0.989574
     2  C    0.989574   5.010426
          Atomic-Atomic Spin Densities.
               1          2
     1  C   -1.081704   0.000000
     2  C    0.000000   1.081704
 Mulliken charges and spin densities:
               1          2
     1  C   -0.000000  -1.081704
     2  C    0.000000   1.081704
 Sum of Mulliken charges =  -0.00000   0.00000
 Mulliken charges and spin densities with hydrogens summed into heavy atoms:
               1          2
     1  C   -0.000000  -1.081704
     2  C    0.000000   1.081704
 Electronic spatial extent (au):  <R**2>=             41.4163
 Charge=             -0.0000 electrons
 Dipole moment (field-independent basis, Debye):
    X=              0.0000    Y=              0.0000    Z=             -0.0000  Tot=              0.0000
 Quadrupole moment (field-independent basis, Debye-Ang):
   XX=            -12.2630   YY=            -12.2630   ZZ=             -9.0241
   XY=             -0.0000   XZ=             -0.0000   YZ=             -0.0000
 Traceless Quadrupole moment (field-independent basis, Debye-Ang):
   XX=             -1.0796   YY=             -1.0796   ZZ=              2.1593
   XY=             -0.0000   XZ=             -0.0000   YZ=             -0.0000
 Octapole moment (field-independent basis, Debye-Ang**2):
  XXX=              0.0000  YYY=              0.0000  ZZZ=             -0.0000  XYY=              0.0000
  XXY=              0.0000  XXZ=             -0.0000  XZZ=              0.0000  YZZ=              0.0000
  YYZ=             -0.0000  XYZ=              0.0000
 Hexadecapole moment (field-independent basis, Debye-Ang**3):
 XXXX=            -15.2938 YYYY=            -15.2938 ZZZZ=            -34.5369 XXXY=             -0.0000
 XXXZ=             -0.0000 YYYX=             -0.0000 YYYZ=              0.0000 ZZZX=              0.0000
 ZZZY=             -0.0000 XXYY=             -5.0979 XXZZ=             -8.5106 YYZZ=             -8.5106
 XXYZ=              0.0000 YYXZ=             -0.0000 ZZXY=              0.0000
 N-N= 1.536320934929D+01 E-N=-2.070563870545D+02  KE= 7.554986963973D+01
                          Isotropic Fermi Contact Couplings
        Atom                 a.u.       MegaHertz       Gauss      10(-4) cm-1
     1  C(13)             -0.81165    -456.22335    -162.79183    -152.17973
     2  C(13)              0.81165     456.22335     162.79184     152.17973
 --------------------------------------------------------
       Center         ----  Spin Dipole Couplings  ----
                      3XX-RR        3YY-RR        3ZZ-RR
 --------------------------------------------------------
     1   Atom        0.132238      0.132238     -0.264477
     2   Atom       -0.132238     -0.132238      0.264477
 --------------------------------------------------------
                        XY            XZ            YZ
 --------------------------------------------------------
     1   Atom        0.000000      0.000000      0.000000
     2   Atom       -0.000000      0.000000     -0.000000
 --------------------------------------------------------


 ---------------------------------------------------------------------------------
              Anisotropic Spin Dipole Couplings in Principal Axis System
 ---------------------------------------------------------------------------------

       Atom             a.u.   MegaHertz   Gauss  10(-4) cm-1        Axes

              Baa    -0.2645   -35.490   -12.664   -11.838 -0.0000 -0.0000  1.0000
     1 C(13)  Bbb     0.1322    17.745     6.332     5.919  0.9625 -0.2712  0.0000
              Bcc     0.1322    17.745     6.332     5.919  0.2712  0.9625  0.0000
 
              Baa    -0.1322   -17.745    -6.332    -5.919  0.2714  0.9625  0.0000
     2 C(13)  Bbb    -0.1322   -17.745    -6.332    -5.919  0.9625 -0.2714 -0.0000
              Bcc     0.2645    35.490    12.664    11.838  0.0000 -0.0000  1.0000
 

 ---------------------------------------------------------------------------------

 No NMR shielding tensors so no spin-rotation constants.
 Leave Link  601 at Sun Apr 18 09:55:05 2021, MaxMem=   104857600 cpu:             100.0 elap:               2.2
 (Enter /s/ls4/users/knvvv/bin/g16sse/l9999.exe)

 Test job not archived.
 1\1\GINC-N178\Stability\UM062X\Gen\C2\KNVVV\18-Apr-2021\0\\#P M062X/GE
 N Integral=UltraFineGrid SCF=NoSymm Stable=(RExt, Opt) IOp(1/33=1)\\Da
 tabase calculations.\\0,1\C,0,0.,0.,-0.62\C,0,0.,0.,0.62\\Version=ES64
 L-G16RevA.03\State=1-SGG\HF=-75.898149\S2=0.886064\S2-1=0.\S2A=0.48319
 \RMSD=1.447e-09\Dipole=0.,0.,0.\Quadrupole=-0.8026809,-0.8026809,1.605
 3618,0.,0.,0.\PG=D*H [C*(C1.C1)]\\@


 THE RARE EARTHS PERPLEX US IN OUR RESEARCHES,
 BAFFLE US IN OUR SPECULATIONS, AND HAUNT US IN OUR
 VERY DREAMS.  THEY STRETCH LIKE AN UNKNOWN BEFORE US,
 MOCKING, MYSTIFYING, AND MURMURING STRANGE REVELATIONS
 AND POSSIBILITIES.  -- SIR WILLIAM CROOKE, 1832-1919
 Job cpu time:       0 days  1 hours 21 minutes 57.0 seconds.
 Elapsed time:       0 days  0 hours  1 minutes 45.4 seconds.
 File lengths (MBytes):  RWF=     34 Int=      0 D2E=      0 Chk=      2 Scr=      1
 Normal termination of Gaussian 16 at Sun Apr 18 09:55:05 2021.
