 Entering Gaussian System, Link 0=/s/ls4/users/knvvv/bin/g16sse/g16
 Input=data/database/M062X--def2-QZVP--BSR36_ch4.gjf
 Output=data/database/M062X--def2-QZVP--BSR36_ch4.log
 Initial command:
 /s/ls4/users/knvvv/bin/g16sse/l1.exe "/s/ls4/users/knvvv/bin/scratch/Gau-11292.inp" -scrdir="/s/ls4/users/knvvv/bin/scratch/"
 Entering Link 1 = /s/ls4/users/knvvv/bin/g16sse/l1.exe PID=     11293.
  
 Copyright (c) 1988,1990,1992,1993,1995,1998,2003,2009,2016,
            Gaussian, Inc.  All Rights Reserved.
  
 This is part of the Gaussian(R) 16 program.  It is based on
 the Gaussian(R) 09 system (copyright 2009, Gaussian, Inc.),
 the Gaussian(R) 03 system (copyright 2003, Gaussian, Inc.),
 the Gaussian(R) 98 system (copyright 1998, Gaussian, Inc.),
 the Gaussian(R) 94 system (copyright 1995, Gaussian, Inc.),
 the Gaussian 92(TM) system (copyright 1992, Gaussian, Inc.),
 the Gaussian 90(TM) system (copyright 1990, Gaussian, Inc.),
 the Gaussian 88(TM) system (copyright 1988, Gaussian, Inc.),
 the Gaussian 86(TM) system (copyright 1986, Carnegie Mellon
 University), and the Gaussian 82(TM) system (copyright 1983,
 Carnegie Mellon University). Gaussian is a federally registered
 trademark of Gaussian, Inc.
  
 This software contains proprietary and confidential information,
 including trade secrets, belonging to Gaussian, Inc.
  
 This software is provided under written license and may be
 used, copied, transmitted, or stored only in accord with that
 written license.
  
 The following legend is applicable only to US Government
 contracts under FAR:
  
                    RESTRICTED RIGHTS LEGEND
  
 Use, reproduction and disclosure by the US Government is
 subject to restrictions as set forth in subparagraphs (a)
 and (c) of the Commercial Computer Software - Restricted
 Rights clause in FAR 52.227-19.
  
 Gaussian, Inc.
 340 Quinnipiac St., Bldg. 40, Wallingford CT 06492
  
  
 ---------------------------------------------------------------
 Warning -- This program may not be used in any manner that
 competes with the business of Gaussian, Inc. or will provide
 assistance to any competitor of Gaussian, Inc.  The licensee
 of this program is prohibited from giving any competitor of
 Gaussian, Inc. access to this program.  By using this program,
 the user acknowledges that Gaussian, Inc. is engaged in the
 business of creating and licensing software in the field of
 computational chemistry and represents and warrants to the
 licensee that it is not a competitor of Gaussian, Inc. and that
 it will not use this program in any manner prohibited above.
 ---------------------------------------------------------------
  

 Cite this work as:
 Gaussian 16, Revision A.03,
 M. J. Frisch, G. W. Trucks, H. B. Schlegel, G. E. Scuseria, 
 M. A. Robb, J. R. Cheeseman, G. Scalmani, V. Barone, 
 G. A. Petersson, H. Nakatsuji, X. Li, M. Caricato, A. V. Marenich, 
 J. Bloino, B. G. Janesko, R. Gomperts, B. Mennucci, H. P. Hratchian, 
 J. V. Ortiz, A. F. Izmaylov, J. L. Sonnenberg, D. Williams-Young, 
 F. Ding, F. Lipparini, F. Egidi, J. Goings, B. Peng, A. Petrone, 
 T. Henderson, D. Ranasinghe, V. G. Zakrzewski, J. Gao, N. Rega, 
 G. Zheng, W. Liang, M. Hada, M. Ehara, K. Toyota, R. Fukuda, 
 J. Hasegawa, M. Ishida, T. Nakajima, Y. Honda, O. Kitao, H. Nakai, 
 T. Vreven, K. Throssell, J. A. Montgomery, Jr., J. E. Peralta, 
 F. Ogliaro, M. J. Bearpark, J. J. Heyd, E. N. Brothers, K. N. Kudin, 
 V. N. Staroverov, T. A. Keith, R. Kobayashi, J. Normand, 
 K. Raghavachari, A. P. Rendell, J. C. Burant, S. S. Iyengar, 
 J. Tomasi, M. Cossi, J. M. Millam, M. Klene, C. Adamo, R. Cammi, 
 J. W. Ochterski, R. L. Martin, K. Morokuma, O. Farkas, 
 J. B. Foresman, and D. J. Fox, Gaussian, Inc., Wallingford CT, 2016.
 
 ******************************************
 Gaussian 16:  ES64L-G16RevA.03 25-Dec-2016
                16-Apr-2021 
 ******************************************
 %RWF=temp24_66683,70GB
 %nprocshared=48
 Will use up to   48 processors via shared memory.
 Default route: MaxDisk=80GB
 ----------------------------------------------------------------------
 #P M062X/Def2QZVP Integral=UltraFineGrid SCF=NoSymm Stable=(RExt, Opt)
  IOp(1/33=1)
 ----------------------------------------------------------------------
 1/33=1,38=1,172=1/1;
 2/12=2,17=6,18=5,40=1/2;
 3/5=45,7=101,11=2,25=1,30=1,74=-55,75=-5/1,2,3;
 4/9=2/1;
 5/5=2,38=5/2;
 6/7=2,8=2,9=2,10=2,28=1/1;
 8/6=1,10=90,11=11/1;
 9/8=-3,42=1,46=1/14;
 5/5=2,8=3,17=40,38=5/8(-2);
 6/7=2,8=2,9=2,10=2,28=1/1;
 99/5=1,9=1/99;
 Leave Link    1 at Fri Apr 16 22:54:25 2021, MaxMem=           0 cpu:               8.4 elap:               0.2
 (Enter /s/ls4/users/knvvv/bin/g16sse/l101.exe)
 ONIOM data not found on unit 2.
 ----------------------
 Database calculations.
 ----------------------
 TstMul:  ICh=     0
 TstMul:  Mul=     1
 TstMul:  ICh=     0
 TstMul:  Mul=     1
 Symbolic Z-matrix:
 Charge =  0 Multiplicity = 1
 C                     0.        0.        0. 
 H                     0.62664  -0.62664   0.62664 
 H                    -0.62664   0.62664   0.62664 
 H                    -0.62664  -0.62664  -0.62664 
 H                     0.62664   0.62664  -0.62664 
 
 RdStrC is calling ZToCFu for IStruc=1 NZ=     5.
 PrtBox:  NBox=     1 Levels=  1 BoxLen=    8.00 SMaxX=        2.37
          Shift=            1.184169            1.184169            1.184169
 Box      1 Number                   0 centers from      1 to      5:
 After GenITR:
 ITRead=  0  0  0  0  0
 MicOpt= -1 -1 -1 -1 -1
 ITRead=  0  0  0  0  0
 MicOpt= -1 -1 -1 -1 -1
 NAtoms=      5 NQM=        5 NQMF=       0 NMMI=      0 NMMIF=      0
                NMic=       0 NMicF=      0.
                    Isotopes and Nuclear Properties:
 (Nuclear quadrupole moments (NQMom) in fm**2, nuclear magnetic moments (NMagM)
  in nuclear magnetons)

  Atom         1           2           3           4           5
 IAtWgt=          12           1           1           1           1
 AtmWgt=  12.0000000   1.0078250   1.0078250   1.0078250   1.0078250
 NucSpn=           0           1           1           1           1
 AtZEff=  -0.0000000  -0.0000000  -0.0000000  -0.0000000  -0.0000000
 NQMom=    0.0000000   0.0000000   0.0000000   0.0000000   0.0000000
 NMagM=    0.0000000   2.7928460   2.7928460   2.7928460   2.7928460
 AtZNuc=   6.0000000   1.0000000   1.0000000   1.0000000   1.0000000
 No MM parameters found.
 Leave Link  101 at Fri Apr 16 22:54:25 2021, MaxMem=   104857600 cpu:               8.6 elap:               0.2
 (Enter /s/ls4/users/knvvv/bin/g16sse/l202.exe)
                          Input orientation:                          
 ---------------------------------------------------------------------
 Center     Atomic      Atomic             Coordinates (Angstroms)
 Number     Number       Type             X           Y           Z
 ---------------------------------------------------------------------
      1          6           0        0.000000    0.000000    0.000000
      2          1           0        0.626635   -0.626635    0.626635
      3          1           0       -0.626635    0.626635    0.626635
      4          1           0       -0.626635   -0.626635   -0.626635
      5          1           0        0.626635    0.626635   -0.626635
 ---------------------------------------------------------------------
                    Distance matrix (angstroms):
                    1          2          3          4          5
     1  C    0.000000
     2  H    1.085364   0.000000
     3  H    1.085364   1.772392   0.000000
     4  H    1.085364   1.772392   1.772392   0.000000
     5  H    1.085364   1.772392   1.772392   1.772392   0.000000
 Stoichiometry    CH4
 Framework group  TD[O(C),4C3(H)]
 Deg. of freedom     1
 Full point group                 TD      NOp  24
 Largest Abelian subgroup         D2      NOp   4
 Largest concise Abelian subgroup D2      NOp   4
                         Standard orientation:                         
 ---------------------------------------------------------------------
 Center     Atomic      Atomic             Coordinates (Angstroms)
 Number     Number       Type             X           Y           Z
 ---------------------------------------------------------------------
      1          6           0        0.000000    0.000000    0.000000
      2          1           0        0.626635    0.626635    0.626635
      3          1           0       -0.626635   -0.626635    0.626635
      4          1           0        0.626635   -0.626635   -0.626635
      5          1           0       -0.626635    0.626635   -0.626635
 ---------------------------------------------------------------------
 Rotational constants (GHZ):         159.6292705         159.6292705         159.6292705
 Leave Link  202 at Fri Apr 16 22:54:26 2021, MaxMem=   104857600 cpu:              15.8 elap:               0.4
 (Enter /s/ls4/users/knvvv/bin/g16sse/l301.exe)
 Standard basis: def2QZVP (5D, 7F)
 Ernie: Thresh=  0.10000D-02 Tol=  0.10000D-05 Strict=F.
 There are    59 symmetry adapted cartesian basis functions of A   symmetry.
 There are    51 symmetry adapted cartesian basis functions of B1  symmetry.
 There are    51 symmetry adapted cartesian basis functions of B2  symmetry.
 There are    51 symmetry adapted cartesian basis functions of B3  symmetry.
 There are    48 symmetry adapted basis functions of A   symmetry.
 There are    43 symmetry adapted basis functions of B1  symmetry.
 There are    43 symmetry adapted basis functions of B2  symmetry.
 There are    43 symmetry adapted basis functions of B3  symmetry.
   177 basis functions,   244 primitive gaussians,   212 cartesian basis functions
     5 alpha electrons        5 beta electrons
       nuclear repulsion energy        13.4927773430 Hartrees.
 IExCor= 4336 DFT=T Ex+Corr=M062X ExCW=0 ScaHFX=  0.540000
 ScaDFX=  1.000000  1.000000  1.000000  1.000000 ScalE2=  1.000000  1.000000
 IRadAn=      5 IRanWt=     -1 IRanGd=            0 ICorTp=0 IEmpDi=  4
 NAtoms=    5 NActive=    5 NUniq=    2 SFac= 4.00D+00 NAtFMM=   60 NAOKFM=F Big=F
 Integral buffers will be    131072 words long.
 Raffenetti 2 integral format.
 Two-electron integral symmetry is turned on.
 Leave Link  301 at Fri Apr 16 22:54:26 2021, MaxMem=   104857600 cpu:               6.1 elap:               0.1
 (Enter /s/ls4/users/knvvv/bin/g16sse/l302.exe)
 NPDir=0 NMtPBC=     1 NCelOv=     1 NCel=       1 NClECP=     1 NCelD=      1
         NCelK=      1 NCelE2=     1 NClLst=     1 CellRange=     0.0.
 One-electron integrals computed using PRISM.
 One-electron integral symmetry used in STVInt
 PrsmSu:  requested number of processors reduced to:   4 ShMem   1 Linda.
 PrsmSu:  requested number of processors reduced to:  21 ShMem   1 Linda.
  24 Symmetry operations used in ECPInt.
 ECPInt:  NShTT=    1653 NPrTT=    3384 LenC2=    1654 LenP2D=    3252.
 LDataN:  DoStor=T MaxTD1= 8 Len=  415
 Number of processors reduced to  35 by ecpmxn.
 NBasis=   177 RedAO= T EigKep=  1.36D-04  NBF=    48    43    43    43
 NBsUse=   177 1.00D-06 EigRej= -1.00D+00 NBFU=    48    43    43    43
 Precomputing XC quadrature grid using
 IXCGrd= 4 IRadAn=           5 IRanWt=          -1 IRanGd=           0 AccXCQ= 0.00D+00.
 Generated NRdTot=       0 NPtTot=           0 NUsed=           0 NTot=          32
 NSgBfM=   212   212   212   212   212 MxSgAt=     5 MxSgA2=     5.
 Leave Link  302 at Fri Apr 16 22:54:26 2021, MaxMem=   104857600 cpu:              22.2 elap:               0.6
 (Enter /s/ls4/users/knvvv/bin/g16sse/l303.exe)
 DipDrv:  MaxL=1.
 Leave Link  303 at Fri Apr 16 22:54:27 2021, MaxMem=   104857600 cpu:              26.8 elap:               0.6
 (Enter /s/ls4/users/knvvv/bin/g16sse/l401.exe)
 SCF N**3 symmetry information disabled.
 ExpMin= 7.60D-02 ExpMax= 6.70D+04 ExpMxC= 6.47D+02 IAcc=3 IRadAn=         5 AccDes= 0.00D+00
 Harris functional with IExCor= 1009 and IRadAn=       5 diagonalized for initial guess.
 HarFok:  IExCor= 1009 AccDes= 0.00D+00 IRadAn=         5 IDoV= 1 UseB2=F ITyADJ=14
 ICtDFT=  3500011 ScaDFX=  1.000000  1.000000  1.000000  1.000000
 FoFCou: FMM=F IPFlag=           0 FMFlag=      100000 FMFlg1=           0
         NFxFlg=           0 DoJE=T BraDBF=F KetDBF=T FulRan=T
         wScrn=  0.000000 ICntrl=       500 IOpCl=  0 I1Cent=   200000004 NGrid=           0
         NMat0=    1 NMatS0=      1 NMatT0=    0 NMatD0=    1 NMtDS0=    0 NMtDT0=    0
 Petite list used in FoFCou.
 CoulSu:  requested number of processors reduced to:  21 ShMem   1 Linda.
 CoulSu:  requested number of processors reduced to:  21 ShMem   1 Linda.
 CoulSu:  requested number of processors reduced to:  21 ShMem   1 Linda.
 CoulSu:  requested number of processors reduced to:  21 ShMem   1 Linda.
 Harris En= -40.5457656470965    
 JPrj=0 DoOrth=F DoCkMO=F.
 Initial guess orbital symmetries:
       Occupied  (A1) (A1) (T2) (T2) (T2)
       Virtual   (A1) (T2) (T2) (T2) (T2) (T2) (T2) (T2) (T2) (T2)
                 (A1) (E) (E) (A1) (T2) (T2) (T2) (T1) (T1) (T1)
                 (T2) (T2) (T2) (T2) (T2) (T2) (A1) (T2) (T2) (T2)
                 (E) (E) (A1) (T2) (T2) (T2) (E) (E) (T1) (T1)
                 (T1) (T2) (T2) (T2) (A1) (T2) (T2) (T2) (T1) (T1)
                 (T1) (E) (E) (A1) (T2) (T2) (T2) (E) (E) (T2)
                 (T2) (T2) (T1) (T1) (T1) (A1) (T2) (T2) (T2) (T2)
                 (T2) (T2) (T1) (T1) (T1) (A1) (T2) (T2) (T2) (E)
                 (E) (T2) (T2) (T2) (E) (E) (T1) (T1) (T1) (A1)
                 (T2) (T2) (T2) (T2) (T2) (T2) (A2) (T1) (T1) (T1)
                 (T1) (T1) (T1) (A1) (T2) (T2) (T2) (A1) (T2) (T2)
                 (T2) (E) (E) (A1) (T1) (T1) (T1) (E) (E) (T2)
                 (T2) (T2) (T2) (T2) (T2) (E) (E) (T1) (T1) (T1)
                 (T2) (T2) (T2) (A1) (A1) (T2) (T2) (T2) (E) (E)
                 (T1) (T1) (T1) (T2) (T2) (T2) (T2) (T2) (T2) (T1)
                 (T1) (T1) (E) (E) (T2) (T2) (T2) (E) (E) (T2)
                 (T2) (T2) (A1) (T1) (T1) (T1) (T2) (T2) (T2) (A1)
                 (A1) (A1)
 The electronic state of the initial guess is 1-A1.
 Leave Link  401 at Fri Apr 16 22:54:47 2021, MaxMem=   104857600 cpu:             946.1 elap:              20.3
 (Enter /s/ls4/users/knvvv/bin/g16sse/l502.exe)
 Integral symmetry usage will be decided dynamically.
 Closed shell SCF:
 Using DIIS extrapolation, IDIIS=  1040.
 NGot=   104857600 LenX=   104753225 LenY=   104707840
 Requested convergence on RMS density matrix=1.00D-08 within 128 cycles.
 Requested convergence on MAX density matrix=1.00D-06.
 Requested convergence on             energy=1.00D-06.
 No special actions if energy rises.
 Fock matrices will be formed incrementally for  20 cycles.
 Integral accuracy reduced to 1.0D-05 until final iterations.

 Cycle   1  Pass 0  IDiag  1:
 FoFJK:  IHMeth= 1 ICntrl=       0 DoSepK=F KAlg= 0 I1Cent=           0 FoldK=F
 IRaf= 990000000 NMat=       1 IRICut=       1 DoRegI=T DoRafI=F ISym2E= 1 IDoP0=0 IntGTp=1.
 FoFCou: FMM=F IPFlag=           0 FMFlag=      100000 FMFlg1=           0
         NFxFlg=           0 DoJE=F BraDBF=F KetDBF=F FulRan=T
         wScrn=  0.000000 ICntrl=         0 IOpCl=  0 I1Cent=           0 NGrid=           0
         NMat0=    1 NMatS0=      1 NMatT0=    0 NMatD0=    1 NMtDS0=    0 NMtDT0=    0
 Petite list used in FoFCou.
 CoulSu:  requested number of processors reduced to:  21 ShMem   1 Linda.
 E= -40.4058626467509    
 DIIS: error= 4.64D-02 at cycle   1 NSaved=   1.
 NSaved= 1 IEnMin= 1 EnMin= -40.4058626467509     IErMin= 1 ErrMin= 4.64D-02
 ErrMax= 4.64D-02  0.00D+00 EMaxC= 1.00D-01 BMatC= 1.21D-01 BMatP= 1.21D-01
 IDIUse=3 WtCom= 5.36D-01 WtEn= 4.64D-01
 Coeff-Com:  0.100D+01
 Coeff-En:   0.100D+01
 Coeff:      0.100D+01
 Gap=     0.414 Goal=   None    Shift=    0.000
 GapD=    0.414 DampG=2.000 DampE=0.500 DampFc=1.0000 IDamp=-1.
 RMSDP=1.34D-03 MaxDP=4.54D-02              OVMax= 1.74D-01

 Cycle   2  Pass 0  IDiag  1:
 RMSU=  1.25D-03    CP:  8.94D-01
 CoulSu:  requested number of processors reduced to:  21 ShMem   1 Linda.
 E= -40.4371984088238     Delta-E=       -0.031335762073 Rises=F Damp=F
 DIIS: error= 4.28D-02 at cycle   2 NSaved=   2.
 NSaved= 2 IEnMin= 2 EnMin= -40.4371984088238     IErMin= 2 ErrMin= 4.28D-02
 ErrMax= 4.28D-02  0.00D+00 EMaxC= 1.00D-01 BMatC= 7.04D-02 BMatP= 1.21D-01
 IDIUse=3 WtCom= 5.72D-01 WtEn= 4.28D-01
 Coeff-Com:  0.428D+00 0.572D+00
 Coeff-En:   0.396D+00 0.604D+00
 Coeff:      0.415D+00 0.585D+00
 Gap=     0.511 Goal=   None    Shift=    0.000
 RMSDP=8.17D-04 MaxDP=5.68D-02 DE=-3.13D-02 OVMax= 8.50D-02

 Cycle   3  Pass 0  IDiag  1:
 RMSU=  5.64D-04    CP:  9.68D-01  6.09D-01
 CoulSu:  requested number of processors reduced to:  21 ShMem   1 Linda.
 E= -40.5058368129573     Delta-E=       -0.068638404134 Rises=F Damp=F
 DIIS: error= 3.82D-03 at cycle   3 NSaved=   3.
 NSaved= 3 IEnMin= 3 EnMin= -40.5058368129573     IErMin= 3 ErrMin= 3.82D-03
 ErrMax= 3.82D-03  0.00D+00 EMaxC= 1.00D-01 BMatC= 6.51D-04 BMatP= 7.04D-02
 IDIUse=3 WtCom= 9.62D-01 WtEn= 3.82D-02
 Coeff-Com: -0.246D-01 0.591D-01 0.966D+00
 Coeff-En:   0.000D+00 0.000D+00 0.100D+01
 Coeff:     -0.237D-01 0.568D-01 0.967D+00
 Gap=     0.508 Goal=   None    Shift=    0.000
 RMSDP=1.29D-04 MaxDP=7.06D-03 DE=-6.86D-02 OVMax= 7.31D-03

 Cycle   4  Pass 0  IDiag  1:
 RMSU=  5.44D-05    CP:  9.63D-01  6.68D-01  1.16D+00
 CoulSu:  requested number of processors reduced to:  21 ShMem   1 Linda.
 E= -40.5064181146420     Delta-E=       -0.000581301685 Rises=F Damp=F
 DIIS: error= 1.21D-04 at cycle   4 NSaved=   4.
 NSaved= 4 IEnMin= 4 EnMin= -40.5064181146420     IErMin= 4 ErrMin= 1.21D-04
 ErrMax= 1.21D-04  0.00D+00 EMaxC= 1.00D-01 BMatC= 1.16D-06 BMatP= 6.51D-04
 IDIUse=3 WtCom= 9.99D-01 WtEn= 1.21D-03
 Coeff-Com: -0.593D-03-0.760D-02-0.419D-01 0.105D+01
 Coeff-En:   0.000D+00 0.000D+00 0.000D+00 0.100D+01
 Coeff:     -0.593D-03-0.760D-02-0.419D-01 0.105D+01
 Gap=     0.508 Goal=   None    Shift=    0.000
 RMSDP=1.75D-05 MaxDP=5.14D-04 DE=-5.81D-04 OVMax= 2.09D-04

 Cycle   5  Pass 0  IDiag  1:
 RMSU=  7.60D-06    CP:  9.62D-01  6.70D-01  1.18D+00  1.15D+00
 CoulSu:  requested number of processors reduced to:  21 ShMem   1 Linda.
 E= -40.5064187750517     Delta-E=       -0.000000660410 Rises=F Damp=F
 DIIS: error= 2.17D-05 at cycle   5 NSaved=   5.
 NSaved= 5 IEnMin= 5 EnMin= -40.5064187750517     IErMin= 5 ErrMin= 2.17D-05
 ErrMax= 2.17D-05  0.00D+00 EMaxC= 1.00D-01 BMatC= 1.90D-08 BMatP= 1.16D-06
 IDIUse=1 WtCom= 1.00D+00 WtEn= 0.00D+00
 Coeff-Com:  0.128D-03-0.347D-03-0.563D-03-0.142D-01 0.101D+01
 Coeff:      0.128D-03-0.347D-03-0.563D-03-0.142D-01 0.101D+01
 Gap=     0.508 Goal=   None    Shift=    0.000
 RMSDP=6.21D-07 MaxDP=3.44D-05 DE=-6.60D-07 OVMax= 3.60D-05

 Initial convergence to 1.0D-05 achieved.  Increase integral accuracy.
 Cycle   6  Pass 1  IDiag  1:
 CoulSu:  requested number of processors reduced to:  21 ShMem   1 Linda.
 E= -40.5063905584218     Delta-E=        0.000028216630 Rises=F Damp=F
 DIIS: error= 5.79D-05 at cycle   1 NSaved=   1.
 NSaved= 1 IEnMin= 1 EnMin= -40.5063905584218     IErMin= 1 ErrMin= 5.79D-05
 ErrMax= 5.79D-05  0.00D+00 EMaxC= 1.00D-01 BMatC= 4.60D-07 BMatP= 4.60D-07
 IDIUse=1 WtCom= 1.00D+00 WtEn= 0.00D+00
 Coeff-Com:  0.100D+01
 Coeff:      0.100D+01
 Gap=     0.508 Goal=   None    Shift=    0.000
 RMSDP=6.21D-07 MaxDP=3.44D-05 DE= 2.82D-05 OVMax= 7.35D-05

 Cycle   7  Pass 1  IDiag  1:
 RMSU=  1.09D-05    CP:  1.00D+00
 CoulSu:  requested number of processors reduced to:  21 ShMem   1 Linda.
 E= -40.5063906974759     Delta-E=       -0.000000139054 Rises=F Damp=F
 DIIS: error= 6.00D-06 at cycle   2 NSaved=   2.
 NSaved= 2 IEnMin= 2 EnMin= -40.5063906974759     IErMin= 2 ErrMin= 6.00D-06
 ErrMax= 6.00D-06  0.00D+00 EMaxC= 1.00D-01 BMatC= 3.64D-09 BMatP= 4.60D-07
 IDIUse=1 WtCom= 1.00D+00 WtEn= 0.00D+00
 Coeff-Com:  0.197D-01 0.980D+00
 Coeff:      0.197D-01 0.980D+00
 Gap=     0.508 Goal=   None    Shift=    0.000
 RMSDP=4.54D-07 MaxDP=3.44D-05 DE=-1.39D-07 OVMax= 2.56D-05

 Cycle   8  Pass 1  IDiag  1:
 RMSU=  4.45D-07    CP:  1.00D+00  1.00D+00
 CoulSu:  requested number of processors reduced to:  21 ShMem   1 Linda.
 E= -40.5063906989151     Delta-E=       -0.000000001439 Rises=F Damp=F
 DIIS: error= 6.14D-06 at cycle   3 NSaved=   3.
 NSaved= 3 IEnMin= 3 EnMin= -40.5063906989151     IErMin= 2 ErrMin= 6.00D-06
 ErrMax= 6.14D-06  0.00D+00 EMaxC= 1.00D-01 BMatC= 1.53D-09 BMatP= 3.64D-09
 IDIUse=1 WtCom= 1.00D+00 WtEn= 0.00D+00
 Coeff-Com: -0.149D-03 0.374D+00 0.626D+00
 Coeff:     -0.149D-03 0.374D+00 0.626D+00
 Gap=     0.508 Goal=   None    Shift=    0.000
 RMSDP=1.29D-07 MaxDP=1.01D-05 DE=-1.44D-09 OVMax= 1.21D-05

 Cycle   9  Pass 1  IDiag  1:
 RMSU=  1.11D-07    CP:  1.00D+00  9.97D-01  1.03D+00
 CoulSu:  requested number of processors reduced to:  21 ShMem   1 Linda.
 E= -40.5063907002573     Delta-E=       -0.000000001342 Rises=F Damp=F
 DIIS: error= 8.58D-07 at cycle   4 NSaved=   4.
 NSaved= 4 IEnMin= 4 EnMin= -40.5063907002573     IErMin= 4 ErrMin= 8.58D-07
 ErrMax= 8.58D-07  0.00D+00 EMaxC= 1.00D-01 BMatC= 4.08D-11 BMatP= 1.53D-09
 IDIUse=1 WtCom= 1.00D+00 WtEn= 0.00D+00
 Coeff-Com: -0.171D-02-0.557D-01 0.859D-01 0.971D+00
 Coeff:     -0.171D-02-0.557D-01 0.859D-01 0.971D+00
 Gap=     0.508 Goal=   None    Shift=    0.000
 RMSDP=4.60D-08 MaxDP=2.17D-06 DE=-1.34D-09 OVMax= 2.13D-06

 Cycle  10  Pass 1  IDiag  1:
 RMSU=  8.74D-09    CP:  1.00D+00  9.98D-01  1.12D+00  1.04D+00
 CoulSu:  requested number of processors reduced to:  21 ShMem   1 Linda.
 E= -40.5063907002971     Delta-E=       -0.000000000040 Rises=F Damp=F
 DIIS: error= 3.95D-08 at cycle   5 NSaved=   5.
 NSaved= 5 IEnMin= 5 EnMin= -40.5063907002971     IErMin= 5 ErrMin= 3.95D-08
 ErrMax= 3.95D-08  0.00D+00 EMaxC= 1.00D-01 BMatC= 5.75D-14 BMatP= 4.08D-11
 IDIUse=1 WtCom= 1.00D+00 WtEn= 0.00D+00
 Coeff-Com:  0.171D-03 0.257D-02-0.135D-01-0.776D-01 0.109D+01
 Coeff:      0.171D-03 0.257D-02-0.135D-01-0.776D-01 0.109D+01
 Gap=     0.508 Goal=   None    Shift=    0.000
 RMSDP=3.07D-09 MaxDP=2.67D-07 DE=-3.98D-11 OVMax= 1.17D-07

 SCF Done:  E(RM062X) =  -40.5063907003     A.U. after   10 cycles
            NFock= 10  Conv=0.31D-08     -V/T= 2.0050
 KE= 4.030478699750D+01 PE=-1.202332104899D+02 EE= 2.592925544906D+01
 Leave Link  502 at Fri Apr 16 22:55:26 2021, MaxMem=   104857600 cpu:            1713.8 elap:              39.0
 (Enter /s/ls4/users/knvvv/bin/g16sse/l601.exe)
 Copying SCF densities to generalized density rwf, IOpCl= 0 IROHF=0.

 **********************************************************************

            Population analysis using the SCF density.

 **********************************************************************

 Orbital symmetries:
       Occupied  (A1) (A1) (T2) (T2) (T2)
       Virtual   (A1) (T2) (T2) (T2) (T2) (T2) (T2) (T2) (T2) (T2)
                 (A1) (E) (E) (A1) (T2) (T2) (T2) (T1) (T1) (T1)
                 (T2) (T2) (T2) (T2) (T2) (T2) (A1) (T2) (T2) (T2)
                 (E) (E) (A1) (T2) (T2) (T2) (E) (E) (T1) (T1)
                 (T1) (T2) (T2) (T2) (A1) (T2) (T2) (T2) (T1) (T1)
                 (T1) (E) (E) (A1) (E) (E) (T2) (T2) (T2) (T2)
                 (T2) (T2) (T1) (T1) (T1) (A1) (T2) (T2) (T2) (T2)
                 (T2) (T2) (T1) (T1) (T1) (A1) (T2) (T2) (T2) (E)
                 (E) (T2) (T2) (T2) (E) (E) (T1) (T1) (T1) (A1)
                 (T2) (T2) (T2) (A2) (T2) (T2) (T2) (T1) (T1) (T1)
                 (T1) (T1) (T1) (A1) (T2) (T2) (T2) (A1) (T2) (T2)
                 (T2) (E) (E) (A1) (T1) (T1) (T1) (E) (E) (T2)
                 (T2) (T2) (T2) (T2) (T2) (E) (E) (T1) (T1) (T1)
                 (T2) (T2) (T2) (A1) (A1) (E) (E) (T1) (T1) (T1)
                 (T2) (T2) (T2) (T2) (T2) (T2) (T2) (T2) (T2) (T1)
                 (T1) (T1) (E) (E) (T2) (T2) (T2) (E) (E) (T2)
                 (T2) (T2) (A1) (T1) (T1) (T1) (T2) (T2) (T2) (A1)
                 (A1) (A1)
 The electronic state is 1-A1.
 Alpha  occ. eigenvalues --  -10.51701  -0.78758  -0.45730  -0.45730  -0.45730
 Alpha virt. eigenvalues --    0.05097   0.12234   0.12234   0.12234   0.15120
 Alpha virt. eigenvalues --    0.15120   0.15120   0.36501   0.36501   0.36501
 Alpha virt. eigenvalues --    0.37678   0.42621   0.42621   0.46368   0.66699
 Alpha virt. eigenvalues --    0.66699   0.66699   0.71409   0.71409   0.71409
 Alpha virt. eigenvalues --    0.76022   0.76022   0.76022   0.95811   0.95811
 Alpha virt. eigenvalues --    0.95811   1.01629   1.07596   1.07596   1.07596
 Alpha virt. eigenvalues --    1.09530   1.09530   1.17695   1.45602   1.45602
 Alpha virt. eigenvalues --    1.45602   1.70928   1.70928   1.84078   1.84078
 Alpha virt. eigenvalues --    1.84078   1.89037   1.89037   1.89037   2.01799
 Alpha virt. eigenvalues --    2.11828   2.11828   2.11828   2.13644   2.13644
 Alpha virt. eigenvalues --    2.13644   2.26707   2.26707   2.46189   2.53027
 Alpha virt. eigenvalues --    2.53027   2.54142   2.54142   2.54142   2.71692
 Alpha virt. eigenvalues --    2.71692   2.71692   2.88586   2.88586   2.88586
 Alpha virt. eigenvalues --    2.95900   2.98637   2.98637   2.98637   3.11896
 Alpha virt. eigenvalues --    3.11896   3.11896   3.19636   3.19636   3.19636
 Alpha virt. eigenvalues --    3.38399   3.75939   3.75939   3.75939   3.82027
 Alpha virt. eigenvalues --    3.82027   4.05310   4.05310   4.05310   5.18868
 Alpha virt. eigenvalues --    5.18868   5.30361   5.30361   5.30361   5.54858
 Alpha virt. eigenvalues --    5.59951   5.59951   5.59951   5.74861   5.77855
 Alpha virt. eigenvalues --    5.77855   5.77855   5.87115   5.87115   5.87115
 Alpha virt. eigenvalues --    6.00221   6.00221   6.00221   6.13023   6.24675
 Alpha virt. eigenvalues --    6.24675   6.24675   6.40618   6.44679   6.44679
 Alpha virt. eigenvalues --    6.44679   6.51488   6.51488   6.83481   7.07587
 Alpha virt. eigenvalues --    7.07587   7.07587   7.11167   7.11167   7.21193
 Alpha virt. eigenvalues --    7.21193   7.21193   7.39289   7.39289   7.39289
 Alpha virt. eigenvalues --    7.46731   7.46731   7.49755   7.49755   7.49755
 Alpha virt. eigenvalues --    7.61813   7.61813   7.61813   7.92867   7.99843
 Alpha virt. eigenvalues --    8.07959   8.07959   8.14843   8.14843   8.14843
 Alpha virt. eigenvalues --    8.15752   8.15752   8.15752   8.17521   8.17521
 Alpha virt. eigenvalues --    8.17521   8.57001   8.57001   8.57001   8.74509
 Alpha virt. eigenvalues --    8.74509   8.74509   9.18626   9.18626   9.44323
 Alpha virt. eigenvalues --    9.44323   9.44323   9.57143   9.57143   9.81426
 Alpha virt. eigenvalues --    9.81426   9.81426   9.90261  10.23037  10.23037
 Alpha virt. eigenvalues --   10.23037  11.31782  11.31782  11.31782  13.52907
 Alpha virt. eigenvalues --   29.13278 146.61670
          Condensed to atoms (all electrons):
               1          2          3          4          5
     1  C    5.347249   0.371425   0.371425   0.371425   0.371425
     2  H    0.371425   0.505942  -0.028535  -0.028535  -0.028535
     3  H    0.371425  -0.028535   0.505942  -0.028535  -0.028535
     4  H    0.371425  -0.028535  -0.028535   0.505942  -0.028535
     5  H    0.371425  -0.028535  -0.028535  -0.028535   0.505942
 Mulliken charges:
               1
     1  C   -0.832949
     2  H    0.208237
     3  H    0.208237
     4  H    0.208237
     5  H    0.208237
 Sum of Mulliken charges =  -0.00000
 Mulliken charges with hydrogens summed into heavy atoms:
               1
     1  C   -0.000000
 Electronic spatial extent (au):  <R**2>=             35.6310
 Charge=             -0.0000 electrons
 Dipole moment (field-independent basis, Debye):
    X=              0.0000    Y=              0.0000    Z=              0.0000  Tot=              0.0000
 Quadrupole moment (field-independent basis, Debye-Ang):
   XX=             -8.4306   YY=             -8.4306   ZZ=             -8.4306
   XY=             -0.0000   XZ=             -0.0000   YZ=              0.0000
 Traceless Quadrupole moment (field-independent basis, Debye-Ang):
   XX=             -0.0000   YY=             -0.0000   ZZ=              0.0000
   XY=             -0.0000   XZ=             -0.0000   YZ=              0.0000
 Octapole moment (field-independent basis, Debye-Ang**2):
  XXX=              0.0000  YYY=             -0.0000  ZZZ=              0.0000  XYY=             -0.0000
  XXY=             -0.0000  XXZ=              0.0000  XZZ=              0.0000  YZZ=             -0.0000
  YYZ=              0.0000  XYZ=              0.7484
 Hexadecapole moment (field-independent basis, Debye-Ang**3):
 XXXX=            -16.9439 YYYY=            -16.9439 ZZZZ=            -16.9439 XXXY=              0.0000
 XXXZ=              0.0000 YYYX=              0.0000 YYYZ=             -0.0000 ZZZX=             -0.0000
 ZZZY=             -0.0000 XXYY=             -5.1061 XXZZ=             -5.1061 YYZZ=             -5.1061
 XXYZ=             -0.0000 YYXZ=              0.0000 ZZXY=             -0.0000
 N-N= 1.349277734302D+01 E-N=-1.202332099077D+02  KE= 4.030478699750D+01
 PrsmSu:  requested number of processors reduced to:  21 ShMem   1 Linda.
 No NMR shielding tensors so no spin-rotation constants.
 Leave Link  601 at Fri Apr 16 22:55:37 2021, MaxMem=   104857600 cpu:             489.2 elap:              10.5
 (Enter /s/ls4/users/knvvv/bin/g16sse/l801.exe)
 DoSCS=F DFT=T ScalE2(SS,OS)=  1.000000  1.000000
 Range of M.O.s used for correlation:     1   177
 NBasis=   177 NAE=     5 NBE=     5 NFC=     0 NFV=     0
 NROrb=    177 NOA=     5 NOB=     5 NVA=   172 NVB=   172

 **** Warning!!: The largest alpha MO coefficient is  0.40051062D+02

 Leave Link  801 at Fri Apr 16 22:55:37 2021, MaxMem=   104857600 cpu:               3.6 elap:               0.1
 (Enter /s/ls4/users/knvvv/bin/g16sse/l914.exe)
 RHF ground state
 Doing stability rather than CIS.
 Two-electron integrals replicated using symmetry.
 MDV=   104857600 DFT=T DoStab=T Mixed=T DoRPA=F DoScal=F NonHer=F
 Making orbital integer symmetry assigments:
 Orbital symmetries:
       Occupied  (A1) (A1) (T2) (T2) (T2)
       Virtual   (A1) (T2) (T2) (T2) (T2) (T2) (T2) (T2) (T2) (T2)
                 (A1) (E) (E) (A1) (T2) (T2) (T2) (T1) (T1) (T1)
                 (T2) (T2) (T2) (T2) (T2) (T2) (A1) (T2) (T2) (T2)
                 (E) (E) (A1) (T2) (T2) (T2) (E) (E) (T1) (T1)
                 (T1) (T2) (T2) (T2) (A1) (T2) (T2) (T2) (T1) (T1)
                 (T1) (E) (E) (A1) (E) (E) (T2) (T2) (T2) (T2)
                 (T2) (T2) (T1) (T1) (T1) (A1) (T2) (T2) (T2) (T2)
                 (T2) (T2) (T1) (T1) (T1) (A1) (T2) (T2) (T2) (E)
                 (E) (T2) (T2) (T2) (E) (E) (T1) (T1) (T1) (A1)
                 (T2) (T2) (T2) (A2) (T2) (T2) (T2) (T1) (T1) (T1)
                 (T1) (T1) (T1) (A1) (T2) (T2) (T2) (A1) (T2) (T2)
                 (T2) (E) (E) (A1) (T1) (T1) (T1) (E) (E) (T2)
                 (T2) (T2) (T2) (T2) (T2) (E) (E) (T1) (T1) (T1)
                 (T2) (T2) (T2) (A1) (A1) (E) (E) (T1) (T1) (T1)
                 (T2) (T2) (T2) (T2) (T2) (T2) (T2) (T2) (T2) (T1)
                 (T1) (T1) (E) (E) (T2) (T2) (T2) (E) (E) (T2)
                 (T2) (T2) (A1) (T1) (T1) (T1) (T2) (T2) (T2) (A1)
                 (A1) (A1)
    24 initial guesses have been made.
 Convergence on wavefunction:    0.001000000000000
 Davidson Disk Diagonalization:  ConvIn= 1.00D-03 SkipCon=T Conv= 1.00D-03.
 Max sub-space:  2000 roots to seek:    24 dimension of matrix:         1720
 Iteration     1 Dimension    24 NMult     0 NNew     24
 Estimated number of processors is:   19
 CISAX will form     1 AO SS matrices at one time.
 NMat=     1 NSing=     1 JSym2X= 2.
 FoFJK:  IHMeth= 1 ICntrl=       0 DoSepK=F KAlg= 0 I1Cent=           0 FoldK=F
 IRaf= 990000000 NMat=       1 IRICut=       1 DoRegI=T DoRafI=F ISym2E= 2 IDoP0=0 IntGTp=1.
 FoFCou: FMM=F IPFlag=           0 FMFlag=      100000 FMFlg1=           0
         NFxFlg=           0 DoJE=F BraDBF=F KetDBF=F FulRan=T
         wScrn=  0.000000 ICntrl=         0 IOpCl=  0 I1Cent=           0 NGrid=           0
         NMat0=    1 NMatS0=      1 NMatT0=    0 NMatD0=    1 NMtDS0=    0 NMtDT0=    0
 Integrals replicated using symmetry in FoFCou.
 CoulSu:  requested number of processors reduced to:  18 ShMem   1 Linda.
 NMat=     1 NSing=     1 JSym2X= 2.
 CoulSu:  requested number of processors reduced to:  18 ShMem   1 Linda.
 NMat=     1 NSing=     1 JSym2X= 2.
 CoulSu:  requested number of processors reduced to:  18 ShMem   1 Linda.
 NMat=     1 NSing=     1 JSym2X= 2.
 CoulSu:  requested number of processors reduced to:  18 ShMem   1 Linda.
 NMat=     1 NSing=     1 JSym2X= 2.
 CoulSu:  requested number of processors reduced to:  18 ShMem   1 Linda.
 NMat=     1 NSing=     1 JSym2X= 2.
 CoulSu:  requested number of processors reduced to:  18 ShMem   1 Linda.
 NMat=     1 NSing=     1 JSym2X= 2.
 CoulSu:  requested number of processors reduced to:  18 ShMem   1 Linda.
 NMat=     1 NSing=     1 JSym2X= 2.
 CoulSu:  requested number of processors reduced to:  18 ShMem   1 Linda.
 NMat=     1 NSing=     1 JSym2X= 2.
 CoulSu:  requested number of processors reduced to:  18 ShMem   1 Linda.
 NMat=     1 NSing=     1 JSym2X= 2.
 CoulSu:  requested number of processors reduced to:  18 ShMem   1 Linda.
 NMat=     1 NSing=     1 JSym2X= 2.
 CoulSu:  requested number of processors reduced to:  18 ShMem   1 Linda.
 NMat=     1 NSing=     1 JSym2X= 2.
 CoulSu:  requested number of processors reduced to:  18 ShMem   1 Linda.
 NMat=     1 NSing=     0 JSym2X= 2.
 CoulSu:  requested number of processors reduced to:  18 ShMem   1 Linda.
 NMat=     1 NSing=     0 JSym2X= 2.
 CoulSu:  requested number of processors reduced to:  18 ShMem   1 Linda.
 NMat=     1 NSing=     0 JSym2X= 2.
 CoulSu:  requested number of processors reduced to:  18 ShMem   1 Linda.
 NMat=     1 NSing=     0 JSym2X= 2.
 CoulSu:  requested number of processors reduced to:  18 ShMem   1 Linda.
 NMat=     1 NSing=     0 JSym2X= 2.
 CoulSu:  requested number of processors reduced to:  18 ShMem   1 Linda.
 NMat=     1 NSing=     0 JSym2X= 2.
 CoulSu:  requested number of processors reduced to:  18 ShMem   1 Linda.
 NMat=     1 NSing=     0 JSym2X= 2.
 CoulSu:  requested number of processors reduced to:  18 ShMem   1 Linda.
 NMat=     1 NSing=     0 JSym2X= 2.
 CoulSu:  requested number of processors reduced to:  18 ShMem   1 Linda.
 NMat=     1 NSing=     0 JSym2X= 2.
 CoulSu:  requested number of processors reduced to:  18 ShMem   1 Linda.
 NMat=     1 NSing=     0 JSym2X= 2.
 CoulSu:  requested number of processors reduced to:  18 ShMem   1 Linda.
 NMat=     1 NSing=     0 JSym2X= 2.
 CoulSu:  requested number of processors reduced to:  18 ShMem   1 Linda.
 NMat=     1 NSing=     0 JSym2X= 2.
 CoulSu:  requested number of processors reduced to:  18 ShMem   1 Linda.
 New state      1 was old state      6
 Excitation Energies [eV] at current iteration:
 Root      1 :    10.919453380915720
 Root      2 :    10.919453380917170
 Root      3 :    10.919453380919040
 Root      4 :    11.103532818393230
 Root      5 :    11.103532818393560
 Root      6 :    11.103532818394950
 Root      7 :    12.575675797444410
 Root      8 :    12.739091243964720
 Root      9 :    12.739091243970520
 Root     10 :    12.739091243979180
 Root     11 :    12.816559321083950
 Root     12 :    12.816559321084350
 Root     13 :    12.889078059586290
 Root     14 :    12.889078059586670
 Root     15 :    12.889078059587340
 Root     16 :    12.904529270565770
 Root     17 :    12.904529270566040
 Root     18 :    12.904529270567090
 Root     19 :    12.915935378055090
 Root     20 :    12.915935378055610
 Root     21 :    13.117842035805980
 Root     22 :    13.117842035810390
 Root     23 :    13.117842035814820
 Root     24 :    16.887617030220880
 Iteration     2 Dimension    48 NMult    24 NNew     24
 Estimated number of processors is:   19
 CISAX will form     1 AO SS matrices at one time.
 NMat=     1 NSing=     1 JSym2X= 2.
 CoulSu:  requested number of processors reduced to:  18 ShMem   1 Linda.
 NMat=     1 NSing=     1 JSym2X= 2.
 CoulSu:  requested number of processors reduced to:  18 ShMem   1 Linda.
 NMat=     1 NSing=     1 JSym2X= 2.
 CoulSu:  requested number of processors reduced to:  18 ShMem   1 Linda.
 NMat=     1 NSing=     1 JSym2X= 2.
 CoulSu:  requested number of processors reduced to:  18 ShMem   1 Linda.
 NMat=     1 NSing=     1 JSym2X= 2.
 CoulSu:  requested number of processors reduced to:  18 ShMem   1 Linda.
 NMat=     1 NSing=     1 JSym2X= 2.
 CoulSu:  requested number of processors reduced to:  18 ShMem   1 Linda.
 NMat=     1 NSing=     1 JSym2X= 2.
 CoulSu:  requested number of processors reduced to:  18 ShMem   1 Linda.
 NMat=     1 NSing=     1 JSym2X= 2.
 CoulSu:  requested number of processors reduced to:  18 ShMem   1 Linda.
 NMat=     1 NSing=     1 JSym2X= 2.
 CoulSu:  requested number of processors reduced to:  18 ShMem   1 Linda.
 NMat=     1 NSing=     1 JSym2X= 2.
 CoulSu:  requested number of processors reduced to:  18 ShMem   1 Linda.
 NMat=     1 NSing=     1 JSym2X= 2.
 CoulSu:  requested number of processors reduced to:  18 ShMem   1 Linda.
 NMat=     1 NSing=     1 JSym2X= 2.
 CoulSu:  requested number of processors reduced to:  18 ShMem   1 Linda.
 NMat=     1 NSing=     0 JSym2X= 2.
 CoulSu:  requested number of processors reduced to:  18 ShMem   1 Linda.
 NMat=     1 NSing=     0 JSym2X= 2.
 CoulSu:  requested number of processors reduced to:  18 ShMem   1 Linda.
 NMat=     1 NSing=     0 JSym2X= 2.
 CoulSu:  requested number of processors reduced to:  18 ShMem   1 Linda.
 NMat=     1 NSing=     0 JSym2X= 2.
 CoulSu:  requested number of processors reduced to:  18 ShMem   1 Linda.
 NMat=     1 NSing=     0 JSym2X= 2.
 CoulSu:  requested number of processors reduced to:  18 ShMem   1 Linda.
 NMat=     1 NSing=     0 JSym2X= 2.
 CoulSu:  requested number of processors reduced to:  18 ShMem   1 Linda.
 NMat=     1 NSing=     0 JSym2X= 2.
 CoulSu:  requested number of processors reduced to:  18 ShMem   1 Linda.
 NMat=     1 NSing=     0 JSym2X= 2.
 CoulSu:  requested number of processors reduced to:  18 ShMem   1 Linda.
 NMat=     1 NSing=     0 JSym2X= 2.
 CoulSu:  requested number of processors reduced to:  18 ShMem   1 Linda.
 NMat=     1 NSing=     0 JSym2X= 2.
 CoulSu:  requested number of processors reduced to:  18 ShMem   1 Linda.
 NMat=     1 NSing=     0 JSym2X= 2.
 CoulSu:  requested number of processors reduced to:  18 ShMem   1 Linda.
 NMat=     1 NSing=     0 JSym2X= 2.
 CoulSu:  requested number of processors reduced to:  18 ShMem   1 Linda.
 New state      1 was old state      3
 Root      1 not converged, maximum delta is    0.475250462748175
 Excitation Energies [eV] at current iteration:
 Root      1 :    10.431994106257080   Change is   -0.487459274661957
 Root      2 :    10.431994310590120   Change is   -0.487459070327055
 Root      3 :    10.431994426491100   Change is   -0.487458954424624
 Root      4 :    10.956186881015560   Change is   -1.619488916428856
 Root      5 :    10.991497297050000   Change is   -0.112035521343561
 Root      6 :    10.991497377186360   Change is   -0.112035441208593
 Root      7 :    10.991497463997470   Change is   -0.112035354395767
 Root      8 :    12.139616504918860   Change is   -0.599474739060314
 Root      9 :    12.139616801071000   Change is   -0.599474442893719
 Root     10 :    12.139616892342350   Change is   -0.599474351628162
 Root     11 :    12.525076407006190   Change is   -0.291482914077760
 Root     12 :    12.525076508816890   Change is   -0.291482812267465
 Root     13 :    12.639753248951540   Change is   -0.264776021614228
 Root     14 :    12.639753292944960   Change is   -0.264775977622132
 Root     15 :    12.639753350537050   Change is   -0.264775920028987
 Root     16 :    12.723736335495600   Change is   -0.165341724091066
 Root     17 :    12.723736490835000   Change is   -0.165341568751294
 Root     18 :    12.723736572215570   Change is   -0.165341487371779
 Root     19 :    12.783510161495190   Change is   -0.132425216559903
 Root     20 :    12.783510196982840   Change is   -0.132425181072774
 Root     21 :    12.800177436906610   Change is   -0.317664598903781
 Root     22 :    12.800177605964560   Change is   -0.317664429841417
 Root     23 :    12.800177760156090   Change is   -0.317664275658731
 Root     24 :    13.954808013619360   Change is   -2.932809016601527
 Iteration     3 Dimension    54 NMult    48 NNew      6
 Estimated number of processors is:   19
 CISAX will form     1 AO SS matrices at one time.
 NMat=     1 NSing=     1 JSym2X= 2.
 CoulSu:  requested number of processors reduced to:  18 ShMem   1 Linda.
 NMat=     1 NSing=     1 JSym2X= 2.
 CoulSu:  requested number of processors reduced to:  18 ShMem   1 Linda.
 NMat=     1 NSing=     1 JSym2X= 2.
 CoulSu:  requested number of processors reduced to:  18 ShMem   1 Linda.
 NMat=     1 NSing=     0 JSym2X= 2.
 CoulSu:  requested number of processors reduced to:  18 ShMem   1 Linda.
 NMat=     1 NSing=     0 JSym2X= 2.
 CoulSu:  requested number of processors reduced to:  18 ShMem   1 Linda.
 NMat=     1 NSing=     0 JSym2X= 2.
 CoulSu:  requested number of processors reduced to:  18 ShMem   1 Linda.
 New state      1 was old state      3
 Root      1 not converged, maximum delta is    0.528986405359870
 Excitation Energies [eV] at current iteration:
 Root      1 :    10.404509949793470   Change is   -0.027484476697628
 Root      2 :    10.404510008884900   Change is   -0.027484301705213
 Root      3 :    10.404510048539270   Change is   -0.027484057717806
 Root      4 :    10.983912962317400   Change is   -0.007584414868958
 Root      5 :    10.983913008464910   Change is   -0.007584455532555
 Root      6 :    10.983923969094010   Change is   -0.007573327955996
 Iteration     4 Dimension    60 NMult    54 NNew      6
 Estimated number of processors is:   19
 CISAX will form     1 AO SS matrices at one time.
 NMat=     1 NSing=     1 JSym2X= 2.
 CoulSu:  requested number of processors reduced to:  18 ShMem   1 Linda.
 NMat=     1 NSing=     1 JSym2X= 2.
 CoulSu:  requested number of processors reduced to:  18 ShMem   1 Linda.
 NMat=     1 NSing=     1 JSym2X= 2.
 CoulSu:  requested number of processors reduced to:  18 ShMem   1 Linda.
 NMat=     1 NSing=     0 JSym2X= 2.
 CoulSu:  requested number of processors reduced to:  18 ShMem   1 Linda.
 NMat=     1 NSing=     0 JSym2X= 2.
 CoulSu:  requested number of processors reduced to:  18 ShMem   1 Linda.
 NMat=     1 NSing=     0 JSym2X= 2.
 CoulSu:  requested number of processors reduced to:  18 ShMem   1 Linda.
 Root      1 not converged, maximum delta is    0.483912339353316
 Excitation Energies [eV] at current iteration:
 Root      1 :    10.402514089257000   Change is   -0.001995860536469
 Root      2 :    10.402514183313130   Change is   -0.001995865226146
 Root      3 :    10.402514246856760   Change is   -0.001995762028142
 Root      4 :    10.983540773653240   Change is   -0.000372188664161
 Root      5 :    10.983540781083930   Change is   -0.000372227380979
 Root      6 :    10.983541448934370   Change is   -0.000382520159640
 Iteration     5 Dimension    66 NMult    60 NNew      6
 Estimated number of processors is:   19
 CISAX will form     1 AO SS matrices at one time.
 NMat=     1 NSing=     1 JSym2X= 2.
 CoulSu:  requested number of processors reduced to:  18 ShMem   1 Linda.
 NMat=     1 NSing=     1 JSym2X= 2.
 CoulSu:  requested number of processors reduced to:  18 ShMem   1 Linda.
 NMat=     1 NSing=     1 JSym2X= 2.
 CoulSu:  requested number of processors reduced to:  18 ShMem   1 Linda.
 NMat=     1 NSing=     0 JSym2X= 2.
 CoulSu:  requested number of processors reduced to:  18 ShMem   1 Linda.
 NMat=     1 NSing=     0 JSym2X= 2.
 CoulSu:  requested number of processors reduced to:  18 ShMem   1 Linda.
 NMat=     1 NSing=     0 JSym2X= 2.
 CoulSu:  requested number of processors reduced to:  18 ShMem   1 Linda.
 Root      1 not converged, maximum delta is    0.189167201580388
 Excitation Energies [eV] at current iteration:
 Root      1 :    10.402221740621590   Change is   -0.000292348635411
 Root      2 :    10.402221752580150   Change is   -0.000292430732981
 Root      3 :    10.402221817105630   Change is   -0.000292429751133
 Root      4 :    10.983528637628680   Change is   -0.000012143455249
 Root      5 :    10.983528646663770   Change is   -0.000012126989468
 Root      6 :    10.983528666220940   Change is   -0.000012782713426
 Iteration     6 Dimension    72 NMult    66 NNew      6
 Estimated number of processors is:   19
 CISAX will form     1 AO SS matrices at one time.
 NMat=     1 NSing=     1 JSym2X= 2.
 CoulSu:  requested number of processors reduced to:  18 ShMem   1 Linda.
 NMat=     1 NSing=     1 JSym2X= 2.
 CoulSu:  requested number of processors reduced to:  18 ShMem   1 Linda.
 NMat=     1 NSing=     1 JSym2X= 2.
 CoulSu:  requested number of processors reduced to:  18 ShMem   1 Linda.
 NMat=     1 NSing=     0 JSym2X= 2.
 CoulSu:  requested number of processors reduced to:  18 ShMem   1 Linda.
 NMat=     1 NSing=     0 JSym2X= 2.
 CoulSu:  requested number of processors reduced to:  18 ShMem   1 Linda.
 NMat=     1 NSing=     0 JSym2X= 2.
 CoulSu:  requested number of processors reduced to:  18 ShMem   1 Linda.
 New state      1 was old state      2
 Root      1 not converged, maximum delta is    0.239454846857858
 Excitation Energies [eV] at current iteration:
 Root      1 :    10.402197546092540   Change is   -0.000024206487606
 Root      2 :    10.402197558892640   Change is   -0.000024181728957
 Root      3 :    10.402197580751560   Change is   -0.000024236354069
 Root      4 :    10.983528406106520   Change is   -0.000000231522165
 Root      5 :    10.983528416709950   Change is   -0.000000229953820
 Root      6 :    10.983528421468310   Change is   -0.000000244752628
 Iteration     7 Dimension    78 NMult    72 NNew      6
 Estimated number of processors is:   19
 CISAX will form     1 AO SS matrices at one time.
 NMat=     1 NSing=     1 JSym2X= 2.
 CoulSu:  requested number of processors reduced to:  18 ShMem   1 Linda.
 NMat=     1 NSing=     1 JSym2X= 2.
 CoulSu:  requested number of processors reduced to:  18 ShMem   1 Linda.
 NMat=     1 NSing=     1 JSym2X= 2.
 CoulSu:  requested number of processors reduced to:  18 ShMem   1 Linda.
 NMat=     1 NSing=     0 JSym2X= 2.
 CoulSu:  requested number of processors reduced to:  18 ShMem   1 Linda.
 NMat=     1 NSing=     0 JSym2X= 2.
 CoulSu:  requested number of processors reduced to:  18 ShMem   1 Linda.
 NMat=     1 NSing=     0 JSym2X= 2.
 CoulSu:  requested number of processors reduced to:  18 ShMem   1 Linda.
 Root      1 not converged, maximum delta is    0.450344127636674
 Excitation Energies [eV] at current iteration:
 Root      1 :    10.402196786700820   Change is   -0.000000759391724
 Root      2 :    10.402196792660530   Change is   -0.000000788091027
 Root      3 :    10.402196800913400   Change is   -0.000000757979230
 Root      4 :    10.983528401352620   Change is   -0.000000004753895
 Root      5 :    10.983528411975090   Change is   -0.000000004734865
 Root      6 :    10.983528416237330   Change is   -0.000000005230984
 Iteration     8 Dimension    83 NMult    78 NNew      5
 Estimated number of processors is:   19
 CISAX will form     1 AO SS matrices at one time.
 NMat=     1 NSing=     1 JSym2X= 2.
 CoulSu:  requested number of processors reduced to:  18 ShMem   1 Linda.
 NMat=     1 NSing=     1 JSym2X= 2.
 CoulSu:  requested number of processors reduced to:  18 ShMem   1 Linda.
 NMat=     1 NSing=     0 JSym2X= 2.
 CoulSu:  requested number of processors reduced to:  18 ShMem   1 Linda.
 NMat=     1 NSing=     0 JSym2X= 2.
 CoulSu:  requested number of processors reduced to:  18 ShMem   1 Linda.
 NMat=     1 NSing=     0 JSym2X= 2.
 CoulSu:  requested number of processors reduced to:  18 ShMem   1 Linda.
 Root      1 not converged, maximum delta is    0.123794136056704
 Excitation Energies [eV] at current iteration:
 Root      1 :    10.402196767230140   Change is   -0.000000019470676
 Root      2 :    10.402196772975880   Change is   -0.000000019684653
 Root      3 :    10.402196783337610   Change is   -0.000000017575794
 Root      4 :    10.983528401311740   Change is   -0.000000000040886
 Root      5 :    10.983528410114540   Change is   -0.000000001860549
 Root      6 :    10.983528415286430   Change is   -0.000000000950902
 Iteration     9 Dimension    88 NMult    83 NNew      5
 Estimated number of processors is:   19
 CISAX will form     1 AO SS matrices at one time.
 NMat=     1 NSing=     1 JSym2X= 2.
 CoulSu:  requested number of processors reduced to:  18 ShMem   1 Linda.
 NMat=     1 NSing=     1 JSym2X= 2.
 CoulSu:  requested number of processors reduced to:  18 ShMem   1 Linda.
 NMat=     1 NSing=     0 JSym2X= 2.
 CoulSu:  requested number of processors reduced to:  18 ShMem   1 Linda.
 NMat=     1 NSing=     0 JSym2X= 2.
 CoulSu:  requested number of processors reduced to:  18 ShMem   1 Linda.
 NMat=     1 NSing=     0 JSym2X= 2.
 CoulSu:  requested number of processors reduced to:  18 ShMem   1 Linda.
 Root      1 not converged, maximum delta is    0.031536896945351
 Excitation Energies [eV] at current iteration:
 Root      1 :    10.402196765401860   Change is   -0.000000001828284
 Root      2 :    10.402196771392050   Change is   -0.000000001583830
 Root      3 :    10.402196780786070   Change is   -0.000000002551546
 Root      4 :    10.983528401031770   Change is   -0.000000000279963
 Root      5 :    10.983528408516990   Change is   -0.000000001597553
 Root      6 :    10.983528413897830   Change is   -0.000000001388599
 Iteration    10 Dimension    93 NMult    88 NNew      5
 Estimated number of processors is:   19
 CISAX will form     1 AO SS matrices at one time.
 NMat=     1 NSing=     1 JSym2X= 2.
 CoulSu:  requested number of processors reduced to:  18 ShMem   1 Linda.
 NMat=     1 NSing=     1 JSym2X= 2.
 CoulSu:  requested number of processors reduced to:  18 ShMem   1 Linda.
 NMat=     1 NSing=     0 JSym2X= 2.
 CoulSu:  requested number of processors reduced to:  18 ShMem   1 Linda.
 NMat=     1 NSing=     0 JSym2X= 2.
 CoulSu:  requested number of processors reduced to:  18 ShMem   1 Linda.
 NMat=     1 NSing=     0 JSym2X= 2.
 CoulSu:  requested number of processors reduced to:  18 ShMem   1 Linda.
 Root      1 not converged, maximum delta is    0.005000192649953
 Excitation Energies [eV] at current iteration:
 Root      1 :    10.402196764435060   Change is   -0.000000000966802
 Root      2 :    10.402196770070800   Change is   -0.000000001321250
 Root      3 :    10.402196779924150   Change is   -0.000000000861919
 Root      4 :    10.983528399793690   Change is   -0.000000001238082
 Root      5 :    10.983528406869610   Change is   -0.000000001647375
 Root      6 :    10.983528413819790   Change is   -0.000000000078042
 Convergence on energies, max DE= 1.65D-09.
 Convergence on expansion vectors.
 ***********************************************************************
 Stability analysis using <AA,BB:AA,BB> singles matrix:
 ***********************************************************************
 1PDM for each excited state written to RWF  633
 Ground to excited state transition densities written to RWF  633

 Eigenvectors of the stability matrix:
 
 Eigenvector   1:      Triplet-T2   Eigenvalue= 0.3822737  <S**2>=2.000
       3 ->  6        -0.40526
       4 ->  6         0.45249
       5 ->  6        -0.28450
 
 Eigenvector   2:      Triplet-T2   Eigenvalue= 0.3822737  <S**2>=2.000
       3 ->  6        -0.20293
       4 ->  6         0.20004
       5 ->  6         0.60723
       5 -> 16        -0.12116
 
 Eigenvector   3:      Triplet-T2   Eigenvalue= 0.3822737  <S**2>=2.000
       3 ->  6         0.49448
       4 ->  6         0.45295
 
 Eigenvector   4:      Singlet-T2   Eigenvalue= 0.4036372  <S**2>=0.000
       3 ->  6         0.54905
       4 ->  6         0.43721
 
 Eigenvector   5:      Singlet-T2   Eigenvalue= 0.4036372  <S**2>=0.000
       3 ->  6        -0.40160
       4 ->  6         0.49928
       5 ->  6        -0.28653
 
 Eigenvector   6:      Singlet-T2   Eigenvalue= 0.4036372  <S**2>=0.000
       3 ->  6        -0.17300
       4 ->  6         0.22854
       5 ->  6         0.64071
 The wavefunction is stable under the perturbations considered.
 Leave Link  914 at Fri Apr 16 22:59:26 2021, MaxMem=   104857600 cpu:            9148.2 elap:             228.9
 (Enter /s/ls4/users/knvvv/bin/g16sse/l508.exe)
 The wavefunction is already stable.
 Leave Link  508 at Fri Apr 16 22:59:26 2021, MaxMem=   104857600 cpu:               2.2 elap:               0.1
 (Enter /s/ls4/users/knvvv/bin/g16sse/l601.exe)
 Copying SCF densities to generalized density rwf, IOpCl= 0 IROHF=0.

 **********************************************************************

            Population analysis using the SCF density.

 **********************************************************************

 Orbital symmetries:
       Occupied  (A1) (A1) (T2) (T2) (T2)
       Virtual   (A1) (T2) (T2) (T2) (T2) (T2) (T2) (T2) (T2) (T2)
                 (A1) (E) (E) (A1) (T2) (T2) (T2) (T1) (T1) (T1)
                 (T2) (T2) (T2) (T2) (T2) (T2) (A1) (T2) (T2) (T2)
                 (E) (E) (A1) (T2) (T2) (T2) (E) (E) (T1) (T1)
                 (T1) (T2) (T2) (T2) (A1) (T2) (T2) (T2) (T1) (T1)
                 (T1) (E) (E) (A1) (E) (E) (T2) (T2) (T2) (T2)
                 (T2) (T2) (T1) (T1) (T1) (A1) (T2) (T2) (T2) (T2)
                 (T2) (T2) (T1) (T1) (T1) (A1) (T2) (T2) (T2) (E)
                 (E) (T2) (T2) (T2) (E) (E) (T1) (T1) (T1) (A1)
                 (T2) (T2) (T2) (A2) (T2) (T2) (T2) (T1) (T1) (T1)
                 (T1) (T1) (T1) (A1) (T2) (T2) (T2) (A1) (T2) (T2)
                 (T2) (E) (E) (A1) (T1) (T1) (T1) (E) (E) (T2)
                 (T2) (T2) (T2) (T2) (T2) (E) (E) (T1) (T1) (T1)
                 (T2) (T2) (T2) (A1) (A1) (E) (E) (T1) (T1) (T1)
                 (T2) (T2) (T2) (T2) (T2) (T2) (T2) (T2) (T2) (T1)
                 (T1) (T1) (E) (E) (T2) (T2) (T2) (E) (E) (T2)
                 (T2) (T2) (A1) (T1) (T1) (T1) (T2) (T2) (T2) (A1)
                 (A1) (A1)
 The electronic state is 1-A1.
 Alpha  occ. eigenvalues --  -10.51701  -0.78758  -0.45730  -0.45730  -0.45730
 Alpha virt. eigenvalues --    0.05097   0.12234   0.12234   0.12234   0.15120
 Alpha virt. eigenvalues --    0.15120   0.15120   0.36501   0.36501   0.36501
 Alpha virt. eigenvalues --    0.37678   0.42621   0.42621   0.46368   0.66699
 Alpha virt. eigenvalues --    0.66699   0.66699   0.71409   0.71409   0.71409
 Alpha virt. eigenvalues --    0.76022   0.76022   0.76022   0.95811   0.95811
 Alpha virt. eigenvalues --    0.95811   1.01629   1.07596   1.07596   1.07596
 Alpha virt. eigenvalues --    1.09530   1.09530   1.17695   1.45602   1.45602
 Alpha virt. eigenvalues --    1.45602   1.70928   1.70928   1.84078   1.84078
 Alpha virt. eigenvalues --    1.84078   1.89037   1.89037   1.89037   2.01799
 Alpha virt. eigenvalues --    2.11828   2.11828   2.11828   2.13644   2.13644
 Alpha virt. eigenvalues --    2.13644   2.26707   2.26707   2.46189   2.53027
 Alpha virt. eigenvalues --    2.53027   2.54142   2.54142   2.54142   2.71692
 Alpha virt. eigenvalues --    2.71692   2.71692   2.88586   2.88586   2.88586
 Alpha virt. eigenvalues --    2.95900   2.98637   2.98637   2.98637   3.11896
 Alpha virt. eigenvalues --    3.11896   3.11896   3.19636   3.19636   3.19636
 Alpha virt. eigenvalues --    3.38399   3.75939   3.75939   3.75939   3.82027
 Alpha virt. eigenvalues --    3.82027   4.05310   4.05310   4.05310   5.18868
 Alpha virt. eigenvalues --    5.18868   5.30361   5.30361   5.30361   5.54858
 Alpha virt. eigenvalues --    5.59951   5.59951   5.59951   5.74861   5.77855
 Alpha virt. eigenvalues --    5.77855   5.77855   5.87115   5.87115   5.87115
 Alpha virt. eigenvalues --    6.00221   6.00221   6.00221   6.13023   6.24675
 Alpha virt. eigenvalues --    6.24675   6.24675   6.40618   6.44679   6.44679
 Alpha virt. eigenvalues --    6.44679   6.51488   6.51488   6.83481   7.07587
 Alpha virt. eigenvalues --    7.07587   7.07587   7.11167   7.11167   7.21193
 Alpha virt. eigenvalues --    7.21193   7.21193   7.39289   7.39289   7.39289
 Alpha virt. eigenvalues --    7.46731   7.46731   7.49755   7.49755   7.49755
 Alpha virt. eigenvalues --    7.61813   7.61813   7.61813   7.92867   7.99843
 Alpha virt. eigenvalues --    8.07959   8.07959   8.14843   8.14843   8.14843
 Alpha virt. eigenvalues --    8.15752   8.15752   8.15752   8.17521   8.17521
 Alpha virt. eigenvalues --    8.17521   8.57001   8.57001   8.57001   8.74509
 Alpha virt. eigenvalues --    8.74509   8.74509   9.18626   9.18626   9.44323
 Alpha virt. eigenvalues --    9.44323   9.44323   9.57143   9.57143   9.81426
 Alpha virt. eigenvalues --    9.81426   9.81426   9.90261  10.23037  10.23037
 Alpha virt. eigenvalues --   10.23037  11.31782  11.31782  11.31782  13.52907
 Alpha virt. eigenvalues --   29.13278 146.61670
          Condensed to atoms (all electrons):
               1          2          3          4          5
     1  C    5.347249   0.371425   0.371425   0.371425   0.371425
     2  H    0.371425   0.505942  -0.028535  -0.028535  -0.028535
     3  H    0.371425  -0.028535   0.505942  -0.028535  -0.028535
     4  H    0.371425  -0.028535  -0.028535   0.505942  -0.028535
     5  H    0.371425  -0.028535  -0.028535  -0.028535   0.505942
 Mulliken charges:
               1
     1  C   -0.832949
     2  H    0.208237
     3  H    0.208237
     4  H    0.208237
     5  H    0.208237
 Sum of Mulliken charges =  -0.00000
 Mulliken charges with hydrogens summed into heavy atoms:
               1
     1  C   -0.000000
 Electronic spatial extent (au):  <R**2>=             35.6310
 Charge=             -0.0000 electrons
 Dipole moment (field-independent basis, Debye):
    X=              0.0000    Y=              0.0000    Z=              0.0000  Tot=              0.0000
 Quadrupole moment (field-independent basis, Debye-Ang):
   XX=             -8.4306   YY=             -8.4306   ZZ=             -8.4306
   XY=             -0.0000   XZ=             -0.0000   YZ=              0.0000
 Traceless Quadrupole moment (field-independent basis, Debye-Ang):
   XX=             -0.0000   YY=             -0.0000   ZZ=              0.0000
   XY=             -0.0000   XZ=             -0.0000   YZ=              0.0000
 Octapole moment (field-independent basis, Debye-Ang**2):
  XXX=              0.0000  YYY=             -0.0000  ZZZ=              0.0000  XYY=             -0.0000
  XXY=             -0.0000  XXZ=              0.0000  XZZ=              0.0000  YZZ=             -0.0000
  YYZ=              0.0000  XYZ=              0.7484
 Hexadecapole moment (field-independent basis, Debye-Ang**3):
 XXXX=            -16.9439 YYYY=            -16.9439 ZZZZ=            -16.9439 XXXY=              0.0000
 XXXZ=              0.0000 YYYX=              0.0000 YYYZ=             -0.0000 ZZZX=             -0.0000
 ZZZY=             -0.0000 XXYY=             -5.1061 XXZZ=             -5.1061 YYZZ=             -5.1061
 XXYZ=             -0.0000 YYXZ=              0.0000 ZZXY=             -0.0000
 N-N= 1.349277734302D+01 E-N=-1.202332099077D+02  KE= 4.030478699750D+01
 PrsmSu:  requested number of processors reduced to:  21 ShMem   1 Linda.
 No NMR shielding tensors so no spin-rotation constants.
 Leave Link  601 at Fri Apr 16 22:59:37 2021, MaxMem=   104857600 cpu:             510.0 elap:              11.0
 (Enter /s/ls4/users/knvvv/bin/g16sse/l9999.exe)

 Test job not archived.
 1\1\GINC-N306\Stability\RM062X\def2QZVP\C1H4\KNVVV\16-Apr-2021\0\\#P M
 062X/Def2QZVP Integral=UltraFineGrid SCF=NoSymm Stable=(RExt, Opt) IOp
 (1/33=1)\\Database calculations.\\0,1\C,0,0.,0.,0.\H,0,0.6266351761,-0
 .6266351761,0.6266351761\H,0,-0.6266351761,0.6266351761,0.6266351761\H
 ,0,-0.6266351761,-0.6266351761,-0.6266351761\H,0,0.6266351761,0.626635
 1761,-0.6266351761\\Version=ES64L-G16RevA.03\State=1-A1\HF=-40.5063907
 \RMSD=3.068e-09\Dipole=0.,0.,0.\Quadrupole=0.,0.,0.,0.,0.,0.\PG=TD [O(
 C1),4C3(H1)]\\@


 SUPPORT THE RIGHT TO ARM BEARS!
 (ADD A CLAWS TO THE BILL OF RIGHTS)
 Job cpu time:       0 days  3 hours 35 minutes  8.0 seconds.
 Elapsed time:       0 days  0 hours  5 minutes 12.2 seconds.
 File lengths (MBytes):  RWF=     74 Int=      0 D2E=      0 Chk=      7 Scr=      1
 Normal termination of Gaussian 16 at Fri Apr 16 22:59:37 2021.
