 Entering Gaussian System, Link 0=/s/ls4/users/knvvv/bin/g16sse/g16
 Input=data/database/M062X--def2-QZVPPD--126_c2h2_W4-11.gjf
 Output=data/database/M062X--def2-QZVPPD--126_c2h2_W4-11.log
 Initial command:
 /s/ls4/users/knvvv/bin/g16sse/l1.exe "/s/ls4/users/knvvv/bin/scratch/Gau-18657.inp" -scrdir="/s/ls4/users/knvvv/bin/scratch/"
 Entering Link 1 = /s/ls4/users/knvvv/bin/g16sse/l1.exe PID=     18658.
  
 Copyright (c) 1988,1990,1992,1993,1995,1998,2003,2009,2016,
            Gaussian, Inc.  All Rights Reserved.
  
 This is part of the Gaussian(R) 16 program.  It is based on
 the Gaussian(R) 09 system (copyright 2009, Gaussian, Inc.),
 the Gaussian(R) 03 system (copyright 2003, Gaussian, Inc.),
 the Gaussian(R) 98 system (copyright 1998, Gaussian, Inc.),
 the Gaussian(R) 94 system (copyright 1995, Gaussian, Inc.),
 the Gaussian 92(TM) system (copyright 1992, Gaussian, Inc.),
 the Gaussian 90(TM) system (copyright 1990, Gaussian, Inc.),
 the Gaussian 88(TM) system (copyright 1988, Gaussian, Inc.),
 the Gaussian 86(TM) system (copyright 1986, Carnegie Mellon
 University), and the Gaussian 82(TM) system (copyright 1983,
 Carnegie Mellon University). Gaussian is a federally registered
 trademark of Gaussian, Inc.
  
 This software contains proprietary and confidential information,
 including trade secrets, belonging to Gaussian, Inc.
  
 This software is provided under written license and may be
 used, copied, transmitted, or stored only in accord with that
 written license.
  
 The following legend is applicable only to US Government
 contracts under FAR:
  
                    RESTRICTED RIGHTS LEGEND
  
 Use, reproduction and disclosure by the US Government is
 subject to restrictions as set forth in subparagraphs (a)
 and (c) of the Commercial Computer Software - Restricted
 Rights clause in FAR 52.227-19.
  
 Gaussian, Inc.
 340 Quinnipiac St., Bldg. 40, Wallingford CT 06492
  
  
 ---------------------------------------------------------------
 Warning -- This program may not be used in any manner that
 competes with the business of Gaussian, Inc. or will provide
 assistance to any competitor of Gaussian, Inc.  The licensee
 of this program is prohibited from giving any competitor of
 Gaussian, Inc. access to this program.  By using this program,
 the user acknowledges that Gaussian, Inc. is engaged in the
 business of creating and licensing software in the field of
 computational chemistry and represents and warrants to the
 licensee that it is not a competitor of Gaussian, Inc. and that
 it will not use this program in any manner prohibited above.
 ---------------------------------------------------------------
  

 Cite this work as:
 Gaussian 16, Revision A.03,
 M. J. Frisch, G. W. Trucks, H. B. Schlegel, G. E. Scuseria, 
 M. A. Robb, J. R. Cheeseman, G. Scalmani, V. Barone, 
 G. A. Petersson, H. Nakatsuji, X. Li, M. Caricato, A. V. Marenich, 
 J. Bloino, B. G. Janesko, R. Gomperts, B. Mennucci, H. P. Hratchian, 
 J. V. Ortiz, A. F. Izmaylov, J. L. Sonnenberg, D. Williams-Young, 
 F. Ding, F. Lipparini, F. Egidi, J. Goings, B. Peng, A. Petrone, 
 T. Henderson, D. Ranasinghe, V. G. Zakrzewski, J. Gao, N. Rega, 
 G. Zheng, W. Liang, M. Hada, M. Ehara, K. Toyota, R. Fukuda, 
 J. Hasegawa, M. Ishida, T. Nakajima, Y. Honda, O. Kitao, H. Nakai, 
 T. Vreven, K. Throssell, J. A. Montgomery, Jr., J. E. Peralta, 
 F. Ogliaro, M. J. Bearpark, J. J. Heyd, E. N. Brothers, K. N. Kudin, 
 V. N. Staroverov, T. A. Keith, R. Kobayashi, J. Normand, 
 K. Raghavachari, A. P. Rendell, J. C. Burant, S. S. Iyengar, 
 J. Tomasi, M. Cossi, J. M. Millam, M. Klene, C. Adamo, R. Cammi, 
 J. W. Ochterski, R. L. Martin, K. Morokuma, O. Farkas, 
 J. B. Foresman, and D. J. Fox, Gaussian, Inc., Wallingford CT, 2016.
 
 ******************************************
 Gaussian 16:  ES64L-G16RevA.03 25-Dec-2016
                17-Apr-2021 
 ******************************************
 %RWF=temp19_94081,70GB
 %nprocshared=48
 Will use up to   48 processors via shared memory.
 Default route: MaxDisk=80GB
 ----------------------------------------------------------------------
 #P M062X/GEN Integral=UltraFineGrid SCF=NoSymm Stable=(RExt, Opt) IOp(
 1/33=1)
 ----------------------------------------------------------------------
 1/33=1,38=1,172=1/1;
 2/12=2,17=6,18=5,40=1/2;
 3/5=7,11=2,25=1,30=1,74=-55,75=-5/1,2,3;
 4/9=2/1;
 5/5=2,38=5/2;
 6/7=2,8=2,9=2,10=2,28=1/1;
 8/6=1,10=90,11=11/1;
 9/8=-3,42=1,46=1/14;
 5/5=2,8=3,17=40,38=5/8(-2);
 6/7=2,8=2,9=2,10=2,28=1/1;
 99/5=1,9=1/99;
 Leave Link    1 at Sat Apr 17 05:32:55 2021, MaxMem=           0 cpu:               8.1 elap:               0.2
 (Enter /s/ls4/users/knvvv/bin/g16sse/l101.exe)
 ONIOM data not found on unit 2.
 ----------------------
 Database calculations.
 ----------------------
 TstMul:  ICh=     0
 TstMul:  Mul=     1
 TstMul:  ICh=     0
 TstMul:  Mul=     1
 Symbolic Z-matrix:
 Charge =  0 Multiplicity = 1
 C                     0.        0.        0. 
 C                     0.        0.        1.2065 
 H                     0.        0.        2.2699 
 H                     0.        0.       -1.0634 
 
 RdStrC is calling ZToCFu for IStruc=1 NZ=     4.
 PrtBox:  NBox=     1 Levels=  1 BoxLen=    8.00 SMaxX=        6.30
          Shift=            0.000000            0.000000            2.009535
 Box      1 Number                   0 centers from      1 to      4:
 After GenITR:
 ITRead=  0  0  0  0
 MicOpt= -1 -1 -1 -1
 ITRead=  0  0  0  0
 MicOpt= -1 -1 -1 -1
 NAtoms=      4 NQM=        4 NQMF=       0 NMMI=      0 NMMIF=      0
                NMic=       0 NMicF=      0.
                    Isotopes and Nuclear Properties:
 (Nuclear quadrupole moments (NQMom) in fm**2, nuclear magnetic moments (NMagM)
  in nuclear magnetons)

  Atom         1           2           3           4
 IAtWgt=          12          12           1           1
 AtmWgt=  12.0000000  12.0000000   1.0078250   1.0078250
 NucSpn=           0           0           1           1
 AtZEff=  -0.0000000  -0.0000000  -0.0000000  -0.0000000
 NQMom=    0.0000000   0.0000000   0.0000000   0.0000000
 NMagM=    0.0000000   0.0000000   2.7928460   2.7928460
 AtZNuc=   6.0000000   6.0000000   1.0000000   1.0000000
 No MM parameters found.
 Leave Link  101 at Sat Apr 17 05:32:56 2021, MaxMem=   104857600 cpu:               5.3 elap:               0.1
 (Enter /s/ls4/users/knvvv/bin/g16sse/l202.exe)
                          Input orientation:                          
 ---------------------------------------------------------------------
 Center     Atomic      Atomic             Coordinates (Angstroms)
 Number     Number       Type             X           Y           Z
 ---------------------------------------------------------------------
      1          6           0        0.000000    0.000000    0.000000
      2          6           0        0.000000    0.000000    1.206500
      3          1           0        0.000000    0.000000    2.269900
      4          1           0        0.000000    0.000000   -1.063400
 ---------------------------------------------------------------------
                    Distance matrix (angstroms):
                    1          2          3          4
     1  C    0.000000
     2  C    1.206500   0.000000
     3  H    2.269900   1.063400   0.000000
     4  H    1.063400   2.269900   3.333300   0.000000
 Stoichiometry    C2H2
 Framework group  D*H[C*(HC.CH)]
 Deg. of freedom     2
 Full point group                 D*H     NOp   8
 Largest Abelian subgroup         D2H     NOp   8
 Largest concise Abelian subgroup C2      NOp   2
                         Standard orientation:                         
 ---------------------------------------------------------------------
 Center     Atomic      Atomic             Coordinates (Angstroms)
 Number     Number       Type             X           Y           Z
 ---------------------------------------------------------------------
      1          6           0        0.000000    0.000000    0.603250
      2          6           0        0.000000    0.000000   -0.603250
      3          1           0        0.000000    0.000000   -1.666650
      4          1           0       -0.000000    0.000000    1.666650
 ---------------------------------------------------------------------
 Rotational constants (GHZ):           0.0000000          35.2603877          35.2603877
 Leave Link  202 at Sat Apr 17 05:32:56 2021, MaxMem=   104857600 cpu:               7.6 elap:               0.2
 (Enter /s/ls4/users/knvvv/bin/g16sse/l301.exe)
 General basis read from cards:  (5D, 7F)
 Centers:       3      4
 S 4 1.00
     Exponent=  1.9069169000D+02 Coefficients=  7.0815167000D-04
     Exponent=  2.8605532000D+01 Coefficients=  5.4678827000D-03
     Exponent=  6.5095943000D+00 Coefficients=  2.7966605000D-02
     Exponent=  1.8412455000D+00 Coefficients=  1.0764538000D-01
 S 1 1.00
     Exponent=  5.9853725000D-01 Coefficients=  1.0000000000D+00
 S 1 1.00
     Exponent=  2.1397624000D-01 Coefficients=  1.0000000000D+00
 S 1 1.00
     Exponent=  8.0316286000D-02 Coefficients=  1.0000000000D+00
 P 1 1.00
     Exponent=  2.2920000000D+00 Coefficients=  1.0000000000D+00
 P 1 1.00
     Exponent=  8.3800000000D-01 Coefficients=  1.0000000000D+00
 P 1 1.00
     Exponent=  2.9200000000D-01 Coefficients=  1.0000000000D+00
 P 1 1.00
     Exponent=  8.4063199228D-02 Coefficients=  1.0000000000D+00
 D 1 1.00
     Exponent=  2.0620000000D+00 Coefficients=  1.0000000000D+00
 D 1 1.00
     Exponent=  6.6200000000D-01 Coefficients=  1.0000000000D+00
 F 1 1.00
     Exponent=  1.3970000000D+00 Coefficients=  1.0000000000D+00
 ****
 Centers:       1      2
 S 8 1.00
     Exponent=  6.7025071029D+04 Coefficients=  3.8736308501D-05
     Exponent=  1.0039986538D+04 Coefficients=  3.0107917575D-04
     Exponent=  2.2849316911D+03 Coefficients=  1.5787918095D-03
     Exponent=  6.4714122130D+02 Coefficients=  6.6087087195D-03
     Exponent=  2.1109472335D+02 Coefficients=  2.3367123250D-02
     Exponent=  7.6177643862D+01 Coefficients=  7.0420716898D-02
     Exponent=  2.9633839163D+01 Coefficients=  1.7360344953D-01
     Exponent=  1.2187785081D+01 Coefficients=  3.2292305648D-01
 S 2 1.00
     Exponent=  5.3026006299D+01 Coefficients=  7.4897404492D-02
     Exponent=  1.5258502776D+01 Coefficients=  7.6136220983D-01
 S 1 1.00
     Exponent=  5.2403957464D+00 Coefficients=  1.0000000000D+00
 S 1 1.00
     Exponent=  2.2905022379D+00 Coefficients=  1.0000000000D+00
 S 1 1.00
     Exponent=  6.9673283006D-01 Coefficients=  1.0000000000D+00
 S 1 1.00
     Exponent=  2.7599337363D-01 Coefficients=  1.0000000000D+00
 S 1 1.00
     Exponent=  1.0739884389D-01 Coefficients=  1.0000000000D+00
 S 1 1.00
     Exponent=  4.4981404899D-02 Coefficients=  1.0000000000D+00
 P 5 1.00
     Exponent=  1.0512555082D+02 Coefficients=  8.4647553844D-04
     Exponent=  2.4884461066D+01 Coefficients=  6.6274038534D-03
     Exponent=  7.8637230826D+00 Coefficients=  3.0120390419D-02
     Exponent=  2.8407001835D+00 Coefficients=  9.9951435476D-02
     Exponent=  1.1227137335D+00 Coefficients=  2.3826299282D-01
 P 1 1.00
     Exponent=  4.6050725555D-01 Coefficients=  1.0000000000D+00
 P 1 1.00
     Exponent=  1.8937530913D-01 Coefficients=  1.0000000000D+00
 P 1 1.00
     Exponent=  7.5983791611D-02 Coefficients=  1.0000000000D+00
 D 1 1.00
     Exponent=  1.8480000000D+00 Coefficients=  1.0000000000D+00
 D 1 1.00
     Exponent=  6.4900000000D-01 Coefficients=  1.0000000000D+00
 D 1 1.00
     Exponent=  2.2800000000D-01 Coefficients=  1.0000000000D+00
 D 1 1.00
     Exponent=  7.6889830417D-02 Coefficients=  1.0000000000D+00
 F 1 1.00
     Exponent=  1.4190000000D+00 Coefficients=  1.0000000000D+00
 F 1 1.00
     Exponent=  4.8500000000D-01 Coefficients=  1.0000000000D+00
 G 1 1.00
     Exponent=  1.0110000000D+00 Coefficients=  1.0000000000D+00
 ****
 Ernie: Thresh=  0.10000D-02 Tol=  0.10000D-05 Strict=F.
 There are    53 symmetry adapted cartesian basis functions of AG  symmetry.
 There are    12 symmetry adapted cartesian basis functions of B1G symmetry.
 There are    26 symmetry adapted cartesian basis functions of B2G symmetry.
 There are    26 symmetry adapted cartesian basis functions of B3G symmetry.
 There are    12 symmetry adapted cartesian basis functions of AU  symmetry.
 There are    53 symmetry adapted cartesian basis functions of B1U symmetry.
 There are    26 symmetry adapted cartesian basis functions of B2U symmetry.
 There are    26 symmetry adapted cartesian basis functions of B3U symmetry.
 There are    41 symmetry adapted basis functions of AG  symmetry.
 There are    11 symmetry adapted basis functions of B1G symmetry.
 There are    22 symmetry adapted basis functions of B2G symmetry.
 There are    22 symmetry adapted basis functions of B3G symmetry.
 There are    11 symmetry adapted basis functions of AU  symmetry.
 There are    41 symmetry adapted basis functions of B1U symmetry.
 There are    22 symmetry adapted basis functions of B2U symmetry.
 There are    22 symmetry adapted basis functions of B3U symmetry.
   192 basis functions,   280 primitive gaussians,   234 cartesian basis functions
     7 alpha electrons        7 beta electrons
       nuclear repulsion energy        24.7176103045 Hartrees.
 IExCor= 4336 DFT=T Ex+Corr=M062X ExCW=0 ScaHFX=  0.540000
 ScaDFX=  1.000000  1.000000  1.000000  1.000000 ScalE2=  1.000000  1.000000
 IRadAn=      5 IRanWt=     -1 IRanGd=            0 ICorTp=0 IEmpDi=  4
 NAtoms=    4 NActive=    4 NUniq=    2 SFac= 4.00D+00 NAtFMM=   60 NAOKFM=F Big=F
 Integral buffers will be    131072 words long.
 Raffenetti 2 integral format.
 Two-electron integral symmetry is turned on.
 Leave Link  301 at Sat Apr 17 05:32:56 2021, MaxMem=   104857600 cpu:               9.2 elap:               0.2
 (Enter /s/ls4/users/knvvv/bin/g16sse/l302.exe)
 NPDir=0 NMtPBC=     1 NCelOv=     1 NCel=       1 NClECP=     1 NCelD=      1
         NCelK=      1 NCelE2=     1 NClLst=     1 CellRange=     0.0.
 One-electron integrals computed using PRISM.
 One-electron integral symmetry used in STVInt
 PrsmSu:  requested number of processors reduced to:   4 ShMem   1 Linda.
 PrsmSu:  requested number of processors reduced to:  21 ShMem   1 Linda.
 NBasis=   192 RedAO= T EigKep=  1.42D-05  NBF=    41    11    22    22    11    41    22    22
 NBsUse=   191 1.00D-06 EigRej=  1.08D-07 NBFU=    41    11    22    22    11    40    22    22
 Precomputing XC quadrature grid using
 IXCGrd= 4 IRadAn=           5 IRanWt=          -1 IRanGd=           0 AccXCQ= 0.00D+00.
 Generated NRdTot=       0 NPtTot=           0 NUsed=           0 NTot=          32
 NSgBfM=   234   234   234   234   234 MxSgAt=     4 MxSgA2=     4.
 Leave Link  302 at Sat Apr 17 05:33:10 2021, MaxMem=   104857600 cpu:             634.1 elap:              13.6
 (Enter /s/ls4/users/knvvv/bin/g16sse/l303.exe)
 DipDrv:  MaxL=1.
 Leave Link  303 at Sat Apr 17 05:33:10 2021, MaxMem=   104857600 cpu:              34.0 elap:               0.7
 (Enter /s/ls4/users/knvvv/bin/g16sse/l401.exe)
 SCF N**3 symmetry information disabled.
 ExpMin= 4.50D-02 ExpMax= 6.70D+04 ExpMxC= 6.47D+02 IAcc=3 IRadAn=         5 AccDes= 0.00D+00
 Harris functional with IExCor= 1009 and IRadAn=       5 diagonalized for initial guess.
 HarFok:  IExCor= 1009 AccDes= 0.00D+00 IRadAn=         5 IDoV= 1 UseB2=F ITyADJ=14
 ICtDFT=  3500011 ScaDFX=  1.000000  1.000000  1.000000  1.000000
 FoFCou: FMM=F IPFlag=           0 FMFlag=      100000 FMFlg1=           0
         NFxFlg=           0 DoJE=T BraDBF=F KetDBF=T FulRan=T
         wScrn=  0.000000 ICntrl=       500 IOpCl=  0 I1Cent=   200000004 NGrid=           0
         NMat0=    1 NMatS0=      1 NMatT0=    0 NMatD0=    1 NMtDS0=    0 NMtDT0=    0
 Petite list used in FoFCou.
 CoulSu:  requested number of processors reduced to:  21 ShMem   1 Linda.
 CoulSu:  requested number of processors reduced to:  21 ShMem   1 Linda.
 CoulSu:  requested number of processors reduced to:  21 ShMem   1 Linda.
 CoulSu:  requested number of processors reduced to:  21 ShMem   1 Linda.
 Harris En= -77.3326737876601    
 JPrj=0 DoOrth=F DoCkMO=F.
 Initial guess orbital symmetries:
       Occupied  (SGG) (SGU) (SGG) (SGU) (SGG) (PIU) (PIU)
       Virtual   (PIG) (PIG) (SGU) (SGG) (SGG) (SGU) (PIU) (PIU)
                 (DLTG) (DLTG) (PIG) (PIG) (SGG) (SGU) (PIU) (PIU)
                 (SGG) (DLTU) (DLTU) (SGU) (PIG) (PIG) (SGG) (PIU)
                 (PIU) (SGG) (PIG) (PIG) (SGU) (DLTG) (DLTG) (PIU)
                 (PIU) (SGU) (SGU) (SGG) (DLTU) (DLTU) (PIG) (PIG)
                 (PIU) (PIU) (SGG) (SGG) (PIG) (PIG) (SGU) (PIU)
                 (PIU) (SGU) (SGG) (SGU) (PIG) (PIG) (PHIU) (PHIU)
                 (DLTG) (DLTG) (SGU) (SGG) (PIU) (PIU) (DLTG) (DLTG)
                 (PHIG) (PHIG) (SGG) (PIG) (PIG) (DLTU) (DLTU)
                 (DLTU) (DLTU) (PIU) (PIU) (SGG) (SGU) (DLTG) (DLTG)
                 (PIG) (PIG) (PIU) (PIU) (SGG) (SGU) (PIG) (PIG)
                 (PIU) (PIU) (DLTU) (DLTU) (SGU) (SGG) (SGU) (PIG)
                 (PIG) (SGG) (PIU) (PIU) (SGU) (PHIU) (PHIU) (PIG)
                 (PIG) (?A) (?A) (SGG) (SGU) (?B) (?B) (DLTG) (DLTG)
                 (PIU) (PIU) (SGG) (PHIG) (PHIG) (DLTG) (DLTG)
                 (DLTU) (DLTU) (PIU) (PIU) (PHIU) (PHIU) (PIG)
                 (PIG) (DLTG) (DLTG) (PHIG) (PHIG) (PHIU) (PHIU)
                 (DLTU) (DLTU) (SGG) (SGU) (PHIG) (PHIG) (SGU)
                 (PIG) (PIG) (SGG) (DLTU) (DLTU) (SGU) (SGG) (PIU)
                 (PIU) (PIU) (PIU) (DLTG) (DLTG) (PIG) (PIG) (DLTU)
                 (DLTU) (SGG) (DLTG) (DLTG) (SGU) (PIG) (PIG) (SGU)
                 (DLTU) (DLTU) (PIU) (PIU) (SGG) (PIG) (PIG) (SGU)
                 (PIU) (PIU) (SGG) (SGU) (PIG) (PIG) (SGG) (SGU)
                 (SGG) (SGU) (SGG) (SGU)
 The electronic state of the initial guess is 1-SGG.
 Leave Link  401 at Sat Apr 17 05:33:13 2021, MaxMem=   104857600 cpu:             112.9 elap:               2.6
 (Enter /s/ls4/users/knvvv/bin/g16sse/l502.exe)
 Integral symmetry usage will be decided dynamically.
 Closed shell SCF:
 Using DIIS extrapolation, IDIIS=  1040.
 NGot=   104857600 LenX=   104731518 LenY=   104676321
 Requested convergence on RMS density matrix=1.00D-08 within 128 cycles.
 Requested convergence on MAX density matrix=1.00D-06.
 Requested convergence on             energy=1.00D-06.
 No special actions if energy rises.
 Fock matrices will be formed incrementally for  20 cycles.

 Cycle   1  Pass 1  IDiag  1:
 FoFJK:  IHMeth= 1 ICntrl=       0 DoSepK=F KAlg= 0 I1Cent=           0 FoldK=F
 IRaf= 990000000 NMat=       1 IRICut=       1 DoRegI=T DoRafI=F ISym2E= 1 IDoP0=0 IntGTp=1.
 FoFCou: FMM=F IPFlag=           0 FMFlag=      100000 FMFlg1=           0
         NFxFlg=           0 DoJE=F BraDBF=F KetDBF=F FulRan=T
         wScrn=  0.000000 ICntrl=         0 IOpCl=  0 I1Cent=           0 NGrid=           0
         NMat0=    1 NMatS0=      1 NMatT0=    0 NMatD0=    1 NMtDS0=    0 NMtDT0=    0
 Petite list used in FoFCou.
 CoulSu:  requested number of processors reduced to:  21 ShMem   1 Linda.
 E= -77.2443318973539    
 DIIS: error= 4.42D-02 at cycle   1 NSaved=   1.
 NSaved= 1 IEnMin= 1 EnMin= -77.2443318973539     IErMin= 1 ErrMin= 4.42D-02
 ErrMax= 4.42D-02  0.00D+00 EMaxC= 1.00D-01 BMatC= 1.25D-01 BMatP= 1.25D-01
 IDIUse=3 WtCom= 5.58D-01 WtEn= 4.42D-01
 Coeff-Com:  0.100D+01
 Coeff-En:   0.100D+01
 Coeff:      0.100D+01
 Gap=     0.408 Goal=   None    Shift=    0.000
 GapD=    0.408 DampG=2.000 DampE=0.500 DampFc=1.0000 IDamp=-1.
 RMSDP=2.99D-03 MaxDP=1.23D-01              OVMax= 1.64D-01

 Cycle   2  Pass 1  IDiag  1:
 RMSU=  2.50D-03    CP:  7.35D-01
 CoulSu:  requested number of processors reduced to:  21 ShMem   1 Linda.
 E= -77.2851426821800     Delta-E=       -0.040810784826 Rises=F Damp=F
 DIIS: error= 3.80D-02 at cycle   2 NSaved=   2.
 NSaved= 2 IEnMin= 2 EnMin= -77.2851426821800     IErMin= 2 ErrMin= 3.80D-02
 ErrMax= 3.80D-02  0.00D+00 EMaxC= 1.00D-01 BMatC= 4.80D-02 BMatP= 1.25D-01
 IDIUse=3 WtCom= 6.20D-01 WtEn= 3.80D-01
 Coeff-Com:  0.372D+00 0.628D+00
 Coeff-En:   0.308D+00 0.692D+00
 Coeff:      0.348D+00 0.652D+00
 Gap=     0.387 Goal=   None    Shift=    0.000
 RMSDP=1.92D-03 MaxDP=7.86D-02 DE=-4.08D-02 OVMax= 8.09D-02

 Cycle   3  Pass 1  IDiag  1:
 RMSU=  9.94D-04    CP:  8.94D-01  4.71D-01
 CoulSu:  requested number of processors reduced to:  21 ShMem   1 Linda.
 E= -77.3310081909972     Delta-E=       -0.045865508817 Rises=F Damp=F
 DIIS: error= 5.78D-03 at cycle   3 NSaved=   3.
 NSaved= 3 IEnMin= 3 EnMin= -77.3310081909972     IErMin= 3 ErrMin= 5.78D-03
 ErrMax= 5.78D-03  0.00D+00 EMaxC= 1.00D-01 BMatC= 1.25D-03 BMatP= 4.80D-02
 IDIUse=3 WtCom= 9.42D-01 WtEn= 5.78D-02
 Coeff-Com: -0.184D-02 0.135D+00 0.867D+00
 Coeff-En:   0.000D+00 0.000D+00 0.100D+01
 Coeff:     -0.173D-02 0.127D+00 0.874D+00
 Gap=     0.373 Goal=   None    Shift=    0.000
 RMSDP=5.45D-04 MaxDP=2.20D-02 DE=-4.59D-02 OVMax= 1.06D-02

 Cycle   4  Pass 1  IDiag  1:
 RMSU=  2.38D-04    CP:  8.52D-01  6.14D-01  7.81D-01
 CoulSu:  requested number of processors reduced to:  21 ShMem   1 Linda.
 E= -77.3322065058538     Delta-E=       -0.001198314857 Rises=F Damp=F
 DIIS: error= 1.70D-04 at cycle   4 NSaved=   4.
 NSaved= 4 IEnMin= 4 EnMin= -77.3322065058538     IErMin= 4 ErrMin= 1.70D-04
 ErrMax= 1.70D-04  0.00D+00 EMaxC= 1.00D-01 BMatC= 1.95D-06 BMatP= 1.25D-03
 IDIUse=3 WtCom= 9.98D-01 WtEn= 1.70D-03
 Coeff-Com: -0.202D-02-0.123D-01-0.268D-01 0.104D+01
 Coeff-En:   0.000D+00 0.000D+00 0.000D+00 0.100D+01
 Coeff:     -0.201D-02-0.123D-01-0.268D-01 0.104D+01
 Gap=     0.374 Goal=   None    Shift=    0.000
 RMSDP=4.54D-05 MaxDP=1.82D-03 DE=-1.20D-03 OVMax= 6.34D-04

 Cycle   5  Pass 1  IDiag  1:
 RMSU=  1.69D-05    CP:  8.49D-01  6.24D-01  7.79D-01  1.11D+00
 CoulSu:  requested number of processors reduced to:  21 ShMem   1 Linda.
 E= -77.3322084524120     Delta-E=       -0.000001946558 Rises=F Damp=F
 DIIS: error= 1.70D-05 at cycle   5 NSaved=   5.
 NSaved= 5 IEnMin= 5 EnMin= -77.3322084524120     IErMin= 5 ErrMin= 1.70D-05
 ErrMax= 1.70D-05  0.00D+00 EMaxC= 1.00D-01 BMatC= 2.56D-08 BMatP= 1.95D-06
 IDIUse=1 WtCom= 1.00D+00 WtEn= 0.00D+00
 Coeff-Com: -0.461D-06-0.114D-02-0.533D-02 0.390D-02 0.100D+01
 Coeff:     -0.461D-06-0.114D-02-0.533D-02 0.390D-02 0.100D+01
 Gap=     0.374 Goal=   None    Shift=    0.000
 RMSDP=6.65D-06 MaxDP=3.31D-04 DE=-1.95D-06 OVMax= 7.56D-05

 Cycle   6  Pass 1  IDiag  1:
 RMSU=  3.88D-06    CP:  8.49D-01  6.24D-01  7.83D-01  1.10D+00  1.08D+00
 CoulSu:  requested number of processors reduced to:  21 ShMem   1 Linda.
 E= -77.3322084756949     Delta-E=       -0.000000023283 Rises=F Damp=F
 DIIS: error= 3.06D-06 at cycle   6 NSaved=   6.
 NSaved= 6 IEnMin= 6 EnMin= -77.3322084756949     IErMin= 6 ErrMin= 3.06D-06
 ErrMax= 3.06D-06  0.00D+00 EMaxC= 1.00D-01 BMatC= 4.99D-10 BMatP= 2.56D-08
 IDIUse=1 WtCom= 1.00D+00 WtEn= 0.00D+00
 Coeff-Com:  0.252D-04 0.206D-03 0.408D-03-0.190D-01 0.269D-01 0.991D+00
 Coeff:      0.252D-04 0.206D-03 0.408D-03-0.190D-01 0.269D-01 0.991D+00
 Gap=     0.374 Goal=   None    Shift=    0.000
 RMSDP=8.80D-07 MaxDP=3.14D-05 DE=-2.33D-08 OVMax= 9.94D-06

 Cycle   7  Pass 1  IDiag  1:
 RMSU=  1.85D-07    CP:  8.49D-01  6.24D-01  7.83D-01  1.09D+00  1.09D+00
                    CP:  1.18D+00
 CoulSu:  requested number of processors reduced to:  21 ShMem   1 Linda.
 E= -77.3322084763757     Delta-E=       -0.000000000681 Rises=F Damp=F
 DIIS: error= 6.70D-07 at cycle   7 NSaved=   7.
 NSaved= 7 IEnMin= 7 EnMin= -77.3322084763757     IErMin= 7 ErrMin= 6.70D-07
 ErrMax= 6.70D-07  0.00D+00 EMaxC= 1.00D-01 BMatC= 1.50D-11 BMatP= 4.99D-10
 IDIUse=1 WtCom= 1.00D+00 WtEn= 0.00D+00
 Coeff-Com: -0.289D-05 0.145D-04 0.993D-05-0.561D-03-0.189D-01 0.473D-02
 Coeff-Com:  0.101D+01
 Coeff:     -0.289D-05 0.145D-04 0.993D-05-0.561D-03-0.189D-01 0.473D-02
 Coeff:      0.101D+01
 Gap=     0.374 Goal=   None    Shift=    0.000
 RMSDP=1.41D-07 MaxDP=5.57D-06 DE=-6.81D-10 OVMax= 2.01D-06

 Cycle   8  Pass 1  IDiag  1:
 RMSU=  3.25D-08    CP:  8.49D-01  6.24D-01  7.83D-01  1.09D+00  1.10D+00
                    CP:  1.20D+00  1.10D+00
 CoulSu:  requested number of processors reduced to:  21 ShMem   1 Linda.
 E= -77.3322084763940     Delta-E=       -0.000000000018 Rises=F Damp=F
 DIIS: error= 7.21D-08 at cycle   8 NSaved=   8.
 NSaved= 8 IEnMin= 8 EnMin= -77.3322084763940     IErMin= 8 ErrMin= 7.21D-08
 ErrMax= 7.21D-08  0.00D+00 EMaxC= 1.00D-01 BMatC= 9.79D-14 BMatP= 1.50D-11
 IDIUse=1 WtCom= 1.00D+00 WtEn= 0.00D+00
 Coeff-Com:  0.241D-06-0.128D-05 0.151D-05 0.866D-04 0.199D-02-0.833D-02
 Coeff-Com: -0.129D+00 0.114D+01
 Coeff:      0.241D-06-0.128D-05 0.151D-05 0.866D-04 0.199D-02-0.833D-02
 Coeff:     -0.129D+00 0.114D+01
 Gap=     0.374 Goal=   None    Shift=    0.000
 RMSDP=1.34D-08 MaxDP=5.27D-07 DE=-1.84D-11 OVMax= 2.66D-07

 Cycle   9  Pass 1  IDiag  1:
 RMSU=  2.60D-09    CP:  8.49D-01  6.24D-01  7.83D-01  1.09D+00  1.10D+00
                    CP:  1.20D+00  1.11D+00  1.18D+00
 CoulSu:  requested number of processors reduced to:  21 ShMem   1 Linda.
 E= -77.3322084763946     Delta-E=       -0.000000000001 Rises=F Damp=F
 DIIS: error= 4.15D-09 at cycle   9 NSaved=   9.
 NSaved= 9 IEnMin= 9 EnMin= -77.3322084763946     IErMin= 9 ErrMin= 4.15D-09
 ErrMax= 4.15D-09  0.00D+00 EMaxC= 1.00D-01 BMatC= 5.18D-16 BMatP= 9.79D-14
 IDIUse=1 WtCom= 1.00D+00 WtEn= 0.00D+00
 Coeff-Com: -0.179D-07-0.115D-06-0.259D-06 0.705D-05 0.637D-04 0.252D-03
 Coeff-Com: -0.868D-03-0.567D-01 0.106D+01
 Coeff:     -0.179D-07-0.115D-06-0.259D-06 0.705D-05 0.637D-04 0.252D-03
 Coeff:     -0.868D-03-0.567D-01 0.106D+01
 Gap=     0.374 Goal=   None    Shift=    0.000
 RMSDP=8.88D-10 MaxDP=3.23D-08 DE=-5.12D-13 OVMax= 1.56D-08

 SCF Done:  E(RM062X) =  -77.3322084764     A.U. after    9 cycles
            NFock=  9  Conv=0.89D-09     -V/T= 2.0049
 KE= 7.695315108549D+01 PE=-2.287371510586D+02 EE= 4.973418119216D+01
 Leave Link  502 at Sat Apr 17 05:36:14 2021, MaxMem=   104857600 cpu:            8382.4 elap:             181.4
 (Enter /s/ls4/users/knvvv/bin/g16sse/l601.exe)
 Copying SCF densities to generalized density rwf, IOpCl= 0 IROHF=0.

 **********************************************************************

            Population analysis using the SCF density.

 **********************************************************************

 Orbital symmetries:
       Occupied  (SGG) (SGU) (SGG) (SGU) (SGG) (PIU) (PIU)
       Virtual   (SGG) (SGU) (PIG) (PIG) (SGG) (PIU) (PIU) (SGU)
                 (DLTG) (DLTG) (SGG) (PIG) (PIG) (SGU) (PIU) (PIU)
                 (DLTU) (DLTU) (SGG) (PIG) (PIG) (SGU) (SGG) (PIU)
                 (PIU) (SGU) (SGG) (PIG) (PIG) (SGU) (DLTG) (DLTG)
                 (PIU) (PIU) (SGG) (SGU) (PIG) (PIG) (DLTU) (DLTU)
                 (PIU) (PIU) (SGG) (SGG) (PIG) (PIG) (SGU) (PIU)
                 (PIU) (SGU) (SGG) (SGU) (PIG) (PIG) (PHIU) (PHIU)
                 (DLTG) (DLTG) (SGU) (SGG) (PIU) (PIU) (DLTG) (DLTG)
                 (PHIG) (PHIG) (SGG) (DLTU) (DLTU) (PIG) (PIG)
                 (DLTU) (DLTU) (PIU) (PIU) (SGG) (SGU) (DLTG) (DLTG)
                 (SGG) (PIG) (PIG) (PIU) (PIU) (SGU) (PIG) (PIG)
                 (PIU) (PIU) (DLTU) (DLTU) (SGU) (SGG) (SGU) (PIG)
                 (PIG) (SGG) (PIU) (PIU) (SGU) (PHIU) (PHIU) (PIG)
                 (PIG) (?A) (?A) (SGG) (SGU) (?B) (?B) (DLTG) (DLTG)
                 (PIU) (PIU) (SGG) (PHIG) (PHIG) (DLTG) (DLTG)
                 (DLTU) (DLTU) (PIU) (PIU) (PHIU) (PHIU) (PIG)
                 (PIG) (PHIU) (PHIU) (PHIG) (PHIG) (DLTG) (DLTG)
                 (DLTU) (DLTU) (SGG) (PHIG) (PHIG) (SGU) (SGU)
                 (PIG) (PIG) (DLTU) (DLTU) (SGG) (SGU) (SGG) (PIU)
                 (PIU) (PIG) (PIG) (DLTG) (DLTG) (PIU) (PIU) (DLTU)
                 (DLTU) (SGG) (DLTG) (DLTG) (SGU) (PIG) (PIG) (SGU)
                 (DLTU) (DLTU) (PIU) (PIU) (SGG) (PIG) (PIG) (SGU)
                 (PIU) (PIU) (SGG) (PIG) (PIG) (SGU) (SGG) (SGU)
                 (SGG) (SGU) (SGG) (SGU)
 The electronic state is 1-SGG.
 Alpha  occ. eigenvalues --  -10.55262 -10.54988  -0.85081  -0.64788  -0.56644
 Alpha  occ. eigenvalues --   -0.35691  -0.35691
 Alpha virt. eigenvalues --    0.01669   0.02879   0.05258   0.05258   0.09599
 Alpha virt. eigenvalues --    0.13367   0.13367   0.14609   0.18210   0.18210
 Alpha virt. eigenvalues --    0.18379   0.19321   0.19321   0.21443   0.22004
 Alpha virt. eigenvalues --    0.22004   0.25669   0.25669   0.29408   0.29907
 Alpha virt. eigenvalues --    0.29907   0.30098   0.36905   0.42338   0.42338
 Alpha virt. eigenvalues --    0.47258   0.47531   0.49114   0.49114   0.55632
 Alpha virt. eigenvalues --    0.61347   0.61347   0.61805   0.61805   0.73271
 Alpha virt. eigenvalues --    0.76946   0.81721   0.81721   0.81827   0.81827
 Alpha virt. eigenvalues --    0.84555   0.84555   0.88946   1.00362   1.05295
 Alpha virt. eigenvalues --    1.05295   1.13995   1.15686   1.15686   1.21094
 Alpha virt. eigenvalues --    1.33650   1.37581   1.47893   1.47893   1.59055
 Alpha virt. eigenvalues --    1.59055   1.65809   1.65809   1.66029   1.69537
 Alpha virt. eigenvalues --    1.81107   1.81107   1.88842   1.88842   1.95019
 Alpha virt. eigenvalues --    1.95019   1.97236   1.97948   1.97948   1.98537
 Alpha virt. eigenvalues --    1.98537   2.16924   2.16924   2.28421   2.28421
 Alpha virt. eigenvalues --    2.31005   2.32877   2.50981   2.50981   2.60238
 Alpha virt. eigenvalues --    2.62339   2.62339   2.70976   2.70976   2.72962
 Alpha virt. eigenvalues --    2.90105   2.90105   2.93283   2.93283   3.05875
 Alpha virt. eigenvalues --    3.05875   3.06216   3.31589   3.41079   3.49324
 Alpha virt. eigenvalues --    3.49324   3.74146   4.22461   4.22461   4.34166
 Alpha virt. eigenvalues --    4.37070   4.37070   4.50907   4.50907   4.60677
 Alpha virt. eigenvalues --    4.60677   4.76428   4.86183   4.97095   4.97095
 Alpha virt. eigenvalues --    5.03161   5.03162   5.12367   5.12367   5.20829
 Alpha virt. eigenvalues --    5.21458   5.21458   5.49609   5.49609   5.54013
 Alpha virt. eigenvalues --    5.54014   5.64369   5.64369   5.74531   5.74531
 Alpha virt. eigenvalues --    5.79886   5.79886   5.94186   5.94186   5.97137
 Alpha virt. eigenvalues --    5.97137   5.99687   5.99689   6.15568   6.15569
 Alpha virt. eigenvalues --    6.19540   6.31464   6.31464   6.44980   6.70210
 Alpha virt. eigenvalues --    6.78800   6.78800   6.82022   6.82022   6.86272
 Alpha virt. eigenvalues --    7.25351   7.33299   7.43240   7.43240   7.51105
 Alpha virt. eigenvalues --    7.51105   7.51725   7.51726   7.59783   7.59783
 Alpha virt. eigenvalues --    7.70095   7.70095   7.84375   7.88893   7.88894
 Alpha virt. eigenvalues --    7.91395   8.10438   8.10438   8.57563   8.74858
 Alpha virt. eigenvalues --    8.74858   8.80939   8.80939   8.95235   9.67430
 Alpha virt. eigenvalues --    9.67430  10.04037  10.68999  10.68999  10.85192
 Alpha virt. eigenvalues --   11.14812  11.14812  11.26132  12.35518  13.36744
 Alpha virt. eigenvalues --   29.35425  30.54082 146.77880 148.38201
          Condensed to atoms (all electrons):
               1          2          3          4
     1  C    5.277846   0.726003  -0.059343   0.368326
     2  C    0.726003   5.277846   0.368326  -0.059343
     3  H   -0.059343   0.368326   0.376212   0.001972
     4  H    0.368326  -0.059343   0.001972   0.376212
 Mulliken charges:
               1
     1  C   -0.312832
     2  C   -0.312832
     3  H    0.312832
     4  H    0.312832
 Sum of Mulliken charges =  -0.00000
 Mulliken charges with hydrogens summed into heavy atoms:
               1
     1  C   -0.000000
     2  C   -0.000000
 Electronic spatial extent (au):  <R**2>=             61.0473
 Charge=             -0.0000 electrons
 Dipole moment (field-independent basis, Debye):
    X=             -0.0000    Y=             -0.0000    Z=              0.0000  Tot=              0.0000
 Quadrupole moment (field-independent basis, Debye-Ang):
   XX=            -13.7538   YY=            -13.7538   ZZ=             -6.9440
   XY=             -0.0000   XZ=             -0.0000   YZ=              0.0000
 Traceless Quadrupole moment (field-independent basis, Debye-Ang):
   XX=             -2.2699   YY=             -2.2699   ZZ=              4.5398
   XY=             -0.0000   XZ=             -0.0000   YZ=              0.0000
 Octapole moment (field-independent basis, Debye-Ang**2):
  XXX=             -0.0000  YYY=             -0.0000  ZZZ=              0.0000  XYY=             -0.0000
  XXY=             -0.0000  XXZ=              0.0000  XZZ=             -0.0000  YZZ=             -0.0000
  YYZ=              0.0000  XYZ=              0.0000
 Hexadecapole moment (field-independent basis, Debye-Ang**3):
 XXXX=            -16.8479 YYYY=            -16.8479 ZZZZ=            -37.7773 XXXY=              0.0000
 XXXZ=              0.0000 YYYX=              0.0000 YYYZ=              0.0000 ZZZX=             -0.0000
 ZZZY=             -0.0000 XXYY=             -5.6160 XXZZ=            -12.6941 YYZZ=            -12.6941
 XXYZ=              0.0000 YYXZ=              0.0000 ZZXY=              0.0000
 N-N= 2.471761030451D+01 E-N=-2.287371510083D+02  KE= 7.695315108549D+01
 PrsmSu:  requested number of processors reduced to:  21 ShMem   1 Linda.
 No NMR shielding tensors so no spin-rotation constants.
 Leave Link  601 at Sat Apr 17 05:36:20 2021, MaxMem=   104857600 cpu:             254.7 elap:               5.6
 (Enter /s/ls4/users/knvvv/bin/g16sse/l801.exe)
 DoSCS=F DFT=T ScalE2(SS,OS)=  1.000000  1.000000
 Range of M.O.s used for correlation:     1   191
 NBasis=   192 NAE=     7 NBE=     7 NFC=     0 NFV=     0
 NROrb=    191 NOA=     7 NOB=     7 NVA=   184 NVB=   184

 **** Warning!!: The largest alpha MO coefficient is  0.81789936D+02

 Leave Link  801 at Sat Apr 17 05:36:20 2021, MaxMem=   104857600 cpu:               3.6 elap:               0.1
 (Enter /s/ls4/users/knvvv/bin/g16sse/l914.exe)
 RHF ground state
 Doing stability rather than CIS.
 Two-electron integrals replicated using symmetry.
 MDV=   104857600 DFT=T DoStab=T Mixed=T DoRPA=F DoScal=F NonHer=F
 Making orbital integer symmetry assigments:
 Orbital symmetries:
       Occupied  (SGG) (SGU) (SGG) (SGU) (SGG) (PIU) (PIU)
       Virtual   (SGG) (SGU) (PIG) (PIG) (SGG) (PIU) (PIU) (SGU)
                 (DLTG) (DLTG) (SGG) (PIG) (PIG) (SGU) (PIU) (PIU)
                 (DLTU) (DLTU) (SGG) (PIG) (PIG) (SGU) (SGG) (PIU)
                 (PIU) (SGU) (SGG) (PIG) (PIG) (SGU) (DLTG) (DLTG)
                 (PIU) (PIU) (SGG) (SGU) (PIG) (PIG) (DLTU) (DLTU)
                 (PIU) (PIU) (SGG) (SGG) (PIG) (PIG) (SGU) (PIU)
                 (PIU) (SGU) (SGG) (SGU) (PIG) (PIG) (PHIU) (PHIU)
                 (DLTG) (DLTG) (SGU) (SGG) (PIU) (PIU) (DLTG) (DLTG)
                 (PHIG) (PHIG) (SGG) (DLTU) (DLTU) (PIG) (PIG)
                 (DLTU) (DLTU) (PIU) (PIU) (SGG) (SGU) (DLTG) (DLTG)
                 (SGG) (PIG) (PIG) (PIU) (PIU) (SGU) (PIG) (PIG)
                 (PIU) (PIU) (DLTU) (DLTU) (SGU) (SGG) (SGU) (PIG)
                 (PIG) (SGG) (PIU) (PIU) (SGU) (PHIU) (PHIU) (PIG)
                 (PIG) (?A) (?A) (SGG) (SGU) (?B) (?B) (DLTG) (DLTG)
                 (PIU) (PIU) (SGG) (PHIG) (PHIG) (DLTG) (DLTG)
                 (DLTU) (DLTU) (PIU) (PIU) (PHIU) (PHIU) (PIG)
                 (PIG) (PHIU) (PHIU) (PHIG) (PHIG) (DLTG) (DLTG)
                 (DLTU) (DLTU) (SGG) (PHIG) (PHIG) (SGU) (SGU)
                 (PIG) (PIG) (DLTU) (DLTU) (SGG) (SGU) (SGG) (PIU)
                 (PIU) (PIG) (PIG) (DLTG) (DLTG) (PIU) (PIU) (DLTU)
                 (DLTU) (SGG) (DLTG) (DLTG) (SGU) (PIG) (PIG) (SGU)
                 (DLTU) (DLTU) (PIU) (PIU) (SGG) (PIG) (PIG) (SGU)
                 (PIU) (PIU) (SGG) (PIG) (PIG) (SGU) (SGG) (SGU)
                 (SGG) (SGU) (SGG) (SGU)
    48 initial guesses have been made.
 Convergence on wavefunction:    0.001000000000000
 Davidson Disk Diagonalization:  ConvIn= 1.00D-03 SkipCon=T Conv= 1.00D-03.
 Max sub-space:  2000 roots to seek:    48 dimension of matrix:         2576
 Iteration     1 Dimension    48 NMult     0 NNew     48
 Estimated number of processors is:   19
 CISAX will form     1 AO SS matrices at one time.
 NMat=     1 NSing=     1 JSym2X= 2.
 FoFJK:  IHMeth= 1 ICntrl=       0 DoSepK=F KAlg= 0 I1Cent=           0 FoldK=F
 IRaf= 990000000 NMat=       1 IRICut=       1 DoRegI=T DoRafI=F ISym2E= 2 IDoP0=0 IntGTp=1.
 FoFCou: FMM=F IPFlag=           0 FMFlag=      100000 FMFlg1=           0
         NFxFlg=           0 DoJE=F BraDBF=F KetDBF=F FulRan=T
         wScrn=  0.000000 ICntrl=         0 IOpCl=  0 I1Cent=           0 NGrid=           0
         NMat0=    1 NMatS0=      1 NMatT0=    0 NMatD0=    1 NMtDS0=    0 NMtDT0=    0
 Integrals replicated using symmetry in FoFCou.
 CoulSu:  requested number of processors reduced to:  20 ShMem   1 Linda.
 NMat=     1 NSing=     1 JSym2X= 2.
 CoulSu:  requested number of processors reduced to:  20 ShMem   1 Linda.
 NMat=     1 NSing=     1 JSym2X= 2.
 CoulSu:  requested number of processors reduced to:  20 ShMem   1 Linda.
 NMat=     1 NSing=     1 JSym2X= 2.
 CoulSu:  requested number of processors reduced to:  20 ShMem   1 Linda.
 NMat=     1 NSing=     1 JSym2X= 2.
 CoulSu:  requested number of processors reduced to:  20 ShMem   1 Linda.
 NMat=     1 NSing=     1 JSym2X= 2.
 CoulSu:  requested number of processors reduced to:  20 ShMem   1 Linda.
 NMat=     1 NSing=     1 JSym2X= 2.
 CoulSu:  requested number of processors reduced to:  20 ShMem   1 Linda.
 NMat=     1 NSing=     1 JSym2X= 2.
 CoulSu:  requested number of processors reduced to:  20 ShMem   1 Linda.
 NMat=     1 NSing=     1 JSym2X= 2.
 CoulSu:  requested number of processors reduced to:  20 ShMem   1 Linda.
 NMat=     1 NSing=     1 JSym2X= 2.
 CoulSu:  requested number of processors reduced to:  20 ShMem   1 Linda.
 NMat=     1 NSing=     1 JSym2X= 2.
 CoulSu:  requested number of processors reduced to:  20 ShMem   1 Linda.
 NMat=     1 NSing=     1 JSym2X= 2.
 CoulSu:  requested number of processors reduced to:  20 ShMem   1 Linda.
 NMat=     1 NSing=     1 JSym2X= 2.
 CoulSu:  requested number of processors reduced to:  20 ShMem   1 Linda.
 NMat=     1 NSing=     1 JSym2X= 2.
 CoulSu:  requested number of processors reduced to:  20 ShMem   1 Linda.
 NMat=     1 NSing=     1 JSym2X= 2.
 CoulSu:  requested number of processors reduced to:  20 ShMem   1 Linda.
 NMat=     1 NSing=     1 JSym2X= 2.
 CoulSu:  requested number of processors reduced to:  20 ShMem   1 Linda.
 NMat=     1 NSing=     1 JSym2X= 2.
 CoulSu:  requested number of processors reduced to:  20 ShMem   1 Linda.
 NMat=     1 NSing=     1 JSym2X= 2.
 CoulSu:  requested number of processors reduced to:  20 ShMem   1 Linda.
 NMat=     1 NSing=     1 JSym2X= 2.
 CoulSu:  requested number of processors reduced to:  20 ShMem   1 Linda.
 NMat=     1 NSing=     1 JSym2X= 2.
 CoulSu:  requested number of processors reduced to:  20 ShMem   1 Linda.
 NMat=     1 NSing=     1 JSym2X= 2.
 CoulSu:  requested number of processors reduced to:  20 ShMem   1 Linda.
 NMat=     1 NSing=     1 JSym2X= 2.
 CoulSu:  requested number of processors reduced to:  20 ShMem   1 Linda.
 NMat=     1 NSing=     1 JSym2X= 2.
 CoulSu:  requested number of processors reduced to:  20 ShMem   1 Linda.
 NMat=     1 NSing=     1 JSym2X= 2.
 CoulSu:  requested number of processors reduced to:  20 ShMem   1 Linda.
 NMat=     1 NSing=     0 JSym2X= 2.
 CoulSu:  requested number of processors reduced to:  20 ShMem   1 Linda.
 NMat=     1 NSing=     0 JSym2X= 2.
 CoulSu:  requested number of processors reduced to:  20 ShMem   1 Linda.
 NMat=     1 NSing=     0 JSym2X= 2.
 CoulSu:  requested number of processors reduced to:  20 ShMem   1 Linda.
 NMat=     1 NSing=     0 JSym2X= 2.
 CoulSu:  requested number of processors reduced to:  20 ShMem   1 Linda.
 NMat=     1 NSing=     0 JSym2X= 2.
 CoulSu:  requested number of processors reduced to:  20 ShMem   1 Linda.
 NMat=     1 NSing=     0 JSym2X= 2.
 CoulSu:  requested number of processors reduced to:  20 ShMem   1 Linda.
 NMat=     1 NSing=     0 JSym2X= 2.
 CoulSu:  requested number of processors reduced to:  20 ShMem   1 Linda.
 NMat=     1 NSing=     0 JSym2X= 2.
 CoulSu:  requested number of processors reduced to:  20 ShMem   1 Linda.
 NMat=     1 NSing=     0 JSym2X= 2.
 CoulSu:  requested number of processors reduced to:  20 ShMem   1 Linda.
 NMat=     1 NSing=     0 JSym2X= 2.
 CoulSu:  requested number of processors reduced to:  20 ShMem   1 Linda.
 NMat=     1 NSing=     0 JSym2X= 2.
 CoulSu:  requested number of processors reduced to:  20 ShMem   1 Linda.
 NMat=     1 NSing=     0 JSym2X= 2.
 CoulSu:  requested number of processors reduced to:  20 ShMem   1 Linda.
 NMat=     1 NSing=     0 JSym2X= 2.
 CoulSu:  requested number of processors reduced to:  20 ShMem   1 Linda.
 NMat=     1 NSing=     0 JSym2X= 2.
 CoulSu:  requested number of processors reduced to:  20 ShMem   1 Linda.
 NMat=     1 NSing=     0 JSym2X= 2.
 CoulSu:  requested number of processors reduced to:  20 ShMem   1 Linda.
 NMat=     1 NSing=     0 JSym2X= 2.
 CoulSu:  requested number of processors reduced to:  20 ShMem   1 Linda.
 NMat=     1 NSing=     0 JSym2X= 2.
 CoulSu:  requested number of processors reduced to:  20 ShMem   1 Linda.
 NMat=     1 NSing=     0 JSym2X= 2.
 CoulSu:  requested number of processors reduced to:  20 ShMem   1 Linda.
 NMat=     1 NSing=     0 JSym2X= 2.
 CoulSu:  requested number of processors reduced to:  20 ShMem   1 Linda.
 NMat=     1 NSing=     0 JSym2X= 2.
 CoulSu:  requested number of processors reduced to:  20 ShMem   1 Linda.
 NMat=     1 NSing=     0 JSym2X= 2.
 CoulSu:  requested number of processors reduced to:  20 ShMem   1 Linda.
 NMat=     1 NSing=     0 JSym2X= 2.
 CoulSu:  requested number of processors reduced to:  20 ShMem   1 Linda.
 NMat=     1 NSing=     0 JSym2X= 2.
 CoulSu:  requested number of processors reduced to:  20 ShMem   1 Linda.
 NMat=     1 NSing=     0 JSym2X= 2.
 CoulSu:  requested number of processors reduced to:  20 ShMem   1 Linda.
 New state      1 was old state     12
 Excitation Energies [eV] at current iteration:
 Root      1 :     5.019206880020208
 Root      2 :     6.338033913014155
 Root      3 :     6.480118681985179
 Root      4 :     7.235823546539257
 Root      5 :     7.339135544716372
 Root      6 :     7.341150366608218
 Root      7 :     7.408324217766191
 Root      8 :     7.931051020302998
 Root      9 :     7.931051020316095
 Root     10 :     7.967998198393584
 Root     11 :     7.967998198401848
 Root     12 :     8.204963154151233
 Root     13 :     8.204963154167253
 Root     14 :     8.394406181803397
 Root     15 :     8.394406181810348
 Root     16 :     9.636880064705474
 Root     17 :     9.636880064706306
 Root     18 :     9.785997971068367
 Root     19 :     9.785997971069445
 Root     20 :    10.384306808300730
 Root     21 :    10.384359214653090
 Root     22 :    10.483305948993000
 Root     23 :    10.483305948993030
 Root     24 :    10.808196026010820
 Root     25 :    10.808249957218290
 Root     26 :    10.868742302778700
 Root     27 :    10.868742302806470
 Root     28 :    11.385680244671790
 Root     29 :    11.385680244677660
 Root     30 :    11.436405405292780
 Root     31 :    11.436405405294060
 Root     32 :    11.485084588929630
 Root     33 :    11.699194690785310
 Root     34 :    11.874434371986160
 Root     35 :    11.874434371990630
 Root     36 :    11.911200184818970
 Root     37 :    11.911200184877850
 Root     38 :    12.173418128212340
 Root     39 :    12.211969205740870
 Root     40 :    12.211969205773940
 Root     41 :    12.218333352658480
 Root     42 :    12.377768086107620
 Root     43 :    12.716273065168630
 Root     44 :    12.716273065177480
 Root     45 :    12.769726712407400
 Root     46 :    12.769726712428690
 Root     47 :    13.573157830199560
 Root     48 :    22.640001293194510
 Iteration     2 Dimension    96 NMult    48 NNew     48
 Estimated number of processors is:   19
 CISAX will form     1 AO SS matrices at one time.
 NMat=     1 NSing=     1 JSym2X= 2.
 CoulSu:  requested number of processors reduced to:  20 ShMem   1 Linda.
 NMat=     1 NSing=     1 JSym2X= 2.
 CoulSu:  requested number of processors reduced to:  20 ShMem   1 Linda.
 NMat=     1 NSing=     1 JSym2X= 2.
 CoulSu:  requested number of processors reduced to:  20 ShMem   1 Linda.
 NMat=     1 NSing=     1 JSym2X= 2.
 CoulSu:  requested number of processors reduced to:  20 ShMem   1 Linda.
 NMat=     1 NSing=     1 JSym2X= 2.
 CoulSu:  requested number of processors reduced to:  20 ShMem   1 Linda.
 NMat=     1 NSing=     1 JSym2X= 2.
 CoulSu:  requested number of processors reduced to:  20 ShMem   1 Linda.
 NMat=     1 NSing=     1 JSym2X= 2.
 CoulSu:  requested number of processors reduced to:  20 ShMem   1 Linda.
 NMat=     1 NSing=     1 JSym2X= 2.
 CoulSu:  requested number of processors reduced to:  20 ShMem   1 Linda.
 NMat=     1 NSing=     1 JSym2X= 2.
 CoulSu:  requested number of processors reduced to:  20 ShMem   1 Linda.
 NMat=     1 NSing=     1 JSym2X= 2.
 CoulSu:  requested number of processors reduced to:  20 ShMem   1 Linda.
 NMat=     1 NSing=     1 JSym2X= 2.
 CoulSu:  requested number of processors reduced to:  20 ShMem   1 Linda.
 NMat=     1 NSing=     1 JSym2X= 2.
 CoulSu:  requested number of processors reduced to:  20 ShMem   1 Linda.
 NMat=     1 NSing=     1 JSym2X= 2.
 CoulSu:  requested number of processors reduced to:  20 ShMem   1 Linda.
 NMat=     1 NSing=     1 JSym2X= 2.
 CoulSu:  requested number of processors reduced to:  20 ShMem   1 Linda.
 NMat=     1 NSing=     1 JSym2X= 2.
 CoulSu:  requested number of processors reduced to:  20 ShMem   1 Linda.
 NMat=     1 NSing=     1 JSym2X= 2.
 CoulSu:  requested number of processors reduced to:  20 ShMem   1 Linda.
 NMat=     1 NSing=     1 JSym2X= 2.
 CoulSu:  requested number of processors reduced to:  20 ShMem   1 Linda.
 NMat=     1 NSing=     1 JSym2X= 2.
 CoulSu:  requested number of processors reduced to:  20 ShMem   1 Linda.
 NMat=     1 NSing=     1 JSym2X= 2.
 CoulSu:  requested number of processors reduced to:  20 ShMem   1 Linda.
 NMat=     1 NSing=     1 JSym2X= 2.
 CoulSu:  requested number of processors reduced to:  20 ShMem   1 Linda.
 NMat=     1 NSing=     1 JSym2X= 2.
 CoulSu:  requested number of processors reduced to:  20 ShMem   1 Linda.
 NMat=     1 NSing=     1 JSym2X= 2.
 CoulSu:  requested number of processors reduced to:  20 ShMem   1 Linda.
 NMat=     1 NSing=     1 JSym2X= 2.
 CoulSu:  requested number of processors reduced to:  20 ShMem   1 Linda.
 NMat=     1 NSing=     1 JSym2X= 2.
 CoulSu:  requested number of processors reduced to:  20 ShMem   1 Linda.
 NMat=     1 NSing=     0 JSym2X= 2.
 CoulSu:  requested number of processors reduced to:  20 ShMem   1 Linda.
 NMat=     1 NSing=     0 JSym2X= 2.
 CoulSu:  requested number of processors reduced to:  20 ShMem   1 Linda.
 NMat=     1 NSing=     0 JSym2X= 2.
 CoulSu:  requested number of processors reduced to:  20 ShMem   1 Linda.
 NMat=     1 NSing=     0 JSym2X= 2.
 CoulSu:  requested number of processors reduced to:  20 ShMem   1 Linda.
 NMat=     1 NSing=     0 JSym2X= 2.
 CoulSu:  requested number of processors reduced to:  20 ShMem   1 Linda.
 NMat=     1 NSing=     0 JSym2X= 2.
 CoulSu:  requested number of processors reduced to:  20 ShMem   1 Linda.
 NMat=     1 NSing=     0 JSym2X= 2.
 CoulSu:  requested number of processors reduced to:  20 ShMem   1 Linda.
 NMat=     1 NSing=     0 JSym2X= 2.
 CoulSu:  requested number of processors reduced to:  20 ShMem   1 Linda.
 NMat=     1 NSing=     0 JSym2X= 2.
 CoulSu:  requested number of processors reduced to:  20 ShMem   1 Linda.
 NMat=     1 NSing=     0 JSym2X= 2.
 CoulSu:  requested number of processors reduced to:  20 ShMem   1 Linda.
 NMat=     1 NSing=     0 JSym2X= 2.
 CoulSu:  requested number of processors reduced to:  20 ShMem   1 Linda.
 NMat=     1 NSing=     0 JSym2X= 2.
 CoulSu:  requested number of processors reduced to:  20 ShMem   1 Linda.
 NMat=     1 NSing=     0 JSym2X= 2.
 CoulSu:  requested number of processors reduced to:  20 ShMem   1 Linda.
 NMat=     1 NSing=     0 JSym2X= 2.
 CoulSu:  requested number of processors reduced to:  20 ShMem   1 Linda.
 NMat=     1 NSing=     0 JSym2X= 2.
 CoulSu:  requested number of processors reduced to:  20 ShMem   1 Linda.
 NMat=     1 NSing=     0 JSym2X= 2.
 CoulSu:  requested number of processors reduced to:  20 ShMem   1 Linda.
 NMat=     1 NSing=     0 JSym2X= 2.
 CoulSu:  requested number of processors reduced to:  20 ShMem   1 Linda.
 NMat=     1 NSing=     0 JSym2X= 2.
 CoulSu:  requested number of processors reduced to:  20 ShMem   1 Linda.
 NMat=     1 NSing=     0 JSym2X= 2.
 CoulSu:  requested number of processors reduced to:  20 ShMem   1 Linda.
 NMat=     1 NSing=     0 JSym2X= 2.
 CoulSu:  requested number of processors reduced to:  20 ShMem   1 Linda.
 NMat=     1 NSing=     0 JSym2X= 2.
 CoulSu:  requested number of processors reduced to:  20 ShMem   1 Linda.
 NMat=     1 NSing=     0 JSym2X= 2.
 CoulSu:  requested number of processors reduced to:  20 ShMem   1 Linda.
 NMat=     1 NSing=     0 JSym2X= 2.
 CoulSu:  requested number of processors reduced to:  20 ShMem   1 Linda.
 NMat=     1 NSing=     0 JSym2X= 2.
 CoulSu:  requested number of processors reduced to:  20 ShMem   1 Linda.
 Root      1 not converged, maximum delta is    0.199694121065242
 Excitation Energies [eV] at current iteration:
 Root      1 :     3.974244100909777   Change is   -1.044962779110431
 Root      2 :     5.966056773105213   Change is   -0.371977139908943
 Root      3 :     5.973962267510045   Change is   -0.506156414475133
 Root      4 :     7.135486974245311   Change is   -0.272837243520879
 Root      5 :     7.141526804738527   Change is   -0.197608739977846
 Root      6 :     7.193483828796849   Change is   -0.042339717742409
 Root      7 :     7.193582679218252   Change is   -0.147567687389966
 Root      8 :     7.845692703169422   Change is   -0.085358317133576
 Root      9 :     7.845692703183832   Change is   -0.085358317132263
 Root     10 :     7.936399164494682   Change is   -0.031599033898902
 Root     11 :     7.936399164503938   Change is   -0.031599033897910
 Root     12 :     8.062239896162543   Change is   -0.142723257988689
 Root     13 :     8.062239896175598   Change is   -0.142723257991654
 Root     14 :     8.309833253905017   Change is   -0.084572927898380
 Root     15 :     8.309833253910643   Change is   -0.084572927899707
 Root     16 :     9.305014280830804   Change is   -0.331865783874672
 Root     17 :     9.305014280831438   Change is   -0.331865783874868
 Root     18 :     9.596765720474560   Change is   -0.189232250593807
 Root     19 :     9.596765720475155   Change is   -0.189232250594290
 Root     20 :    10.252708284971130   Change is   -0.131598523329608
 Root     21 :    10.252778040909070   Change is   -0.131581173744017
 Root     22 :    10.412536655386400   Change is   -0.456205647392292
 Root     23 :    10.412536655409480   Change is   -0.456205647396994
 Root     24 :    10.441043467868660   Change is   -0.042262481124340
 Root     25 :    10.441043467868680   Change is   -0.042262481124354
 Root     26 :    10.579475240365140   Change is   -0.228720785645684
 Root     27 :    10.579560799779050   Change is   -0.228689157439247
 Root     28 :    10.897979166960890   Change is   -0.801215523824414
 Root     29 :    10.924181904791020   Change is   -0.560902684138615
 Root     30 :    11.108436340784730   Change is   -0.277243903887062
 Root     31 :    11.108436340789030   Change is   -0.277243903888636
 Root     32 :    11.378557310507450   Change is   -0.057848094785324
 Root     33 :    11.378557310508620   Change is   -0.057848094785441
 Root     34 :    11.634190640030260   Change is   -0.240243731955896
 Root     35 :    11.634190640034220   Change is   -0.240243731956408
 Root     36 :    11.770798069683890   Change is   -1.802359760515675
 Root     37 :    11.819643364692270   Change is   -0.091556820126702
 Root     38 :    11.819643364747120   Change is   -0.091556820130735
 Root     39 :    11.990794244281570   Change is   -0.182623883930768
 Root     40 :    11.996975234807840   Change is   -0.221358117850639
 Root     41 :    12.041656803113990   Change is   -0.170312402626873
 Root     42 :    12.041656803125850   Change is   -0.170312402648088
 Root     43 :    12.138459085728070   Change is   -0.631267626679338
 Root     44 :    12.138459085736520   Change is   -0.631267626692178
 Root     45 :    12.174739722073480   Change is   -0.203028364034139
 Root     46 :    12.323329083770260   Change is   -0.392943981398369
 Root     47 :    12.323329083793160   Change is   -0.392943981384318
 Root     48 :    12.423648959923340
 Iteration     3 Dimension   102 NMult    96 NNew      6
 Estimated number of processors is:   19
 CISAX will form     1 AO SS matrices at one time.
 NMat=     1 NSing=     1 JSym2X= 2.
 CoulSu:  requested number of processors reduced to:  20 ShMem   1 Linda.
 NMat=     1 NSing=     1 JSym2X= 2.
 CoulSu:  requested number of processors reduced to:  20 ShMem   1 Linda.
 NMat=     1 NSing=     1 JSym2X= 2.
 CoulSu:  requested number of processors reduced to:  20 ShMem   1 Linda.
 NMat=     1 NSing=     0 JSym2X= 2.
 CoulSu:  requested number of processors reduced to:  20 ShMem   1 Linda.
 NMat=     1 NSing=     0 JSym2X= 2.
 CoulSu:  requested number of processors reduced to:  20 ShMem   1 Linda.
 NMat=     1 NSing=     0 JSym2X= 2.
 CoulSu:  requested number of processors reduced to:  20 ShMem   1 Linda.
 Root      1 not converged, maximum delta is    0.010711452516603
 Excitation Energies [eV] at current iteration:
 Root      1 :     3.938681663856370   Change is   -0.035562437053407
 Root      2 :     5.963644386799266   Change is   -0.010317880710780
 Root      3 :     5.964152605005547   Change is   -0.001904168099665
 Root      4 :     7.134638807866213   Change is   -0.006887996872314
 Root      5 :     7.134843521819671   Change is   -0.000643452425641
 Root      6 :     7.193221909955830   Change is   -0.000261918841018
 Iteration     4 Dimension   108 NMult   102 NNew      6
 Estimated number of processors is:   19
 CISAX will form     1 AO SS matrices at one time.
 NMat=     1 NSing=     1 JSym2X= 2.
 CoulSu:  requested number of processors reduced to:  20 ShMem   1 Linda.
 NMat=     1 NSing=     1 JSym2X= 2.
 CoulSu:  requested number of processors reduced to:  20 ShMem   1 Linda.
 NMat=     1 NSing=     1 JSym2X= 2.
 CoulSu:  requested number of processors reduced to:  20 ShMem   1 Linda.
 NMat=     1 NSing=     0 JSym2X= 2.
 CoulSu:  requested number of processors reduced to:  20 ShMem   1 Linda.
 NMat=     1 NSing=     0 JSym2X= 2.
 CoulSu:  requested number of processors reduced to:  20 ShMem   1 Linda.
 NMat=     1 NSing=     0 JSym2X= 2.
 CoulSu:  requested number of processors reduced to:  20 ShMem   1 Linda.
 Root      1 not converged, maximum delta is    0.001936237041394
 Excitation Energies [eV] at current iteration:
 Root      1 :     3.937472518641247   Change is   -0.001209145215123
 Root      2 :     5.963538761612239   Change is   -0.000105625187027
 Root      3 :     5.964144671696872   Change is   -0.000007933308676
 Root      4 :     7.134385281236305   Change is   -0.000253526629907
 Root      5 :     7.134839834945923   Change is   -0.000003686873748
 Root      6 :     7.193221190167836   Change is   -0.000000719787995
 Iteration     5 Dimension   114 NMult   108 NNew      6
 Estimated number of processors is:   19
 CISAX will form     1 AO SS matrices at one time.
 NMat=     1 NSing=     1 JSym2X= 2.
 CoulSu:  requested number of processors reduced to:  20 ShMem   1 Linda.
 NMat=     1 NSing=     1 JSym2X= 2.
 CoulSu:  requested number of processors reduced to:  20 ShMem   1 Linda.
 NMat=     1 NSing=     1 JSym2X= 2.
 CoulSu:  requested number of processors reduced to:  20 ShMem   1 Linda.
 NMat=     1 NSing=     0 JSym2X= 2.
 CoulSu:  requested number of processors reduced to:  20 ShMem   1 Linda.
 NMat=     1 NSing=     0 JSym2X= 2.
 CoulSu:  requested number of processors reduced to:  20 ShMem   1 Linda.
 NMat=     1 NSing=     0 JSym2X= 2.
 CoulSu:  requested number of processors reduced to:  20 ShMem   1 Linda.
 DSYEVD-2 returned Info=         229 IAlg= 4 N=   114 NDim=   114 NE2=      849477 trying  DSYEV.
 Vector  24 SDiff=3.44D-03 TDiff=7.94D-01 assumed to be singlet.
 Vector  25 SDiff=7.94D-01 TDiff=3.44D-03 assumed to be triplet.
 Vector  69 SDiff=2.51D-03 TDiff=5.96D-01 assumed to be singlet.
 Vector  70 SDiff=5.96D-01 TDiff=2.51D-03 assumed to be triplet.
 Root      1 has converged.
 Excitation Energies [eV] at current iteration:
 Root      1 :     3.937420536586156   Change is   -0.000051982055091
 Root      2 :     5.963536961997360   Change is   -0.000001799614878
 Root      3 :     5.964144639115434   Change is   -0.000000032581438
 Root      4 :     7.134378979206891   Change is   -0.000006302029415
 Root      5 :     7.134839823758909   Change is   -0.000000011187014
 Root      6 :     7.193221187832436   Change is   -0.000000002335399
 Convergence achieved on expansion vectors.
 ***********************************************************************
 Stability analysis using <AA,BB:AA,BB> singles matrix:
 ***********************************************************************
 1PDM for each excited state written to RWF  633
 Ground to excited state transition densities written to RWF  633

 Eigenvectors of the stability matrix:
 
 Excited state symmetry could not be determined.
 Eigenvector   1:      Triplet-?Sym  Eigenvalue= 0.1446975  <S**2>=2.000
       6 -> 10         0.44607
       6 -> 19        -0.20090
       7 -> 11         0.44607
       7 -> 20        -0.20090
 The wavefunction is stable under the perturbations considered.
 Leave Link  914 at Sat Apr 17 05:42:22 2021, MaxMem=   104857600 cpu:           14813.6 elap:             361.7
 (Enter /s/ls4/users/knvvv/bin/g16sse/l508.exe)
 The wavefunction is already stable.
 Leave Link  508 at Sat Apr 17 05:42:22 2021, MaxMem=   104857600 cpu:               2.2 elap:               0.1
 (Enter /s/ls4/users/knvvv/bin/g16sse/l601.exe)
 Copying SCF densities to generalized density rwf, IOpCl= 0 IROHF=0.

 **********************************************************************

            Population analysis using the SCF density.

 **********************************************************************

 Orbital symmetries:
       Occupied  (SGG) (SGU) (SGG) (SGU) (SGG) (PIU) (PIU)
       Virtual   (SGG) (SGU) (PIG) (PIG) (SGG) (PIU) (PIU) (SGU)
                 (DLTG) (DLTG) (SGG) (PIG) (PIG) (SGU) (PIU) (PIU)
                 (DLTU) (DLTU) (SGG) (PIG) (PIG) (SGU) (SGG) (PIU)
                 (PIU) (SGU) (SGG) (PIG) (PIG) (SGU) (DLTG) (DLTG)
                 (PIU) (PIU) (SGG) (SGU) (PIG) (PIG) (DLTU) (DLTU)
                 (PIU) (PIU) (SGG) (SGG) (PIG) (PIG) (SGU) (PIU)
                 (PIU) (SGU) (SGG) (SGU) (PIG) (PIG) (PHIU) (PHIU)
                 (DLTG) (DLTG) (SGU) (SGG) (PIU) (PIU) (DLTG) (DLTG)
                 (PHIG) (PHIG) (SGG) (DLTU) (DLTU) (PIG) (PIG)
                 (DLTU) (DLTU) (PIU) (PIU) (SGG) (SGU) (DLTG) (DLTG)
                 (SGG) (PIG) (PIG) (PIU) (PIU) (SGU) (PIG) (PIG)
                 (PIU) (PIU) (DLTU) (DLTU) (SGU) (SGG) (SGU) (PIG)
                 (PIG) (SGG) (PIU) (PIU) (SGU) (PHIU) (PHIU) (PIG)
                 (PIG) (?A) (?A) (SGG) (SGU) (?B) (?B) (DLTG) (DLTG)
                 (PIU) (PIU) (SGG) (PHIG) (PHIG) (DLTG) (DLTG)
                 (DLTU) (DLTU) (PIU) (PIU) (PHIU) (PHIU) (PIG)
                 (PIG) (PHIU) (PHIU) (PHIG) (PHIG) (DLTG) (DLTG)
                 (DLTU) (DLTU) (SGG) (PHIG) (PHIG) (SGU) (SGU)
                 (PIG) (PIG) (DLTU) (DLTU) (SGG) (SGU) (SGG) (PIU)
                 (PIU) (PIG) (PIG) (DLTG) (DLTG) (PIU) (PIU) (DLTU)
                 (DLTU) (SGG) (DLTG) (DLTG) (SGU) (PIG) (PIG) (SGU)
                 (DLTU) (DLTU) (PIU) (PIU) (SGG) (PIG) (PIG) (SGU)
                 (PIU) (PIU) (SGG) (PIG) (PIG) (SGU) (SGG) (SGU)
                 (SGG) (SGU) (SGG) (SGU)
 The electronic state is 1-SGG.
 Alpha  occ. eigenvalues --  -10.55262 -10.54988  -0.85081  -0.64788  -0.56644
 Alpha  occ. eigenvalues --   -0.35691  -0.35691
 Alpha virt. eigenvalues --    0.01669   0.02879   0.05258   0.05258   0.09599
 Alpha virt. eigenvalues --    0.13367   0.13367   0.14609   0.18210   0.18210
 Alpha virt. eigenvalues --    0.18379   0.19321   0.19321   0.21443   0.22004
 Alpha virt. eigenvalues --    0.22004   0.25669   0.25669   0.29408   0.29907
 Alpha virt. eigenvalues --    0.29907   0.30098   0.36905   0.42338   0.42338
 Alpha virt. eigenvalues --    0.47258   0.47531   0.49114   0.49114   0.55632
 Alpha virt. eigenvalues --    0.61347   0.61347   0.61805   0.61805   0.73271
 Alpha virt. eigenvalues --    0.76946   0.81721   0.81721   0.81827   0.81827
 Alpha virt. eigenvalues --    0.84555   0.84555   0.88946   1.00362   1.05295
 Alpha virt. eigenvalues --    1.05295   1.13995   1.15686   1.15686   1.21094
 Alpha virt. eigenvalues --    1.33650   1.37581   1.47893   1.47893   1.59055
 Alpha virt. eigenvalues --    1.59055   1.65809   1.65809   1.66029   1.69537
 Alpha virt. eigenvalues --    1.81107   1.81107   1.88842   1.88842   1.95019
 Alpha virt. eigenvalues --    1.95019   1.97236   1.97948   1.97948   1.98537
 Alpha virt. eigenvalues --    1.98537   2.16924   2.16924   2.28421   2.28421
 Alpha virt. eigenvalues --    2.31005   2.32877   2.50981   2.50981   2.60238
 Alpha virt. eigenvalues --    2.62339   2.62339   2.70976   2.70976   2.72962
 Alpha virt. eigenvalues --    2.90105   2.90105   2.93283   2.93283   3.05875
 Alpha virt. eigenvalues --    3.05875   3.06216   3.31589   3.41079   3.49324
 Alpha virt. eigenvalues --    3.49324   3.74146   4.22461   4.22461   4.34166
 Alpha virt. eigenvalues --    4.37070   4.37070   4.50907   4.50907   4.60677
 Alpha virt. eigenvalues --    4.60677   4.76428   4.86183   4.97095   4.97095
 Alpha virt. eigenvalues --    5.03161   5.03162   5.12367   5.12367   5.20829
 Alpha virt. eigenvalues --    5.21458   5.21458   5.49609   5.49609   5.54013
 Alpha virt. eigenvalues --    5.54014   5.64369   5.64369   5.74531   5.74531
 Alpha virt. eigenvalues --    5.79886   5.79886   5.94186   5.94186   5.97137
 Alpha virt. eigenvalues --    5.97137   5.99687   5.99689   6.15568   6.15569
 Alpha virt. eigenvalues --    6.19540   6.31464   6.31464   6.44980   6.70210
 Alpha virt. eigenvalues --    6.78800   6.78800   6.82022   6.82022   6.86272
 Alpha virt. eigenvalues --    7.25351   7.33299   7.43240   7.43240   7.51105
 Alpha virt. eigenvalues --    7.51105   7.51725   7.51726   7.59783   7.59783
 Alpha virt. eigenvalues --    7.70095   7.70095   7.84375   7.88893   7.88894
 Alpha virt. eigenvalues --    7.91395   8.10438   8.10438   8.57563   8.74858
 Alpha virt. eigenvalues --    8.74858   8.80939   8.80939   8.95235   9.67430
 Alpha virt. eigenvalues --    9.67430  10.04037  10.68999  10.68999  10.85192
 Alpha virt. eigenvalues --   11.14812  11.14812  11.26132  12.35518  13.36744
 Alpha virt. eigenvalues --   29.35425  30.54082 146.77880 148.38201
          Condensed to atoms (all electrons):
               1          2          3          4
     1  C    5.277846   0.726003  -0.059343   0.368326
     2  C    0.726003   5.277846   0.368326  -0.059343
     3  H   -0.059343   0.368326   0.376212   0.001972
     4  H    0.368326  -0.059343   0.001972   0.376212
 Mulliken charges:
               1
     1  C   -0.312832
     2  C   -0.312832
     3  H    0.312832
     4  H    0.312832
 Sum of Mulliken charges =  -0.00000
 Mulliken charges with hydrogens summed into heavy atoms:
               1
     1  C   -0.000000
     2  C   -0.000000
 Electronic spatial extent (au):  <R**2>=             61.0473
 Charge=             -0.0000 electrons
 Dipole moment (field-independent basis, Debye):
    X=             -0.0000    Y=             -0.0000    Z=              0.0000  Tot=              0.0000
 Quadrupole moment (field-independent basis, Debye-Ang):
   XX=            -13.7538   YY=            -13.7538   ZZ=             -6.9440
   XY=             -0.0000   XZ=             -0.0000   YZ=              0.0000
 Traceless Quadrupole moment (field-independent basis, Debye-Ang):
   XX=             -2.2699   YY=             -2.2699   ZZ=              4.5398
   XY=             -0.0000   XZ=             -0.0000   YZ=              0.0000
 Octapole moment (field-independent basis, Debye-Ang**2):
  XXX=             -0.0000  YYY=             -0.0000  ZZZ=              0.0000  XYY=             -0.0000
  XXY=             -0.0000  XXZ=              0.0000  XZZ=             -0.0000  YZZ=             -0.0000
  YYZ=              0.0000  XYZ=              0.0000
 Hexadecapole moment (field-independent basis, Debye-Ang**3):
 XXXX=            -16.8479 YYYY=            -16.8479 ZZZZ=            -37.7773 XXXY=              0.0000
 XXXZ=              0.0000 YYYX=              0.0000 YYYZ=              0.0000 ZZZX=             -0.0000
 ZZZY=             -0.0000 XXYY=             -5.6160 XXZZ=            -12.6941 YYZZ=            -12.6941
 XXYZ=              0.0000 YYXZ=              0.0000 ZZXY=              0.0000
 N-N= 2.471761030451D+01 E-N=-2.287371510083D+02  KE= 7.695315108549D+01
 PrsmSu:  requested number of processors reduced to:  21 ShMem   1 Linda.
 No NMR shielding tensors so no spin-rotation constants.
 Leave Link  601 at Sat Apr 17 05:42:27 2021, MaxMem=   104857600 cpu:             244.3 elap:               5.3
 (Enter /s/ls4/users/knvvv/bin/g16sse/l9999.exe)

 Test job not archived.
 1\1\GINC-N185\Stability\RM062X\Gen\C2H2\KNVVV\17-Apr-2021\0\\#P M062X/
 GEN Integral=UltraFineGrid SCF=NoSymm Stable=(RExt, Opt) IOp(1/33=1)\\
 Database calculations.\\0,1\C,0,0.,0.,0.\C,0,0.,0.,1.2065\H,0,0.,0.,2.
 2699\H,0,0.,0.,-1.0634\\Version=ES64L-G16RevA.03\State=1-SGG\HF=-77.33
 22085\RMSD=8.876e-10\Dipole=0.,0.,0.\Quadrupole=-1.6876171,-1.6876171,
 3.3752342,0.,0.,0.\PG=D*H [C*(H1C1.C1H1)]\\@


 A DANDELION FROM A LOVER MEANS MORE THAN AN ORCHID FROM A FRIEND.
 Job cpu time:       0 days  6 hours 48 minutes 39.4 seconds.
 Elapsed time:       0 days  0 hours  9 minutes 32.0 seconds.
 File lengths (MBytes):  RWF=    112 Int=      0 D2E=      0 Chk=      6 Scr=      1
 Normal termination of Gaussian 16 at Sat Apr 17 05:42:27 2021.
