 Entering Gaussian System, Link 0=/s/ls4/users/knvvv/bin/g16sse/g16
 Input=data/database/M062X--def2-QZVPPD--17_Isomer7_mon11_FmH2O10.gjf
 Output=data/database/M062X--def2-QZVPPD--17_Isomer7_mon11_FmH2O10.log
 Initial command:
 /s/ls4/users/knvvv/bin/g16sse/l1.exe "/s/ls4/users/knvvv/bin/scratch/Gau-48023.inp" -scrdir="/s/ls4/users/knvvv/bin/scratch/"
 Entering Link 1 = /s/ls4/users/knvvv/bin/g16sse/l1.exe PID=     48024.
  
 Copyright (c) 1988,1990,1992,1993,1995,1998,2003,2009,2016,
            Gaussian, Inc.  All Rights Reserved.
  
 This is part of the Gaussian(R) 16 program.  It is based on
 the Gaussian(R) 09 system (copyright 2009, Gaussian, Inc.),
 the Gaussian(R) 03 system (copyright 2003, Gaussian, Inc.),
 the Gaussian(R) 98 system (copyright 1998, Gaussian, Inc.),
 the Gaussian(R) 94 system (copyright 1995, Gaussian, Inc.),
 the Gaussian 92(TM) system (copyright 1992, Gaussian, Inc.),
 the Gaussian 90(TM) system (copyright 1990, Gaussian, Inc.),
 the Gaussian 88(TM) system (copyright 1988, Gaussian, Inc.),
 the Gaussian 86(TM) system (copyright 1986, Carnegie Mellon
 University), and the Gaussian 82(TM) system (copyright 1983,
 Carnegie Mellon University). Gaussian is a federally registered
 trademark of Gaussian, Inc.
  
 This software contains proprietary and confidential information,
 including trade secrets, belonging to Gaussian, Inc.
  
 This software is provided under written license and may be
 used, copied, transmitted, or stored only in accord with that
 written license.
  
 The following legend is applicable only to US Government
 contracts under FAR:
  
                    RESTRICTED RIGHTS LEGEND
  
 Use, reproduction and disclosure by the US Government is
 subject to restrictions as set forth in subparagraphs (a)
 and (c) of the Commercial Computer Software - Restricted
 Rights clause in FAR 52.227-19.
  
 Gaussian, Inc.
 340 Quinnipiac St., Bldg. 40, Wallingford CT 06492
  
  
 ---------------------------------------------------------------
 Warning -- This program may not be used in any manner that
 competes with the business of Gaussian, Inc. or will provide
 assistance to any competitor of Gaussian, Inc.  The licensee
 of this program is prohibited from giving any competitor of
 Gaussian, Inc. access to this program.  By using this program,
 the user acknowledges that Gaussian, Inc. is engaged in the
 business of creating and licensing software in the field of
 computational chemistry and represents and warrants to the
 licensee that it is not a competitor of Gaussian, Inc. and that
 it will not use this program in any manner prohibited above.
 ---------------------------------------------------------------
  

 Cite this work as:
 Gaussian 16, Revision A.03,
 M. J. Frisch, G. W. Trucks, H. B. Schlegel, G. E. Scuseria, 
 M. A. Robb, J. R. Cheeseman, G. Scalmani, V. Barone, 
 G. A. Petersson, H. Nakatsuji, X. Li, M. Caricato, A. V. Marenich, 
 J. Bloino, B. G. Janesko, R. Gomperts, B. Mennucci, H. P. Hratchian, 
 J. V. Ortiz, A. F. Izmaylov, J. L. Sonnenberg, D. Williams-Young, 
 F. Ding, F. Lipparini, F. Egidi, J. Goings, B. Peng, A. Petrone, 
 T. Henderson, D. Ranasinghe, V. G. Zakrzewski, J. Gao, N. Rega, 
 G. Zheng, W. Liang, M. Hada, M. Ehara, K. Toyota, R. Fukuda, 
 J. Hasegawa, M. Ishida, T. Nakajima, Y. Honda, O. Kitao, H. Nakai, 
 T. Vreven, K. Throssell, J. A. Montgomery, Jr., J. E. Peralta, 
 F. Ogliaro, M. J. Bearpark, J. J. Heyd, E. N. Brothers, K. N. Kudin, 
 V. N. Staroverov, T. A. Keith, R. Kobayashi, J. Normand, 
 K. Raghavachari, A. P. Rendell, J. C. Burant, S. S. Iyengar, 
 J. Tomasi, M. Cossi, J. M. Millam, M. Klene, C. Adamo, R. Cammi, 
 J. W. Ochterski, R. L. Martin, K. Morokuma, O. Farkas, 
 J. B. Foresman, and D. J. Fox, Gaussian, Inc., Wallingford CT, 2016.
 
 ******************************************
 Gaussian 16:  ES64L-G16RevA.03 25-Dec-2016
                17-Apr-2021 
 ******************************************
 %RWF=temp2_31725,70GB
 %nprocshared=48
 Will use up to   48 processors via shared memory.
 Default route: MaxDisk=80GB
 ----------------------------------------------------------------------
 #P M062X/GEN Integral=UltraFineGrid SCF=NoSymm Stable=(RExt, Opt) IOp(
 1/33=1)
 ----------------------------------------------------------------------
 1/33=1,38=1,172=1/1;
 2/12=2,17=6,18=5,40=1/2;
 3/5=7,11=2,25=1,30=1,74=-55,75=-5/1,2,3;
 4/9=2/1;
 5/5=2,38=5/2;
 6/7=2,8=2,9=2,10=2,28=1/1;
 8/6=1,10=90,11=11/1;
 9/8=-3,42=1,46=1/14;
 5/5=2,8=3,17=40,38=5/8(-2);
 6/7=2,8=2,9=2,10=2,28=1/1;
 99/5=1,9=1/99;
 Leave Link    1 at Sat Apr 17 19:08:30 2021, MaxMem=           0 cpu:               8.3 elap:               0.2
 (Enter /s/ls4/users/knvvv/bin/g16sse/l101.exe)
 ONIOM data not found on unit 2.
 ----------------------
 Database calculations.
 ----------------------
 TstMul:  ICh=    -1
 TstMul:  Mul=     1
 TstMul:  ICh=    -1
 TstMul:  Mul=     1
 Symbolic Z-matrix:
 Charge = -1 Multiplicity = 1
 F                     1.79848  -0.23613  -1.91656 
 
 RdStrC is calling ZToCFu for IStruc=1 NZ=     1.
 PrtBox:  NBox=     1 Levels=  0 BoxLen=    8.00 SMaxX=        0.00
          Shift=           -3.398629            0.446227            3.621777
 Box      1 Number                   0 centers from      1 to      1:
 After GenITR:
 ITRead=  0
 MicOpt= -1
 ITRead=  0
 MicOpt= -1
 NAtoms=      1 NQM=        1 NQMF=       0 NMMI=      0 NMMIF=      0
                NMic=       0 NMicF=      0.
                    Isotopes and Nuclear Properties:
 (Nuclear quadrupole moments (NQMom) in fm**2, nuclear magnetic moments (NMagM)
  in nuclear magnetons)

  Atom         1
 IAtWgt=          19
 AtmWgt=  18.9984033
 NucSpn=           1
 AtZEff=  -0.0000000
 NQMom=    0.0000000
 NMagM=    2.6288670
 AtZNuc=   9.0000000
 No MM parameters found.
 Leave Link  101 at Sat Apr 17 19:08:30 2021, MaxMem=   104857600 cpu:               6.9 elap:               0.2
 (Enter /s/ls4/users/knvvv/bin/g16sse/l202.exe)
                          Input orientation:                          
 ---------------------------------------------------------------------
 Center     Atomic      Atomic             Coordinates (Angstroms)
 Number     Number       Type             X           Y           Z
 ---------------------------------------------------------------------
      1          9           0        1.798477   -0.236133   -1.916562
 ---------------------------------------------------------------------
 Stoichiometry    F(1-)
 Framework group  OH[O(F)]
 Deg. of freedom     0
 Full point group                 OH      NOp  48
 Largest Abelian subgroup         D2H     NOp   8
 Largest concise Abelian subgroup C1      NOp   1
                         Standard orientation:                         
 ---------------------------------------------------------------------
 Center     Atomic      Atomic             Coordinates (Angstroms)
 Number     Number       Type             X           Y           Z
 ---------------------------------------------------------------------
      1          9           0        0.000000    0.000000    0.000000
 ---------------------------------------------------------------------
 Leave Link  202 at Sat Apr 17 19:08:31 2021, MaxMem=   104857600 cpu:              40.9 elap:               0.9
 (Enter /s/ls4/users/knvvv/bin/g16sse/l301.exe)
 General basis read from cards:  (5D, 7F)
 Centers:       1
 S 8 1.00
     Exponent=  1.3253597345D+05 Coefficients=  4.7387482743D-05
     Exponent=  1.9758112588D+04 Coefficients=  3.7070120897D-04
     Exponent=  4.4851996947D+03 Coefficients=  1.9450784713D-03
     Exponent=  1.2738151020D+03 Coefficients=  8.0573291994D-03
     Exponent=  4.1893831236D+02 Coefficients=  2.7992880781D-02
     Exponent=  1.5255721985D+02 Coefficients=  8.2735120175D-02
     Exponent=  5.9821524823D+01 Coefficients=  1.9854169012D-01
     Exponent=  2.4819076932D+01 Coefficients=  3.4860632233D-01
 S 2 1.00
     Exponent=  1.0074446673D+02 Coefficients=  1.0505068816D-01
     Exponent=  3.0103728290D+01 Coefficients=  9.4068472434D-01
 S 1 1.00
     Exponent=  1.0814283272D+01 Coefficients=  1.0000000000D+00
 S 1 1.00
     Exponent=  4.8172886770D+00 Coefficients=  1.0000000000D+00
 S 1 1.00
     Exponent=  1.6559334213D+00 Coefficients=  1.0000000000D+00
 S 1 1.00
     Exponent=  6.4893519582D-01 Coefficients=  1.0000000000D+00
 S 1 1.00
     Exponent=  2.4778104545D-01 Coefficients=  1.0000000000D+00
 S 1 1.00
     Exponent=  8.7626236800D-02 Coefficients=  1.0000000000D+00
 P 5 1.00
     Exponent=  2.4096654114D+02 Coefficients=  3.0389933451D-03
     Exponent=  5.7020699781D+01 Coefficients=  2.4357738582D-02
     Exponent=  1.8126952120D+01 Coefficients=  1.1442925768D-01
     Exponent=  6.6457404621D+00 Coefficients=  3.7064659853D-01
     Exponent=  2.6375722892D+00 Coefficients=  7.9791551766D-01
 P 1 1.00
     Exponent=  1.0638217200D+00 Coefficients=  1.0000000000D+00
 P 1 1.00
     Exponent=  4.1932562750D-01 Coefficients=  1.0000000000D+00
 P 1 1.00
     Exponent=  1.5747588299D-01 Coefficients=  1.0000000000D+00
 P 1 1.00
     Exponent=  4.6772400332D-02 Coefficients=  1.0000000000D+00
 D 1 1.00
     Exponent=  5.0140000000D+00 Coefficients=  1.0000000000D+00
 D 1 1.00
     Exponent=  1.7250000000D+00 Coefficients=  1.0000000000D+00
 D 1 1.00
     Exponent=  5.8600000000D-01 Coefficients=  1.0000000000D+00
 D 1 1.00
     Exponent=  1.5967986245D-01 Coefficients=  1.0000000000D+00
 F 1 1.00
     Exponent=  3.5620000000D+00 Coefficients=  1.0000000000D+00
 F 1 1.00
     Exponent=  1.1480000000D+00 Coefficients=  1.0000000000D+00
 G 1 1.00
     Exponent=  2.3760000000D+00 Coefficients=  1.0000000000D+00
 ****
 Ernie: Thresh=  0.10000D-02 Tol=  0.10000D-05 Strict=F.
 There are    26 symmetry adapted cartesian basis functions of AG  symmetry.
 There are     7 symmetry adapted cartesian basis functions of B1G symmetry.
 There are     7 symmetry adapted cartesian basis functions of B2G symmetry.
 There are     7 symmetry adapted cartesian basis functions of B3G symmetry.
 There are     2 symmetry adapted cartesian basis functions of AU  symmetry.
 There are    11 symmetry adapted cartesian basis functions of B1U symmetry.
 There are    11 symmetry adapted cartesian basis functions of B2U symmetry.
 There are    11 symmetry adapted cartesian basis functions of B3U symmetry.
 There are    19 symmetry adapted basis functions of AG  symmetry.
 There are     6 symmetry adapted basis functions of B1G symmetry.
 There are     6 symmetry adapted basis functions of B2G symmetry.
 There are     6 symmetry adapted basis functions of B3G symmetry.
 There are     2 symmetry adapted basis functions of AU  symmetry.
 There are     9 symmetry adapted basis functions of B1U symmetry.
 There are     9 symmetry adapted basis functions of B2U symmetry.
 There are     9 symmetry adapted basis functions of B3U symmetry.
    66 basis functions,   102 primitive gaussians,    82 cartesian basis functions
     5 alpha electrons        5 beta electrons
       nuclear repulsion energy         0.0000000000 Hartrees.
 IExCor= 4336 DFT=T Ex+Corr=M062X ExCW=0 ScaHFX=  0.540000
 ScaDFX=  1.000000  1.000000  1.000000  1.000000 ScalE2=  1.000000  1.000000
 IRadAn=      5 IRanWt=     -1 IRanGd=            0 ICorTp=0 IEmpDi=  4
 NAtoms=    1 NActive=    1 NUniq=    1 SFac= 1.00D+00 NAtFMM=   60 NAOKFM=F Big=F
 Integral buffers will be    131072 words long.
 Raffenetti 2 integral format.
 Two-electron integral symmetry is turned on.
 Leave Link  301 at Sat Apr 17 19:08:31 2021, MaxMem=   104857600 cpu:               7.6 elap:               0.2
 (Enter /s/ls4/users/knvvv/bin/g16sse/l302.exe)
 NPDir=0 NMtPBC=     1 NCelOv=     1 NCel=       1 NClECP=     1 NCelD=      1
         NCelK=      1 NCelE2=     1 NClLst=     1 CellRange=     0.0.
 One-electron integrals computed using PRISM.
 One-electron integral symmetry used in STVInt
 PrsmSu:  requested number of processors reduced to:   4 ShMem   1 Linda.
 PrsmSu:  requested number of processors reduced to:  21 ShMem   1 Linda.
 NBasis=    66 RedAO= T EigKep=  5.01D-03  NBF=    19     6     6     6     2     9     9     9
 NBsUse=    66 1.00D-06 EigRej= -1.00D+00 NBFU=    19     6     6     6     2     9     9     9
 Precomputing XC quadrature grid using
 IXCGrd= 4 IRadAn=           5 IRanWt=          -1 IRanGd=           0 AccXCQ= 0.00D+00.
 Generated NRdTot=       0 NPtTot=           0 NUsed=           0 NTot=          32
 NSgBfM=    82    82    82    82    82 MxSgAt=     1 MxSgA2=     1.
 Leave Link  302 at Sat Apr 17 19:08:45 2021, MaxMem=   104857600 cpu:             630.8 elap:              13.5
 (Enter /s/ls4/users/knvvv/bin/g16sse/l303.exe)
 DipDrv:  MaxL=1.
 Leave Link  303 at Sat Apr 17 19:08:45 2021, MaxMem=   104857600 cpu:              18.9 elap:               0.4
 (Enter /s/ls4/users/knvvv/bin/g16sse/l401.exe)
 SCF N**3 symmetry information disabled.
 ExpMin= 4.68D-02 ExpMax= 1.33D+05 ExpMxC= 1.27D+03 IAcc=3 IRadAn=         5 AccDes= 0.00D+00
 Harris functional with IExCor= 1009 and IRadAn=       5 diagonalized for initial guess.
 HarFok:  IExCor= 1009 AccDes= 0.00D+00 IRadAn=         5 IDoV= 1 UseB2=F ITyADJ=14
 ICtDFT=  3500011 ScaDFX=  1.000000  1.000000  1.000000  1.000000
 FoFCou: FMM=F IPFlag=           0 FMFlag=      100000 FMFlg1=           0
         NFxFlg=           0 DoJE=T BraDBF=F KetDBF=T FulRan=T
         wScrn=  0.000000 ICntrl=       500 IOpCl=  0 I1Cent=   200000004 NGrid=           0
         NMat0=    1 NMatS0=      1 NMatT0=    0 NMatD0=    1 NMtDS0=    0 NMtDT0=    0
 Petite list used in FoFCou.
 CoulSu:  requested number of processors reduced to:  21 ShMem   1 Linda.
 CoulSu:  requested number of processors reduced to:  21 ShMem   1 Linda.
 CoulSu:  requested number of processors reduced to:  21 ShMem   1 Linda.
 CoulSu:  requested number of processors reduced to:  21 ShMem   1 Linda.
 Harris En= -100.031630311270    
 JPrj=0 DoOrth=F DoCkMO=F.
 Initial guess orbital symmetries:
       Occupied  (A1G) (A1G) (T1U) (T1U) (T1U)
       Virtual   (A1G) (T1U) (T1U) (T1U) (T2G) (T2G) (T2G) (EG)
                 (EG) (T1U) (T1U) (T1U) (A1G) (T2G) (T2G) (T2G)
                 (EG) (EG) (T1U) (T1U) (T1U) (A1G) (T2U) (T2U)
                 (T2U) (A2U) (T1U) (T1U) (T1U) (T2G) (T2G) (T2G)
                 (EG) (EG) (T1U) (T1U) (T1U) (T1G) (T1G) (T1G)
                 (T2G) (T2G) (T2G) (EG) (EG) (A1G) (T2U) (T2U)
                 (T2U) (A2U) (T1U) (T1U) (T1U) (A1G) (T2G) (T2G)
                 (T2G) (EG) (EG) (A1G) (A1G)
 The electronic state of the initial guess is 1-A1G.
 Leave Link  401 at Sat Apr 17 19:08:55 2021, MaxMem=   104857600 cpu:             479.9 elap:              10.4
 (Enter /s/ls4/users/knvvv/bin/g16sse/l502.exe)
 Keep R1 ints in memory in symmetry-blocked form, NReq=56617520.
 FoFCou: FMM=F IPFlag=           0 FMFlag=           0 FMFlg1=           0
         NFxFlg=           0 DoJE=F BraDBF=F KetDBF=F FulRan=T
         wScrn=  0.000000 ICntrl=       600 IOpCl=  0 I1Cent=           0 NGrid=           0
         NMat0=    1 NMatS0=   2211 NMatT0=    0 NMatD0=    1 NMtDS0=    0 NMtDT0=    0
 Petite list used in FoFCou.
 CoulSu:  requested number of processors reduced to:  22 ShMem   1 Linda.
 Closed shell SCF:
 Using DIIS extrapolation, IDIIS=  1040.
 NGot=   104857600 LenX=   104508676 LenY=   104501511
 Requested convergence on RMS density matrix=1.00D-08 within 128 cycles.
 Requested convergence on MAX density matrix=1.00D-06.
 Requested convergence on             energy=1.00D-06.
 No special actions if energy rises.

 Cycle   1  Pass 1  IDiag  1:
 E= -99.7369574841653    
 DIIS: error= 8.32D-02 at cycle   1 NSaved=   1.
 NSaved= 1 IEnMin= 1 EnMin= -99.7369574841653     IErMin= 1 ErrMin= 8.32D-02
 ErrMax= 8.32D-02  0.00D+00 EMaxC= 1.00D-01 BMatC= 1.87D-01 BMatP= 1.87D-01
 IDIUse=3 WtCom= 1.68D-01 WtEn= 8.32D-01
 Coeff-Com:  0.100D+01
 Coeff-En:   0.100D+01
 Coeff:      0.100D+01
 Gap=     0.218 Goal=   None    Shift=    0.000
 DSYEVD-2 returned Info=         133 IAlg= 4 N=    66 NDim=    66 NE2=     1583355 trying  DSYEV.
 GapD=    0.218 DampG=1.000 DampE=0.500 DampFc=0.5000 IDamp=-1.
 Damping current iteration by 5.00D-01
 RMSDP=9.03D-03 MaxDP=1.35D-01              OVMax= 3.92D-01

 Cycle   2  Pass 1  IDiag  1:
 E= -99.6809578987755     Delta-E=        0.055999585390 Rises=F Damp=T
 DIIS: error= 6.15D-02 at cycle   2 NSaved=   2.
 NSaved= 2 IEnMin= 1 EnMin= -99.7369574841653     IErMin= 2 ErrMin= 6.15D-02
 ErrMax= 6.15D-02  0.00D+00 EMaxC= 1.00D-01 BMatC= 7.93D-02 BMatP= 1.87D-01
 IDIUse=3 WtCom= 3.85D-01 WtEn= 6.15D-01
 Coeff-Com:  0.371D+00 0.629D+00
 Coeff-En:   0.631D+00 0.369D+00
 Coeff:      0.531D+00 0.469D+00
 Gap=     0.259 Goal=   None    Shift=    0.000
 RMSDP=2.32D-03 MaxDP=5.57D-02 DE= 5.60D-02 OVMax= 2.60D-01

 Cycle   3  Pass 1  IDiag  1:
 E= -99.8535013711871     Delta-E=       -0.172543472412 Rises=F Damp=F
 DIIS: error= 2.31D-02 at cycle   3 NSaved=   3.
 NSaved= 3 IEnMin= 3 EnMin= -99.8535013711871     IErMin= 3 ErrMin= 2.31D-02
 ErrMax= 2.31D-02  0.00D+00 EMaxC= 1.00D-01 BMatC= 1.38D-02 BMatP= 7.93D-02
 IDIUse=3 WtCom= 7.69D-01 WtEn= 2.31D-01
 Coeff-Com:  0.148D+00-0.278D+00 0.113D+01
 Coeff-En:   0.000D+00 0.000D+00 0.100D+01
 Coeff:      0.114D+00-0.214D+00 0.110D+01
 Gap=     0.343 Goal=   None    Shift=    0.000
 DSYEVD-2 returned Info=        2344 IAlg= 4 N=    66 NDim=    66 NE2=     1583355 trying  DSYEV.
 RMSDP=8.10D-04 MaxDP=1.03D-02 DE=-1.73D-01 OVMax= 2.60D-02

 Cycle   4  Pass 1  IDiag  1:
 E= -99.8603844630581     Delta-E=       -0.006883091871 Rises=F Damp=F
 DIIS: error= 1.69D-03 at cycle   4 NSaved=   4.
 NSaved= 4 IEnMin= 4 EnMin= -99.8603844630581     IErMin= 4 ErrMin= 1.69D-03
 ErrMax= 1.69D-03  0.00D+00 EMaxC= 1.00D-01 BMatC= 8.47D-05 BMatP= 1.38D-02
 IDIUse=3 WtCom= 9.83D-01 WtEn= 1.69D-02
 Coeff-Com:  0.337D-01-0.640D-01 0.225D+00 0.805D+00
 Coeff-En:   0.000D+00 0.000D+00 0.000D+00 0.100D+01
 Coeff:      0.332D-01-0.629D-01 0.221D+00 0.808D+00
 Gap=     0.341 Goal=   None    Shift=    0.000
 DSYEVD-2 returned Info=        2344 IAlg= 4 N=    66 NDim=    66 NE2=     1583355 trying  DSYEV.
 RMSDP=9.25D-05 MaxDP=3.68D-03 DE=-6.88D-03 OVMax= 1.13D-03

 Cycle   5  Pass 1  IDiag  1:
 E= -99.8604166198299     Delta-E=       -0.000032156772 Rises=F Damp=F
 DIIS: error= 1.72D-03 at cycle   5 NSaved=   5.
 NSaved= 5 IEnMin= 5 EnMin= -99.8604166198299     IErMin= 4 ErrMin= 1.69D-03
 ErrMax= 1.72D-03  0.00D+00 EMaxC= 1.00D-01 BMatC= 6.29D-05 BMatP= 8.47D-05
 IDIUse=3 WtCom= 9.83D-01 WtEn= 1.72D-02
 Coeff-Com:  0.106D-01-0.171D-01 0.174D-02-0.143D+00 0.115D+01
 Coeff-En:   0.000D+00 0.000D+00 0.000D+00 0.000D+00 0.100D+01
 Coeff:      0.104D-01-0.168D-01 0.171D-02-0.140D+00 0.114D+01
 Gap=     0.341 Goal=   None    Shift=    0.000
 RMSDP=3.95D-05 MaxDP=9.65D-04 DE=-3.22D-05 OVMax= 1.43D-03

 Cycle   6  Pass 1  IDiag  1:
 E= -99.8604571236392     Delta-E=       -0.000040503809 Rises=F Damp=F
 DIIS: error= 4.93D-04 at cycle   6 NSaved=   6.
 NSaved= 6 IEnMin= 6 EnMin= -99.8604571236392     IErMin= 6 ErrMin= 4.93D-04
 ErrMax= 4.93D-04  0.00D+00 EMaxC= 1.00D-01 BMatC= 5.35D-06 BMatP= 6.29D-05
 IDIUse=3 WtCom= 9.95D-01 WtEn= 4.93D-03
 Coeff-Com: -0.358D-03 0.129D-02 0.165D-03-0.257D-02-0.493D+00 0.149D+01
 Coeff-En:   0.000D+00 0.000D+00 0.000D+00 0.000D+00 0.000D+00 0.100D+01
 Coeff:     -0.356D-03 0.128D-02 0.164D-03-0.256D-02-0.491D+00 0.149D+01
 Gap=     0.342 Goal=   None    Shift=    0.000
 RMSDP=1.96D-05 MaxDP=5.12D-04 DE=-4.05D-05 OVMax= 5.61D-04

 Cycle   7  Pass 1  IDiag  1:
 E= -99.8604608801767     Delta-E=       -0.000003756538 Rises=F Damp=F
 DIIS: error= 1.87D-05 at cycle   7 NSaved=   7.
 NSaved= 7 IEnMin= 7 EnMin= -99.8604608801767     IErMin= 7 ErrMin= 1.87D-05
 ErrMax= 1.87D-05  0.00D+00 EMaxC= 1.00D-01 BMatC= 6.31D-09 BMatP= 5.35D-06
 IDIUse=1 WtCom= 1.00D+00 WtEn= 0.00D+00
 Coeff-Com:  0.399D-04-0.177D-03-0.227D-03-0.477D-03 0.110D+00-0.302D+00
 Coeff-Com:  0.119D+01
 Coeff:      0.399D-04-0.177D-03-0.227D-03-0.477D-03 0.110D+00-0.302D+00
 Coeff:      0.119D+01
 Gap=     0.342 Goal=   None    Shift=    0.000
 RMSDP=1.13D-06 MaxDP=1.66D-05 DE=-3.76D-06 OVMax= 3.66D-05

 Cycle   8  Pass 1  IDiag  1:
 E= -99.8604608860734     Delta-E=       -0.000000005897 Rises=F Damp=F
 DIIS: error= 4.74D-06 at cycle   8 NSaved=   8.
 NSaved= 8 IEnMin= 8 EnMin= -99.8604608860734     IErMin= 8 ErrMin= 4.74D-06
 ErrMax= 4.74D-06  0.00D+00 EMaxC= 1.00D-01 BMatC= 4.84D-10 BMatP= 6.31D-09
 IDIUse=1 WtCom= 1.00D+00 WtEn= 0.00D+00
 Coeff-Com:  0.648D-05-0.617D-05 0.115D-04-0.672D-04-0.458D-02 0.608D-02
 Coeff-Com: -0.359D-01 0.103D+01
 Coeff:      0.648D-05-0.617D-05 0.115D-04-0.672D-04-0.458D-02 0.608D-02
 Coeff:     -0.359D-01 0.103D+01
 Gap=     0.342 Goal=   None    Shift=    0.000
 RMSDP=1.57D-07 MaxDP=5.18D-06 DE=-5.90D-09 OVMax= 5.19D-06

 Cycle   9  Pass 1  IDiag  1:
 E= -99.8604608864129     Delta-E=       -0.000000000339 Rises=F Damp=F
 DIIS: error= 2.20D-07 at cycle   9 NSaved=   9.
 NSaved= 9 IEnMin= 9 EnMin= -99.8604608864129     IErMin= 9 ErrMin= 2.20D-07
 ErrMax= 2.20D-07  0.00D+00 EMaxC= 1.00D-01 BMatC= 1.00D-12 BMatP= 4.84D-10
 IDIUse=1 WtCom= 1.00D+00 WtEn= 0.00D+00
 Coeff-Com: -0.542D-06 0.285D-06-0.271D-05 0.606D-05 0.530D-03-0.100D-02
 Coeff-Com:  0.427D-02-0.123D+00 0.112D+01
 Coeff:     -0.542D-06 0.285D-06-0.271D-05 0.606D-05 0.530D-03-0.100D-02
 Coeff:      0.427D-02-0.123D+00 0.112D+01
 Gap=     0.342 Goal=   None    Shift=    0.000
 RMSDP=7.15D-09 MaxDP=2.25D-07 DE=-3.39D-10 OVMax= 2.29D-07

 SCF Done:  E(RM062X) =  -99.8604608864     A.U. after    9 cycles
            NFock=  9  Conv=0.72D-08     -V/T= 2.0026
 KE= 9.960404782099D+01 PE=-2.433909618904D+02 EE= 4.392645318295D+01
 Leave Link  502 at Sat Apr 17 19:11:10 2021, MaxMem=   104857600 cpu:            6332.3 elap:             135.0
 (Enter /s/ls4/users/knvvv/bin/g16sse/l601.exe)
 Copying SCF densities to generalized density rwf, IOpCl= 0 IROHF=0.

 **********************************************************************

            Population analysis using the SCF density.

 **********************************************************************

 Orbital symmetries:
       Occupied  (A1G) (A1G) (T1U) (T1U) (T1U)
       Virtual   (T1U) (T1U) (T1U) (A1G) (T2G) (T2G) (T2G) (EG)
                 (EG) (T1U) (T1U) (T1U) (A1G) (T2G) (T2G) (T2G)
                 (EG) (EG) (T1U) (T1U) (T1U) (A1G) (T2U) (T2U)
                 (T2U) (A2U) (T1U) (T1U) (T1U) (T2G) (T2G) (T2G)
                 (EG) (EG) (T1U) (T1U) (T1U) (T2G) (T2G) (T2G)
                 (T1G) (T1G) (T1G) (EG) (EG) (A1G) (A2U) (T2U)
                 (T2U) (T2U) (T1U) (T1U) (T1U) (A1G) (T2G) (T2G)
                 (T2G) (EG) (EG) (A1G) (A1G)
 The electronic state is 1-A1G.
 Alpha  occ. eigenvalues --  -24.79151  -0.83684  -0.07494  -0.07494  -0.07494
 Alpha virt. eigenvalues --    0.26728   0.26728   0.26728   0.37455   0.71424
 Alpha virt. eigenvalues --    0.71424   0.71424   0.71424   0.71424   0.77335
 Alpha virt. eigenvalues --    0.77335   0.77335   1.27575   2.07709   2.07709
 Alpha virt. eigenvalues --    2.07709   2.07709   2.07709   2.21362   2.21362
 Alpha virt. eigenvalues --    2.21362   4.20240   4.60273   4.60273   4.60273
 Alpha virt. eigenvalues --    4.60273   4.60273   4.60273   4.60273   5.66478
 Alpha virt. eigenvalues --    5.66478   5.66478   5.66478   5.66478   6.77326
 Alpha virt. eigenvalues --    6.77326   6.77326  11.77659  11.77659  11.77659
 Alpha virt. eigenvalues --   11.77659  11.77659  11.77659  11.77659  11.77659
 Alpha virt. eigenvalues --   11.77659  14.85261  14.85261  14.85261  14.85261
 Alpha virt. eigenvalues --   14.85261  14.85261  14.85261  15.15106  16.25571
 Alpha virt. eigenvalues --   16.25571  16.25571  16.25571  16.25571  54.32296
 Alpha virt. eigenvalues --  283.09877
          Condensed to atoms (all electrons):
               1
     1  F   10.000000
 Mulliken charges:
               1
     1  F   -1.000000
 Sum of Mulliken charges =  -1.00000
 Mulliken charges with hydrogens summed into heavy atoms:
               1
     1  F   -1.000000
 Electronic spatial extent (au):  <R**2>=             17.0307
 Charge=             -1.0000 electrons
 Dipole moment (field-independent basis, Debye):
    X=             -0.0000    Y=              0.0000    Z=              0.0000  Tot=              0.0000
 Quadrupole moment (field-independent basis, Debye-Ang):
   XX=             -7.6356   YY=             -7.6356   ZZ=             -7.6356
   XY=             -0.0000   XZ=              0.0000   YZ=              0.0000
 Traceless Quadrupole moment (field-independent basis, Debye-Ang):
   XX=              0.0000   YY=             -0.0000   ZZ=             -0.0000
   XY=             -0.0000   XZ=              0.0000   YZ=              0.0000
 Octapole moment (field-independent basis, Debye-Ang**2):
  XXX=             -0.0000  YYY=              0.0000  ZZZ=              0.0000  XYY=              0.0000
  XXY=              0.0000  XXZ=              0.0000  XZZ=              0.0000  YZZ=              0.0000
  YYZ=              0.0000  XYZ=              0.0000
 Hexadecapole moment (field-independent basis, Debye-Ang**3):
 XXXX=            -10.2980 YYYY=            -10.2980 ZZZZ=            -10.2980 XXXY=              0.0000
 XXXZ=             -0.0000 YYYX=             -0.0000 YYYZ=              0.0000 ZZZX=              0.0000
 ZZZY=             -0.0000 XXYY=             -3.4327 XXZZ=             -3.4327 YYZZ=             -3.4327
 XXYZ=              0.0000 YYXZ=              0.0000 ZZXY=             -0.0000
 N-N= 0.000000000000D+00 E-N=-2.433909694935D+02  KE= 9.960404782099D+01
 PrsmSu:  requested number of processors reduced to:  21 ShMem   1 Linda.
 No NMR shielding tensors so no spin-rotation constants.
 Leave Link  601 at Sat Apr 17 19:11:16 2021, MaxMem=   104857600 cpu:             239.1 elap:               5.2
 (Enter /s/ls4/users/knvvv/bin/g16sse/l801.exe)
 DoSCS=F DFT=T ScalE2(SS,OS)=  1.000000  1.000000
 Range of M.O.s used for correlation:     1    66
 NBasis=    66 NAE=     5 NBE=     5 NFC=     0 NFV=     0
 NROrb=     66 NOA=     5 NOB=     5 NVA=    61 NVB=    61
 Leave Link  801 at Sat Apr 17 19:11:16 2021, MaxMem=   104857600 cpu:               4.6 elap:               0.1
 (Enter /s/ls4/users/knvvv/bin/g16sse/l914.exe)
 RHF ground state
 Doing stability rather than CIS.
 Two-electron integrals replicated using symmetry.
 MDV=   104857600 DFT=T DoStab=T Mixed=T DoRPA=F DoScal=F NonHer=F
 Making orbital integer symmetry assigments:
 Orbital symmetries:
       Occupied  (A1G) (A1G) (T1U) (T1U) (T1U)
       Virtual   (T1U) (T1U) (T1U) (A1G) (T2G) (T2G) (T2G) (EG)
                 (EG) (T1U) (T1U) (T1U) (A1G) (T2G) (T2G) (T2G)
                 (EG) (EG) (T1U) (T1U) (T1U) (A1G) (T2U) (T2U)
                 (T2U) (A2U) (T1U) (T1U) (T1U) (T2G) (T2G) (T2G)
                 (EG) (EG) (T1U) (T1U) (T1U) (T2G) (T2G) (T2G)
                 (T1G) (T1G) (T1G) (EG) (EG) (A1G) (A2U) (T2U)
                 (T2U) (T2U) (T1U) (T1U) (T1U) (A1G) (T2G) (T2G)
                 (T2G) (EG) (EG) (A1G) (A1G)
    48 initial guesses have been made.
 Convergence on wavefunction:    0.001000000000000
 Davidson Disk Diagonalization:  ConvIn= 1.00D-03 SkipCon=T Conv= 1.00D-03.
 Max sub-space:  1220 roots to seek:    48 dimension of matrix:          610
 Iteration     1 Dimension    48 NMult     0 NNew     48
 Estimated number of processors is:   20
 CISAX will form     1 AO SS matrices at one time.
 NMat=     1 NSing=     1 JSym2X= 2.
 FoFJK:  IHMeth= 1 ICntrl=       0 DoSepK=F KAlg= 0 I1Cent=           0 FoldK=F
 IRaf= 990000000 NMat=       1 IRICut=       1 DoRegI=T DoRafI=F ISym2E= 2 IDoP0=0 IntGTp=1.
 FoFCou: FMM=F IPFlag=           0 FMFlag=      100000 FMFlg1=           0
         NFxFlg=           0 DoJE=F BraDBF=F KetDBF=F FulRan=T
         wScrn=  0.000000 ICntrl=         0 IOpCl=  0 I1Cent=           0 NGrid=           0
         NMat0=    1 NMatS0=      1 NMatT0=    0 NMatD0=    1 NMtDS0=    0 NMtDT0=    0
 Integrals replicated using symmetry in FoFCou.
 CoulSu:  requested number of processors reduced to:  21 ShMem   1 Linda.
 NMat=     1 NSing=     1 JSym2X= 2.
 CoulSu:  requested number of processors reduced to:  21 ShMem   1 Linda.
 NMat=     1 NSing=     1 JSym2X= 2.
 CoulSu:  requested number of processors reduced to:  21 ShMem   1 Linda.
 NMat=     1 NSing=     1 JSym2X= 2.
 CoulSu:  requested number of processors reduced to:  21 ShMem   1 Linda.
 NMat=     1 NSing=     1 JSym2X= 2.
 CoulSu:  requested number of processors reduced to:  21 ShMem   1 Linda.
 NMat=     1 NSing=     1 JSym2X= 2.
 CoulSu:  requested number of processors reduced to:  21 ShMem   1 Linda.
 NMat=     1 NSing=     1 JSym2X= 2.
 CoulSu:  requested number of processors reduced to:  21 ShMem   1 Linda.
 NMat=     1 NSing=     1 JSym2X= 2.
 CoulSu:  requested number of processors reduced to:  21 ShMem   1 Linda.
 NMat=     1 NSing=     1 JSym2X= 2.
 CoulSu:  requested number of processors reduced to:  21 ShMem   1 Linda.
 NMat=     1 NSing=     1 JSym2X= 2.
 CoulSu:  requested number of processors reduced to:  21 ShMem   1 Linda.
 NMat=     1 NSing=     1 JSym2X= 2.
 CoulSu:  requested number of processors reduced to:  21 ShMem   1 Linda.
 NMat=     1 NSing=     1 JSym2X= 2.
 CoulSu:  requested number of processors reduced to:  21 ShMem   1 Linda.
 NMat=     1 NSing=     1 JSym2X= 2.
 CoulSu:  requested number of processors reduced to:  21 ShMem   1 Linda.
 NMat=     1 NSing=     1 JSym2X= 2.
 CoulSu:  requested number of processors reduced to:  21 ShMem   1 Linda.
 NMat=     1 NSing=     1 JSym2X= 2.
 CoulSu:  requested number of processors reduced to:  21 ShMem   1 Linda.
 NMat=     1 NSing=     1 JSym2X= 2.
 CoulSu:  requested number of processors reduced to:  21 ShMem   1 Linda.
 NMat=     1 NSing=     1 JSym2X= 2.
 CoulSu:  requested number of processors reduced to:  21 ShMem   1 Linda.
 NMat=     1 NSing=     1 JSym2X= 2.
 CoulSu:  requested number of processors reduced to:  21 ShMem   1 Linda.
 NMat=     1 NSing=     1 JSym2X= 2.
 CoulSu:  requested number of processors reduced to:  21 ShMem   1 Linda.
 NMat=     1 NSing=     1 JSym2X= 2.
 CoulSu:  requested number of processors reduced to:  21 ShMem   1 Linda.
 NMat=     1 NSing=     1 JSym2X= 2.
 CoulSu:  requested number of processors reduced to:  21 ShMem   1 Linda.
 NMat=     1 NSing=     1 JSym2X= 2.
 CoulSu:  requested number of processors reduced to:  21 ShMem   1 Linda.
 NMat=     1 NSing=     1 JSym2X= 2.
 CoulSu:  requested number of processors reduced to:  21 ShMem   1 Linda.
 NMat=     1 NSing=     1 JSym2X= 2.
 CoulSu:  requested number of processors reduced to:  21 ShMem   1 Linda.
 NMat=     1 NSing=     0 JSym2X= 2.
 CoulSu:  requested number of processors reduced to:  21 ShMem   1 Linda.
 NMat=     1 NSing=     0 JSym2X= 2.
 CoulSu:  requested number of processors reduced to:  21 ShMem   1 Linda.
 NMat=     1 NSing=     0 JSym2X= 2.
 CoulSu:  requested number of processors reduced to:  21 ShMem   1 Linda.
 NMat=     1 NSing=     0 JSym2X= 2.
 CoulSu:  requested number of processors reduced to:  21 ShMem   1 Linda.
 NMat=     1 NSing=     0 JSym2X= 2.
 CoulSu:  requested number of processors reduced to:  21 ShMem   1 Linda.
 NMat=     1 NSing=     0 JSym2X= 2.
 CoulSu:  requested number of processors reduced to:  21 ShMem   1 Linda.
 NMat=     1 NSing=     0 JSym2X= 2.
 CoulSu:  requested number of processors reduced to:  21 ShMem   1 Linda.
 NMat=     1 NSing=     0 JSym2X= 2.
 CoulSu:  requested number of processors reduced to:  21 ShMem   1 Linda.
 NMat=     1 NSing=     0 JSym2X= 2.
 CoulSu:  requested number of processors reduced to:  21 ShMem   1 Linda.
 NMat=     1 NSing=     0 JSym2X= 2.
 CoulSu:  requested number of processors reduced to:  21 ShMem   1 Linda.
 NMat=     1 NSing=     0 JSym2X= 2.
 CoulSu:  requested number of processors reduced to:  21 ShMem   1 Linda.
 NMat=     1 NSing=     0 JSym2X= 2.
 CoulSu:  requested number of processors reduced to:  21 ShMem   1 Linda.
 NMat=     1 NSing=     0 JSym2X= 2.
 CoulSu:  requested number of processors reduced to:  21 ShMem   1 Linda.
 NMat=     1 NSing=     0 JSym2X= 2.
 CoulSu:  requested number of processors reduced to:  21 ShMem   1 Linda.
 NMat=     1 NSing=     0 JSym2X= 2.
 CoulSu:  requested number of processors reduced to:  21 ShMem   1 Linda.
 NMat=     1 NSing=     0 JSym2X= 2.
 CoulSu:  requested number of processors reduced to:  21 ShMem   1 Linda.
 NMat=     1 NSing=     0 JSym2X= 2.
 CoulSu:  requested number of processors reduced to:  21 ShMem   1 Linda.
 NMat=     1 NSing=     0 JSym2X= 2.
 CoulSu:  requested number of processors reduced to:  21 ShMem   1 Linda.
 NMat=     1 NSing=     0 JSym2X= 2.
 CoulSu:  requested number of processors reduced to:  21 ShMem   1 Linda.
 NMat=     1 NSing=     0 JSym2X= 2.
 CoulSu:  requested number of processors reduced to:  21 ShMem   1 Linda.
 NMat=     1 NSing=     0 JSym2X= 2.
 CoulSu:  requested number of processors reduced to:  21 ShMem   1 Linda.
 NMat=     1 NSing=     0 JSym2X= 2.
 CoulSu:  requested number of processors reduced to:  21 ShMem   1 Linda.
 NMat=     1 NSing=     0 JSym2X= 2.
 CoulSu:  requested number of processors reduced to:  21 ShMem   1 Linda.
 NMat=     1 NSing=     0 JSym2X= 2.
 CoulSu:  requested number of processors reduced to:  21 ShMem   1 Linda.
 New state      1 was old state      3
 Excitation Energies [eV] at current iteration:
 Root      1 :     6.473930810157365
 Root      2 :     6.473930810157644
 Root      3 :     6.473930810157764
 Root      4 :     6.473930810160571
 Root      5 :     6.473930810160637
 Root      6 :     6.602322843039851
 Root      7 :     6.602322843040187
 Root      8 :     6.602322843040317
 Root      9 :     6.602322843040340
 Root     10 :     6.602322843040400
 Root     11 :     6.602322843040880
 Root     12 :     6.906172922052160
 Root     13 :     6.906172922052410
 Root     14 :     6.906172922053443
 Root     15 :     6.906172922056536
 Root     16 :     6.906172922056942
 Root     17 :     7.890808232127159
 Root     18 :     7.891172142901117
 Root     19 :     7.892561365772939
 Root     20 :     8.247811164378504
 Root     21 :     8.248048769442422
 Root     22 :     8.249011167591290
 Root     23 :     8.293527348351031
 Root     24 :    11.690595919833960
 Root     25 :    15.945843237672690
 Root     26 :    15.945843237690020
 Root     27 :    15.945843237714410
 Root     28 :    15.945843237775990
 Root     29 :    16.394458107646560
 Root     30 :    16.430386576131100
 Root     31 :    16.430386576133210
 Root     32 :    16.430386576161660
 Root     33 :    16.430386576237750
 Root     34 :    16.464834383898070
 Root     35 :    16.697826021896940
 Root     36 :    16.749577385614050
 Root     37 :    16.923437452830440
 Root     38 :    17.087000531959220
 Root     39 :    17.095779637021180
 Root     40 :    17.095779637021330
 Root     41 :    17.095779637021390
 Root     42 :    17.095779637021450
 Root     43 :    17.117750288842130
 Root     44 :    17.511164826107540
 Root     45 :    17.564690844926350
 Root     46 :    18.125454341032940
 Root     47 :    18.903148793582800
 Root     48 :    19.068724312319010
 Iteration     2 Dimension    96 NMult    48 NNew     48
 Estimated number of processors is:   20
 CISAX will form     1 AO SS matrices at one time.
 NMat=     1 NSing=     1 JSym2X= 2.
 CoulSu:  requested number of processors reduced to:  21 ShMem   1 Linda.
 NMat=     1 NSing=     1 JSym2X= 2.
 CoulSu:  requested number of processors reduced to:  21 ShMem   1 Linda.
 NMat=     1 NSing=     1 JSym2X= 2.
 CoulSu:  requested number of processors reduced to:  21 ShMem   1 Linda.
 NMat=     1 NSing=     1 JSym2X= 2.
 CoulSu:  requested number of processors reduced to:  21 ShMem   1 Linda.
 NMat=     1 NSing=     1 JSym2X= 2.
 CoulSu:  requested number of processors reduced to:  21 ShMem   1 Linda.
 NMat=     1 NSing=     1 JSym2X= 2.
 CoulSu:  requested number of processors reduced to:  21 ShMem   1 Linda.
 NMat=     1 NSing=     1 JSym2X= 2.
 CoulSu:  requested number of processors reduced to:  21 ShMem   1 Linda.
 NMat=     1 NSing=     1 JSym2X= 2.
 CoulSu:  requested number of processors reduced to:  21 ShMem   1 Linda.
 NMat=     1 NSing=     1 JSym2X= 2.
 CoulSu:  requested number of processors reduced to:  21 ShMem   1 Linda.
 NMat=     1 NSing=     1 JSym2X= 2.
 CoulSu:  requested number of processors reduced to:  21 ShMem   1 Linda.
 NMat=     1 NSing=     1 JSym2X= 2.
 CoulSu:  requested number of processors reduced to:  21 ShMem   1 Linda.
 NMat=     1 NSing=     1 JSym2X= 2.
 CoulSu:  requested number of processors reduced to:  21 ShMem   1 Linda.
 NMat=     1 NSing=     1 JSym2X= 2.
 CoulSu:  requested number of processors reduced to:  21 ShMem   1 Linda.
 NMat=     1 NSing=     1 JSym2X= 2.
 CoulSu:  requested number of processors reduced to:  21 ShMem   1 Linda.
 NMat=     1 NSing=     1 JSym2X= 2.
 CoulSu:  requested number of processors reduced to:  21 ShMem   1 Linda.
 NMat=     1 NSing=     1 JSym2X= 2.
 CoulSu:  requested number of processors reduced to:  21 ShMem   1 Linda.
 NMat=     1 NSing=     1 JSym2X= 2.
 CoulSu:  requested number of processors reduced to:  21 ShMem   1 Linda.
 NMat=     1 NSing=     1 JSym2X= 2.
 CoulSu:  requested number of processors reduced to:  21 ShMem   1 Linda.
 NMat=     1 NSing=     1 JSym2X= 2.
 CoulSu:  requested number of processors reduced to:  21 ShMem   1 Linda.
 NMat=     1 NSing=     1 JSym2X= 2.
 CoulSu:  requested number of processors reduced to:  21 ShMem   1 Linda.
 NMat=     1 NSing=     1 JSym2X= 2.
 CoulSu:  requested number of processors reduced to:  21 ShMem   1 Linda.
 NMat=     1 NSing=     1 JSym2X= 2.
 CoulSu:  requested number of processors reduced to:  21 ShMem   1 Linda.
 NMat=     1 NSing=     1 JSym2X= 2.
 CoulSu:  requested number of processors reduced to:  21 ShMem   1 Linda.
 NMat=     1 NSing=     1 JSym2X= 2.
 CoulSu:  requested number of processors reduced to:  21 ShMem   1 Linda.
 NMat=     1 NSing=     0 JSym2X= 2.
 CoulSu:  requested number of processors reduced to:  21 ShMem   1 Linda.
 NMat=     1 NSing=     0 JSym2X= 2.
 CoulSu:  requested number of processors reduced to:  21 ShMem   1 Linda.
 NMat=     1 NSing=     0 JSym2X= 2.
 CoulSu:  requested number of processors reduced to:  21 ShMem   1 Linda.
 NMat=     1 NSing=     0 JSym2X= 2.
 CoulSu:  requested number of processors reduced to:  21 ShMem   1 Linda.
 NMat=     1 NSing=     0 JSym2X= 2.
 CoulSu:  requested number of processors reduced to:  21 ShMem   1 Linda.
 NMat=     1 NSing=     0 JSym2X= 2.
 CoulSu:  requested number of processors reduced to:  21 ShMem   1 Linda.
 NMat=     1 NSing=     0 JSym2X= 2.
 CoulSu:  requested number of processors reduced to:  21 ShMem   1 Linda.
 NMat=     1 NSing=     0 JSym2X= 2.
 CoulSu:  requested number of processors reduced to:  21 ShMem   1 Linda.
 NMat=     1 NSing=     0 JSym2X= 2.
 CoulSu:  requested number of processors reduced to:  21 ShMem   1 Linda.
 NMat=     1 NSing=     0 JSym2X= 2.
 CoulSu:  requested number of processors reduced to:  21 ShMem   1 Linda.
 NMat=     1 NSing=     0 JSym2X= 2.
 CoulSu:  requested number of processors reduced to:  21 ShMem   1 Linda.
 NMat=     1 NSing=     0 JSym2X= 2.
 CoulSu:  requested number of processors reduced to:  21 ShMem   1 Linda.
 NMat=     1 NSing=     0 JSym2X= 2.
 CoulSu:  requested number of processors reduced to:  21 ShMem   1 Linda.
 NMat=     1 NSing=     0 JSym2X= 2.
 CoulSu:  requested number of processors reduced to:  21 ShMem   1 Linda.
 NMat=     1 NSing=     0 JSym2X= 2.
 CoulSu:  requested number of processors reduced to:  21 ShMem   1 Linda.
 NMat=     1 NSing=     0 JSym2X= 2.
 CoulSu:  requested number of processors reduced to:  21 ShMem   1 Linda.
 NMat=     1 NSing=     0 JSym2X= 2.
 CoulSu:  requested number of processors reduced to:  21 ShMem   1 Linda.
 NMat=     1 NSing=     0 JSym2X= 2.
 CoulSu:  requested number of processors reduced to:  21 ShMem   1 Linda.
 NMat=     1 NSing=     0 JSym2X= 2.
 CoulSu:  requested number of processors reduced to:  21 ShMem   1 Linda.
 NMat=     1 NSing=     0 JSym2X= 2.
 CoulSu:  requested number of processors reduced to:  21 ShMem   1 Linda.
 NMat=     1 NSing=     0 JSym2X= 2.
 CoulSu:  requested number of processors reduced to:  21 ShMem   1 Linda.
 NMat=     1 NSing=     0 JSym2X= 2.
 CoulSu:  requested number of processors reduced to:  21 ShMem   1 Linda.
 NMat=     1 NSing=     0 JSym2X= 2.
 CoulSu:  requested number of processors reduced to:  21 ShMem   1 Linda.
 NMat=     1 NSing=     0 JSym2X= 2.
 CoulSu:  requested number of processors reduced to:  21 ShMem   1 Linda.
 Vector  11 SDiff=7.96D-01 TDiff=3.65D-04 assumed to be triplet.
 Vector  12 SDiff=3.87D-04 TDiff=7.37D-01 assumed to be singlet.
 Vector  13 SDiff=2.32D-04 TDiff=9.28D-01 assumed to be singlet.
 Vector  14 SDiff=6.21D-04 TDiff=8.81D-01 assumed to be singlet.
 Vector  15 SDiff=6.89D-01 TDiff=4.47D-04 assumed to be triplet.
 Vector  16 SDiff=8.87D-01 TDiff=4.33D-04 assumed to be triplet.
 Vector  55 SDiff=1.65D-01 TDiff=8.79D-01 assumed to be singlet.
 Vector  56 SDiff=1.67D-01 TDiff=9.29D-01 assumed to be singlet.
 Vector  57 SDiff=8.85D-01 TDiff=3.07D-01 assumed to be triplet.
 Vector  59 SDiff=7.38D-01 TDiff=8.44D-02 assumed to be triplet.
 Vector  60 SDiff=4.44D-02 TDiff=7.04D-01 assumed to be singlet.
 Root      1 not converged, maximum delta is    0.288336662821358
 Excitation Energies [eV] at current iteration:
 Root      1 :     6.238246870522770   Change is   -0.235683939634595
 Root      2 :     6.238246931222984   Change is   -0.235683878937586
 Root      3 :     6.238247000314790   Change is   -0.235683809842974
 Root      4 :     6.238247047072675   Change is   -0.235683763087961
 Root      5 :     6.238247207423972   Change is   -0.235683602733673
 Root      6 :     6.386492197370552   Change is   -0.519680724681608
 Root      7 :     6.386492277835786   Change is   -0.519680644216624
 Root      8 :     6.386492279531689   Change is   -0.519680642521755
 Root      9 :     6.386492282250321   Change is   -0.519680639806621
 Root     10 :     6.386492361405120   Change is   -0.519680560651416
 Root     11 :     6.571663913361799   Change is   -0.030658929678053
 Root     12 :     6.571663913362130   Change is   -0.030658929678056
 Root     13 :     6.571663913362256   Change is   -0.030658929678061
 Root     14 :     6.571663913362281   Change is   -0.030658929678059
 Root     15 :     6.571663913362342   Change is   -0.030658929678058
 Root     16 :     6.571663913362825   Change is   -0.030658929678056
 Root     17 :     7.317151204394064   Change is   -0.976376143956966
 Root     18 :     7.630258755059505   Change is   -0.260549477067654
 Root     19 :     7.630293675341068   Change is   -0.260878467560048
 Root     20 :     7.630384331481001   Change is   -0.262177034291937
 Root     21 :     8.215531442776127   Change is   -0.032279721602377
 Root     22 :     8.215541437812631   Change is   -0.032507331629791
 Root     23 :     8.215549321044589   Change is   -0.033461846546700
 Root     24 :     9.317880772778670   Change is   -2.372715147055293
 Root     25 :    15.868216526520740   Change is   -0.077626711151945
 Root     26 :    15.868216633197530   Change is   -0.077626604516874
 Root     27 :    15.868216689454540   Change is   -0.077626548235473
 Root     28 :    15.868216741056080   Change is   -0.077626496719905
 Root     29 :    16.081694746269190   Change is   -0.312763361377372
 Root     30 :    16.107455962296640   Change is   -0.357378421601427
 Root     31 :    16.297537551684290   Change is   -0.625899901146150
 Root     32 :    16.412440385037850   Change is   -0.017946191123809
 Root     33 :    16.412440453291870   Change is   -0.017946122945879
 Root     34 :    16.412440480574030   Change is   -0.017946095557067
 Root     35 :    16.412440545226530   Change is   -0.017946030906682
 Root     36 :    16.586496659818560   Change is   -0.111329362078380
 Root     37 :    16.617743265055700   Change is   -0.131834120558352
 Root     38 :    16.933410551032850   Change is   -1.192043790000092
 Root     39 :    16.972138672054140
 Root     40 :    16.986109273744690
 Root     41 :    16.986124796081410
 Root     42 :    16.986124826791790
 Root     43 :    16.986124838594420
 Root     44 :    17.077951896522800   Change is   -0.017827740498522
 Root     45 :    17.077951896906470   Change is   -0.017827740114919
 Root     46 :    17.104369270041380   Change is    0.017368738082170
 Root     47 :    17.790425263655790   Change is   -1.112723529927014
 Root     48 :    18.064905138834500   Change is   -1.003819173484509
 Iteration     3 Dimension   102 NMult    96 NNew      6
 Estimated number of processors is:   20
 CISAX will form     1 AO SS matrices at one time.
 NMat=     1 NSing=     1 JSym2X= 2.
 CoulSu:  requested number of processors reduced to:  21 ShMem   1 Linda.
 NMat=     1 NSing=     1 JSym2X= 2.
 CoulSu:  requested number of processors reduced to:  21 ShMem   1 Linda.
 NMat=     1 NSing=     1 JSym2X= 2.
 CoulSu:  requested number of processors reduced to:  21 ShMem   1 Linda.
 NMat=     1 NSing=     0 JSym2X= 2.
 CoulSu:  requested number of processors reduced to:  21 ShMem   1 Linda.
 NMat=     1 NSing=     0 JSym2X= 2.
 CoulSu:  requested number of processors reduced to:  21 ShMem   1 Linda.
 NMat=     1 NSing=     0 JSym2X= 2.
 CoulSu:  requested number of processors reduced to:  21 ShMem   1 Linda.
 Vector  11 SDiff=7.91D-01 TDiff=7.29D-04 assumed to be triplet.
 Vector  12 SDiff=2.02D-03 TDiff=7.49D-01 assumed to be singlet.
 Vector  13 SDiff=3.91D-04 TDiff=9.21D-01 assumed to be singlet.
 Vector  14 SDiff=1.57D-03 TDiff=8.27D-01 assumed to be singlet.
 Vector  15 SDiff=6.94D-01 TDiff=2.20D-03 assumed to be triplet.
 Vector  16 SDiff=8.85D-01 TDiff=1.98D-03 assumed to be triplet.
 Vector  58 SDiff=9.31D-01 TDiff=9.32D-03 assumed to be triplet.
 Vector  59 SDiff=1.10D-02 TDiff=9.12D-01 assumed to be singlet.
 Vector  61 SDiff=7.67D-03 TDiff=7.34D-01 assumed to be singlet.
 Vector  62 SDiff=7.14D-01 TDiff=1.02D-03 assumed to be triplet.
 Root      1 not converged, maximum delta is    0.224271264773710
 Excitation Energies [eV] at current iteration:
 Root      1 :     6.235740227130159   Change is   -0.002506643392612
 Root      2 :     6.235740227779885   Change is   -0.002506703443099
 Root      3 :     6.235740234413829   Change is   -0.002506765900962
 Root      4 :     6.375603708410040   Change is   -0.010888571121649
 Root      5 :     6.375605545668174   Change is   -0.010886732167612
 Root      6 :     6.375605595012734   Change is   -0.010886602357817
 Iteration     4 Dimension   108 NMult   102 NNew      6
 Estimated number of processors is:   20
 CISAX will form     1 AO SS matrices at one time.
 NMat=     1 NSing=     1 JSym2X= 2.
 CoulSu:  requested number of processors reduced to:  21 ShMem   1 Linda.
 NMat=     1 NSing=     1 JSym2X= 2.
 CoulSu:  requested number of processors reduced to:  21 ShMem   1 Linda.
 NMat=     1 NSing=     1 JSym2X= 2.
 CoulSu:  requested number of processors reduced to:  21 ShMem   1 Linda.
 NMat=     1 NSing=     0 JSym2X= 2.
 CoulSu:  requested number of processors reduced to:  21 ShMem   1 Linda.
 NMat=     1 NSing=     0 JSym2X= 2.
 CoulSu:  requested number of processors reduced to:  21 ShMem   1 Linda.
 NMat=     1 NSing=     0 JSym2X= 2.
 CoulSu:  requested number of processors reduced to:  21 ShMem   1 Linda.
 Vector  15 SDiff=9.04D-01 TDiff=7.46D-04 assumed to be triplet.
 Vector  16 SDiff=6.25D-04 TDiff=9.36D-01 assumed to be singlet.
 New state      1 was old state      3
 Root      1 not converged, maximum delta is    0.215667306840408
 Excitation Energies [eV] at current iteration:
 Root      1 :     6.235724922538130   Change is   -0.000015311875699
 Root      2 :     6.235724924020829   Change is   -0.000015303109330
 Root      3 :     6.235724925493920   Change is   -0.000015302285966
 Root      4 :     6.375598000806277   Change is   -0.000005707603763
 Root      5 :     6.375598018238147   Change is   -0.000007527430027
 Root      6 :     6.375598022016161   Change is   -0.000007572996573
 Iteration     5 Dimension   114 NMult   108 NNew      6
 Estimated number of processors is:   20
 CISAX will form     1 AO SS matrices at one time.
 NMat=     1 NSing=     1 JSym2X= 2.
 CoulSu:  requested number of processors reduced to:  21 ShMem   1 Linda.
 NMat=     1 NSing=     1 JSym2X= 2.
 CoulSu:  requested number of processors reduced to:  21 ShMem   1 Linda.
 NMat=     1 NSing=     1 JSym2X= 2.
 CoulSu:  requested number of processors reduced to:  21 ShMem   1 Linda.
 NMat=     1 NSing=     0 JSym2X= 2.
 CoulSu:  requested number of processors reduced to:  21 ShMem   1 Linda.
 NMat=     1 NSing=     0 JSym2X= 2.
 CoulSu:  requested number of processors reduced to:  21 ShMem   1 Linda.
 NMat=     1 NSing=     0 JSym2X= 2.
 CoulSu:  requested number of processors reduced to:  21 ShMem   1 Linda.
 Root      1 not converged, maximum delta is    0.127137880751543
 Excitation Energies [eV] at current iteration:
 Root      1 :     6.235724904058318   Change is   -0.000000018479812
 Root      2 :     6.235724904715338   Change is   -0.000000020778582
 Root      3 :     6.235724906868766   Change is   -0.000000017152063
 Root      4 :     6.375597982883556   Change is   -0.000000035354591
 Root      5 :     6.375597985321484   Change is   -0.000000036694677
 Root      6 :     6.375597989226106   Change is   -0.000000011580171
 Iteration     6 Dimension   118 NMult   114 NNew      4
 Estimated number of processors is:   20
 CISAX will form     1 AO SS matrices at one time.
 NMat=     1 NSing=     1 JSym2X= 2.
 CoulSu:  requested number of processors reduced to:  21 ShMem   1 Linda.
 NMat=     1 NSing=     0 JSym2X= 2.
 CoulSu:  requested number of processors reduced to:  21 ShMem   1 Linda.
 NMat=     1 NSing=     0 JSym2X= 2.
 CoulSu:  requested number of processors reduced to:  21 ShMem   1 Linda.
 NMat=     1 NSing=     0 JSym2X= 2.
 CoulSu:  requested number of processors reduced to:  21 ShMem   1 Linda.
 DSYEVD-2 returned Info=        7258 IAlg= 4 N=   118 NDim=   118 NE2=      863309 trying  DSYEV.
 Root      1 not converged, maximum delta is    0.060881256760918
 Excitation Energies [eV] at current iteration:
 Root      1 :     6.235724903906434   Change is   -0.000000000151884
 Root      2 :     6.235724904681902   Change is   -0.000000000033436
 Root      3 :     6.235724906061499   Change is   -0.000000000807267
 Root      4 :     6.375597981607300   Change is   -0.000000001276255
 Root      5 :     6.375597983917822   Change is   -0.000000001403663
 Root      6 :     6.375597988125852   Change is   -0.000000001100254
 Iteration     7 Dimension   119 NMult   118 NNew      1
 Estimated number of processors is:   21
 CISAX will form     1 AO SS matrices at one time.
 NMat=     1 NSing=     1 JSym2X= 2.
 CoulSu:  requested number of processors reduced to:  21 ShMem   1 Linda.
 Root      1 not converged, maximum delta is    0.251827849415688
 Excitation Energies [eV] at current iteration:
 Root      1 :     6.235724902412431   Change is   -0.000000001494003
 Root      2 :     6.235724904534676   Change is   -0.000000000147227
 Root      3 :     6.235724905019310   Change is   -0.000000001042189
 Root      4 :     6.375597981607313   Change is    0.000000000000012
 Root      5 :     6.375597983917827   Change is    0.000000000000005
 Root      6 :     6.375597988125865   Change is    0.000000000000013
 Iteration     8 Dimension   122 NMult   119 NNew      3
 Estimated number of processors is:   21
 CISAX will form     1 AO SS matrices at one time.
 NMat=     1 NSing=     1 JSym2X= 2.
 CoulSu:  requested number of processors reduced to:  21 ShMem   1 Linda.
 NMat=     1 NSing=     1 JSym2X= 2.
 CoulSu:  requested number of processors reduced to:  21 ShMem   1 Linda.
 NMat=     1 NSing=     1 JSym2X= 2.
 CoulSu:  requested number of processors reduced to:  21 ShMem   1 Linda.
 Root      1 not converged, maximum delta is    0.017598406470255
 Excitation Energies [eV] at current iteration:
 Root      1 :     6.235724901758465   Change is   -0.000000000653966
 Root      2 :     6.235724903967711   Change is   -0.000000000566965
 Root      3 :     6.235724904531009   Change is   -0.000000000488301
 Root      4 :     6.375597981607304   Change is   -0.000000000000009
 Root      5 :     6.375597983917822   Change is   -0.000000000000005
 Root      6 :     6.375597988125864   Change is   -0.000000000000001
 Convergence achieved on expansion vectors.
 ***********************************************************************
 Stability analysis using <AA,BB:AA,BB> singles matrix:
 ***********************************************************************
 1PDM for each excited state written to RWF  633
 Ground to excited state transition densities written to RWF  633

 Eigenvectors of the stability matrix:
 
 Excited state symmetry could not be determined.
 Eigenvector   1:      Singlet-?Sym  Eigenvalue= 0.2291587  <S**2>=0.000
       3 ->  6         0.20926
       3 ->  7        -0.14206
       4 ->  6        -0.16000
       4 ->  8        -0.37172
       5 ->  6        -0.12523
       5 ->  7         0.49003
 
 Excited state symmetry could not be determined.
 Eigenvector   2:      Singlet-?Sym  Eigenvalue= 0.2291587  <S**2>=0.000
       3 ->  7         0.29404
       3 ->  8         0.19695
       4 ->  6        -0.29342
       4 ->  7         0.16056
       5 ->  6        -0.23897
       5 ->  8         0.43369
 
 Excited state symmetry could not be determined.
 Eigenvector   3:      Singlet-?Sym  Eigenvalue= 0.2291587  <S**2>=0.000
       3 ->  6        -0.20927
       3 ->  8        -0.38288
       4 ->  6         0.12196
       4 ->  7         0.45982
       4 ->  8        -0.15155
       5 ->  8         0.19828
 
 Excited state symmetry could not be determined.
 Eigenvector   4:      Triplet-?Sym  Eigenvalue= 0.2342989  <S**2>=2.000
       3 ->  7        -0.19115
       3 ->  8         0.14862
       4 ->  6        -0.10908
       4 ->  8         0.37011
       5 ->  6         0.37506
       5 ->  7        -0.34978
 
 Excited state symmetry could not be determined.
 Eigenvector   5:      Triplet-?Sym  Eigenvalue= 0.2342989  <S**2>=2.000
       3 ->  6        -0.17045
       3 ->  7         0.34073
       3 ->  8        -0.22741
       3 -> 16        -0.10023
       4 ->  6         0.34988
       4 ->  7         0.18430
       4 ->  8         0.20511
       5 ->  7        -0.26780
 
 Excited state symmetry could not be determined.
 Eigenvector   6:      Triplet-?Sym  Eigenvalue= 0.2342989  <S**2>=2.000
       3 ->  6        -0.10720
       3 ->  7         0.24626
       3 ->  8         0.40415
       3 -> 17         0.10658
       4 ->  6        -0.20308
       4 ->  7        -0.16888
       5 ->  6        -0.33288
       5 ->  7        -0.22809
 The wavefunction is stable under the perturbations considered.
 Leave Link  914 at Sat Apr 17 19:13:50 2021, MaxMem=   104857600 cpu:            5628.6 elap:             154.5
 (Enter /s/ls4/users/knvvv/bin/g16sse/l508.exe)
 The wavefunction is already stable.
 Leave Link  508 at Sat Apr 17 19:13:50 2021, MaxMem=   104857600 cpu:               2.2 elap:               0.1
 (Enter /s/ls4/users/knvvv/bin/g16sse/l601.exe)
 Copying SCF densities to generalized density rwf, IOpCl= 0 IROHF=0.

 **********************************************************************

            Population analysis using the SCF density.

 **********************************************************************

 Orbital symmetries:
       Occupied  (A1G) (A1G) (T1U) (T1U) (T1U)
       Virtual   (T1U) (T1U) (T1U) (A1G) (T2G) (T2G) (T2G) (EG)
                 (EG) (T1U) (T1U) (T1U) (A1G) (T2G) (T2G) (T2G)
                 (EG) (EG) (T1U) (T1U) (T1U) (A1G) (T2U) (T2U)
                 (T2U) (A2U) (T1U) (T1U) (T1U) (T2G) (T2G) (T2G)
                 (EG) (EG) (T1U) (T1U) (T1U) (T2G) (T2G) (T2G)
                 (T1G) (T1G) (T1G) (EG) (EG) (A1G) (A2U) (T2U)
                 (T2U) (T2U) (T1U) (T1U) (T1U) (A1G) (T2G) (T2G)
                 (T2G) (EG) (EG) (A1G) (A1G)
 The electronic state is 1-A1G.
 Alpha  occ. eigenvalues --  -24.79151  -0.83684  -0.07494  -0.07494  -0.07494
 Alpha virt. eigenvalues --    0.26728   0.26728   0.26728   0.37455   0.71424
 Alpha virt. eigenvalues --    0.71424   0.71424   0.71424   0.71424   0.77335
 Alpha virt. eigenvalues --    0.77335   0.77335   1.27575   2.07709   2.07709
 Alpha virt. eigenvalues --    2.07709   2.07709   2.07709   2.21362   2.21362
 Alpha virt. eigenvalues --    2.21362   4.20240   4.60273   4.60273   4.60273
 Alpha virt. eigenvalues --    4.60273   4.60273   4.60273   4.60273   5.66478
 Alpha virt. eigenvalues --    5.66478   5.66478   5.66478   5.66478   6.77326
 Alpha virt. eigenvalues --    6.77326   6.77326  11.77659  11.77659  11.77659
 Alpha virt. eigenvalues --   11.77659  11.77659  11.77659  11.77659  11.77659
 Alpha virt. eigenvalues --   11.77659  14.85261  14.85261  14.85261  14.85261
 Alpha virt. eigenvalues --   14.85261  14.85261  14.85261  15.15106  16.25571
 Alpha virt. eigenvalues --   16.25571  16.25571  16.25571  16.25571  54.32296
 Alpha virt. eigenvalues --  283.09877
          Condensed to atoms (all electrons):
               1
     1  F   10.000000
 Mulliken charges:
               1
     1  F   -1.000000
 Sum of Mulliken charges =  -1.00000
 Mulliken charges with hydrogens summed into heavy atoms:
               1
     1  F   -1.000000
 Electronic spatial extent (au):  <R**2>=             17.0307
 Charge=             -1.0000 electrons
 Dipole moment (field-independent basis, Debye):
    X=             -0.0000    Y=              0.0000    Z=              0.0000  Tot=              0.0000
 Quadrupole moment (field-independent basis, Debye-Ang):
   XX=             -7.6356   YY=             -7.6356   ZZ=             -7.6356
   XY=             -0.0000   XZ=              0.0000   YZ=              0.0000
 Traceless Quadrupole moment (field-independent basis, Debye-Ang):
   XX=              0.0000   YY=             -0.0000   ZZ=             -0.0000
   XY=             -0.0000   XZ=              0.0000   YZ=              0.0000
 Octapole moment (field-independent basis, Debye-Ang**2):
  XXX=             -0.0000  YYY=              0.0000  ZZZ=              0.0000  XYY=              0.0000
  XXY=              0.0000  XXZ=              0.0000  XZZ=              0.0000  YZZ=              0.0000
  YYZ=              0.0000  XYZ=              0.0000
 Hexadecapole moment (field-independent basis, Debye-Ang**3):
 XXXX=            -10.2980 YYYY=            -10.2980 ZZZZ=            -10.2980 XXXY=              0.0000
 XXXZ=             -0.0000 YYYX=             -0.0000 YYYZ=              0.0000 ZZZX=              0.0000
 ZZZY=             -0.0000 XXYY=             -3.4327 XXZZ=             -3.4327 YYZZ=             -3.4327
 XXYZ=              0.0000 YYXZ=              0.0000 ZZXY=             -0.0000
 N-N= 0.000000000000D+00 E-N=-2.433909694935D+02  KE= 9.960404782099D+01
 PrsmSu:  requested number of processors reduced to:  21 ShMem   1 Linda.
 No NMR shielding tensors so no spin-rotation constants.
 Leave Link  601 at Sat Apr 17 19:13:55 2021, MaxMem=   104857600 cpu:             230.7 elap:               5.1
 (Enter /s/ls4/users/knvvv/bin/g16sse/l9999.exe)

 Test job not archived.
 1\1\GINC-N148\Stability\RM062X\Gen\F1(1-)\KNVVV\17-Apr-2021\0\\#P M062
 X/GEN Integral=UltraFineGrid SCF=NoSymm Stable=(RExt, Opt) IOp(1/33=1)
 \\Database calculations.\\-1,1\F,0,1.798477,-0.236133,-1.916562\\Versi
 on=ES64L-G16RevA.03\State=1-A1G\HF=-99.8604609\RMSD=7.154e-09\Dipole=0
 .,0.,0.\Quadrupole=0.,0.,0.,0.,0.,0.\PG=OH [O(F1)]\\@


 NOTHING PUZZLES ME MORE THAN TIME AND SPACE; AND YET NOTHING TROUBLES ME LESS
                                                          -- CHARLES LAMB (1810)
 Job cpu time:       0 days  3 hours 47 minutes 19.7 seconds.
 Elapsed time:       0 days  0 hours  5 minutes 25.8 seconds.
 File lengths (MBytes):  RWF=     25 Int=      0 D2E=      0 Chk=      2 Scr=      1
 Normal termination of Gaussian 16 at Sat Apr 17 19:13:56 2021.
