 Entering Gaussian System, Link 0=/s/ls4/users/knvvv/bin/g16sse/g16
 Input=data/database/M062X--def2-QZVP--SIE4x4_nh32+_1_0.gjf
 Output=data/database/M062X--def2-QZVP--SIE4x4_nh32+_1_0.log
 Initial command:
 /s/ls4/users/knvvv/bin/g16sse/l1.exe "/s/ls4/users/knvvv/bin/scratch/Gau-48078.inp" -scrdir="/s/ls4/users/knvvv/bin/scratch/"
 Entering Link 1 = /s/ls4/users/knvvv/bin/g16sse/l1.exe PID=     48079.
  
 Copyright (c) 1988,1990,1992,1993,1995,1998,2003,2009,2016,
            Gaussian, Inc.  All Rights Reserved.
  
 This is part of the Gaussian(R) 16 program.  It is based on
 the Gaussian(R) 09 system (copyright 2009, Gaussian, Inc.),
 the Gaussian(R) 03 system (copyright 2003, Gaussian, Inc.),
 the Gaussian(R) 98 system (copyright 1998, Gaussian, Inc.),
 the Gaussian(R) 94 system (copyright 1995, Gaussian, Inc.),
 the Gaussian 92(TM) system (copyright 1992, Gaussian, Inc.),
 the Gaussian 90(TM) system (copyright 1990, Gaussian, Inc.),
 the Gaussian 88(TM) system (copyright 1988, Gaussian, Inc.),
 the Gaussian 86(TM) system (copyright 1986, Carnegie Mellon
 University), and the Gaussian 82(TM) system (copyright 1983,
 Carnegie Mellon University). Gaussian is a federally registered
 trademark of Gaussian, Inc.
  
 This software contains proprietary and confidential information,
 including trade secrets, belonging to Gaussian, Inc.
  
 This software is provided under written license and may be
 used, copied, transmitted, or stored only in accord with that
 written license.
  
 The following legend is applicable only to US Government
 contracts under FAR:
  
                    RESTRICTED RIGHTS LEGEND
  
 Use, reproduction and disclosure by the US Government is
 subject to restrictions as set forth in subparagraphs (a)
 and (c) of the Commercial Computer Software - Restricted
 Rights clause in FAR 52.227-19.
  
 Gaussian, Inc.
 340 Quinnipiac St., Bldg. 40, Wallingford CT 06492
  
  
 ---------------------------------------------------------------
 Warning -- This program may not be used in any manner that
 competes with the business of Gaussian, Inc. or will provide
 assistance to any competitor of Gaussian, Inc.  The licensee
 of this program is prohibited from giving any competitor of
 Gaussian, Inc. access to this program.  By using this program,
 the user acknowledges that Gaussian, Inc. is engaged in the
 business of creating and licensing software in the field of
 computational chemistry and represents and warrants to the
 licensee that it is not a competitor of Gaussian, Inc. and that
 it will not use this program in any manner prohibited above.
 ---------------------------------------------------------------
  

 Cite this work as:
 Gaussian 16, Revision A.03,
 M. J. Frisch, G. W. Trucks, H. B. Schlegel, G. E. Scuseria, 
 M. A. Robb, J. R. Cheeseman, G. Scalmani, V. Barone, 
 G. A. Petersson, H. Nakatsuji, X. Li, M. Caricato, A. V. Marenich, 
 J. Bloino, B. G. Janesko, R. Gomperts, B. Mennucci, H. P. Hratchian, 
 J. V. Ortiz, A. F. Izmaylov, J. L. Sonnenberg, D. Williams-Young, 
 F. Ding, F. Lipparini, F. Egidi, J. Goings, B. Peng, A. Petrone, 
 T. Henderson, D. Ranasinghe, V. G. Zakrzewski, J. Gao, N. Rega, 
 G. Zheng, W. Liang, M. Hada, M. Ehara, K. Toyota, R. Fukuda, 
 J. Hasegawa, M. Ishida, T. Nakajima, Y. Honda, O. Kitao, H. Nakai, 
 T. Vreven, K. Throssell, J. A. Montgomery, Jr., J. E. Peralta, 
 F. Ogliaro, M. J. Bearpark, J. J. Heyd, E. N. Brothers, K. N. Kudin, 
 V. N. Staroverov, T. A. Keith, R. Kobayashi, J. Normand, 
 K. Raghavachari, A. P. Rendell, J. C. Burant, S. S. Iyengar, 
 J. Tomasi, M. Cossi, J. M. Millam, M. Klene, C. Adamo, R. Cammi, 
 J. W. Ochterski, R. L. Martin, K. Morokuma, O. Farkas, 
 J. B. Foresman, and D. J. Fox, Gaussian, Inc., Wallingford CT, 2016.
 
 ******************************************
 Gaussian 16:  ES64L-G16RevA.03 25-Dec-2016
                18-Apr-2021 
 ******************************************
 %RWF=temp23_3160,70GB
 %nprocshared=48
 Will use up to   48 processors via shared memory.
 Default route: MaxDisk=80GB
 ----------------------------------------------------------------------
 #P M062X/Def2QZVP Integral=UltraFineGrid SCF=NoSymm Stable=(RExt, Opt)
  IOp(1/33=1)
 ----------------------------------------------------------------------
 1/33=1,38=1,172=1/1;
 2/12=2,17=6,18=5,40=1/2;
 3/5=45,7=101,11=2,25=1,30=1,74=-55,75=-5/1,2,3;
 4/9=2/1;
 5/5=2,38=5/2;
 6/7=2,8=2,9=2,10=2,28=1/1;
 8/6=1,10=90,11=11/1;
 9/8=-3,42=1,46=1/14;
 5/5=2,8=3,17=40,38=5/8(-2);
 6/7=2,8=2,9=2,10=2,28=1/1;
 99/5=1,9=1/99;
 Leave Link    1 at Sun Apr 18 03:03:09 2021, MaxMem=           0 cpu:               8.3 elap:               0.2
 (Enter /s/ls4/users/knvvv/bin/g16sse/l101.exe)
 ONIOM data not found on unit 2.
 ----------------------
 Database calculations.
 ----------------------
 TstMul:  ICh=     1
 TstMul:  Mul=     2
 TstMul:  ICh=     1
 TstMul:  Mul=     2
 Symbolic Z-matrix:
 Charge =  1 Multiplicity = 2
 N                     0.        0.       -1.08326 
 N                     0.        0.        1.08326 
 H                     0.84297   0.48669  -1.35893 
 H                     0.       -0.97338  -1.35893 
 H                    -0.84297   0.48669  -1.35893 
 H                     0.84297  -0.48669   1.35893 
 H                     0.        0.97338   1.35893 
 H                    -0.84297  -0.48669   1.35893 
 
 RdStrC is calling ZToCFu for IStruc=1 NZ=     8.
 PrtBox:  NBox=     1 Levels=  1 BoxLen=    8.00 SMaxX=        5.14
          Shift=            1.592988            1.839424            2.568003
 Box      1 Number                   0 centers from      1 to      8:
 After GenITR:
 ITRead=  0  0  0  0  0  0  0  0
 MicOpt= -1 -1 -1 -1 -1 -1 -1 -1
 ITRead=  0  0  0  0  0  0  0  0
 MicOpt= -1 -1 -1 -1 -1 -1 -1 -1
 NAtoms=      8 NQM=        8 NQMF=       0 NMMI=      0 NMMIF=      0
                NMic=       0 NMicF=      0.
                    Isotopes and Nuclear Properties:
 (Nuclear quadrupole moments (NQMom) in fm**2, nuclear magnetic moments (NMagM)
  in nuclear magnetons)

  Atom         1           2           3           4           5           6           7           8
 IAtWgt=          14          14           1           1           1           1           1           1
 AtmWgt=  14.0030740  14.0030740   1.0078250   1.0078250   1.0078250   1.0078250   1.0078250   1.0078250
 NucSpn=           2           2           1           1           1           1           1           1
 AtZEff=  -0.0000000  -0.0000000  -0.0000000  -0.0000000  -0.0000000  -0.0000000  -0.0000000  -0.0000000
 NQMom=    2.0440000   2.0440000   0.0000000   0.0000000   0.0000000   0.0000000   0.0000000   0.0000000
 NMagM=    0.4037610   0.4037610   2.7928460   2.7928460   2.7928460   2.7928460   2.7928460   2.7928460
 AtZNuc=   7.0000000   7.0000000   1.0000000   1.0000000   1.0000000   1.0000000   1.0000000   1.0000000
 No MM parameters found.
 Leave Link  101 at Sun Apr 18 03:03:09 2021, MaxMem=   104857600 cpu:               7.4 elap:               0.2
 (Enter /s/ls4/users/knvvv/bin/g16sse/l202.exe)
                          Input orientation:                          
 ---------------------------------------------------------------------
 Center     Atomic      Atomic             Coordinates (Angstroms)
 Number     Number       Type             X           Y           Z
 ---------------------------------------------------------------------
      1          7           0        0.000000    0.000000   -1.083255
      2          7           0        0.000000    0.000000    1.083255
      3          1           0        0.842973    0.486691   -1.358929
      4          1           0        0.000000   -0.973381   -1.358929
      5          1           0       -0.842973    0.486691   -1.358929
      6          1           0        0.842973   -0.486691    1.358929
      7          1           0        0.000000    0.973381    1.358929
      8          1           0       -0.842973   -0.486691    1.358929
 ---------------------------------------------------------------------
                    Distance matrix (angstroms):
                    1          2          3          4          5
     1  N    0.000000
     2  N    2.166511   0.000000
     3  H    1.011666   2.629018   0.000000
     4  H    1.011666   2.629018   1.685946   0.000000
     5  H    1.011666   2.629018   1.685946   1.685946   0.000000
     6  H    2.629018   1.011666   2.886905   2.886905   3.343148
     7  H    2.629018   1.011666   2.886905   3.343148   2.886905
     8  H    2.629018   1.011666   3.343148   2.886905   2.886905
                    6          7          8
     6  H    0.000000
     7  H    1.685946   0.000000
     8  H    1.685946   1.685946   0.000000
 Stoichiometry    H6N2(1+,2)
 Framework group  D3D[C3(N.N),3SGD(H2)]
 Deg. of freedom     3
 Full point group                 D3D     NOp  12
 Largest Abelian subgroup         C2H     NOp   4
 Largest concise Abelian subgroup C2H     NOp   4
                         Standard orientation:                         
 ---------------------------------------------------------------------
 Center     Atomic      Atomic             Coordinates (Angstroms)
 Number     Number       Type             X           Y           Z
 ---------------------------------------------------------------------
      1          7           0        0.000000    0.000000    1.083255
      2          7           0       -0.000000   -0.000000   -1.083255
      3          1           0        0.000000    0.973381    1.358929
      4          1           0       -0.842973   -0.486691    1.358929
      5          1           0        0.842973   -0.486691    1.358929
      6          1           0       -0.842973    0.486691   -1.358929
      7          1           0        0.842973    0.486691   -1.358929
      8          1           0       -0.000000   -0.973381   -1.358929
 ---------------------------------------------------------------------
 Rotational constants (GHZ):          88.2093674          10.7768021          10.7768021
 Leave Link  202 at Sun Apr 18 03:03:09 2021, MaxMem=   104857600 cpu:              16.0 elap:               0.4
 (Enter /s/ls4/users/knvvv/bin/g16sse/l301.exe)
 Standard basis: def2QZVP (5D, 7F)
 Ernie: Thresh=  0.10000D-02 Tol=  0.10000D-05 Strict=F.
 There are   107 symmetry adapted cartesian basis functions of AG  symmetry.
 There are    70 symmetry adapted cartesian basis functions of BG  symmetry.
 There are    70 symmetry adapted cartesian basis functions of AU  symmetry.
 There are   107 symmetry adapted cartesian basis functions of BU  symmetry.
 There are    87 symmetry adapted basis functions of AG  symmetry.
 There are    60 symmetry adapted basis functions of BG  symmetry.
 There are    60 symmetry adapted basis functions of AU  symmetry.
 There are    87 symmetry adapted basis functions of BU  symmetry.
   294 basis functions,   412 primitive gaussians,   354 cartesian basis functions
    10 alpha electrons        9 beta electrons
       nuclear repulsion energy        45.8493930595 Hartrees.
 IExCor= 4336 DFT=T Ex+Corr=M062X ExCW=0 ScaHFX=  0.540000
 ScaDFX=  1.000000  1.000000  1.000000  1.000000 ScalE2=  1.000000  1.000000
 IRadAn=      5 IRanWt=     -1 IRanGd=            0 ICorTp=0 IEmpDi=  4
 NAtoms=    8 NActive=    8 NUniq=    2 SFac= 4.00D+00 NAtFMM=   60 NAOKFM=F Big=F
 Integral buffers will be    131072 words long.
 Raffenetti 2 integral format.
 Two-electron integral symmetry is turned on.
 Leave Link  301 at Sun Apr 18 03:03:09 2021, MaxMem=   104857600 cpu:               6.6 elap:               0.2
 (Enter /s/ls4/users/knvvv/bin/g16sse/l302.exe)
 NPDir=0 NMtPBC=     1 NCelOv=     1 NCel=       1 NClECP=     1 NCelD=      1
         NCelK=      1 NCelE2=     1 NClLst=     1 CellRange=     0.0.
 One-electron integrals computed using PRISM.
 One-electron integral symmetry used in STVInt
 PrsmSu:  requested number of processors reduced to:   4 ShMem   1 Linda.
 PrsmSu:  requested number of processors reduced to:  21 ShMem   1 Linda.
  12 Symmetry operations used in ECPInt.
 ECPInt:  NShTT=    4465 NPrTT=    9430 LenC2=    4458 LenP2D=    8536.
 LDataN:  DoStor=T MaxTD1= 8 Len=  415
 Number of processors reduced to  25 by ecpmxn.
 NBasis=   294 RedAO= T EigKep=  1.10D-04  NBF=    87    60    60    87
 NBsUse=   294 1.00D-06 EigRej= -1.00D+00 NBFU=    87    60    60    87
 Precomputing XC quadrature grid using
 IXCGrd= 4 IRadAn=           5 IRanWt=          -1 IRanGd=           0 AccXCQ= 0.00D+00.
 Generated NRdTot=       0 NPtTot=           0 NUsed=           0 NTot=          32
 NSgBfM=   354   354   354   354   354 MxSgAt=     8 MxSgA2=     8.
 Leave Link  302 at Sun Apr 18 03:03:46 2021, MaxMem=   104857600 cpu:            1716.5 elap:              36.6
 (Enter /s/ls4/users/knvvv/bin/g16sse/l303.exe)
 DipDrv:  MaxL=1.
 Leave Link  303 at Sun Apr 18 03:03:48 2021, MaxMem=   104857600 cpu:              60.1 elap:               1.6
 (Enter /s/ls4/users/knvvv/bin/g16sse/l401.exe)
 SCF N**3 symmetry information disabled.
 ExpMin= 8.03D-02 ExpMax= 9.07D+04 ExpMxC= 8.76D+02 IAcc=3 IRadAn=         5 AccDes= 0.00D+00
 Harris functional with IExCor= 1009 and IRadAn=       5 diagonalized for initial guess.
 HarFok:  IExCor= 1009 AccDes= 0.00D+00 IRadAn=         5 IDoV= 1 UseB2=F ITyADJ=14
 ICtDFT=  3500011 ScaDFX=  1.000000  1.000000  1.000000  1.000000
 FoFCou: FMM=F IPFlag=           0 FMFlag=      100000 FMFlg1=           0
         NFxFlg=           0 DoJE=T BraDBF=F KetDBF=T FulRan=T
         wScrn=  0.000000 ICntrl=       500 IOpCl=  0 I1Cent=   200000004 NGrid=           0
         NMat0=    1 NMatS0=      1 NMatT0=    0 NMatD0=    1 NMtDS0=    0 NMtDT0=    0
 Petite list used in FoFCou.
 CoulSu:  requested number of processors reduced to:  20 ShMem   1 Linda.
 CoulSu:  requested number of processors reduced to:  21 ShMem   1 Linda.
 CoulSu:  requested number of processors reduced to:  21 ShMem   1 Linda.
 CoulSu:  requested number of processors reduced to:  21 ShMem   1 Linda.
 Harris En= -112.802367755280    
 JPrj=0 DoOrth=F DoCkMO=F.
 Initial guess orbital symmetries:
 Alpha Orbitals:
       Occupied  (A1G) (A2U) (A1G) (A2U) (EU) (EU) (EG) (EG) (A1G)
                 (A2U)
       Virtual   (A1G) (A2U) (EU) (EU) (EG) (EG) (EU) (EU) (EG)
                 (EG) (A1G) (A2U) (EU) (EU) (A1G) (EG) (EG) (A2U)
                 (EU) (EU) (A1G) (EG) (EG) (A2U) (A1U) (EG) (EG)
                 (A2G) (EU) (EU) (A1G) (A2U) (EG) (EG) (EU) (EU)
                 (A1G) (EG) (EG) (A2U) (EU) (EU) (A1G) (EU) (EU)
                 (A2U) (A1G) (A2U) (EG) (EG) (EU) (EU) (EG) (EG)
                 (A1G) (EU) (EU) (EG) (EG) (A2U) (A1G) (EU) (EU)
                 (A1U) (EG) (EG) (A2G) (A1U) (A2G) (EU) (EU) (EG)
                 (EG) (EG) (EG) (A2U) (EU) (EU) (EG) (EG) (EU)
                 (EU) (A2U) (A1G) (EG) (EG) (EU) (EU) (A2U) (A1G)
                 (A1G) (EU) (EU) (EG) (EG) (A2U) (EG) (EG) (A1G)
                 (A1U) (EU) (EU) (A2G) (EU) (EU) (A2U) (EG) (EG)
                 (A1G) (EU) (EU) (A1G) (A2U) (EG) (EG) (EG) (EG)
                 (A2U) (EU) (EU) (A2U) (A1G) (EG) (EG) (A1U) (EU)
                 (EU) (A2G) (EU) (EU) (EG) (EG) (A2U) (A1G) (A1G)
                 (EU) (EU) (A2U) (EG) (EG) (A1G) (EU) (EU) (EG)
                 (EG) (EG) (EG) (EU) (EU) (A2G) (A1U) (EU) (EU)
                 (EG) (EG) (A2U) (A1U) (A2G) (A1G) (A2U) (EU) (EU)
                 (EG) (EG) (A1U) (EU) (EU) (A2G) (EG) (EG) (A1G)
                 (A2U) (EU) (EU) (EG) (EG) (EG) (EG) (A1G) (EU)
                 (EU) (A2U) (EU) (EU) (EG) (EG) (A2U) (A1G) (EG)
                 (EG) (EU) (EU) (EU) (EU) (A1G) (EG) (EG) (A1U)
                 (EG) (EG) (A1G) (A2G) (A2U) (EU) (EU) (EG) (EG)
                 (A2U) (A1G) (A1U) (EU) (EU) (A2G) (EU) (EU) (A1U)
                 (A2U) (EG) (EG) (A2G) (A1G) (A2U) (EU) (EU) (EG)
                 (EG) (EG) (EG) (A1G) (EU) (EU) (A2U) (A1G) (EG)
                 (EG) (EU) (EU) (EU) (EU) (EG) (EG) (A2U) (A2U)
                 (A1G) (EU) (EU) (EG) (EG) (A1U) (A2G) (EG) (EG)
                 (EU) (EU) (A2U) (A1G) (EU) (EU) (A2U) (A1G) (EG)
                 (EG) (A2U) (A1G) (EG) (EG) (EU) (EU) (EG) (EG)
                 (EU) (EU) (A1U) (A2G) (EU) (EU) (EG) (EG) (A2U)
                 (A1G) (A2U) (A1G) (A2U) (A1G)
 Beta  Orbitals:
       Occupied  (A1G) (A2U) (A1G) (A2U) (EU) (EU) (EG) (EG) (A1G)
       Virtual   (A2U) (A1G) (A2U) (EU) (EU) (EG) (EG) (EU) (EU)
                 (EG) (EG) (A1G) (A2U) (EU) (EU) (A1G) (EG) (EG)
                 (A2U) (EU) (EU) (A1G) (EG) (EG) (A2U) (A1U) (EG)
                 (EG) (A2G) (EU) (EU) (A1G) (A2U) (EG) (EG) (EU)
                 (EU) (A1G) (EG) (EG) (A2U) (EU) (EU) (A1G) (EU)
                 (EU) (A2U) (A1G) (A2U) (EG) (EG) (EU) (EU) (EG)
                 (EG) (A1G) (EU) (EU) (EG) (EG) (A2U) (A1G) (EU)
                 (EU) (A1U) (EG) (EG) (A2G) (A1U) (A2G) (EU) (EU)
                 (EG) (EG) (EG) (EG) (A2U) (EU) (EU) (EG) (EG)
                 (EU) (EU) (A2U) (A1G) (EG) (EG) (EU) (EU) (A2U)
                 (A1G) (A1G) (EU) (EU) (EG) (EG) (A2U) (EG) (EG)
                 (A1G) (A1U) (EU) (EU) (A2G) (EU) (EU) (A2U) (EG)
                 (EG) (A1G) (EU) (EU) (A1G) (A2U) (EG) (EG) (EG)
                 (EG) (A2U) (EU) (EU) (A2U) (A1G) (EG) (EG) (A1U)
                 (EU) (EU) (A2G) (EU) (EU) (EG) (EG) (A2U) (A1G)
                 (A1G) (EU) (EU) (A2U) (EG) (EG) (A1G) (EU) (EU)
                 (EG) (EG) (EG) (EG) (EU) (EU) (A2G) (A1U) (EU)
                 (EU) (EG) (EG) (A2U) (A1U) (A2G) (A1G) (A2U) (EU)
                 (EU) (EG) (EG) (A1U) (EU) (EU) (A2G) (EG) (EG)
                 (A1G) (A2U) (EU) (EU) (EG) (EG) (EG) (EG) (A1G)
                 (EU) (EU) (A2U) (EU) (EU) (EG) (EG) (A2U) (A1G)
                 (EG) (EG) (EU) (EU) (EU) (EU) (A1G) (EG) (EG)
                 (A1U) (EG) (EG) (A1G) (A2G) (A2U) (EU) (EU) (EG)
                 (EG) (A2U) (A1G) (A1U) (EU) (EU) (A2G) (EU) (EU)
                 (A1U) (A2U) (EG) (EG) (A2G) (A1G) (A2U) (EU) (EU)
                 (EG) (EG) (EG) (EG) (A1G) (EU) (EU) (A2U) (A1G)
                 (EG) (EG) (EU) (EU) (EU) (EU) (EG) (EG) (A2U)
                 (A2U) (A1G) (EU) (EU) (EG) (EG) (A1U) (A2G) (EG)
                 (EG) (EU) (EU) (A2U) (A1G) (EU) (EU) (A2U) (A1G)
                 (EG) (EG) (A2U) (A1G) (EG) (EG) (EU) (EU) (EG)
                 (EG) (EU) (EU) (A1U) (A2G) (EU) (EU) (EG) (EG)
                 (A2U) (A1G) (A2U) (A1G) (A2U) (A1G)
 The electronic state of the initial guess is 2-A2U.
 Initial guess <Sx>= 0.0000 <Sy>= 0.0000 <Sz>= 0.5000 <S**2>= 0.7500 S= 0.5000
 Leave Link  401 at Sun Apr 18 03:04:07 2021, MaxMem=   104857600 cpu:             912.3 elap:              19.6
 (Enter /s/ls4/users/knvvv/bin/g16sse/l502.exe)
 Integral symmetry usage will be decided dynamically.
 UHF open shell SCF:
 Using DIIS extrapolation, IDIIS=  1040.
 NGot=   104857600 LenX=   104584082 LenY=   104458325
 Requested convergence on RMS density matrix=1.00D-08 within 128 cycles.
 Requested convergence on MAX density matrix=1.00D-06.
 Requested convergence on             energy=1.00D-06.
 No special actions if energy rises.
 Fock matrices will be formed incrementally for  20 cycles.
 Integral accuracy reduced to 1.0D-05 until final iterations.

 Cycle   1  Pass 0  IDiag  1:
 FoFJK:  IHMeth= 1 ICntrl=       0 DoSepK=F KAlg= 0 I1Cent=           0 FoldK=F
 IRaf= 990000000 NMat=       1 IRICut=       1 DoRegI=T DoRafI=F ISym2E= 1 IDoP0=0 IntGTp=1.
 FoFCou: FMM=F IPFlag=           0 FMFlag=      100000 FMFlg1=           0
         NFxFlg=           0 DoJE=F BraDBF=F KetDBF=F FulRan=T
         wScrn=  0.000000 ICntrl=         0 IOpCl=  1 I1Cent=           0 NGrid=           0
         NMat0=    1 NMatS0=      1 NMatT0=    0 NMatD0=    1 NMtDS0=    0 NMtDT0=    0
 Petite list used in FoFCou.
 CoulSu:  requested number of processors reduced to:  19 ShMem   1 Linda.
 E= -112.752279541795    
 DIIS: error= 3.32D-02 at cycle   1 NSaved=   1.
 NSaved= 1 IEnMin= 1 EnMin= -112.752279541795     IErMin= 1 ErrMin= 3.32D-02
 ErrMax= 3.32D-02  0.00D+00 EMaxC= 1.00D-01 BMatC= 5.07D-01 BMatP= 5.07D-01
 IDIUse=3 WtCom= 6.68D-01 WtEn= 3.32D-01
 Coeff-Com:  0.100D+01
 Coeff-En:   0.100D+01
 Coeff:      0.100D+01
 Gap=     0.315 Goal=   None    Shift=    0.000
 Gap=     0.335 Goal=   None    Shift=    0.000
 GapD=    0.315 DampG=1.000 DampE=0.500 DampFc=0.5000 IDamp=-1.
 Damping current iteration by 5.00D-01
 RMSDP=6.91D-04 MaxDP=3.13D-02              OVMax= 1.01D-01

 Cycle   2  Pass 0  IDiag  1:
 RMSU=  3.45D-04    CP:  9.96D-01
 CoulSu:  requested number of processors reduced to:  19 ShMem   1 Linda.
 E= -112.777464956286     Delta-E=       -0.025185414492 Rises=F Damp=T
 DIIS: error= 1.82D-02 at cycle   2 NSaved=   2.
 NSaved= 2 IEnMin= 2 EnMin= -112.777464956286     IErMin= 2 ErrMin= 1.82D-02
 ErrMax= 1.82D-02  0.00D+00 EMaxC= 1.00D-01 BMatC= 7.32D-02 BMatP= 5.07D-01
 IDIUse=3 WtCom= 8.18D-01 WtEn= 1.82D-01
 Coeff-Com: -0.286D+00 0.129D+01
 Coeff-En:   0.000D+00 0.100D+01
 Coeff:     -0.234D+00 0.123D+01
 Gap=     0.396 Goal=   None    Shift=    0.000
 Gap=     0.327 Goal=   None    Shift=    0.000
 RMSDP=4.58D-04 MaxDP=2.68D-02 DE=-2.52D-02 OVMax= 5.63D-02

 Cycle   3  Pass 0  IDiag  1:
 RMSU=  4.48D-04    CP:  9.97D-01  1.28D+00
 CoulSu:  requested number of processors reduced to:  19 ShMem   1 Linda.
 E= -112.800544670943     Delta-E=       -0.023079714657 Rises=F Damp=F
 DIIS: error= 5.19D-03 at cycle   3 NSaved=   3.
 NSaved= 3 IEnMin= 3 EnMin= -112.800544670943     IErMin= 3 ErrMin= 5.19D-03
 ErrMax= 5.19D-03  0.00D+00 EMaxC= 1.00D-01 BMatC= 7.45D-03 BMatP= 7.32D-02
 IDIUse=3 WtCom= 9.48D-01 WtEn= 5.19D-02
 Coeff-Com: -0.158D+00 0.330D+00 0.828D+00
 Coeff-En:   0.000D+00 0.000D+00 0.100D+01
 Coeff:     -0.150D+00 0.313D+00 0.837D+00
 Gap=     0.381 Goal=   None    Shift=    0.000
 Gap=     0.321 Goal=   None    Shift=    0.000
 RMSDP=7.92D-05 MaxDP=8.89D-03 DE=-2.31D-02 OVMax= 1.15D-02

 Cycle   4  Pass 0  IDiag  1:
 RMSU=  5.00D-05    CP:  9.93D-01  1.39D+00  8.96D-01
 CoulSu:  requested number of processors reduced to:  19 ShMem   1 Linda.
 E= -112.802011169058     Delta-E=       -0.001466498115 Rises=F Damp=F
 DIIS: error= 7.91D-04 at cycle   4 NSaved=   4.
 NSaved= 4 IEnMin= 4 EnMin= -112.802011169058     IErMin= 4 ErrMin= 7.91D-04
 ErrMax= 7.91D-04  0.00D+00 EMaxC= 1.00D-01 BMatC= 1.16D-04 BMatP= 7.45D-03
 IDIUse=3 WtCom= 9.92D-01 WtEn= 7.91D-03
 Coeff-Com:  0.781D-02-0.165D-01 0.330D-01 0.976D+00
 Coeff-En:   0.000D+00 0.000D+00 0.000D+00 0.100D+01
 Coeff:      0.775D-02-0.164D-01 0.328D-01 0.976D+00
 Gap=     0.383 Goal=   None    Shift=    0.000
 Gap=     0.321 Goal=   None    Shift=    0.000
 RMSDP=2.39D-05 MaxDP=1.23D-03 DE=-1.47D-03 OVMax= 2.91D-03

 Cycle   5  Pass 0  IDiag  1:
 RMSU=  1.84D-05    CP:  9.93D-01  1.40D+00  9.22D-01  1.19D+00
 CoulSu:  requested number of processors reduced to:  19 ShMem   1 Linda.
 E= -112.802047326919     Delta-E=       -0.000036157862 Rises=F Damp=F
 DIIS: error= 2.12D-04 at cycle   5 NSaved=   5.
 NSaved= 5 IEnMin= 5 EnMin= -112.802047326919     IErMin= 5 ErrMin= 2.12D-04
 ErrMax= 2.12D-04  0.00D+00 EMaxC= 1.00D-01 BMatC= 1.21D-05 BMatP= 1.16D-04
 IDIUse=3 WtCom= 9.98D-01 WtEn= 2.12D-03
 Coeff-Com:  0.230D-01-0.481D-01-0.123D+00-0.657D-03 0.115D+01
 Coeff-En:   0.000D+00 0.000D+00 0.000D+00 0.000D+00 0.100D+01
 Coeff:      0.230D-01-0.480D-01-0.123D+00-0.656D-03 0.115D+01
 Gap=     0.384 Goal=   None    Shift=    0.000
 Gap=     0.321 Goal=   None    Shift=    0.000
 RMSDP=8.85D-06 MaxDP=6.67D-04 DE=-3.62D-05 OVMax= 1.03D-03

 Initial convergence to 1.0D-05 achieved.  Increase integral accuracy.
 Cycle   6  Pass 1  IDiag  1:
 CoulSu:  requested number of processors reduced to:  19 ShMem   1 Linda.
 E= -112.802062704218     Delta-E=       -0.000015377298 Rises=F Damp=F
 DIIS: error= 1.08D-04 at cycle   1 NSaved=   1.
 NSaved= 1 IEnMin= 1 EnMin= -112.802062704218     IErMin= 1 ErrMin= 1.08D-04
 ErrMax= 1.08D-04  0.00D+00 EMaxC= 1.00D-01 BMatC= 5.19D-06 BMatP= 5.19D-06
 IDIUse=3 WtCom= 9.99D-01 WtEn= 1.08D-03
 Coeff-Com:  0.100D+01
 Coeff-En:   0.100D+01
 Coeff:      0.100D+01
 Gap=     0.384 Goal=   None    Shift=    0.000
 Gap=     0.321 Goal=   None    Shift=    0.000
 RMSDP=8.85D-06 MaxDP=6.67D-04 DE=-1.54D-05 OVMax= 1.45D-04

 Cycle   7  Pass 1  IDiag  1:
 RMSU=  8.95D-06    CP:  1.00D+00
 CoulSu:  requested number of processors reduced to:  19 ShMem   1 Linda.
 E= -112.802063184919     Delta-E=       -0.000000480702 Rises=F Damp=F
 DIIS: error= 2.07D-05 at cycle   2 NSaved=   2.
 NSaved= 2 IEnMin= 2 EnMin= -112.802063184919     IErMin= 2 ErrMin= 2.07D-05
 ErrMax= 2.07D-05  0.00D+00 EMaxC= 1.00D-01 BMatC= 1.21D-07 BMatP= 5.19D-06
 IDIUse=1 WtCom= 1.00D+00 WtEn= 0.00D+00
 Coeff-Com: -0.429D-01 0.104D+01
 Coeff:     -0.429D-01 0.104D+01
 Gap=     0.384 Goal=   None    Shift=    0.000
 Gap=     0.321 Goal=   None    Shift=    0.000
 RMSDP=4.74D-07 MaxDP=2.29D-05 DE=-4.81D-07 OVMax= 7.78D-05

 Cycle   8  Pass 1  IDiag  1:
 RMSU=  3.98D-07    CP:  1.00D+00  1.03D+00
 CoulSu:  requested number of processors reduced to:  19 ShMem   1 Linda.
 E= -112.802063229953     Delta-E=       -0.000000045033 Rises=F Damp=F
 DIIS: error= 1.45D-05 at cycle   3 NSaved=   3.
 NSaved= 3 IEnMin= 3 EnMin= -112.802063229953     IErMin= 3 ErrMin= 1.45D-05
 ErrMax= 1.45D-05  0.00D+00 EMaxC= 1.00D-01 BMatC= 3.68D-08 BMatP= 1.21D-07
 IDIUse=1 WtCom= 1.00D+00 WtEn= 0.00D+00
 Coeff-Com: -0.244D-01 0.207D+00 0.818D+00
 Coeff:     -0.244D-01 0.207D+00 0.818D+00
 Gap=     0.384 Goal=   None    Shift=    0.000
 Gap=     0.321 Goal=   None    Shift=    0.000
 DSYEVD-2 returned Info=         589 IAlg= 4 N=   294 NDim=   294 NE2=      355299 trying  DSYEV.
 RMSDP=2.18D-07 MaxDP=1.20D-05 DE=-4.50D-08 OVMax= 3.82D-05

 Cycle   9  Pass 1  IDiag  1:
 RMSU=  2.17D-07    CP:  1.00D+00  1.03D+00  9.66D-01
 CoulSu:  requested number of processors reduced to:  19 ShMem   1 Linda.
 E= -112.802063239999     Delta-E=       -0.000000010046 Rises=F Damp=F
 DIIS: error= 7.48D-06 at cycle   4 NSaved=   4.
 NSaved= 4 IEnMin= 4 EnMin= -112.802063239999     IErMin= 4 ErrMin= 7.48D-06
 ErrMax= 7.48D-06  0.00D+00 EMaxC= 1.00D-01 BMatC= 1.07D-08 BMatP= 3.68D-08
 IDIUse=1 WtCom= 1.00D+00 WtEn= 0.00D+00
 Coeff-Com:  0.105D-01-0.325D+00 0.227D+00 0.109D+01
 Coeff:      0.105D-01-0.325D+00 0.227D+00 0.109D+01
 Gap=     0.384 Goal=   None    Shift=    0.000
 Gap=     0.321 Goal=   None    Shift=    0.000
 RMSDP=1.62D-07 MaxDP=8.08D-06 DE=-1.00D-08 OVMax= 2.74D-05

 Cycle  10  Pass 1  IDiag  1:
 RMSU=  7.34D-08    CP:  1.00D+00  1.03D+00  1.32D+00  1.09D+00
 CoulSu:  requested number of processors reduced to:  19 ShMem   1 Linda.
 E= -112.802063244196     Delta-E=       -0.000000004197 Rises=F Damp=F
 DIIS: error= 9.34D-07 at cycle   5 NSaved=   5.
 NSaved= 5 IEnMin= 5 EnMin= -112.802063244196     IErMin= 5 ErrMin= 9.34D-07
 ErrMax= 9.34D-07  0.00D+00 EMaxC= 1.00D-01 BMatC= 1.56D-10 BMatP= 1.07D-08
 IDIUse=1 WtCom= 1.00D+00 WtEn= 0.00D+00
 Coeff-Com:  0.249D-02-0.408D-01-0.259D-01 0.103D+00 0.961D+00
 Coeff:      0.249D-02-0.408D-01-0.259D-01 0.103D+00 0.961D+00
 Gap=     0.384 Goal=   None    Shift=    0.000
 Gap=     0.321 Goal=   None    Shift=    0.000
 DSYEVD-2 returned Info=         589 IAlg= 4 N=   294 NDim=   294 NE2=      355299 trying  DSYEV.
 RMSDP=1.87D-08 MaxDP=1.10D-06 DE=-4.20D-09 OVMax= 3.28D-06

 Cycle  11  Pass 1  IDiag  1:
 RMSU=  1.39D-08    CP:  1.00D+00  1.03D+00  1.34D+00  1.13D+00  1.04D+00
 CoulSu:  requested number of processors reduced to:  19 ShMem   1 Linda.
 E= -112.802063244254     Delta-E=       -0.000000000058 Rises=F Damp=F
 DIIS: error= 2.44D-07 at cycle   6 NSaved=   6.
 NSaved= 6 IEnMin= 6 EnMin= -112.802063244254     IErMin= 6 ErrMin= 2.44D-07
 ErrMax= 2.44D-07  0.00D+00 EMaxC= 1.00D-01 BMatC= 7.57D-12 BMatP= 1.56D-10
 IDIUse=1 WtCom= 1.00D+00 WtEn= 0.00D+00
 Coeff-Com: -0.176D-04 0.881D-02-0.167D-01-0.370D-01 0.186D+00 0.859D+00
 Coeff:     -0.176D-04 0.881D-02-0.167D-01-0.370D-01 0.186D+00 0.859D+00
 Gap=     0.384 Goal=   None    Shift=    0.000
 Gap=     0.321 Goal=   None    Shift=    0.000
 RMSDP=5.18D-09 MaxDP=2.82D-07 DE=-5.75D-11 OVMax= 7.06D-07

 SCF Done:  E(UM062X) =  -112.802063244     A.U. after   11 cycles
            NFock= 11  Conv=0.52D-08     -V/T= 2.0037
 <Sx>= 0.0000 <Sy>= 0.0000 <Sz>= 0.5000 <S**2>= 0.7569 S= 0.5034
 <L.S>= 0.000000000000E+00
 KE= 1.123912768553D+02 PE=-3.501807270639D+02 EE= 7.913799390482D+01
 Annihilation of the first spin contaminant:
 S**2 before annihilation     0.7569,   after     0.7500
 Leave Link  502 at Sun Apr 18 03:05:24 2021, MaxMem=   104857600 cpu:            3421.6 elap:              76.7
 (Enter /s/ls4/users/knvvv/bin/g16sse/l601.exe)
 Copying SCF densities to generalized density rwf, IOpCl= 1 IROHF=0.

 **********************************************************************

            Population analysis using the SCF density.

 **********************************************************************

 Orbital symmetries:
 Alpha Orbitals:
       Occupied  (A2U) (A1G) (A1G) (A2U) (EU) (EU) (EG) (EG) (A1G)
                 (A2U)
       Virtual   (A1G) (A2U) (EU) (EU) (EG) (EG) (EG) (EG) (EU)
                 (EU) (A1G) (A2U) (A1G) (EU) (EU) (EG) (EG) (A2U)
                 (EU) (EU) (A1G) (A2U) (EG) (EG) (A1U) (EG) (EG)
                 (A2G) (EU) (EU) (A1G) (A2U) (EG) (EG) (EU) (EU)
                 (A1G) (EG) (EG) (A2U) (EU) (EU) (A1G) (EU) (EU)
                 (A2U) (A1G) (A2U) (EG) (EG) (EU) (EU) (EG) (EG)
                 (A1G) (EU) (EU) (EG) (EG) (A2U) (A1G) (EU) (EU)
                 (A1U) (EG) (EG) (A2G) (A1U) (A2G) (EU) (EU) (EG)
                 (EG) (EG) (EG) (A2U) (EU) (EU) (EG) (EG) (A2U)
                 (EU) (EU) (A1G) (EG) (EG) (EU) (EU) (A2U) (A1G)
                 (A1G) (EU) (EU) (A2U) (EG) (EG) (EG) (EG) (A1G)
                 (A1U) (EU) (EU) (A2G) (A2U) (EU) (EU) (EG) (EG)
                 (A1G) (EU) (EU) (A1G) (A2U) (EG) (EG) (EG) (EG)
                 (A2U) (A2U) (EU) (EU) (A1G) (EG) (EG) (A1U) (EU)
                 (EU) (A2G) (EU) (EU) (EG) (EG) (A2U) (A1G) (A1G)
                 (EU) (EU) (A2U) (EG) (EG) (A1G) (EU) (EU) (EG)
                 (EG) (EG) (EG) (EU) (EU) (A2G) (A1U) (EU) (EU)
                 (EG) (EG) (A2U) (A1U) (A2G) (A1G) (A2U) (EU) (EU)
                 (EG) (EG) (A1U) (EU) (EU) (A2G) (EG) (EG) (A2U)
                 (A1G) (EU) (EU) (EG) (EG) (EG) (EG) (A1G) (EU)
                 (EU) (A2U) (EU) (EU) (EG) (EG) (A2U) (A1G) (EG)
                 (EG) (EU) (EU) (EG) (EG) (EU) (EU) (A1G) (A1U)
                 (A2G) (EG) (EG) (A1G) (A2U) (EU) (EU) (EG) (EG)
                 (EU) (EU) (A2U) (A1G) (A1U) (A2G) (A1U) (EU) (EU)
                 (A2U) (EG) (EG) (A2G) (A2U) (EU) (EU) (A1G) (EG)
                 (EG) (EG) (EG) (A1G) (EU) (EU) (A2U) (A1G) (EG)
                 (EG) (EU) (EU) (EU) (EU) (EG) (EG) (A2U) (EU)
                 (EU) (EG) (EG) (A2U) (A1G) (A1U) (A2G) (EG) (EG)
                 (EU) (EU) (A2U) (A1G) (A2U) (A1G) (EU) (EU) (EG)
                 (EG) (A2U) (EG) (EG) (A1G) (EU) (EU) (EU) (EU)
                 (EG) (EG) (A1U) (A2G) (EU) (EU) (EG) (EG) (A2U)
                 (A1G) (A2U) (A1G) (A2U) (A1G)
 Beta  Orbitals:
       Occupied  (A1G) (A2U) (A1G) (A2U) (EU) (EU) (EG) (EG) (A1G)
       Virtual   (A2U) (A1G) (A2U) (EU) (EU) (EG) (EG) (EG) (EG)
                 (A1G) (EU) (EU) (A2U) (A1G) (EU) (EU) (A2U) (EG)
                 (EG) (EU) (EU) (A1G) (EG) (EG) (A2U) (A1U) (EG)
                 (EG) (A2G) (EU) (EU) (A1G) (A2U) (EG) (EG) (EU)
                 (EU) (A1G) (EG) (EG) (A2U) (EU) (EU) (EU) (EU)
                 (A1G) (A2U) (A2U) (A1G) (EG) (EG) (EU) (EU) (EG)
                 (EG) (A1G) (EU) (EU) (EG) (EG) (A2U) (A1G) (EU)
                 (EU) (A1U) (EG) (EG) (A2G) (A1U) (A2G) (EU) (EU)
                 (EG) (EG) (EG) (EG) (A2U) (EU) (EU) (EG) (EG)
                 (A2U) (EU) (EU) (EG) (EG) (A1G) (EU) (EU) (A2U)
                 (A1G) (A1G) (EU) (EU) (A2U) (EG) (EG) (A1G) (EG)
                 (EG) (A1U) (EU) (EU) (A2G) (A2U) (EU) (EU) (EG)
                 (EG) (A1G) (EU) (EU) (A1G) (A2U) (EG) (EG) (EG)
                 (EG) (A2U) (A2U) (EU) (EU) (A1G) (EG) (EG) (A1U)
                 (EU) (EU) (A2G) (EU) (EU) (EG) (EG) (A2U) (A1G)
                 (A1G) (EU) (EU) (A2U) (EG) (EG) (A1G) (EU) (EU)
                 (EG) (EG) (EG) (EG) (EU) (EU) (A2G) (A1U) (EU)
                 (EU) (EG) (EG) (A2U) (A1U) (A2G) (A1G) (A2U) (EU)
                 (EU) (EG) (EG) (A1U) (EU) (EU) (A2G) (EG) (EG)
                 (A2U) (A1G) (EG) (EG) (EU) (EU) (EG) (EG) (A1G)
                 (EU) (EU) (A2U) (EU) (EU) (EG) (EG) (A2U) (A1G)
                 (EG) (EG) (EU) (EU) (EG) (EG) (A1G) (EU) (EU)
                 (A1U) (A2G) (EG) (EG) (A1G) (A2U) (EU) (EU) (EG)
                 (EG) (EU) (EU) (A2U) (A1G) (A1U) (A2G) (A1U) (EU)
                 (EU) (A2U) (EG) (EG) (A2G) (A2U) (EU) (EU) (A1G)
                 (EG) (EG) (A1G) (EG) (EG) (EU) (EU) (A2U) (A1G)
                 (EG) (EG) (EU) (EU) (EU) (EU) (EG) (EG) (A2U)
                 (EU) (EU) (EG) (EG) (A2U) (A1G) (A1U) (A2G) (EG)
                 (EG) (EU) (EU) (A2U) (A1G) (EU) (EU) (A2U) (EG)
                 (EG) (A1G) (A2U) (EG) (EG) (A1G) (EU) (EU) (A1U)
                 (EG) (EG) (EU) (EU) (A2G) (EU) (EU) (EG) (EG)
                 (A2U) (A1G) (A2U) (A1G) (A2U) (A1G)
 The electronic state is 2-A2U.
 Alpha  occ. eigenvalues --  -15.02239 -15.02237  -1.25321  -1.21912  -0.82405
 Alpha  occ. eigenvalues --   -0.82405  -0.80190  -0.80190  -0.71213  -0.54767
 Alpha virt. eigenvalues --   -0.16406  -0.10823  -0.09419  -0.09419  -0.06974
 Alpha virt. eigenvalues --   -0.06974   0.02202   0.02202   0.03222   0.03222
 Alpha virt. eigenvalues --    0.04012   0.09485   0.17354   0.17557   0.17557
 Alpha virt. eigenvalues --    0.18773   0.18773   0.19431   0.23404   0.23404
 Alpha virt. eigenvalues --    0.28887   0.40339   0.40516   0.40516   0.50906
 Alpha virt. eigenvalues --    0.54271   0.54271   0.56279   0.57416   0.57416
 Alpha virt. eigenvalues --    0.60282   0.60607   0.67495   0.67495   0.70218
 Alpha virt. eigenvalues --    0.70218   0.73924   0.76725   0.76725   0.78508
 Alpha virt. eigenvalues --    0.84126   0.84126   0.90321   0.91105   0.91105
 Alpha virt. eigenvalues --    0.96077   1.01932   1.02740   1.03954   1.03954
 Alpha virt. eigenvalues --    1.07141   1.07141   1.07789   1.07789   1.12961
 Alpha virt. eigenvalues --    1.44267   1.44267   1.51118   1.51118   1.55763
 Alpha virt. eigenvalues --    1.80037   1.82613   1.82613   1.84543   1.86191
 Alpha virt. eigenvalues --    1.86191   1.91343   1.92966   1.95685   2.00210
 Alpha virt. eigenvalues --    2.00210   2.03100   2.03100   2.08371   2.08371
 Alpha virt. eigenvalues --    2.11811   2.17807   2.17807   2.20868   2.20868
 Alpha virt. eigenvalues --    2.23110   2.23794   2.23794   2.31060   2.31157
 Alpha virt. eigenvalues --    2.31157   2.34967   2.34967   2.36480   2.42174
 Alpha virt. eigenvalues --    2.48071   2.51508   2.51508   2.62901   2.62908
 Alpha virt. eigenvalues --    2.62908   2.64426   2.64426   2.65476   2.65687
 Alpha virt. eigenvalues --    2.68983   2.68983   2.70686   2.79044   2.79559
 Alpha virt. eigenvalues --    2.79559   2.92569   2.92569   2.94675   2.96470
 Alpha virt. eigenvalues --    2.96470   2.99848   3.11402   3.12168   3.12168
 Alpha virt. eigenvalues --    3.33038   3.33038   3.40775   3.45077   3.45761
 Alpha virt. eigenvalues --    3.45761   3.53770   3.67296   3.67296   3.74838
 Alpha virt. eigenvalues --    3.80033   3.80033   3.86104   4.00898   4.00898
 Alpha virt. eigenvalues --    4.03900   4.03900   4.07096   4.25167   4.49992
 Alpha virt. eigenvalues --    4.77366   4.77366   4.79698   4.86516   4.86516
 Alpha virt. eigenvalues --    5.52164   5.53750   5.53750   5.54214   5.54214
 Alpha virt. eigenvalues --    5.57645   5.57645   5.58056   5.58056   5.58706
 Alpha virt. eigenvalues --    5.58853   5.67227   5.67227   5.76816   5.76816
 Alpha virt. eigenvalues --    5.79907   5.94906   5.94906   6.04453   6.23233
 Alpha virt. eigenvalues --    6.27124   6.27124   6.34149   6.34149   6.47596
 Alpha virt. eigenvalues --    6.49242   6.49242   6.57967   6.61027   6.61027
 Alpha virt. eigenvalues --    6.67952   6.68902   6.70560   6.70560   6.71704
 Alpha virt. eigenvalues --    6.71704   6.84607   6.84607   6.84851   6.87231
 Alpha virt. eigenvalues --    6.87231   6.95578   7.00055   7.00055   7.01176
 Alpha virt. eigenvalues --    7.01176   7.14341   7.22668   7.28349   7.28349
 Alpha virt. eigenvalues --    7.31600   7.31600   7.37561   7.37561   7.39111
 Alpha virt. eigenvalues --    7.39111   7.39801   7.50528   7.51794   7.52576
 Alpha virt. eigenvalues --    7.52576   7.54113   7.59695   7.64743   7.64743
 Alpha virt. eigenvalues --    7.69547   7.69547   7.74192   7.74192   7.74353
 Alpha virt. eigenvalues --    7.76969   7.80391   7.82189   7.90161   7.91936
 Alpha virt. eigenvalues --    7.91936   7.94218   7.97630   7.97630   8.05424
 Alpha virt. eigenvalues --    8.06587   8.09086   8.09086   8.09254   8.18475
 Alpha virt. eigenvalues --    8.18475   8.25677   8.25677   8.28876   8.37041
 Alpha virt. eigenvalues --    8.37041   8.43214   8.58054   8.61558   8.61558
 Alpha virt. eigenvalues --    8.67467   8.67467   8.69534   8.69534   8.94884
 Alpha virt. eigenvalues --    8.94884   9.09441   9.21649   9.21649   9.27746
 Alpha virt. eigenvalues --    9.27746   9.31132   9.33987   9.41641   9.46637
 Alpha virt. eigenvalues --    9.53930   9.53930   9.54923   9.54923   9.65584
 Alpha virt. eigenvalues --    9.76644  10.68874  10.69731  10.69993  10.69993
 Alpha virt. eigenvalues --   10.77034  10.77034  11.18573  11.19985  11.19985
 Alpha virt. eigenvalues --   11.21336  11.25733  11.25733  11.31467  11.31467
 Alpha virt. eigenvalues --   11.32708  11.32708  11.34197  11.41082  13.81664
 Alpha virt. eigenvalues --   13.81664  13.84067  13.84067  14.66459  14.67888
 Alpha virt. eigenvalues --   37.95825  38.01340 195.55483 195.63112
  Beta  occ. eigenvalues --  -15.01189 -15.01184  -1.22440  -1.18885  -0.81086
  Beta  occ. eigenvalues --   -0.81086  -0.78768  -0.78768  -0.61347
  Beta virt. eigenvalues --   -0.29231  -0.15968  -0.10584  -0.08963  -0.08963
  Beta virt. eigenvalues --   -0.06561  -0.06561   0.02207   0.02207   0.02858
  Beta virt. eigenvalues --    0.03559   0.03559   0.08424   0.17917   0.18249
  Beta virt. eigenvalues --    0.18249   0.19692   0.19750   0.19750   0.23703
  Beta virt. eigenvalues --    0.23703   0.29609   0.40692   0.40692   0.41029
  Beta virt. eigenvalues --    0.50951   0.54924   0.54924   0.56312   0.56973
  Beta virt. eigenvalues --    0.56973   0.59712   0.60108   0.67276   0.67276
  Beta virt. eigenvalues --    0.69904   0.69904   0.74205   0.76512   0.76512
  Beta virt. eigenvalues --    0.79420   0.85209   0.85209   0.91438   0.91438
  Beta virt. eigenvalues --    0.93185   0.96029   1.03269   1.03755   1.04699
  Beta virt. eigenvalues --    1.04699   1.07592   1.07592   1.08246   1.08246
  Beta virt. eigenvalues --    1.13227   1.44159   1.44159   1.51524   1.51524
  Beta virt. eigenvalues --    1.56851   1.80196   1.82982   1.82982   1.84812
  Beta virt. eigenvalues --    1.86313   1.86313   1.91289   1.93093   1.96172
  Beta virt. eigenvalues --    2.00013   2.00013   2.02979   2.02979   2.08720
  Beta virt. eigenvalues --    2.08720   2.12080   2.17685   2.17685   2.20914
  Beta virt. eigenvalues --    2.20914   2.23215   2.24228   2.24228   2.31596
  Beta virt. eigenvalues --    2.31596   2.32056   2.35290   2.35290   2.38406
  Beta virt. eigenvalues --    2.42127   2.48819   2.51919   2.51919   2.62894
  Beta virt. eigenvalues --    2.62948   2.62948   2.64850   2.65043   2.65043
  Beta virt. eigenvalues --    2.66416   2.69086   2.69086   2.71373   2.79356
  Beta virt. eigenvalues --    2.79933   2.79933   2.92867   2.92867   2.95144
  Beta virt. eigenvalues --    2.96513   2.96513   3.00511   3.11057   3.11409
  Beta virt. eigenvalues --    3.11409   3.32984   3.32984   3.40953   3.45404
  Beta virt. eigenvalues --    3.45868   3.45868   3.53908   3.68850   3.68850
  Beta virt. eigenvalues --    3.74914   3.81383   3.81383   3.86184   4.02276
  Beta virt. eigenvalues --    4.02276   4.05534   4.05534   4.09480   4.27823
  Beta virt. eigenvalues --    4.52577   4.79246   4.79246   4.81844   4.88190
  Beta virt. eigenvalues --    4.88190   5.52793   5.54027   5.54027   5.54323
  Beta virt. eigenvalues --    5.54323   5.58166   5.58166   5.58496   5.58496
  Beta virt. eigenvalues --    5.58852   5.58974   5.68438   5.68438   5.78105
  Beta virt. eigenvalues --    5.78105   5.80486   5.96611   5.96620   6.06756
  Beta virt. eigenvalues --    6.24614   6.29336   6.29336   6.36368   6.36368
  Beta virt. eigenvalues --    6.48467   6.50800   6.50800   6.58687   6.62886
  Beta virt. eigenvalues --    6.62886   6.70550   6.71755   6.72884   6.72884
  Beta virt. eigenvalues --    6.73012   6.73012   6.86147   6.86147   6.88315
  Beta virt. eigenvalues --    6.88821   6.88821   6.96865   7.00495   7.00495
  Beta virt. eigenvalues --    7.01909   7.01909   7.17726   7.23869   7.29223
  Beta virt. eigenvalues --    7.29223   7.32369   7.32369   7.38220   7.38220
  Beta virt. eigenvalues --    7.40803   7.41141   7.41141   7.51029   7.52272
  Beta virt. eigenvalues --    7.54070   7.54070   7.55774   7.60167   7.65908
  Beta virt. eigenvalues --    7.65908   7.72516   7.72516   7.75743   7.75743
  Beta virt. eigenvalues --    7.75884   7.78151   7.82088   7.83825   7.91520
  Beta virt. eigenvalues --    7.94637   7.94637   7.96952   7.99441   7.99441
  Beta virt. eigenvalues --    8.06911   8.07910   8.11476   8.11476   8.11598
  Beta virt. eigenvalues --    8.19956   8.19956   8.32075   8.32098   8.32098
  Beta virt. eigenvalues --    8.41817   8.41817   8.45095   8.61375   8.64890
  Beta virt. eigenvalues --    8.64890   8.70743   8.70743   8.74579   8.74579
  Beta virt. eigenvalues --    9.00339   9.00339   9.16767   9.26339   9.26339
  Beta virt. eigenvalues --    9.32578   9.32578   9.34353   9.38796   9.45602
  Beta virt. eigenvalues --    9.50551   9.58684   9.58684   9.59733   9.59733
  Beta virt. eigenvalues --    9.72366   9.82857  10.70624  10.70624  10.76209
  Beta virt. eigenvalues --   10.77915  10.77915  10.78018  11.27335  11.28535
  Beta virt. eigenvalues --   11.28535  11.30773  11.32023  11.32023  11.34405
  Beta virt. eigenvalues --   11.35477  11.35477  11.36723  11.36723  11.41229
  Beta virt. eigenvalues --   13.93535  13.93535  13.95849  13.95849  14.78599
  Beta virt. eigenvalues --   14.79823  38.06798  38.12485 195.55705 195.63372
          Condensed to atoms (all electrons):
               1          2          3          4          5          6
     1  N    6.494135  -0.021793   0.349280   0.349280   0.349280  -0.003751
     2  N   -0.021793   6.494135  -0.003751  -0.003751  -0.003751   0.349280
     3  H    0.349280  -0.003751   0.340302  -0.010893  -0.010893  -0.000485
     4  H    0.349280  -0.003751  -0.010893   0.340302  -0.010893  -0.000485
     5  H    0.349280  -0.003751  -0.010893  -0.010893   0.340302   0.000616
     6  H   -0.003751   0.349280  -0.000485  -0.000485   0.000616   0.340302
     7  H   -0.003751   0.349280  -0.000485   0.000616  -0.000485  -0.010893
     8  H   -0.003751   0.349280   0.000616  -0.000485  -0.000485  -0.010893
               7          8
     1  N   -0.003751  -0.003751
     2  N    0.349280   0.349280
     3  H   -0.000485   0.000616
     4  H    0.000616  -0.000485
     5  H   -0.000485  -0.000485
     6  H   -0.010893  -0.010893
     7  H    0.340302  -0.010893
     8  H   -0.010893   0.340302
          Atomic-Atomic Spin Densities.
               1          2          3          4          5          6
     1  N    0.832855  -0.266001  -0.005779  -0.005779  -0.005779   0.007388
     2  N   -0.266001   0.832855   0.007388   0.007388   0.007388  -0.005779
     3  H   -0.005779   0.007388  -0.032361   0.003676   0.003676  -0.000198
     4  H   -0.005779   0.007388   0.003676  -0.032361   0.003676  -0.000198
     5  H   -0.005779   0.007388   0.003676   0.003676  -0.032361  -0.000100
     6  H    0.007388  -0.005779  -0.000198  -0.000198  -0.000100  -0.032361
     7  H    0.007388  -0.005779  -0.000198  -0.000100  -0.000198   0.003676
     8  H    0.007388  -0.005779  -0.000100  -0.000198  -0.000198   0.003676
               7          8
     1  N    0.007388   0.007388
     2  N   -0.005779  -0.005779
     3  H   -0.000198  -0.000100
     4  H   -0.000100  -0.000198
     5  H   -0.000198  -0.000198
     6  H    0.003676   0.003676
     7  H   -0.032361   0.003676
     8  H    0.003676  -0.032361
 Mulliken charges and spin densities:
               1          2
     1  N   -0.508928   0.571683
     2  N   -0.508928   0.571683
     3  H    0.336309  -0.023894
     4  H    0.336309  -0.023894
     5  H    0.336309  -0.023894
     6  H    0.336309  -0.023894
     7  H    0.336309  -0.023894
     8  H    0.336309  -0.023894
 Sum of Mulliken charges =   1.00000   1.00000
 Mulliken charges and spin densities with hydrogens summed into heavy atoms:
               1          2
     1  N    0.500000   0.500000
     2  N    0.500000   0.500000
 Electronic spatial extent (au):  <R**2>=            134.3482
 Charge=              1.0000 electrons
 Dipole moment (field-independent basis, Debye):
    X=              0.0000    Y=             -0.0000    Z=              0.0000  Tot=              0.0000
 Quadrupole moment (field-independent basis, Debye-Ang):
   XX=             -9.1121   YY=             -9.1121   ZZ=             -3.0452
   XY=             -0.0000   XZ=             -0.0000   YZ=              0.0000
 Traceless Quadrupole moment (field-independent basis, Debye-Ang):
   XX=             -2.0223   YY=             -2.0223   ZZ=              4.0446
   XY=             -0.0000   XZ=             -0.0000   YZ=              0.0000
 Octapole moment (field-independent basis, Debye-Ang**2):
  XXX=              0.0000  YYY=              0.0000  ZZZ=             -0.0000  XYY=              0.0000
  XXY=             -0.0000  XXZ=              0.0000  XZZ=              0.0000  YZZ=              0.0000
  YYZ=             -0.0000  XYZ=             -0.0000
 Hexadecapole moment (field-independent basis, Debye-Ang**3):
 XXXX=            -14.2734 YYYY=            -14.2734 ZZZZ=           -105.1339 XXXY=              0.0000
 XXXZ=             -0.0000 YYYX=             -0.0000 YYYZ=              3.9843 ZZZX=             -0.0000
 ZZZY=             -0.0000 XXYY=             -4.7578 XXZZ=            -14.1268 YYZZ=            -14.1268
 XXYZ=             -3.9843 YYXZ=              0.0000 ZZXY=             -0.0000
 N-N= 4.584939305954D+01 E-N=-3.501807293781D+02  KE= 1.123912768553D+02
                          Isotropic Fermi Contact Couplings
        Atom                 a.u.       MegaHertz       Gauss      10(-4) cm-1
     1  N(14)              0.44212     142.85193      50.97312      47.65028
     2  N(14)              0.44212     142.85193      50.97312      47.65028
     3  H(1)              -0.00827     -36.94808     -13.18399     -12.32455
     4  H(1)              -0.00827     -36.94808     -13.18399     -12.32455
     5  H(1)              -0.00827     -36.94808     -13.18399     -12.32455
     6  H(1)              -0.00827     -36.94808     -13.18399     -12.32455
     7  H(1)              -0.00827     -36.94808     -13.18399     -12.32455
     8  H(1)              -0.00827     -36.94808     -13.18399     -12.32455
 PrsmSu:  requested number of processors reduced to:  21 ShMem   1 Linda.
 --------------------------------------------------------
       Center         ----  Spin Dipole Couplings  ----
                      3XX-RR        3YY-RR        3ZZ-RR
 --------------------------------------------------------
     1   Atom       -0.662233     -0.662233      1.324465
     2   Atom       -0.662233     -0.662233      1.324465
     3   Atom       -0.060491      0.063277     -0.002786
     4   Atom        0.032335     -0.029549     -0.002786
     5   Atom        0.032335     -0.029549     -0.002786
     6   Atom        0.032335     -0.029549     -0.002786
     7   Atom        0.032335     -0.029549     -0.002786
     8   Atom       -0.060491      0.063277     -0.002786
 --------------------------------------------------------
                        XY            XZ            YZ
 --------------------------------------------------------
     1   Atom       -0.000000     -0.000000      0.000000
     2   Atom       -0.000000     -0.000000      0.000000
     3   Atom       -0.000000     -0.000000      0.032053
     4   Atom        0.053593     -0.027758     -0.016026
     5   Atom       -0.053593      0.027758     -0.016026
     6   Atom       -0.053593      0.027758     -0.016026
     7   Atom        0.053593     -0.027758     -0.016026
     8   Atom        0.000000      0.000000      0.032053
 --------------------------------------------------------


 ---------------------------------------------------------------------------------
              Anisotropic Spin Dipole Couplings in Principal Axis System
 ---------------------------------------------------------------------------------

       Atom             a.u.   MegaHertz   Gauss  10(-4) cm-1        Axes

              Baa    -0.6622   -25.541    -9.114    -8.520  0.9966  0.0819  0.0000
     1 N(14)  Bbb    -0.6622   -25.541    -9.114    -8.520 -0.0819  0.9966 -0.0000
              Bcc     1.3245    51.082    18.227    17.039 -0.0000  0.0000  1.0000
 
              Baa    -0.6622   -25.541    -9.114    -8.520  1.0000  0.0069  0.0000
     2 N(14)  Bbb    -0.6622   -25.541    -9.114    -8.520 -0.0069  1.0000 -0.0000
              Bcc     1.3245    51.082    18.227    17.039 -0.0000  0.0000  1.0000
 
              Baa    -0.0605   -32.275   -11.517   -10.766  1.0000  0.0000 -0.0000
     3 H(1)   Bbb    -0.0158    -8.420    -3.005    -2.809  0.0000 -0.3757  0.9267
              Bcc     0.0763    40.695    14.521    13.574 -0.0000  0.9267  0.3757
 
              Baa    -0.0605   -32.275   -11.517   -10.766 -0.5000  0.8660 -0.0000
     4 H(1)   Bbb    -0.0158    -8.420    -3.005    -2.809  0.3254  0.1879  0.9267
              Bcc     0.0763    40.695    14.521    13.574  0.8026  0.4634 -0.3757
 
              Baa    -0.0605   -32.275   -11.517   -10.766  0.5000  0.8660 -0.0000
     5 H(1)   Bbb    -0.0158    -8.420    -3.005    -2.809 -0.3254  0.1879  0.9267
              Bcc     0.0763    40.695    14.521    13.574  0.8026 -0.4634  0.3757
 
              Baa    -0.0605   -32.275   -11.517   -10.766  0.5000  0.8660 -0.0000
     6 H(1)   Bbb    -0.0158    -8.420    -3.005    -2.809 -0.3254  0.1879  0.9267
              Bcc     0.0763    40.695    14.521    13.574  0.8026 -0.4634  0.3757
 
              Baa    -0.0605   -32.275   -11.517   -10.766 -0.5000  0.8660 -0.0000
     7 H(1)   Bbb    -0.0158    -8.420    -3.005    -2.809  0.3254  0.1879  0.9267
              Bcc     0.0763    40.695    14.521    13.574  0.8026  0.4634 -0.3757
 
              Baa    -0.0605   -32.275   -11.517   -10.766  1.0000 -0.0000  0.0000
     8 H(1)   Bbb    -0.0158    -8.420    -3.005    -2.809 -0.0000 -0.3757  0.9267
              Bcc     0.0763    40.695    14.521    13.574  0.0000  0.9267  0.3757
 

 ---------------------------------------------------------------------------------

 PrsmSu:  requested number of processors reduced to:  21 ShMem   1 Linda.
 No NMR shielding tensors so no spin-rotation constants.
 Leave Link  601 at Sun Apr 18 03:05:44 2021, MaxMem=   104857600 cpu:             957.6 elap:              20.6
 (Enter /s/ls4/users/knvvv/bin/g16sse/l801.exe)
 DoSCS=F DFT=T ScalE2(SS,OS)=  1.000000  1.000000
 Range of M.O.s used for correlation:     1   294
 NBasis=   294 NAE=    10 NBE=     9 NFC=     0 NFV=     0
 NROrb=    294 NOA=    10 NOB=     9 NVA=   284 NVB=   285

 **** Warning!!: The largest alpha MO coefficient is  0.21411347D+02


 **** Warning!!: The largest beta MO coefficient is  0.21388318D+02

 Leave Link  801 at Sun Apr 18 03:05:45 2021, MaxMem=   104857600 cpu:               4.4 elap:               0.1
 (Enter /s/ls4/users/knvvv/bin/g16sse/l914.exe)
 UHF ground state
 Doing stability rather than CIS.
 Two-electron integrals replicated using symmetry.
 MDV=   104857600 DFT=T DoStab=T Mixed=T DoRPA=F DoScal=F NonHer=F
 Making orbital integer symmetry assigments:
 Orbital symmetries:
 Alpha Orbitals:
       Occupied  (A2U) (A1G) (A1G) (A2U) (EU) (EU) (EG) (EG) (A1G)
                 (A2U)
       Virtual   (A1G) (A2U) (EU) (EU) (EG) (EG) (EG) (EG) (EU)
                 (EU) (A1G) (A2U) (A1G) (EU) (EU) (EG) (EG) (A2U)
                 (EU) (EU) (A1G) (A2U) (EG) (EG) (A1U) (EG) (EG)
                 (A2G) (EU) (EU) (A1G) (A2U) (EG) (EG) (EU) (EU)
                 (A1G) (EG) (EG) (A2U) (EU) (EU) (A1G) (EU) (EU)
                 (A2U) (A1G) (A2U) (EG) (EG) (EU) (EU) (EG) (EG)
                 (A1G) (EU) (EU) (EG) (EG) (A2U) (A1G) (EU) (EU)
                 (A1U) (EG) (EG) (A2G) (A1U) (A2G) (EU) (EU) (EG)
                 (EG) (EG) (EG) (A2U) (EU) (EU) (EG) (EG) (A2U)
                 (EU) (EU) (A1G) (EG) (EG) (EU) (EU) (A2U) (A1G)
                 (A1G) (EU) (EU) (A2U) (EG) (EG) (EG) (EG) (A1G)
                 (A1U) (EU) (EU) (A2G) (A2U) (EU) (EU) (EG) (EG)
                 (A1G) (EU) (EU) (A1G) (A2U) (EG) (EG) (EG) (EG)
                 (A2U) (A2U) (EU) (EU) (A1G) (EG) (EG) (A1U) (EU)
                 (EU) (A2G) (EU) (EU) (EG) (EG) (A2U) (A1G) (A1G)
                 (EU) (EU) (A2U) (EG) (EG) (A1G) (EU) (EU) (EG)
                 (EG) (EG) (EG) (EU) (EU) (A2G) (A1U) (EU) (EU)
                 (EG) (EG) (A2U) (A1U) (A2G) (A1G) (A2U) (EU) (EU)
                 (EG) (EG) (A1U) (EU) (EU) (A2G) (EG) (EG) (A2U)
                 (A1G) (EU) (EU) (EG) (EG) (EG) (EG) (A1G) (EU)
                 (EU) (A2U) (EU) (EU) (EG) (EG) (A2U) (A1G) (EG)
                 (EG) (EU) (EU) (EG) (EG) (EU) (EU) (A1G) (A1U)
                 (A2G) (EG) (EG) (A1G) (A2U) (EU) (EU) (EG) (EG)
                 (EU) (EU) (A2U) (A1G) (A1U) (A2G) (A1U) (EU) (EU)
                 (A2U) (EG) (EG) (A2G) (A2U) (EU) (EU) (A1G) (EG)
                 (EG) (EG) (EG) (A1G) (EU) (EU) (A2U) (A1G) (EG)
                 (EG) (EU) (EU) (EU) (EU) (EG) (EG) (A2U) (EU)
                 (EU) (EG) (EG) (A2U) (A1G) (A1U) (A2G) (EG) (EG)
                 (EU) (EU) (A2U) (A1G) (A2U) (A1G) (EU) (EU) (EG)
                 (EG) (A2U) (EG) (EG) (A1G) (EU) (EU) (EU) (EU)
                 (EG) (EG) (A1U) (A2G) (EU) (EU) (EG) (EG) (A2U)
                 (A1G) (A2U) (A1G) (A2U) (A1G)
 Beta  Orbitals:
       Occupied  (A1G) (A2U) (A1G) (A2U) (EU) (EU) (EG) (EG) (A1G)
       Virtual   (A2U) (A1G) (A2U) (EU) (EU) (EG) (EG) (EG) (EG)
                 (A1G) (EU) (EU) (A2U) (A1G) (EU) (EU) (A2U) (EG)
                 (EG) (EU) (EU) (A1G) (EG) (EG) (A2U) (A1U) (EG)
                 (EG) (A2G) (EU) (EU) (A1G) (A2U) (EG) (EG) (EU)
                 (EU) (A1G) (EG) (EG) (A2U) (EU) (EU) (EU) (EU)
                 (A1G) (A2U) (A2U) (A1G) (EG) (EG) (EU) (EU) (EG)
                 (EG) (A1G) (EU) (EU) (EG) (EG) (A2U) (A1G) (EU)
                 (EU) (A1U) (EG) (EG) (A2G) (A1U) (A2G) (EU) (EU)
                 (EG) (EG) (EG) (EG) (A2U) (EU) (EU) (EG) (EG)
                 (A2U) (EU) (EU) (EG) (EG) (A1G) (EU) (EU) (A2U)
                 (A1G) (A1G) (EU) (EU) (A2U) (EG) (EG) (A1G) (EG)
                 (EG) (A1U) (EU) (EU) (A2G) (A2U) (EU) (EU) (EG)
                 (EG) (A1G) (EU) (EU) (A1G) (A2U) (EG) (EG) (EG)
                 (EG) (A2U) (A2U) (EU) (EU) (A1G) (EG) (EG) (A1U)
                 (EU) (EU) (A2G) (EU) (EU) (EG) (EG) (A2U) (A1G)
                 (A1G) (EU) (EU) (A2U) (EG) (EG) (A1G) (EU) (EU)
                 (EG) (EG) (EG) (EG) (EU) (EU) (A2G) (A1U) (EU)
                 (EU) (EG) (EG) (A2U) (A1U) (A2G) (A1G) (A2U) (EU)
                 (EU) (EG) (EG) (A1U) (EU) (EU) (A2G) (EG) (EG)
                 (A2U) (A1G) (EG) (EG) (EU) (EU) (EG) (EG) (A1G)
                 (EU) (EU) (A2U) (EU) (EU) (EG) (EG) (A2U) (A1G)
                 (EG) (EG) (EU) (EU) (EG) (EG) (A1G) (EU) (EU)
                 (A1U) (A2G) (EG) (EG) (A1G) (A2U) (EU) (EU) (EG)
                 (EG) (EU) (EU) (A2U) (A1G) (A1U) (A2G) (A1U) (EU)
                 (EU) (A2U) (EG) (EG) (A2G) (A2U) (EU) (EU) (A1G)
                 (EG) (EG) (A1G) (EG) (EG) (EU) (EU) (A2U) (A1G)
                 (EG) (EG) (EU) (EU) (EU) (EU) (EG) (EG) (A2U)
                 (EU) (EU) (EG) (EG) (A2U) (A1G) (A1U) (A2G) (EG)
                 (EG) (EU) (EU) (A2U) (A1G) (EU) (EU) (A2U) (EG)
                 (EG) (A1G) (A2U) (EG) (EG) (A1G) (EU) (EU) (A1U)
                 (EG) (EG) (EU) (EU) (A2G) (EU) (EU) (EG) (EG)
                 (A2U) (A1G) (A2U) (A1G) (A2U) (A1G)
    12 initial guesses have been made.
 Convergence on wavefunction:    0.001000000000000
 Davidson Disk Diagonalization:  ConvIn= 1.00D-03 SkipCon=T Conv= 1.00D-03.
 Max sub-space:  2000 roots to seek:    12 dimension of matrix:         5405
 Iteration     1 Dimension    12 NMult     0 NNew     12
 Estimated number of processors is:   18
 CISAX will form     1 AO SS matrices at one time.
 NMat=     1 NSing=     1 JSym2X= 2.
 FoFJK:  IHMeth= 1 ICntrl=       0 DoSepK=F KAlg= 0 I1Cent=           0 FoldK=F
 IRaf= 990000000 NMat=       1 IRICut=       1 DoRegI=T DoRafI=F ISym2E= 2 IDoP0=0 IntGTp=1.
 FoFCou: FMM=F IPFlag=           0 FMFlag=      100000 FMFlg1=           0
         NFxFlg=           0 DoJE=F BraDBF=F KetDBF=F FulRan=T
         wScrn=  0.000000 ICntrl=         0 IOpCl=  1 I1Cent=           0 NGrid=           0
         NMat0=    1 NMatS0=      1 NMatT0=    0 NMatD0=    1 NMtDS0=    0 NMtDT0=    0
 Integrals replicated using symmetry in FoFCou.
 CoulSu:  requested number of processors reduced to:  15 ShMem   1 Linda.
 NMat=     1 NSing=     1 JSym2X= 2.
 CoulSu:  requested number of processors reduced to:  15 ShMem   1 Linda.
 NMat=     1 NSing=     1 JSym2X= 2.
 CoulSu:  requested number of processors reduced to:  15 ShMem   1 Linda.
 NMat=     1 NSing=     1 JSym2X= 2.
 CoulSu:  requested number of processors reduced to:  15 ShMem   1 Linda.
 NMat=     1 NSing=     1 JSym2X= 2.
 CoulSu:  requested number of processors reduced to:  15 ShMem   1 Linda.
 NMat=     1 NSing=     1 JSym2X= 2.
 CoulSu:  requested number of processors reduced to:  15 ShMem   1 Linda.
 NMat=     1 NSing=     1 JSym2X= 2.
 CoulSu:  requested number of processors reduced to:  15 ShMem   1 Linda.
 NMat=     1 NSing=     1 JSym2X= 2.
 CoulSu:  requested number of processors reduced to:  15 ShMem   1 Linda.
 NMat=     1 NSing=     1 JSym2X= 2.
 CoulSu:  requested number of processors reduced to:  15 ShMem   1 Linda.
 NMat=     1 NSing=     1 JSym2X= 2.
 CoulSu:  requested number of processors reduced to:  15 ShMem   1 Linda.
 NMat=     1 NSing=     1 JSym2X= 2.
 CoulSu:  requested number of processors reduced to:  15 ShMem   1 Linda.
 NMat=     1 NSing=     1 JSym2X= 2.
 CoulSu:  requested number of processors reduced to:  15 ShMem   1 Linda.
 New state      1 was old state      2
 Excitation Energies [eV] at current iteration:
 Root      1 :     7.243465846438011
 Root      2 :     8.913254498500251
 Root      3 :     8.913268043814336
 Root      4 :     9.116467896434687
 Root      5 :     9.280525381047182
 Root      6 :     9.327153512538558
 Root      7 :     9.485217394416910
 Root      8 :     9.486275670704932
 Root      9 :     9.706560902852118
 Root     10 :    10.051116119898700
 Root     11 :    10.051126594895440
 Root     12 :    11.799365482022250
 Iteration     2 Dimension    24 NMult    12 NNew     12
 Estimated number of processors is:   18
 CISAX will form     1 AO SS matrices at one time.
 NMat=     1 NSing=     1 JSym2X= 2.
 CoulSu:  requested number of processors reduced to:  15 ShMem   1 Linda.
 NMat=     1 NSing=     1 JSym2X= 2.
 CoulSu:  requested number of processors reduced to:  15 ShMem   1 Linda.
 NMat=     1 NSing=     1 JSym2X= 2.
 CoulSu:  requested number of processors reduced to:  15 ShMem   1 Linda.
 NMat=     1 NSing=     1 JSym2X= 2.
 CoulSu:  requested number of processors reduced to:  15 ShMem   1 Linda.
 NMat=     1 NSing=     1 JSym2X= 2.
 CoulSu:  requested number of processors reduced to:  15 ShMem   1 Linda.
 NMat=     1 NSing=     1 JSym2X= 2.
 CoulSu:  requested number of processors reduced to:  15 ShMem   1 Linda.
 NMat=     1 NSing=     1 JSym2X= 2.
 CoulSu:  requested number of processors reduced to:  15 ShMem   1 Linda.
 NMat=     1 NSing=     1 JSym2X= 2.
 CoulSu:  requested number of processors reduced to:  15 ShMem   1 Linda.
 NMat=     1 NSing=     1 JSym2X= 2.
 CoulSu:  requested number of processors reduced to:  15 ShMem   1 Linda.
 NMat=     1 NSing=     1 JSym2X= 2.
 CoulSu:  requested number of processors reduced to:  15 ShMem   1 Linda.
 NMat=     1 NSing=     1 JSym2X= 2.
 CoulSu:  requested number of processors reduced to:  15 ShMem   1 Linda.
 NMat=     1 NSing=     1 JSym2X= 2.
 CoulSu:  requested number of processors reduced to:  15 ShMem   1 Linda.
 New state      1 was old state      5
 Root      1 not converged, maximum delta is    0.446972759113464
 Excitation Energies [eV] at current iteration:
 Root      1 :     5.876967800904094   Change is   -3.403557580143088
 Root      2 :     7.105170976619286   Change is   -0.138294869818724
 Root      3 :     8.566102757493681   Change is   -0.347151741006571
 Root      4 :     8.566120622767295   Change is   -0.347147421047042
 Root      5 :     8.689739480194376   Change is   -0.426728416240310
 Root      6 :     8.961649276233205   Change is   -0.365504236305355
 Root      7 :     9.158750968930056   Change is   -0.327524701774876
 Root      8 :     9.280866143557484   Change is   -0.204351250859425
 Root      9 :     9.509108385972624   Change is   -0.197452516879494
 Root     10 :     9.661476043774643   Change is   -0.389640076124056
 Root     11 :     9.661497219373654   Change is   -0.389629375521782
 Root     12 :    10.780095642930600   Change is   -1.019269839091642
 Iteration     3 Dimension    27 NMult    24 NNew      3
 Estimated number of processors is:   18
 CISAX will form     1 AO SS matrices at one time.
 NMat=     1 NSing=     1 JSym2X= 2.
 CoulSu:  requested number of processors reduced to:  15 ShMem   1 Linda.
 NMat=     1 NSing=     1 JSym2X= 2.
 CoulSu:  requested number of processors reduced to:  15 ShMem   1 Linda.
 NMat=     1 NSing=     1 JSym2X= 2.
 CoulSu:  requested number of processors reduced to:  15 ShMem   1 Linda.
 Root      1 not converged, maximum delta is    0.066775723277113
 Excitation Energies [eV] at current iteration:
 Root      1 :     5.610089785153296   Change is   -0.266878015750797
 Root      2 :     7.043122113313773   Change is   -0.062048863305513
 Root      3 :     8.546179140892471   Change is   -0.019923616601208
 Iteration     4 Dimension    30 NMult    27 NNew      3
 Estimated number of processors is:   18
 CISAX will form     1 AO SS matrices at one time.
 NMat=     1 NSing=     1 JSym2X= 2.
 CoulSu:  requested number of processors reduced to:  15 ShMem   1 Linda.
 NMat=     1 NSing=     1 JSym2X= 2.
 CoulSu:  requested number of processors reduced to:  15 ShMem   1 Linda.
 NMat=     1 NSing=     1 JSym2X= 2.
 CoulSu:  requested number of processors reduced to:  15 ShMem   1 Linda.
 Root      1 not converged, maximum delta is    0.013586217124293
 Excitation Energies [eV] at current iteration:
 Root      1 :     5.581351595740725   Change is   -0.028738189412572
 Root      2 :     7.037236606056213   Change is   -0.005885507257560
 Root      3 :     8.544852616842300   Change is   -0.001326524050172
 Iteration     5 Dimension    33 NMult    30 NNew      3
 Estimated number of processors is:   18
 CISAX will form     1 AO SS matrices at one time.
 NMat=     1 NSing=     1 JSym2X= 2.
 CoulSu:  requested number of processors reduced to:  15 ShMem   1 Linda.
 NMat=     1 NSing=     1 JSym2X= 2.
 CoulSu:  requested number of processors reduced to:  15 ShMem   1 Linda.
 NMat=     1 NSing=     1 JSym2X= 2.
 CoulSu:  requested number of processors reduced to:  15 ShMem   1 Linda.
 Root      1 not converged, maximum delta is    0.005116061146708
 Excitation Energies [eV] at current iteration:
 Root      1 :     5.579137001993690   Change is   -0.002214593747035
 Root      2 :     7.036715603947937   Change is   -0.000521002108276
 Root      3 :     8.544769388024848   Change is   -0.000083228817451
 Iteration     6 Dimension    36 NMult    33 NNew      3
 Estimated number of processors is:   18
 CISAX will form     1 AO SS matrices at one time.
 NMat=     1 NSing=     1 JSym2X= 2.
 CoulSu:  requested number of processors reduced to:  15 ShMem   1 Linda.
 NMat=     1 NSing=     1 JSym2X= 2.
 CoulSu:  requested number of processors reduced to:  15 ShMem   1 Linda.
 NMat=     1 NSing=     1 JSym2X= 2.
 CoulSu:  requested number of processors reduced to:  15 ShMem   1 Linda.
 Root      1 has converged.
 Excitation Energies [eV] at current iteration:
 Root      1 :     5.579064094336782   Change is   -0.000072907656908
 Root      2 :     7.036691510780859   Change is   -0.000024093167078
 Root      3 :     8.544765560818208   Change is   -0.000003827206642
 Convergence achieved on expansion vectors.
 ***********************************************************************
 Stability analysis using <AA,BB:AA,BB> singles matrix:
 ***********************************************************************
 1PDM for each excited state written to RWF  633
 Ground to excited state transition densities written to RWF  633

 Eigenvectors of the stability matrix:
 
 Eigenvector   1:  2.024-A2U  Eigenvalue= 0.2050268  <S**2>=0.775
     10A -> 11A       -0.22469
     10A -> 21A       -0.14319
     10A -> 31A        0.14760
      9B -> 10B        0.90413
 The wavefunction is stable under the perturbations considered.
 Leave Link  914 at Sun Apr 18 03:10:51 2021, MaxMem=   104857600 cpu:           10739.3 elap:             306.4
 (Enter /s/ls4/users/knvvv/bin/g16sse/l508.exe)
 The wavefunction is already stable.
 Leave Link  508 at Sun Apr 18 03:10:51 2021, MaxMem=   104857600 cpu:               2.1 elap:               0.1
 (Enter /s/ls4/users/knvvv/bin/g16sse/l601.exe)
 Copying SCF densities to generalized density rwf, IOpCl= 1 IROHF=0.

 **********************************************************************

            Population analysis using the SCF density.

 **********************************************************************

 Orbital symmetries:
 Alpha Orbitals:
       Occupied  (A2U) (A1G) (A1G) (A2U) (EU) (EU) (EG) (EG) (A1G)
                 (A2U)
       Virtual   (A1G) (A2U) (EU) (EU) (EG) (EG) (EG) (EG) (EU)
                 (EU) (A1G) (A2U) (A1G) (EU) (EU) (EG) (EG) (A2U)
                 (EU) (EU) (A1G) (A2U) (EG) (EG) (A1U) (EG) (EG)
                 (A2G) (EU) (EU) (A1G) (A2U) (EG) (EG) (EU) (EU)
                 (A1G) (EG) (EG) (A2U) (EU) (EU) (A1G) (EU) (EU)
                 (A2U) (A1G) (A2U) (EG) (EG) (EU) (EU) (EG) (EG)
                 (A1G) (EU) (EU) (EG) (EG) (A2U) (A1G) (EU) (EU)
                 (A1U) (EG) (EG) (A2G) (A1U) (A2G) (EU) (EU) (EG)
                 (EG) (EG) (EG) (A2U) (EU) (EU) (EG) (EG) (A2U)
                 (EU) (EU) (A1G) (EG) (EG) (EU) (EU) (A2U) (A1G)
                 (A1G) (EU) (EU) (A2U) (EG) (EG) (EG) (EG) (A1G)
                 (A1U) (EU) (EU) (A2G) (A2U) (EU) (EU) (EG) (EG)
                 (A1G) (EU) (EU) (A1G) (A2U) (EG) (EG) (EG) (EG)
                 (A2U) (A2U) (EU) (EU) (A1G) (EG) (EG) (A1U) (EU)
                 (EU) (A2G) (EU) (EU) (EG) (EG) (A2U) (A1G) (A1G)
                 (EU) (EU) (A2U) (EG) (EG) (A1G) (EU) (EU) (EG)
                 (EG) (EG) (EG) (EU) (EU) (A2G) (A1U) (EU) (EU)
                 (EG) (EG) (A2U) (A1U) (A2G) (A1G) (A2U) (EU) (EU)
                 (EG) (EG) (A1U) (EU) (EU) (A2G) (EG) (EG) (A2U)
                 (A1G) (EU) (EU) (EG) (EG) (EG) (EG) (A1G) (EU)
                 (EU) (A2U) (EU) (EU) (EG) (EG) (A2U) (A1G) (EG)
                 (EG) (EU) (EU) (EG) (EG) (EU) (EU) (A1G) (A1U)
                 (A2G) (EG) (EG) (A1G) (A2U) (EU) (EU) (EG) (EG)
                 (EU) (EU) (A2U) (A1G) (A1U) (A2G) (A1U) (EU) (EU)
                 (A2U) (EG) (EG) (A2G) (A2U) (EU) (EU) (A1G) (EG)
                 (EG) (EG) (EG) (A1G) (EU) (EU) (A2U) (A1G) (EG)
                 (EG) (EU) (EU) (EU) (EU) (EG) (EG) (A2U) (EU)
                 (EU) (EG) (EG) (A2U) (A1G) (A1U) (A2G) (EG) (EG)
                 (EU) (EU) (A2U) (A1G) (A2U) (A1G) (EU) (EU) (EG)
                 (EG) (A2U) (EG) (EG) (A1G) (EU) (EU) (EU) (EU)
                 (EG) (EG) (A1U) (A2G) (EU) (EU) (EG) (EG) (A2U)
                 (A1G) (A2U) (A1G) (A2U) (A1G)
 Beta  Orbitals:
       Occupied  (A1G) (A2U) (A1G) (A2U) (EU) (EU) (EG) (EG) (A1G)
       Virtual   (A2U) (A1G) (A2U) (EU) (EU) (EG) (EG) (EG) (EG)
                 (A1G) (EU) (EU) (A2U) (A1G) (EU) (EU) (A2U) (EG)
                 (EG) (EU) (EU) (A1G) (EG) (EG) (A2U) (A1U) (EG)
                 (EG) (A2G) (EU) (EU) (A1G) (A2U) (EG) (EG) (EU)
                 (EU) (A1G) (EG) (EG) (A2U) (EU) (EU) (EU) (EU)
                 (A1G) (A2U) (A2U) (A1G) (EG) (EG) (EU) (EU) (EG)
                 (EG) (A1G) (EU) (EU) (EG) (EG) (A2U) (A1G) (EU)
                 (EU) (A1U) (EG) (EG) (A2G) (A1U) (A2G) (EU) (EU)
                 (EG) (EG) (EG) (EG) (A2U) (EU) (EU) (EG) (EG)
                 (A2U) (EU) (EU) (EG) (EG) (A1G) (EU) (EU) (A2U)
                 (A1G) (A1G) (EU) (EU) (A2U) (EG) (EG) (A1G) (EG)
                 (EG) (A1U) (EU) (EU) (A2G) (A2U) (EU) (EU) (EG)
                 (EG) (A1G) (EU) (EU) (A1G) (A2U) (EG) (EG) (EG)
                 (EG) (A2U) (A2U) (EU) (EU) (A1G) (EG) (EG) (A1U)
                 (EU) (EU) (A2G) (EU) (EU) (EG) (EG) (A2U) (A1G)
                 (A1G) (EU) (EU) (A2U) (EG) (EG) (A1G) (EU) (EU)
                 (EG) (EG) (EG) (EG) (EU) (EU) (A2G) (A1U) (EU)
                 (EU) (EG) (EG) (A2U) (A1U) (A2G) (A1G) (A2U) (EU)
                 (EU) (EG) (EG) (A1U) (EU) (EU) (A2G) (EG) (EG)
                 (A2U) (A1G) (EG) (EG) (EU) (EU) (EG) (EG) (A1G)
                 (EU) (EU) (A2U) (EU) (EU) (EG) (EG) (A2U) (A1G)
                 (EG) (EG) (EU) (EU) (EG) (EG) (A1G) (EU) (EU)
                 (A1U) (A2G) (EG) (EG) (A1G) (A2U) (EU) (EU) (EG)
                 (EG) (EU) (EU) (A2U) (A1G) (A1U) (A2G) (A1U) (EU)
                 (EU) (A2U) (EG) (EG) (A2G) (A2U) (EU) (EU) (A1G)
                 (EG) (EG) (A1G) (EG) (EG) (EU) (EU) (A2U) (A1G)
                 (EG) (EG) (EU) (EU) (EU) (EU) (EG) (EG) (A2U)
                 (EU) (EU) (EG) (EG) (A2U) (A1G) (A1U) (A2G) (EG)
                 (EG) (EU) (EU) (A2U) (A1G) (EU) (EU) (A2U) (EG)
                 (EG) (A1G) (A2U) (EG) (EG) (A1G) (EU) (EU) (A1U)
                 (EG) (EG) (EU) (EU) (A2G) (EU) (EU) (EG) (EG)
                 (A2U) (A1G) (A2U) (A1G) (A2U) (A1G)
 The electronic state is 2-A2U.
 Alpha  occ. eigenvalues --  -15.02239 -15.02237  -1.25321  -1.21912  -0.82405
 Alpha  occ. eigenvalues --   -0.82405  -0.80190  -0.80190  -0.71213  -0.54767
 Alpha virt. eigenvalues --   -0.16406  -0.10823  -0.09419  -0.09419  -0.06974
 Alpha virt. eigenvalues --   -0.06974   0.02202   0.02202   0.03222   0.03222
 Alpha virt. eigenvalues --    0.04012   0.09485   0.17354   0.17557   0.17557
 Alpha virt. eigenvalues --    0.18773   0.18773   0.19431   0.23404   0.23404
 Alpha virt. eigenvalues --    0.28887   0.40339   0.40516   0.40516   0.50906
 Alpha virt. eigenvalues --    0.54271   0.54271   0.56279   0.57416   0.57416
 Alpha virt. eigenvalues --    0.60282   0.60607   0.67495   0.67495   0.70218
 Alpha virt. eigenvalues --    0.70218   0.73924   0.76725   0.76725   0.78508
 Alpha virt. eigenvalues --    0.84126   0.84126   0.90321   0.91105   0.91105
 Alpha virt. eigenvalues --    0.96077   1.01932   1.02740   1.03954   1.03954
 Alpha virt. eigenvalues --    1.07141   1.07141   1.07789   1.07789   1.12961
 Alpha virt. eigenvalues --    1.44267   1.44267   1.51118   1.51118   1.55763
 Alpha virt. eigenvalues --    1.80037   1.82613   1.82613   1.84543   1.86191
 Alpha virt. eigenvalues --    1.86191   1.91343   1.92966   1.95685   2.00210
 Alpha virt. eigenvalues --    2.00210   2.03100   2.03100   2.08371   2.08371
 Alpha virt. eigenvalues --    2.11811   2.17807   2.17807   2.20868   2.20868
 Alpha virt. eigenvalues --    2.23110   2.23794   2.23794   2.31060   2.31157
 Alpha virt. eigenvalues --    2.31157   2.34967   2.34967   2.36480   2.42174
 Alpha virt. eigenvalues --    2.48071   2.51508   2.51508   2.62901   2.62908
 Alpha virt. eigenvalues --    2.62908   2.64426   2.64426   2.65476   2.65687
 Alpha virt. eigenvalues --    2.68983   2.68983   2.70686   2.79044   2.79559
 Alpha virt. eigenvalues --    2.79559   2.92569   2.92569   2.94675   2.96470
 Alpha virt. eigenvalues --    2.96470   2.99848   3.11402   3.12168   3.12168
 Alpha virt. eigenvalues --    3.33038   3.33038   3.40775   3.45077   3.45761
 Alpha virt. eigenvalues --    3.45761   3.53770   3.67296   3.67296   3.74838
 Alpha virt. eigenvalues --    3.80033   3.80033   3.86104   4.00898   4.00898
 Alpha virt. eigenvalues --    4.03900   4.03900   4.07096   4.25167   4.49992
 Alpha virt. eigenvalues --    4.77366   4.77366   4.79698   4.86516   4.86516
 Alpha virt. eigenvalues --    5.52164   5.53750   5.53750   5.54214   5.54214
 Alpha virt. eigenvalues --    5.57645   5.57645   5.58056   5.58056   5.58706
 Alpha virt. eigenvalues --    5.58853   5.67227   5.67227   5.76816   5.76816
 Alpha virt. eigenvalues --    5.79907   5.94906   5.94906   6.04453   6.23233
 Alpha virt. eigenvalues --    6.27124   6.27124   6.34149   6.34149   6.47596
 Alpha virt. eigenvalues --    6.49242   6.49242   6.57967   6.61027   6.61027
 Alpha virt. eigenvalues --    6.67952   6.68902   6.70560   6.70560   6.71704
 Alpha virt. eigenvalues --    6.71704   6.84607   6.84607   6.84851   6.87231
 Alpha virt. eigenvalues --    6.87231   6.95578   7.00055   7.00055   7.01176
 Alpha virt. eigenvalues --    7.01176   7.14341   7.22668   7.28349   7.28349
 Alpha virt. eigenvalues --    7.31600   7.31600   7.37561   7.37561   7.39111
 Alpha virt. eigenvalues --    7.39111   7.39801   7.50528   7.51794   7.52576
 Alpha virt. eigenvalues --    7.52576   7.54113   7.59695   7.64743   7.64743
 Alpha virt. eigenvalues --    7.69547   7.69547   7.74192   7.74192   7.74353
 Alpha virt. eigenvalues --    7.76969   7.80391   7.82189   7.90161   7.91936
 Alpha virt. eigenvalues --    7.91936   7.94218   7.97630   7.97630   8.05424
 Alpha virt. eigenvalues --    8.06587   8.09086   8.09086   8.09254   8.18475
 Alpha virt. eigenvalues --    8.18475   8.25677   8.25677   8.28876   8.37041
 Alpha virt. eigenvalues --    8.37041   8.43214   8.58054   8.61558   8.61558
 Alpha virt. eigenvalues --    8.67467   8.67467   8.69534   8.69534   8.94884
 Alpha virt. eigenvalues --    8.94884   9.09441   9.21649   9.21649   9.27746
 Alpha virt. eigenvalues --    9.27746   9.31132   9.33987   9.41641   9.46637
 Alpha virt. eigenvalues --    9.53930   9.53930   9.54923   9.54923   9.65584
 Alpha virt. eigenvalues --    9.76644  10.68874  10.69731  10.69993  10.69993
 Alpha virt. eigenvalues --   10.77034  10.77034  11.18573  11.19985  11.19985
 Alpha virt. eigenvalues --   11.21336  11.25733  11.25733  11.31467  11.31467
 Alpha virt. eigenvalues --   11.32708  11.32708  11.34197  11.41082  13.81664
 Alpha virt. eigenvalues --   13.81664  13.84067  13.84067  14.66459  14.67888
 Alpha virt. eigenvalues --   37.95825  38.01340 195.55483 195.63112
  Beta  occ. eigenvalues --  -15.01189 -15.01184  -1.22440  -1.18885  -0.81086
  Beta  occ. eigenvalues --   -0.81086  -0.78768  -0.78768  -0.61347
  Beta virt. eigenvalues --   -0.29231  -0.15968  -0.10584  -0.08963  -0.08963
  Beta virt. eigenvalues --   -0.06561  -0.06561   0.02207   0.02207   0.02858
  Beta virt. eigenvalues --    0.03559   0.03559   0.08424   0.17917   0.18249
  Beta virt. eigenvalues --    0.18249   0.19692   0.19750   0.19750   0.23703
  Beta virt. eigenvalues --    0.23703   0.29609   0.40692   0.40692   0.41029
  Beta virt. eigenvalues --    0.50951   0.54924   0.54924   0.56312   0.56973
  Beta virt. eigenvalues --    0.56973   0.59712   0.60108   0.67276   0.67276
  Beta virt. eigenvalues --    0.69904   0.69904   0.74205   0.76512   0.76512
  Beta virt. eigenvalues --    0.79420   0.85209   0.85209   0.91438   0.91438
  Beta virt. eigenvalues --    0.93185   0.96029   1.03269   1.03755   1.04699
  Beta virt. eigenvalues --    1.04699   1.07592   1.07592   1.08246   1.08246
  Beta virt. eigenvalues --    1.13227   1.44159   1.44159   1.51524   1.51524
  Beta virt. eigenvalues --    1.56851   1.80196   1.82982   1.82982   1.84812
  Beta virt. eigenvalues --    1.86313   1.86313   1.91289   1.93093   1.96172
  Beta virt. eigenvalues --    2.00013   2.00013   2.02979   2.02979   2.08720
  Beta virt. eigenvalues --    2.08720   2.12080   2.17685   2.17685   2.20914
  Beta virt. eigenvalues --    2.20914   2.23215   2.24228   2.24228   2.31596
  Beta virt. eigenvalues --    2.31596   2.32056   2.35290   2.35290   2.38406
  Beta virt. eigenvalues --    2.42127   2.48819   2.51919   2.51919   2.62894
  Beta virt. eigenvalues --    2.62948   2.62948   2.64850   2.65043   2.65043
  Beta virt. eigenvalues --    2.66416   2.69086   2.69086   2.71373   2.79356
  Beta virt. eigenvalues --    2.79933   2.79933   2.92867   2.92867   2.95144
  Beta virt. eigenvalues --    2.96513   2.96513   3.00511   3.11057   3.11409
  Beta virt. eigenvalues --    3.11409   3.32984   3.32984   3.40953   3.45404
  Beta virt. eigenvalues --    3.45868   3.45868   3.53908   3.68850   3.68850
  Beta virt. eigenvalues --    3.74914   3.81383   3.81383   3.86184   4.02276
  Beta virt. eigenvalues --    4.02276   4.05534   4.05534   4.09480   4.27823
  Beta virt. eigenvalues --    4.52577   4.79246   4.79246   4.81844   4.88190
  Beta virt. eigenvalues --    4.88190   5.52793   5.54027   5.54027   5.54323
  Beta virt. eigenvalues --    5.54323   5.58166   5.58166   5.58496   5.58496
  Beta virt. eigenvalues --    5.58852   5.58974   5.68438   5.68438   5.78105
  Beta virt. eigenvalues --    5.78105   5.80486   5.96611   5.96620   6.06756
  Beta virt. eigenvalues --    6.24614   6.29336   6.29336   6.36368   6.36368
  Beta virt. eigenvalues --    6.48467   6.50800   6.50800   6.58687   6.62886
  Beta virt. eigenvalues --    6.62886   6.70550   6.71755   6.72884   6.72884
  Beta virt. eigenvalues --    6.73012   6.73012   6.86147   6.86147   6.88315
  Beta virt. eigenvalues --    6.88821   6.88821   6.96865   7.00495   7.00495
  Beta virt. eigenvalues --    7.01909   7.01909   7.17726   7.23869   7.29223
  Beta virt. eigenvalues --    7.29223   7.32369   7.32369   7.38220   7.38220
  Beta virt. eigenvalues --    7.40803   7.41141   7.41141   7.51029   7.52272
  Beta virt. eigenvalues --    7.54070   7.54070   7.55774   7.60167   7.65908
  Beta virt. eigenvalues --    7.65908   7.72516   7.72516   7.75743   7.75743
  Beta virt. eigenvalues --    7.75884   7.78151   7.82088   7.83825   7.91520
  Beta virt. eigenvalues --    7.94637   7.94637   7.96952   7.99441   7.99441
  Beta virt. eigenvalues --    8.06911   8.07910   8.11476   8.11476   8.11598
  Beta virt. eigenvalues --    8.19956   8.19956   8.32075   8.32098   8.32098
  Beta virt. eigenvalues --    8.41817   8.41817   8.45095   8.61375   8.64890
  Beta virt. eigenvalues --    8.64890   8.70743   8.70743   8.74579   8.74579
  Beta virt. eigenvalues --    9.00339   9.00339   9.16767   9.26339   9.26339
  Beta virt. eigenvalues --    9.32578   9.32578   9.34353   9.38796   9.45602
  Beta virt. eigenvalues --    9.50551   9.58684   9.58684   9.59733   9.59733
  Beta virt. eigenvalues --    9.72366   9.82857  10.70624  10.70624  10.76209
  Beta virt. eigenvalues --   10.77915  10.77915  10.78018  11.27335  11.28535
  Beta virt. eigenvalues --   11.28535  11.30773  11.32023  11.32023  11.34405
  Beta virt. eigenvalues --   11.35477  11.35477  11.36723  11.36723  11.41229
  Beta virt. eigenvalues --   13.93535  13.93535  13.95849  13.95849  14.78599
  Beta virt. eigenvalues --   14.79823  38.06798  38.12485 195.55705 195.63372
          Condensed to atoms (all electrons):
               1          2          3          4          5          6
     1  N    6.494135  -0.021793   0.349280   0.349280   0.349280  -0.003751
     2  N   -0.021793   6.494135  -0.003751  -0.003751  -0.003751   0.349280
     3  H    0.349280  -0.003751   0.340302  -0.010893  -0.010893  -0.000485
     4  H    0.349280  -0.003751  -0.010893   0.340302  -0.010893  -0.000485
     5  H    0.349280  -0.003751  -0.010893  -0.010893   0.340302   0.000616
     6  H   -0.003751   0.349280  -0.000485  -0.000485   0.000616   0.340302
     7  H   -0.003751   0.349280  -0.000485   0.000616  -0.000485  -0.010893
     8  H   -0.003751   0.349280   0.000616  -0.000485  -0.000485  -0.010893
               7          8
     1  N   -0.003751  -0.003751
     2  N    0.349280   0.349280
     3  H   -0.000485   0.000616
     4  H    0.000616  -0.000485
     5  H   -0.000485  -0.000485
     6  H   -0.010893  -0.010893
     7  H    0.340302  -0.010893
     8  H   -0.010893   0.340302
          Atomic-Atomic Spin Densities.
               1          2          3          4          5          6
     1  N    0.832855  -0.266001  -0.005779  -0.005779  -0.005779   0.007388
     2  N   -0.266001   0.832855   0.007388   0.007388   0.007388  -0.005779
     3  H   -0.005779   0.007388  -0.032361   0.003676   0.003676  -0.000198
     4  H   -0.005779   0.007388   0.003676  -0.032361   0.003676  -0.000198
     5  H   -0.005779   0.007388   0.003676   0.003676  -0.032361  -0.000100
     6  H    0.007388  -0.005779  -0.000198  -0.000198  -0.000100  -0.032361
     7  H    0.007388  -0.005779  -0.000198  -0.000100  -0.000198   0.003676
     8  H    0.007388  -0.005779  -0.000100  -0.000198  -0.000198   0.003676
               7          8
     1  N    0.007388   0.007388
     2  N   -0.005779  -0.005779
     3  H   -0.000198  -0.000100
     4  H   -0.000100  -0.000198
     5  H   -0.000198  -0.000198
     6  H    0.003676   0.003676
     7  H   -0.032361   0.003676
     8  H    0.003676  -0.032361
 Mulliken charges and spin densities:
               1          2
     1  N   -0.508928   0.571683
     2  N   -0.508928   0.571683
     3  H    0.336309  -0.023894
     4  H    0.336309  -0.023894
     5  H    0.336309  -0.023894
     6  H    0.336309  -0.023894
     7  H    0.336309  -0.023894
     8  H    0.336309  -0.023894
 Sum of Mulliken charges =   1.00000   1.00000
 Mulliken charges and spin densities with hydrogens summed into heavy atoms:
               1          2
     1  N    0.500000   0.500000
     2  N    0.500000   0.500000
 Electronic spatial extent (au):  <R**2>=            134.3482
 Charge=              1.0000 electrons
 Dipole moment (field-independent basis, Debye):
    X=              0.0000    Y=             -0.0000    Z=              0.0000  Tot=              0.0000
 Quadrupole moment (field-independent basis, Debye-Ang):
   XX=             -9.1121   YY=             -9.1121   ZZ=             -3.0452
   XY=             -0.0000   XZ=             -0.0000   YZ=              0.0000
 Traceless Quadrupole moment (field-independent basis, Debye-Ang):
   XX=             -2.0223   YY=             -2.0223   ZZ=              4.0446
   XY=             -0.0000   XZ=             -0.0000   YZ=              0.0000
 Octapole moment (field-independent basis, Debye-Ang**2):
  XXX=              0.0000  YYY=              0.0000  ZZZ=             -0.0000  XYY=              0.0000
  XXY=             -0.0000  XXZ=              0.0000  XZZ=              0.0000  YZZ=              0.0000
  YYZ=             -0.0000  XYZ=             -0.0000
 Hexadecapole moment (field-independent basis, Debye-Ang**3):
 XXXX=            -14.2734 YYYY=            -14.2734 ZZZZ=           -105.1339 XXXY=              0.0000
 XXXZ=             -0.0000 YYYX=             -0.0000 YYYZ=              3.9843 ZZZX=             -0.0000
 ZZZY=             -0.0000 XXYY=             -4.7578 XXZZ=            -14.1268 YYZZ=            -14.1268
 XXYZ=             -3.9843 YYXZ=              0.0000 ZZXY=             -0.0000
 N-N= 4.584939305954D+01 E-N=-3.501807293781D+02  KE= 1.123912768553D+02
                          Isotropic Fermi Contact Couplings
        Atom                 a.u.       MegaHertz       Gauss      10(-4) cm-1
     1  N(14)              0.44212     142.85193      50.97312      47.65028
     2  N(14)              0.44212     142.85193      50.97312      47.65028
     3  H(1)              -0.00827     -36.94808     -13.18399     -12.32455
     4  H(1)              -0.00827     -36.94808     -13.18399     -12.32455
     5  H(1)              -0.00827     -36.94808     -13.18399     -12.32455
     6  H(1)              -0.00827     -36.94808     -13.18399     -12.32455
     7  H(1)              -0.00827     -36.94808     -13.18399     -12.32455
     8  H(1)              -0.00827     -36.94808     -13.18399     -12.32455
 PrsmSu:  requested number of processors reduced to:  21 ShMem   1 Linda.
 --------------------------------------------------------
       Center         ----  Spin Dipole Couplings  ----
                      3XX-RR        3YY-RR        3ZZ-RR
 --------------------------------------------------------
     1   Atom       -0.662233     -0.662233      1.324465
     2   Atom       -0.662233     -0.662233      1.324465
     3   Atom       -0.060491      0.063277     -0.002786
     4   Atom        0.032335     -0.029549     -0.002786
     5   Atom        0.032335     -0.029549     -0.002786
     6   Atom        0.032335     -0.029549     -0.002786
     7   Atom        0.032335     -0.029549     -0.002786
     8   Atom       -0.060491      0.063277     -0.002786
 --------------------------------------------------------
                        XY            XZ            YZ
 --------------------------------------------------------
     1   Atom       -0.000000     -0.000000      0.000000
     2   Atom       -0.000000     -0.000000      0.000000
     3   Atom       -0.000000     -0.000000      0.032053
     4   Atom        0.053593     -0.027758     -0.016026
     5   Atom       -0.053593      0.027758     -0.016026
     6   Atom       -0.053593      0.027758     -0.016026
     7   Atom        0.053593     -0.027758     -0.016026
     8   Atom        0.000000      0.000000      0.032053
 --------------------------------------------------------


 ---------------------------------------------------------------------------------
              Anisotropic Spin Dipole Couplings in Principal Axis System
 ---------------------------------------------------------------------------------

       Atom             a.u.   MegaHertz   Gauss  10(-4) cm-1        Axes

              Baa    -0.6622   -25.541    -9.114    -8.520  0.9966  0.0819  0.0000
     1 N(14)  Bbb    -0.6622   -25.541    -9.114    -8.520 -0.0819  0.9966 -0.0000
              Bcc     1.3245    51.082    18.227    17.039 -0.0000  0.0000  1.0000
 
              Baa    -0.6622   -25.541    -9.114    -8.520  1.0000  0.0069  0.0000
     2 N(14)  Bbb    -0.6622   -25.541    -9.114    -8.520 -0.0069  1.0000 -0.0000
              Bcc     1.3245    51.082    18.227    17.039 -0.0000  0.0000  1.0000
 
              Baa    -0.0605   -32.275   -11.517   -10.766  1.0000  0.0000 -0.0000
     3 H(1)   Bbb    -0.0158    -8.420    -3.005    -2.809  0.0000 -0.3757  0.9267
              Bcc     0.0763    40.695    14.521    13.574 -0.0000  0.9267  0.3757
 
              Baa    -0.0605   -32.275   -11.517   -10.766 -0.5000  0.8660 -0.0000
     4 H(1)   Bbb    -0.0158    -8.420    -3.005    -2.809  0.3254  0.1879  0.9267
              Bcc     0.0763    40.695    14.521    13.574  0.8026  0.4634 -0.3757
 
              Baa    -0.0605   -32.275   -11.517   -10.766  0.5000  0.8660 -0.0000
     5 H(1)   Bbb    -0.0158    -8.420    -3.005    -2.809 -0.3254  0.1879  0.9267
              Bcc     0.0763    40.695    14.521    13.574  0.8026 -0.4634  0.3757
 
              Baa    -0.0605   -32.275   -11.517   -10.766  0.5000  0.8660 -0.0000
     6 H(1)   Bbb    -0.0158    -8.420    -3.005    -2.809 -0.3254  0.1879  0.9267
              Bcc     0.0763    40.695    14.521    13.574  0.8026 -0.4634  0.3757
 
              Baa    -0.0605   -32.275   -11.517   -10.766 -0.5000  0.8660 -0.0000
     7 H(1)   Bbb    -0.0158    -8.420    -3.005    -2.809  0.3254  0.1879  0.9267
              Bcc     0.0763    40.695    14.521    13.574  0.8026  0.4634 -0.3757
 
              Baa    -0.0605   -32.275   -11.517   -10.766  1.0000 -0.0000  0.0000
     8 H(1)   Bbb    -0.0158    -8.420    -3.005    -2.809 -0.0000 -0.3757  0.9267
              Bcc     0.0763    40.695    14.521    13.574  0.0000  0.9267  0.3757
 

 ---------------------------------------------------------------------------------

 PrsmSu:  requested number of processors reduced to:  21 ShMem   1 Linda.
 No NMR shielding tensors so no spin-rotation constants.
 Leave Link  601 at Sun Apr 18 03:11:12 2021, MaxMem=   104857600 cpu:             978.8 elap:              21.0
 (Enter /s/ls4/users/knvvv/bin/g16sse/l9999.exe)

 Test job not archived.
 1\1\GINC-N305\Stability\UM062X\def2QZVP\H6N2(1+,2)\KNVVV\18-Apr-2021\0
 \\#P M062X/Def2QZVP Integral=UltraFineGrid SCF=NoSymm Stable=(RExt, Op
 t) IOp(1/33=1)\\Database calculations.\\1,2\N,0,0.,0.,-1.08325539\N,0,
 0.,0.,1.08325539\H,0,0.84297303,0.48669071,-1.35892883\H,0,0.,-0.97338
 141,-1.35892883\H,0,-0.84297303,0.48669071,-1.35892883\H,0,0.84297303,
 -0.48669071,1.35892883\H,0,0.,0.97338141,1.35892883\H,0,-0.84297303,-0
 .48669071,1.35892883\\Version=ES64L-G16RevA.03\State=2-A2U\HF=-112.802
 0632\S2=0.756878\S2-1=0.\S2A=0.750028\RMSD=5.177e-09\Dipole=0.,0.,0.\Q
 uadrupole=-1.5035322,-1.5035322,3.0070644,0.,0.,0.\PG=D03D [C3(N1.N1),
 3SGD(H2)]\\@


 I (ERNEST RUTHERFORD) CAME INTO THE ROOM, WHICH WAS HALF DARK, AND PRESENTLY
 SPOTTED LORD KELVIN IN THE AUDIENCE AND REALIZED I WAS IN TROUBLE AT
 THE LAST PART OF MY SPEECH DEALING THE AGE OF THE EARTH, WHERE MY VIEWS
 CONFLICTED WITH HIS.  TO MY RELIEF KELVIN FELL FAST ASLEEP, BUT AS I CAME
 TO THE IMPORTANT POINT, I SAW THE OLD BIRD SIT UP AND COCK A BALEFUL GLANCE
 AT ME! THEN A SUDDEN INSPIRATION CAME AND I SAID LORD KELVIN HAD LIMITED
 THE AGE OF THE EARTH PROVIDED NO NEW SOURCE WAS DISCOVERED. THAT
 PROPHETIC UTTERANCE REFERS TO WHAT WE ARE NOW CONSIDERING TONIGHT, RADIUM!
 BEHOLD!  THE OLD BOY BEAMED UPON ME.
 Job cpu time:       0 days  5 hours 13 minutes 58.7 seconds.
 Elapsed time:       0 days  0 hours  8 minutes  3.8 seconds.
 File lengths (MBytes):  RWF=    168 Int=      0 D2E=      0 Chk=     11 Scr=      1
 Normal termination of Gaussian 16 at Sun Apr 18 03:11:12 2021.
