 Entering Gaussian System, Link 0=/s/ls4/users/knvvv/bin/g16sse/g16
 Input=data/database/M062X--def2-QZVPPD--230_propene_W4-11.gjf
 Output=data/database/M062X--def2-QZVPPD--230_propene_W4-11.log
 Initial command:
 /s/ls4/users/knvvv/bin/g16sse/l1.exe "/s/ls4/users/knvvv/bin/scratch/Gau-33182.inp" -scrdir="/s/ls4/users/knvvv/bin/scratch/"
 Entering Link 1 = /s/ls4/users/knvvv/bin/g16sse/l1.exe PID=     33183.
  
 Copyright (c) 1988,1990,1992,1993,1995,1998,2003,2009,2016,
            Gaussian, Inc.  All Rights Reserved.
  
 This is part of the Gaussian(R) 16 program.  It is based on
 the Gaussian(R) 09 system (copyright 2009, Gaussian, Inc.),
 the Gaussian(R) 03 system (copyright 2003, Gaussian, Inc.),
 the Gaussian(R) 98 system (copyright 1998, Gaussian, Inc.),
 the Gaussian(R) 94 system (copyright 1995, Gaussian, Inc.),
 the Gaussian 92(TM) system (copyright 1992, Gaussian, Inc.),
 the Gaussian 90(TM) system (copyright 1990, Gaussian, Inc.),
 the Gaussian 88(TM) system (copyright 1988, Gaussian, Inc.),
 the Gaussian 86(TM) system (copyright 1986, Carnegie Mellon
 University), and the Gaussian 82(TM) system (copyright 1983,
 Carnegie Mellon University). Gaussian is a federally registered
 trademark of Gaussian, Inc.
  
 This software contains proprietary and confidential information,
 including trade secrets, belonging to Gaussian, Inc.
  
 This software is provided under written license and may be
 used, copied, transmitted, or stored only in accord with that
 written license.
  
 The following legend is applicable only to US Government
 contracts under FAR:
  
                    RESTRICTED RIGHTS LEGEND
  
 Use, reproduction and disclosure by the US Government is
 subject to restrictions as set forth in subparagraphs (a)
 and (c) of the Commercial Computer Software - Restricted
 Rights clause in FAR 52.227-19.
  
 Gaussian, Inc.
 340 Quinnipiac St., Bldg. 40, Wallingford CT 06492
  
  
 ---------------------------------------------------------------
 Warning -- This program may not be used in any manner that
 competes with the business of Gaussian, Inc. or will provide
 assistance to any competitor of Gaussian, Inc.  The licensee
 of this program is prohibited from giving any competitor of
 Gaussian, Inc. access to this program.  By using this program,
 the user acknowledges that Gaussian, Inc. is engaged in the
 business of creating and licensing software in the field of
 computational chemistry and represents and warrants to the
 licensee that it is not a competitor of Gaussian, Inc. and that
 it will not use this program in any manner prohibited above.
 ---------------------------------------------------------------
  

 Cite this work as:
 Gaussian 16, Revision A.03,
 M. J. Frisch, G. W. Trucks, H. B. Schlegel, G. E. Scuseria, 
 M. A. Robb, J. R. Cheeseman, G. Scalmani, V. Barone, 
 G. A. Petersson, H. Nakatsuji, X. Li, M. Caricato, A. V. Marenich, 
 J. Bloino, B. G. Janesko, R. Gomperts, B. Mennucci, H. P. Hratchian, 
 J. V. Ortiz, A. F. Izmaylov, J. L. Sonnenberg, D. Williams-Young, 
 F. Ding, F. Lipparini, F. Egidi, J. Goings, B. Peng, A. Petrone, 
 T. Henderson, D. Ranasinghe, V. G. Zakrzewski, J. Gao, N. Rega, 
 G. Zheng, W. Liang, M. Hada, M. Ehara, K. Toyota, R. Fukuda, 
 J. Hasegawa, M. Ishida, T. Nakajima, Y. Honda, O. Kitao, H. Nakai, 
 T. Vreven, K. Throssell, J. A. Montgomery, Jr., J. E. Peralta, 
 F. Ogliaro, M. J. Bearpark, J. J. Heyd, E. N. Brothers, K. N. Kudin, 
 V. N. Staroverov, T. A. Keith, R. Kobayashi, J. Normand, 
 K. Raghavachari, A. P. Rendell, J. C. Burant, S. S. Iyengar, 
 J. Tomasi, M. Cossi, J. M. Millam, M. Klene, C. Adamo, R. Cammi, 
 J. W. Ochterski, R. L. Martin, K. Morokuma, O. Farkas, 
 J. B. Foresman, and D. J. Fox, Gaussian, Inc., Wallingford CT, 2016.
 
 ******************************************
 Gaussian 16:  ES64L-G16RevA.03 25-Dec-2016
                17-Apr-2021 
 ******************************************
 %RWF=temp23_50603,70GB
 %nprocshared=48
 Will use up to   48 processors via shared memory.
 Default route: MaxDisk=80GB
 ----------------------------------------------------------------------
 #P M062X/GEN Integral=UltraFineGrid SCF=NoSymm Stable=(RExt, Opt) IOp(
 1/33=1)
 ----------------------------------------------------------------------
 1/33=1,38=1,172=1/1;
 2/12=2,17=6,18=5,40=1/2;
 3/5=7,11=2,25=1,30=1,74=-55,75=-5/1,2,3;
 4/9=2/1;
 5/5=2,38=5/2;
 6/7=2,8=2,9=2,10=2,28=1/1;
 8/6=1,10=90,11=11/1;
 9/8=-3,42=1,46=1/14;
 5/5=2,8=3,17=40,38=5/8(-2);
 6/7=2,8=2,9=2,10=2,28=1/1;
 99/5=1,9=1/99;
 Leave Link    1 at Sat Apr 17 19:41:20 2021, MaxMem=           0 cpu:               8.5 elap:               0.2
 (Enter /s/ls4/users/knvvv/bin/g16sse/l101.exe)
 ONIOM data not found on unit 2.
 ----------------------
 Database calculations.
 ----------------------
 TstMul:  ICh=     0
 TstMul:  Mul=     1
 TstMul:  ICh=     0
 TstMul:  Mul=     1
 Symbolic Z-matrix:
 Charge =  0 Multiplicity = 1
 C                    -1.13564  -0.50324   0. 
 C                    -0.00508   0.48181   0. 
 C                     1.2878    0.14772   0. 
 H                     1.59837  -0.89083   0. 
 H                     2.06524   0.90012   0. 
 H                    -0.27497   1.53381   0. 
 H                    -0.76141  -1.52742   0. 
 H                    -1.77107  -0.36873   0.8782 
 H                    -1.77107  -0.36873  -0.8782 
 
 RdStrC is calling ZToCFu for IStruc=1 NZ=     9.
 PrtBox:  NBox=     1 Levels=  1 BoxLen=    8.00 SMaxX=        7.25
          Shift=            3.346832            2.886415            1.659563
 Box      1 Number                   0 centers from      1 to      9:
 After GenITR:
 ITRead=  0  0  0  0  0  0  0  0  0
 MicOpt= -1 -1 -1 -1 -1 -1 -1 -1 -1
 ITRead=  0  0  0  0  0  0  0  0  0
 MicOpt= -1 -1 -1 -1 -1 -1 -1 -1 -1
 NAtoms=      9 NQM=        9 NQMF=       0 NMMI=      0 NMMIF=      0
                NMic=       0 NMicF=      0.
                    Isotopes and Nuclear Properties:
 (Nuclear quadrupole moments (NQMom) in fm**2, nuclear magnetic moments (NMagM)
  in nuclear magnetons)

  Atom         1           2           3           4           5           6           7           8           9
 IAtWgt=          12          12          12           1           1           1           1           1           1
 AtmWgt=  12.0000000  12.0000000  12.0000000   1.0078250   1.0078250   1.0078250   1.0078250   1.0078250   1.0078250
 NucSpn=           0           0           0           1           1           1           1           1           1
 AtZEff=  -0.0000000  -0.0000000  -0.0000000  -0.0000000  -0.0000000  -0.0000000  -0.0000000  -0.0000000  -0.0000000
 NQMom=    0.0000000   0.0000000   0.0000000   0.0000000   0.0000000   0.0000000   0.0000000   0.0000000   0.0000000
 NMagM=    0.0000000   0.0000000   0.0000000   2.7928460   2.7928460   2.7928460   2.7928460   2.7928460   2.7928460
 AtZNuc=   6.0000000   6.0000000   6.0000000   1.0000000   1.0000000   1.0000000   1.0000000   1.0000000   1.0000000
 No MM parameters found.
 Leave Link  101 at Sat Apr 17 19:41:21 2021, MaxMem=   104857600 cpu:               6.8 elap:               0.2
 (Enter /s/ls4/users/knvvv/bin/g16sse/l202.exe)
                          Input orientation:                          
 ---------------------------------------------------------------------
 Center     Atomic      Atomic             Coordinates (Angstroms)
 Number     Number       Type             X           Y           Z
 ---------------------------------------------------------------------
      1          6           0       -1.135638   -0.503239    0.000000
      2          6           0       -0.005083    0.481805    0.000000
      3          6           0        1.287798    0.147715    0.000000
      4          1           0        1.598370   -0.890827    0.000000
      5          1           0        2.065243    0.900116    0.000000
      6          1           0       -0.274974    1.533807    0.000000
      7          1           0       -0.761409   -1.527425    0.000000
      8          1           0       -1.771067   -0.368729    0.878203
      9          1           0       -1.771067   -0.368729   -0.878203
 ---------------------------------------------------------------------
                    Distance matrix (angstroms):
                    1          2          3          4          5
     1  C    0.000000
     2  C    1.499488   0.000000
     3  C    2.509339   1.335350   0.000000
     4  H    2.761344   2.110730   1.083985   0.000000
     5  H    3.495003   2.112164   1.081909   1.850796   0.000000
     6  H    2.211402   1.086070   2.088901   3.064028   2.424496
     7  H    1.090415   2.146866   2.646761   2.444138   3.725978
     8  H    1.092293   2.147870   3.224068   3.520928   4.135031
     9  H    1.092293   2.147870   3.224068   3.520928   4.135031
                    6          7          8          9
     6  H    0.000000
     7  H    3.099639   0.000000
     8  H    2.574719   1.770092   0.000000
     9  H    2.574719   1.770092   1.756406   0.000000
 Stoichiometry    C3H6
 Framework group  CS[SG(C3H4),X(H2)]
 Deg. of freedom    14
 Full point group                 CS      NOp   2
 Largest Abelian subgroup         CS      NOp   2
 Largest concise Abelian subgroup CS      NOp   2
                         Standard orientation:                         
 ---------------------------------------------------------------------
 Center     Atomic      Atomic             Coordinates (Angstroms)
 Number     Number       Type             X           Y           Z
 ---------------------------------------------------------------------
      1          6           0       -1.138173   -0.495907    0.000000
      2          6           0        0.000000    0.480324    0.000000
      3          6           0        1.290247    0.136199    0.000000
      4          1           0        1.592741   -0.904724    0.000000
      5          1           0        2.073514    0.882538    0.000000
      6          1           0       -0.261709    1.534391    0.000000
      7          1           0       -0.771912   -1.522970    0.000000
      8          1           0       -1.772538   -0.356465    0.878203
      9          1           0       -1.772538   -0.356465   -0.878203
 ---------------------------------------------------------------------
 Rotational constants (GHZ):          46.5004220           9.3343146           8.1642812
 Leave Link  202 at Sat Apr 17 19:41:21 2021, MaxMem=   104857600 cpu:               6.9 elap:               0.2
 (Enter /s/ls4/users/knvvv/bin/g16sse/l301.exe)
 General basis read from cards:  (5D, 7F)
 Centers:       4      5      6      7      8      9
 S 4 1.00
     Exponent=  1.9069169000D+02 Coefficients=  7.0815167000D-04
     Exponent=  2.8605532000D+01 Coefficients=  5.4678827000D-03
     Exponent=  6.5095943000D+00 Coefficients=  2.7966605000D-02
     Exponent=  1.8412455000D+00 Coefficients=  1.0764538000D-01
 S 1 1.00
     Exponent=  5.9853725000D-01 Coefficients=  1.0000000000D+00
 S 1 1.00
     Exponent=  2.1397624000D-01 Coefficients=  1.0000000000D+00
 S 1 1.00
     Exponent=  8.0316286000D-02 Coefficients=  1.0000000000D+00
 P 1 1.00
     Exponent=  2.2920000000D+00 Coefficients=  1.0000000000D+00
 P 1 1.00
     Exponent=  8.3800000000D-01 Coefficients=  1.0000000000D+00
 P 1 1.00
     Exponent=  2.9200000000D-01 Coefficients=  1.0000000000D+00
 P 1 1.00
     Exponent=  8.4063199228D-02 Coefficients=  1.0000000000D+00
 D 1 1.00
     Exponent=  2.0620000000D+00 Coefficients=  1.0000000000D+00
 D 1 1.00
     Exponent=  6.6200000000D-01 Coefficients=  1.0000000000D+00
 F 1 1.00
     Exponent=  1.3970000000D+00 Coefficients=  1.0000000000D+00
 ****
 Centers:       1      2      3
 S 8 1.00
     Exponent=  6.7025071029D+04 Coefficients=  3.8736308501D-05
     Exponent=  1.0039986538D+04 Coefficients=  3.0107917575D-04
     Exponent=  2.2849316911D+03 Coefficients=  1.5787918095D-03
     Exponent=  6.4714122130D+02 Coefficients=  6.6087087195D-03
     Exponent=  2.1109472335D+02 Coefficients=  2.3367123250D-02
     Exponent=  7.6177643862D+01 Coefficients=  7.0420716898D-02
     Exponent=  2.9633839163D+01 Coefficients=  1.7360344953D-01
     Exponent=  1.2187785081D+01 Coefficients=  3.2292305648D-01
 S 2 1.00
     Exponent=  5.3026006299D+01 Coefficients=  7.4897404492D-02
     Exponent=  1.5258502776D+01 Coefficients=  7.6136220983D-01
 S 1 1.00
     Exponent=  5.2403957464D+00 Coefficients=  1.0000000000D+00
 S 1 1.00
     Exponent=  2.2905022379D+00 Coefficients=  1.0000000000D+00
 S 1 1.00
     Exponent=  6.9673283006D-01 Coefficients=  1.0000000000D+00
 S 1 1.00
     Exponent=  2.7599337363D-01 Coefficients=  1.0000000000D+00
 S 1 1.00
     Exponent=  1.0739884389D-01 Coefficients=  1.0000000000D+00
 S 1 1.00
     Exponent=  4.4981404899D-02 Coefficients=  1.0000000000D+00
 P 5 1.00
     Exponent=  1.0512555082D+02 Coefficients=  8.4647553844D-04
     Exponent=  2.4884461066D+01 Coefficients=  6.6274038534D-03
     Exponent=  7.8637230826D+00 Coefficients=  3.0120390419D-02
     Exponent=  2.8407001835D+00 Coefficients=  9.9951435476D-02
     Exponent=  1.1227137335D+00 Coefficients=  2.3826299282D-01
 P 1 1.00
     Exponent=  4.6050725555D-01 Coefficients=  1.0000000000D+00
 P 1 1.00
     Exponent=  1.8937530913D-01 Coefficients=  1.0000000000D+00
 P 1 1.00
     Exponent=  7.5983791611D-02 Coefficients=  1.0000000000D+00
 D 1 1.00
     Exponent=  1.8480000000D+00 Coefficients=  1.0000000000D+00
 D 1 1.00
     Exponent=  6.4900000000D-01 Coefficients=  1.0000000000D+00
 D 1 1.00
     Exponent=  2.2800000000D-01 Coefficients=  1.0000000000D+00
 D 1 1.00
     Exponent=  7.6889830417D-02 Coefficients=  1.0000000000D+00
 F 1 1.00
     Exponent=  1.4190000000D+00 Coefficients=  1.0000000000D+00
 F 1 1.00
     Exponent=  4.8500000000D-01 Coefficients=  1.0000000000D+00
 G 1 1.00
     Exponent=  1.0110000000D+00 Coefficients=  1.0000000000D+00
 ****
 Ernie: Thresh=  0.10000D-02 Tol=  0.10000D-05 Strict=F.
 There are   301 symmetry adapted cartesian basis functions of A'  symmetry.
 There are   164 symmetry adapted cartesian basis functions of A"  symmetry.
 There are   244 symmetry adapted basis functions of A'  symmetry.
 There are   143 symmetry adapted basis functions of A"  symmetry.
   387 basis functions,   543 primitive gaussians,   465 cartesian basis functions
    12 alpha electrons       12 beta electrons
       nuclear repulsion energy        70.7741882103 Hartrees.
 IExCor= 4336 DFT=T Ex+Corr=M062X ExCW=0 ScaHFX=  0.540000
 ScaDFX=  1.000000  1.000000  1.000000  1.000000 ScalE2=  1.000000  1.000000
 IRadAn=      5 IRanWt=     -1 IRanGd=            0 ICorTp=0 IEmpDi=  4
 NAtoms=    9 NActive=    9 NUniq=    8 SFac= 1.27D+00 NAtFMM=   60 NAOKFM=F Big=F
 Integral buffers will be    131072 words long.
 Raffenetti 2 integral format.
 Two-electron integral symmetry is turned on.
 Leave Link  301 at Sat Apr 17 19:41:21 2021, MaxMem=   104857600 cpu:               8.9 elap:               0.2
 (Enter /s/ls4/users/knvvv/bin/g16sse/l302.exe)
 NPDir=0 NMtPBC=     1 NCelOv=     1 NCel=       1 NClECP=     1 NCelD=      1
         NCelK=      1 NCelE2=     1 NClLst=     1 CellRange=     0.0.
 One-electron integrals computed using PRISM.
 One-electron integral symmetry used in STVInt
 PrsmSu:  requested number of processors reduced to:   4 ShMem   1 Linda.
 PrsmSu:  requested number of processors reduced to:  20 ShMem   1 Linda.
 NBasis=   387 RedAO= T EigKep=  1.09D-06  NBF=   244   143
 NBsUse=   384 1.00D-06 EigRej=  8.69D-07 NBFU=   242   142
 Precomputing XC quadrature grid using
 IXCGrd= 4 IRadAn=           5 IRanWt=          -1 IRanGd=           0 AccXCQ= 0.00D+00.
 Generated NRdTot=       0 NPtTot=           0 NUsed=           0 NTot=          32
 NSgBfM=   465   465   465   465   465 MxSgAt=     9 MxSgA2=     9.
 Leave Link  302 at Sat Apr 17 19:41:28 2021, MaxMem=   104857600 cpu:             340.0 elap:               7.3
 (Enter /s/ls4/users/knvvv/bin/g16sse/l303.exe)
 DipDrv:  MaxL=1.
 Leave Link  303 at Sat Apr 17 19:41:30 2021, MaxMem=   104857600 cpu:              89.5 elap:               1.9
 (Enter /s/ls4/users/knvvv/bin/g16sse/l401.exe)
 SCF N**3 symmetry information disabled.
 ExpMin= 4.50D-02 ExpMax= 6.70D+04 ExpMxC= 6.47D+02 IAcc=3 IRadAn=         5 AccDes= 0.00D+00
 Harris functional with IExCor= 1009 and IRadAn=       5 diagonalized for initial guess.
 HarFok:  IExCor= 1009 AccDes= 0.00D+00 IRadAn=         5 IDoV= 1 UseB2=F ITyADJ=14
 ICtDFT=  3500011 ScaDFX=  1.000000  1.000000  1.000000  1.000000
 FoFCou: FMM=F IPFlag=           0 FMFlag=      100000 FMFlg1=           0
         NFxFlg=           0 DoJE=T BraDBF=F KetDBF=T FulRan=T
         wScrn=  0.000000 ICntrl=       500 IOpCl=  0 I1Cent=   200000004 NGrid=           0
         NMat0=    1 NMatS0=      1 NMatT0=    0 NMatD0=    1 NMtDS0=    0 NMtDT0=    0
 Petite list used in FoFCou.
 CoulSu:  requested number of processors reduced to:  20 ShMem   1 Linda.
 CoulSu:  requested number of processors reduced to:  20 ShMem   1 Linda.
 CoulSu:  requested number of processors reduced to:  21 ShMem   1 Linda.
 CoulSu:  requested number of processors reduced to:  21 ShMem   1 Linda.
 Harris En= -117.905894261896    
 JPrj=0 DoOrth=F DoCkMO=F.
 Initial guess orbital symmetries:
       Occupied  (A') (A') (A') (A') (A') (A') (A') (A') (A") (A')
                 (A') (A")
       Virtual   (A") (A') (A') (A') (A') (A") (A') (A') (A") (A')
                 (A') (A") (A') (A') (A') (A') (A") (A") (A') (A')
                 (A") (A') (A") (A') (A') (A') (A") (A') (A") (A')
                 (A') (A") (A') (A") (A') (A') (A') (A') (A') (A")
                 (A') (A') (A") (A') (A") (A') (A") (A') (A") (A')
                 (A') (A") (A') (A') (A") (A") (A') (A') (A') (A')
                 (A") (A') (A') (A") (A') (A') (A') (A") (A") (A")
                 (A') (A') (A") (A') (A') (A') (A") (A') (A') (A")
                 (A') (A") (A') (A') (A") (A') (A") (A') (A') (A')
                 (A") (A') (A') (A") (A') (A') (A') (A") (A') (A')
                 (A') (A') (A") (A') (A') (A') (A') (A") (A') (A")
                 (A") (A') (A') (A") (A') (A") (A") (A') (A') (A")
                 (A') (A") (A') (A") (A') (A") (A') (A") (A') (A")
                 (A') (A') (A') (A") (A') (A") (A') (A") (A') (A')
                 (A") (A') (A") (A') (A") (A') (A") (A') (A") (A')
                 (A") (A') (A") (A') (A') (A') (A') (A") (A') (A')
                 (A') (A") (A") (A') (A") (A') (A') (A') (A") (A')
                 (A") (A') (A") (A') (A") (A') (A') (A") (A') (A')
                 (A") (A') (A") (A') (A') (A') (A") (A') (A") (A')
                 (A') (A') (A") (A') (A') (A") (A') (A') (A") (A')
                 (A') (A') (A') (A") (A') (A') (A") (A') (A") (A')
                 (A") (A') (A') (A") (A") (A") (A") (A') (A") (A')
                 (A") (A") (A') (A') (A') (A") (A") (A') (A") (A')
                 (A') (A") (A') (A") (A') (A') (A") (A') (A") (A')
                 (A") (A') (A') (A") (A") (A") (A') (A') (A") (A')
                 (A') (A") (A') (A') (A') (A") (A') (A") (A') (A')
                 (A") (A') (A') (A") (A") (A') (A') (A") (A") (A')
                 (A') (A') (A') (A") (A') (A') (A") (A') (A") (A")
                 (A') (A') (A") (A') (A') (A") (A") (A') (A") (A')
                 (A") (A') (A") (A') (A') (A") (A') (A') (A") (A')
                 (A') (A') (A") (A") (A') (A') (A') (A") (A') (A")
                 (A') (A') (A') (A") (A") (A') (A') (A") (A') (A")
                 (A') (A') (A') (A") (A") (A") (A') (A") (A') (A")
                 (A') (A") (A') (A') (A") (A') (A") (A') (A') (A')
                 (A') (A') (A") (A') (A") (A') (A") (A") (A') (A')
                 (A') (A") (A') (A') (A") (A') (A") (A') (A') (A')
                 (A') (A") (A') (A') (A') (A') (A') (A') (A') (A')
                 (A') (A')
 The electronic state of the initial guess is 1-A'.
 Leave Link  401 at Sat Apr 17 19:41:31 2021, MaxMem=   104857600 cpu:              48.7 elap:               1.2
 (Enter /s/ls4/users/knvvv/bin/g16sse/l502.exe)
 Integral symmetry usage will be decided dynamically.
 Closed shell SCF:
 Using DIIS extrapolation, IDIIS=  1040.
 NGot=   104857600 LenX=   104398104 LenY=   104181414
 Requested convergence on RMS density matrix=1.00D-08 within 128 cycles.
 Requested convergence on MAX density matrix=1.00D-06.
 Requested convergence on             energy=1.00D-06.
 No special actions if energy rises.
 Fock matrices will be formed incrementally for  20 cycles.

 Cycle   1  Pass 1  IDiag  1:
 FoFJK:  IHMeth= 1 ICntrl=       0 DoSepK=F KAlg= 0 I1Cent=           0 FoldK=F
 IRaf= 980000000 NMat=       1 IRICut=       1 DoRegI=T DoRafI=F ISym2E= 1 IDoP0=0 IntGTp=1.
 FoFCou: FMM=F IPFlag=           0 FMFlag=      100000 FMFlg1=           0
         NFxFlg=           0 DoJE=F BraDBF=F KetDBF=F FulRan=T
         wScrn=  0.000000 ICntrl=         0 IOpCl=  0 I1Cent=           0 NGrid=           0
         NMat0=    1 NMatS0=      1 NMatT0=    0 NMatD0=    1 NMtDS0=    0 NMtDT0=    0
 Petite list used in FoFCou.
 CoulSu:  requested number of processors reduced to:  20 ShMem   1 Linda.
 E= -117.745845758985    
 DIIS: error= 3.22D-02 at cycle   1 NSaved=   1.
 NSaved= 1 IEnMin= 1 EnMin= -117.745845758985     IErMin= 1 ErrMin= 3.22D-02
 ErrMax= 3.22D-02  0.00D+00 EMaxC= 1.00D-01 BMatC= 2.02D-01 BMatP= 2.02D-01
 IDIUse=3 WtCom= 6.78D-01 WtEn= 3.22D-01
 Coeff-Com:  0.100D+01
 Coeff-En:   0.100D+01
 Coeff:      0.100D+01
 Gap=     0.365 Goal=   None    Shift=    0.000
 GapD=    0.365 DampG=1.000 DampE=0.500 DampFc=0.5000 IDamp=-1.
 Damping current iteration by 5.00D-01
 RMSDP=1.99D-03 MaxDP=9.99D-02              OVMax= 1.77D-01

 Cycle   2  Pass 1  IDiag  1:
 RMSU=  8.09D-04    CP:  8.65D-01
 CoulSu:  requested number of processors reduced to:  20 ShMem   1 Linda.
 E= -117.824683272550     Delta-E=       -0.078837513565 Rises=F Damp=T
 DIIS: error= 9.16D-03 at cycle   2 NSaved=   2.
 NSaved= 2 IEnMin= 2 EnMin= -117.824683272550     IErMin= 2 ErrMin= 9.16D-03
 ErrMax= 9.16D-03  0.00D+00 EMaxC= 1.00D-01 BMatC= 1.88D-02 BMatP= 2.02D-01
 IDIUse=3 WtCom= 9.08D-01 WtEn= 9.16D-02
 Coeff-Com: -0.192D+00 0.119D+01
 Coeff-En:   0.000D+00 0.100D+01
 Coeff:     -0.174D+00 0.117D+01
 Gap=     0.337 Goal=   None    Shift=    0.000
 RMSDP=2.03D-03 MaxDP=9.82D-02 DE=-7.88D-02 OVMax= 8.85D-02

 Cycle   3  Pass 1  IDiag  1:
 RMSU=  1.77D-03    CP:  7.59D-01  2.08D+00
 CoulSu:  requested number of processors reduced to:  20 ShMem   1 Linda.
 E= -117.895569426063     Delta-E=       -0.070886153513 Rises=F Damp=F
 DIIS: error= 3.46D-03 at cycle   3 NSaved=   3.
 NSaved= 3 IEnMin= 3 EnMin= -117.895569426063     IErMin= 3 ErrMin= 3.46D-03
 ErrMax= 3.46D-03  0.00D+00 EMaxC= 1.00D-01 BMatC= 1.22D-03 BMatP= 1.88D-02
 IDIUse=3 WtCom= 9.65D-01 WtEn= 3.46D-02
 Coeff-Com: -0.854D-01 0.215D+00 0.870D+00
 Coeff-En:   0.000D+00 0.000D+00 0.100D+01
 Coeff:     -0.824D-01 0.208D+00 0.875D+00
 Gap=     0.328 Goal=   None    Shift=    0.000
 RMSDP=2.04D-04 MaxDP=1.61D-02 DE=-7.09D-02 OVMax= 1.18D-02

 Cycle   4  Pass 1  IDiag  1:
 RMSU=  1.79D-04    CP:  7.47D-01  2.13D+00  9.60D-01
 CoulSu:  requested number of processors reduced to:  20 ShMem   1 Linda.
 E= -117.896656887816     Delta-E=       -0.001087461753 Rises=F Damp=F
 DIIS: error= 1.20D-03 at cycle   4 NSaved=   4.
 NSaved= 4 IEnMin= 4 EnMin= -117.896656887816     IErMin= 4 ErrMin= 1.20D-03
 ErrMax= 1.20D-03  0.00D+00 EMaxC= 1.00D-01 BMatC= 1.62D-04 BMatP= 1.22D-03
 IDIUse=3 WtCom= 9.88D-01 WtEn= 1.20D-02
 Coeff-Com: -0.297D-01 0.693D-01 0.367D+00 0.593D+00
 Coeff-En:   0.000D+00 0.000D+00 0.000D+00 0.100D+01
 Coeff:     -0.294D-01 0.684D-01 0.363D+00 0.598D+00
 Gap=     0.329 Goal=   None    Shift=    0.000
 RMSDP=4.42D-05 MaxDP=3.61D-03 DE=-1.09D-03 OVMax= 7.43D-03

 Cycle   5  Pass 1  IDiag  1:
 RMSU=  3.70D-05    CP:  7.47D-01  2.13D+00  9.47D-01  1.02D+00
 CoulSu:  requested number of processors reduced to:  20 ShMem   1 Linda.
 E= -117.896790611796     Delta-E=       -0.000133723980 Rises=F Damp=F
 DIIS: error= 2.96D-04 at cycle   5 NSaved=   5.
 NSaved= 5 IEnMin= 5 EnMin= -117.896790611796     IErMin= 5 ErrMin= 2.96D-04
 ErrMax= 2.96D-04  0.00D+00 EMaxC= 1.00D-01 BMatC= 2.10D-05 BMatP= 1.62D-04
 IDIUse=3 WtCom= 9.97D-01 WtEn= 2.96D-03
 Coeff-Com: -0.270D-02 0.626D-02 0.687D-01 0.288D+00 0.640D+00
 Coeff-En:   0.000D+00 0.000D+00 0.000D+00 0.404D-01 0.960D+00
 Coeff:     -0.269D-02 0.624D-02 0.685D-01 0.287D+00 0.640D+00
 Gap=     0.329 Goal=   None    Shift=    0.000
 RMSDP=1.86D-05 MaxDP=1.62D-03 DE=-1.34D-04 OVMax= 2.25D-03

 Cycle   6  Pass 1  IDiag  1:
 RMSU=  1.05D-05    CP:  7.47D-01  2.13D+00  9.41D-01  1.08D+00  1.15D+00
 CoulSu:  requested number of processors reduced to:  20 ShMem   1 Linda.
 E= -117.896810020943     Delta-E=       -0.000019409148 Rises=F Damp=F
 DIIS: error= 6.00D-05 at cycle   6 NSaved=   6.
 NSaved= 6 IEnMin= 6 EnMin= -117.896810020943     IErMin= 6 ErrMin= 6.00D-05
 ErrMax= 6.00D-05  0.00D+00 EMaxC= 1.00D-01 BMatC= 4.42D-07 BMatP= 2.10D-05
 IDIUse=1 WtCom= 1.00D+00 WtEn= 0.00D+00
 Coeff-Com:  0.224D-02-0.490D-02-0.144D-01 0.230D-01 0.148D+00 0.846D+00
 Coeff:      0.224D-02-0.490D-02-0.144D-01 0.230D-01 0.148D+00 0.846D+00
 Gap=     0.329 Goal=   None    Shift=    0.000
 RMSDP=5.58D-06 MaxDP=4.33D-04 DE=-1.94D-05 OVMax= 2.95D-04

 Cycle   7  Pass 1  IDiag  1:
 RMSU=  3.12D-06    CP:  7.47D-01  2.13D+00  9.41D-01  1.10D+00  1.23D+00
                    CP:  1.11D+00
 CoulSu:  requested number of processors reduced to:  20 ShMem   1 Linda.
 E= -117.896810444166     Delta-E=       -0.000000423223 Rises=F Damp=F
 DIIS: error= 1.74D-05 at cycle   7 NSaved=   7.
 NSaved= 7 IEnMin= 7 EnMin= -117.896810444166     IErMin= 7 ErrMin= 1.74D-05
 ErrMax= 1.74D-05  0.00D+00 EMaxC= 1.00D-01 BMatC= 4.05D-08 BMatP= 4.42D-07
 IDIUse=1 WtCom= 1.00D+00 WtEn= 0.00D+00
 Coeff-Com:  0.812D-03-0.184D-02-0.723D-02-0.329D-02 0.199D-01 0.288D+00
 Coeff-Com:  0.704D+00
 Coeff:      0.812D-03-0.184D-02-0.723D-02-0.329D-02 0.199D-01 0.288D+00
 Coeff:      0.704D+00
 Gap=     0.329 Goal=   None    Shift=    0.000
 RMSDP=1.54D-06 MaxDP=1.04D-04 DE=-4.23D-07 OVMax= 5.38D-05

 Cycle   8  Pass 1  IDiag  1:
 RMSU=  8.36D-07    CP:  7.47D-01  2.13D+00  9.42D-01  1.10D+00  1.23D+00
                    CP:  1.13D+00  1.11D+00
 CoulSu:  requested number of processors reduced to:  20 ShMem   1 Linda.
 E= -117.896810481215     Delta-E=       -0.000000037049 Rises=F Damp=F
 DIIS: error= 3.72D-06 at cycle   8 NSaved=   8.
 NSaved= 8 IEnMin= 8 EnMin= -117.896810481215     IErMin= 8 ErrMin= 3.72D-06
 ErrMax= 3.72D-06  0.00D+00 EMaxC= 1.00D-01 BMatC= 2.57D-09 BMatP= 4.05D-08
 IDIUse=1 WtCom= 1.00D+00 WtEn= 0.00D+00
 Coeff-Com: -0.413D-04 0.338D-04-0.182D-03-0.227D-02-0.942D-02-0.108D-01
 Coeff-Com:  0.172D+00 0.851D+00
 Coeff:     -0.413D-04 0.338D-04-0.182D-03-0.227D-02-0.942D-02-0.108D-01
 Coeff:      0.172D+00 0.851D+00
 Gap=     0.329 Goal=   None    Shift=    0.000
 RMSDP=7.02D-07 MaxDP=4.53D-05 DE=-3.70D-08 OVMax= 1.52D-05

 Cycle   9  Pass 1  IDiag  1:
 RMSU=  2.56D-07    CP:  7.47D-01  2.13D+00  9.42D-01  1.10D+00  1.23D+00
                    CP:  1.13D+00  1.24D+00  1.31D+00
 CoulSu:  requested number of processors reduced to:  20 ShMem   1 Linda.
 E= -117.896810483862     Delta-E=       -0.000000002647 Rises=F Damp=F
 DIIS: error= 8.53D-07 at cycle   9 NSaved=   9.
 NSaved= 9 IEnMin= 9 EnMin= -117.896810483862     IErMin= 9 ErrMin= 8.53D-07
 ErrMax= 8.53D-07  0.00D+00 EMaxC= 1.00D-01 BMatC= 7.68D-11 BMatP= 2.57D-09
 IDIUse=1 WtCom= 1.00D+00 WtEn= 0.00D+00
 Coeff-Com: -0.484D-04 0.101D-03 0.297D-03-0.217D-03-0.275D-02-0.164D-01
 Coeff-Com: -0.116D-01 0.144D+00 0.887D+00
 Coeff:     -0.484D-04 0.101D-03 0.297D-03-0.217D-03-0.275D-02-0.164D-01
 Coeff:     -0.116D-01 0.144D+00 0.887D+00
 Gap=     0.329 Goal=   None    Shift=    0.000
 RMSDP=1.06D-07 MaxDP=4.77D-06 DE=-2.65D-09 OVMax= 3.43D-06

 Cycle  10  Pass 1  IDiag  1:
 RMSU=  6.79D-08    CP:  7.47D-01  2.13D+00  9.42D-01  1.11D+00  1.23D+00
                    CP:  1.14D+00  1.26D+00  1.34D+00  1.09D+00
 CoulSu:  requested number of processors reduced to:  20 ShMem   1 Linda.
 E= -117.896810483954     Delta-E=       -0.000000000091 Rises=F Damp=F
 DIIS: error= 1.09D-07 at cycle  10 NSaved=  10.
 NSaved=10 IEnMin=10 EnMin= -117.896810483954     IErMin=10 ErrMin= 1.09D-07
 ErrMax= 1.09D-07  0.00D+00 EMaxC= 1.00D-01 BMatC= 2.31D-12 BMatP= 7.68D-11
 IDIUse=1 WtCom= 1.00D+00 WtEn= 0.00D+00
 Coeff-Com: -0.135D-05 0.538D-05 0.232D-05-0.274D-04-0.335D-03-0.910D-03
 Coeff-Com: -0.224D-02-0.361D-02 0.697D-01 0.937D+00
 Coeff:     -0.135D-05 0.538D-05 0.232D-05-0.274D-04-0.335D-03-0.910D-03
 Coeff:     -0.224D-02-0.361D-02 0.697D-01 0.937D+00
 Gap=     0.329 Goal=   None    Shift=    0.000
 RMSDP=3.00D-08 MaxDP=2.17D-06 DE=-9.15D-11 OVMax= 5.30D-07

 Cycle  11  Pass 1  IDiag  1:
 RMSU=  9.19D-09    CP:  7.47D-01  2.13D+00  9.42D-01  1.11D+00  1.23D+00
                    CP:  1.14D+00  1.26D+00  1.34D+00  1.09D+00  1.19D+00
 CoulSu:  requested number of processors reduced to:  20 ShMem   1 Linda.
 E= -117.896810483961     Delta-E=       -0.000000000007 Rises=F Damp=F
 DIIS: error= 1.93D-08 at cycle  11 NSaved=  11.
 NSaved=11 IEnMin=11 EnMin= -117.896810483961     IErMin=11 ErrMin= 1.93D-08
 ErrMax= 1.93D-08  0.00D+00 EMaxC= 1.00D-01 BMatC= 1.19D-13 BMatP= 2.31D-12
 IDIUse=1 WtCom= 1.00D+00 WtEn= 0.00D+00
 Coeff-Com:  0.137D-05-0.268D-05-0.731D-05 0.104D-04 0.267D-04 0.492D-03
 Coeff-Com:  0.411D-03-0.449D-02-0.282D-01 0.795D-03 0.103D+01
 Coeff:      0.137D-05-0.268D-05-0.731D-05 0.104D-04 0.267D-04 0.492D-03
 Coeff:      0.411D-03-0.449D-02-0.282D-01 0.795D-03 0.103D+01
 Gap=     0.329 Goal=   None    Shift=    0.000
 RMSDP=3.91D-09 MaxDP=2.58D-07 DE=-6.74D-12 OVMax= 1.28D-07

 SCF Done:  E(RM062X) =  -117.896810484     A.U. after   11 cycles
            NFock= 11  Conv=0.39D-08     -V/T= 2.0051
 KE= 1.173035244112D+02 PE=-4.142007958451D+02 EE= 1.082262727396D+02
 Leave Link  502 at Sat Apr 17 19:42:46 2021, MaxMem=   104857600 cpu:            2291.0 elap:              74.1
 (Enter /s/ls4/users/knvvv/bin/g16sse/l601.exe)
 Copying SCF densities to generalized density rwf, IOpCl= 0 IROHF=0.

 **********************************************************************

            Population analysis using the SCF density.

 **********************************************************************

 Orbital symmetries:
       Occupied  (A') (A') (A') (A') (A') (A') (A') (A') (A") (A')
                 (A') (A")
       Virtual   (A') (A') (A') (A") (A") (A') (A') (A') (A") (A')
                 (A') (A") (A') (A') (A") (A') (A') (A") (A') (A")
                 (A') (A') (A') (A") (A') (A") (A') (A') (A") (A')
                 (A") (A') (A") (A') (A') (A') (A') (A") (A') (A')
                 (A") (A") (A') (A') (A") (A') (A') (A") (A') (A')
                 (A") (A') (A') (A') (A') (A') (A") (A') (A") (A')
                 (A') (A") (A') (A') (A") (A') (A') (A") (A") (A")
                 (A') (A') (A") (A') (A') (A') (A") (A') (A") (A')
                 (A') (A") (A') (A') (A") (A') (A') (A") (A') (A')
                 (A") (A') (A') (A") (A') (A') (A') (A") (A') (A')
                 (A') (A') (A') (A") (A') (A') (A') (A') (A") (A")
                 (A') (A") (A") (A') (A") (A') (A") (A') (A') (A")
                 (A') (A") (A') (A") (A') (A") (A") (A') (A') (A")
                 (A') (A') (A") (A') (A') (A") (A') (A") (A') (A')
                 (A") (A') (A") (A') (A") (A') (A") (A') (A") (A')
                 (A") (A') (A') (A") (A') (A') (A") (A') (A') (A')
                 (A") (A") (A') (A') (A") (A') (A') (A') (A") (A')
                 (A") (A') (A") (A') (A') (A") (A') (A') (A") (A')
                 (A") (A') (A') (A") (A') (A') (A") (A') (A') (A")
                 (A') (A") (A') (A') (A') (A") (A') (A') (A") (A')
                 (A') (A') (A') (A") (A') (A') (A") (A') (A") (A')
                 (A") (A') (A') (A") (A") (A") (A") (A') (A") (A')
                 (A") (A") (A') (A') (A") (A') (A") (A') (A') (A")
                 (A") (A') (A") (A') (A") (A') (A') (A") (A') (A')
                 (A") (A') (A") (A') (A") (A") (A') (A') (A') (A")
                 (A') (A") (A') (A') (A') (A") (A') (A") (A') (A')
                 (A') (A") (A') (A") (A") (A') (A') (A") (A") (A')
                 (A') (A") (A') (A') (A') (A') (A") (A') (A") (A")
                 (A') (A") (A') (A") (A') (A") (A') (A') (A") (A")
                 (A') (A') (A") (A') (A') (A") (A") (A') (A') (A")
                 (A') (A') (A") (A') (A') (A') (A") (A') (A") (A')
                 (A') (A') (A") (A") (A') (A') (A") (A') (A') (A")
                 (A') (A') (A') (A") (A') (A") (A") (A") (A') (A")
                 (A') (A") (A') (A") (A') (A') (A") (A') (A') (A')
                 (A') (A") (A') (A') (A") (A") (A') (A") (A') (A')
                 (A") (A') (A') (A') (A") (A') (A") (A') (A') (A')
                 (A') (A") (A') (A') (A') (A') (A') (A') (A') (A')
                 (A') (A')
 The electronic state is 1-A'.
 Alpha  occ. eigenvalues --  -10.54588 -10.53434 -10.53019  -0.88600  -0.77623
 Alpha  occ. eigenvalues --   -0.63431  -0.53845  -0.48649  -0.48079  -0.43346
 Alpha  occ. eigenvalues --   -0.40717  -0.31577
 Alpha virt. eigenvalues --    0.01350   0.03237   0.03536   0.04207   0.08354
 Alpha virt. eigenvalues --    0.08709   0.10322   0.11024   0.13345   0.13868
 Alpha virt. eigenvalues --    0.14425   0.15497   0.16714   0.18449   0.19812
 Alpha virt. eigenvalues --    0.20136   0.21067   0.21613   0.21888   0.22581
 Alpha virt. eigenvalues --    0.23688   0.24287   0.26783   0.26954   0.28058
 Alpha virt. eigenvalues --    0.28439   0.28987   0.30242   0.30428   0.31123
 Alpha virt. eigenvalues --    0.31266   0.33398   0.34036   0.34189   0.35863
 Alpha virt. eigenvalues --    0.36544   0.36828   0.37988   0.38612   0.38799
 Alpha virt. eigenvalues --    0.39803   0.40191   0.41379   0.42345   0.42679
 Alpha virt. eigenvalues --    0.42838   0.44075   0.47603   0.47620   0.50110
 Alpha virt. eigenvalues --    0.51780   0.52136   0.52707   0.55842   0.57803
 Alpha virt. eigenvalues --    0.58539   0.60036   0.61400   0.61586   0.64487
 Alpha virt. eigenvalues --    0.66980   0.69073   0.69741   0.73257   0.75123
 Alpha virt. eigenvalues --    0.78853   0.81470   0.83340   0.86341   0.86618
 Alpha virt. eigenvalues --    0.86826   0.90098   0.91241   0.92257   0.92666
 Alpha virt. eigenvalues --    0.93988   0.94204   0.95685   0.96169   0.96666
 Alpha virt. eigenvalues --    0.99633   1.01684   1.01990   1.04191   1.07324
 Alpha virt. eigenvalues --    1.12174   1.12984   1.13036   1.14800   1.20622
 Alpha virt. eigenvalues --    1.21474   1.22836   1.22960   1.26029   1.26829
 Alpha virt. eigenvalues --    1.30919   1.35151   1.38995   1.40322   1.41555
 Alpha virt. eigenvalues --    1.44091   1.46108   1.49387   1.50522   1.54728
 Alpha virt. eigenvalues --    1.63145   1.69968   1.74590   1.78448   1.81919
 Alpha virt. eigenvalues --    1.86504   1.86871   1.90609   1.90906   1.93852
 Alpha virt. eigenvalues --    1.95196   1.98713   2.00577   2.02553   2.03006
 Alpha virt. eigenvalues --    2.04777   2.05743   2.06443   2.08743   2.10237
 Alpha virt. eigenvalues --    2.13098   2.14124   2.15392   2.19028   2.20296
 Alpha virt. eigenvalues --    2.21692   2.22350   2.23700   2.25011   2.26204
 Alpha virt. eigenvalues --    2.26376   2.28685   2.32647   2.38870   2.40477
 Alpha virt. eigenvalues --    2.44386   2.47579   2.52440   2.54231   2.56049
 Alpha virt. eigenvalues --    2.57163   2.59540   2.59698   2.62289   2.63008
 Alpha virt. eigenvalues --    2.65569   2.68406   2.70673   2.72197   2.73250
 Alpha virt. eigenvalues --    2.77098   2.80612   2.80629   2.83847   2.84981
 Alpha virt. eigenvalues --    2.86655   2.89277   2.89464   2.92317   2.95902
 Alpha virt. eigenvalues --    2.97205   3.02941   3.05182   3.09154   3.11414
 Alpha virt. eigenvalues --    3.14679   3.16238   3.21451   3.24204   3.28723
 Alpha virt. eigenvalues --    3.29544   3.32897   3.35184   3.36055   3.39938
 Alpha virt. eigenvalues --    3.47957   3.48436   3.50714   3.51707   3.53969
 Alpha virt. eigenvalues --    3.58385   3.70821   3.76451   3.76835   3.79469
 Alpha virt. eigenvalues --    3.82777   3.89555   3.89668   3.93712   3.97564
 Alpha virt. eigenvalues --    3.99799   4.04247   4.18449   4.24303   4.32388
 Alpha virt. eigenvalues --    4.37775   4.43434   4.64706   4.86218   4.88461
 Alpha virt. eigenvalues --    4.98798   4.99869   5.01703   5.02423   5.11548
 Alpha virt. eigenvalues --    5.23714   5.27215   5.30438   5.33507   5.36711
 Alpha virt. eigenvalues --    5.41502   5.45571   5.47015   5.47515   5.51083
 Alpha virt. eigenvalues --    5.54907   5.60520   5.62776   5.68951   5.70332
 Alpha virt. eigenvalues --    5.72763   5.76901   5.77276   5.79572   5.79950
 Alpha virt. eigenvalues --    5.81551   5.83544   5.87571   5.87669   5.89478
 Alpha virt. eigenvalues --    5.93344   5.94540   5.99638   6.01851   6.02547
 Alpha virt. eigenvalues --    6.03078   6.05936   6.06418   6.10415   6.11599
 Alpha virt. eigenvalues --    6.16357   6.17248   6.19662   6.24048   6.26208
 Alpha virt. eigenvalues --    6.28279   6.31569   6.32263   6.35819   6.37502
 Alpha virt. eigenvalues --    6.39746   6.44117   6.45274   6.45864   6.52842
 Alpha virt. eigenvalues --    6.58518   6.60025   6.66912   6.70855   6.71687
 Alpha virt. eigenvalues --    6.73173   6.77590   6.79668   6.84898   6.89180
 Alpha virt. eigenvalues --    6.92070   6.98099   6.98812   7.05252   7.16093
 Alpha virt. eigenvalues --    7.17842   7.18101   7.25690   7.26401   7.29132
 Alpha virt. eigenvalues --    7.29633   7.35429   7.35953   7.38707   7.39673
 Alpha virt. eigenvalues --    7.41563   7.42711   7.46259   7.46830   7.51371
 Alpha virt. eigenvalues --    7.52116   7.55506   7.56920   7.58756   7.59230
 Alpha virt. eigenvalues --    7.60041   7.72525   7.72621   7.73930   7.80812
 Alpha virt. eigenvalues --    7.82078   7.84317   7.86063   7.88785   7.90947
 Alpha virt. eigenvalues --    7.94373   7.98784   8.00371   8.03848   8.05095
 Alpha virt. eigenvalues --    8.08331   8.15339   8.15544   8.16903   8.22569
 Alpha virt. eigenvalues --    8.25011   8.26483   8.27161   8.27758   8.29199
 Alpha virt. eigenvalues --    8.29784   8.34390   8.36674   8.40658   8.42841
 Alpha virt. eigenvalues --    8.42846   8.47213   8.54094   8.59370   8.61957
 Alpha virt. eigenvalues --    8.65901   8.73367   8.77079   8.81125   8.81671
 Alpha virt. eigenvalues --    8.96066   8.98819   9.00317   9.12948   9.31260
 Alpha virt. eigenvalues --    9.49491   9.52909   9.53756   9.57691   9.58543
 Alpha virt. eigenvalues --    9.63846   9.65148   9.68544   9.72315   9.78448
 Alpha virt. eigenvalues --    9.86792   9.87735   9.99215  10.02097  10.02455
 Alpha virt. eigenvalues --   10.15257  10.26138  10.46152  10.64649  10.97789
 Alpha virt. eigenvalues --   11.68313  11.77469  11.97468  12.66850  12.90083
 Alpha virt. eigenvalues --   13.16542  28.47716  29.07192  29.25113 145.94200
 Alpha virt. eigenvalues --  146.56965 146.73864
          Condensed to atoms (all electrons):
               1          2          3          4          5          6
     1  C    5.652181   0.034664  -0.011491  -0.129319   0.054047  -0.258913
     2  C    0.034664   5.427363   0.345829   0.053999  -0.029555   0.430125
     3  C   -0.011491   0.345829   5.675291   0.336900   0.280473   0.011915
     4  H   -0.129319   0.053999   0.336900   0.778418  -0.216950   0.048456
     5  H    0.054047  -0.029555   0.280473  -0.216950   0.659213  -0.053045
     6  H   -0.258913   0.430125   0.011915   0.048456  -0.053045   0.584975
     7  H    0.373735  -0.055891  -0.003760  -0.017691   0.004554  -0.003405
     8  H    0.487903  -0.119712  -0.002390  -0.011587   0.004613  -0.040456
     9  H    0.487903  -0.119712  -0.002390  -0.011587   0.004613  -0.040456
               7          8          9
     1  C    0.373735   0.487903   0.487903
     2  C   -0.055891  -0.119712  -0.119712
     3  C   -0.003760  -0.002390  -0.002390
     4  H   -0.017691  -0.011587  -0.011587
     5  H    0.004554   0.004613   0.004613
     6  H   -0.003405  -0.040456  -0.040456
     7  H    0.484096  -0.000408  -0.000408
     8  H   -0.000408   0.512302   0.026325
     9  H   -0.000408   0.026325   0.512302
 Mulliken charges:
               1
     1  C   -0.690709
     2  C    0.032889
     3  C   -0.630377
     4  H    0.169361
     5  H    0.292036
     6  H    0.320804
     7  H    0.219178
     8  H    0.143409
     9  H    0.143409
 Sum of Mulliken charges =  -0.00000
 Mulliken charges with hydrogens summed into heavy atoms:
               1
     1  C   -0.184712
     2  C    0.353693
     3  C   -0.168981
 Electronic spatial extent (au):  <R**2>=            196.9715
 Charge=             -0.0000 electrons
 Dipole moment (field-independent basis, Debye):
    X=             -0.3992    Y=             -0.0494    Z=              0.0000  Tot=              0.4022
 Quadrupole moment (field-independent basis, Debye-Ang):
   XX=            -19.2155   YY=            -19.1752   ZZ=            -22.0013
   XY=             -0.2229   XZ=             -0.0000   YZ=             -0.0000
 Traceless Quadrupole moment (field-independent basis, Debye-Ang):
   XX=              0.9152   YY=              0.9555   ZZ=             -1.8706
   XY=             -0.2229   XZ=             -0.0000   YZ=             -0.0000
 Octapole moment (field-independent basis, Debye-Ang**2):
  XXX=              1.0494  YYY=              0.3441  ZZZ=              0.0000  XYY=              0.9173
  XXY=              0.7601  XXZ=              0.0000  XZZ=             -2.8466  YZZ=             -0.5773
  YYZ=              0.0000  XYZ=              0.0000
 Hexadecapole moment (field-independent basis, Debye-Ang**3):
 XXXX=           -175.8893 YYYY=            -62.9204 ZZZZ=            -32.7051 XXXY=            -15.7007
 XXXZ=             -0.0000 YYYX=            -18.5650 YYYZ=              0.0000 ZZZX=              0.0000
 ZZZY=             -0.0000 XXYY=            -39.8110 XXZZ=            -35.3499 YYZZ=            -18.0294
 XXYZ=             -0.0000 YYXZ=              0.0000 ZZXY=             -6.2972
 N-N= 7.077418821032D+01 E-N=-4.142007959884D+02  KE= 1.173035244112D+02
 PrsmSu:  requested number of processors reduced to:  21 ShMem   1 Linda.
 No NMR shielding tensors so no spin-rotation constants.
 Leave Link  601 at Sat Apr 17 19:42:50 2021, MaxMem=   104857600 cpu:             198.7 elap:               4.4
 (Enter /s/ls4/users/knvvv/bin/g16sse/l801.exe)
 DoSCS=F DFT=T ScalE2(SS,OS)=  1.000000  1.000000
 Range of M.O.s used for correlation:     1   384
 NBasis=   387 NAE=    12 NBE=    12 NFC=     0 NFV=     0
 NROrb=    384 NOA=    12 NOB=    12 NVA=   372 NVB=   372

 **** Warning!!: The largest alpha MO coefficient is  0.19299127D+03

 Leave Link  801 at Sat Apr 17 19:42:50 2021, MaxMem=   104857600 cpu:               3.6 elap:               0.1
 (Enter /s/ls4/users/knvvv/bin/g16sse/l914.exe)
 RHF ground state
 Doing stability rather than CIS.
 Two-electron integrals replicated using symmetry.
 MDV=   104857600 DFT=T DoStab=T Mixed=T DoRPA=F DoScal=F NonHer=F
 Making orbital integer symmetry assigments:
 Orbital symmetries:
       Occupied  (A') (A') (A') (A') (A') (A') (A') (A') (A") (A')
                 (A') (A")
       Virtual   (A') (A') (A') (A") (A") (A') (A') (A') (A") (A')
                 (A') (A") (A') (A') (A") (A') (A') (A") (A') (A")
                 (A') (A') (A') (A") (A') (A") (A') (A') (A") (A')
                 (A") (A') (A") (A') (A') (A') (A') (A") (A') (A')
                 (A") (A") (A') (A') (A") (A') (A') (A") (A') (A')
                 (A") (A') (A') (A') (A') (A') (A") (A') (A") (A')
                 (A') (A") (A') (A') (A") (A') (A') (A") (A") (A")
                 (A') (A') (A") (A') (A') (A') (A") (A') (A") (A')
                 (A') (A") (A') (A') (A") (A') (A') (A") (A') (A')
                 (A") (A') (A') (A") (A') (A') (A') (A") (A') (A')
                 (A') (A') (A') (A") (A') (A') (A') (A') (A") (A")
                 (A') (A") (A") (A') (A") (A') (A") (A') (A') (A")
                 (A') (A") (A') (A") (A') (A") (A") (A') (A') (A")
                 (A') (A') (A") (A') (A') (A") (A') (A") (A') (A')
                 (A") (A') (A") (A') (A") (A') (A") (A') (A") (A')
                 (A") (A') (A') (A") (A') (A') (A") (A') (A') (A')
                 (A") (A") (A') (A') (A") (A') (A') (A') (A") (A')
                 (A") (A') (A") (A') (A') (A") (A') (A') (A") (A')
                 (A") (A') (A') (A") (A') (A') (A") (A') (A') (A")
                 (A') (A") (A') (A') (A') (A") (A') (A') (A") (A')
                 (A') (A') (A') (A") (A') (A') (A") (A') (A") (A')
                 (A") (A') (A') (A") (A") (A") (A") (A') (A") (A')
                 (A") (A") (A') (A') (A") (A') (A") (A') (A') (A")
                 (A") (A') (A") (A') (A") (A') (A') (A") (A') (A')
                 (A") (A') (A") (A') (A") (A") (A') (A') (A') (A")
                 (A') (A") (A') (A') (A') (A") (A') (A") (A') (A')
                 (A') (A") (A') (A") (A") (A') (A') (A") (A") (A')
                 (A') (A") (A') (A') (A') (A') (A") (A') (A") (A")
                 (A') (A") (A') (A") (A') (A") (A') (A') (A") (A")
                 (A') (A') (A") (A') (A') (A") (A") (A') (A') (A")
                 (A') (A') (A") (A') (A') (A') (A") (A') (A") (A')
                 (A') (A') (A") (A") (A') (A') (A") (A') (A') (A")
                 (A') (A') (A') (A") (A') (A") (A") (A") (A') (A")
                 (A') (A") (A') (A") (A') (A') (A") (A') (A') (A')
                 (A') (A") (A') (A') (A") (A") (A') (A") (A') (A')
                 (A") (A') (A') (A') (A") (A') (A") (A') (A') (A')
                 (A') (A") (A') (A') (A') (A') (A') (A') (A') (A')
                 (A') (A')
    24 initial guesses have been made.
 Convergence on wavefunction:    0.001000000000000
 Davidson Disk Diagonalization:  ConvIn= 1.00D-03 SkipCon=T Conv= 1.00D-03.
 Max sub-space:  2000 roots to seek:    24 dimension of matrix:         8928
 Iteration     1 Dimension    24 NMult     0 NNew     24
 Estimated number of processors is:   17
 CISAX will form     1 AO SS matrices at one time.
 NMat=     1 NSing=     1 JSym2X= 2.
 FoFJK:  IHMeth= 1 ICntrl=       0 DoSepK=F KAlg= 0 I1Cent=           0 FoldK=F
 IRaf= 980000000 NMat=       1 IRICut=       1 DoRegI=T DoRafI=F ISym2E= 2 IDoP0=0 IntGTp=1.
 FoFCou: FMM=F IPFlag=           0 FMFlag=      100000 FMFlg1=           0
         NFxFlg=           0 DoJE=F BraDBF=F KetDBF=F FulRan=T
         wScrn=  0.000000 ICntrl=         0 IOpCl=  0 I1Cent=           0 NGrid=           0
         NMat0=    1 NMatS0=      1 NMatT0=    0 NMatD0=    1 NMtDS0=    0 NMtDT0=    0
 Integrals replicated using symmetry in FoFCou.
 CoulSu:  requested number of processors reduced to:  19 ShMem   1 Linda.
 NMat=     1 NSing=     1 JSym2X= 2.
 CoulSu:  requested number of processors reduced to:  19 ShMem   1 Linda.
 NMat=     1 NSing=     1 JSym2X= 2.
 CoulSu:  requested number of processors reduced to:  19 ShMem   1 Linda.
 NMat=     1 NSing=     1 JSym2X= 2.
 CoulSu:  requested number of processors reduced to:  19 ShMem   1 Linda.
 NMat=     1 NSing=     1 JSym2X= 2.
 CoulSu:  requested number of processors reduced to:  19 ShMem   1 Linda.
 NMat=     1 NSing=     1 JSym2X= 2.
 CoulSu:  requested number of processors reduced to:  19 ShMem   1 Linda.
 NMat=     1 NSing=     1 JSym2X= 2.
 CoulSu:  requested number of processors reduced to:  19 ShMem   1 Linda.
 NMat=     1 NSing=     1 JSym2X= 2.
 CoulSu:  requested number of processors reduced to:  19 ShMem   1 Linda.
 NMat=     1 NSing=     1 JSym2X= 2.
 CoulSu:  requested number of processors reduced to:  19 ShMem   1 Linda.
 NMat=     1 NSing=     1 JSym2X= 2.
 CoulSu:  requested number of processors reduced to:  19 ShMem   1 Linda.
 NMat=     1 NSing=     1 JSym2X= 2.
 CoulSu:  requested number of processors reduced to:  19 ShMem   1 Linda.
 NMat=     1 NSing=     1 JSym2X= 2.
 CoulSu:  requested number of processors reduced to:  19 ShMem   1 Linda.
 NMat=     1 NSing=     0 JSym2X= 2.
 CoulSu:  requested number of processors reduced to:  19 ShMem   1 Linda.
 NMat=     1 NSing=     0 JSym2X= 2.
 CoulSu:  requested number of processors reduced to:  19 ShMem   1 Linda.
 NMat=     1 NSing=     0 JSym2X= 2.
 CoulSu:  requested number of processors reduced to:  19 ShMem   1 Linda.
 NMat=     1 NSing=     0 JSym2X= 2.
 CoulSu:  requested number of processors reduced to:  19 ShMem   1 Linda.
 NMat=     1 NSing=     0 JSym2X= 2.
 CoulSu:  requested number of processors reduced to:  19 ShMem   1 Linda.
 NMat=     1 NSing=     0 JSym2X= 2.
 CoulSu:  requested number of processors reduced to:  19 ShMem   1 Linda.
 NMat=     1 NSing=     0 JSym2X= 2.
 CoulSu:  requested number of processors reduced to:  19 ShMem   1 Linda.
 NMat=     1 NSing=     0 JSym2X= 2.
 CoulSu:  requested number of processors reduced to:  19 ShMem   1 Linda.
 NMat=     1 NSing=     0 JSym2X= 2.
 CoulSu:  requested number of processors reduced to:  19 ShMem   1 Linda.
 NMat=     1 NSing=     0 JSym2X= 2.
 CoulSu:  requested number of processors reduced to:  19 ShMem   1 Linda.
 NMat=     1 NSing=     0 JSym2X= 2.
 CoulSu:  requested number of processors reduced to:  19 ShMem   1 Linda.
 NMat=     1 NSing=     0 JSym2X= 2.
 CoulSu:  requested number of processors reduced to:  19 ShMem   1 Linda.
 New state      1 was old state      8
 Excitation Energies [eV] at current iteration:
 Root      1 :     4.431827417348375
 Root      2 :     6.905488868389912
 Root      3 :     6.928364550475418
 Root      4 :     7.442783370229514
 Root      5 :     7.469820413354086
 Root      6 :     7.537888362563938
 Root      7 :     7.547025880419921
 Root      8 :     8.743705381661638
 Root      9 :     8.749896013473963
 Root     10 :     8.822078607600378
 Root     11 :     8.880374277884536
 Root     12 :     9.184108974667883
 Root     13 :     9.205371332440565
 Root     14 :     9.282949814265791
 Root     15 :     9.371370012783911
 Root     16 :     9.397047169407349
 Root     17 :     9.420500258427944
 Root     18 :     9.846792207790942
 Root     19 :     9.973302950032352
 Root     20 :     9.980859505442218
 Root     21 :    10.019828695547650
 Root     22 :    10.092200282620320
 Root     23 :    10.115915554757580
 Root     24 :    12.601591046034850
 Iteration     2 Dimension    48 NMult    24 NNew     24
 Estimated number of processors is:   17
 CISAX will form     1 AO SS matrices at one time.
 NMat=     1 NSing=     1 JSym2X= 2.
 CoulSu:  requested number of processors reduced to:  19 ShMem   1 Linda.
 NMat=     1 NSing=     1 JSym2X= 2.
 CoulSu:  requested number of processors reduced to:  19 ShMem   1 Linda.
 NMat=     1 NSing=     1 JSym2X= 2.
 CoulSu:  requested number of processors reduced to:  19 ShMem   1 Linda.
 NMat=     1 NSing=     1 JSym2X= 2.
 CoulSu:  requested number of processors reduced to:  19 ShMem   1 Linda.
 NMat=     1 NSing=     1 JSym2X= 2.
 CoulSu:  requested number of processors reduced to:  19 ShMem   1 Linda.
 NMat=     1 NSing=     1 JSym2X= 2.
 CoulSu:  requested number of processors reduced to:  19 ShMem   1 Linda.
 NMat=     1 NSing=     1 JSym2X= 2.
 CoulSu:  requested number of processors reduced to:  19 ShMem   1 Linda.
 NMat=     1 NSing=     1 JSym2X= 2.
 CoulSu:  requested number of processors reduced to:  19 ShMem   1 Linda.
 NMat=     1 NSing=     1 JSym2X= 2.
 CoulSu:  requested number of processors reduced to:  19 ShMem   1 Linda.
 NMat=     1 NSing=     1 JSym2X= 2.
 CoulSu:  requested number of processors reduced to:  19 ShMem   1 Linda.
 NMat=     1 NSing=     1 JSym2X= 2.
 CoulSu:  requested number of processors reduced to:  19 ShMem   1 Linda.
 NMat=     1 NSing=     1 JSym2X= 2.
 CoulSu:  requested number of processors reduced to:  19 ShMem   1 Linda.
 NMat=     1 NSing=     0 JSym2X= 2.
 CoulSu:  requested number of processors reduced to:  19 ShMem   1 Linda.
 NMat=     1 NSing=     0 JSym2X= 2.
 CoulSu:  requested number of processors reduced to:  19 ShMem   1 Linda.
 NMat=     1 NSing=     0 JSym2X= 2.
 CoulSu:  requested number of processors reduced to:  19 ShMem   1 Linda.
 NMat=     1 NSing=     0 JSym2X= 2.
 CoulSu:  requested number of processors reduced to:  19 ShMem   1 Linda.
 NMat=     1 NSing=     0 JSym2X= 2.
 CoulSu:  requested number of processors reduced to:  19 ShMem   1 Linda.
 NMat=     1 NSing=     0 JSym2X= 2.
 CoulSu:  requested number of processors reduced to:  19 ShMem   1 Linda.
 NMat=     1 NSing=     0 JSym2X= 2.
 CoulSu:  requested number of processors reduced to:  19 ShMem   1 Linda.
 NMat=     1 NSing=     0 JSym2X= 2.
 CoulSu:  requested number of processors reduced to:  19 ShMem   1 Linda.
 NMat=     1 NSing=     0 JSym2X= 2.
 CoulSu:  requested number of processors reduced to:  19 ShMem   1 Linda.
 NMat=     1 NSing=     0 JSym2X= 2.
 CoulSu:  requested number of processors reduced to:  19 ShMem   1 Linda.
 NMat=     1 NSing=     0 JSym2X= 2.
 CoulSu:  requested number of processors reduced to:  19 ShMem   1 Linda.
 NMat=     1 NSing=     0 JSym2X= 2.
 CoulSu:  requested number of processors reduced to:  19 ShMem   1 Linda.
 Root      1 not converged, maximum delta is    0.146994741106795
 Excitation Energies [eV] at current iteration:
 Root      1 :     3.545512208201046   Change is   -0.886315209147329
 Root      2 :     6.760746795669277   Change is   -0.167617754806141
 Root      3 :     6.794810682573597   Change is   -0.110678185816315
 Root      4 :     7.320832260617837   Change is   -0.121951109611677
 Root      5 :     7.370973646816471   Change is   -0.098846766537615
 Root      6 :     7.427660589212840   Change is   -0.110227773351097
 Root      7 :     7.466879634585655   Change is   -0.080146245834266
 Root      8 :     8.549651771852943   Change is   -0.200244241621020
 Root      9 :     8.599394466925187   Change is   -0.144310914736451
 Root     10 :     8.640225723750477   Change is   -0.181852883849901
 Root     11 :     8.709062911216011   Change is   -0.171311366668525
 Root     12 :     8.881186896325650   Change is   -0.324184436114917
 Root     13 :     9.027923349321579   Change is   -0.156185625346303
 Root     14 :     9.033128899531281   Change is   -0.387371358896663
 Root     15 :     9.039064082681261   Change is   -0.243885731584531
 Root     16 :     9.240470463340310   Change is   -0.130899549443601
 Root     17 :     9.242462798833534   Change is   -0.154584370573816
 Root     18 :     9.412701420211187   Change is   -3.188889625823659
 Root     19 :     9.535373901815582   Change is   -0.311418305975361
 Root     20 :     9.715885705736572   Change is   -0.264973799705649
 Root     21 :     9.783063529859131   Change is   -0.236765165688518
 Root     22 :     9.844474394198651   Change is   -0.128828555833701
 Root     23 :     9.986821560329485   Change is   -0.129093994428099
 Root     24 :    10.079808933461650   Change is   -0.012391349158670
 Iteration     3 Dimension    54 NMult    48 NNew      6
 Estimated number of processors is:   17
 CISAX will form     1 AO SS matrices at one time.
 NMat=     1 NSing=     1 JSym2X= 2.
 CoulSu:  requested number of processors reduced to:  19 ShMem   1 Linda.
 NMat=     1 NSing=     1 JSym2X= 2.
 CoulSu:  requested number of processors reduced to:  19 ShMem   1 Linda.
 NMat=     1 NSing=     1 JSym2X= 2.
 CoulSu:  requested number of processors reduced to:  19 ShMem   1 Linda.
 NMat=     1 NSing=     0 JSym2X= 2.
 CoulSu:  requested number of processors reduced to:  19 ShMem   1 Linda.
 NMat=     1 NSing=     0 JSym2X= 2.
 CoulSu:  requested number of processors reduced to:  19 ShMem   1 Linda.
 NMat=     1 NSing=     0 JSym2X= 2.
 CoulSu:  requested number of processors reduced to:  19 ShMem   1 Linda.
 Root      1 not converged, maximum delta is    0.014949094376427
 Excitation Energies [eV] at current iteration:
 Root      1 :     3.495953668106754   Change is   -0.049558540094293
 Root      2 :     6.741123297724360   Change is   -0.019623497944917
 Root      3 :     6.787962097275958   Change is   -0.006848585297639
 Root      4 :     7.308541612760254   Change is   -0.012290647857583
 Root      5 :     7.363539278477763   Change is   -0.007434368338708
 Root      6 :     7.463317708637440   Change is   -0.003561925948215
 Iteration     4 Dimension    60 NMult    54 NNew      6
 Estimated number of processors is:   17
 CISAX will form     1 AO SS matrices at one time.
 NMat=     1 NSing=     1 JSym2X= 2.
 CoulSu:  requested number of processors reduced to:  19 ShMem   1 Linda.
 NMat=     1 NSing=     1 JSym2X= 2.
 CoulSu:  requested number of processors reduced to:  19 ShMem   1 Linda.
 NMat=     1 NSing=     1 JSym2X= 2.
 CoulSu:  requested number of processors reduced to:  19 ShMem   1 Linda.
 NMat=     1 NSing=     0 JSym2X= 2.
 CoulSu:  requested number of processors reduced to:  19 ShMem   1 Linda.
 NMat=     1 NSing=     0 JSym2X= 2.
 CoulSu:  requested number of processors reduced to:  19 ShMem   1 Linda.
 NMat=     1 NSing=     0 JSym2X= 2.
 CoulSu:  requested number of processors reduced to:  19 ShMem   1 Linda.
 Root      1 not converged, maximum delta is    0.003105528918943
 Excitation Energies [eV] at current iteration:
 Root      1 :     3.493634787141946   Change is   -0.002318880964807
 Root      2 :     6.740360894380303   Change is   -0.000762403344057
 Root      3 :     6.787376179100552   Change is   -0.000585918175406
 Root      4 :     7.307749815424789   Change is   -0.000791797335465
 Root      5 :     7.361965501207197   Change is   -0.001573777270566
 Root      6 :     7.462863565437087   Change is   -0.000454143200353
 Iteration     5 Dimension    66 NMult    60 NNew      6
 Estimated number of processors is:   17
 CISAX will form     1 AO SS matrices at one time.
 NMat=     1 NSing=     1 JSym2X= 2.
 CoulSu:  requested number of processors reduced to:  19 ShMem   1 Linda.
 NMat=     1 NSing=     1 JSym2X= 2.
 CoulSu:  requested number of processors reduced to:  19 ShMem   1 Linda.
 NMat=     1 NSing=     1 JSym2X= 2.
 CoulSu:  requested number of processors reduced to:  19 ShMem   1 Linda.
 NMat=     1 NSing=     0 JSym2X= 2.
 CoulSu:  requested number of processors reduced to:  19 ShMem   1 Linda.
 NMat=     1 NSing=     0 JSym2X= 2.
 CoulSu:  requested number of processors reduced to:  19 ShMem   1 Linda.
 NMat=     1 NSing=     0 JSym2X= 2.
 CoulSu:  requested number of processors reduced to:  19 ShMem   1 Linda.
 Root      1 has converged.
 Excitation Energies [eV] at current iteration:
 Root      1 :     3.493552064259934   Change is   -0.000082722882013
 Root      2 :     6.740271331040530   Change is   -0.000089563339773
 Root      3 :     6.787330427791900   Change is   -0.000045751308652
 Root      4 :     7.307483379345348   Change is   -0.000266436079441
 Root      5 :     7.361555854552508   Change is   -0.000409646654689
 Root      6 :     7.462788397797352   Change is   -0.000075167639735
 Convergence achieved on expansion vectors.
 ***********************************************************************
 Stability analysis using <AA,BB:AA,BB> singles matrix:
 ***********************************************************************
 1PDM for each excited state written to RWF  633
 Ground to excited state transition densities written to RWF  633

 Eigenvectors of the stability matrix:
 
 Eigenvector   1:      Triplet-A'   Eigenvalue= 0.1283857  <S**2>=2.000
      12 -> 16         0.66543
      12 -> 30        -0.14662
 The wavefunction is stable under the perturbations considered.
 Leave Link  914 at Sat Apr 17 19:59:12 2021, MaxMem=   104857600 cpu:           35522.7 elap:             981.4
 (Enter /s/ls4/users/knvvv/bin/g16sse/l508.exe)
 The wavefunction is already stable.
 Leave Link  508 at Sat Apr 17 19:59:12 2021, MaxMem=   104857600 cpu:               2.2 elap:               0.1
 (Enter /s/ls4/users/knvvv/bin/g16sse/l601.exe)
 Copying SCF densities to generalized density rwf, IOpCl= 0 IROHF=0.

 **********************************************************************

            Population analysis using the SCF density.

 **********************************************************************

 Orbital symmetries:
       Occupied  (A') (A') (A') (A') (A') (A') (A') (A') (A") (A')
                 (A') (A")
       Virtual   (A') (A') (A') (A") (A") (A') (A') (A') (A") (A')
                 (A') (A") (A') (A') (A") (A') (A') (A") (A') (A")
                 (A') (A') (A') (A") (A') (A") (A') (A') (A") (A')
                 (A") (A') (A") (A') (A') (A') (A') (A") (A') (A')
                 (A") (A") (A') (A') (A") (A') (A') (A") (A') (A')
                 (A") (A') (A') (A') (A') (A') (A") (A') (A") (A')
                 (A') (A") (A') (A') (A") (A') (A') (A") (A") (A")
                 (A') (A') (A") (A') (A') (A') (A") (A') (A") (A')
                 (A') (A") (A') (A') (A") (A') (A') (A") (A') (A')
                 (A") (A') (A') (A") (A') (A') (A') (A") (A') (A')
                 (A') (A') (A') (A") (A') (A') (A') (A') (A") (A")
                 (A') (A") (A") (A') (A") (A') (A") (A') (A') (A")
                 (A') (A") (A') (A") (A') (A") (A") (A') (A') (A")
                 (A') (A') (A") (A') (A') (A") (A') (A") (A') (A')
                 (A") (A') (A") (A') (A") (A') (A") (A') (A") (A')
                 (A") (A') (A') (A") (A') (A') (A") (A') (A') (A')
                 (A") (A") (A') (A') (A") (A') (A') (A') (A") (A')
                 (A") (A') (A") (A') (A') (A") (A') (A') (A") (A')
                 (A") (A') (A') (A") (A') (A') (A") (A') (A') (A")
                 (A') (A") (A') (A') (A') (A") (A') (A') (A") (A')
                 (A') (A') (A') (A") (A') (A') (A") (A') (A") (A')
                 (A") (A') (A') (A") (A") (A") (A") (A') (A") (A')
                 (A") (A") (A') (A') (A") (A') (A") (A') (A') (A")
                 (A") (A') (A") (A') (A") (A') (A') (A") (A') (A')
                 (A") (A') (A") (A') (A") (A") (A') (A') (A') (A")
                 (A') (A") (A') (A') (A') (A") (A') (A") (A') (A')
                 (A') (A") (A') (A") (A") (A') (A') (A") (A") (A')
                 (A') (A") (A') (A') (A') (A') (A") (A') (A") (A")
                 (A') (A") (A') (A") (A') (A") (A') (A') (A") (A")
                 (A') (A') (A") (A') (A') (A") (A") (A') (A') (A")
                 (A') (A') (A") (A') (A') (A') (A") (A') (A") (A')
                 (A') (A') (A") (A") (A') (A') (A") (A') (A') (A")
                 (A') (A') (A') (A") (A') (A") (A") (A") (A') (A")
                 (A') (A") (A') (A") (A') (A') (A") (A') (A') (A')
                 (A') (A") (A') (A') (A") (A") (A') (A") (A') (A')
                 (A") (A') (A') (A') (A") (A') (A") (A') (A') (A')
                 (A') (A") (A') (A') (A') (A') (A') (A') (A') (A')
                 (A') (A')
 The electronic state is 1-A'.
 Alpha  occ. eigenvalues --  -10.54588 -10.53434 -10.53019  -0.88600  -0.77623
 Alpha  occ. eigenvalues --   -0.63431  -0.53845  -0.48649  -0.48079  -0.43346
 Alpha  occ. eigenvalues --   -0.40717  -0.31577
 Alpha virt. eigenvalues --    0.01350   0.03237   0.03536   0.04207   0.08354
 Alpha virt. eigenvalues --    0.08709   0.10322   0.11024   0.13345   0.13868
 Alpha virt. eigenvalues --    0.14425   0.15497   0.16714   0.18449   0.19812
 Alpha virt. eigenvalues --    0.20136   0.21067   0.21613   0.21888   0.22581
 Alpha virt. eigenvalues --    0.23688   0.24287   0.26783   0.26954   0.28058
 Alpha virt. eigenvalues --    0.28439   0.28987   0.30242   0.30428   0.31123
 Alpha virt. eigenvalues --    0.31266   0.33398   0.34036   0.34189   0.35863
 Alpha virt. eigenvalues --    0.36544   0.36828   0.37988   0.38612   0.38799
 Alpha virt. eigenvalues --    0.39803   0.40191   0.41379   0.42345   0.42679
 Alpha virt. eigenvalues --    0.42838   0.44075   0.47603   0.47620   0.50110
 Alpha virt. eigenvalues --    0.51780   0.52136   0.52707   0.55842   0.57803
 Alpha virt. eigenvalues --    0.58539   0.60036   0.61400   0.61586   0.64487
 Alpha virt. eigenvalues --    0.66980   0.69073   0.69741   0.73257   0.75123
 Alpha virt. eigenvalues --    0.78853   0.81470   0.83340   0.86341   0.86618
 Alpha virt. eigenvalues --    0.86826   0.90098   0.91241   0.92257   0.92666
 Alpha virt. eigenvalues --    0.93988   0.94204   0.95685   0.96169   0.96666
 Alpha virt. eigenvalues --    0.99633   1.01684   1.01990   1.04191   1.07324
 Alpha virt. eigenvalues --    1.12174   1.12984   1.13036   1.14800   1.20622
 Alpha virt. eigenvalues --    1.21474   1.22836   1.22960   1.26029   1.26829
 Alpha virt. eigenvalues --    1.30919   1.35151   1.38995   1.40322   1.41555
 Alpha virt. eigenvalues --    1.44091   1.46108   1.49387   1.50522   1.54728
 Alpha virt. eigenvalues --    1.63145   1.69968   1.74590   1.78448   1.81919
 Alpha virt. eigenvalues --    1.86504   1.86871   1.90609   1.90906   1.93852
 Alpha virt. eigenvalues --    1.95196   1.98713   2.00577   2.02553   2.03006
 Alpha virt. eigenvalues --    2.04777   2.05743   2.06443   2.08743   2.10237
 Alpha virt. eigenvalues --    2.13098   2.14124   2.15392   2.19028   2.20296
 Alpha virt. eigenvalues --    2.21692   2.22350   2.23700   2.25011   2.26204
 Alpha virt. eigenvalues --    2.26376   2.28685   2.32647   2.38870   2.40477
 Alpha virt. eigenvalues --    2.44386   2.47579   2.52440   2.54231   2.56049
 Alpha virt. eigenvalues --    2.57163   2.59540   2.59698   2.62289   2.63008
 Alpha virt. eigenvalues --    2.65569   2.68406   2.70673   2.72197   2.73250
 Alpha virt. eigenvalues --    2.77098   2.80612   2.80629   2.83847   2.84981
 Alpha virt. eigenvalues --    2.86655   2.89277   2.89464   2.92317   2.95902
 Alpha virt. eigenvalues --    2.97205   3.02941   3.05182   3.09154   3.11414
 Alpha virt. eigenvalues --    3.14679   3.16238   3.21451   3.24204   3.28723
 Alpha virt. eigenvalues --    3.29544   3.32897   3.35184   3.36055   3.39938
 Alpha virt. eigenvalues --    3.47957   3.48436   3.50714   3.51707   3.53969
 Alpha virt. eigenvalues --    3.58385   3.70821   3.76451   3.76835   3.79469
 Alpha virt. eigenvalues --    3.82777   3.89555   3.89668   3.93712   3.97564
 Alpha virt. eigenvalues --    3.99799   4.04247   4.18449   4.24303   4.32388
 Alpha virt. eigenvalues --    4.37775   4.43434   4.64706   4.86218   4.88461
 Alpha virt. eigenvalues --    4.98798   4.99869   5.01703   5.02423   5.11548
 Alpha virt. eigenvalues --    5.23714   5.27215   5.30438   5.33507   5.36711
 Alpha virt. eigenvalues --    5.41502   5.45571   5.47015   5.47515   5.51083
 Alpha virt. eigenvalues --    5.54907   5.60520   5.62776   5.68951   5.70332
 Alpha virt. eigenvalues --    5.72763   5.76901   5.77276   5.79572   5.79950
 Alpha virt. eigenvalues --    5.81551   5.83544   5.87571   5.87669   5.89478
 Alpha virt. eigenvalues --    5.93344   5.94540   5.99638   6.01851   6.02547
 Alpha virt. eigenvalues --    6.03078   6.05936   6.06418   6.10415   6.11599
 Alpha virt. eigenvalues --    6.16357   6.17248   6.19662   6.24048   6.26208
 Alpha virt. eigenvalues --    6.28279   6.31569   6.32263   6.35819   6.37502
 Alpha virt. eigenvalues --    6.39746   6.44117   6.45274   6.45864   6.52842
 Alpha virt. eigenvalues --    6.58518   6.60025   6.66912   6.70855   6.71687
 Alpha virt. eigenvalues --    6.73173   6.77590   6.79668   6.84898   6.89180
 Alpha virt. eigenvalues --    6.92070   6.98099   6.98812   7.05252   7.16093
 Alpha virt. eigenvalues --    7.17842   7.18101   7.25690   7.26401   7.29132
 Alpha virt. eigenvalues --    7.29633   7.35429   7.35953   7.38707   7.39673
 Alpha virt. eigenvalues --    7.41563   7.42711   7.46259   7.46830   7.51371
 Alpha virt. eigenvalues --    7.52116   7.55506   7.56920   7.58756   7.59230
 Alpha virt. eigenvalues --    7.60041   7.72525   7.72621   7.73930   7.80812
 Alpha virt. eigenvalues --    7.82078   7.84317   7.86063   7.88785   7.90947
 Alpha virt. eigenvalues --    7.94373   7.98784   8.00371   8.03848   8.05095
 Alpha virt. eigenvalues --    8.08331   8.15339   8.15544   8.16903   8.22569
 Alpha virt. eigenvalues --    8.25011   8.26483   8.27161   8.27758   8.29199
 Alpha virt. eigenvalues --    8.29784   8.34390   8.36674   8.40658   8.42841
 Alpha virt. eigenvalues --    8.42846   8.47213   8.54094   8.59370   8.61957
 Alpha virt. eigenvalues --    8.65901   8.73367   8.77079   8.81125   8.81671
 Alpha virt. eigenvalues --    8.96066   8.98819   9.00317   9.12948   9.31260
 Alpha virt. eigenvalues --    9.49491   9.52909   9.53756   9.57691   9.58543
 Alpha virt. eigenvalues --    9.63846   9.65148   9.68544   9.72315   9.78448
 Alpha virt. eigenvalues --    9.86792   9.87735   9.99215  10.02097  10.02455
 Alpha virt. eigenvalues --   10.15257  10.26138  10.46152  10.64649  10.97789
 Alpha virt. eigenvalues --   11.68313  11.77469  11.97468  12.66850  12.90083
 Alpha virt. eigenvalues --   13.16542  28.47716  29.07192  29.25113 145.94200
 Alpha virt. eigenvalues --  146.56965 146.73864
          Condensed to atoms (all electrons):
               1          2          3          4          5          6
     1  C    5.652181   0.034664  -0.011491  -0.129319   0.054047  -0.258913
     2  C    0.034664   5.427363   0.345829   0.053999  -0.029555   0.430125
     3  C   -0.011491   0.345829   5.675291   0.336900   0.280473   0.011915
     4  H   -0.129319   0.053999   0.336900   0.778418  -0.216950   0.048456
     5  H    0.054047  -0.029555   0.280473  -0.216950   0.659213  -0.053045
     6  H   -0.258913   0.430125   0.011915   0.048456  -0.053045   0.584975
     7  H    0.373735  -0.055891  -0.003760  -0.017691   0.004554  -0.003405
     8  H    0.487903  -0.119712  -0.002390  -0.011587   0.004613  -0.040456
     9  H    0.487903  -0.119712  -0.002390  -0.011587   0.004613  -0.040456
               7          8          9
     1  C    0.373735   0.487903   0.487903
     2  C   -0.055891  -0.119712  -0.119712
     3  C   -0.003760  -0.002390  -0.002390
     4  H   -0.017691  -0.011587  -0.011587
     5  H    0.004554   0.004613   0.004613
     6  H   -0.003405  -0.040456  -0.040456
     7  H    0.484096  -0.000408  -0.000408
     8  H   -0.000408   0.512302   0.026325
     9  H   -0.000408   0.026325   0.512302
 Mulliken charges:
               1
     1  C   -0.690709
     2  C    0.032889
     3  C   -0.630377
     4  H    0.169361
     5  H    0.292036
     6  H    0.320804
     7  H    0.219178
     8  H    0.143409
     9  H    0.143409
 Sum of Mulliken charges =  -0.00000
 Mulliken charges with hydrogens summed into heavy atoms:
               1
     1  C   -0.184712
     2  C    0.353693
     3  C   -0.168981
 Electronic spatial extent (au):  <R**2>=            196.9715
 Charge=             -0.0000 electrons
 Dipole moment (field-independent basis, Debye):
    X=             -0.3992    Y=             -0.0494    Z=              0.0000  Tot=              0.4022
 Quadrupole moment (field-independent basis, Debye-Ang):
   XX=            -19.2155   YY=            -19.1752   ZZ=            -22.0013
   XY=             -0.2229   XZ=             -0.0000   YZ=             -0.0000
 Traceless Quadrupole moment (field-independent basis, Debye-Ang):
   XX=              0.9152   YY=              0.9555   ZZ=             -1.8706
   XY=             -0.2229   XZ=             -0.0000   YZ=             -0.0000
 Octapole moment (field-independent basis, Debye-Ang**2):
  XXX=              1.0494  YYY=              0.3441  ZZZ=              0.0000  XYY=              0.9173
  XXY=              0.7601  XXZ=              0.0000  XZZ=             -2.8466  YZZ=             -0.5773
  YYZ=              0.0000  XYZ=              0.0000
 Hexadecapole moment (field-independent basis, Debye-Ang**3):
 XXXX=           -175.8893 YYYY=            -62.9204 ZZZZ=            -32.7051 XXXY=            -15.7007
 XXXZ=             -0.0000 YYYX=            -18.5650 YYYZ=              0.0000 ZZZX=              0.0000
 ZZZY=             -0.0000 XXYY=            -39.8110 XXZZ=            -35.3499 YYZZ=            -18.0294
 XXYZ=             -0.0000 YYXZ=              0.0000 ZZXY=             -6.2972
 N-N= 7.077418821032D+01 E-N=-4.142007959884D+02  KE= 1.173035244112D+02
 PrsmSu:  requested number of processors reduced to:  21 ShMem   1 Linda.
 No NMR shielding tensors so no spin-rotation constants.
 Leave Link  601 at Sat Apr 17 19:59:16 2021, MaxMem=   104857600 cpu:             188.2 elap:               4.2
 (Enter /s/ls4/users/knvvv/bin/g16sse/l9999.exe)

 Test job not archived.
 1\1\GINC-N305\Stability\RM062X\Gen\C3H6\KNVVV\17-Apr-2021\0\\#P M062X/
 GEN Integral=UltraFineGrid SCF=NoSymm Stable=(RExt, Opt) IOp(1/33=1)\\
 Database calculations.\\0,1\C,0,-1.13563775,-0.50323895,0.\C,0,-0.0050
 8335,0.48180517,0.\C,0,1.28779811,0.147715,0.\H,0,1.59836956,-0.890826
 97,0.\H,0,2.06524314,0.90011584,0.\H,0,-0.27497351,1.53380717,0.\H,0,-
 0.76140882,-1.52742478,0.\H,0,-1.77106719,-0.36872874,0.87820284\H,0,-
 1.77106719,-0.36872874,-0.87820284\\Version=ES64L-G16RevA.03\State=1-A
 '\HF=-117.8968105\RMSD=3.907e-09\Dipole=-0.1568966,-0.0206568,0.\Quadr
 upole=0.6829975,0.70778,-1.3907775,-0.1659163,0.,0.\PG=CS [SG(C3H4),X(
 H2)]\\@


 Sometimes the fool who rushes in gets the job done.
                                    -- Al Bernstein
 Job cpu time:       0 days 10 hours 45 minutes 25.5 seconds.
 Elapsed time:       0 days  0 hours 17 minutes 55.8 seconds.
 File lengths (MBytes):  RWF=    246 Int=      0 D2E=      0 Chk=     17 Scr=      1
 Normal termination of Gaussian 16 at Sat Apr 17 19:59:16 2021.
