 Entering Gaussian System, Link 0=/s/ls4/groups/g0130/bin/g16/g16
 Input=M062X--def2-QZVPPD--14_4444-a_H2O16Rel5.gjf
 Output=M062X--def2-QZVPPD--14_4444-a_H2O16Rel5.log
 Initial command:
 /s/ls4/groups/g0130/bin/g16/l1.exe "/dev/shm/scratch_knvvv/Gau-41144.inp" -scrdir="/dev/shm/scratch_knvvv/"
 Entering Link 1 = /s/ls4/groups/g0130/bin/g16/l1.exe PID=     41145.
  
 Copyright (c) 1988,1990,1992,1993,1995,1998,2003,2009,2016,
            Gaussian, Inc.  All Rights Reserved.
  
 This is part of the Gaussian(R) 16 program.  It is based on
 the Gaussian(R) 09 system (copyright 2009, Gaussian, Inc.),
 the Gaussian(R) 03 system (copyright 2003, Gaussian, Inc.),
 the Gaussian(R) 98 system (copyright 1998, Gaussian, Inc.),
 the Gaussian(R) 94 system (copyright 1995, Gaussian, Inc.),
 the Gaussian 92(TM) system (copyright 1992, Gaussian, Inc.),
 the Gaussian 90(TM) system (copyright 1990, Gaussian, Inc.),
 the Gaussian 88(TM) system (copyright 1988, Gaussian, Inc.),
 the Gaussian 86(TM) system (copyright 1986, Carnegie Mellon
 University), and the Gaussian 82(TM) system (copyright 1983,
 Carnegie Mellon University). Gaussian is a federally registered
 trademark of Gaussian, Inc.
  
 This software contains proprietary and confidential information,
 including trade secrets, belonging to Gaussian, Inc.
  
 This software is provided under written license and may be
 used, copied, transmitted, or stored only in accord with that
 written license.
  
 The following legend is applicable only to US Government
 contracts under FAR:
  
                    RESTRICTED RIGHTS LEGEND
  
 Use, reproduction and disclosure by the US Government is
 subject to restrictions as set forth in subparagraphs (a)
 and (c) of the Commercial Computer Software - Restricted
 Rights clause in FAR 52.227-19.
  
 Gaussian, Inc.
 340 Quinnipiac St., Bldg. 40, Wallingford CT 06492
  
  
 ---------------------------------------------------------------
 Warning -- This program may not be used in any manner that
 competes with the business of Gaussian, Inc. or will provide
 assistance to any competitor of Gaussian, Inc.  The licensee
 of this program is prohibited from giving any competitor of
 Gaussian, Inc. access to this program.  By using this program,
 the user acknowledges that Gaussian, Inc. is engaged in the
 business of creating and licensing software in the field of
 computational chemistry and represents and warrants to the
 licensee that it is not a competitor of Gaussian, Inc. and that
 it will not use this program in any manner prohibited above.
 ---------------------------------------------------------------
  

 Cite this work as:
 Gaussian 16, Revision A.03,
 M. J. Frisch, G. W. Trucks, H. B. Schlegel, G. E. Scuseria, 
 M. A. Robb, J. R. Cheeseman, G. Scalmani, V. Barone, 
 G. A. Petersson, H. Nakatsuji, X. Li, M. Caricato, A. V. Marenich, 
 J. Bloino, B. G. Janesko, R. Gomperts, B. Mennucci, H. P. Hratchian, 
 J. V. Ortiz, A. F. Izmaylov, J. L. Sonnenberg, D. Williams-Young, 
 F. Ding, F. Lipparini, F. Egidi, J. Goings, B. Peng, A. Petrone, 
 T. Henderson, D. Ranasinghe, V. G. Zakrzewski, J. Gao, N. Rega, 
 G. Zheng, W. Liang, M. Hada, M. Ehara, K. Toyota, R. Fukuda, 
 J. Hasegawa, M. Ishida, T. Nakajima, Y. Honda, O. Kitao, H. Nakai, 
 T. Vreven, K. Throssell, J. A. Montgomery, Jr., J. E. Peralta, 
 F. Ogliaro, M. J. Bearpark, J. J. Heyd, E. N. Brothers, K. N. Kudin, 
 V. N. Staroverov, T. A. Keith, R. Kobayashi, J. Normand, 
 K. Raghavachari, A. P. Rendell, J. C. Burant, S. S. Iyengar, 
 J. Tomasi, M. Cossi, J. M. Millam, M. Klene, C. Adamo, R. Cammi, 
 J. W. Ochterski, R. L. Martin, K. Morokuma, O. Farkas, 
 J. B. Foresman, and D. J. Fox, Gaussian, Inc., Wallingford CT, 2016.
 
 ******************************************
 Gaussian 16:  ES64L-G16RevA.03 25-Dec-2016
                20-Apr-2021 
 ******************************************
 %nprocshared=48
 Will use up to   48 processors via shared memory.
 %mem=90GB
 ----------------------------------------------------------------------
 #P M062X/GEN Integral=UltraFineGrid SCF=NoSymm Stable=(RExt, Opt) IOp(
 1/33=1)
 ----------------------------------------------------------------------
 1/33=1,38=1,172=1/1;
 2/12=2,17=6,18=5,40=1/2;
 3/5=7,11=2,25=1,30=1,74=-55,75=-5/1,2,3;
 4/9=2/1;
 5/5=2,38=5/2;
 6/7=2,8=2,9=2,10=2,28=1/1;
 8/6=1,10=90,11=11/1;
 9/8=-3,42=1,46=1/14;
 5/5=2,8=3,17=40,38=5/8(-2);
 6/7=2,8=2,9=2,10=2,28=1/1;
 99/5=1,9=1/99;
 Leave Link    1 at Tue Apr 20 10:36:10 2021, MaxMem= 12079595520 cpu:               8.4 elap:               0.2
 (Enter /s/ls4/groups/g0130/bin/g16/l101.exe)
 ONIOM data not found on unit 2.
 ----------------------
 Database calculations.
 ----------------------
 TstMul:  ICh=     0
 TstMul:  Mul=     1
 TstMul:  ICh=     0
 TstMul:  Mul=     1
 Symbolic Z-matrix:
 Charge =  0 Multiplicity = 1
 O                     1.38893  -1.46762   1.23269 
 H                     0.41156  -1.49782   1.3233 
 H                     1.64313  -0.59994   1.58839 
 O                    -1.25152  -4.4536    0.99204 
 H                    -0.2613   -4.48214   1.02154 
 H                    -1.5589   -5.20147   1.51306 
 O                    -1.47268   1.59429  -1.13047 
 H                    -1.53852   1.45304  -0.16111 
 H                    -1.68544   2.53635  -1.25509 
 O                     1.28678   1.52143  -1.26987 
 H                     1.56701   0.66514  -1.63355 
 H                     0.30678   1.51098  -1.33197 
 O                    -1.33049  -1.18231  -1.5496 
 H                    -1.61858  -0.26501  -1.68988 
 H                    -0.35313  -1.15438  -1.64102 
 O                    -1.26241  -4.00861  -1.83674 
 H                    -1.53754  -3.07921  -1.89841 
 H                    -1.44164  -4.25581  -0.91323 
 O                     1.21094   4.33644  -0.88135 
 H                     1.42241   4.35926   0.0678 
 H                     1.48253   3.44992  -1.17042 
 O                    -1.36839  -1.6525    1.17403 
 H                    -1.53786  -2.60266   1.30331 
 H                    -1.46774  -1.51411   0.20711 
 O                     1.299     4.0996    1.97084 
 H                     1.62573   4.70639   2.6419 
 H                     0.31042   4.11489   2.0397 
 O                     1.41758   1.33424   1.48535 
 H                     1.59338   2.22807   1.82938 
 H                     1.48433   1.4286    0.51039 
 O                     1.41384  -4.04373  -2.01354 
 H                     1.74467  -4.6357   -2.69574 
 H                     0.42508  -4.09913  -2.05285 
 O                    -1.37771   3.95561   1.87466 
 H                    -1.59511   4.19428   0.95715 
 H                    -1.61256   3.01582   1.94473 
 O                    -1.46954   4.39795  -0.95348 
 H                    -0.48262   4.46694  -1.01235 
 H                    -1.82264   5.13116  -1.46631 
 O                     1.43158  -1.27641  -1.52538 
 H                     1.63397  -2.16205  -1.87596 
 H                     1.53082  -1.368    -0.55293 
 O                     1.42108  -4.28318   0.84026 
 H                     1.66424  -3.38626   1.12243 
 H                     1.60526  -4.29744  -0.11472 
 O                    -1.3368    1.12839   1.5909 
 H                    -1.58216   0.2       1.7391 
 H                    -0.35685   1.14067   1.65366 
 
 RdStrC is calling ZToCFu for IStruc=1 NZ=    48.
 PrtBox:  NBox=     5 Levels=  2 BoxLen=    8.00 SMaxX=       19.53
          Shift=            3.444297            9.829352            5.094210
 Box      1 Number                   0 centers from      1 to     22:
 Box      2 Number                   2 centers from     23 to     31:
 Box      3 Number                   3 centers from     32 to     37:
 Box      4 Number                  16 centers from     38 to     44:
 Box      5 Number                  17 centers from     45 to     48:
 After GenITR:
 ITRead=  0  0  0  0  0  0  0  0  0  0  0  0  0  0  0  0  0  0  0  0
 ITRead=  0  0  0  0  0  0  0  0  0  0  0  0  0  0  0  0  0  0  0  0
 ITRead=  0  0  0  0  0  0  0  0
 MicOpt= -1 -1 -1 -1 -1 -1 -1 -1 -1 -1 -1 -1 -1 -1 -1 -1 -1 -1 -1 -1
 MicOpt= -1 -1 -1 -1 -1 -1 -1 -1 -1 -1 -1 -1 -1 -1 -1 -1 -1 -1 -1 -1
 MicOpt= -1 -1 -1 -1 -1 -1 -1 -1
 ITRead=  0  0  0  0  0  0  0  0  0  0  0  0  0  0  0  0  0  0  0  0
 ITRead=  0  0  0  0  0  0  0  0  0  0  0  0  0  0  0  0  0  0  0  0
 ITRead=  0  0  0  0  0  0  0  0
 MicOpt= -1 -1 -1 -1 -1 -1 -1 -1 -1 -1 -1 -1 -1 -1 -1 -1 -1 -1 -1 -1
 MicOpt= -1 -1 -1 -1 -1 -1 -1 -1 -1 -1 -1 -1 -1 -1 -1 -1 -1 -1 -1 -1
 MicOpt= -1 -1 -1 -1 -1 -1 -1 -1
 NAtoms=     48 NQM=       48 NQMF=       0 NMMI=      0 NMMIF=      0
                NMic=       0 NMicF=      0.
                    Isotopes and Nuclear Properties:
 (Nuclear quadrupole moments (NQMom) in fm**2, nuclear magnetic moments (NMagM)
  in nuclear magnetons)

  Atom         1           2           3           4           5           6           7           8           9          10
 IAtWgt=          16           1           1          16           1           1          16           1           1          16
 AtmWgt=  15.9949146   1.0078250   1.0078250  15.9949146   1.0078250   1.0078250  15.9949146   1.0078250   1.0078250  15.9949146
 NucSpn=           0           1           1           0           1           1           0           1           1           0
 AtZEff=  -0.0000000  -0.0000000  -0.0000000  -0.0000000  -0.0000000  -0.0000000  -0.0000000  -0.0000000  -0.0000000  -0.0000000
 NQMom=    0.0000000   0.0000000   0.0000000   0.0000000   0.0000000   0.0000000   0.0000000   0.0000000   0.0000000   0.0000000
 NMagM=    0.0000000   2.7928460   2.7928460   0.0000000   2.7928460   2.7928460   0.0000000   2.7928460   2.7928460   0.0000000
 AtZNuc=   8.0000000   1.0000000   1.0000000   8.0000000   1.0000000   1.0000000   8.0000000   1.0000000   1.0000000   8.0000000

  Atom        11          12          13          14          15          16          17          18          19          20
 IAtWgt=           1           1          16           1           1          16           1           1          16           1
 AtmWgt=   1.0078250   1.0078250  15.9949146   1.0078250   1.0078250  15.9949146   1.0078250   1.0078250  15.9949146   1.0078250
 NucSpn=           1           1           0           1           1           0           1           1           0           1
 AtZEff=  -0.0000000  -0.0000000  -0.0000000  -0.0000000  -0.0000000  -0.0000000  -0.0000000  -0.0000000  -0.0000000  -0.0000000
 NQMom=    0.0000000   0.0000000   0.0000000   0.0000000   0.0000000   0.0000000   0.0000000   0.0000000   0.0000000   0.0000000
 NMagM=    2.7928460   2.7928460   0.0000000   2.7928460   2.7928460   0.0000000   2.7928460   2.7928460   0.0000000   2.7928460
 AtZNuc=   1.0000000   1.0000000   8.0000000   1.0000000   1.0000000   8.0000000   1.0000000   1.0000000   8.0000000   1.0000000

  Atom        21          22          23          24          25          26          27          28          29          30
 IAtWgt=           1          16           1           1          16           1           1          16           1           1
 AtmWgt=   1.0078250  15.9949146   1.0078250   1.0078250  15.9949146   1.0078250   1.0078250  15.9949146   1.0078250   1.0078250
 NucSpn=           1           0           1           1           0           1           1           0           1           1
 AtZEff=  -0.0000000  -0.0000000  -0.0000000  -0.0000000  -0.0000000  -0.0000000  -0.0000000  -0.0000000  -0.0000000  -0.0000000
 NQMom=    0.0000000   0.0000000   0.0000000   0.0000000   0.0000000   0.0000000   0.0000000   0.0000000   0.0000000   0.0000000
 NMagM=    2.7928460   0.0000000   2.7928460   2.7928460   0.0000000   2.7928460   2.7928460   0.0000000   2.7928460   2.7928460
 AtZNuc=   1.0000000   8.0000000   1.0000000   1.0000000   8.0000000   1.0000000   1.0000000   8.0000000   1.0000000   1.0000000

  Atom        31          32          33          34          35          36          37          38          39          40
 IAtWgt=          16           1           1          16           1           1          16           1           1          16
 AtmWgt=  15.9949146   1.0078250   1.0078250  15.9949146   1.0078250   1.0078250  15.9949146   1.0078250   1.0078250  15.9949146
 NucSpn=           0           1           1           0           1           1           0           1           1           0
 AtZEff=  -0.0000000  -0.0000000  -0.0000000  -0.0000000  -0.0000000  -0.0000000  -0.0000000  -0.0000000  -0.0000000  -0.0000000
 NQMom=    0.0000000   0.0000000   0.0000000   0.0000000   0.0000000   0.0000000   0.0000000   0.0000000   0.0000000   0.0000000
 NMagM=    0.0000000   2.7928460   2.7928460   0.0000000   2.7928460   2.7928460   0.0000000   2.7928460   2.7928460   0.0000000
 AtZNuc=   8.0000000   1.0000000   1.0000000   8.0000000   1.0000000   1.0000000   8.0000000   1.0000000   1.0000000   8.0000000

  Atom        41          42          43          44          45          46          47          48
 IAtWgt=           1           1          16           1           1          16           1           1
 AtmWgt=   1.0078250   1.0078250  15.9949146   1.0078250   1.0078250  15.9949146   1.0078250   1.0078250
 NucSpn=           1           1           0           1           1           0           1           1
 AtZEff=  -0.0000000  -0.0000000  -0.0000000  -0.0000000  -0.0000000  -0.0000000  -0.0000000  -0.0000000
 NQMom=    0.0000000   0.0000000   0.0000000   0.0000000   0.0000000   0.0000000   0.0000000   0.0000000
 NMagM=    2.7928460   2.7928460   0.0000000   2.7928460   2.7928460   0.0000000   2.7928460   2.7928460
 AtZNuc=   1.0000000   1.0000000   8.0000000   1.0000000   1.0000000   8.0000000   1.0000000   1.0000000
 No MM parameters found.
 Leave Link  101 at Tue Apr 20 10:36:11 2021, MaxMem= 12079595520 cpu:              11.6 elap:               0.3
 (Enter /s/ls4/groups/g0130/bin/g16/l202.exe)
                          Input orientation:                          
 ---------------------------------------------------------------------
 Center     Atomic      Atomic             Coordinates (Angstroms)
 Number     Number       Type             X           Y           Z
 ---------------------------------------------------------------------
      1          8           0        1.388926   -1.467623    1.232686
      2          1           0        0.411557   -1.497818    1.323304
      3          1           0        1.643128   -0.599939    1.588391
      4          8           0       -1.251516   -4.453601    0.992038
      5          1           0       -0.261298   -4.482139    1.021535
      6          1           0       -1.558896   -5.201469    1.513062
      7          8           0       -1.472678    1.594288   -1.130471
      8          1           0       -1.538517    1.453042   -0.161107
      9          1           0       -1.685441    2.536353   -1.255085
     10          8           0        1.286777    1.521434   -1.269872
     11          1           0        1.567012    0.665141   -1.633547
     12          1           0        0.306784    1.510975   -1.331965
     13          8           0       -1.330491   -1.182308   -1.549605
     14          1           0       -1.618583   -0.265006   -1.689877
     15          1           0       -0.353129   -1.154378   -1.641021
     16          8           0       -1.262412   -4.008613   -1.836736
     17          1           0       -1.537541   -3.079212   -1.898412
     18          1           0       -1.441642   -4.255808   -0.913230
     19          8           0        1.210938    4.336439   -0.881352
     20          1           0        1.422406    4.359256    0.067802
     21          1           0        1.482529    3.449917   -1.170421
     22          8           0       -1.368388   -1.652502    1.174030
     23          1           0       -1.537865   -2.602660    1.303311
     24          1           0       -1.467745   -1.514110    0.207108
     25          8           0        1.298997    4.099598    1.970843
     26          1           0        1.625727    4.706391    2.641897
     27          1           0        0.310420    4.114894    2.039697
     28          8           0        1.417583    1.334242    1.485350
     29          1           0        1.593378    2.228071    1.829376
     30          1           0        1.484326    1.428600    0.510387
     31          8           0        1.413837   -4.043725   -2.013544
     32          1           0        1.744667   -4.635701   -2.695740
     33          1           0        0.425077   -4.099126   -2.052850
     34          8           0       -1.377707    3.955609    1.874663
     35          1           0       -1.595113    4.194280    0.957152
     36          1           0       -1.612561    3.015817    1.944734
     37          8           0       -1.469538    4.397952   -0.953482
     38          1           0       -0.482617    4.466942   -1.012350
     39          1           0       -1.822644    5.131158   -1.466307
     40          8           0        1.431584   -1.276410   -1.525376
     41          1           0        1.633973   -2.162047   -1.875960
     42          1           0        1.530823   -1.368002   -0.552929
     43          8           0        1.421076   -4.283183    0.840258
     44          1           0        1.664239   -3.386259    1.122434
     45          1           0        1.605265   -4.297440   -0.114716
     46          8           0       -1.336802    1.128389    1.590904
     47          1           0       -1.582161    0.199996    1.739105
     48          1           0       -0.356852    1.140670    1.653657
 ---------------------------------------------------------------------
                    Distance matrix (angstroms):
                    1          2          3          4          5
     1  O    0.000000
     2  H    0.982024   0.000000
     3  H    0.971607   1.547005   0.000000
     4  O    3.993233   3.407668   4.856471   0.000000
     5  H    3.443127   3.074080   4.361151   0.991068   0.000000
     6  H    4.765488   4.199491   5.606488   0.961902   1.562945
     7  O    4.811298   4.374069   4.681356   6.413340   6.559081
     8  H    4.363813   3.835863   4.171132   6.024994   6.185168
     9  H    5.627838   5.226856   5.385263   7.355087   7.514679
    10  O    3.899704   4.075102   3.577272   6.874606   6.609839
    11  H    3.577106   3.841410   3.462240   6.406193   6.073439
    12  H    4.076826   4.014258   3.843209   6.588282   6.463675
    13  O    3.900996   3.374594   4.362176   4.143373   4.317733
    14  H    4.362656   3.836738   4.636591   4.987157   5.194053
    15  H    3.375066   3.080571   3.836867   4.315666   4.262819
    16  O    4.786185   4.369452   5.638502   2.863581   3.065317
    17  H    4.578777   4.084023   5.331158   3.213324   3.481823
    18  H    4.515645   4.005364   5.398082   1.924919   2.277664
    19  O    6.179641   6.287930   5.536627   9.318694   9.140884
    20  H    5.942272   6.074819   5.191775   9.255837   9.050676
    21  H    5.474111   5.643202   4.902874   8.638104   8.412082
    22  O    2.764127   1.792879   3.216956   2.809437   3.042326
    23  H    3.139968   2.240831   3.769732   1.898649   2.289424
    24  H    3.035545   2.185849   3.524369   3.050161   3.305753
    25  O    5.616664   5.704202   4.727615   8.978886   8.773933
    26  H    6.337223   6.457949   5.409928   9.741972   9.519218
    27  H    5.742730   5.659151   4.920310   8.772477   8.675972
    28  O    2.813380   3.009802   1.950011   6.392697   6.071577
    29  H    3.749132   3.941454   2.838695   7.310219   7.008519
    30  H    2.986457   3.221116   2.302668   6.505160   6.184279
    31  O    4.144265   4.315178   4.988604   4.038023   3.494280
    32  H    5.059228   5.270313   5.886548   4.754995   4.226773
    33  H    4.318397   4.262088   5.194861   3.493988   3.173271
    34  O    6.121915   5.765877   5.473611   8.456345   8.553934
    35  H    6.406055   6.046550   5.819725   8.654774   8.778579
    36  H    5.442166   4.985593   4.878544   7.538580   7.674474
    37  O    6.881505   6.594117   6.413168   9.065460   9.176957
    38  H    6.615279   6.467858   6.079139   9.175231   9.179963
    39  H    7.819376   7.531063   7.361265   9.911471  10.051996
    40  O    2.765011   3.033884   3.193416   4.861167   4.430497
    41  H    3.194675   3.488666   3.800262   4.669334   4.167776
    42  H    1.794012   2.188575   2.277671   4.432748   3.922815
    43  O    2.842958   3.001786   3.765009   2.682317   1.703768
    44  H    1.941422   2.275032   2.825091   3.107708   2.217842
    45  H    3.141681   3.366113   4.071058   3.067652   2.192997
    46  O    3.781162   3.166281   3.444867   5.614671   5.740985
    47  H    3.444527   2.651485   3.326424   4.724765   4.917516
    48  H    3.166725   2.767889   2.652150   5.703861   5.659036
                    6          7          8          9         10
     6  H    0.000000
     7  O    7.292326   0.000000
     8  H    6.861908   0.981811   0.000000
     9  H    8.219035   0.973798   1.546589   0.000000
    10  O    7.812810   2.763934   3.035840   3.140758   0.000000
    11  H    7.354561   3.218092   3.526072   3.771355   0.971611
    12  H    7.525414   1.792770   2.186184   2.241934   0.982014
    13  O    5.058236   2.811650   2.986012   3.747155   3.773402
    14  H    5.884816   1.947100   2.301138   2.835687   3.436406
    15  H    5.270774   3.011514   3.223962   3.942778   3.160224
    16  O    3.568187   5.651152   5.719584   6.584363   6.115645
    17  H    4.017784   4.736618   4.853819   5.654230   5.434867
    18  H    2.606706   5.854211   5.758997   6.805127   6.399062
    19  O   10.216501   3.844898   4.048732   3.430597   2.842702
    20  H   10.118518   4.178806   4.155183   3.838193   3.140224
    21  H    9.554990   3.489728   3.759381   3.298151   1.940943
    22  O    3.570211   3.982870   3.384662   4.852590   4.805874
    23  H    2.607345   4.852002   4.311988   5.742528   5.622102
    24  H    3.912856   3.383974   2.990749   4.311803   4.356993
    25  O    9.740994   4.855606   4.427297   4.664463   4.141173
    26  H   10.468132   5.789306   5.334187   5.555121   5.055767
    27  H    9.516634   4.425252   3.917597   4.163033   4.316545
    28  O    7.181623   3.906885   3.385774   4.310895   2.764670
    29  H    8.076816   4.308488   3.790971   4.512160   3.193537
    30  H    7.363720   3.385814   3.096624   3.793604   1.793590
    31  O    4.755468   6.395231   6.508638   7.312880   5.616065
    32  H    5.380301   7.184298   7.367255   8.079571   6.336645
    33  H    4.226942   6.071838   6.185544   7.008587   5.739884
    34  O    9.166006   3.823047   3.230025   3.450263   4.786731
    35  H    9.412250   3.336632   2.961096   2.766021   4.517636
    36  H    8.228792   3.390752   2.623417   3.236363   4.579633
    37  O    9.911645   2.809246   3.050428   1.898191   3.996465
    38  H   10.050585   3.040775   3.305016   2.287549   3.445735
    39  H   10.756830   3.569973   3.913159   2.607001   4.768353
    40  O    5.794926   4.102632   4.258243   4.932145   2.813215
    41  H    5.560393   4.931236   5.106298   5.786100   3.749122
    42  H    5.339490   4.257903   4.187203   5.106992   2.987040
    43  O    3.190008   6.841217   6.531937   7.781194   6.177723
    44  H    3.719701   6.302514   5.943397   7.207655   5.472756
    45  H    3.671355   6.724429   6.553897   7.670066   5.940969
    46  O    6.334231   2.764309   1.793218   3.194302   3.901498
    47  H    5.406243   3.192257   2.276584   3.799263   4.362447
    48  H    6.456579   3.033514   2.187985   3.489106   3.375429
                   11         12         13         14         15
    11  H    0.000000
    12  H    1.547438   0.000000
    13  O    3.437388   3.159400   0.000000
    14  H    3.319090   2.643718   0.971657   0.000000
    15  H    2.645307   2.763170   0.982025   1.547496   0.000000
    16  O    5.467257   5.760470   2.841668   3.763379   3.001958
    17  H    4.871200   4.979179   1.939789   2.823086   2.274658
    18  H    5.812624   6.040540   3.140658   4.069521   3.366513
    19  O    3.764441   3.000632   6.112445   5.461977   5.759555
    20  H    4.069643   3.364025   6.395575   5.806966   6.039269
    21  H    2.824288   2.273317   5.432713   4.866968   4.979020
    22  O    4.676594   4.369645   2.764182   3.192132   3.033709
    23  H    5.379955   5.222012   3.193671   3.798726   3.488583
    24  H    4.164960   3.829992   1.793034   2.276306   2.188003
    25  O    4.985876   4.312075   6.870683   6.400227   6.586300
    26  H    5.883415   5.267055   7.809269   7.348782   7.523821
    27  H    5.193510   4.260107   6.605757   6.067478   6.461673
    28  O    3.193359   3.033541   4.805817   4.675250   4.370680
    29  H    3.799379   3.487639   5.621139   5.377477   5.222404
    30  H    2.277314   2.188070   4.357017   4.163833   3.831002
    31  O    4.726656   5.704806   3.991777   4.855827   3.407238
    32  H    5.409134   6.458252   4.764047   5.605906   4.199141
    33  H    4.917119   5.657464   3.441381   4.359905   3.073556
    34  O    5.639689   4.369921   6.174628   5.529698   6.286634
    35  H    5.400516   4.007167   5.938143   5.185802   6.074633
    36  H    5.332866   4.084751   5.469389   4.896349   5.642193
    37  O    4.859733   3.410748   5.613732   4.723099   5.705037
    38  H    4.363549   3.076206   5.737731   4.913327   5.657847
    39  H    5.609193   4.202170   6.333167   5.404646   6.457396
    40  O    1.949271   3.011992   2.763783   3.217688   1.792614
    41  H    2.838351   3.943153   3.139178   3.769949   2.240350
    42  H    2.302762   3.223923   3.035616   3.525338   2.186059
    43  O    5.534159   6.287485   4.785184   5.637984   4.369665
    44  H    4.900890   5.643551   4.578821   5.331814   4.085065
    45  H    5.189944   6.074984   4.514600   5.397671   4.005465
    46  O    4.363922   3.375042   3.898994   3.575538   4.077251
    47  H    4.637718   3.836437   3.576270   3.460559   3.843189
    48  H    3.838371   3.080824   4.074933   3.840196   4.015242
                   16         17         18         19         20
    16  O    0.000000
    17  H    0.971229   0.000000
    18  H    0.972673   1.537582   0.000000
    19  O    8.756146   7.973734   8.992436   0.000000
    20  H    8.992038   8.243670   9.131513   0.972694   0.000000
    21  H    7.975484   7.230514   8.245916   0.971207   1.537436
    22  O    3.824552   3.391757   3.337548   6.837026   6.719636
    23  H    3.451445   3.236994   2.766805   7.776874   7.665375
    24  H    3.231409   2.624430   2.961883   6.526025   6.547427
    25  O    9.316735   8.634373   9.254285   2.863366   1.924634
    26  H   10.215223   9.551769  10.117742   3.566819   2.605342
    27  H    9.137390   8.407070   9.047550   3.064725   2.276970
    28  O    6.838473   6.297712   6.721385   3.828468   3.340685
    29  H    7.777669   7.201827   7.666415   3.455360   2.770257
    30  H    6.528157   5.937538   6.549845   3.235306   2.964534
    31  O    2.682313   3.107117   3.067481   8.458733   8.656915
    32  H    3.189616   3.719043   3.670726   9.169305   9.415427
    33  H    1.703678   2.217193   2.192698   8.552703   8.777019
    34  O    8.787298   7.984382   8.672013   3.800228   3.356830
    35  H    8.672021   7.814169   8.655973   3.357711   3.150171
    36  H    7.985282   7.205885   7.814967   4.207488   3.812969
    37  O    8.455375   7.536942   8.653899   2.682152   3.067223
    38  H    8.551182   7.670881   8.775872   1.703620   2.192587
    39  H    9.164414   8.226675   9.410961   3.190042   3.671467
    40  O    3.849609   3.493560   4.184133   5.653982   5.856537
    41  H    3.435169   3.301545   3.843188   6.587755   6.808110
    42  H    4.052548   3.762104   4.159903   5.722834   5.761819
    43  O    3.800367   4.207526   3.357175   8.792382   8.676892
    44  H    4.208241   4.412617   3.813993   7.991289   7.820725
    45  H    3.357431   3.813513   3.150080   8.676813   8.660551
    46  O    6.176004   5.469874   5.938961   4.784831   4.513488
    47  H    5.531841   4.897624   5.187371   5.637229   5.396306
    48  H    6.286334   5.640800   6.073521   4.370031   4.004996
                   21         22         23         24         25
    21  H    0.000000
    22  O    6.297528   0.000000
    23  H    7.202487   0.973775   0.000000
    24  H    5.936604   0.981816   1.546454   0.000000
    25  O    3.212991   6.390344   7.308464   6.502256   0.000000
    26  H    4.016591   7.180172   8.076035   7.361548   0.961906
    27  H    3.481507   6.068825   7.005994   6.181095   0.991090
    28  O    3.396089   4.096241   4.926155   4.251132   2.810153
    29  H    3.240984   4.925482   5.780777   5.099621   1.899812
    30  H    2.628848   4.251068   5.100336   4.179263   3.049837
    31  O    7.541237   4.859975   4.668056   4.431001   9.066545
    32  H    8.232407   5.793591   5.558838   5.337644   9.913680
    33  H    7.673652   4.428909   4.166097   3.920777   9.174579
    34  O    4.208231   5.651715   6.585058   5.718975   2.682299
    35  H    3.814777   5.855194   6.805990   5.758863   3.067964
    36  H    4.412734   4.737806   5.655465   4.853921   3.106836
    37  O    3.108139   6.414400   7.355702   6.024902   4.038004
    38  H    2.218361   6.558387   7.513661   6.183084   3.494071
    39  H    3.719985   7.293543   8.219722   6.861913   4.756339
    40  O    4.739911   3.907439   4.310225   3.385869   6.414248
    41  H    5.658168   4.310017   4.512479   3.792051   7.356514
    42  H    4.857569   3.386554   3.793001   3.096839   6.026427
    43  O    7.990460   3.848765   3.434226   4.051411   8.459559
    44  H    7.212733   3.493623   3.301547   3.761926   7.542629
    45  H    7.819918   4.183201   3.842180   4.158592   8.657574
    46  O    4.578541   2.812141   3.747514   2.985772   3.989971
    47  H    5.331009   1.948527   2.836681   2.301795   4.854036
    48  H    4.085506   3.009162   3.940819   3.220938   3.405539
                   26         27         28         29         30
    26  H    0.000000
    27  H    1.562865   0.000000
    28  O    3.571038   3.043869   0.000000
    29  H    2.608315   2.291357   0.973750   0.000000
    30  H    3.912447   3.306512   0.981789   1.546214   0.000000
    31  O    9.913756   9.176566   6.415980   7.357696   6.026735
    32  H   10.760074  10.052579   7.295800   8.222586   6.864603
    33  H   10.050837   9.177811   6.559375   7.514653   6.184492
    34  O    3.189504   1.703637   3.851854   3.437119   4.054412
    35  H    3.670754   2.193002   4.187499   3.846196   4.163115
    36  H    3.718949   2.216945   3.495784   3.303316   3.763950
    37  O    4.754214   3.493922   4.865150   4.672700   4.436809
    38  H    4.225633   3.172985   4.434307   4.171055   3.926718
    39  H    5.380430   4.227862   5.798959   5.564049   5.343435
    40  O    7.293679   6.559947   3.984992   4.854062   3.385881
    41  H    8.221103   7.515594   4.854818   5.744936   4.313907
    42  H    6.863977   6.186538   3.386669   4.314051   2.992288
    43  O    9.170618   8.555695   5.654345   6.588207   5.721650
    44  H    8.234151   7.677337   4.740852   5.659107   4.856938
    45  H    9.416385   8.779834   5.857582   6.808959   5.761329
    46  O    4.762695   3.440054   2.764082   3.138809   3.035853
    47  H    5.604745   4.358744   3.217043   3.768989   3.524564
    48  H    4.197809   3.072505   1.792880   2.239802   2.186299
                   31         32         33         34         35
    31  O    0.000000
    32  H    0.961912   0.000000
    33  H    0.991091   1.562862   0.000000
    34  O    9.322029  10.220000   9.140796   0.000000
    35  H    9.259781  10.122564   9.051069   0.972654   0.000000
    36  H    8.640844   9.557756   8.411602   0.971224   1.537660
    37  O    8.983289   9.745432   8.774879   2.864001   1.925558
    38  H    8.776695   9.521171   8.676639   3.065533   2.278361
    39  H    9.744370  10.470374   9.518110   3.569589   2.608192
    40  O    2.810099   3.571079   3.042862   6.842982   6.726981
    41  H    1.899500   2.608305   2.290195   7.782230   7.671793
    42  H    3.050668   3.913466   3.306277   6.534033   6.556737
    43  O    2.863840   3.568229   3.065283   8.762470   8.998802
    44  H    3.213926   4.018211   3.482259   7.982626   8.253197
    45  H    1.925244   2.606825   2.277835   8.998254   9.137867
    46  O    6.878141   7.816360   6.611207   2.841719   3.141346
    47  H    6.408396   7.356602   6.073744   3.763617   4.070126
    48  H    6.592546   7.529946   6.465683   3.002478   3.367928
                   36         37         38         39         40
    36  H    0.000000
    37  O    3.214096   0.000000
    38  H    3.482368   0.991079   0.000000
    39  H    4.019205   0.961907   1.562988   0.000000
    40  O    6.303308   6.398589   6.075644   7.186822   0.000000
    41  H    7.207493   7.315485   7.012080   8.081265   0.973768
    42  H    5.944498   6.512206   6.189635   7.370148   0.981779
    43  O    7.981117   9.323908   9.144446  10.221143   3.825836
    44  H    7.238797   8.644300   8.416595   9.560666   3.393595
    45  H    8.251028   9.261089   9.054247  10.123034   3.338675
    46  O    1.940006   4.145064   4.318854   5.060113   4.812298
    47  H    2.823483   4.988541   5.194837   5.886328   4.681801
    48  H    2.275458   4.318000   4.264680   5.273207   4.375731
                   41         42         43         44         45
    41  H    0.000000
    42  H    1.546466   0.000000
    43  O    3.452880   3.232846   0.000000
    44  H    3.238824   2.626405   0.971197   0.000000
    45  H    2.768160   2.962967   0.972678   1.537618   0.000000
    46  O    5.627754   4.364775   6.120006   5.441301   6.403476
    47  H    5.384371   4.171655   5.470489   4.876538   5.815777
    48  H    5.227764   3.837418   5.765486   4.985990   6.045667
                   46         47         48
    46  O    0.000000
    47  H    0.971637   0.000000
    48  H    0.982034   1.547110   0.000000
 Stoichiometry    H32O16
 Framework group  C1[X(H32O16)]
 Deg. of freedom   138
 Full point group                 C1      NOp   1
 Largest Abelian subgroup         C1      NOp   1
 Largest concise Abelian subgroup C1      NOp   1
                         Standard orientation:                         
 ---------------------------------------------------------------------
 Center     Atomic      Atomic             Coordinates (Angstroms)
 Number     Number       Type             X           Y           Z
 ---------------------------------------------------------------------
      1          8           0        1.337583   -1.420915    1.339559
      2          1           0        1.337433   -1.498405    0.360597
      3          1           0        0.438916   -1.675183    1.607449
      4          8           0        4.278152   -1.493233   -1.361131
      5          1           0        4.322556   -1.542179   -0.372269
      6          1           0        4.952429   -2.094267   -1.691836
      7          8           0       -1.477147    1.335858   -1.421978
      8          1           0       -1.453665    0.357793   -1.504382
      9          1           0       -2.401693    1.574950   -1.612587
     10          8           0       -1.333640    1.420256    1.336937
     11          1           0       -0.434760    1.675007    1.603666
     12          1           0       -1.335250    1.496762    0.357909
     13          8           0        1.331869    1.419878   -1.333947
     14          1           0        0.432278    1.672813   -1.600176
     15          1           0        1.334362    1.497892   -0.355029
     16          8           0        4.173045    1.368162   -1.322915
     17          1           0        3.252342    1.544292   -1.577022
     18          1           0        4.304919    0.424905   -1.520320
     19          8           0       -4.175826    1.370099    1.316489
     20          1           0       -4.307316    0.427026    1.515126
     21          1           0       -3.255993    1.547336    1.572882
     22          8           0        1.473552   -1.339329   -1.420016
     23          1           0        2.398016   -1.577735   -1.611761
     24          1           0        1.449345   -0.361313   -1.502850
     25          8           0       -4.278607   -1.491097    1.359578
     26          1           0       -4.954407   -2.090616    1.689934
     27          1           0       -4.321545   -1.541392    0.370697
     28          8           0       -1.473314   -1.339473    1.425186
     29          1           0       -2.398096   -1.577753    1.615421
     30          1           0       -1.449566   -0.361433    1.507558
     31          8           0        4.281893    1.495548    1.354159
     32          1           0        4.957319    2.097082    1.681622
     33          1           0        4.322011    1.544238    0.365079
     34          8           0       -4.177166   -1.368726   -1.318007
     35          1           0       -4.309137   -0.425915   -1.517375
     36          1           0       -3.257235   -1.546044   -1.574057
     37          8           0       -4.281323    1.493061   -1.360765
     38          1           0       -4.323276    1.543481   -0.371859
     39          1           0       -4.955086    2.095067   -1.690760
     40          8           0        1.477034    1.339260    1.424844
     41          1           0        2.401945    1.578810    1.612936
     42          1           0        1.454124    0.361319    1.508494
     43          8           0        4.179921   -1.366226    1.316376
     44          1           0        3.260765   -1.543843    1.574888
     45          1           0        4.311432   -0.422861    1.513531
     46          8           0       -1.336020   -1.423451   -1.334207
     47          1           0       -0.436916   -1.676809   -1.601603
     48          1           0       -1.336300   -1.500396   -0.355193
 ---------------------------------------------------------------------
 Rotational constants (GHZ):           0.4553811           0.1483033           0.1465887
 Leave Link  202 at Tue Apr 20 10:36:11 2021, MaxMem= 12079595520 cpu:               6.4 elap:               0.2
 (Enter /s/ls4/groups/g0130/bin/g16/l301.exe)
 General basis read from cards:  (5D, 7F)
 Centers:       2      3      5      6      8      9     11     12     14     15
 Centers:      17     18     20     21     23     24     26     27     29     30
 Centers:      32     33     35     36     38     39     41     42     44     45
 Centers:      47     48
 S 4 1.00
     Exponent=  1.9069169000D+02 Coefficients=  7.0815167000D-04
     Exponent=  2.8605532000D+01 Coefficients=  5.4678827000D-03
     Exponent=  6.5095943000D+00 Coefficients=  2.7966605000D-02
     Exponent=  1.8412455000D+00 Coefficients=  1.0764538000D-01
 S 1 1.00
     Exponent=  5.9853725000D-01 Coefficients=  1.0000000000D+00
 S 1 1.00
     Exponent=  2.1397624000D-01 Coefficients=  1.0000000000D+00
 S 1 1.00
     Exponent=  8.0316286000D-02 Coefficients=  1.0000000000D+00
 P 1 1.00
     Exponent=  2.2920000000D+00 Coefficients=  1.0000000000D+00
 P 1 1.00
     Exponent=  8.3800000000D-01 Coefficients=  1.0000000000D+00
 P 1 1.00
     Exponent=  2.9200000000D-01 Coefficients=  1.0000000000D+00
 P 1 1.00
     Exponent=  8.4063199228D-02 Coefficients=  1.0000000000D+00
 D 1 1.00
     Exponent=  2.0620000000D+00 Coefficients=  1.0000000000D+00
 D 1 1.00
     Exponent=  6.6200000000D-01 Coefficients=  1.0000000000D+00
 F 1 1.00
     Exponent=  1.3970000000D+00 Coefficients=  1.0000000000D+00
 ****
 Centers:       1      4      7     10     13     16     19     22     25     28
 Centers:      31     34     37     40     43     46
 S 8 1.00
     Exponent=  1.1650646908D+05 Coefficients=  4.0383857939D-05
     Exponent=  1.7504349724D+04 Coefficients=  3.1255139004D-04
     Exponent=  3.9934513230D+03 Coefficients=  1.6341473495D-03
     Exponent=  1.1330063186D+03 Coefficients=  6.8283224757D-03
     Exponent=  3.6999569594D+02 Coefficients=  2.4124410221D-02
     Exponent=  1.3362074349D+02 Coefficients=  7.2730206154D-02
     Exponent=  5.2035643649D+01 Coefficients=  1.7934429892D-01
     Exponent=  2.1461939313D+01 Coefficients=  3.3059588895D-01
 S 2 1.00
     Exponent=  8.9835051252D+01 Coefficients=  9.6468652996D-02
     Exponent=  2.6428010844D+01 Coefficients=  9.4117481120D-01
 S 1 1.00
     Exponent=  9.2822824649D+00 Coefficients=  1.0000000000D+00
 S 1 1.00
     Exponent=  4.0947728533D+00 Coefficients=  1.0000000000D+00
 S 1 1.00
     Exponent=  1.3255349078D+00 Coefficients=  1.0000000000D+00
 S 1 1.00
     Exponent=  5.1877230787D-01 Coefficients=  1.0000000000D+00
 S 1 1.00
     Exponent=  1.9772676454D-01 Coefficients=  1.0000000000D+00
 S 1 1.00
     Exponent=  6.9638535104D-02 Coefficients=  1.0000000000D+00
 P 5 1.00
     Exponent=  1.9115255810D+02 Coefficients=  2.5115697705D-03
     Exponent=  4.5233356739D+01 Coefficients=  2.0039240864D-02
     Exponent=  1.4353465922D+01 Coefficients=  9.3609064762D-02
     Exponent=  5.2422371832D+00 Coefficients=  3.0618127124D-01
     Exponent=  2.0792418599D+00 Coefficients=  6.7810501439D-01
 P 1 1.00
     Exponent=  8.4282371424D-01 Coefficients=  1.0000000000D+00
 P 1 1.00
     Exponent=  3.3617694891D-01 Coefficients=  1.0000000000D+00
 P 1 1.00
     Exponent=  1.2863997974D-01 Coefficients=  1.0000000000D+00
 P 1 1.00
     Exponent=  4.3598162776D-02 Coefficients=  1.0000000000D+00
 D 1 1.00
     Exponent=  3.7750000000D+00 Coefficients=  1.0000000000D+00
 D 1 1.00
     Exponent=  1.3000000000D+00 Coefficients=  1.0000000000D+00
 D 1 1.00
     Exponent=  4.4400000000D-01 Coefficients=  1.0000000000D+00
 D 1 1.00
     Exponent=  1.2546378695D-01 Coefficients=  1.0000000000D+00
 F 1 1.00
     Exponent=  2.6660000000D+00 Coefficients=  1.0000000000D+00
 F 1 1.00
     Exponent=  8.5900000000D-01 Coefficients=  1.0000000000D+00
 G 1 1.00
     Exponent=  1.8460000000D+00 Coefficients=  1.0000000000D+00
 ****
 Ernie: Thresh=  0.10000D-02 Tol=  0.10000D-05 Strict=F.
 There are  2528 symmetry adapted cartesian basis functions of A   symmetry.
 There are  2112 symmetry adapted basis functions of A   symmetry.
  2112 basis functions,  2944 primitive gaussians,  2528 cartesian basis functions
    80 alpha electrons       80 beta electrons
       nuclear repulsion energy      1614.4857451697 Hartrees.
 IExCor= 4336 DFT=T Ex+Corr=M062X ExCW=0 ScaHFX=  0.540000
 ScaDFX=  1.000000  1.000000  1.000000  1.000000 ScalE2=  1.000000  1.000000
 IRadAn=      5 IRanWt=     -1 IRanGd=            0 ICorTp=0 IEmpDi=  4
 NAtoms=   48 NActive=   48 NUniq=   48 SFac= 1.00D+00 NAtFMM=   60 NAOKFM=F Big=F
 Integral buffers will be    131072 words long.
 Raffenetti 2 integral format.
 Two-electron integral symmetry is turned on.
 Leave Link  301 at Tue Apr 20 10:36:11 2021, MaxMem= 12079595520 cpu:               7.2 elap:               0.2
 (Enter /s/ls4/groups/g0130/bin/g16/l302.exe)
 NPDir=0 NMtPBC=     1 NCelOv=     1 NCel=       1 NClECP=     1 NCelD=      1
         NCelK=      1 NCelE2=     1 NClLst=     1 CellRange=     0.0.
 One-electron integrals computed using PRISM.
 One-electron integral symmetry used in STVInt
 NBasis=  2112 RedAO= T EigKep=  1.32D-06  NBF=  2112
 NBsUse=  2112 1.00D-06 EigRej= -1.00D+00 NBFU=  2112
 Precomputing XC quadrature grid using
 IXCGrd= 4 IRadAn=           5 IRanWt=          -1 IRanGd=           0 AccXCQ= 0.00D+00.
 Generated NRdTot=       0 NPtTot=           0 NUsed=           0 NTot=          32
 NSgBfM=  2404  2399  2403  2403  2404 MxSgAt=    48 MxSgA2=    48.
 Leave Link  302 at Tue Apr 20 10:37:30 2021, MaxMem= 12079595520 cpu:            3705.9 elap:              78.8
 (Enter /s/ls4/groups/g0130/bin/g16/l303.exe)
 DipDrv:  MaxL=1.
 Leave Link  303 at Tue Apr 20 10:38:12 2021, MaxMem= 12079595520 cpu:            1936.7 elap:              41.3
 (Enter /s/ls4/groups/g0130/bin/g16/l401.exe)
 SCF N**3 symmetry information disabled.
 ExpMin= 4.36D-02 ExpMax= 1.17D+05 ExpMxC= 1.13D+03 IAcc=3 IRadAn=         5 AccDes= 0.00D+00
 Harris functional with IExCor= 1009 and IRadAn=       5 diagonalized for initial guess.
 HarFok:  IExCor= 1009 AccDes= 0.00D+00 IRadAn=         5 IDoV= 1 UseB2=F ITyADJ=14
 ICtDFT=  3500011 ScaDFX=  1.000000  1.000000  1.000000  1.000000
 FoFCou: FMM=F IPFlag=           0 FMFlag=      100000 FMFlg1=           0
         NFxFlg=           0 DoJE=T BraDBF=F KetDBF=T FulRan=T
         wScrn=  0.000000 ICntrl=       500 IOpCl=  0 I1Cent=   200000004 NGrid=           0
         NMat0=    1 NMatS0=      1 NMatT0=    0 NMatD0=    1 NMtDS0=    0 NMtDT0=    0
 Petite list used in FoFCou.
 Harris En= -1222.91422727576    
 JPrj=0 DoOrth=F DoCkMO=F.
 Leave Link  401 at Tue Apr 20 10:38:52 2021, MaxMem= 12079595520 cpu:            1879.4 elap:              39.9
 (Enter /s/ls4/groups/g0130/bin/g16/l502.exe)
 Integral symmetry usage will be decided dynamically.
 Closed shell SCF:
 Using DIIS extrapolation, IDIIS=  1040.
 NGot= 12079595520 LenX= 12066673188 LenY= 12060279876
 Requested convergence on RMS density matrix=1.00D-08 within 128 cycles.
 Requested convergence on MAX density matrix=1.00D-06.
 Requested convergence on             energy=1.00D-06.
 No special actions if energy rises.
 Fock matrices will be formed incrementally for  20 cycles.

 Cycle   1  Pass 1  IDiag  1:
 FoFJK:  IHMeth= 1 ICntrl=       0 DoSepK=F KAlg= 0 I1Cent=           0 FoldK=F
 IRaf= 730000000 NMat=       1 IRICut=       1 DoRegI=T DoRafI=F ISym2E= 0 IDoP0=0 IntGTp=1.
 FoFCou: FMM=F IPFlag=           0 FMFlag=      100000 FMFlg1=           0
         NFxFlg=           0 DoJE=F BraDBF=F KetDBF=F FulRan=T
         wScrn=  0.000000 ICntrl=         0 IOpCl=  0 I1Cent=           0 NGrid=           0
         NMat0=    1 NMatS0=      1 NMatT0=    0 NMatD0=    1 NMtDS0=    0 NMtDT0=    0
 Symmetry not used in FoFCou.
 E= -1222.32403178390    
 DIIS: error= 2.80D-02 at cycle   1 NSaved=   1.
 NSaved= 1 IEnMin= 1 EnMin= -1222.32403178390     IErMin= 1 ErrMin= 2.80D-02
 ErrMax= 2.80D-02  0.00D+00 EMaxC= 1.00D-01 BMatC= 1.93D+00 BMatP= 1.93D+00
 IDIUse=3 WtCom= 7.20D-01 WtEn= 2.80D-01
 Coeff-Com:  0.100D+01
 Coeff-En:   0.100D+01
 Coeff:      0.100D+01
 Gap=     0.310 Goal=   None    Shift=    0.000
 GapD=    0.310 DampG=1.000 DampE=0.500 DampFc=0.5000 IDamp=-1.
 Damping current iteration by 5.00D-01
 RMSDP=1.33D-03 MaxDP=1.32D-01              OVMax= 1.45D-01

 Cycle   2  Pass 1  IDiag  1:
 RMSU=  6.12D-04    CP:  8.96D-01
 E= -1222.76347105797     Delta-E=       -0.439439274071 Rises=F Damp=T
 DIIS: error= 1.56D-02 at cycle   2 NSaved=   2.
 NSaved= 2 IEnMin= 2 EnMin= -1222.76347105797     IErMin= 2 ErrMin= 1.56D-02
 ErrMax= 1.56D-02  0.00D+00 EMaxC= 1.00D-01 BMatC= 1.87D-01 BMatP= 1.93D+00
 IDIUse=3 WtCom= 8.44D-01 WtEn= 1.56D-01
 Coeff-Com: -0.299D-01 0.103D+01
 Coeff-En:   0.569D-01 0.943D+00
 Coeff:     -0.163D-01 0.102D+01
 Gap=     0.396 Goal=   None    Shift=    0.000
 RMSDP=7.42D-04 MaxDP=7.11D-02 DE=-4.39D-01 OVMax= 8.36D-02

 Cycle   3  Pass 1  IDiag  1:
 RMSU=  6.23D-04    CP:  8.43D-01  1.62D+00
 E= -1223.25132792278     Delta-E=       -0.487856864804 Rises=F Damp=F
 DIIS: error= 1.55D-03 at cycle   3 NSaved=   3.
 NSaved= 3 IEnMin= 3 EnMin= -1223.25132792278     IErMin= 3 ErrMin= 1.55D-03
 ErrMax= 1.55D-03  0.00D+00 EMaxC= 1.00D-01 BMatC= 8.75D-03 BMatP= 1.87D-01
 IDIUse=3 WtCom= 9.84D-01 WtEn= 1.55D-02
 Coeff-Com: -0.649D-01 0.127D+00 0.938D+00
 Coeff-En:   0.000D+00 0.000D+00 0.100D+01
 Coeff:     -0.639D-01 0.125D+00 0.939D+00
 Gap=     0.388 Goal=   None    Shift=    0.000
 RMSDP=1.01D-04 MaxDP=2.06D-02 DE=-4.88D-01 OVMax= 6.15D-03

 Cycle   4  Pass 1  IDiag  1:
 RMSU=  8.59D-05    CP:  8.51D-01  1.70D+00  9.85D-01
 E= -1223.25653495077     Delta-E=       -0.005207027990 Rises=F Damp=F
 DIIS: error= 2.88D-04 at cycle   4 NSaved=   4.
 NSaved= 4 IEnMin= 4 EnMin= -1223.25653495077     IErMin= 4 ErrMin= 2.88D-04
 ErrMax= 2.88D-04  0.00D+00 EMaxC= 1.00D-01 BMatC= 2.65D-04 BMatP= 8.75D-03
 IDIUse=3 WtCom= 9.97D-01 WtEn= 2.88D-03
 Coeff-Com: -0.244D-01 0.472D-01 0.370D+00 0.607D+00
 Coeff-En:   0.000D+00 0.000D+00 0.000D+00 0.100D+01
 Coeff:     -0.243D-01 0.471D-01 0.369D+00 0.609D+00
 Gap=     0.388 Goal=   None    Shift=    0.000
 RMSDP=1.55D-05 MaxDP=1.20D-03 DE=-5.21D-03 OVMax= 1.37D-03

 Cycle   5  Pass 1  IDiag  1:
 RMSU=  1.42D-05    CP:  8.51D-01  1.70D+00  9.83D-01  1.07D+00
 E= -1223.25667842849     Delta-E=       -0.000143477718 Rises=F Damp=F
 DIIS: error= 9.11D-05 at cycle   5 NSaved=   5.
 NSaved= 5 IEnMin= 5 EnMin= -1223.25667842849     IErMin= 5 ErrMin= 9.11D-05
 ErrMax= 9.11D-05  0.00D+00 EMaxC= 1.00D-01 BMatC= 2.56D-05 BMatP= 2.65D-04
 IDIUse=1 WtCom= 1.00D+00 WtEn= 0.00D+00
 Coeff-Com:  0.310D-02-0.535D-02-0.361D-01 0.205D+00 0.834D+00
 Coeff:      0.310D-02-0.535D-02-0.361D-01 0.205D+00 0.834D+00
 Gap=     0.387 Goal=   None    Shift=    0.000
 RMSDP=9.66D-06 MaxDP=1.00D-03 DE=-1.43D-04 OVMax= 4.02D-04

 Cycle   6  Pass 1  IDiag  1:
 RMSU=  6.36D-06    CP:  8.51D-01  1.70D+00  9.84D-01  1.14D+00  1.25D+00
 E= -1223.25669443693     Delta-E=       -0.000016008448 Rises=F Damp=F
 DIIS: error= 1.62D-05 at cycle   6 NSaved=   6.
 NSaved= 6 IEnMin= 6 EnMin= -1223.25669443693     IErMin= 6 ErrMin= 1.62D-05
 ErrMax= 1.62D-05  0.00D+00 EMaxC= 1.00D-01 BMatC= 5.06D-07 BMatP= 2.56D-05
 IDIUse=1 WtCom= 1.00D+00 WtEn= 0.00D+00
 Coeff-Com:  0.118D-02-0.226D-02-0.173D-01 0.302D-02 0.133D+00 0.883D+00
 Coeff:      0.118D-02-0.226D-02-0.173D-01 0.302D-02 0.133D+00 0.883D+00
 Gap=     0.387 Goal=   None    Shift=    0.000
 RMSDP=1.36D-06 MaxDP=2.70D-04 DE=-1.60D-05 OVMax= 8.08D-05

 Cycle   7  Pass 1  IDiag  1:
 RMSU=  1.10D-06    CP:  8.51D-01  1.70D+00  9.83D-01  1.14D+00  1.29D+00
                    CP:  1.04D+00
 E= -1223.25669481389     Delta-E=       -0.000000376955 Rises=F Damp=F
 DIIS: error= 5.39D-06 at cycle   7 NSaved=   7.
 NSaved= 7 IEnMin= 7 EnMin= -1223.25669481389     IErMin= 7 ErrMin= 5.39D-06
 ErrMax= 5.39D-06  0.00D+00 EMaxC= 1.00D-01 BMatC= 5.57D-08 BMatP= 5.06D-07
 IDIUse=1 WtCom= 1.00D+00 WtEn= 0.00D+00
 Coeff-Com:  0.104D-04-0.849D-04-0.117D-02-0.891D-02-0.869D-02 0.224D+00
 Coeff-Com:  0.795D+00
 Coeff:      0.104D-04-0.849D-04-0.117D-02-0.891D-02-0.869D-02 0.224D+00
 Coeff:      0.795D+00
 Gap=     0.387 Goal=   None    Shift=    0.000
 RMSDP=4.60D-07 MaxDP=6.18D-05 DE=-3.77D-07 OVMax= 2.87D-05

 Cycle   8  Pass 1  IDiag  1:
 RMSU=  3.76D-07    CP:  8.51D-01  1.70D+00  9.83D-01  1.14D+00  1.28D+00
                    CP:  1.04D+00  1.07D+00
 E= -1223.25669485111     Delta-E=       -0.000000037224 Rises=F Damp=F
 DIIS: error= 2.12D-06 at cycle   8 NSaved=   8.
 NSaved= 8 IEnMin= 8 EnMin= -1223.25669485111     IErMin= 8 ErrMin= 2.12D-06
 ErrMax= 2.12D-06  0.00D+00 EMaxC= 1.00D-01 BMatC= 1.09D-08 BMatP= 5.57D-08
 IDIUse=1 WtCom= 1.00D+00 WtEn= 0.00D+00
 Coeff-Com: -0.882D-04 0.143D-03 0.734D-03-0.404D-02-0.144D-01 0.196D-01
 Coeff-Com:  0.323D+00 0.675D+00
 Coeff:     -0.882D-04 0.143D-03 0.734D-03-0.404D-02-0.144D-01 0.196D-01
 Coeff:      0.323D+00 0.675D+00
 Gap=     0.387 Goal=   None    Shift=    0.000
 RMSDP=1.17D-07 MaxDP=2.74D-05 DE=-3.72D-08 OVMax= 1.17D-05

 Cycle   9  Pass 1  IDiag  1:
 RMSU=  8.46D-08    CP:  8.51D-01  1.70D+00  9.83D-01  1.14D+00  1.28D+00
                    CP:  1.04D+00  1.12D+00  1.09D+00
 E= -1223.25669485769     Delta-E=       -0.000000006579 Rises=F Damp=F
 DIIS: error= 8.13D-07 at cycle   9 NSaved=   9.
 NSaved= 9 IEnMin= 9 EnMin= -1223.25669485769     IErMin= 9 ErrMin= 8.13D-07
 ErrMax= 8.13D-07  0.00D+00 EMaxC= 1.00D-01 BMatC= 1.69D-09 BMatP= 1.09D-08
 IDIUse=1 WtCom= 1.00D+00 WtEn= 0.00D+00
 Coeff-Com: -0.345D-04 0.691D-04 0.407D-03-0.185D-03-0.456D-02-0.311D-01
 Coeff-Com: -0.701D-02 0.298D+00 0.744D+00
 Coeff:     -0.345D-04 0.691D-04 0.407D-03-0.185D-03-0.456D-02-0.311D-01
 Coeff:     -0.701D-02 0.298D+00 0.744D+00
 Gap=     0.387 Goal=   None    Shift=    0.000
 RMSDP=6.16D-08 MaxDP=1.73D-05 DE=-6.58D-09 OVMax= 4.80D-06

 Cycle  10  Pass 1  IDiag  1:
 RMSU=  3.43D-08    CP:  8.51D-01  1.70D+00  9.83D-01  1.14D+00  1.29D+00
                    CP:  1.04D+00  1.15D+00  1.10D+00  8.81D-01
 E= -1223.25669485901     Delta-E=       -0.000000001318 Rises=F Damp=F
 DIIS: error= 1.11D-07 at cycle  10 NSaved=  10.
 NSaved=10 IEnMin=10 EnMin= -1223.25669485901     IErMin=10 ErrMin= 1.11D-07
 ErrMax= 1.11D-07  0.00D+00 EMaxC= 1.00D-01 BMatC= 2.45D-11 BMatP= 1.69D-09
 IDIUse=1 WtCom= 1.00D+00 WtEn= 0.00D+00
 Coeff-Com: -0.142D-05 0.536D-05 0.398D-04 0.104D-03-0.139D-03-0.407D-02
 Coeff-Com: -0.153D-01-0.992D-03 0.840D-01 0.936D+00
 Coeff:     -0.142D-05 0.536D-05 0.398D-04 0.104D-03-0.139D-03-0.407D-02
 Coeff:     -0.153D-01-0.992D-03 0.840D-01 0.936D+00
 Gap=     0.387 Goal=   None    Shift=    0.000
 RMSDP=1.03D-08 MaxDP=1.74D-06 DE=-1.32D-09 OVMax= 9.03D-07

 Cycle  11  Pass 1  IDiag  1:
 RMSU=  5.75D-09    CP:  8.51D-01  1.70D+00  9.83D-01  1.14D+00  1.29D+00
                    CP:  1.04D+00  1.15D+00  1.10D+00  9.24D-01  1.16D+00
 E= -1223.25669485901     Delta-E=       -0.000000000000 Rises=F Damp=F
 DIIS: error= 3.28D-08 at cycle  11 NSaved=  11.
 NSaved=11 IEnMin=11 EnMin= -1223.25669485901     IErMin=11 ErrMin= 3.28D-08
 ErrMax= 3.28D-08  0.00D+00 EMaxC= 1.00D-01 BMatC= 3.37D-12 BMatP= 2.45D-11
 IDIUse=1 WtCom= 1.00D+00 WtEn= 0.00D+00
 Coeff-Com:  0.106D-05-0.156D-05-0.235D-05 0.281D-04 0.157D-03 0.683D-03
 Coeff-Com: -0.325D-02-0.176D-01-0.231D-01 0.224D+00 0.819D+00
 Coeff:      0.106D-05-0.156D-05-0.235D-05 0.281D-04 0.157D-03 0.683D-03
 Coeff:     -0.325D-02-0.176D-01-0.231D-01 0.224D+00 0.819D+00
 Gap=     0.387 Goal=   None    Shift=    0.000
 RMSDP=2.93D-09 MaxDP=3.36D-07 DE=-4.55D-13 OVMax= 2.83D-07

 SCF Done:  E(RM062X) =  -1223.25669486     A.U. after   11 cycles
            NFock= 11  Conv=0.29D-08     -V/T= 2.0035
 KE= 1.219034274924D+03 PE=-6.121653368307D+03 EE= 2.064876653354D+03
 Leave Link  502 at Tue Apr 20 12:53:19 2021, MaxMem= 12079595520 cpu:          386186.7 elap:            8067.2
 (Enter /s/ls4/groups/g0130/bin/g16/l601.exe)
 Copying SCF densities to generalized density rwf, IOpCl= 0 IROHF=0.

 **********************************************************************

            Population analysis using the SCF density.

 **********************************************************************

 Orbital symmetries:
       Occupied  (A) (A) (A) (A) (A) (A) (A) (A) (A) (A) (A) (A)
                 (A) (A) (A) (A) (A) (A) (A) (A) (A) (A) (A) (A)
                 (A) (A) (A) (A) (A) (A) (A) (A) (A) (A) (A) (A)
                 (A) (A) (A) (A) (A) (A) (A) (A) (A) (A) (A) (A)
                 (A) (A) (A) (A) (A) (A) (A) (A) (A) (A) (A) (A)
                 (A) (A) (A) (A) (A) (A) (A) (A) (A) (A) (A) (A)
                 (A) (A) (A) (A) (A) (A) (A) (A)
       Virtual   (A) (A) (A) (A) (A) (A) (A) (A) (A) (A) (A) (A)
                 (A) (A) (A) (A) (A) (A) (A) (A) (A) (A) (A) (A)
                 (A) (A) (A) (A) (A) (A) (A) (A) (A) (A) (A) (A)
                 (A) (A) (A) (A) (A) (A) (A) (A) (A) (A) (A) (A)
                 (A) (A) (A) (A) (A) (A) (A) (A) (A) (A) (A) (A)
                 (A) (A) (A) (A) (A) (A) (A) (A) (A) (A) (A) (A)
                 (A) (A) (A) (A) (A) (A) (A) (A) (A) (A) (A) (A)
                 (A) (A) (A) (A) (A) (A) (A) (A) (A) (A) (A) (A)
                 (A) (A) (A) (A) (A) (A) (A) (A) (A) (A) (A) (A)
                 (A) (A) (A) (A) (A) (A) (A) (A) (A) (A) (A) (A)
                 (A) (A) (A) (A) (A) (A) (A) (A) (A) (A) (A) (A)
                 (A) (A) (A) (A) (A) (A) (A) (A) (A) (A) (A) (A)
                 (A) (A) (A) (A) (A) (A) (A) (A) (A) (A) (A) (A)
                 (A) (A) (A) (A) (A) (A) (A) (A) (A) (A) (A) (A)
                 (A) (A) (A) (A) (A) (A) (A) (A) (A) (A) (A) (A)
                 (A) (A) (A) (A) (A) (A) (A) (A) (A) (A) (A) (A)
                 (A) (A) (A) (A) (A) (A) (A) (A) (A) (A) (A) (A)
                 (A) (A) (A) (A) (A) (A) (A) (A) (A) (A) (A) (A)
                 (A) (A) (A) (A) (A) (A) (A) (A) (A) (A) (A) (A)
                 (A) (A) (A) (A) (A) (A) (A) (A) (A) (A) (A) (A)
                 (A) (A) (A) (A) (A) (A) (A) (A) (A) (A) (A) (A)
                 (A) (A) (A) (A) (A) (A) (A) (A) (A) (A) (A) (A)
                 (A) (A) (A) (A) (A) (A) (A) (A) (A) (A) (A) (A)
                 (A) (A) (A) (A) (A) (A) (A) (A) (A) (A) (A) (A)
                 (A) (A) (A) (A) (A) (A) (A) (A) (A) (A) (A) (A)
                 (A) (A) (A) (A) (A) (A) (A) (A) (A) (A) (A) (A)
                 (A) (A) (A) (A) (A) (A) (A) (A) (A) (A) (A) (A)
                 (A) (A) (A) (A) (A) (A) (A) (A) (A) (A) (A) (A)
                 (A) (A) (A) (A) (A) (A) (A) (A) (A) (A) (A) (A)
                 (A) (A) (A) (A) (A) (A) (A) (A) (A) (A) (A) (A)
                 (A) (A) (A) (A) (A) (A) (A) (A) (A) (A) (A) (A)
                 (A) (A) (A) (A) (A) (A) (A) (A) (A) (A) (A) (A)
                 (A) (A) (A) (A) (A) (A) (A) (A) (A) (A) (A) (A)
                 (A) (A) (A) (A) (A) (A) (A) (A) (A) (A) (A) (A)
                 (A) (A) (A) (A) (A) (A) (A) (A) (A) (A) (A) (A)
                 (A) (A) (A) (A) (A) (A) (A) (A) (A) (A) (A) (A)
                 (A) (A) (A) (A) (A) (A) (A) (A) (A) (A) (A) (A)
                 (A) (A) (A) (A) (A) (A) (A) (A) (A) (A) (A) (A)
                 (A) (A) (A) (A) (A) (A) (A) (A) (A) (A) (A) (A)
                 (A) (A) (A) (A) (A) (A) (A) (A) (A) (A) (A) (A)
                 (A) (A) (A) (A) (A) (A) (A) (A) (A) (A) (A) (A)
                 (A) (A) (A) (A) (A) (A) (A) (A) (A) (A) (A) (A)
                 (A) (A) (A) (A) (A) (A) (A) (A) (A) (A) (A) (A)
                 (A) (A) (A) (A) (A) (A) (A) (A) (A) (A) (A) (A)
                 (A) (A) (A) (A) (A) (A) (A) (A) (A) (A) (A) (A)
                 (A) (A) (A) (A) (A) (A) (A) (A) (A) (A) (A) (A)
                 (A) (A) (A) (A) (A) (A) (A) (A) (A) (A) (A) (A)
                 (A) (A) (A) (A) (A) (A) (A) (A) (A) (A) (A) (A)
                 (A) (A) (A) (A) (A) (A) (A) (A) (A) (A) (A) (A)
                 (A) (A) (A) (A) (A) (A) (A) (A) (A) (A) (A) (A)
                 (A) (A) (A) (A) (A) (A) (A) (A) (A) (A) (A) (A)
                 (A) (A) (A) (A) (A) (A) (A) (A) (A) (A) (A) (A)
                 (A) (A) (A) (A) (A) (A) (A) (A) (A) (A) (A) (A)
                 (A) (A) (A) (A) (A) (A) (A) (A) (A) (A) (A) (A)
                 (A) (A) (A) (A) (A) (A) (A) (A) (A) (A) (A) (A)
                 (A) (A) (A) (A) (A) (A) (A) (A) (A) (A) (A) (A)
                 (A) (A) (A) (A) (A) (A) (A) (A) (A) (A) (A) (A)
                 (A) (A) (A) (A) (A) (A) (A) (A) (A) (A) (A) (A)
                 (A) (A) (A) (A) (A) (A) (A) (A) (A) (A) (A) (A)
                 (A) (A) (A) (A) (A) (A) (A) (A) (A) (A) (A) (A)
                 (A) (A) (A) (A) (A) (A) (A) (A) (A) (A) (A) (A)
                 (A) (A) (A) (A) (A) (A) (A) (A) (A) (A) (A) (A)
                 (A) (A) (A) (A) (A) (A) (A) (A) (A) (A) (A) (A)
                 (A) (A) (A) (A) (A) (A) (A) (A) (A) (A) (A) (A)
                 (A) (A) (A) (A) (A) (A) (A) (A) (A) (A) (A) (A)
                 (A) (A) (A) (A) (A) (A) (A) (A) (A) (A) (A) (A)
                 (A) (A) (A) (A) (A) (A) (A) (A) (A) (A) (A) (A)
                 (A) (A) (A) (A) (A) (A) (A) (A) (A) (A) (A) (A)
                 (A) (A) (A) (A) (A) (A) (A) (A) (A) (A) (A) (A)
                 (A) (A) (A) (A) (A) (A) (A) (A) (A) (A) (A) (A)
                 (A) (A) (A) (A) (A) (A) (A) (A) (A) (A) (A) (A)
                 (A) (A) (A) (A) (A) (A) (A) (A) (A) (A) (A) (A)
                 (A) (A) (A) (A) (A) (A) (A) (A) (A) (A) (A) (A)
                 (A) (A) (A) (A) (A) (A) (A) (A) (A) (A) (A) (A)
                 (A) (A) (A) (A) (A) (A) (A) (A) (A) (A) (A) (A)
                 (A) (A) (A) (A) (A) (A) (A) (A) (A) (A) (A) (A)
                 (A) (A) (A) (A) (A) (A) (A) (A) (A) (A) (A) (A)
                 (A) (A) (A) (A) (A) (A) (A) (A) (A) (A) (A) (A)
                 (A) (A) (A) (A) (A) (A) (A) (A) (A) (A) (A) (A)
                 (A) (A) (A) (A) (A) (A) (A) (A) (A) (A) (A) (A)
                 (A) (A) (A) (A) (A) (A) (A) (A) (A) (A) (A) (A)
                 (A) (A) (A) (A) (A) (A) (A) (A) (A) (A) (A) (A)
                 (A) (A) (A) (A) (A) (A) (A) (A) (A) (A) (A) (A)
                 (A) (A) (A) (A) (A) (A) (A) (A) (A) (A) (A) (A)
                 (A) (A) (A) (A) (A) (A) (A) (A) (A) (A) (A) (A)
                 (A) (A) (A) (A) (A) (A) (A) (A) (A) (A) (A) (A)
                 (A) (A) (A) (A) (A) (A) (A) (A) (A) (A) (A) (A)
                 (A) (A) (A) (A) (A) (A) (A) (A) (A) (A) (A) (A)
                 (A) (A) (A) (A) (A) (A) (A) (A) (A) (A) (A) (A)
                 (A) (A) (A) (A) (A) (A) (A) (A) (A) (A) (A) (A)
                 (A) (A) (A) (A) (A) (A) (A) (A) (A) (A) (A) (A)
                 (A) (A) (A) (A) (A) (A) (A) (A) (A) (A) (A) (A)
                 (A) (A) (A) (A) (A) (A) (A) (A) (A) (A) (A) (A)
                 (A) (A) (A) (A) (A) (A) (A) (A) (A) (A) (A) (A)
                 (A) (A) (A) (A) (A) (A) (A) (A) (A) (A) (A) (A)
                 (A) (A) (A) (A) (A) (A) (A) (A) (A) (A) (A) (A)
                 (A) (A) (A) (A) (A) (A) (A) (A) (A) (A) (A) (A)
                 (A) (A) (A) (A) (A) (A) (A) (A) (A) (A) (A) (A)
                 (A) (A) (A) (A) (A) (A) (A) (A) (A) (A) (A) (A)
                 (A) (A) (A) (A) (A) (A) (A) (A) (A) (A) (A) (A)
                 (A) (A) (A) (A) (A) (A) (A) (A) (A) (A) (A) (A)
                 (A) (A) (A) (A) (A) (A) (A) (A) (A) (A) (A) (A)
                 (A) (A) (A) (A) (A) (A) (A) (A) (A) (A) (A) (A)
                 (A) (A) (A) (A) (A) (A) (A) (A) (A) (A) (A) (A)
                 (A) (A) (A) (A) (A) (A) (A) (A) (A) (A) (A) (A)
                 (A) (A) (A) (A) (A) (A) (A) (A) (A) (A) (A) (A)
                 (A) (A) (A) (A) (A) (A) (A) (A) (A) (A) (A) (A)
                 (A) (A) (A) (A) (A) (A) (A) (A) (A) (A) (A) (A)
                 (A) (A) (A) (A) (A) (A) (A) (A) (A) (A) (A) (A)
                 (A) (A) (A) (A) (A) (A) (A) (A) (A) (A) (A) (A)
                 (A) (A) (A) (A) (A) (A) (A) (A) (A) (A) (A) (A)
                 (A) (A) (A) (A) (A) (A) (A) (A) (A) (A) (A) (A)
                 (A) (A) (A) (A) (A) (A) (A) (A) (A) (A) (A) (A)
                 (A) (A) (A) (A) (A) (A) (A) (A) (A) (A) (A) (A)
                 (A) (A) (A) (A) (A) (A) (A) (A) (A) (A) (A) (A)
                 (A) (A) (A) (A) (A) (A) (A) (A) (A) (A) (A) (A)
                 (A) (A) (A) (A) (A) (A) (A) (A) (A) (A) (A) (A)
                 (A) (A) (A) (A) (A) (A) (A) (A) (A) (A) (A) (A)
                 (A) (A) (A) (A) (A) (A) (A) (A) (A) (A) (A) (A)
                 (A) (A) (A) (A) (A) (A) (A) (A) (A) (A) (A) (A)
                 (A) (A) (A) (A) (A) (A) (A) (A) (A) (A) (A) (A)
                 (A) (A) (A) (A) (A) (A) (A) (A) (A) (A) (A) (A)
                 (A) (A) (A) (A) (A) (A) (A) (A) (A) (A) (A) (A)
                 (A) (A) (A) (A) (A) (A) (A) (A) (A) (A) (A) (A)
                 (A) (A) (A) (A) (A) (A) (A) (A) (A) (A) (A) (A)
                 (A) (A) (A) (A) (A) (A) (A) (A) (A) (A) (A) (A)
                 (A) (A) (A) (A) (A) (A) (A) (A) (A) (A) (A) (A)
                 (A) (A) (A) (A) (A) (A) (A) (A) (A) (A) (A) (A)
                 (A) (A) (A) (A) (A) (A) (A) (A) (A) (A) (A) (A)
                 (A) (A) (A) (A) (A) (A) (A) (A) (A) (A) (A) (A)
                 (A) (A) (A) (A) (A) (A) (A) (A) (A) (A) (A) (A)
                 (A) (A) (A) (A) (A) (A) (A) (A) (A) (A) (A) (A)
                 (A) (A) (A) (A) (A) (A) (A) (A) (A) (A) (A) (A)
                 (A) (A) (A) (A) (A) (A) (A) (A) (A) (A) (A) (A)
                 (A) (A) (A) (A) (A) (A) (A) (A) (A) (A) (A) (A)
                 (A) (A) (A) (A) (A) (A) (A) (A) (A) (A) (A) (A)
                 (A) (A) (A) (A) (A) (A) (A) (A) (A) (A) (A) (A)
                 (A) (A) (A) (A) (A) (A) (A) (A) (A) (A) (A) (A)
                 (A) (A) (A) (A) (A) (A) (A) (A) (A) (A) (A) (A)
                 (A) (A) (A) (A) (A) (A) (A) (A) (A) (A) (A) (A)
                 (A) (A) (A) (A) (A) (A) (A) (A) (A) (A) (A) (A)
                 (A) (A) (A) (A) (A) (A) (A) (A) (A) (A) (A) (A)
                 (A) (A) (A) (A) (A) (A) (A) (A) (A) (A) (A) (A)
                 (A) (A) (A) (A) (A) (A) (A) (A) (A) (A) (A) (A)
                 (A) (A) (A) (A) (A) (A) (A) (A) (A) (A) (A) (A)
                 (A) (A) (A) (A) (A) (A) (A) (A) (A) (A) (A) (A)
                 (A) (A) (A) (A) (A) (A) (A) (A) (A) (A) (A) (A)
                 (A) (A) (A) (A) (A) (A) (A) (A) (A) (A) (A) (A)
                 (A) (A) (A) (A) (A) (A) (A) (A) (A) (A) (A) (A)
                 (A) (A) (A) (A) (A) (A) (A) (A) (A) (A) (A) (A)
                 (A) (A) (A) (A) (A) (A) (A) (A) (A) (A) (A) (A)
                 (A) (A) (A) (A) (A) (A) (A) (A) (A) (A) (A) (A)
                 (A) (A) (A) (A) (A) (A) (A) (A) (A) (A) (A) (A)
                 (A) (A) (A) (A) (A) (A) (A) (A) (A) (A) (A) (A)
                 (A) (A) (A) (A) (A) (A) (A) (A) (A) (A) (A) (A)
                 (A) (A) (A) (A) (A) (A) (A) (A) (A) (A) (A) (A)
                 (A) (A) (A) (A) (A) (A) (A) (A) (A) (A) (A) (A)
                 (A) (A) (A) (A) (A) (A) (A) (A) (A) (A) (A) (A)
                 (A) (A) (A) (A) (A) (A) (A) (A) (A) (A) (A) (A)
                 (A) (A) (A) (A) (A) (A) (A) (A) (A) (A) (A) (A)
                 (A) (A) (A) (A) (A) (A) (A) (A) (A) (A) (A) (A)
                 (A) (A) (A) (A) (A) (A) (A) (A) (A) (A) (A) (A)
                 (A) (A) (A) (A) (A) (A) (A) (A) (A) (A) (A) (A)
                 (A) (A) (A) (A) (A) (A) (A) (A) (A) (A) (A) (A)
                 (A) (A) (A) (A) (A) (A) (A) (A) (A) (A) (A) (A)
                 (A) (A) (A) (A) (A) (A) (A) (A) (A) (A) (A) (A)
                 (A) (A) (A) (A) (A) (A) (A) (A) (A) (A) (A) (A)
                 (A) (A) (A) (A) (A) (A) (A) (A) (A) (A) (A) (A)
                 (A) (A) (A) (A) (A) (A) (A) (A) (A) (A) (A) (A)
                 (A) (A) (A) (A)
 The electronic state is 1-A.
 Alpha  occ. eigenvalues --  -19.64085 -19.64084 -19.64082 -19.64081 -19.63065
 Alpha  occ. eigenvalues --  -19.63061 -19.63059 -19.63059 -19.62936 -19.62935
 Alpha  occ. eigenvalues --  -19.62930 -19.62930 -19.62470 -19.62467 -19.62466
 Alpha  occ. eigenvalues --  -19.62463  -1.16197  -1.15777  -1.15096  -1.15054
 Alpha  occ. eigenvalues --   -1.14983  -1.14373  -1.14343  -1.14187  -1.13478
 Alpha  occ. eigenvalues --   -1.13188  -1.13104  -1.12826  -1.12701  -1.12688
 Alpha  occ. eigenvalues --   -1.12136  -1.11554  -0.63568  -0.63440  -0.63364
 Alpha  occ. eigenvalues --   -0.63205  -0.62743  -0.62650  -0.62613  -0.62199
 Alpha  occ. eigenvalues --   -0.61553  -0.61230  -0.61213  -0.60760  -0.60423
 Alpha  occ. eigenvalues --   -0.60123  -0.60072  -0.60054  -0.55547  -0.53794
 Alpha  occ. eigenvalues --   -0.52008  -0.51954  -0.51207  -0.50830  -0.50085
 Alpha  occ. eigenvalues --   -0.49273  -0.48661  -0.48655  -0.47926  -0.47591
 Alpha  occ. eigenvalues --   -0.46506  -0.46369  -0.45533  -0.44144  -0.42338
 Alpha  occ. eigenvalues --   -0.42189  -0.42188  -0.42185  -0.41579  -0.41399
 Alpha  occ. eigenvalues --   -0.41384  -0.41109  -0.41059  -0.40816  -0.40792
 Alpha  occ. eigenvalues --   -0.40788  -0.40402  -0.40237  -0.40211  -0.40168
 Alpha virt. eigenvalues --   -0.01429  -0.00699   0.00398   0.00490   0.01533
 Alpha virt. eigenvalues --    0.02024   0.02240   0.03578   0.03933   0.04098
 Alpha virt. eigenvalues --    0.04243   0.04318   0.04490   0.05313   0.06352
 Alpha virt. eigenvalues --    0.06391   0.06524   0.06728   0.07269   0.07330
 Alpha virt. eigenvalues --    0.07416   0.07673   0.08357   0.08581   0.08703
 Alpha virt. eigenvalues --    0.09405   0.09594   0.09888   0.10352   0.10870
 Alpha virt. eigenvalues --    0.11105   0.11146   0.11169   0.11807   0.11926
 Alpha virt. eigenvalues --    0.12039   0.12526   0.12856   0.12880   0.12936
 Alpha virt. eigenvalues --    0.13278   0.13711   0.14016   0.14079   0.14644
 Alpha virt. eigenvalues --    0.14972   0.15204   0.15661   0.15779   0.15812
 Alpha virt. eigenvalues --    0.15865   0.16265   0.16528   0.16614   0.16711
 Alpha virt. eigenvalues --    0.18304   0.18498   0.18663   0.18738   0.19438
 Alpha virt. eigenvalues --    0.19907   0.20025   0.20077   0.20131   0.20662
 Alpha virt. eigenvalues --    0.20991   0.21515   0.21642   0.21753   0.21769
 Alpha virt. eigenvalues --    0.22024   0.22438   0.22470   0.22748   0.23111
 Alpha virt. eigenvalues --    0.23134   0.23430   0.23450   0.23541   0.24000
 Alpha virt. eigenvalues --    0.24309   0.24382   0.24503   0.24924   0.25279
 Alpha virt. eigenvalues --    0.25888   0.26121   0.26404   0.26439   0.26487
 Alpha virt. eigenvalues --    0.26758   0.26794   0.27081   0.27104   0.27352
 Alpha virt. eigenvalues --    0.27451   0.27718   0.27918   0.28020   0.28046
 Alpha virt. eigenvalues --    0.28253   0.28445   0.28721   0.28779   0.29153
 Alpha virt. eigenvalues --    0.29631   0.29761   0.29827   0.29916   0.30092
 Alpha virt. eigenvalues --    0.30323   0.30695   0.30733   0.30757   0.30839
 Alpha virt. eigenvalues --    0.30956   0.30965   0.31127   0.31762   0.31833
 Alpha virt. eigenvalues --    0.31999   0.32093   0.32301   0.32326   0.32823
 Alpha virt. eigenvalues --    0.33153   0.33606   0.33726   0.33787   0.33956
 Alpha virt. eigenvalues --    0.34264   0.34547   0.34900   0.35031   0.35195
 Alpha virt. eigenvalues --    0.35592   0.35690   0.35789   0.35919   0.36716
 Alpha virt. eigenvalues --    0.36840   0.36916   0.36977   0.37304   0.37413
 Alpha virt. eigenvalues --    0.37706   0.37778   0.38679   0.39048   0.39219
 Alpha virt. eigenvalues --    0.39435   0.39463   0.39581   0.39678   0.39796
 Alpha virt. eigenvalues --    0.40216   0.40900   0.41009   0.41566   0.41677
 Alpha virt. eigenvalues --    0.41713   0.42497   0.42839   0.42996   0.43036
 Alpha virt. eigenvalues --    0.43475   0.43508   0.43995   0.44176   0.44330
 Alpha virt. eigenvalues --    0.44385   0.45024   0.45791   0.46050   0.46193
 Alpha virt. eigenvalues --    0.47092   0.47325   0.47470   0.47514   0.47933
 Alpha virt. eigenvalues --    0.48053   0.48483   0.49103   0.49280   0.49302
 Alpha virt. eigenvalues --    0.49575   0.50311   0.50439   0.50458   0.51136
 Alpha virt. eigenvalues --    0.51176   0.51392   0.51646   0.51844   0.51890
 Alpha virt. eigenvalues --    0.52476   0.52715   0.53087   0.53112   0.53119
 Alpha virt. eigenvalues --    0.53989   0.54090   0.54517   0.54581   0.54961
 Alpha virt. eigenvalues --    0.55116   0.55405   0.55440   0.55589   0.55743
 Alpha virt. eigenvalues --    0.56176   0.56368   0.56521   0.56646   0.56744
 Alpha virt. eigenvalues --    0.57068   0.57253   0.57679   0.58045   0.58137
 Alpha virt. eigenvalues --    0.58998   0.59139   0.59272   0.59396   0.59584
 Alpha virt. eigenvalues --    0.59596   0.59619   0.60269   0.60823   0.60904
 Alpha virt. eigenvalues --    0.60908   0.61022   0.61279   0.61465   0.61784
 Alpha virt. eigenvalues --    0.61922   0.61945   0.62359   0.62472   0.62908
 Alpha virt. eigenvalues --    0.63377   0.63392   0.63446   0.63484   0.63785
 Alpha virt. eigenvalues --    0.63934   0.64237   0.64576   0.64707   0.64886
 Alpha virt. eigenvalues --    0.64961   0.65234   0.65594   0.65624   0.65984
 Alpha virt. eigenvalues --    0.66661   0.66873   0.67078   0.67323   0.67427
 Alpha virt. eigenvalues --    0.68445   0.68486   0.68663   0.68734   0.69010
 Alpha virt. eigenvalues --    0.69487   0.69782   0.70251   0.70480   0.70507
 Alpha virt. eigenvalues --    0.70609   0.70942   0.71265   0.72804   0.73011
 Alpha virt. eigenvalues --    0.73524   0.73585   0.73728   0.74267   0.74355
 Alpha virt. eigenvalues --    0.74942   0.75818   0.75829   0.76276   0.76309
 Alpha virt. eigenvalues --    0.76701   0.76810   0.76964   0.77201   0.77224
 Alpha virt. eigenvalues --    0.77514   0.77713   0.78446   0.78610   0.79182
 Alpha virt. eigenvalues --    0.79970   0.80066   0.80339   0.80726   0.81085
 Alpha virt. eigenvalues --    0.81547   0.81553   0.81765   0.82032   0.83005
 Alpha virt. eigenvalues --    0.83843   0.84193   0.84318   0.84631   0.84882
 Alpha virt. eigenvalues --    0.85072   0.85388   0.85922   0.86084   0.86283
 Alpha virt. eigenvalues --    0.86724   0.86858   0.86898   0.87735   0.88351
 Alpha virt. eigenvalues --    0.88419   0.88607   0.89400   0.89558   0.89823
 Alpha virt. eigenvalues --    0.89900   0.89962   0.90681   0.90775   0.91816
 Alpha virt. eigenvalues --    0.92357   0.92523   0.93207   0.93334   0.93779
 Alpha virt. eigenvalues --    0.94007   0.94288   0.95032   0.95222   0.95429
 Alpha virt. eigenvalues --    0.96081   0.96146   0.97123   0.97370   0.97467
 Alpha virt. eigenvalues --    0.98673   0.99098   0.99618   1.00476   1.01256
 Alpha virt. eigenvalues --    1.01711   1.01736   1.01859   1.02652   1.03380
 Alpha virt. eigenvalues --    1.03902   1.04572   1.05252   1.05439   1.05733
 Alpha virt. eigenvalues --    1.06334   1.06419   1.07515   1.07689   1.08222
 Alpha virt. eigenvalues --    1.08563   1.09156   1.09343   1.10064   1.10308
 Alpha virt. eigenvalues --    1.10859   1.11039   1.12042   1.12049   1.12254
 Alpha virt. eigenvalues --    1.12642   1.13056   1.13795   1.14358   1.14585
 Alpha virt. eigenvalues --    1.15352   1.15425   1.15564   1.16093   1.16404
 Alpha virt. eigenvalues --    1.16474   1.16651   1.17004   1.17686   1.17773
 Alpha virt. eigenvalues --    1.18157   1.18343   1.19198   1.19346   1.19406
 Alpha virt. eigenvalues --    1.19883   1.20218   1.20839   1.21263   1.21475
 Alpha virt. eigenvalues --    1.21949   1.22085   1.23304   1.23318   1.23431
 Alpha virt. eigenvalues --    1.23468   1.23642   1.24028   1.24140   1.24218
 Alpha virt. eigenvalues --    1.24300   1.24723   1.24987   1.25503   1.25730
 Alpha virt. eigenvalues --    1.25798   1.25828   1.26620   1.26957   1.27302
 Alpha virt. eigenvalues --    1.27562   1.28031   1.28067   1.28264   1.28278
 Alpha virt. eigenvalues --    1.29029   1.29330   1.29387   1.30252   1.30589
 Alpha virt. eigenvalues --    1.30663   1.31457   1.31603   1.32200   1.32232
 Alpha virt. eigenvalues --    1.32388   1.32738   1.33098   1.33745   1.33802
 Alpha virt. eigenvalues --    1.33999   1.34637   1.35120   1.36791   1.37251
 Alpha virt. eigenvalues --    1.38228   1.38560   1.38586   1.38953   1.40217
 Alpha virt. eigenvalues --    1.42582   1.43383   1.43856   1.43895   1.44095
 Alpha virt. eigenvalues --    1.44991   1.45304   1.45900   1.46180   1.48077
 Alpha virt. eigenvalues --    1.48233   1.48431   1.48560   1.48757   1.50208
 Alpha virt. eigenvalues --    1.50837   1.51188   1.51496   1.51803   1.52141
 Alpha virt. eigenvalues --    1.52392   1.53114   1.53503   1.54306   1.54757
 Alpha virt. eigenvalues --    1.55275   1.56516   1.56679   1.56968   1.57463
 Alpha virt. eigenvalues --    1.57879   1.58304   1.58320   1.59429   1.59971
 Alpha virt. eigenvalues --    1.60654   1.61337   1.61920   1.62293   1.62329
 Alpha virt. eigenvalues --    1.63408   1.64003   1.64483   1.65191   1.65791
 Alpha virt. eigenvalues --    1.66460   1.66630   1.67485   1.67679   1.67880
 Alpha virt. eigenvalues --    1.68489   1.68771   1.68846   1.69082   1.69213
 Alpha virt. eigenvalues --    1.69550   1.69629   1.69682   1.70251   1.70885
 Alpha virt. eigenvalues --    1.71178   1.71627   1.71771   1.72717   1.73114
 Alpha virt. eigenvalues --    1.74013   1.74054   1.74743   1.74926   1.75678
 Alpha virt. eigenvalues --    1.76008   1.76400   1.76649   1.77075   1.77207
 Alpha virt. eigenvalues --    1.77649   1.77902   1.78635   1.78899   1.79237
 Alpha virt. eigenvalues --    1.79294   1.79416   1.79903   1.80087   1.80523
 Alpha virt. eigenvalues --    1.81508   1.81537   1.81579   1.82171   1.82316
 Alpha virt. eigenvalues --    1.82331   1.84265   1.84267   1.84631   1.85004
 Alpha virt. eigenvalues --    1.85041   1.85114   1.85446   1.85633   1.86540
 Alpha virt. eigenvalues --    1.86584   1.87465   1.88311   1.88391   1.88961
 Alpha virt. eigenvalues --    1.89722   1.89745   1.91318   1.91525   1.91585
 Alpha virt. eigenvalues --    1.91856   1.92249   1.92531   1.94168   1.94386
 Alpha virt. eigenvalues --    1.94845   1.97302   1.97848   1.99640   1.99678
 Alpha virt. eigenvalues --    1.99895   2.01179   2.01666   2.01883   2.01893
 Alpha virt. eigenvalues --    2.01919   2.02191   2.03305   2.04874   2.05425
 Alpha virt. eigenvalues --    2.05468   2.06218   2.06276   2.07633   2.08109
 Alpha virt. eigenvalues --    2.09231   2.09494   2.09647   2.10335   2.10362
 Alpha virt. eigenvalues --    2.10563   2.11533   2.12587   2.13590   2.13844
 Alpha virt. eigenvalues --    2.14752   2.14868   2.15163   2.15858   2.15899
 Alpha virt. eigenvalues --    2.16466   2.16929   2.17285   2.17323   2.17588
 Alpha virt. eigenvalues --    2.17914   2.19716   2.19853   2.20387   2.20606
 Alpha virt. eigenvalues --    2.21041   2.21632   2.22149   2.22539   2.22666
 Alpha virt. eigenvalues --    2.22694   2.24354   2.24662   2.24805   2.24911
 Alpha virt. eigenvalues --    2.26247   2.26361   2.26540   2.26669   2.27183
 Alpha virt. eigenvalues --    2.27235   2.27521   2.29856   2.29981   2.30117
 Alpha virt. eigenvalues --    2.30488   2.30535   2.31656   2.32505   2.32860
 Alpha virt. eigenvalues --    2.33483   2.33917   2.34121   2.34516   2.34550
 Alpha virt. eigenvalues --    2.35030   2.36928   2.37221   2.37651   2.38580
 Alpha virt. eigenvalues --    2.39178   2.39515   2.39853   2.40193   2.40287
 Alpha virt. eigenvalues --    2.41319   2.42058   2.42517   2.43885   2.43990
 Alpha virt. eigenvalues --    2.44469   2.44718   2.45026   2.45133   2.45899
 Alpha virt. eigenvalues --    2.46401   2.46778   2.47119   2.47617   2.47824
 Alpha virt. eigenvalues --    2.48679   2.50315   2.50399   2.50882   2.51611
 Alpha virt. eigenvalues --    2.52083   2.52215   2.53527   2.53530   2.53687
 Alpha virt. eigenvalues --    2.55886   2.56020   2.56047   2.56386   2.57129
 Alpha virt. eigenvalues --    2.57142   2.57395   2.57464   2.58530   2.58844
 Alpha virt. eigenvalues --    2.59010   2.59101   2.60981   2.60990   2.61643
 Alpha virt. eigenvalues --    2.62223   2.62698   2.62782   2.63385   2.64174
 Alpha virt. eigenvalues --    2.64266   2.64747   2.64974   2.65188   2.66000
 Alpha virt. eigenvalues --    2.66437   2.68377   2.68675   2.68810   2.68947
 Alpha virt. eigenvalues --    2.69054   2.69682   2.71468   2.71887   2.72133
 Alpha virt. eigenvalues --    2.72528   2.73109   2.73200   2.73838   2.74360
 Alpha virt. eigenvalues --    2.74439   2.74594   2.75006   2.75387   2.75497
 Alpha virt. eigenvalues --    2.75773   2.77735   2.77854   2.77957   2.78230
 Alpha virt. eigenvalues --    2.78846   2.79573   2.80470   2.80642   2.81353
 Alpha virt. eigenvalues --    2.82093   2.82233   2.82402   2.82806   2.82895
 Alpha virt. eigenvalues --    2.82999   2.84410   2.84588   2.84855   2.84969
 Alpha virt. eigenvalues --    2.86019   2.86576   2.86746   2.86776   2.86921
 Alpha virt. eigenvalues --    2.87186   2.87640   2.88365   2.88650   2.89690
 Alpha virt. eigenvalues --    2.90346   2.91082   2.92099   2.92174   2.92586
 Alpha virt. eigenvalues --    2.92652   2.93611   2.93620   2.94020   2.94305
 Alpha virt. eigenvalues --    2.95291   2.95612   2.96232   2.96252   2.96286
 Alpha virt. eigenvalues --    2.96533   2.97286   2.97991   2.99141   2.99473
 Alpha virt. eigenvalues --    2.99793   3.00576   3.00759   3.00797   3.00948
 Alpha virt. eigenvalues --    3.01212   3.02070   3.03084   3.03623   3.03648
 Alpha virt. eigenvalues --    3.03763   3.04526   3.04713   3.04762   3.05652
 Alpha virt. eigenvalues --    3.07258   3.07344   3.07636   3.07837   3.09533
 Alpha virt. eigenvalues --    3.09853   3.10155   3.11128   3.11367   3.11857
[...]
    20   Atom        0.000558     -0.000930      0.000372
    21   Atom       -0.000738      0.000472      0.000266
    22   Atom        0.000992      0.001908     -0.002900
    23   Atom       -0.000464      0.000243      0.000221
    24   Atom        0.000278     -0.000529      0.000251
    25   Atom       -0.000681     -0.001064      0.001745
    26   Atom       -0.000021      0.000004      0.000017
    27   Atom        0.000143      0.000132     -0.000275
    28   Atom        0.001014      0.001899     -0.002913
    29   Atom       -0.000464      0.000242      0.000222
    30   Atom        0.000276     -0.000527      0.000251
    31   Atom       -0.000671     -0.001065      0.001736
    32   Atom       -0.000021      0.000004      0.000018
    33   Atom        0.000142      0.000133     -0.000275
    34   Atom        0.002116      0.003294     -0.005411
    35   Atom        0.000557     -0.000929      0.000372
    36   Atom       -0.000739      0.000472      0.000267
    37   Atom       -0.000661     -0.001063      0.001724
    38   Atom        0.000141      0.000133     -0.000274
    39   Atom       -0.000020      0.000004      0.000017
    40   Atom        0.001057      0.001929     -0.002986
    41   Atom       -0.000469      0.000244      0.000225
    42   Atom        0.000276     -0.000532      0.000255
    43   Atom        0.002050      0.003349     -0.005399
    44   Atom       -0.000736      0.000472      0.000265
    45   Atom        0.000559     -0.000933      0.000374
    46   Atom       -0.000917      0.004234     -0.003318
    47   Atom        0.000388     -0.000159     -0.000228
    48   Atom       -0.000333     -0.000316      0.000648
 --------------------------------------------------------
                        XY            XZ            YZ
 --------------------------------------------------------
     1   Atom       -0.011133      0.004556     -0.005909
     2   Atom        0.000682     -0.000362      0.000248
     3   Atom        0.000457     -0.000293     -0.000000
     4   Atom        0.001172     -0.000032      0.000079
     5   Atom       -0.000286     -0.000099      0.000094
     6   Atom        0.000029      0.000036     -0.000023
     7   Atom       -0.004598      0.010702      0.005617
     8   Atom        0.000380     -0.000675     -0.000198
     9   Atom        0.000330     -0.000451     -0.000082
    10   Atom       -0.011163     -0.004560      0.005950
    11   Atom        0.000459      0.000292      0.000000
    12   Atom        0.000681      0.000362     -0.000250
    13   Atom        0.011142     -0.004573     -0.005965
    14   Atom       -0.000458      0.000292      0.000001
    15   Atom       -0.000680      0.000363      0.000251
    16   Atom       -0.007729      0.011355      0.010539
    17   Atom        0.000373     -0.000576     -0.000047
    18   Atom        0.000426     -0.000148     -0.000577
    19   Atom        0.007783      0.011381     -0.010537
    20   Atom       -0.000426     -0.000147      0.000579
    21   Atom       -0.000376     -0.000578      0.000045
    22   Atom       -0.004603     -0.010704     -0.005595
    23   Atom        0.000328      0.000451      0.000081
    24   Atom        0.000381      0.000675      0.000196
    25   Atom       -0.001182     -0.000032     -0.000080
    26   Atom       -0.000030      0.000036      0.000023
    27   Atom        0.000286     -0.000099     -0.000095
    28   Atom        0.004578     -0.010681      0.005574
    29   Atom       -0.000327      0.000450     -0.000082
    30   Atom       -0.000380      0.000675     -0.000195
    31   Atom       -0.001172      0.000043      0.000086
    32   Atom       -0.000030     -0.000035     -0.000022
    33   Atom        0.000286      0.000097      0.000093
    34   Atom       -0.007779     -0.011372     -0.010535
    35   Atom        0.000426      0.000146      0.000579
    36   Atom        0.000376      0.000579      0.000045
    37   Atom        0.001164      0.000041     -0.000078
    38   Atom       -0.000285      0.000097     -0.000094
    39   Atom        0.000029     -0.000035      0.000022
    40   Atom        0.004590      0.010663     -0.005608
    41   Atom       -0.000330     -0.000448      0.000082
    42   Atom       -0.000380     -0.000675      0.000198
    43   Atom        0.007794     -0.011424      0.010507
    44   Atom       -0.000377      0.000582     -0.000044
    45   Atom       -0.000427      0.000147     -0.000576
    46   Atom        0.011109      0.004542      0.005903
    47   Atom       -0.000455     -0.000292     -0.000000
    48   Atom       -0.000682     -0.000361     -0.000247
 --------------------------------------------------------


 ---------------------------------------------------------------------------------
              Anisotropic Spin Dipole Couplings in Principal Axis System
 ---------------------------------------------------------------------------------

       Atom             a.u.   MegaHertz   Gauss  10(-4) cm-1        Axes

              Baa    -0.0098     0.707     0.252     0.236  0.7756  0.6305  0.0298
     1 O(17)  Bbb    -0.0062     0.449     0.160     0.150 -0.2492  0.2625  0.9322
              Bcc     0.0160    -1.155    -0.412    -0.385 -0.5799  0.7304 -0.3608
 
              Baa    -0.0011    -0.594    -0.212    -0.198  0.7005 -0.6727  0.2384
     2 H(1)   Bbb     0.0003     0.183     0.065     0.061  0.6513  0.7391  0.1719
              Bcc     0.0008     0.411     0.146     0.137 -0.2918  0.0348  0.9558
 
              Baa    -0.0005    -0.272    -0.097    -0.091 -0.5150  0.6691 -0.5357
     3 H(1)   Bbb    -0.0002    -0.110    -0.039    -0.037 -0.0615  0.5946  0.8017
              Bcc     0.0007     0.383     0.137     0.128  0.8550  0.4458 -0.2651
 
              Baa    -0.0021     0.149     0.053     0.050 -0.6461  0.7630 -0.0215
     4 O(17)  Bbb     0.0003    -0.023    -0.008    -0.008  0.7633  0.6458 -0.0188
              Bcc     0.0017    -0.126    -0.045    -0.042  0.0005  0.0286  0.9996
 
              Baa    -0.0003    -0.160    -0.057    -0.053  0.1400 -0.1220  0.9826
     5 H(1)   Bbb    -0.0001    -0.079    -0.028    -0.026  0.6992  0.7148 -0.0109
              Bcc     0.0004     0.240     0.085     0.080  0.7010 -0.6886 -0.1854
 
              Baa    -0.0001    -0.033    -0.012    -0.011  0.7384 -0.4855 -0.4681
     6 H(1)   Bbb     0.0000     0.012     0.004     0.004  0.5296  0.8471 -0.0434
              Bcc     0.0000     0.021     0.007     0.007  0.4176 -0.2159  0.8826
 
              Baa    -0.0150     1.084     0.387     0.362 -0.5863 -0.3938  0.7079
     7 O(17)  Bbb     0.0051    -0.367    -0.131    -0.122 -0.2585  0.9191  0.2973
              Bcc     0.0099    -0.717    -0.256    -0.239  0.7677  0.0087  0.6407
 
              Baa    -0.0007    -0.369    -0.132    -0.123 -0.4353  0.8917 -0.1241
     8 H(1)   Bbb    -0.0004    -0.191    -0.068    -0.064  0.5597  0.3760  0.7385
              Bcc     0.0010     0.560     0.200     0.187  0.7052  0.2520 -0.6627
 
              Baa    -0.0008    -0.406    -0.145    -0.135  0.8858 -0.2598  0.3845
     9 H(1)   Bbb     0.0002     0.084     0.030     0.028 -0.0475  0.7735  0.6321
              Bcc     0.0006     0.322     0.115     0.107 -0.4616 -0.5782  0.6728
 
              Baa    -0.0098     0.709     0.253     0.236  0.7751  0.6309 -0.0340
    10 O(17)  Bbb    -0.0062     0.451     0.161     0.150  0.2526 -0.2602  0.9319
              Bcc     0.0160    -1.160    -0.414    -0.387 -0.5791  0.7309  0.3611
 
              Baa    -0.0005    -0.273    -0.097    -0.091 -0.5142  0.6710  0.5342
    11 H(1)   Bbb    -0.0002    -0.111    -0.040    -0.037  0.0617 -0.5923  0.8034
              Bcc     0.0007     0.384     0.137     0.128  0.8554  0.4461  0.2632
 
              Baa    -0.0011    -0.594    -0.212    -0.198  0.6992 -0.6739 -0.2388
    12 H(1)   Bbb     0.0003     0.183     0.065     0.061  0.6536  0.7379 -0.1685
              Bcc     0.0008     0.412     0.147     0.137  0.2898 -0.0383  0.9563
 
              Baa    -0.0098     0.708     0.253     0.236  0.7765 -0.6294 -0.0314
    13 O(17)  Bbb    -0.0062     0.451     0.161     0.150  0.2511  0.2633  0.9315
              Bcc     0.0160    -1.159    -0.414    -0.387  0.5780  0.7311 -0.3624
 
              Baa    -0.0005    -0.273    -0.097    -0.091  0.5133  0.6709 -0.5352
    14 H(1)   Bbb    -0.0002    -0.110    -0.039    -0.037  0.0616  0.5931  0.8027
              Bcc     0.0007     0.383     0.137     0.128  0.8560 -0.4450  0.2631
 
              Baa    -0.0011    -0.594    -0.212    -0.198  0.6986  0.6740 -0.2402
    15 H(1)   Bbb     0.0003     0.183     0.065     0.061 -0.6535  0.7377  0.1693
              Bcc     0.0008     0.411     0.147     0.137  0.2913  0.0387  0.9558
 
              Baa    -0.0207     1.501     0.536     0.501 -0.5140 -0.4772  0.7128
    16 O(17)  Bbb     0.0102    -0.741    -0.264    -0.247  0.5149  0.4930  0.7013
              Bcc     0.0105    -0.760    -0.271    -0.253 -0.6861  0.7275 -0.0077
 
              Baa    -0.0011    -0.571    -0.204    -0.190  0.9014 -0.2066  0.3806
    17 H(1)   Bbb     0.0003     0.183     0.065     0.061 -0.1462  0.6820  0.7166
              Bcc     0.0007     0.388     0.139     0.130  0.4076  0.7016 -0.5845
 
              Baa    -0.0012    -0.650    -0.232    -0.217 -0.1959  0.9276  0.3180
    18 H(1)   Bbb     0.0003     0.174     0.062     0.058  0.6713 -0.1095  0.7331
              Bcc     0.0009     0.477     0.170     0.159  0.7149  0.3571 -0.6012
 
              Baa    -0.0208     1.503     0.536     0.501 -0.5163  0.4780  0.7106
    19 O(17)  Bbb     0.0103    -0.742    -0.265    -0.248  0.5204 -0.4840  0.7036
              Bcc     0.0105    -0.761    -0.271    -0.254  0.6802  0.7330  0.0011
 
              Baa    -0.0012    -0.651    -0.232    -0.217  0.1960  0.9272 -0.3191
    20 H(1)   Bbb     0.0003     0.174     0.062     0.058  0.6693  0.1113  0.7346
              Bcc     0.0009     0.477     0.170     0.159  0.7167 -0.3575 -0.5987
 
              Baa    -0.0011    -0.571    -0.204    -0.191  0.9002  0.2082  0.3825
    21 H(1)   Bbb     0.0003     0.183     0.065     0.061 -0.1483 -0.6793  0.7188
              Bcc     0.0007     0.389     0.139     0.130 -0.4095  0.7038  0.5806
 
              Baa    -0.0149     1.082     0.386     0.361  0.5881  0.3949  0.7059
    22 O(17)  Bbb     0.0050    -0.363    -0.130    -0.121 -0.2603  0.9187 -0.2971
              Bcc     0.0099    -0.718    -0.256    -0.240  0.7658  0.0090 -0.6430
 
              Baa    -0.0008    -0.404    -0.144    -0.135  0.8850 -0.2590 -0.3869
    23 H(1)   Bbb     0.0002     0.083     0.030     0.028 -0.0493  0.7741 -0.6311
              Bcc     0.0006     0.321     0.114     0.107  0.4629  0.5776  0.6723
 
              Baa    -0.0007    -0.368    -0.131    -0.123 -0.4418  0.8873  0.1323
    24 H(1)   Bbb    -0.0004    -0.191    -0.068    -0.064 -0.5533 -0.3856  0.7383
              Bcc     0.0010     0.559     0.199     0.186  0.7061  0.2530  0.6613
 
              Baa    -0.0021     0.150     0.053     0.050  0.6478  0.7615  0.0214
    25 O(17)  Bbb     0.0003    -0.023    -0.008    -0.008  0.7618 -0.6475 -0.0191
              Bcc     0.0017    -0.126    -0.045    -0.042  0.0007 -0.0286  0.9996
 
              Baa    -0.0001    -0.034    -0.012    -0.011  0.7399  0.4846 -0.4666
    26 H(1)   Bbb     0.0000     0.013     0.004     0.004 -0.5275  0.8484  0.0445
              Bcc     0.0000     0.021     0.008     0.007  0.4174  0.2132  0.8834
 
              Baa    -0.0003    -0.161    -0.057    -0.054  0.1390  0.1237  0.9825
    27 H(1)   Bbb    -0.0001    -0.079    -0.028    -0.026 -0.6989  0.7152  0.0088
              Bcc     0.0004     0.240     0.086     0.080  0.7016  0.6879 -0.1859
 
              Baa    -0.0149     1.078     0.385     0.360  0.5875 -0.3944  0.7066
    28 O(17)  Bbb     0.0050    -0.361    -0.129    -0.121  0.2595  0.9189  0.2971
              Bcc     0.0099    -0.717    -0.256    -0.239  0.7665 -0.0088 -0.6422
 
              Baa    -0.0008    -0.403    -0.144    -0.134  0.8855  0.2588 -0.3858
    29 H(1)   Bbb     0.0002     0.083     0.030     0.028  0.0478  0.7753  0.6298
              Bcc     0.0006     0.320     0.114     0.107  0.4621 -0.5761  0.6742
 
              Baa    -0.0007    -0.367    -0.131    -0.122  0.4440  0.8857 -0.1358
    30 H(1)   Bbb    -0.0004    -0.191    -0.068    -0.064 -0.5521  0.3898  0.7371
              Bcc     0.0010     0.558     0.199     0.186  0.7057 -0.2523  0.6620
 
              Baa    -0.0021     0.149     0.053     0.050  0.6455  0.7634 -0.0247
    31 O(17)  Bbb     0.0003    -0.023    -0.008    -0.008  0.7638 -0.6453  0.0159
              Bcc     0.0017    -0.126    -0.045    -0.042  0.0038  0.0291  0.9996
 
              Baa    -0.0001    -0.033    -0.012    -0.011  0.7406  0.4864  0.4635
    32 H(1)   Bbb     0.0000     0.012     0.004     0.004 -0.5293  0.8473 -0.0433
              Bcc     0.0000     0.021     0.008     0.007 -0.4138 -0.2133  0.8850
 
              Baa    -0.0003    -0.160    -0.057    -0.053 -0.1362 -0.1220  0.9831
    33 H(1)   Bbb    -0.0001    -0.079    -0.028    -0.026 -0.7000  0.7141 -0.0083
              Bcc     0.0004     0.240     0.085     0.080  0.7010  0.6893  0.1827
 
              Baa    -0.0208     1.502     0.536     0.501  0.5160  0.4782  0.7107
    34 O(17)  Bbb     0.0102    -0.742    -0.265    -0.247 -0.5100 -0.4950  0.7034
              Bcc     0.0105    -0.760    -0.271    -0.254 -0.6882  0.7254  0.0115
 
              Baa    -0.0012    -0.650    -0.232    -0.217 -0.1961  0.9271 -0.3195
    35 H(1)   Bbb     0.0003     0.174     0.062     0.058 -0.6698  0.1113  0.7342
              Bcc     0.0009     0.476     0.170     0.159  0.7162  0.3580  0.5991
 
              Baa    -0.0011    -0.572    -0.204    -0.191  0.9004 -0.2080 -0.3821
    36 H(1)   Bbb     0.0003     0.183     0.065     0.061  0.1469 -0.6814  0.7170
              Bcc     0.0007     0.389     0.139     0.130  0.4095  0.7017  0.5830
 
              Baa    -0.0020     0.148     0.053     0.049 -0.6438  0.7649  0.0228
    37 O(17)  Bbb     0.0003    -0.023    -0.008    -0.008  0.7652  0.6436  0.0132
              Bcc     0.0017    -0.125    -0.045    -0.042  0.0046 -0.0260  0.9997
 
              Baa    -0.0003    -0.160    -0.057    -0.053 -0.1362  0.1246  0.9828
    38 H(1)   Bbb    -0.0001    -0.079    -0.028    -0.026  0.7006  0.7135  0.0067
              Bcc     0.0004     0.239     0.085     0.080  0.7004 -0.6895  0.1845
 
              Baa    -0.0001    -0.033    -0.012    -0.011  0.7386 -0.4853  0.4679
    39 H(1)   Bbb     0.0000     0.012     0.004     0.004  0.5312  0.8464  0.0393
              Bcc     0.0000     0.021     0.007     0.007 -0.4151  0.2195  0.8829
 
              Baa    -0.0149     1.080     0.386     0.360 -0.5855  0.3949  0.7080
    40 O(17)  Bbb     0.0050    -0.365    -0.130    -0.122  0.2580  0.9187 -0.2990
              Bcc     0.0099    -0.716    -0.255    -0.239  0.7685 -0.0076  0.6398
 
              Baa    -0.0008    -0.405    -0.144    -0.135  0.8865  0.2606  0.3823
    41 H(1)   Bbb     0.0002     0.084     0.030     0.028  0.0455  0.7732 -0.6325
              Bcc     0.0006     0.321     0.115     0.107 -0.4604  0.5782  0.6736
 
              Baa    -0.0007    -0.368    -0.131    -0.123  0.4374  0.8905  0.1256
    42 H(1)   Bbb    -0.0004    -0.191    -0.068    -0.064  0.5588 -0.3785  0.7379
              Bcc     0.0010     0.559     0.199     0.186  0.7046 -0.2526 -0.6632
 
              Baa    -0.0208     1.504     0.537     0.502  0.5181 -0.4766  0.7103
    43 O(17)  Bbb     0.0103    -0.743    -0.265    -0.248 -0.5163  0.4878  0.7039
              Bcc     0.0105    -0.761    -0.272    -0.254  0.6820  0.7314 -0.0067
 
              Baa    -0.0011    -0.572    -0.204    -0.191  0.8993  0.2083 -0.3845
    44 H(1)   Bbb     0.0003     0.183     0.065     0.061  0.1487  0.6812  0.7168
              Bcc     0.0007     0.389     0.139     0.130 -0.4112  0.7019 -0.5816
 
              Baa    -0.0012    -0.651    -0.232    -0.217  0.1962  0.9278  0.3174
    45 H(1)   Bbb     0.0003     0.174     0.062     0.058 -0.6678 -0.1105  0.7360
              Bcc     0.0009     0.477     0.170     0.159  0.7180 -0.3564  0.5979
 
              Baa    -0.0097     0.705     0.252     0.235  0.7766 -0.6293  0.0291
    46 O(17)  Bbb    -0.0062     0.448     0.160     0.149 -0.2483 -0.2632  0.9323
              Bcc     0.0159    -1.154    -0.412    -0.385  0.5790  0.7312  0.3606
 
              Baa    -0.0005    -0.272    -0.097    -0.091  0.5144  0.6700  0.5353
    47 H(1)   Bbb    -0.0002    -0.110    -0.039    -0.037 -0.0613 -0.5939  0.8022
              Bcc     0.0007     0.381     0.136     0.127  0.8554 -0.4454 -0.2644
 
              Baa    -0.0011    -0.593    -0.212    -0.198  0.6998  0.6734  0.2382
    48 H(1)   Bbb     0.0003     0.183     0.065     0.061 -0.6517  0.7385 -0.1732
              Bcc     0.0008     0.410     0.146     0.137 -0.2926 -0.0340  0.9556
 

 ---------------------------------------------------------------------------------

 No NMR shielding tensors so no spin-rotation constants.
 Leave Link  601 at Fri Apr 23 06:03:06 2021, MaxMem= 12079595520 cpu:            3975.0 elap:              85.5
 (Enter /s/ls4/groups/g0130/bin/g16/l9999.exe)

 Test job not archived.
 1\1\GINC-N147\Stability\UM062X\Gen\H32O16\KNVVV\23-Apr-2021\0\\#P M062
 X/GEN Integral=UltraFineGrid SCF=NoSymm Stable=(RExt, Opt) IOp(1/33=1)
 \\Database calculations.\\0,1\O,0,1.38892565,-1.46762308,1.23268571\H,
 0,0.41155747,-1.49781827,1.32330395\H,0,1.64312804,-0.59993942,1.58839
 061\O,0,-1.25151584,-4.45360125,0.99203764\H,0,-0.26129804,-4.48213863
 ,1.0215352\H,0,-1.55889637,-5.20146917,1.51306229\O,0,-1.4726779,1.594
 28835,-1.13047131\H,0,-1.53851741,1.45304199,-0.16110702\H,0,-1.685440
 84,2.53635267,-1.25508524\O,0,1.2867772,1.52143368,-1.26987226\H,0,1.5
 6701218,0.6651406,-1.63354698\H,0,0.30678375,1.5109753,-1.331965\O,0,-
 1.33049084,-1.18230786,-1.5496047\H,0,-1.61858295,-0.26500553,-1.68987
 719\H,0,-0.35312914,-1.15437839,-1.64102129\O,0,-1.26241181,-4.0086126
 1,-1.83673593\H,0,-1.53754144,-3.07921228,-1.89841173\H,0,-1.44164243,
 -4.25580842,-0.91322957\O,0,1.21093806,4.33643855,-0.88135162\H,0,1.42
 240615,4.35925628,0.06780241\H,0,1.48252906,3.44991721,-1.17042117\O,0
 ,-1.36838757,-1.65250191,1.17403\H,0,-1.53786499,-2.6026602,1.30331133
 \H,0,-1.46774465,-1.51410974,0.20710814\O,0,1.29899675,4.09959759,1.97
 08433\H,0,1.62572685,4.70639057,2.64189745\H,0,0.31041959,4.11489429,2
 .03969669\O,0,1.41758307,1.33424161,1.48534986\H,0,1.59337773,2.228070
 97,1.82937562\H,0,1.48432558,1.42859998,0.51038705\O,0,1.41383734,-4.0
 4372504,-2.01354443\H,0,1.74466723,-4.63570064,-2.6957396\H,0,0.425077
 25,-4.09912573,-2.05284956\O,0,-1.37770707,3.95560936,1.8746629\H,0,-1
 .59511271,4.19427969,0.95715176\H,0,-1.61256115,3.01581689,1.94473441\
 O,0,-1.46953766,4.39795165,-0.95348204\H,0,-0.48261719,4.46694182,-1.0
 1235022\H,0,-1.82264366,5.13115775,-1.46630718\O,0,1.43158385,-1.27640
 966,-1.52537571\H,0,1.63397288,-2.1620468,-1.87596011\H,0,1.53082304,-
 1.36800238,-0.55292919\O,0,1.42107591,-4.28318326,0.84025752\H,0,1.664
 23911,-3.38625949,1.12243388\H,0,1.60526484,-4.29743986,-0.11471606\O,
 0,-1.33680161,1.12838877,1.59090362\H,0,-1.5821606,0.19999582,1.739104
 61\H,0,-0.3568521,1.1406701,1.65365674\\Version=ES64L-G16RevA.03\State
 =1-A\HF=-1223.2567911\S2=0.003904\S2-1=0.\S2A=0.000021\RMSD=2.339e-09\
 Dipole=-0.0013386,0.0004072,-0.0016065\Quadrupole=-6.6394441,9.0707836
 ,-2.4313395,-0.3027555,0.0319507,1.3889638\PG=C01 [X(H32O16)]\\@


 BLACK HOLES SUCK.
 Job cpu time:     132 days 21 hours  2 minutes  1.0 seconds.
 Elapsed time:       2 days 19 hours 26 minutes 54.4 seconds.
 File lengths (MBytes):  RWF=   7941 Int=      0 D2E=      0 Chk=    563 Scr=      1
 Normal termination of Gaussian 16 at Fri Apr 23 06:03:08 2021.
