 Entering Gaussian System, Link 0=/s/ls4/users/knvvv/bin/g16sse/g16
 Input=data/database/M062X--def2-QZVPPD--17_Isomer7_mon1_FmH2O10.gjf
 Output=data/database/M062X--def2-QZVPPD--17_Isomer7_mon1_FmH2O10.log
 Initial command:
 /s/ls4/users/knvvv/bin/g16sse/l1.exe "/s/ls4/users/knvvv/bin/scratch/Gau-4599.inp" -scrdir="/s/ls4/users/knvvv/bin/scratch/"
 Entering Link 1 = /s/ls4/users/knvvv/bin/g16sse/l1.exe PID=      4600.
  
 Copyright (c) 1988,1990,1992,1993,1995,1998,2003,2009,2016,
            Gaussian, Inc.  All Rights Reserved.
  
 This is part of the Gaussian(R) 16 program.  It is based on
 the Gaussian(R) 09 system (copyright 2009, Gaussian, Inc.),
 the Gaussian(R) 03 system (copyright 2003, Gaussian, Inc.),
 the Gaussian(R) 98 system (copyright 1998, Gaussian, Inc.),
 the Gaussian(R) 94 system (copyright 1995, Gaussian, Inc.),
 the Gaussian 92(TM) system (copyright 1992, Gaussian, Inc.),
 the Gaussian 90(TM) system (copyright 1990, Gaussian, Inc.),
 the Gaussian 88(TM) system (copyright 1988, Gaussian, Inc.),
 the Gaussian 86(TM) system (copyright 1986, Carnegie Mellon
 University), and the Gaussian 82(TM) system (copyright 1983,
 Carnegie Mellon University). Gaussian is a federally registered
 trademark of Gaussian, Inc.
  
 This software contains proprietary and confidential information,
 including trade secrets, belonging to Gaussian, Inc.
  
 This software is provided under written license and may be
 used, copied, transmitted, or stored only in accord with that
 written license.
  
 The following legend is applicable only to US Government
 contracts under FAR:
  
                    RESTRICTED RIGHTS LEGEND
  
 Use, reproduction and disclosure by the US Government is
 subject to restrictions as set forth in subparagraphs (a)
 and (c) of the Commercial Computer Software - Restricted
 Rights clause in FAR 52.227-19.
  
 Gaussian, Inc.
 340 Quinnipiac St., Bldg. 40, Wallingford CT 06492
  
  
 ---------------------------------------------------------------
 Warning -- This program may not be used in any manner that
 competes with the business of Gaussian, Inc. or will provide
 assistance to any competitor of Gaussian, Inc.  The licensee
 of this program is prohibited from giving any competitor of
 Gaussian, Inc. access to this program.  By using this program,
 the user acknowledges that Gaussian, Inc. is engaged in the
 business of creating and licensing software in the field of
 computational chemistry and represents and warrants to the
 licensee that it is not a competitor of Gaussian, Inc. and that
 it will not use this program in any manner prohibited above.
 ---------------------------------------------------------------
  

 Cite this work as:
 Gaussian 16, Revision A.03,
 M. J. Frisch, G. W. Trucks, H. B. Schlegel, G. E. Scuseria, 
 M. A. Robb, J. R. Cheeseman, G. Scalmani, V. Barone, 
 G. A. Petersson, H. Nakatsuji, X. Li, M. Caricato, A. V. Marenich, 
 J. Bloino, B. G. Janesko, R. Gomperts, B. Mennucci, H. P. Hratchian, 
 J. V. Ortiz, A. F. Izmaylov, J. L. Sonnenberg, D. Williams-Young, 
 F. Ding, F. Lipparini, F. Egidi, J. Goings, B. Peng, A. Petrone, 
 T. Henderson, D. Ranasinghe, V. G. Zakrzewski, J. Gao, N. Rega, 
 G. Zheng, W. Liang, M. Hada, M. Ehara, K. Toyota, R. Fukuda, 
 J. Hasegawa, M. Ishida, T. Nakajima, Y. Honda, O. Kitao, H. Nakai, 
 T. Vreven, K. Throssell, J. A. Montgomery, Jr., J. E. Peralta, 
 F. Ogliaro, M. J. Bearpark, J. J. Heyd, E. N. Brothers, K. N. Kudin, 
 V. N. Staroverov, T. A. Keith, R. Kobayashi, J. Normand, 
 K. Raghavachari, A. P. Rendell, J. C. Burant, S. S. Iyengar, 
 J. Tomasi, M. Cossi, J. M. Millam, M. Klene, C. Adamo, R. Cammi, 
 J. W. Ochterski, R. L. Martin, K. Morokuma, O. Farkas, 
 J. B. Foresman, and D. J. Fox, Gaussian, Inc., Wallingford CT, 2016.
 
 ******************************************
 Gaussian 16:  ES64L-G16RevA.03 25-Dec-2016
                17-Apr-2021 
 ******************************************
 %RWF=temp19_7415,70GB
 %nprocshared=48
 Will use up to   48 processors via shared memory.
 Default route: MaxDisk=80GB
 ----------------------------------------------------------------------
 #P M062X/GEN Integral=UltraFineGrid SCF=NoSymm Stable=(RExt, Opt) IOp(
 1/33=1)
 ----------------------------------------------------------------------
 1/33=1,38=1,172=1/1;
 2/12=2,17=6,18=5,40=1/2;
 3/5=7,11=2,25=1,30=1,74=-55,75=-5/1,2,3;
 4/9=2/1;
 5/5=2,38=5/2;
 6/7=2,8=2,9=2,10=2,28=1/1;
 8/6=1,10=90,11=11/1;
 9/8=-3,42=1,46=1/14;
 5/5=2,8=3,17=40,38=5/8(-2);
 6/7=2,8=2,9=2,10=2,28=1/1;
 99/5=1,9=1/99;
 Leave Link    1 at Sat Apr 17 16:16:59 2021, MaxMem=           0 cpu:               8.4 elap:               0.2
 (Enter /s/ls4/users/knvvv/bin/g16sse/l101.exe)
 ONIOM data not found on unit 2.
 ----------------------
 Database calculations.
 ----------------------
 TstMul:  ICh=     0
 TstMul:  Mul=     1
 TstMul:  ICh=     0
 TstMul:  Mul=     1
 Symbolic Z-matrix:
 Charge =  0 Multiplicity = 1
 O                    -1.74418  -0.59222  -0.87771 
 H                    -1.34718  -0.01955  -1.57161 
 H                    -0.94949  -1.01402  -0.45218 
 
 RdStrC is calling ZToCFu for IStruc=1 NZ=     3.
 PrtBox:  NBox=     1 Levels=  1 BoxLen=    8.00 SMaxX=        2.12
          Shift=            3.296017            1.916218            2.969907
 Box      1 Number                   0 centers from      1 to      3:
 After GenITR:
 ITRead=  0  0  0
 MicOpt= -1 -1 -1
 ITRead=  0  0  0
 MicOpt= -1 -1 -1
 NAtoms=      3 NQM=        3 NQMF=       0 NMMI=      0 NMMIF=      0
                NMic=       0 NMicF=      0.
                    Isotopes and Nuclear Properties:
 (Nuclear quadrupole moments (NQMom) in fm**2, nuclear magnetic moments (NMagM)
  in nuclear magnetons)

  Atom         1           2           3
 IAtWgt=          16           1           1
 AtmWgt=  15.9949146   1.0078250   1.0078250
 NucSpn=           0           1           1
 AtZEff=  -0.0000000  -0.0000000  -0.0000000
 NQMom=    0.0000000   0.0000000   0.0000000
 NMagM=    0.0000000   2.7928460   2.7928460
 AtZNuc=   8.0000000   1.0000000   1.0000000
 No MM parameters found.
 Leave Link  101 at Sat Apr 17 16:17:00 2021, MaxMem=   104857600 cpu:              12.1 elap:               0.4
 (Enter /s/ls4/users/knvvv/bin/g16sse/l202.exe)
                          Input orientation:                          
 ---------------------------------------------------------------------
 Center     Atomic      Atomic             Coordinates (Angstroms)
 Number     Number       Type             X           Y           Z
 ---------------------------------------------------------------------
      1          8           0       -1.744177   -0.592217   -0.877708
      2          1           0       -1.347184   -0.019553   -1.571607
      3          1           0       -0.949490   -1.014019   -0.452175
 ---------------------------------------------------------------------
                    Distance matrix (angstroms):
                    1          2          3
     1  O    0.000000
     2  H    0.983384   0.000000
     3  H    0.995250   1.549274   0.000000
 Stoichiometry    H2O
 Framework group  CS[SG(H2O)]
 Deg. of freedom     3
 Full point group                 CS      NOp   2
 Largest Abelian subgroup         CS      NOp   2
 Largest concise Abelian subgroup C1      NOp   1
                         Standard orientation:                         
 ---------------------------------------------------------------------
 Center     Atomic      Atomic             Coordinates (Angstroms)
 Number     Number       Type             X           Y           Z
 ---------------------------------------------------------------------
      1          8           0        0.000000    0.123080   -0.000000
      2          1           0        0.774578   -0.482784   -0.000000
      3          1           0       -0.774578   -0.501860    0.000000
 ---------------------------------------------------------------------
 Rotational constants (GHZ):         745.7250822         417.7547902         267.7572966
 Leave Link  202 at Sat Apr 17 16:17:00 2021, MaxMem=   104857600 cpu:               6.8 elap:               0.2
 (Enter /s/ls4/users/knvvv/bin/g16sse/l301.exe)
 General basis read from cards:  (5D, 7F)
 Centers:       2      3
 S 4 1.00
     Exponent=  1.9069169000D+02 Coefficients=  7.0815167000D-04
     Exponent=  2.8605532000D+01 Coefficients=  5.4678827000D-03
     Exponent=  6.5095943000D+00 Coefficients=  2.7966605000D-02
     Exponent=  1.8412455000D+00 Coefficients=  1.0764538000D-01
 S 1 1.00
     Exponent=  5.9853725000D-01 Coefficients=  1.0000000000D+00
 S 1 1.00
     Exponent=  2.1397624000D-01 Coefficients=  1.0000000000D+00
 S 1 1.00
     Exponent=  8.0316286000D-02 Coefficients=  1.0000000000D+00
 P 1 1.00
     Exponent=  2.2920000000D+00 Coefficients=  1.0000000000D+00
 P 1 1.00
     Exponent=  8.3800000000D-01 Coefficients=  1.0000000000D+00
 P 1 1.00
     Exponent=  2.9200000000D-01 Coefficients=  1.0000000000D+00
 P 1 1.00
     Exponent=  8.4063199228D-02 Coefficients=  1.0000000000D+00
 D 1 1.00
     Exponent=  2.0620000000D+00 Coefficients=  1.0000000000D+00
 D 1 1.00
     Exponent=  6.6200000000D-01 Coefficients=  1.0000000000D+00
 F 1 1.00
     Exponent=  1.3970000000D+00 Coefficients=  1.0000000000D+00
 ****
 Centers:       1
 S 8 1.00
     Exponent=  1.1650646908D+05 Coefficients=  4.0383857939D-05
     Exponent=  1.7504349724D+04 Coefficients=  3.1255139004D-04
     Exponent=  3.9934513230D+03 Coefficients=  1.6341473495D-03
     Exponent=  1.1330063186D+03 Coefficients=  6.8283224757D-03
     Exponent=  3.6999569594D+02 Coefficients=  2.4124410221D-02
     Exponent=  1.3362074349D+02 Coefficients=  7.2730206154D-02
     Exponent=  5.2035643649D+01 Coefficients=  1.7934429892D-01
     Exponent=  2.1461939313D+01 Coefficients=  3.3059588895D-01
 S 2 1.00
     Exponent=  8.9835051252D+01 Coefficients=  9.6468652996D-02
     Exponent=  2.6428010844D+01 Coefficients=  9.4117481120D-01
 S 1 1.00
     Exponent=  9.2822824649D+00 Coefficients=  1.0000000000D+00
 S 1 1.00
     Exponent=  4.0947728533D+00 Coefficients=  1.0000000000D+00
 S 1 1.00
     Exponent=  1.3255349078D+00 Coefficients=  1.0000000000D+00
 S 1 1.00
     Exponent=  5.1877230787D-01 Coefficients=  1.0000000000D+00
 S 1 1.00
     Exponent=  1.9772676454D-01 Coefficients=  1.0000000000D+00
 S 1 1.00
     Exponent=  6.9638535104D-02 Coefficients=  1.0000000000D+00
 P 5 1.00
     Exponent=  1.9115255810D+02 Coefficients=  2.5115697705D-03
     Exponent=  4.5233356739D+01 Coefficients=  2.0039240864D-02
     Exponent=  1.4353465922D+01 Coefficients=  9.3609064762D-02
     Exponent=  5.2422371832D+00 Coefficients=  3.0618127124D-01
     Exponent=  2.0792418599D+00 Coefficients=  6.7810501439D-01
 P 1 1.00
     Exponent=  8.4282371424D-01 Coefficients=  1.0000000000D+00
 P 1 1.00
     Exponent=  3.3617694891D-01 Coefficients=  1.0000000000D+00
 P 1 1.00
     Exponent=  1.2863997974D-01 Coefficients=  1.0000000000D+00
 P 1 1.00
     Exponent=  4.3598162776D-02 Coefficients=  1.0000000000D+00
 D 1 1.00
     Exponent=  3.7750000000D+00 Coefficients=  1.0000000000D+00
 D 1 1.00
     Exponent=  1.3000000000D+00 Coefficients=  1.0000000000D+00
 D 1 1.00
     Exponent=  4.4400000000D-01 Coefficients=  1.0000000000D+00
 D 1 1.00
     Exponent=  1.2546378695D-01 Coefficients=  1.0000000000D+00
 F 1 1.00
     Exponent=  2.6660000000D+00 Coefficients=  1.0000000000D+00
 F 1 1.00
     Exponent=  8.5900000000D-01 Coefficients=  1.0000000000D+00
 G 1 1.00
     Exponent=  1.8460000000D+00 Coefficients=  1.0000000000D+00
 ****
 Ernie: Thresh=  0.10000D-02 Tol=  0.10000D-05 Strict=F.
 There are   107 symmetry adapted cartesian basis functions of A'  symmetry.
 There are    51 symmetry adapted cartesian basis functions of A"  symmetry.
 There are    87 symmetry adapted basis functions of A'  symmetry.
 There are    45 symmetry adapted basis functions of A"  symmetry.
   132 basis functions,   184 primitive gaussians,   158 cartesian basis functions
     5 alpha electrons        5 beta electrons
       nuclear repulsion energy         8.9001371013 Hartrees.
 IExCor= 4336 DFT=T Ex+Corr=M062X ExCW=0 ScaHFX=  0.540000
 ScaDFX=  1.000000  1.000000  1.000000  1.000000 ScalE2=  1.000000  1.000000
 IRadAn=      5 IRanWt=     -1 IRanGd=            0 ICorTp=0 IEmpDi=  4
 NAtoms=    3 NActive=    3 NUniq=    3 SFac= 1.00D+00 NAtFMM=   60 NAOKFM=F Big=F
 Integral buffers will be    131072 words long.
 Raffenetti 2 integral format.
 Two-electron integral symmetry is turned on.
 Leave Link  301 at Sat Apr 17 16:17:06 2021, MaxMem=   104857600 cpu:             122.8 elap:               4.1
 (Enter /s/ls4/users/knvvv/bin/g16sse/l302.exe)
 NPDir=0 NMtPBC=     1 NCelOv=     1 NCel=       1 NClECP=     1 NCelD=      1
         NCelK=      1 NCelE2=     1 NClLst=     1 CellRange=     0.0.
 One-electron integrals computed using PRISM.
 One-electron integral symmetry used in STVInt
 PrsmSu:  requested number of processors reduced to:   4 ShMem   1 Linda.
 PrsmSu:  requested number of processors reduced to:  21 ShMem   1 Linda.
 NBasis=   132 RedAO= T EigKep=  1.63D-04  NBF=    87    45
 NBsUse=   132 1.00D-06 EigRej= -1.00D+00 NBFU=    87    45
 Precomputing XC quadrature grid using
 IXCGrd= 4 IRadAn=           5 IRanWt=          -1 IRanGd=           0 AccXCQ= 0.00D+00.
 Generated NRdTot=       0 NPtTot=           0 NUsed=           0 NTot=          32
 NSgBfM=   158   158   158   158   158 MxSgAt=     3 MxSgA2=     3.
 Leave Link  302 at Sat Apr 17 16:17:09 2021, MaxMem=   104857600 cpu:             126.7 elap:               2.8
 (Enter /s/ls4/users/knvvv/bin/g16sse/l303.exe)
 DipDrv:  MaxL=1.
 Leave Link  303 at Sat Apr 17 16:17:09 2021, MaxMem=   104857600 cpu:              21.2 elap:               0.5
 (Enter /s/ls4/users/knvvv/bin/g16sse/l401.exe)
 SCF N**3 symmetry information disabled.
 ExpMin= 4.36D-02 ExpMax= 1.17D+05 ExpMxC= 1.13D+03 IAcc=3 IRadAn=         5 AccDes= 0.00D+00
 Harris functional with IExCor= 1009 and IRadAn=       5 diagonalized for initial guess.
 HarFok:  IExCor= 1009 AccDes= 0.00D+00 IRadAn=         5 IDoV= 1 UseB2=F ITyADJ=14
 ICtDFT=  3500011 ScaDFX=  1.000000  1.000000  1.000000  1.000000
 FoFCou: FMM=F IPFlag=           0 FMFlag=      100000 FMFlg1=           0
         NFxFlg=           0 DoJE=T BraDBF=F KetDBF=T FulRan=T
         wScrn=  0.000000 ICntrl=       500 IOpCl=  0 I1Cent=   200000004 NGrid=           0
         NMat0=    1 NMatS0=      1 NMatT0=    0 NMatD0=    1 NMtDS0=    0 NMtDT0=    0
 Petite list used in FoFCou.
 CoulSu:  requested number of processors reduced to:  21 ShMem   1 Linda.
 CoulSu:  requested number of processors reduced to:  21 ShMem   1 Linda.
 CoulSu:  requested number of processors reduced to:  21 ShMem   1 Linda.
 CoulSu:  requested number of processors reduced to:  21 ShMem   1 Linda.
 Harris En= -76.4282567407888    
 JPrj=0 DoOrth=F DoCkMO=F.
 Initial guess orbital symmetries:
       Occupied  (A') (A') (A') (A') (A")
       Virtual   (A') (A') (A') (A") (A') (A') (A') (A") (A") (A')
                 (A') (A') (A') (A') (A") (A') (A") (A') (A") (A')
                 (A') (A') (A") (A") (A') (A') (A') (A') (A') (A')
                 (A") (A') (A") (A') (A') (A") (A') (A") (A') (A')
                 (A') (A') (A") (A') (A") (A") (A') (A') (A") (A")
                 (A') (A') (A') (A') (A') (A') (A") (A") (A') (A")
                 (A') (A') (A") (A') (A') (A") (A') (A') (A") (A')
                 (A') (A") (A') (A") (A') (A") (A') (A') (A") (A')
                 (A') (A") (A') (A") (A') (A') (A') (A") (A") (A")
                 (A') (A') (A") (A') (A') (A') (A") (A") (A') (A')
                 (A') (A") (A') (A') (A") (A') (A') (A") (A') (A")
                 (A") (A') (A") (A') (A") (A') (A') (A') (A') (A")
                 (A') (A") (A') (A') (A') (A') (A')
 The electronic state of the initial guess is 1-A'.
 Leave Link  401 at Sat Apr 17 16:17:12 2021, MaxMem=   104857600 cpu:             110.5 elap:               2.6
 (Enter /s/ls4/users/knvvv/bin/g16sse/l502.exe)
 Keep R1 ints in memory in symmetry-blocked form, NReq=92806727.
 FoFCou: FMM=F IPFlag=           0 FMFlag=           0 FMFlg1=           0
         NFxFlg=           0 DoJE=F BraDBF=F KetDBF=F FulRan=T
         wScrn=  0.000000 ICntrl=       600 IOpCl=  0 I1Cent=           0 NGrid=           0
         NMat0=    1 NMatS0=   8778 NMatT0=    0 NMatD0=    1 NMtDS0=    0 NMtDT0=    0
 Petite list used in FoFCou.
 CoulSu:  requested number of processors reduced to:  14 ShMem   1 Linda.
 Closed shell SCF:
 Using DIIS extrapolation, IDIIS=  1040.
 NGot=   104857600 LenX=    85286723 LenY=    85261318
 Requested convergence on RMS density matrix=1.00D-08 within 128 cycles.
 Requested convergence on MAX density matrix=1.00D-06.
 Requested convergence on             energy=1.00D-06.
 No special actions if energy rises.

 Cycle   1  Pass 1  IDiag  1:
 E= -76.3589534914427    
 DIIS: error= 4.33D-02 at cycle   1 NSaved=   1.
 NSaved= 1 IEnMin= 1 EnMin= -76.3589534914427     IErMin= 1 ErrMin= 4.33D-02
 ErrMax= 4.33D-02  0.00D+00 EMaxC= 1.00D-01 BMatC= 1.39D-01 BMatP= 1.39D-01
 IDIUse=3 WtCom= 5.67D-01 WtEn= 4.33D-01
 Coeff-Com:  0.100D+01
 Coeff-En:   0.100D+01
 Coeff:      0.100D+01
 Gap=     0.274 Goal=   None    Shift=    0.000
 GapD=    0.274 DampG=1.000 DampE=0.500 DampFc=0.5000 IDamp=-1.
 Damping current iteration by 5.00D-01
 RMSDP=1.88D-03 MaxDP=6.75D-02              OVMax= 1.72D-01

 Cycle   2  Pass 1  IDiag  1:
 E= -76.3894764730667     Delta-E=       -0.030522981624 Rises=F Damp=T
 DIIS: error= 1.98D-02 at cycle   2 NSaved=   2.
 NSaved= 2 IEnMin= 2 EnMin= -76.3894764730667     IErMin= 2 ErrMin= 1.98D-02
 ErrMax= 1.98D-02  0.00D+00 EMaxC= 1.00D-01 BMatC= 1.39D-02 BMatP= 1.39D-01
 IDIUse=3 WtCom= 8.02D-01 WtEn= 1.98D-01
 Coeff-Com:  0.703D-01 0.930D+00
 Coeff-En:   0.209D+00 0.791D+00
 Coeff:      0.976D-01 0.902D+00
 Gap=     0.409 Goal=   None    Shift=    0.000
 RMSDP=6.30D-04 MaxDP=1.31D-02 DE=-3.05D-02 OVMax= 1.05D-01

 Cycle   3  Pass 1  IDiag  1:
 E= -76.4347756880743     Delta-E=       -0.045299215008 Rises=F Damp=F
 DIIS: error= 2.10D-03 at cycle   3 NSaved=   3.
 NSaved= 3 IEnMin= 3 EnMin= -76.4347756880743     IErMin= 3 ErrMin= 2.10D-03
 ErrMax= 2.10D-03  0.00D+00 EMaxC= 1.00D-01 BMatC= 2.84D-04 BMatP= 1.39D-02
 IDIUse=3 WtCom= 9.79D-01 WtEn= 2.10D-02
 Coeff-Com: -0.367D-01 0.700D-01 0.967D+00
 Coeff-En:   0.000D+00 0.000D+00 0.100D+01
 Coeff:     -0.359D-01 0.685D-01 0.967D+00
 Gap=     0.410 Goal=   None    Shift=    0.000
 RMSDP=7.06D-05 MaxDP=2.60D-03 DE=-4.53D-02 OVMax= 4.62D-03

 Cycle   4  Pass 1  IDiag  1:
 E= -76.4349754388115     Delta-E=       -0.000199750737 Rises=F Damp=F
 DIIS: error= 2.12D-04 at cycle   4 NSaved=   4.
 NSaved= 4 IEnMin= 4 EnMin= -76.4349754388115     IErMin= 4 ErrMin= 2.12D-04
 ErrMax= 2.12D-04  0.00D+00 EMaxC= 1.00D-01 BMatC= 3.39D-06 BMatP= 2.84D-04
 IDIUse=3 WtCom= 9.98D-01 WtEn= 2.12D-03
 Coeff-Com: -0.121D-02 0.131D-02 0.796D-01 0.920D+00
 Coeff-En:   0.000D+00 0.000D+00 0.000D+00 0.100D+01
 Coeff:     -0.121D-02 0.131D-02 0.794D-01 0.920D+00
 Gap=     0.410 Goal=   None    Shift=    0.000
 RMSDP=2.22D-05 MaxDP=5.40D-04 DE=-2.00D-04 OVMax= 6.50D-04

 Cycle   5  Pass 1  IDiag  1:
 E= -76.4349775057963     Delta-E=       -0.000002066985 Rises=F Damp=F
 DIIS: error= 6.04D-05 at cycle   5 NSaved=   5.
 NSaved= 5 IEnMin= 5 EnMin= -76.4349775057963     IErMin= 5 ErrMin= 6.04D-05
 ErrMax= 6.04D-05  0.00D+00 EMaxC= 1.00D-01 BMatC= 1.07D-07 BMatP= 3.39D-06
 IDIUse=1 WtCom= 1.00D+00 WtEn= 0.00D+00
 Coeff-Com:  0.172D-02-0.307D-02-0.361D-01 0.122D-01 0.103D+01
 Coeff:      0.172D-02-0.307D-02-0.361D-01 0.122D-01 0.103D+01
 Gap=     0.410 Goal=   None    Shift=    0.000
 RMSDP=5.58D-06 MaxDP=1.40D-04 DE=-2.07D-06 OVMax= 2.30D-04

 Cycle   6  Pass 1  IDiag  1:
 E= -76.4349776653327     Delta-E=       -0.000000159536 Rises=F Damp=F
 DIIS: error= 7.16D-06 at cycle   6 NSaved=   6.
 NSaved= 6 IEnMin= 6 EnMin= -76.4349776653327     IErMin= 6 ErrMin= 7.16D-06
 ErrMax= 7.16D-06  0.00D+00 EMaxC= 1.00D-01 BMatC= 3.18D-09 BMatP= 1.07D-07
 IDIUse=1 WtCom= 1.00D+00 WtEn= 0.00D+00
 Coeff-Com: -0.158D-03 0.222D-03 0.119D-02-0.229D-01-0.248D-01 0.105D+01
 Coeff:     -0.158D-03 0.222D-03 0.119D-02-0.229D-01-0.248D-01 0.105D+01
 Gap=     0.410 Goal=   None    Shift=    0.000
 RMSDP=5.76D-07 MaxDP=2.34D-05 DE=-1.60D-07 OVMax= 4.05D-05

 Cycle   7  Pass 1  IDiag  1:
 E= -76.4349776709851     Delta-E=       -0.000000005652 Rises=F Damp=F
 DIIS: error= 1.65D-06 at cycle   7 NSaved=   7.
 NSaved= 7 IEnMin= 7 EnMin= -76.4349776709851     IErMin= 7 ErrMin= 1.65D-06
 ErrMax= 1.65D-06  0.00D+00 EMaxC= 1.00D-01 BMatC= 1.06D-10 BMatP= 3.18D-09
 IDIUse=1 WtCom= 1.00D+00 WtEn= 0.00D+00
 Coeff-Com: -0.292D-04 0.697D-04 0.472D-03 0.939D-03-0.276D-01-0.902D-01
 Coeff-Com:  0.112D+01
 Coeff:     -0.292D-04 0.697D-04 0.472D-03 0.939D-03-0.276D-01-0.902D-01
 Coeff:      0.112D+01
 Gap=     0.410 Goal=   None    Shift=    0.000
 RMSDP=1.31D-07 MaxDP=5.12D-06 DE=-5.65D-09 OVMax= 1.03D-05

 Cycle   8  Pass 1  IDiag  1:
 E= -76.4349776712455     Delta-E=       -0.000000000260 Rises=F Damp=F
 DIIS: error= 2.37D-07 at cycle   8 NSaved=   8.
 NSaved= 8 IEnMin= 8 EnMin= -76.4349776712455     IErMin= 8 ErrMin= 2.37D-07
 ErrMax= 2.37D-07  0.00D+00 EMaxC= 1.00D-01 BMatC= 1.79D-12 BMatP= 1.06D-10
 IDIUse=1 WtCom= 1.00D+00 WtEn= 0.00D+00
 Coeff-Com:  0.591D-05-0.103D-04-0.406D-04 0.204D-03 0.272D-02-0.232D-02
 Coeff-Com: -0.148D+00 0.115D+01
 Coeff:      0.591D-05-0.103D-04-0.406D-04 0.204D-03 0.272D-02-0.232D-02
 Coeff:     -0.148D+00 0.115D+01
 Gap=     0.410 Goal=   None    Shift=    0.000
 RMSDP=1.36D-08 MaxDP=3.41D-07 DE=-2.60D-10 OVMax= 1.36D-06

 Cycle   9  Pass 1  IDiag  1:
 E= -76.4349776712490     Delta-E=       -0.000000000004 Rises=F Damp=F
 DIIS: error= 4.43D-08 at cycle   9 NSaved=   9.
 NSaved= 9 IEnMin= 9 EnMin= -76.4349776712490     IErMin= 9 ErrMin= 4.43D-08
 ErrMax= 4.43D-08  0.00D+00 EMaxC= 1.00D-01 BMatC= 1.01D-13 BMatP= 1.79D-12
 IDIUse=1 WtCom= 1.00D+00 WtEn= 0.00D+00
 Coeff-Com:  0.199D-05-0.397D-05-0.166D-04 0.643D-04 0.100D-02 0.511D-03
 Coeff-Com: -0.450D-01 0.185D+00 0.858D+00
 Coeff:      0.199D-05-0.397D-05-0.166D-04 0.643D-04 0.100D-02 0.511D-03
 Coeff:     -0.450D-01 0.185D+00 0.858D+00
 Gap=     0.410 Goal=   None    Shift=    0.000
 RMSDP=2.29D-09 MaxDP=6.50D-08 DE=-3.58D-12 OVMax= 1.34D-07

 SCF Done:  E(RM062X) =  -76.4349776712     A.U. after    9 cycles
            NFock=  9  Conv=0.23D-08     -V/T= 2.0046
 KE= 7.608743494132D+01 PE=-1.985988821066D+02 EE= 3.717633239272D+01
 Leave Link  502 at Sat Apr 17 16:17:35 2021, MaxMem=   104857600 cpu:            1044.7 elap:              22.8
 (Enter /s/ls4/users/knvvv/bin/g16sse/l601.exe)
 Copying SCF densities to generalized density rwf, IOpCl= 0 IROHF=0.

 **********************************************************************

            Population analysis using the SCF density.

 **********************************************************************

 Orbital symmetries:
       Occupied  (A') (A') (A') (A') (A")
       Virtual   (A') (A') (A') (A") (A') (A') (A") (A') (A") (A')
                 (A') (A') (A') (A') (A") (A') (A") (A') (A") (A')
                 (A') (A') (A") (A") (A') (A') (A') (A') (A') (A')
                 (A') (A") (A") (A') (A') (A") (A') (A") (A') (A')
                 (A') (A") (A') (A') (A") (A") (A') (A') (A") (A")
                 (A') (A') (A') (A') (A') (A') (A") (A') (A") (A")
                 (A') (A') (A") (A') (A') (A") (A') (A') (A") (A')
                 (A') (A") (A') (A") (A') (A") (A') (A') (A") (A')
                 (A') (A") (A') (A") (A') (A') (A') (A") (A") (A')
                 (A') (A") (A") (A') (A') (A') (A") (A') (A") (A')
                 (A') (A") (A') (A') (A") (A') (A') (A") (A') (A")
                 (A") (A') (A') (A") (A') (A") (A') (A') (A') (A")
                 (A') (A") (A') (A') (A') (A') (A')
 The electronic state is 1-A'.
 Alpha  occ. eigenvalues --  -19.63410  -1.12471  -0.59540  -0.47623  -0.40141
 Alpha virt. eigenvalues --    0.00872   0.04158   0.06346   0.06423   0.13081
 Alpha virt. eigenvalues --    0.14795   0.17183   0.18539   0.19284   0.23251
 Alpha virt. eigenvalues --    0.25162   0.27557   0.34662   0.36629   0.40357
 Alpha virt. eigenvalues --    0.44493   0.45891   0.46154   0.50893   0.52002
 Alpha virt. eigenvalues --    0.54243   0.65479   0.76637   0.80878   0.82665
 Alpha virt. eigenvalues --    0.94229   1.00421   1.03693   1.09975   1.14096
 Alpha virt. eigenvalues --    1.32479   1.38839   1.44099   1.46115   1.50231
 Alpha virt. eigenvalues --    1.59902   1.63044   1.87725   1.93825   2.00980
 Alpha virt. eigenvalues --    2.02170   2.23768   2.23981   2.43590   2.43821
 Alpha virt. eigenvalues --    2.44878   2.54313   2.60244   2.63097   2.67033
 Alpha virt. eigenvalues --    2.67253   2.87354   3.09521   3.20641   3.24735
 Alpha virt. eigenvalues --    3.39750   3.65705   3.89309   3.92262   3.95573
 Alpha virt. eigenvalues --    4.05508   4.13258   4.21939   4.23930   4.38639
 Alpha virt. eigenvalues --    4.49259   4.71810   4.74659   5.23969   5.26299
 Alpha virt. eigenvalues --    5.37471   5.59254   5.77160   5.81969   5.91074
 Alpha virt. eigenvalues --    6.23880   6.33779   6.58229   6.83328   6.95878
 Alpha virt. eigenvalues --    7.03965   7.12901   7.18554   7.22886   7.24937
 Alpha virt. eigenvalues --    7.29771   7.52106   7.53064   7.66169   7.68627
 Alpha virt. eigenvalues --    7.69150   7.72440   7.82676   7.97555   8.10040
 Alpha virt. eigenvalues --    8.28091   8.32105   8.47297   8.49523   8.69704
 Alpha virt. eigenvalues --    8.87299   9.62561   9.68481  10.01590  10.03737
 Alpha virt. eigenvalues --   10.42228  10.46640  10.71918  10.80431  10.96372
 Alpha virt. eigenvalues --   11.15052  11.24169  11.43661  11.44417  11.58706
 Alpha virt. eigenvalues --   11.60528  12.05138  12.43690  13.01187  13.26066
 Alpha virt. eigenvalues --   13.38756  13.64151  14.11113  16.02474  16.27024
 Alpha virt. eigenvalues --   48.21150 251.26876
          Condensed to atoms (all electrons):
               1          2          3
     1  O    8.162308   0.271176   0.273006
     2  H    0.271176   0.391258  -0.018161
     3  H    0.273006  -0.018161   0.394391
 Mulliken charges:
               1
     1  O   -0.706491
     2  H    0.355727
     3  H    0.350764
 Sum of Mulliken charges =  -0.00000
 Mulliken charges with hydrogens summed into heavy atoms:
               1
     1  O   -0.000000
 Electronic spatial extent (au):  <R**2>=             20.2189
 Charge=             -0.0000 electrons
 Dipole moment (field-independent basis, Debye):
    X=              0.0049    Y=             -1.9408    Z=              0.0000  Tot=              1.9408
 Quadrupole moment (field-independent basis, Debye-Ang):
   XX=             -4.3983   YY=             -6.3550   ZZ=             -7.7669
   XY=              0.0316   XZ=             -0.0000   YZ=              0.0000
 Traceless Quadrupole moment (field-independent basis, Debye-Ang):
   XX=              1.7751   YY=             -0.1816   ZZ=             -1.5935
   XY=              0.0316   XZ=             -0.0000   YZ=              0.0000
 Octapole moment (field-independent basis, Debye-Ang**2):
  XXX=              0.0169  YYY=             -1.0204  ZZZ=              0.0000  XYY=             -0.0241
  XXY=             -1.4178  XXZ=              0.0000  XZZ=              0.0061  YZZ=             -0.2025
  YYZ=              0.0000  XYZ=              0.0000
 Hexadecapole moment (field-independent basis, Debye-Ang**3):
 XXXX=             -6.6682 YYYY=             -7.9356 ZZZZ=             -7.3846 XXXY=             -0.0029
 XXXZ=             -0.0000 YYYX=              0.0005 YYYZ=              0.0000 ZZZX=              0.0000
 ZZZY=              0.0000 XXYY=             -2.0475 XXZZ=             -2.6909 YYZZ=             -2.6128
 XXYZ=              0.0000 YYXZ=             -0.0000 ZZXY=             -0.0091
 N-N= 8.900137101331D+00 E-N=-1.985988828347D+02  KE= 7.608743494132D+01
 PrsmSu:  requested number of processors reduced to:  21 ShMem   1 Linda.
 No NMR shielding tensors so no spin-rotation constants.
 Leave Link  601 at Sat Apr 17 16:17:36 2021, MaxMem=   104857600 cpu:              60.0 elap:               1.4
 (Enter /s/ls4/users/knvvv/bin/g16sse/l801.exe)
 DoSCS=F DFT=T ScalE2(SS,OS)=  1.000000  1.000000
 Range of M.O.s used for correlation:     1   132
 NBasis=   132 NAE=     5 NBE=     5 NFC=     0 NFV=     0
 NROrb=    132 NOA=     5 NOB=     5 NVA=   127 NVB=   127

 **** Warning!!: The largest alpha MO coefficient is  0.24938054D+02

 Leave Link  801 at Sat Apr 17 16:17:36 2021, MaxMem=   104857600 cpu:               3.9 elap:               0.1
 (Enter /s/ls4/users/knvvv/bin/g16sse/l914.exe)
 RHF ground state
 Doing stability rather than CIS.
 Two-electron integrals replicated using symmetry.
 MDV=   104857600 DFT=T DoStab=T Mixed=T DoRPA=F DoScal=F NonHer=F
 Making orbital integer symmetry assigments:
 Orbital symmetries:
       Occupied  (A') (A') (A') (A') (A")
       Virtual   (A') (A') (A') (A") (A') (A') (A") (A') (A") (A')
                 (A') (A') (A') (A') (A") (A') (A") (A') (A") (A')
                 (A') (A') (A") (A") (A') (A') (A') (A') (A') (A')
                 (A') (A") (A") (A') (A') (A") (A') (A") (A') (A')
                 (A') (A") (A') (A') (A") (A") (A') (A') (A") (A")
                 (A') (A') (A') (A') (A') (A') (A") (A') (A") (A")
                 (A') (A') (A") (A') (A') (A") (A') (A') (A") (A')
                 (A') (A") (A') (A") (A') (A") (A') (A') (A") (A')
                 (A') (A") (A') (A") (A') (A') (A') (A") (A") (A')
                 (A') (A") (A") (A') (A') (A') (A") (A') (A") (A')
                 (A') (A") (A') (A') (A") (A') (A') (A") (A') (A")
                 (A") (A') (A') (A") (A') (A") (A') (A') (A') (A")
                 (A') (A") (A') (A') (A') (A') (A')
    24 initial guesses have been made.
 Convergence on wavefunction:    0.001000000000000
 Davidson Disk Diagonalization:  ConvIn= 1.00D-03 SkipCon=T Conv= 1.00D-03.
 Max sub-space:  2000 roots to seek:    24 dimension of matrix:         1270
 Iteration     1 Dimension    24 NMult     0 NNew     24
 Estimated number of processors is:   20
 CISAX will form     1 AO SS matrices at one time.
 NMat=     1 NSing=     1 JSym2X= 2.
 FoFJK:  IHMeth= 1 ICntrl=       0 DoSepK=F KAlg= 0 I1Cent=           0 FoldK=F
 IRaf= 990000000 NMat=       1 IRICut=       1 DoRegI=T DoRafI=F ISym2E= 2 IDoP0=0 IntGTp=1.
 FoFCou: FMM=F IPFlag=           0 FMFlag=      100000 FMFlg1=           0
         NFxFlg=           0 DoJE=F BraDBF=F KetDBF=F FulRan=T
         wScrn=  0.000000 ICntrl=         0 IOpCl=  0 I1Cent=           0 NGrid=           0
         NMat0=    1 NMatS0=      1 NMatT0=    0 NMatD0=    1 NMtDS0=    0 NMtDT0=    0
 Integrals replicated using symmetry in FoFCou.
 CoulSu:  requested number of processors reduced to:  21 ShMem   1 Linda.
 NMat=     1 NSing=     1 JSym2X= 2.
 CoulSu:  requested number of processors reduced to:  21 ShMem   1 Linda.
 NMat=     1 NSing=     1 JSym2X= 2.
 CoulSu:  requested number of processors reduced to:  21 ShMem   1 Linda.
 NMat=     1 NSing=     1 JSym2X= 2.
 CoulSu:  requested number of processors reduced to:  21 ShMem   1 Linda.
 NMat=     1 NSing=     1 JSym2X= 2.
 CoulSu:  requested number of processors reduced to:  21 ShMem   1 Linda.
 NMat=     1 NSing=     1 JSym2X= 2.
 CoulSu:  requested number of processors reduced to:  21 ShMem   1 Linda.
 NMat=     1 NSing=     1 JSym2X= 2.
 CoulSu:  requested number of processors reduced to:  21 ShMem   1 Linda.
 NMat=     1 NSing=     1 JSym2X= 2.
 CoulSu:  requested number of processors reduced to:  21 ShMem   1 Linda.
 NMat=     1 NSing=     1 JSym2X= 2.
 CoulSu:  requested number of processors reduced to:  21 ShMem   1 Linda.
 NMat=     1 NSing=     1 JSym2X= 2.
 CoulSu:  requested number of processors reduced to:  21 ShMem   1 Linda.
 NMat=     1 NSing=     1 JSym2X= 2.
 CoulSu:  requested number of processors reduced to:  21 ShMem   1 Linda.
 NMat=     1 NSing=     1 JSym2X= 2.
 CoulSu:  requested number of processors reduced to:  21 ShMem   1 Linda.
 NMat=     1 NSing=     0 JSym2X= 2.
 CoulSu:  requested number of processors reduced to:  21 ShMem   1 Linda.
 NMat=     1 NSing=     0 JSym2X= 2.
 CoulSu:  requested number of processors reduced to:  21 ShMem   1 Linda.
 NMat=     1 NSing=     0 JSym2X= 2.
 CoulSu:  requested number of processors reduced to:  21 ShMem   1 Linda.
 NMat=     1 NSing=     0 JSym2X= 2.
 CoulSu:  requested number of processors reduced to:  21 ShMem   1 Linda.
 NMat=     1 NSing=     0 JSym2X= 2.
 CoulSu:  requested number of processors reduced to:  21 ShMem   1 Linda.
 NMat=     1 NSing=     0 JSym2X= 2.
 CoulSu:  requested number of processors reduced to:  21 ShMem   1 Linda.
 NMat=     1 NSing=     0 JSym2X= 2.
 CoulSu:  requested number of processors reduced to:  21 ShMem   1 Linda.
 NMat=     1 NSing=     0 JSym2X= 2.
 CoulSu:  requested number of processors reduced to:  21 ShMem   1 Linda.
 NMat=     1 NSing=     0 JSym2X= 2.
 CoulSu:  requested number of processors reduced to:  21 ShMem   1 Linda.
 NMat=     1 NSing=     0 JSym2X= 2.
 CoulSu:  requested number of processors reduced to:  21 ShMem   1 Linda.
 NMat=     1 NSing=     0 JSym2X= 2.
 CoulSu:  requested number of processors reduced to:  21 ShMem   1 Linda.
 NMat=     1 NSing=     0 JSym2X= 2.
 CoulSu:  requested number of processors reduced to:  21 ShMem   1 Linda.
 New state      1 was old state      2
 Excitation Energies [eV] at current iteration:
 Root      1 :     7.571236486887932
 Root      2 :     7.955571107588091
 Root      3 :     9.223384008463993
 Root      4 :     9.390092974950017
 Root      5 :     9.866027549207212
 Root      6 :    10.015702534931550
 Root      7 :    10.121727536386810
 Root      8 :    10.131105400768670
 Root      9 :    10.182416209557940
 Root     10 :    11.273518905622070
 Root     11 :    11.318192423212510
 Root     12 :    11.394029748630980
 Root     13 :    11.457254938211270
 Root     14 :    11.595459817505680
 Root     15 :    11.982309139054320
 Root     16 :    12.069475798443540
 Root     17 :    12.151602413825900
 Root     18 :    12.167369738741320
 Root     19 :    12.194476296279430
 Root     20 :    12.866339075542730
 Root     21 :    13.064265411612620
 Root     22 :    13.104174715878770
 Root     23 :    13.123821513770620
 Root     24 :    13.333410054441850
 Iteration     2 Dimension    48 NMult    24 NNew     24
 Estimated number of processors is:   20
 CISAX will form     1 AO SS matrices at one time.
 NMat=     1 NSing=     1 JSym2X= 2.
 CoulSu:  requested number of processors reduced to:  21 ShMem   1 Linda.
 NMat=     1 NSing=     1 JSym2X= 2.
 CoulSu:  requested number of processors reduced to:  21 ShMem   1 Linda.
 NMat=     1 NSing=     1 JSym2X= 2.
 CoulSu:  requested number of processors reduced to:  21 ShMem   1 Linda.
 NMat=     1 NSing=     1 JSym2X= 2.
 CoulSu:  requested number of processors reduced to:  21 ShMem   1 Linda.
 NMat=     1 NSing=     1 JSym2X= 2.
 CoulSu:  requested number of processors reduced to:  21 ShMem   1 Linda.
 NMat=     1 NSing=     1 JSym2X= 2.
 CoulSu:  requested number of processors reduced to:  21 ShMem   1 Linda.
 NMat=     1 NSing=     1 JSym2X= 2.
 CoulSu:  requested number of processors reduced to:  21 ShMem   1 Linda.
 NMat=     1 NSing=     1 JSym2X= 2.
 CoulSu:  requested number of processors reduced to:  21 ShMem   1 Linda.
 NMat=     1 NSing=     1 JSym2X= 2.
 CoulSu:  requested number of processors reduced to:  21 ShMem   1 Linda.
 NMat=     1 NSing=     1 JSym2X= 2.
 CoulSu:  requested number of processors reduced to:  21 ShMem   1 Linda.
 NMat=     1 NSing=     1 JSym2X= 2.
 CoulSu:  requested number of processors reduced to:  21 ShMem   1 Linda.
 NMat=     1 NSing=     1 JSym2X= 2.
 CoulSu:  requested number of processors reduced to:  21 ShMem   1 Linda.
 NMat=     1 NSing=     0 JSym2X= 2.
 CoulSu:  requested number of processors reduced to:  21 ShMem   1 Linda.
 NMat=     1 NSing=     0 JSym2X= 2.
 CoulSu:  requested number of processors reduced to:  21 ShMem   1 Linda.
 NMat=     1 NSing=     0 JSym2X= 2.
 CoulSu:  requested number of processors reduced to:  21 ShMem   1 Linda.
 NMat=     1 NSing=     0 JSym2X= 2.
 CoulSu:  requested number of processors reduced to:  21 ShMem   1 Linda.
 NMat=     1 NSing=     0 JSym2X= 2.
 CoulSu:  requested number of processors reduced to:  21 ShMem   1 Linda.
 NMat=     1 NSing=     0 JSym2X= 2.
 CoulSu:  requested number of processors reduced to:  21 ShMem   1 Linda.
 NMat=     1 NSing=     0 JSym2X= 2.
 CoulSu:  requested number of processors reduced to:  21 ShMem   1 Linda.
 NMat=     1 NSing=     0 JSym2X= 2.
 CoulSu:  requested number of processors reduced to:  21 ShMem   1 Linda.
 NMat=     1 NSing=     0 JSym2X= 2.
 CoulSu:  requested number of processors reduced to:  21 ShMem   1 Linda.
 NMat=     1 NSing=     0 JSym2X= 2.
 CoulSu:  requested number of processors reduced to:  21 ShMem   1 Linda.
 NMat=     1 NSing=     0 JSym2X= 2.
 CoulSu:  requested number of processors reduced to:  21 ShMem   1 Linda.
 NMat=     1 NSing=     0 JSym2X= 2.
 CoulSu:  requested number of processors reduced to:  21 ShMem   1 Linda.
 Root      1 not converged, maximum delta is    0.149724620204118
 Excitation Energies [eV] at current iteration:
 Root      1 :     6.955310174132983   Change is   -0.615926312754948
 Root      2 :     7.764344624737527   Change is   -0.191226482850565
 Root      3 :     8.703992060788156   Change is   -0.519391947675838
 Root      4 :     8.958793819827946   Change is   -0.907233729379266
 Root      5 :     9.107098028985861   Change is   -0.282994945964156
 Root      6 :     9.756197920912566   Change is   -0.365529615474246
 Root      7 :     9.847543143027929   Change is   -0.334873066530012
 Root      8 :     9.862434939023599   Change is   -0.153267595907950
 Root      9 :    10.047581167803750   Change is   -0.083524232964919
 Root     10 :    10.669275429129560   Change is   -0.604243476492512
 Root     11 :    10.714379927654480   Change is   -0.679649820976506
 Root     12 :    10.847475761196720   Change is   -0.470716662015794
 Root     13 :    11.160564267374580   Change is   -0.296690670836686
 Root     14 :    11.354194235371670   Change is   -0.241265582134014
 Root     15 :    11.731043327518790   Change is   -0.338432470924748
 Root     16 :    11.747685606598780   Change is   -0.234623532455543
 Root     17 :    11.944037701219450   Change is   -0.207564712606455
 Root     18 :    12.026525326388680   Change is   -0.167950969890752
 Root     19 :    12.051126833776190   Change is   -0.116242904965131
 Root     20 :    12.396178602737360   Change is   -0.470160472805370
 Root     21 :    12.399277794643750   Change is   -0.724543719126867
 Root     22 :    12.808419302393740   Change is   -0.255846109218876
 Root     23 :    12.871244013127950   Change is   -0.232930702750815
 Root     24 :    13.037857591535540   Change is   -0.295552462906300
 Iteration     3 Dimension    54 NMult    48 NNew      6
 Estimated number of processors is:   20
 CISAX will form     1 AO SS matrices at one time.
 NMat=     1 NSing=     1 JSym2X= 2.
 CoulSu:  requested number of processors reduced to:  21 ShMem   1 Linda.
 NMat=     1 NSing=     1 JSym2X= 2.
 CoulSu:  requested number of processors reduced to:  21 ShMem   1 Linda.
 NMat=     1 NSing=     1 JSym2X= 2.
 CoulSu:  requested number of processors reduced to:  21 ShMem   1 Linda.
 NMat=     1 NSing=     0 JSym2X= 2.
 CoulSu:  requested number of processors reduced to:  21 ShMem   1 Linda.
 NMat=     1 NSing=     0 JSym2X= 2.
 CoulSu:  requested number of processors reduced to:  21 ShMem   1 Linda.
 NMat=     1 NSing=     0 JSym2X= 2.
 CoulSu:  requested number of processors reduced to:  21 ShMem   1 Linda.
 Root      1 not converged, maximum delta is    0.011630992767388
 Excitation Energies [eV] at current iteration:
 Root      1 :     6.942974202055109   Change is   -0.012335972077874
 Root      2 :     7.752115186567173   Change is   -0.012229438170354
 Root      3 :     8.684639611763536   Change is   -0.019352449024618
 Root      4 :     8.827800364339696   Change is   -0.130993455488249
 Root      5 :     9.101319932530151   Change is   -0.005778096455711
 Root      6 :     9.830031189065769   Change is   -0.017511953962160
 Iteration     4 Dimension    60 NMult    54 NNew      6
 Estimated number of processors is:   20
 CISAX will form     1 AO SS matrices at one time.
 NMat=     1 NSing=     1 JSym2X= 2.
 CoulSu:  requested number of processors reduced to:  21 ShMem   1 Linda.
 NMat=     1 NSing=     1 JSym2X= 2.
 CoulSu:  requested number of processors reduced to:  21 ShMem   1 Linda.
 NMat=     1 NSing=     1 JSym2X= 2.
 CoulSu:  requested number of processors reduced to:  21 ShMem   1 Linda.
 NMat=     1 NSing=     0 JSym2X= 2.
 CoulSu:  requested number of processors reduced to:  21 ShMem   1 Linda.
 NMat=     1 NSing=     0 JSym2X= 2.
 CoulSu:  requested number of processors reduced to:  21 ShMem   1 Linda.
 NMat=     1 NSing=     0 JSym2X= 2.
 CoulSu:  requested number of processors reduced to:  21 ShMem   1 Linda.
 Root      1 has converged.
 Excitation Energies [eV] at current iteration:
 Root      1 :     6.942855583219596   Change is   -0.000118618835514
 Root      2 :     7.752025612053429   Change is   -0.000089574513744
 Root      3 :     8.684255295567020   Change is   -0.000384316196517
 Root      4 :     8.803094494524519   Change is   -0.024705869815178
 Root      5 :     9.101231755862386   Change is   -0.000088176667764
 Root      6 :     9.828025969624600   Change is   -0.002005219441170
 Convergence achieved on expansion vectors.
 ***********************************************************************
 Stability analysis using <AA,BB:AA,BB> singles matrix:
 ***********************************************************************
 1PDM for each excited state written to RWF  633
 Ground to excited state transition densities written to RWF  633

 Eigenvectors of the stability matrix:
 
 Eigenvector   1:      Triplet-A"   Eigenvalue= 0.2551452  <S**2>=2.000
       5 ->  6         0.65046
       5 ->  8        -0.10465
       5 -> 13        -0.16248
       5 -> 16        -0.15722
 The wavefunction is stable under the perturbations considered.
 Leave Link  914 at Sat Apr 17 16:19:27 2021, MaxMem=   104857600 cpu:            4395.5 elap:             110.7
 (Enter /s/ls4/users/knvvv/bin/g16sse/l508.exe)
 The wavefunction is already stable.
 Leave Link  508 at Sat Apr 17 16:19:27 2021, MaxMem=   104857600 cpu:               2.2 elap:               0.1
 (Enter /s/ls4/users/knvvv/bin/g16sse/l601.exe)
 Copying SCF densities to generalized density rwf, IOpCl= 0 IROHF=0.

 **********************************************************************

            Population analysis using the SCF density.

 **********************************************************************

 Orbital symmetries:
       Occupied  (A') (A') (A') (A') (A")
       Virtual   (A') (A') (A') (A") (A') (A') (A") (A') (A") (A')
                 (A') (A') (A') (A') (A") (A') (A") (A') (A") (A')
                 (A') (A') (A") (A") (A') (A') (A') (A') (A') (A')
                 (A') (A") (A") (A') (A') (A") (A') (A") (A') (A')
                 (A') (A") (A') (A') (A") (A") (A') (A') (A") (A")
                 (A') (A') (A') (A') (A') (A') (A") (A') (A") (A")
                 (A') (A') (A") (A') (A') (A") (A') (A') (A") (A')
                 (A') (A") (A') (A") (A') (A") (A') (A') (A") (A')
                 (A') (A") (A') (A") (A') (A') (A') (A") (A") (A')
                 (A') (A") (A") (A') (A') (A') (A") (A') (A") (A')
                 (A') (A") (A') (A') (A") (A') (A') (A") (A') (A")
                 (A") (A') (A') (A") (A') (A") (A') (A') (A') (A")
                 (A') (A") (A') (A') (A') (A') (A')
 The electronic state is 1-A'.
 Alpha  occ. eigenvalues --  -19.63410  -1.12471  -0.59540  -0.47623  -0.40141
 Alpha virt. eigenvalues --    0.00872   0.04158   0.06346   0.06423   0.13081
 Alpha virt. eigenvalues --    0.14795   0.17183   0.18539   0.19284   0.23251
 Alpha virt. eigenvalues --    0.25162   0.27557   0.34662   0.36629   0.40357
 Alpha virt. eigenvalues --    0.44493   0.45891   0.46154   0.50893   0.52002
 Alpha virt. eigenvalues --    0.54243   0.65479   0.76637   0.80878   0.82665
 Alpha virt. eigenvalues --    0.94229   1.00421   1.03693   1.09975   1.14096
 Alpha virt. eigenvalues --    1.32479   1.38839   1.44099   1.46115   1.50231
 Alpha virt. eigenvalues --    1.59902   1.63044   1.87725   1.93825   2.00980
 Alpha virt. eigenvalues --    2.02170   2.23768   2.23981   2.43590   2.43821
 Alpha virt. eigenvalues --    2.44878   2.54313   2.60244   2.63097   2.67033
 Alpha virt. eigenvalues --    2.67253   2.87354   3.09521   3.20641   3.24735
 Alpha virt. eigenvalues --    3.39750   3.65705   3.89309   3.92262   3.95573
 Alpha virt. eigenvalues --    4.05508   4.13258   4.21939   4.23930   4.38639
 Alpha virt. eigenvalues --    4.49259   4.71810   4.74659   5.23969   5.26299
 Alpha virt. eigenvalues --    5.37471   5.59254   5.77160   5.81969   5.91074
 Alpha virt. eigenvalues --    6.23880   6.33779   6.58229   6.83328   6.95878
 Alpha virt. eigenvalues --    7.03965   7.12901   7.18554   7.22886   7.24937
 Alpha virt. eigenvalues --    7.29771   7.52106   7.53064   7.66169   7.68627
 Alpha virt. eigenvalues --    7.69150   7.72440   7.82676   7.97555   8.10040
 Alpha virt. eigenvalues --    8.28091   8.32105   8.47297   8.49523   8.69704
 Alpha virt. eigenvalues --    8.87299   9.62561   9.68481  10.01590  10.03737
 Alpha virt. eigenvalues --   10.42228  10.46640  10.71918  10.80431  10.96372
 Alpha virt. eigenvalues --   11.15052  11.24169  11.43661  11.44417  11.58706
 Alpha virt. eigenvalues --   11.60528  12.05138  12.43690  13.01187  13.26066
 Alpha virt. eigenvalues --   13.38756  13.64151  14.11113  16.02474  16.27024
 Alpha virt. eigenvalues --   48.21150 251.26876
          Condensed to atoms (all electrons):
               1          2          3
     1  O    8.162308   0.271176   0.273006
     2  H    0.271176   0.391258  -0.018161
     3  H    0.273006  -0.018161   0.394391
 Mulliken charges:
               1
     1  O   -0.706491
     2  H    0.355727
     3  H    0.350764
 Sum of Mulliken charges =  -0.00000
 Mulliken charges with hydrogens summed into heavy atoms:
               1
     1  O   -0.000000
 Electronic spatial extent (au):  <R**2>=             20.2189
 Charge=             -0.0000 electrons
 Dipole moment (field-independent basis, Debye):
    X=              0.0049    Y=             -1.9408    Z=              0.0000  Tot=              1.9408
 Quadrupole moment (field-independent basis, Debye-Ang):
   XX=             -4.3983   YY=             -6.3550   ZZ=             -7.7669
   XY=              0.0316   XZ=             -0.0000   YZ=              0.0000
 Traceless Quadrupole moment (field-independent basis, Debye-Ang):
   XX=              1.7751   YY=             -0.1816   ZZ=             -1.5935
   XY=              0.0316   XZ=             -0.0000   YZ=              0.0000
 Octapole moment (field-independent basis, Debye-Ang**2):
  XXX=              0.0169  YYY=             -1.0204  ZZZ=              0.0000  XYY=             -0.0241
  XXY=             -1.4178  XXZ=              0.0000  XZZ=              0.0061  YZZ=             -0.2025
  YYZ=              0.0000  XYZ=              0.0000
 Hexadecapole moment (field-independent basis, Debye-Ang**3):
 XXXX=             -6.6682 YYYY=             -7.9356 ZZZZ=             -7.3846 XXXY=             -0.0029
 XXXZ=             -0.0000 YYYX=              0.0005 YYYZ=              0.0000 ZZZX=              0.0000
 ZZZY=              0.0000 XXYY=             -2.0475 XXZZ=             -2.6909 YYZZ=             -2.6128
 XXYZ=              0.0000 YYXZ=             -0.0000 ZZXY=             -0.0091
 N-N= 8.900137101331D+00 E-N=-1.985988828347D+02  KE= 7.608743494132D+01
 PrsmSu:  requested number of processors reduced to:  21 ShMem   1 Linda.
 No NMR shielding tensors so no spin-rotation constants.
 Leave Link  601 at Sat Apr 17 16:19:28 2021, MaxMem=   104857600 cpu:              59.8 elap:               1.4
 (Enter /s/ls4/users/knvvv/bin/g16sse/l9999.exe)

 Test job not archived.
 1\1\GINC-N185\Stability\RM062X\Gen\H2O1\KNVVV\17-Apr-2021\0\\#P M062X/
 GEN Integral=UltraFineGrid SCF=NoSymm Stable=(RExt, Opt) IOp(1/33=1)\\
 Database calculations.\\0,1\O,0,-1.744177,-0.592217,-0.877708\H,0,-1.3
 47184,-0.019553,-1.571607\H,0,-0.94949,-1.014019,-0.452175\\Version=ES
 64L-G16RevA.03\State=1-A'\HF=-76.4349777\RMSD=2.287e-09\Dipole=0.73881
 68,0.0948226,-0.1678756\Quadrupole=-0.0394838,-0.1357446,0.1752284,-0.
 2838348,0.2382915,-1.1915035\PG=CS [SG(H2O1)]\\@


 HONESTY IN A LAWYER IS LIKE A HEN'S HIND LEGS.
  -- MAGNUS OLESON, LAKE WOBEGON PATRIARCH, C.1875
 Job cpu time:       0 days  1 hours 39 minutes 45.4 seconds.
 Elapsed time:       0 days  0 hours  2 minutes 27.6 seconds.
 File lengths (MBytes):  RWF=     56 Int=      0 D2E=      0 Chk=      3 Scr=      1
 Normal termination of Gaussian 16 at Sat Apr 17 16:19:29 2021.
