 Entering Gaussian System, Link 0=/s/ls4/users/knvvv/bin/g16sse/g16
 Input=data/database/M062X--def2-QZVPPD--34_f2_BH76.gjf
 Output=data/database/M062X--def2-QZVPPD--34_f2_BH76.log
 Initial command:
 /s/ls4/users/knvvv/bin/g16sse/l1.exe "/s/ls4/users/knvvv/bin/scratch/Gau-11474.inp" -scrdir="/s/ls4/users/knvvv/bin/scratch/"
 Entering Link 1 = /s/ls4/users/knvvv/bin/g16sse/l1.exe PID=     11475.
  
 Copyright (c) 1988,1990,1992,1993,1995,1998,2003,2009,2016,
            Gaussian, Inc.  All Rights Reserved.
  
 This is part of the Gaussian(R) 16 program.  It is based on
 the Gaussian(R) 09 system (copyright 2009, Gaussian, Inc.),
 the Gaussian(R) 03 system (copyright 2003, Gaussian, Inc.),
 the Gaussian(R) 98 system (copyright 1998, Gaussian, Inc.),
 the Gaussian(R) 94 system (copyright 1995, Gaussian, Inc.),
 the Gaussian 92(TM) system (copyright 1992, Gaussian, Inc.),
 the Gaussian 90(TM) system (copyright 1990, Gaussian, Inc.),
 the Gaussian 88(TM) system (copyright 1988, Gaussian, Inc.),
 the Gaussian 86(TM) system (copyright 1986, Carnegie Mellon
 University), and the Gaussian 82(TM) system (copyright 1983,
 Carnegie Mellon University). Gaussian is a federally registered
 trademark of Gaussian, Inc.
  
 This software contains proprietary and confidential information,
 including trade secrets, belonging to Gaussian, Inc.
  
 This software is provided under written license and may be
 used, copied, transmitted, or stored only in accord with that
 written license.
  
 The following legend is applicable only to US Government
 contracts under FAR:
  
                    RESTRICTED RIGHTS LEGEND
  
 Use, reproduction and disclosure by the US Government is
 subject to restrictions as set forth in subparagraphs (a)
 and (c) of the Commercial Computer Software - Restricted
 Rights clause in FAR 52.227-19.
  
 Gaussian, Inc.
 340 Quinnipiac St., Bldg. 40, Wallingford CT 06492
  
  
 ---------------------------------------------------------------
 Warning -- This program may not be used in any manner that
 competes with the business of Gaussian, Inc. or will provide
 assistance to any competitor of Gaussian, Inc.  The licensee
 of this program is prohibited from giving any competitor of
 Gaussian, Inc. access to this program.  By using this program,
 the user acknowledges that Gaussian, Inc. is engaged in the
 business of creating and licensing software in the field of
 computational chemistry and represents and warrants to the
 licensee that it is not a competitor of Gaussian, Inc. and that
 it will not use this program in any manner prohibited above.
 ---------------------------------------------------------------
  

 Cite this work as:
 Gaussian 16, Revision A.03,
 M. J. Frisch, G. W. Trucks, H. B. Schlegel, G. E. Scuseria, 
 M. A. Robb, J. R. Cheeseman, G. Scalmani, V. Barone, 
 G. A. Petersson, H. Nakatsuji, X. Li, M. Caricato, A. V. Marenich, 
 J. Bloino, B. G. Janesko, R. Gomperts, B. Mennucci, H. P. Hratchian, 
 J. V. Ortiz, A. F. Izmaylov, J. L. Sonnenberg, D. Williams-Young, 
 F. Ding, F. Lipparini, F. Egidi, J. Goings, B. Peng, A. Petrone, 
 T. Henderson, D. Ranasinghe, V. G. Zakrzewski, J. Gao, N. Rega, 
 G. Zheng, W. Liang, M. Hada, M. Ehara, K. Toyota, R. Fukuda, 
 J. Hasegawa, M. Ishida, T. Nakajima, Y. Honda, O. Kitao, H. Nakai, 
 T. Vreven, K. Throssell, J. A. Montgomery, Jr., J. E. Peralta, 
 F. Ogliaro, M. J. Bearpark, J. J. Heyd, E. N. Brothers, K. N. Kudin, 
 V. N. Staroverov, T. A. Keith, R. Kobayashi, J. Normand, 
 K. Raghavachari, A. P. Rendell, J. C. Burant, S. S. Iyengar, 
 J. Tomasi, M. Cossi, J. M. Millam, M. Klene, C. Adamo, R. Cammi, 
 J. W. Ochterski, R. L. Martin, K. Morokuma, O. Farkas, 
 J. B. Foresman, and D. J. Fox, Gaussian, Inc., Wallingford CT, 2016.
 
 ******************************************
 Gaussian 16:  ES64L-G16RevA.03 25-Dec-2016
                18-Apr-2021 
 ******************************************
 %RWF=temp5_59320,70GB
 %nprocshared=48
 Will use up to   48 processors via shared memory.
 Default route: MaxDisk=80GB
 ----------------------------------------------------------------------
 #P M062X/GEN Integral=UltraFineGrid SCF=NoSymm Stable=(RExt, Opt) IOp(
 1/33=1)
 ----------------------------------------------------------------------
 1/33=1,38=1,172=1/1;
 2/12=2,17=6,18=5,40=1/2;
 3/5=7,11=2,25=1,30=1,74=-55,75=-5/1,2,3;
 4/9=2/1;
 5/5=2,38=5/2;
 6/7=2,8=2,9=2,10=2,28=1/1;
 8/6=1,10=90,11=11/1;
 9/8=-3,42=1,46=1/14;
 5/5=2,8=3,17=40,38=5/8(-2);
 6/7=2,8=2,9=2,10=2,28=1/1;
 99/5=1,9=1/99;
 Leave Link    1 at Sun Apr 18 07:02:16 2021, MaxMem=           0 cpu:               7.2 elap:               0.2
 (Enter /s/ls4/users/knvvv/bin/g16sse/l101.exe)
 ONIOM data not found on unit 2.
 ----------------------
 Database calculations.
 ----------------------
 TstMul:  ICh=     0
 TstMul:  Mul=     1
 TstMul:  ICh=     0
 TstMul:  Mul=     1
 Symbolic Z-matrix:
 Charge =  0 Multiplicity = 1
 F                     0.        0.        0.6976 
 F                     0.        0.       -0.6976 
 
 RdStrC is calling ZToCFu for IStruc=1 NZ=     2.
 PrtBox:  NBox=     1 Levels=  1 BoxLen=    8.00 SMaxX=        2.64
          Shift=            0.000000            0.000000            1.318280
 Box      1 Number                   0 centers from      1 to      2:
 After GenITR:
 ITRead=  0  0
 MicOpt= -1 -1
 ITRead=  0  0
 MicOpt= -1 -1
 NAtoms=      2 NQM=        2 NQMF=       0 NMMI=      0 NMMIF=      0
                NMic=       0 NMicF=      0.
                    Isotopes and Nuclear Properties:
 (Nuclear quadrupole moments (NQMom) in fm**2, nuclear magnetic moments (NMagM)
  in nuclear magnetons)

  Atom         1           2
 IAtWgt=          19          19
 AtmWgt=  18.9984033  18.9984033
 NucSpn=           1           1
 AtZEff=  -0.0000000  -0.0000000
 NQMom=    0.0000000   0.0000000
 NMagM=    2.6288670   2.6288670
 AtZNuc=   9.0000000   9.0000000
 No MM parameters found.
 Leave Link  101 at Sun Apr 18 07:02:17 2021, MaxMem=   104857600 cpu:               8.7 elap:               0.2
 (Enter /s/ls4/users/knvvv/bin/g16sse/l202.exe)
                          Input orientation:                          
 ---------------------------------------------------------------------
 Center     Atomic      Atomic             Coordinates (Angstroms)
 Number     Number       Type             X           Y           Z
 ---------------------------------------------------------------------
      1          9           0        0.000000    0.000000    0.697604
      2          9           0        0.000000    0.000000   -0.697604
 ---------------------------------------------------------------------
 Stoichiometry    F2
 Framework group  D*H[C*(F.F)]
 Deg. of freedom     1
 Full point group                 D*H     NOp   8
 Largest Abelian subgroup         D2H     NOp   8
 Largest concise Abelian subgroup C2      NOp   2
                         Standard orientation:                         
 ---------------------------------------------------------------------
 Center     Atomic      Atomic             Coordinates (Angstroms)
 Number     Number       Type             X           Y           Z
 ---------------------------------------------------------------------
      1          9           0        0.000000    0.000000    0.697604
      2          9           0        0.000000    0.000000   -0.697604
 ---------------------------------------------------------------------
 Rotational constants (GHZ):           0.0000000          27.3308104          27.3308104
 Leave Link  202 at Sun Apr 18 07:02:17 2021, MaxMem=   104857600 cpu:              17.2 elap:               0.4
 (Enter /s/ls4/users/knvvv/bin/g16sse/l301.exe)
 General basis read from cards:  (5D, 7F)
 Centers:       1      2
 S 8 1.00
     Exponent=  1.3253597345D+05 Coefficients=  4.7387482743D-05
     Exponent=  1.9758112588D+04 Coefficients=  3.7070120897D-04
     Exponent=  4.4851996947D+03 Coefficients=  1.9450784713D-03
     Exponent=  1.2738151020D+03 Coefficients=  8.0573291994D-03
     Exponent=  4.1893831236D+02 Coefficients=  2.7992880781D-02
     Exponent=  1.5255721985D+02 Coefficients=  8.2735120175D-02
     Exponent=  5.9821524823D+01 Coefficients=  1.9854169012D-01
     Exponent=  2.4819076932D+01 Coefficients=  3.4860632233D-01
 S 2 1.00
     Exponent=  1.0074446673D+02 Coefficients=  1.0505068816D-01
     Exponent=  3.0103728290D+01 Coefficients=  9.4068472434D-01
 S 1 1.00
     Exponent=  1.0814283272D+01 Coefficients=  1.0000000000D+00
 S 1 1.00
     Exponent=  4.8172886770D+00 Coefficients=  1.0000000000D+00
 S 1 1.00
     Exponent=  1.6559334213D+00 Coefficients=  1.0000000000D+00
 S 1 1.00
     Exponent=  6.4893519582D-01 Coefficients=  1.0000000000D+00
 S 1 1.00
     Exponent=  2.4778104545D-01 Coefficients=  1.0000000000D+00
 S 1 1.00
     Exponent=  8.7626236800D-02 Coefficients=  1.0000000000D+00
 P 5 1.00
     Exponent=  2.4096654114D+02 Coefficients=  3.0389933451D-03
     Exponent=  5.7020699781D+01 Coefficients=  2.4357738582D-02
     Exponent=  1.8126952120D+01 Coefficients=  1.1442925768D-01
     Exponent=  6.6457404621D+00 Coefficients=  3.7064659853D-01
     Exponent=  2.6375722892D+00 Coefficients=  7.9791551766D-01
 P 1 1.00
     Exponent=  1.0638217200D+00 Coefficients=  1.0000000000D+00
 P 1 1.00
     Exponent=  4.1932562750D-01 Coefficients=  1.0000000000D+00
 P 1 1.00
     Exponent=  1.5747588299D-01 Coefficients=  1.0000000000D+00
 P 1 1.00
     Exponent=  4.6772400332D-02 Coefficients=  1.0000000000D+00
 D 1 1.00
     Exponent=  5.0140000000D+00 Coefficients=  1.0000000000D+00
 D 1 1.00
     Exponent=  1.7250000000D+00 Coefficients=  1.0000000000D+00
 D 1 1.00
     Exponent=  5.8600000000D-01 Coefficients=  1.0000000000D+00
 D 1 1.00
     Exponent=  1.5967986245D-01 Coefficients=  1.0000000000D+00
 F 1 1.00
     Exponent=  3.5620000000D+00 Coefficients=  1.0000000000D+00
 F 1 1.00
     Exponent=  1.1480000000D+00 Coefficients=  1.0000000000D+00
 G 1 1.00
     Exponent=  2.3760000000D+00 Coefficients=  1.0000000000D+00
 ****
 Ernie: Thresh=  0.10000D-02 Tol=  0.10000D-05 Strict=F.
 There are    37 symmetry adapted cartesian basis functions of AG  symmetry.
 There are     9 symmetry adapted cartesian basis functions of B1G symmetry.
 There are    18 symmetry adapted cartesian basis functions of B2G symmetry.
 There are    18 symmetry adapted cartesian basis functions of B3G symmetry.
 There are     9 symmetry adapted cartesian basis functions of AU  symmetry.
 There are    37 symmetry adapted cartesian basis functions of B1U symmetry.
 There are    18 symmetry adapted cartesian basis functions of B2U symmetry.
 There are    18 symmetry adapted cartesian basis functions of B3U symmetry.
 There are    28 symmetry adapted basis functions of AG  symmetry.
 There are     8 symmetry adapted basis functions of B1G symmetry.
 There are    15 symmetry adapted basis functions of B2G symmetry.
 There are    15 symmetry adapted basis functions of B3G symmetry.
 There are     8 symmetry adapted basis functions of AU  symmetry.
 There are    28 symmetry adapted basis functions of B1U symmetry.
 There are    15 symmetry adapted basis functions of B2U symmetry.
 There are    15 symmetry adapted basis functions of B3U symmetry.
   132 basis functions,   204 primitive gaussians,   164 cartesian basis functions
     9 alpha electrons        9 beta electrons
       nuclear repulsion energy        30.7218496878 Hartrees.
 IExCor= 4336 DFT=T Ex+Corr=M062X ExCW=0 ScaHFX=  0.540000
 ScaDFX=  1.000000  1.000000  1.000000  1.000000 ScalE2=  1.000000  1.000000
 IRadAn=      5 IRanWt=     -1 IRanGd=            0 ICorTp=0 IEmpDi=  4
 NAtoms=    2 NActive=    2 NUniq=    1 SFac= 4.00D+00 NAtFMM=   60 NAOKFM=F Big=F
 Integral buffers will be    131072 words long.
 Raffenetti 2 integral format.
 Two-electron integral symmetry is turned on.
 Leave Link  301 at Sun Apr 18 07:02:17 2021, MaxMem=   104857600 cpu:              13.7 elap:               0.3
 (Enter /s/ls4/users/knvvv/bin/g16sse/l302.exe)
 NPDir=0 NMtPBC=     1 NCelOv=     1 NCel=       1 NClECP=     1 NCelD=      1
         NCelK=      1 NCelE2=     1 NClLst=     1 CellRange=     0.0.
 One-electron integrals computed using PRISM.
 One-electron integral symmetry used in STVInt
 PrsmSu:  requested number of processors reduced to:   4 ShMem   1 Linda.
 PrsmSu:  requested number of processors reduced to:  21 ShMem   1 Linda.
 NBasis=   132 RedAO= T EigKep=  4.92D-04  NBF=    28     8    15    15     8    28    15    15
 NBsUse=   132 1.00D-06 EigRej= -1.00D+00 NBFU=    28     8    15    15     8    28    15    15
 Precomputing XC quadrature grid using
 IXCGrd= 4 IRadAn=           5 IRanWt=          -1 IRanGd=           0 AccXCQ= 0.00D+00.
 Generated NRdTot=       0 NPtTot=           0 NUsed=           0 NTot=          32
 NSgBfM=   163   162   162   162   163 MxSgAt=     2 MxSgA2=     2.
 Leave Link  302 at Sun Apr 18 07:02:19 2021, MaxMem=   104857600 cpu:              76.5 elap:               1.8
 (Enter /s/ls4/users/knvvv/bin/g16sse/l303.exe)
 DipDrv:  MaxL=1.
 Leave Link  303 at Sun Apr 18 07:02:20 2021, MaxMem=   104857600 cpu:              46.6 elap:               1.0
 (Enter /s/ls4/users/knvvv/bin/g16sse/l401.exe)
 SCF N**3 symmetry information disabled.
 ExpMin= 4.68D-02 ExpMax= 1.33D+05 ExpMxC= 1.27D+03 IAcc=3 IRadAn=         5 AccDes= 0.00D+00
 Harris functional with IExCor= 1009 and IRadAn=       5 diagonalized for initial guess.
 HarFok:  IExCor= 1009 AccDes= 0.00D+00 IRadAn=         5 IDoV= 1 UseB2=F ITyADJ=14
 ICtDFT=  3500011 ScaDFX=  1.000000  1.000000  1.000000  1.000000
 FoFCou: FMM=F IPFlag=           0 FMFlag=      100000 FMFlg1=           0
         NFxFlg=           0 DoJE=T BraDBF=F KetDBF=T FulRan=T
         wScrn=  0.000000 ICntrl=       500 IOpCl=  0 I1Cent=   200000004 NGrid=           0
         NMat0=    1 NMatS0=      1 NMatT0=    0 NMatD0=    1 NMtDS0=    0 NMtDT0=    0
 Petite list used in FoFCou.
 CoulSu:  requested number of processors reduced to:  21 ShMem   1 Linda.
 CoulSu:  requested number of processors reduced to:  21 ShMem   1 Linda.
 CoulSu:  requested number of processors reduced to:  21 ShMem   1 Linda.
 CoulSu:  requested number of processors reduced to:  21 ShMem   1 Linda.
 Harris En= -199.440685493329    
 JPrj=0 DoOrth=F DoCkMO=F.
 Initial guess orbital symmetries:
       Occupied  (SGG) (SGU) (SGG) (SGU) (SGG) (PIU) (PIU) (PIG)
                 (PIG)
       Virtual   (SGU) (SGU) (SGG) (PIU) (PIU) (SGG) (PIG) (PIG)
                 (SGU) (DLTG) (DLTG) (PIU) (PIU) (SGG) (PIG) (PIG)
                 (PIU) (PIU) (SGU) (DLTU) (DLTU) (SGU) (PIG) (PIG)
                 (SGG) (SGG) (PIU) (PIU) (DLTG) (DLTG) (SGU) (SGG)
                 (PIU) (PIU) (DLTU) (DLTU) (PIG) (PIG) (SGU) (SGG)
                 (PIG) (PIG) (SGU) (SGG) (DLTG) (DLTG) (PIU) (PIU)
                 (PHIU) (PHIU) (SGG) (PHIG) (PHIG) (SGU) (DLTU)
                 (DLTU) (DLTG) (DLTG) (PIG) (PIG) (DLTU) (DLTU)
                 (PIU) (PIU) (SGU) (SGG) (PIG) (PIG) (SGU) (PIU)
                 (PIU) (PIG) (PIG) (SGG) (SGU) (PIU) (PIU) (DLTG)
                 (DLTG) (SGG) (PHIU) (PHIU) (?A) (?A) (?B) (?B)
                 (PHIG) (PHIG) (DLTU) (DLTU) (PIG) (PIG) (SGU)
                 (DLTG) (DLTG) (PHIU) (PHIU) (PHIG) (PHIG) (PIU)
                 (PIU) (SGG) (DLTU) (DLTU) (SGG) (SGU) (PIG) (PIG)
                 (DLTG) (DLTG) (DLTU) (DLTU) (PIU) (PIU) (PIG)
                 (PIG) (SGU) (SGG) (SGU) (SGG) (SGU) (SGG) (SGU)
 The electronic state of the initial guess is 1-SGG.
 Leave Link  401 at Sun Apr 18 07:02:24 2021, MaxMem=   104857600 cpu:             156.2 elap:               3.5
 (Enter /s/ls4/users/knvvv/bin/g16sse/l502.exe)
 Keep R1 ints in memory in symmetry-blocked form, NReq=92821420.
 FoFCou: FMM=F IPFlag=           0 FMFlag=           0 FMFlg1=           0
         NFxFlg=           0 DoJE=F BraDBF=F KetDBF=F FulRan=T
         wScrn=  0.000000 ICntrl=       600 IOpCl=  0 I1Cent=           0 NGrid=           0
         NMat0=    1 NMatS0=   8778 NMatT0=    0 NMatD0=    1 NMtDS0=    0 NMtDT0=    0
 Petite list used in FoFCou.
 CoulSu:  requested number of processors reduced to:  14 ShMem   1 Linda.
 Closed shell SCF:
 Using DIIS extrapolation, IDIIS=  1040.
 NGot=   104857600 LenX=    99851147 LenY=    99823810
 Requested convergence on RMS density matrix=1.00D-08 within 128 cycles.
 Requested convergence on MAX density matrix=1.00D-06.
 Requested convergence on             energy=1.00D-06.
 No special actions if energy rises.

 Cycle   1  Pass 1  IDiag  1:
 E= -199.521159728311    
 DIIS: error= 4.10D-02 at cycle   1 NSaved=   1.
 NSaved= 1 IEnMin= 1 EnMin= -199.521159728311     IErMin= 1 ErrMin= 4.10D-02
 ErrMax= 4.10D-02  0.00D+00 EMaxC= 1.00D-01 BMatC= 8.44D-02 BMatP= 8.44D-02
 IDIUse=3 WtCom= 5.90D-01 WtEn= 4.10D-01
 Coeff-Com:  0.100D+01
 Coeff-En:   0.100D+01
 Coeff:      0.100D+01
 Gap=     0.440 Goal=   None    Shift=    0.000
 GapD=    0.440 DampG=2.000 DampE=0.500 DampFc=1.0000 IDamp=-1.
 RMSDP=6.83D-04 MaxDP=1.17D-02              OVMax= 2.72D-02

 Cycle   2  Pass 1  IDiag  1:
 E= -199.533114744480     Delta-E=       -0.011955016168 Rises=F Damp=F
 DIIS: error= 8.41D-03 at cycle   2 NSaved=   2.
 NSaved= 2 IEnMin= 2 EnMin= -199.533114744480     IErMin= 2 ErrMin= 8.41D-03
 ErrMax= 8.41D-03  0.00D+00 EMaxC= 1.00D-01 BMatC= 3.73D-03 BMatP= 8.44D-02
 IDIUse=3 WtCom= 9.16D-01 WtEn= 8.41D-02
 Coeff-Com:  0.105D+00 0.895D+00
 Coeff-En:   0.000D+00 0.100D+01
 Coeff:      0.963D-01 0.904D+00
 Gap=     0.451 Goal=   None    Shift=    0.000
 RMSDP=2.11D-04 MaxDP=4.69D-03 DE=-1.20D-02 OVMax= 1.55D-02

 Cycle   3  Pass 1  IDiag  1:
 E= -199.534560294210     Delta-E=       -0.001445549730 Rises=F Damp=F
 DIIS: error= 3.46D-03 at cycle   3 NSaved=   3.
 NSaved= 3 IEnMin= 3 EnMin= -199.534560294210     IErMin= 3 ErrMin= 3.46D-03
 ErrMax= 3.46D-03  0.00D+00 EMaxC= 1.00D-01 BMatC= 8.91D-04 BMatP= 3.73D-03
 IDIUse=3 WtCom= 9.65D-01 WtEn= 3.46D-02
 Coeff-Com: -0.657D-03 0.323D+00 0.678D+00
 Coeff-En:   0.000D+00 0.163D-01 0.984D+00
 Coeff:     -0.634D-03 0.312D+00 0.689D+00
 Gap=     0.449 Goal=   None    Shift=    0.000
 RMSDP=7.10D-05 MaxDP=1.59D-03 DE=-1.45D-03 OVMax= 4.10D-03

 Cycle   4  Pass 1  IDiag  1:
 E= -199.534974196041     Delta-E=       -0.000413901831 Rises=F Damp=F
 DIIS: error= 5.59D-04 at cycle   4 NSaved=   4.
 NSaved= 4 IEnMin= 4 EnMin= -199.534974196041     IErMin= 4 ErrMin= 5.59D-04
 ErrMax= 5.59D-04  0.00D+00 EMaxC= 1.00D-01 BMatC= 1.59D-05 BMatP= 8.91D-04
 IDIUse=3 WtCom= 9.94D-01 WtEn= 5.59D-03
 Coeff-Com: -0.178D-02 0.929D-01 0.234D+00 0.675D+00
 Coeff-En:   0.000D+00 0.000D+00 0.000D+00 0.100D+01
 Coeff:     -0.177D-02 0.924D-01 0.233D+00 0.677D+00
 Gap=     0.449 Goal=   None    Shift=    0.000
 RMSDP=9.86D-06 MaxDP=2.22D-04 DE=-4.14D-04 OVMax= 5.22D-04

 Cycle   5  Pass 1  IDiag  1:
 E= -199.534980786124     Delta-E=       -0.000006590083 Rises=F Damp=F
 DIIS: error= 3.10D-05 at cycle   5 NSaved=   5.
 NSaved= 5 IEnMin= 5 EnMin= -199.534980786124     IErMin= 5 ErrMin= 3.10D-05
 ErrMax= 3.10D-05  0.00D+00 EMaxC= 1.00D-01 BMatC= 5.65D-08 BMatP= 1.59D-05
 IDIUse=1 WtCom= 1.00D+00 WtEn= 0.00D+00
 Coeff-Com: -0.441D-04-0.967D-02-0.254D-01-0.324D-01 0.107D+01
 Coeff:     -0.441D-04-0.967D-02-0.254D-01-0.324D-01 0.107D+01
 Gap=     0.449 Goal=   None    Shift=    0.000
 RMSDP=2.26D-06 MaxDP=6.09D-05 DE=-6.59D-06 OVMax= 7.97D-05

 Cycle   6  Pass 1  IDiag  1:
 E= -199.534980844171     Delta-E=       -0.000000058047 Rises=F Damp=F
 DIIS: error= 3.82D-06 at cycle   6 NSaved=   6.
 NSaved= 6 IEnMin= 6 EnMin= -199.534980844171     IErMin= 6 ErrMin= 3.82D-06
 ErrMax= 3.82D-06  0.00D+00 EMaxC= 1.00D-01 BMatC= 8.03D-10 BMatP= 5.65D-08
 IDIUse=1 WtCom= 1.00D+00 WtEn= 0.00D+00
 Coeff-Com:  0.183D-04 0.276D-03 0.264D-03-0.717D-02-0.846D-01 0.109D+01
 Coeff:      0.183D-04 0.276D-03 0.264D-03-0.717D-02-0.846D-01 0.109D+01
 Gap=     0.449 Goal=   None    Shift=    0.000
 RMSDP=1.53D-07 MaxDP=4.29D-06 DE=-5.80D-08 OVMax= 8.08D-06

 Cycle   7  Pass 1  IDiag  1:
 E= -199.534980844771     Delta-E=       -0.000000000600 Rises=F Damp=F
 DIIS: error= 2.90D-07 at cycle   7 NSaved=   7.
 NSaved= 7 IEnMin= 7 EnMin= -199.534980844771     IErMin= 7 ErrMin= 2.90D-07
 ErrMax= 2.90D-07  0.00D+00 EMaxC= 1.00D-01 BMatC= 4.15D-12 BMatP= 8.03D-10
 IDIUse=1 WtCom= 1.00D+00 WtEn= 0.00D+00
 Coeff-Com: -0.160D-05 0.500D-04 0.105D-03 0.675D-03 0.196D-02-0.103D+00
 Coeff-Com:  0.110D+01
 Coeff:     -0.160D-05 0.500D-04 0.105D-03 0.675D-03 0.196D-02-0.103D+00
 Coeff:      0.110D+01
 Gap=     0.449 Goal=   None    Shift=    0.000
 RMSDP=1.14D-08 MaxDP=2.31D-07 DE=-6.00D-10 OVMax= 5.72D-07

 Cycle   8  Pass 1  IDiag  1:
 E= -199.534980844775     Delta-E=       -0.000000000004 Rises=F Damp=F
 DIIS: error= 1.49D-08 at cycle   8 NSaved=   8.
 NSaved= 8 IEnMin= 8 EnMin= -199.534980844775     IErMin= 8 ErrMin= 1.49D-08
 ErrMax= 1.49D-08  0.00D+00 EMaxC= 1.00D-01 BMatC= 1.38D-14 BMatP= 4.15D-12
 IDIUse=1 WtCom= 1.00D+00 WtEn= 0.00D+00
 Coeff-Com: -0.515D-07-0.326D-05-0.572D-05-0.121D-04 0.360D-03-0.121D-02
 Coeff-Com: -0.494D-01 0.105D+01
 Coeff:     -0.515D-07-0.326D-05-0.572D-05-0.121D-04 0.360D-03-0.121D-02
 Coeff:     -0.494D-01 0.105D+01
 Gap=     0.449 Goal=   None    Shift=    0.000
 RMSDP=6.76D-10 MaxDP=1.27D-08 DE=-4.15D-12 OVMax= 4.92D-08

 SCF Done:  E(RM062X) =  -199.534980845     A.U. after    8 cycles
            NFock=  8  Conv=0.68D-09     -V/T= 2.0029
 KE= 1.989570159953D+02 PE=-5.382075456809D+02 EE= 1.089936991530D+02
 Leave Link  502 at Sun Apr 18 07:03:23 2021, MaxMem=   104857600 cpu:            2746.3 elap:              58.9
 (Enter /s/ls4/users/knvvv/bin/g16sse/l601.exe)
 Copying SCF densities to generalized density rwf, IOpCl= 0 IROHF=0.

 **********************************************************************

            Population analysis using the SCF density.

 **********************************************************************

 Orbital symmetries:
       Occupied  (SGG) (SGU) (SGG) (SGU) (SGG) (PIU) (PIU) (PIG)
                 (PIG)
       Virtual   (SGU) (SGU) (PIU) (PIU) (SGG) (PIG) (PIG) (SGG)
                 (SGU) (DLTG) (DLTG) (SGG) (PIU) (PIU) (PIG) (PIG)
                 (SGU) (PIU) (PIU) (DLTU) (DLTU) (SGU) (PIG) (PIG)
                 (SGG) (SGG) (PIU) (PIU) (SGU) (DLTG) (DLTG) (SGG)
                 (PIU) (PIU) (DLTU) (DLTU) (PIG) (PIG) (SGU) (SGG)
                 (PIG) (PIG) (SGU) (SGG) (DLTG) (DLTG) (PIU) (PIU)
                 (PHIU) (PHIU) (SGG) (PHIG) (PHIG) (SGU) (DLTU)
                 (DLTU) (PIG) (PIG) (DLTG) (DLTG) (DLTU) (DLTU)
                 (PIU) (PIU) (SGU) (SGG) (PIG) (PIG) (SGU) (PIU)
                 (PIU) (PIG) (PIG) (SGG) (SGU) (PIU) (PIU) (DLTG)
                 (DLTG) (SGG) (PHIU) (PHIU) (?A) (?A) (?B) (?B)
                 (PHIG) (PHIG) (DLTU) (DLTU) (PIG) (PIG) (SGU)
                 (DLTG) (DLTG) (PHIU) (PHIU) (PHIG) (PHIG) (PIU)
                 (PIU) (DLTU) (DLTU) (SGG) (SGG) (SGU) (PIG) (PIG)
                 (DLTG) (DLTG) (DLTU) (DLTU) (PIU) (PIU) (PIG)
                 (PIG) (SGU) (SGG) (SGU) (SGG) (SGU) (SGG) (SGU)
 The electronic state is 1-SGG.
 Alpha  occ. eigenvalues --  -25.36099 -25.36085  -1.51571  -1.25337  -0.68439
 Alpha  occ. eigenvalues --   -0.66078  -0.66078  -0.51939  -0.51939
 Alpha virt. eigenvalues --   -0.07083   0.05600   0.06527   0.06527   0.08320
 Alpha virt. eigenvalues --    0.11066   0.11066   0.12441   0.25513   0.38416
 Alpha virt. eigenvalues --    0.38417   0.45827   0.46565   0.46565   0.50880
 Alpha virt. eigenvalues --    0.50880   0.51766   0.52470   0.52470   0.54608
 Alpha virt. eigenvalues --    0.54608   0.69715   0.77324   0.77324   0.84398
 Alpha virt. eigenvalues --    0.87783   1.46544   1.46544   1.53519   1.55962
 Alpha virt. eigenvalues --    1.55969   1.70931   1.77376   1.77376   1.77998
 Alpha virt. eigenvalues --    1.78005   1.80702   1.80702   1.89198   2.12559
 Alpha virt. eigenvalues --    2.27449   2.27449   2.79875   3.68668   3.78939
 Alpha virt. eigenvalues --    3.78941   3.90039   3.90039   4.06301   4.06301
 Alpha virt. eigenvalues --    4.14466   4.22614   4.22614   4.42627   4.60916
 Alpha virt. eigenvalues --    4.60917   5.10904   5.10904   5.14882   5.14884
 Alpha virt. eigenvalues --    5.28049   5.28053   5.30208   5.30208   5.36368
 Alpha virt. eigenvalues --    5.68412   5.86469   5.86469   5.99566   6.24758
 Alpha virt. eigenvalues --    6.24758   6.38675   6.38675   6.98459   7.36886
 Alpha virt. eigenvalues --   10.74035  10.74035  10.97562  10.97565  10.99695
 Alpha virt. eigenvalues --   11.20394  11.20394  11.28682  11.28684  11.29640
 Alpha virt. eigenvalues --   11.29642  11.33176  11.33176  11.60055  11.60060
 Alpha virt. eigenvalues --   12.21671  12.21671  12.33748  14.24208  14.24211
 Alpha virt. eigenvalues --   14.33035  14.33035  14.41344  14.41344  14.45498
 Alpha virt. eigenvalues --   14.45498  14.66964  14.66966  14.67345  14.98492
 Alpha virt. eigenvalues --   15.05308  15.49882  15.49882  15.72811  15.72812
 Alpha virt. eigenvalues --   15.80635  15.80636  15.81993  15.81993  15.90217
 Alpha virt. eigenvalues --   15.90217  15.95367  16.56929  17.09307  53.88738
 Alpha virt. eigenvalues --   54.82505 282.63757 283.83827
          Condensed to atoms (all electrons):
               1          2
     1  F    9.018301  -0.018301
     2  F   -0.018301   9.018301
 Mulliken charges:
               1
     1  F   -0.000000
     2  F   -0.000000
 Sum of Mulliken charges =  -0.00000
 Mulliken charges with hydrogens summed into heavy atoms:
               1
     1  F   -0.000000
     2  F   -0.000000
 Electronic spatial extent (au):  <R**2>=             52.2156
 Charge=             -0.0000 electrons
 Dipole moment (field-independent basis, Debye):
    X=              0.0000    Y=              0.0000    Z=              0.0000  Tot=              0.0000
 Quadrupole moment (field-independent basis, Debye-Ang):
   XX=             -9.6244   YY=             -9.6244   ZZ=             -8.9083
   XY=             -0.0000   XZ=              0.0000   YZ=              0.0000
 Traceless Quadrupole moment (field-independent basis, Debye-Ang):
   XX=             -0.2387   YY=             -0.2387   ZZ=              0.4774
   XY=             -0.0000   XZ=              0.0000   YZ=              0.0000
 Octapole moment (field-independent basis, Debye-Ang**2):
  XXX=             -0.0000  YYY=              0.0000  ZZZ=              0.0000  XYY=             -0.0000
  XXY=             -0.0000  XXZ=              0.0000  XZZ=             -0.0000  YZZ=             -0.0000
  YYZ=             -0.0000  XYZ=             -0.0000
 Hexadecapole moment (field-independent basis, Debye-Ang**3):
 XXXX=             -5.9262 YYYY=             -5.9262 ZZZZ=            -29.6389 XXXY=             -0.0000
 XXXZ=              0.0000 YYYX=             -0.0000 YYYZ=              0.0000 ZZZX=              0.0000
 ZZZY=              0.0000 XXYY=             -1.9754 XXZZ=             -6.6866 YYZZ=             -6.6866
 XXYZ=              0.0000 YYXZ=              0.0000 ZZXY=             -0.0000
 N-N= 3.072184968784D+01 E-N=-5.382075451122D+02  KE= 1.989570159953D+02
 PrsmSu:  requested number of processors reduced to:  21 ShMem   1 Linda.
 No NMR shielding tensors so no spin-rotation constants.
 Leave Link  601 at Sun Apr 18 07:03:25 2021, MaxMem=   104857600 cpu:             124.2 elap:               2.8
 (Enter /s/ls4/users/knvvv/bin/g16sse/l801.exe)
 DoSCS=F DFT=T ScalE2(SS,OS)=  1.000000  1.000000
 Range of M.O.s used for correlation:     1   132
 NBasis=   132 NAE=     9 NBE=     9 NFC=     0 NFV=     0
 NROrb=    132 NOA=     9 NOB=     9 NVA=   123 NVB=   123

 **** Warning!!: The largest alpha MO coefficient is  0.14219962D+02

 Leave Link  801 at Sun Apr 18 07:03:26 2021, MaxMem=   104857600 cpu:               4.2 elap:               0.1
 (Enter /s/ls4/users/knvvv/bin/g16sse/l914.exe)
 RHF ground state
 Doing stability rather than CIS.
 Two-electron integrals replicated using symmetry.
 MDV=   104857600 DFT=T DoStab=T Mixed=T DoRPA=F DoScal=F NonHer=F
 Making orbital integer symmetry assigments:
 Orbital symmetries:
       Occupied  (SGG) (SGU) (SGG) (SGU) (SGG) (PIU) (PIU) (PIG)
                 (PIG)
       Virtual   (SGU) (SGU) (PIU) (PIU) (SGG) (PIG) (PIG) (SGG)
                 (SGU) (DLTG) (DLTG) (SGG) (PIU) (PIU) (PIG) (PIG)
                 (SGU) (PIU) (PIU) (DLTU) (DLTU) (SGU) (PIG) (PIG)
                 (SGG) (SGG) (PIU) (PIU) (SGU) (DLTG) (DLTG) (SGG)
                 (PIU) (PIU) (DLTU) (DLTU) (PIG) (PIG) (SGU) (SGG)
                 (PIG) (PIG) (SGU) (SGG) (DLTG) (DLTG) (PIU) (PIU)
                 (PHIU) (PHIU) (SGG) (PHIG) (PHIG) (SGU) (DLTU)
                 (DLTU) (PIG) (PIG) (DLTG) (DLTG) (DLTU) (DLTU)
                 (PIU) (PIU) (SGU) (SGG) (PIG) (PIG) (SGU) (PIU)
                 (PIU) (PIG) (PIG) (SGG) (SGU) (PIU) (PIU) (DLTG)
                 (DLTG) (SGG) (PHIU) (PHIU) (?A) (?A) (?B) (?B)
                 (PHIG) (PHIG) (DLTU) (DLTU) (PIG) (PIG) (SGU)
                 (DLTG) (DLTG) (PHIU) (PHIU) (PHIG) (PHIG) (PIU)
                 (PIU) (DLTU) (DLTU) (SGG) (SGG) (SGU) (PIG) (PIG)
                 (DLTG) (DLTG) (DLTU) (DLTU) (PIU) (PIU) (PIG)
                 (PIG) (SGU) (SGG) (SGU) (SGG) (SGU) (SGG) (SGU)
    48 initial guesses have been made.
 Convergence on wavefunction:    0.001000000000000
 Davidson Disk Diagonalization:  ConvIn= 1.00D-03 SkipCon=T Conv= 1.00D-03.
 Max sub-space:  2000 roots to seek:    48 dimension of matrix:         2214
 Iteration     1 Dimension    48 NMult     0 NNew     48
 Estimated number of processors is:   20
 CISAX will form     1 AO SS matrices at one time.
 NMat=     1 NSing=     1 JSym2X= 2.
 FoFJK:  IHMeth= 1 ICntrl=       0 DoSepK=F KAlg= 0 I1Cent=           0 FoldK=F
 IRaf= 990000000 NMat=       1 IRICut=       1 DoRegI=T DoRafI=F ISym2E= 2 IDoP0=0 IntGTp=1.
 FoFCou: FMM=F IPFlag=           0 FMFlag=      100000 FMFlg1=           0
         NFxFlg=           0 DoJE=F BraDBF=F KetDBF=F FulRan=T
         wScrn=  0.000000 ICntrl=         0 IOpCl=  0 I1Cent=           0 NGrid=           0
         NMat0=    1 NMatS0=      1 NMatT0=    0 NMatD0=    1 NMtDS0=    0 NMtDT0=    0
 Integrals replicated using symmetry in FoFCou.
 CoulSu:  requested number of processors reduced to:  20 ShMem   1 Linda.
 NMat=     1 NSing=     1 JSym2X= 2.
 CoulSu:  requested number of processors reduced to:  20 ShMem   1 Linda.
 NMat=     1 NSing=     1 JSym2X= 2.
 CoulSu:  requested number of processors reduced to:  20 ShMem   1 Linda.
 NMat=     1 NSing=     1 JSym2X= 2.
 CoulSu:  requested number of processors reduced to:  20 ShMem   1 Linda.
 NMat=     1 NSing=     1 JSym2X= 2.
 CoulSu:  requested number of processors reduced to:  20 ShMem   1 Linda.
 NMat=     1 NSing=     1 JSym2X= 2.
 CoulSu:  requested number of processors reduced to:  20 ShMem   1 Linda.
 NMat=     1 NSing=     1 JSym2X= 2.
 CoulSu:  requested number of processors reduced to:  20 ShMem   1 Linda.
 NMat=     1 NSing=     1 JSym2X= 2.
 CoulSu:  requested number of processors reduced to:  20 ShMem   1 Linda.
 NMat=     1 NSing=     1 JSym2X= 2.
 CoulSu:  requested number of processors reduced to:  20 ShMem   1 Linda.
 NMat=     1 NSing=     1 JSym2X= 2.
 CoulSu:  requested number of processors reduced to:  20 ShMem   1 Linda.
 NMat=     1 NSing=     1 JSym2X= 2.
 CoulSu:  requested number of processors reduced to:  20 ShMem   1 Linda.
 NMat=     1 NSing=     1 JSym2X= 2.
 CoulSu:  requested number of processors reduced to:  20 ShMem   1 Linda.
 NMat=     1 NSing=     1 JSym2X= 2.
 CoulSu:  requested number of processors reduced to:  20 ShMem   1 Linda.
 NMat=     1 NSing=     1 JSym2X= 2.
 CoulSu:  requested number of processors reduced to:  20 ShMem   1 Linda.
 NMat=     1 NSing=     1 JSym2X= 2.
 CoulSu:  requested number of processors reduced to:  20 ShMem   1 Linda.
 NMat=     1 NSing=     1 JSym2X= 2.
 CoulSu:  requested number of processors reduced to:  20 ShMem   1 Linda.
 NMat=     1 NSing=     1 JSym2X= 2.
 CoulSu:  requested number of processors reduced to:  20 ShMem   1 Linda.
 NMat=     1 NSing=     1 JSym2X= 2.
 CoulSu:  requested number of processors reduced to:  20 ShMem   1 Linda.
 NMat=     1 NSing=     1 JSym2X= 2.
 CoulSu:  requested number of processors reduced to:  20 ShMem   1 Linda.
 NMat=     1 NSing=     1 JSym2X= 2.
 CoulSu:  requested number of processors reduced to:  20 ShMem   1 Linda.
 NMat=     1 NSing=     1 JSym2X= 2.
 CoulSu:  requested number of processors reduced to:  20 ShMem   1 Linda.
 NMat=     1 NSing=     1 JSym2X= 2.
 CoulSu:  requested number of processors reduced to:  20 ShMem   1 Linda.
 NMat=     1 NSing=     1 JSym2X= 2.
 CoulSu:  requested number of processors reduced to:  20 ShMem   1 Linda.
 NMat=     1 NSing=     1 JSym2X= 2.
 CoulSu:  requested number of processors reduced to:  20 ShMem   1 Linda.
 NMat=     1 NSing=     0 JSym2X= 2.
 CoulSu:  requested number of processors reduced to:  20 ShMem   1 Linda.
 NMat=     1 NSing=     0 JSym2X= 2.
 CoulSu:  requested number of processors reduced to:  20 ShMem   1 Linda.
 NMat=     1 NSing=     0 JSym2X= 2.
 CoulSu:  requested number of processors reduced to:  20 ShMem   1 Linda.
 NMat=     1 NSing=     0 JSym2X= 2.
 CoulSu:  requested number of processors reduced to:  20 ShMem   1 Linda.
 NMat=     1 NSing=     0 JSym2X= 2.
 CoulSu:  requested number of processors reduced to:  20 ShMem   1 Linda.
 NMat=     1 NSing=     0 JSym2X= 2.
 CoulSu:  requested number of processors reduced to:  20 ShMem   1 Linda.
 NMat=     1 NSing=     0 JSym2X= 2.
 CoulSu:  requested number of processors reduced to:  20 ShMem   1 Linda.
 NMat=     1 NSing=     0 JSym2X= 2.
 CoulSu:  requested number of processors reduced to:  20 ShMem   1 Linda.
 NMat=     1 NSing=     0 JSym2X= 2.
 CoulSu:  requested number of processors reduced to:  20 ShMem   1 Linda.
 NMat=     1 NSing=     0 JSym2X= 2.
 CoulSu:  requested number of processors reduced to:  20 ShMem   1 Linda.
 NMat=     1 NSing=     0 JSym2X= 2.
 CoulSu:  requested number of processors reduced to:  20 ShMem   1 Linda.
 NMat=     1 NSing=     0 JSym2X= 2.
 CoulSu:  requested number of processors reduced to:  20 ShMem   1 Linda.
 NMat=     1 NSing=     0 JSym2X= 2.
 CoulSu:  requested number of processors reduced to:  20 ShMem   1 Linda.
 NMat=     1 NSing=     0 JSym2X= 2.
 CoulSu:  requested number of processors reduced to:  20 ShMem   1 Linda.
 NMat=     1 NSing=     0 JSym2X= 2.
 CoulSu:  requested number of processors reduced to:  20 ShMem   1 Linda.
 NMat=     1 NSing=     0 JSym2X= 2.
 CoulSu:  requested number of processors reduced to:  20 ShMem   1 Linda.
 NMat=     1 NSing=     0 JSym2X= 2.
 CoulSu:  requested number of processors reduced to:  20 ShMem   1 Linda.
 NMat=     1 NSing=     0 JSym2X= 2.
 CoulSu:  requested number of processors reduced to:  20 ShMem   1 Linda.
 NMat=     1 NSing=     0 JSym2X= 2.
 CoulSu:  requested number of processors reduced to:  20 ShMem   1 Linda.
 NMat=     1 NSing=     0 JSym2X= 2.
 CoulSu:  requested number of processors reduced to:  20 ShMem   1 Linda.
 NMat=     1 NSing=     0 JSym2X= 2.
 CoulSu:  requested number of processors reduced to:  20 ShMem   1 Linda.
 NMat=     1 NSing=     0 JSym2X= 2.
 CoulSu:  requested number of processors reduced to:  20 ShMem   1 Linda.
 NMat=     1 NSing=     0 JSym2X= 2.
 CoulSu:  requested number of processors reduced to:  20 ShMem   1 Linda.
 NMat=     1 NSing=     0 JSym2X= 2.
 CoulSu:  requested number of processors reduced to:  20 ShMem   1 Linda.
 New state      1 was old state      2
 Excitation Energies [eV] at current iteration:
 Root      1 :     3.407707812955758
 Root      2 :     3.407707812956646
 Root      3 :     5.858967436796450
 Root      4 :     5.982073992925115
 Root      5 :     5.982073992925834
 Root      6 :     7.490170025051221
 Root      7 :     7.490170025051378
 Root      8 :     9.781077260803146
 Root      9 :     9.781077260803213
 Root     10 :    13.040067829600780
 Root     11 :    13.040067829662150
 Root     12 :    13.092197933550210
 Root     13 :    13.092199133980800
 Root     14 :    13.093568302726960
 Root     15 :    13.095036956789210
 Root     16 :    13.095036956796690
 Root     17 :    13.152848278900300
 Root     18 :    13.152848278907450
 Root     19 :    13.157295748178150
 Root     20 :    13.157295748178600
 Root     21 :    13.196176102364640
 Root     22 :    13.196176102421300
 Root     23 :    13.196415801330080
 Root     24 :    13.196419946803100
 Root     25 :    13.219118049063380
 Root     26 :    14.462233452869220
 Root     27 :    14.462233452932120
 Root     28 :    14.500408232180550
 Root     29 :    14.559719725382460
 Root     30 :    14.559719725419090
 Root     31 :    14.580069978510790
 Root     32 :    14.603705302627040
 Root     33 :    14.680297543448090
 Root     34 :    14.680747520085740
 Root     35 :    14.751837197784670
 Root     36 :    14.764023789901250
 Root     37 :    15.271779987671040
 Root     38 :    17.015488757303630
 Root     39 :    17.015488757312650
 Root     40 :    17.044976192455880
 Root     41 :    17.046184413767500
 Root     42 :    17.074244097600070
 Root     43 :    17.074244097609970
 Root     44 :    17.127461281120990
 Root     45 :    17.134525289260430
 Root     46 :    17.202416947930750
 Root     47 :    17.699334336096190
 Root     48 :    28.924454180038570
 Iteration     2 Dimension    96 NMult    48 NNew     48
 Estimated number of processors is:   20
 CISAX will form     1 AO SS matrices at one time.
 NMat=     1 NSing=     1 JSym2X= 2.
 CoulSu:  requested number of processors reduced to:  20 ShMem   1 Linda.
 NMat=     1 NSing=     1 JSym2X= 2.
 CoulSu:  requested number of processors reduced to:  20 ShMem   1 Linda.
 NMat=     1 NSing=     1 JSym2X= 2.
 CoulSu:  requested number of processors reduced to:  20 ShMem   1 Linda.
 NMat=     1 NSing=     1 JSym2X= 2.
 CoulSu:  requested number of processors reduced to:  20 ShMem   1 Linda.
 NMat=     1 NSing=     1 JSym2X= 2.
 CoulSu:  requested number of processors reduced to:  20 ShMem   1 Linda.
 NMat=     1 NSing=     1 JSym2X= 2.
 CoulSu:  requested number of processors reduced to:  20 ShMem   1 Linda.
 NMat=     1 NSing=     1 JSym2X= 2.
 CoulSu:  requested number of processors reduced to:  20 ShMem   1 Linda.
 NMat=     1 NSing=     1 JSym2X= 2.
 CoulSu:  requested number of processors reduced to:  20 ShMem   1 Linda.
 NMat=     1 NSing=     1 JSym2X= 2.
 CoulSu:  requested number of processors reduced to:  20 ShMem   1 Linda.
 NMat=     1 NSing=     1 JSym2X= 2.
 CoulSu:  requested number of processors reduced to:  20 ShMem   1 Linda.
 NMat=     1 NSing=     1 JSym2X= 2.
 CoulSu:  requested number of processors reduced to:  20 ShMem   1 Linda.
 NMat=     1 NSing=     1 JSym2X= 2.
 CoulSu:  requested number of processors reduced to:  20 ShMem   1 Linda.
 NMat=     1 NSing=     1 JSym2X= 2.
 CoulSu:  requested number of processors reduced to:  20 ShMem   1 Linda.
 NMat=     1 NSing=     1 JSym2X= 2.
 CoulSu:  requested number of processors reduced to:  20 ShMem   1 Linda.
 NMat=     1 NSing=     1 JSym2X= 2.
 CoulSu:  requested number of processors reduced to:  20 ShMem   1 Linda.
 NMat=     1 NSing=     1 JSym2X= 2.
 CoulSu:  requested number of processors reduced to:  20 ShMem   1 Linda.
 NMat=     1 NSing=     1 JSym2X= 2.
 CoulSu:  requested number of processors reduced to:  20 ShMem   1 Linda.
 NMat=     1 NSing=     1 JSym2X= 2.
 CoulSu:  requested number of processors reduced to:  20 ShMem   1 Linda.
 NMat=     1 NSing=     1 JSym2X= 2.
 CoulSu:  requested number of processors reduced to:  20 ShMem   1 Linda.
 NMat=     1 NSing=     1 JSym2X= 2.
 CoulSu:  requested number of processors reduced to:  20 ShMem   1 Linda.
 NMat=     1 NSing=     1 JSym2X= 2.
 CoulSu:  requested number of processors reduced to:  20 ShMem   1 Linda.
 NMat=     1 NSing=     1 JSym2X= 2.
 CoulSu:  requested number of processors reduced to:  20 ShMem   1 Linda.
 NMat=     1 NSing=     1 JSym2X= 2.
 CoulSu:  requested number of processors reduced to:  20 ShMem   1 Linda.
 NMat=     1 NSing=     1 JSym2X= 2.
 CoulSu:  requested number of processors reduced to:  20 ShMem   1 Linda.
 NMat=     1 NSing=     0 JSym2X= 2.
 CoulSu:  requested number of processors reduced to:  20 ShMem   1 Linda.
 NMat=     1 NSing=     0 JSym2X= 2.
 CoulSu:  requested number of processors reduced to:  20 ShMem   1 Linda.
 NMat=     1 NSing=     0 JSym2X= 2.
 CoulSu:  requested number of processors reduced to:  20 ShMem   1 Linda.
 NMat=     1 NSing=     0 JSym2X= 2.
 CoulSu:  requested number of processors reduced to:  20 ShMem   1 Linda.
 NMat=     1 NSing=     0 JSym2X= 2.
 CoulSu:  requested number of processors reduced to:  20 ShMem   1 Linda.
 NMat=     1 NSing=     0 JSym2X= 2.
 CoulSu:  requested number of processors reduced to:  20 ShMem   1 Linda.
 NMat=     1 NSing=     0 JSym2X= 2.
 CoulSu:  requested number of processors reduced to:  20 ShMem   1 Linda.
 NMat=     1 NSing=     0 JSym2X= 2.
 CoulSu:  requested number of processors reduced to:  20 ShMem   1 Linda.
 NMat=     1 NSing=     0 JSym2X= 2.
 CoulSu:  requested number of processors reduced to:  20 ShMem   1 Linda.
 NMat=     1 NSing=     0 JSym2X= 2.
 CoulSu:  requested number of processors reduced to:  20 ShMem   1 Linda.
 NMat=     1 NSing=     0 JSym2X= 2.
 CoulSu:  requested number of processors reduced to:  20 ShMem   1 Linda.
 NMat=     1 NSing=     0 JSym2X= 2.
 CoulSu:  requested number of processors reduced to:  20 ShMem   1 Linda.
 NMat=     1 NSing=     0 JSym2X= 2.
 CoulSu:  requested number of processors reduced to:  20 ShMem   1 Linda.
 NMat=     1 NSing=     0 JSym2X= 2.
 CoulSu:  requested number of processors reduced to:  20 ShMem   1 Linda.
 NMat=     1 NSing=     0 JSym2X= 2.
 CoulSu:  requested number of processors reduced to:  20 ShMem   1 Linda.
 NMat=     1 NSing=     0 JSym2X= 2.
 CoulSu:  requested number of processors reduced to:  20 ShMem   1 Linda.
 NMat=     1 NSing=     0 JSym2X= 2.
 CoulSu:  requested number of processors reduced to:  20 ShMem   1 Linda.
 NMat=     1 NSing=     0 JSym2X= 2.
 CoulSu:  requested number of processors reduced to:  20 ShMem   1 Linda.
 NMat=     1 NSing=     0 JSym2X= 2.
 CoulSu:  requested number of processors reduced to:  20 ShMem   1 Linda.
 NMat=     1 NSing=     0 JSym2X= 2.
 CoulSu:  requested number of processors reduced to:  20 ShMem   1 Linda.
 NMat=     1 NSing=     0 JSym2X= 2.
 CoulSu:  requested number of processors reduced to:  20 ShMem   1 Linda.
 NMat=     1 NSing=     0 JSym2X= 2.
 CoulSu:  requested number of processors reduced to:  20 ShMem   1 Linda.
 NMat=     1 NSing=     0 JSym2X= 2.
 CoulSu:  requested number of processors reduced to:  20 ShMem   1 Linda.
 NMat=     1 NSing=     0 JSym2X= 2.
 CoulSu:  requested number of processors reduced to:  20 ShMem   1 Linda.
 DSYEVD-2 returned Info=        4849 IAlg= 4 N=    96 NDim=    96 NE2=     1008769 trying  DSYEV.
 Root      1 not converged, maximum delta is    0.050296594606165
 Excitation Energies [eV] at current iteration:
 Root      1 :     2.941026189719088   Change is   -0.466681623236670
 Root      2 :     2.941026189719789   Change is   -0.466681623236858
 Root      3 :     4.656202473873623   Change is   -1.202764962922827
 Root      4 :     5.521139066699872   Change is   -0.460934926225243
 Root      5 :     5.521139066700482   Change is   -0.460934926225351
 Root      6 :     7.070971397924112   Change is   -0.419198627127108
 Root      7 :     7.070971397924218   Change is   -0.419198627127159
 Root      8 :     9.496385055194349   Change is   -0.284692205608799
 Root      9 :     9.496385055194542   Change is   -0.284692205608672
 Root     10 :    12.844336726354560   Change is   -0.250700230434651
 Root     11 :    12.844336726360000   Change is   -0.250700230436689
 Root     12 :    12.864903652916180   Change is   -0.175164176684596
 Root     13 :    12.864903652958810   Change is   -0.175164176703343
 Root     14 :    12.865099830865670   Change is   -0.228468471861295
 Root     15 :    12.885654031745510   Change is   -0.206545102235290
 Root     16 :    12.885768316215510   Change is   -0.206429617334697
 Root     17 :    12.998519428790050   Change is   -0.220598620273326
 Root     18 :    13.040119750605940   Change is   -0.156056351758697
 Root     19 :    13.040119750646480   Change is   -0.156056351774818
 Root     20 :    13.052668909022660   Change is   -0.143746892307428
 Root     21 :    13.052747077345600   Change is   -0.143672869457501
 Root     22 :    13.059291880704630   Change is   -0.093556398195669
 Root     23 :    13.059291880711230   Change is   -0.093556398196222
 Root     24 :    13.085828323333090   Change is   -0.071467424845058
 Root     25 :    13.085828323362880   Change is   -0.071467424815721
 Root     26 :    14.372322791742710   Change is   -0.089910661126512
 Root     27 :    14.372322791799360   Change is   -0.089910661132763
 Root     28 :    14.393645701538840   Change is   -0.106762530641708
 Root     29 :    14.475595607311820   Change is   -0.084124118070650
 Root     30 :    14.475595607343590   Change is   -0.084124118075504
 Root     31 :    14.476704360992130   Change is   -0.103365617518665
 Root     32 :    14.479686858192670   Change is   -0.124018444434368
 Root     33 :    14.633891751478710   Change is   -0.046405791969376
 Root     34 :    14.633892540634310   Change is   -0.046854979451432
 Root     35 :    14.662555300088450   Change is   -0.089281897696223
 Root     36 :    14.664586388183730   Change is   -0.099437401717520
 Root     37 :    15.067002893807950   Change is   -0.204777093863088
 Root     38 :    16.898405737780860   Change is   -0.117083019522766
 Root     39 :    16.898405737784870   Change is   -0.117083019527781
 Root     40 :    16.966819441618770   Change is   -0.107424655981299
 Root     41 :    16.966819441623300   Change is   -0.107424655986664
 Root     42 :    16.986579811498640   Change is   -0.058396380957240
 Root     43 :    16.986849857504900   Change is   -0.059334556262601
 Root     44 :    17.010865613954450   Change is   -0.116595667166542
 Root     45 :    17.017442100284380   Change is   -0.117083188976046
 Root     46 :    17.080961717219420   Change is   -0.121455230711331
 Root     47 :    17.188152157020110   Change is   -0.511182179076073
 Root     48 :    18.028163751611070
 Iteration     3 Dimension   102 NMult    96 NNew      6
 Estimated number of processors is:   20
 CISAX will form     1 AO SS matrices at one time.
 NMat=     1 NSing=     1 JSym2X= 2.
 CoulSu:  requested number of processors reduced to:  20 ShMem   1 Linda.
 NMat=     1 NSing=     1 JSym2X= 2.
 CoulSu:  requested number of processors reduced to:  20 ShMem   1 Linda.
 NMat=     1 NSing=     1 JSym2X= 2.
 CoulSu:  requested number of processors reduced to:  20 ShMem   1 Linda.
 NMat=     1 NSing=     0 JSym2X= 2.
 CoulSu:  requested number of processors reduced to:  20 ShMem   1 Linda.
 NMat=     1 NSing=     0 JSym2X= 2.
 CoulSu:  requested number of processors reduced to:  20 ShMem   1 Linda.
 NMat=     1 NSing=     0 JSym2X= 2.
 CoulSu:  requested number of processors reduced to:  20 ShMem   1 Linda.
 Root      1 not converged, maximum delta is    0.052153848543304
 Excitation Energies [eV] at current iteration:
 Root      1 :     2.937598969286659   Change is   -0.003427220432429
 Root      2 :     2.937598969287312   Change is   -0.003427220432477
 Root      3 :     4.639500076904126   Change is   -0.016702396969498
 Root      4 :     5.506826654218941   Change is   -0.014312412480932
 Root      5 :     5.506826654219611   Change is   -0.014312412480872
 Root      6 :     9.492913440828024   Change is   -0.003471614366324
 Iteration     4 Dimension   108 NMult   102 NNew      6
 Estimated number of processors is:   20
 CISAX will form     1 AO SS matrices at one time.
 NMat=     1 NSing=     1 JSym2X= 2.
 CoulSu:  requested number of processors reduced to:  20 ShMem   1 Linda.
 NMat=     1 NSing=     1 JSym2X= 2.
 CoulSu:  requested number of processors reduced to:  20 ShMem   1 Linda.
 NMat=     1 NSing=     1 JSym2X= 2.
 CoulSu:  requested number of processors reduced to:  20 ShMem   1 Linda.
 NMat=     1 NSing=     0 JSym2X= 2.
 CoulSu:  requested number of processors reduced to:  20 ShMem   1 Linda.
 NMat=     1 NSing=     0 JSym2X= 2.
 CoulSu:  requested number of processors reduced to:  20 ShMem   1 Linda.
 NMat=     1 NSing=     0 JSym2X= 2.
 CoulSu:  requested number of processors reduced to:  20 ShMem   1 Linda.
 Root      1 not converged, maximum delta is    0.008029350400491
 Excitation Energies [eV] at current iteration:
 Root      1 :     2.937564132924003   Change is   -0.000034836362657
 Root      2 :     2.937564132924674   Change is   -0.000034836362638
 Root      3 :     4.639309709504932   Change is   -0.000190367399194
 Root      4 :     5.506570275877571   Change is   -0.000256378341370
 Root      5 :     5.506570275878217   Change is   -0.000256378341394
 Root      6 :     9.492577762805952   Change is   -0.000335678022071
 Iteration     5 Dimension   114 NMult   108 NNew      6
 Estimated number of processors is:   20
 CISAX will form     1 AO SS matrices at one time.
 NMat=     1 NSing=     1 JSym2X= 2.
 CoulSu:  requested number of processors reduced to:  20 ShMem   1 Linda.
 NMat=     1 NSing=     1 JSym2X= 2.
 CoulSu:  requested number of processors reduced to:  20 ShMem   1 Linda.
 NMat=     1 NSing=     1 JSym2X= 2.
 CoulSu:  requested number of processors reduced to:  20 ShMem   1 Linda.
 NMat=     1 NSing=     0 JSym2X= 2.
 CoulSu:  requested number of processors reduced to:  20 ShMem   1 Linda.
 NMat=     1 NSing=     0 JSym2X= 2.
 CoulSu:  requested number of processors reduced to:  20 ShMem   1 Linda.
 NMat=     1 NSing=     0 JSym2X= 2.
 CoulSu:  requested number of processors reduced to:  20 ShMem   1 Linda.
 DSYEVD-2 returned Info=         229 IAlg= 4 N=   114 NDim=   114 NE2=      849490 trying  DSYEV.
 Root      1 has converged.
 Excitation Energies [eV] at current iteration:
 Root      1 :     2.937563997179157   Change is   -0.000000135744845
 Root      2 :     2.937563997179814   Change is   -0.000000135744860
 Root      3 :     4.639307747111381   Change is   -0.000001962393550
 Root      4 :     5.506568147967402   Change is   -0.000002127910168
 Root      5 :     5.506568147968045   Change is   -0.000002127910172
 Root      6 :     9.492573855844171   Change is   -0.000003906961782
 Convergence achieved on expansion vectors.
 ***********************************************************************
 Stability analysis using <AA,BB:AA,BB> singles matrix:
 ***********************************************************************
 1PDM for each excited state written to RWF  633
 Ground to excited state transition densities written to RWF  633

 Eigenvectors of the stability matrix:
 
 Excited state symmetry could not be determined.
 Eigenvector   1:      Triplet-?Sym  Eigenvalue= 0.1079535  <S**2>=2.000
       8 -> 10        -0.29985
       9 -> 10         0.62040
       9 -> 11         0.11710
 The wavefunction is stable under the perturbations considered.
 Leave Link  914 at Sun Apr 18 07:06:56 2021, MaxMem=   104857600 cpu:            8225.8 elap:             210.1
 (Enter /s/ls4/users/knvvv/bin/g16sse/l508.exe)
 The wavefunction is already stable.
 Leave Link  508 at Sun Apr 18 07:06:56 2021, MaxMem=   104857600 cpu:               2.2 elap:               0.1
 (Enter /s/ls4/users/knvvv/bin/g16sse/l601.exe)
 Copying SCF densities to generalized density rwf, IOpCl= 0 IROHF=0.

 **********************************************************************

            Population analysis using the SCF density.

 **********************************************************************

 Orbital symmetries:
       Occupied  (SGG) (SGU) (SGG) (SGU) (SGG) (PIU) (PIU) (PIG)
                 (PIG)
       Virtual   (SGU) (SGU) (PIU) (PIU) (SGG) (PIG) (PIG) (SGG)
                 (SGU) (DLTG) (DLTG) (SGG) (PIU) (PIU) (PIG) (PIG)
                 (SGU) (PIU) (PIU) (DLTU) (DLTU) (SGU) (PIG) (PIG)
                 (SGG) (SGG) (PIU) (PIU) (SGU) (DLTG) (DLTG) (SGG)
                 (PIU) (PIU) (DLTU) (DLTU) (PIG) (PIG) (SGU) (SGG)
                 (PIG) (PIG) (SGU) (SGG) (DLTG) (DLTG) (PIU) (PIU)
                 (PHIU) (PHIU) (SGG) (PHIG) (PHIG) (SGU) (DLTU)
                 (DLTU) (PIG) (PIG) (DLTG) (DLTG) (DLTU) (DLTU)
                 (PIU) (PIU) (SGU) (SGG) (PIG) (PIG) (SGU) (PIU)
                 (PIU) (PIG) (PIG) (SGG) (SGU) (PIU) (PIU) (DLTG)
                 (DLTG) (SGG) (PHIU) (PHIU) (?A) (?A) (?B) (?B)
                 (PHIG) (PHIG) (DLTU) (DLTU) (PIG) (PIG) (SGU)
                 (DLTG) (DLTG) (PHIU) (PHIU) (PHIG) (PHIG) (PIU)
                 (PIU) (DLTU) (DLTU) (SGG) (SGG) (SGU) (PIG) (PIG)
                 (DLTG) (DLTG) (DLTU) (DLTU) (PIU) (PIU) (PIG)
                 (PIG) (SGU) (SGG) (SGU) (SGG) (SGU) (SGG) (SGU)
 The electronic state is 1-SGG.
 Alpha  occ. eigenvalues --  -25.36099 -25.36085  -1.51571  -1.25337  -0.68439
 Alpha  occ. eigenvalues --   -0.66078  -0.66078  -0.51939  -0.51939
 Alpha virt. eigenvalues --   -0.07083   0.05600   0.06527   0.06527   0.08320
 Alpha virt. eigenvalues --    0.11066   0.11066   0.12441   0.25513   0.38416
 Alpha virt. eigenvalues --    0.38417   0.45827   0.46565   0.46565   0.50880
 Alpha virt. eigenvalues --    0.50880   0.51766   0.52470   0.52470   0.54608
 Alpha virt. eigenvalues --    0.54608   0.69715   0.77324   0.77324   0.84398
 Alpha virt. eigenvalues --    0.87783   1.46544   1.46544   1.53519   1.55962
 Alpha virt. eigenvalues --    1.55969   1.70931   1.77376   1.77376   1.77998
 Alpha virt. eigenvalues --    1.78005   1.80702   1.80702   1.89198   2.12559
 Alpha virt. eigenvalues --    2.27449   2.27449   2.79875   3.68668   3.78939
 Alpha virt. eigenvalues --    3.78941   3.90039   3.90039   4.06301   4.06301
 Alpha virt. eigenvalues --    4.14466   4.22614   4.22614   4.42627   4.60916
 Alpha virt. eigenvalues --    4.60917   5.10904   5.10904   5.14882   5.14884
 Alpha virt. eigenvalues --    5.28049   5.28053   5.30208   5.30208   5.36368
 Alpha virt. eigenvalues --    5.68412   5.86469   5.86469   5.99566   6.24758
 Alpha virt. eigenvalues --    6.24758   6.38675   6.38675   6.98459   7.36886
 Alpha virt. eigenvalues --   10.74035  10.74035  10.97562  10.97565  10.99695
 Alpha virt. eigenvalues --   11.20394  11.20394  11.28682  11.28684  11.29640
 Alpha virt. eigenvalues --   11.29642  11.33176  11.33176  11.60055  11.60060
 Alpha virt. eigenvalues --   12.21671  12.21671  12.33748  14.24208  14.24211
 Alpha virt. eigenvalues --   14.33035  14.33035  14.41344  14.41344  14.45498
 Alpha virt. eigenvalues --   14.45498  14.66964  14.66966  14.67345  14.98492
 Alpha virt. eigenvalues --   15.05308  15.49882  15.49882  15.72811  15.72812
 Alpha virt. eigenvalues --   15.80635  15.80636  15.81993  15.81993  15.90217
 Alpha virt. eigenvalues --   15.90217  15.95367  16.56929  17.09307  53.88738
 Alpha virt. eigenvalues --   54.82505 282.63757 283.83827
          Condensed to atoms (all electrons):
               1          2
     1  F    9.018301  -0.018301
     2  F   -0.018301   9.018301
 Mulliken charges:
               1
     1  F   -0.000000
     2  F   -0.000000
 Sum of Mulliken charges =  -0.00000
 Mulliken charges with hydrogens summed into heavy atoms:
               1
     1  F   -0.000000
     2  F   -0.000000
 Electronic spatial extent (au):  <R**2>=             52.2156
 Charge=             -0.0000 electrons
 Dipole moment (field-independent basis, Debye):
    X=              0.0000    Y=              0.0000    Z=              0.0000  Tot=              0.0000
 Quadrupole moment (field-independent basis, Debye-Ang):
   XX=             -9.6244   YY=             -9.6244   ZZ=             -8.9083
   XY=             -0.0000   XZ=              0.0000   YZ=              0.0000
 Traceless Quadrupole moment (field-independent basis, Debye-Ang):
   XX=             -0.2387   YY=             -0.2387   ZZ=              0.4774
   XY=             -0.0000   XZ=              0.0000   YZ=              0.0000
 Octapole moment (field-independent basis, Debye-Ang**2):
  XXX=             -0.0000  YYY=              0.0000  ZZZ=              0.0000  XYY=             -0.0000
  XXY=             -0.0000  XXZ=              0.0000  XZZ=             -0.0000  YZZ=             -0.0000
  YYZ=             -0.0000  XYZ=             -0.0000
 Hexadecapole moment (field-independent basis, Debye-Ang**3):
 XXXX=             -5.9262 YYYY=             -5.9262 ZZZZ=            -29.6389 XXXY=             -0.0000
 XXXZ=              0.0000 YYYX=             -0.0000 YYYZ=              0.0000 ZZZX=              0.0000
 ZZZY=              0.0000 XXYY=             -1.9754 XXZZ=             -6.6866 YYZZ=             -6.6866
 XXYZ=              0.0000 YYXZ=              0.0000 ZZXY=             -0.0000
 N-N= 3.072184968784D+01 E-N=-5.382075451122D+02  KE= 1.989570159953D+02
 PrsmSu:  requested number of processors reduced to:  21 ShMem   1 Linda.
 No NMR shielding tensors so no spin-rotation constants.
 Leave Link  601 at Sun Apr 18 07:07:00 2021, MaxMem=   104857600 cpu:             166.0 elap:               3.7
 (Enter /s/ls4/users/knvvv/bin/g16sse/l9999.exe)

 Test job not archived.
 1\1\GINC-N151\Stability\RM062X\Gen\F2\KNVVV\18-Apr-2021\0\\#P M062X/GE
 N Integral=UltraFineGrid SCF=NoSymm Stable=(RExt, Opt) IOp(1/33=1)\\Da
 tabase calculations.\\0,1\F,0,0.,0.,0.6976037335\F,0,0.,0.,-0.69760373
 35\\Version=ES64L-G16RevA.03\State=1-SGG\HF=-199.5349808\RMSD=6.761e-1
 0\Dipole=0.,0.,0.\Quadrupole=-0.1774739,-0.1774739,0.3549477,0.,0.,0.\
 PG=D*H [C*(F1.F1)]\\@


 THERE ARE PEOPLE SO ADDICTED TO EXAGERATING THEY
 CAN'T TELL THE TRUTH WITHOUT LYING. -- FORTUNE COOKIE
 Job cpu time:       0 days  3 hours 13 minutes 21.5 seconds.
 Elapsed time:       0 days  0 hours  4 minutes 43.3 seconds.
 File lengths (MBytes):  RWF=     98 Int=      0 D2E=      0 Chk=      4 Scr=      1
 Normal termination of Gaussian 16 at Sun Apr 18 07:07:00 2021.
