 Entering Gaussian System, Link 0=/s/ls4/users/knvvv/bin/g16sse/g16
 Input=data/database/M062X--def2-QZVP--Z_007_de2-QZVP_Be.gjf
 Output=data/database/M062X--def2-QZVP--Z_007_de2-QZVP_Be.log
 Initial command:
 /s/ls4/users/knvvv/bin/g16sse/l1.exe "/s/ls4/users/knvvv/bin/scratch/Gau-15764.inp" -scrdir="/s/ls4/users/knvvv/bin/scratch/"
 Entering Link 1 = /s/ls4/users/knvvv/bin/g16sse/l1.exe PID=     15765.
  
 Copyright (c) 1988,1990,1992,1993,1995,1998,2003,2009,2016,
            Gaussian, Inc.  All Rights Reserved.
  
 This is part of the Gaussian(R) 16 program.  It is based on
 the Gaussian(R) 09 system (copyright 2009, Gaussian, Inc.),
 the Gaussian(R) 03 system (copyright 2003, Gaussian, Inc.),
 the Gaussian(R) 98 system (copyright 1998, Gaussian, Inc.),
 the Gaussian(R) 94 system (copyright 1995, Gaussian, Inc.),
 the Gaussian 92(TM) system (copyright 1992, Gaussian, Inc.),
 the Gaussian 90(TM) system (copyright 1990, Gaussian, Inc.),
 the Gaussian 88(TM) system (copyright 1988, Gaussian, Inc.),
 the Gaussian 86(TM) system (copyright 1986, Carnegie Mellon
 University), and the Gaussian 82(TM) system (copyright 1983,
 Carnegie Mellon University). Gaussian is a federally registered
 trademark of Gaussian, Inc.
  
 This software contains proprietary and confidential information,
 including trade secrets, belonging to Gaussian, Inc.
  
 This software is provided under written license and may be
 used, copied, transmitted, or stored only in accord with that
 written license.
  
 The following legend is applicable only to US Government
 contracts under FAR:
  
                    RESTRICTED RIGHTS LEGEND
  
 Use, reproduction and disclosure by the US Government is
 subject to restrictions as set forth in subparagraphs (a)
 and (c) of the Commercial Computer Software - Restricted
 Rights clause in FAR 52.227-19.
  
 Gaussian, Inc.
 340 Quinnipiac St., Bldg. 40, Wallingford CT 06492
  
  
 ---------------------------------------------------------------
 Warning -- This program may not be used in any manner that
 competes with the business of Gaussian, Inc. or will provide
 assistance to any competitor of Gaussian, Inc.  The licensee
 of this program is prohibited from giving any competitor of
 Gaussian, Inc. access to this program.  By using this program,
 the user acknowledges that Gaussian, Inc. is engaged in the
 business of creating and licensing software in the field of
 computational chemistry and represents and warrants to the
 licensee that it is not a competitor of Gaussian, Inc. and that
 it will not use this program in any manner prohibited above.
 ---------------------------------------------------------------
  

 Cite this work as:
 Gaussian 16, Revision A.03,
 M. J. Frisch, G. W. Trucks, H. B. Schlegel, G. E. Scuseria, 
 M. A. Robb, J. R. Cheeseman, G. Scalmani, V. Barone, 
 G. A. Petersson, H. Nakatsuji, X. Li, M. Caricato, A. V. Marenich, 
 J. Bloino, B. G. Janesko, R. Gomperts, B. Mennucci, H. P. Hratchian, 
 J. V. Ortiz, A. F. Izmaylov, J. L. Sonnenberg, D. Williams-Young, 
 F. Ding, F. Lipparini, F. Egidi, J. Goings, B. Peng, A. Petrone, 
 T. Henderson, D. Ranasinghe, V. G. Zakrzewski, J. Gao, N. Rega, 
 G. Zheng, W. Liang, M. Hada, M. Ehara, K. Toyota, R. Fukuda, 
 J. Hasegawa, M. Ishida, T. Nakajima, Y. Honda, O. Kitao, H. Nakai, 
 T. Vreven, K. Throssell, J. A. Montgomery, Jr., J. E. Peralta, 
 F. Ogliaro, M. J. Bearpark, J. J. Heyd, E. N. Brothers, K. N. Kudin, 
 V. N. Staroverov, T. A. Keith, R. Kobayashi, J. Normand, 
 K. Raghavachari, A. P. Rendell, J. C. Burant, S. S. Iyengar, 
 J. Tomasi, M. Cossi, J. M. Millam, M. Klene, C. Adamo, R. Cammi, 
 J. W. Ochterski, R. L. Martin, K. Morokuma, O. Farkas, 
 J. B. Foresman, and D. J. Fox, Gaussian, Inc., Wallingford CT, 2016.
 
 ******************************************
 Gaussian 16:  ES64L-G16RevA.03 25-Dec-2016
                18-Apr-2021 
 ******************************************
 %RWF=temp5_67592,70GB
 %nprocshared=48
 Will use up to   48 processors via shared memory.
 Default route: MaxDisk=80GB
 ----------------------------------------------------------------------
 #P M062X/Def2QZVP Integral=UltraFineGrid SCF=NoSymm Stable=(RExt, Opt)
  IOp(1/33=1)
 ----------------------------------------------------------------------
 1/33=1,38=1,172=1/1;
 2/12=2,17=6,18=5,40=1/2;
 3/5=45,7=101,11=2,25=1,30=1,74=-55,75=-5/1,2,3;
 4/9=2/1;
 5/5=2,38=5/2;
 6/7=2,8=2,9=2,10=2,28=1/1;
 8/6=1,10=90,11=11/1;
 9/8=-3,42=1,46=1/14;
 5/5=2,8=3,17=40,38=5/8(-2);
 6/7=2,8=2,9=2,10=2,28=1/1;
 99/5=1,9=1/99;
 Leave Link    1 at Sun Apr 18 20:02:06 2021, MaxMem=           0 cpu:              11.2 elap:               0.3
 (Enter /s/ls4/users/knvvv/bin/g16sse/l101.exe)
 ONIOM data not found on unit 2.
 ----------------------
 Database calculations.
 ----------------------
 TstMul:  ICh=     0
 TstMul:  Mul=     1
 TstMul:  ICh=     0
 TstMul:  Mul=     1
 Symbolic Z-matrix:
 Charge =  0 Multiplicity = 1
 Be                    0.        0.        0. 
 
 RdStrC is calling ZToCFu for IStruc=1 NZ=     1.
 PrtBox:  NBox=     1 Levels=  0 BoxLen=    8.00 SMaxX=        0.00
          Shift=            0.000000            0.000000            0.000000
 Box      1 Number                   0 centers from      1 to      1:
 After GenITR:
 ITRead=  0
 MicOpt= -1
 ITRead=  0
 MicOpt= -1
 NAtoms=      1 NQM=        1 NQMF=       0 NMMI=      0 NMMIF=      0
                NMic=       0 NMicF=      0.
                    Isotopes and Nuclear Properties:
 (Nuclear quadrupole moments (NQMom) in fm**2, nuclear magnetic moments (NMagM)
  in nuclear magnetons)

  Atom         1
 IAtWgt=           9
 AtmWgt=   9.0121825
 NucSpn=           3
 AtZEff=  -0.0000000
 NQMom=    5.2880000
 NMagM=   -1.1779000
 AtZNuc=   4.0000000
 No MM parameters found.
 Leave Link  101 at Sun Apr 18 20:02:07 2021, MaxMem=   104857600 cpu:               7.9 elap:               0.2
 (Enter /s/ls4/users/knvvv/bin/g16sse/l202.exe)
                          Input orientation:                          
 ---------------------------------------------------------------------
 Center     Atomic      Atomic             Coordinates (Angstroms)
 Number     Number       Type             X           Y           Z
 ---------------------------------------------------------------------
      1          4           0        0.000000    0.000000    0.000000
 ---------------------------------------------------------------------
 Stoichiometry    Be
 Framework group  OH[O(Be)]
 Deg. of freedom     0
 Full point group                 OH      NOp  48
 Largest Abelian subgroup         D2H     NOp   8
 Largest concise Abelian subgroup C1      NOp   1
                         Standard orientation:                         
 ---------------------------------------------------------------------
 Center     Atomic      Atomic             Coordinates (Angstroms)
 Number     Number       Type             X           Y           Z
 ---------------------------------------------------------------------
      1          4           0        0.000000    0.000000    0.000000
 ---------------------------------------------------------------------
 Leave Link  202 at Sun Apr 18 20:02:07 2021, MaxMem=   104857600 cpu:              34.8 elap:               0.8
 (Enter /s/ls4/users/knvvv/bin/g16sse/l301.exe)
 Standard basis: def2QZVP (5D, 7F)
 Ernie: Thresh=  0.10000D-02 Tol=  0.10000D-05 Strict=F.
 There are    13 symmetry adapted cartesian basis functions of AG  symmetry.
 There are     2 symmetry adapted cartesian basis functions of B1G symmetry.
 There are     2 symmetry adapted cartesian basis functions of B2G symmetry.
 There are     2 symmetry adapted cartesian basis functions of B3G symmetry.
 There are     1 symmetry adapted cartesian basis functions of AU  symmetry.
 There are     7 symmetry adapted cartesian basis functions of B1U symmetry.
 There are     7 symmetry adapted cartesian basis functions of B2U symmetry.
 There are     7 symmetry adapted cartesian basis functions of B3U symmetry.
 There are    11 symmetry adapted basis functions of AG  symmetry.
 There are     2 symmetry adapted basis functions of B1G symmetry.
 There are     2 symmetry adapted basis functions of B2G symmetry.
 There are     2 symmetry adapted basis functions of B3G symmetry.
 There are     1 symmetry adapted basis functions of AU  symmetry.
 There are     6 symmetry adapted basis functions of B1U symmetry.
 There are     6 symmetry adapted basis functions of B2U symmetry.
 There are     6 symmetry adapted basis functions of B3U symmetry.
    36 basis functions,    58 primitive gaussians,    41 cartesian basis functions
     2 alpha electrons        2 beta electrons
       nuclear repulsion energy         0.0000000000 Hartrees.
 IExCor= 4336 DFT=T Ex+Corr=M062X ExCW=0 ScaHFX=  0.540000
 ScaDFX=  1.000000  1.000000  1.000000  1.000000 ScalE2=  1.000000  1.000000
 IRadAn=      5 IRanWt=     -1 IRanGd=            0 ICorTp=0 IEmpDi=  4
 NAtoms=    1 NActive=    1 NUniq=    1 SFac= 1.00D+00 NAtFMM=   60 NAOKFM=F Big=F
 Integral buffers will be    131072 words long.
 Raffenetti 2 integral format.
 Two-electron integral symmetry is turned on.
 Leave Link  301 at Sun Apr 18 20:02:08 2021, MaxMem=   104857600 cpu:               8.1 elap:               0.2
 (Enter /s/ls4/users/knvvv/bin/g16sse/l302.exe)
 NPDir=0 NMtPBC=     1 NCelOv=     1 NCel=       1 NClECP=     1 NCelD=      1
         NCelK=      1 NCelE2=     1 NClLst=     1 CellRange=     0.0.
 One-electron integrals computed using PRISM.
 One-electron integral symmetry used in STVInt
 PrsmSu:  requested number of processors reduced to:  13 ShMem   1 Linda.
  48 Symmetry operations used in ECPInt.
 ECPInt:  NShTT=     105 NPrTT=     360 LenC2=     106 LenP2D=     360.
 LDataN:  DoStor=T MaxTD1= 6 Len=  172
 NBasis=    36 RedAO= T EigKep=  6.74D-03  NBF=    11     2     2     2     1     6     6     6
 NBsUse=    36 1.00D-06 EigRej= -1.00D+00 NBFU=    11     2     2     2     1     6     6     6
 Precomputing XC quadrature grid using
 IXCGrd= 4 IRadAn=           5 IRanWt=          -1 IRanGd=           0 AccXCQ= 0.00D+00.
 Generated NRdTot=       0 NPtTot=           0 NUsed=           0 NTot=          32
 NSgBfM=    41    41    41    41    41 MxSgAt=     1 MxSgA2=     1.
 Leave Link  302 at Sun Apr 18 20:02:11 2021, MaxMem=   104857600 cpu:             185.3 elap:               4.0
 (Enter /s/ls4/users/knvvv/bin/g16sse/l303.exe)
 DipDrv:  MaxL=1.
 Leave Link  303 at Sun Apr 18 20:02:12 2021, MaxMem=   104857600 cpu:              10.8 elap:               0.3
 (Enter /s/ls4/users/knvvv/bin/g16sse/l401.exe)
 SCF N**3 symmetry information disabled.
 ExpMin= 4.16D-02 ExpMax= 2.96D+04 ExpMxC= 2.84D+02 IAcc=3 IRadAn=         5 AccDes= 0.00D+00
 Harris functional with IExCor= 1009 and IRadAn=       5 diagonalized for initial guess.
 HarFok:  IExCor= 1009 AccDes= 0.00D+00 IRadAn=         5 IDoV= 1 UseB2=F ITyADJ=14
 ICtDFT=  3500011 ScaDFX=  1.000000  1.000000  1.000000  1.000000
 FoFCou: FMM=F IPFlag=           0 FMFlag=      100000 FMFlg1=           0
         NFxFlg=           0 DoJE=T BraDBF=F KetDBF=T FulRan=T
         wScrn=  0.000000 ICntrl=       500 IOpCl=  0 I1Cent=   200000004 NGrid=           0
         NMat0=    1 NMatS0=      1 NMatT0=    0 NMatD0=    1 NMtDS0=    0 NMtDT0=    0
 Petite list used in FoFCou.
 Harris En= -14.6227155179247    
 JPrj=0 DoOrth=F DoCkMO=F.
 Initial guess orbital symmetries:
       Occupied  (A1G) (A1G)
       Virtual   (T1U) (T1U) (T1U) (A1G) (T1U) (T1U) (T1U) (T2G)
                 (T2G) (T2G) (EG) (EG) (A1G) (T1U) (T1U) (T1U)
                 (T2G) (T2G) (T2G) (EG) (EG) (T2U) (T2U) (T2U)
                 (A2U) (T1U) (T1U) (T1U) (A1G) (T1U) (T1U) (T1U)
                 (A1G) (A1G)
 The electronic state of the initial guess is 1-A1G.
 Leave Link  401 at Sun Apr 18 20:02:15 2021, MaxMem=   104857600 cpu:             136.4 elap:               2.9
 (Enter /s/ls4/users/knvvv/bin/g16sse/l502.exe)
 Keep R1 ints in memory in symmetry-blocked form, NReq=41688683.
 FoFCou: FMM=F IPFlag=           0 FMFlag=           0 FMFlg1=           0
         NFxFlg=           0 DoJE=F BraDBF=F KetDBF=F FulRan=T
         wScrn=  0.000000 ICntrl=       600 IOpCl=  0 I1Cent=           0 NGrid=           0
         NMat0=    1 NMatS0=    666 NMatT0=    0 NMatD0=    1 NMtDS0=    0 NMtDT0=    0
 Petite list used in FoFCou.
 Closed shell SCF:
 Using DIIS extrapolation, IDIIS=  1040.
 NGot=   104857600 LenX=   104814810 LenY=   104812688
 Requested convergence on RMS density matrix=1.00D-08 within 128 cycles.
 Requested convergence on MAX density matrix=1.00D-06.
 Requested convergence on             energy=1.00D-06.
 No special actions if energy rises.

 Cycle   1  Pass 1  IDiag  1:
 E= -14.6647761403600    
 DIIS: error= 1.55D-02 at cycle   1 NSaved=   1.
 NSaved= 1 IEnMin= 1 EnMin= -14.6647761403600     IErMin= 1 ErrMin= 1.55D-02
 ErrMax= 1.55D-02  0.00D+00 EMaxC= 1.00D-01 BMatC= 4.14D-03 BMatP= 4.14D-03
 IDIUse=3 WtCom= 8.45D-01 WtEn= 1.55D-01
 Coeff-Com:  0.100D+01
 Coeff-En:   0.100D+01
 Coeff:      0.100D+01
 Gap=     0.251 Goal=   None    Shift=    0.000
 GapD=    0.251 DampG=1.000 DampE=0.500 DampFc=0.5000 IDamp=-1.
 Damping current iteration by 5.00D-01
 RMSDP=2.28D-03 MaxDP=3.22D-02              OVMax= 4.00D-02

 Cycle   2  Pass 1  IDiag  1:
 E= -14.6657155107448     Delta-E=       -0.000939370385 Rises=F Damp=T
 DIIS: error= 7.59D-03 at cycle   2 NSaved=   2.
 NSaved= 2 IEnMin= 2 EnMin= -14.6657155107448     IErMin= 2 ErrMin= 7.59D-03
 ErrMax= 7.59D-03  0.00D+00 EMaxC= 1.00D-01 BMatC= 9.90D-04 BMatP= 4.14D-03
 IDIUse=3 WtCom= 9.24D-01 WtEn= 7.59D-02
 Coeff-Com: -0.938D+00 0.194D+01
 Coeff-En:   0.000D+00 0.100D+01
 Coeff:     -0.866D+00 0.187D+01
 Gap=     0.251 Goal=   None    Shift=    0.000
 RMSDP=1.26D-03 MaxDP=1.84D-02 DE=-9.39D-04 OVMax= 2.30D-03

 Cycle   3  Pass 1  IDiag  1:
 E= -14.6666807931281     Delta-E=       -0.000965282383 Rises=F Damp=F
 DIIS: error= 1.31D-04 at cycle   3 NSaved=   3.
 NSaved= 3 IEnMin= 3 EnMin= -14.6666807931281     IErMin= 3 ErrMin= 1.31D-04
 ErrMax= 1.31D-04  0.00D+00 EMaxC= 1.00D-01 BMatC= 2.18D-07 BMatP= 9.90D-04
 IDIUse=3 WtCom= 9.99D-01 WtEn= 1.31D-03
 Coeff-Com:  0.224D-01-0.563D-01 0.103D+01
 Coeff-En:   0.000D+00 0.000D+00 0.100D+01
 Coeff:      0.223D-01-0.563D-01 0.103D+01
 Gap=     0.251 Goal=   None    Shift=    0.000
 RMSDP=7.95D-05 MaxDP=2.26D-03 DE=-9.65D-04 OVMax= 6.96D-04

 Cycle   4  Pass 1  IDiag  1:
 E= -14.6666812098296     Delta-E=       -0.000000416701 Rises=F Damp=F
 DIIS: error= 1.41D-05 at cycle   4 NSaved=   4.
 NSaved= 4 IEnMin= 4 EnMin= -14.6666812098296     IErMin= 4 ErrMin= 1.41D-05
 ErrMax= 1.41D-05  0.00D+00 EMaxC= 1.00D-01 BMatC= 2.11D-09 BMatP= 2.18D-07
 IDIUse=1 WtCom= 1.00D+00 WtEn= 0.00D+00
 Coeff-Com: -0.640D-03 0.293D-02-0.128D+00 0.113D+01
 Coeff:     -0.640D-03 0.293D-02-0.128D+00 0.113D+01
 Gap=     0.251 Goal=   None    Shift=    0.000
 RMSDP=1.49D-05 MaxDP=4.33D-04 DE=-4.17D-07 OVMax= 9.74D-05

 Cycle   5  Pass 1  IDiag  1:
 E= -14.6666812181890     Delta-E=       -0.000000008359 Rises=F Damp=F
 DIIS: error= 1.28D-06 at cycle   5 NSaved=   5.
 NSaved= 5 IEnMin= 5 EnMin= -14.6666812181890     IErMin= 5 ErrMin= 1.28D-06
 ErrMax= 1.28D-06  0.00D+00 EMaxC= 1.00D-01 BMatC= 1.61D-11 BMatP= 2.11D-09
 IDIUse=1 WtCom= 1.00D+00 WtEn= 0.00D+00
 Coeff-Com: -0.909D-04 0.116D-03 0.378D-02-0.122D+00 0.112D+01
 Coeff:     -0.909D-04 0.116D-03 0.378D-02-0.122D+00 0.112D+01
 Gap=     0.251 Goal=   None    Shift=    0.000
 RMSDP=1.47D-06 MaxDP=4.24D-05 DE=-8.36D-09 OVMax= 9.57D-06

 Cycle   6  Pass 1  IDiag  1:
 E= -14.6666812182557     Delta-E=       -0.000000000067 Rises=F Damp=F
 DIIS: error= 9.77D-09 at cycle   6 NSaved=   6.
 NSaved= 6 IEnMin= 6 EnMin= -14.6666812182557     IErMin= 6 ErrMin= 9.77D-09
 ErrMax= 9.77D-09  0.00D+00 EMaxC= 1.00D-01 BMatC= 1.38D-15 BMatP= 1.61D-11
 IDIUse=1 WtCom= 1.00D+00 WtEn= 0.00D+00
 Coeff-Com:  0.595D-06-0.108D-05 0.472D-04 0.239D-02-0.272D-01 0.102D+01
 Coeff:      0.595D-06-0.108D-05 0.472D-04 0.239D-02-0.272D-01 0.102D+01
 Gap=     0.251 Goal=   None    Shift=    0.000
 RMSDP=3.42D-09 MaxDP=1.01D-07 DE=-6.67D-11 OVMax= 2.45D-08

 SCF Done:  E(RM062X) =  -14.6666812183     A.U. after    6 cycles
            NFock=  6  Conv=0.34D-08     -V/T= 2.0039
 KE= 1.460933290745D+01 PE=-3.370691780953D+01 EE= 4.430903683825D+00
 Leave Link  502 at Sun Apr 18 20:02:33 2021, MaxMem=   104857600 cpu:             871.0 elap:              18.5
 (Enter /s/ls4/users/knvvv/bin/g16sse/l601.exe)
 Copying SCF densities to generalized density rwf, IOpCl= 0 IROHF=0.

 **********************************************************************

            Population analysis using the SCF density.

 **********************************************************************

 Orbital symmetries:
       Occupied  (A1G) (A1G)
       Virtual   (T1U) (T1U) (T1U) (A1G) (T1U) (T1U) (T1U) (T2G)
                 (T2G) (T2G) (EG) (EG) (A1G) (T1U) (T1U) (T1U)
                 (T2G) (T2G) (T2G) (EG) (EG) (A2U) (T2U) (T2U)
                 (T2U) (T1U) (T1U) (T1U) (A1G) (T1U) (T1U) (T1U)
                 (A1G) (A1G)
 The electronic state is 1-A1G.
 Alpha  occ. eigenvalues --   -4.31046  -0.26657
 Alpha virt. eigenvalues --   -0.01544  -0.01544  -0.01544   0.08634   0.13145
 Alpha virt. eigenvalues --    0.13145   0.13145   0.20788   0.20788   0.20788
 Alpha virt. eigenvalues --    0.20788   0.20788   0.52403   0.58120   0.58120
 Alpha virt. eigenvalues --    0.58120   0.90308   0.90308   0.90308   0.90308
 Alpha virt. eigenvalues --    0.90308   0.96356   0.96356   0.96356   0.96356
 Alpha virt. eigenvalues --    0.96356   0.96356   0.96356   2.66603  10.35448
 Alpha virt. eigenvalues --   10.35448  10.35448  11.37313  62.67659
          Condensed to atoms (all electrons):
               1
     1  Be   4.000000
 Mulliken charges:
               1
     1  Be   0.000000
 Sum of Mulliken charges =   0.00000
 Mulliken charges with hydrogens summed into heavy atoms:
               1
     1  Be   0.000000
 Electronic spatial extent (au):  <R**2>=             16.6200
 Charge=              0.0000 electrons
 Dipole moment (field-independent basis, Debye):
    X=             -0.0000    Y=             -0.0000    Z=              0.0000  Tot=              0.0000
 Quadrupole moment (field-independent basis, Debye-Ang):
   XX=             -7.4515   YY=             -7.4515   ZZ=             -7.4515
   XY=             -0.0000   XZ=             -0.0000   YZ=             -0.0000
 Traceless Quadrupole moment (field-independent basis, Debye-Ang):
   XX=              0.0000   YY=              0.0000   ZZ=              0.0000
   XY=             -0.0000   XZ=             -0.0000   YZ=             -0.0000
 Octapole moment (field-independent basis, Debye-Ang**2):
  XXX=              0.0000  YYY=             -0.0000  ZZZ=              0.0000  XYY=              0.0000
  XXY=              0.0000  XXZ=              0.0000  XZZ=             -0.0000  YZZ=              0.0000
  YYZ=              0.0000  XYZ=              0.0000
 Hexadecapole moment (field-independent basis, Debye-Ang**3):
 XXXX=            -18.9018 YYYY=            -18.9018 ZZZZ=            -18.9018 XXXY=             -0.0000
 XXXZ=             -0.0000 YYYX=             -0.0000 YYYZ=             -0.0000 ZZZX=             -0.0000
 ZZZY=             -0.0000 XXYY=             -6.3006 XXZZ=             -6.3006 YYZZ=             -6.3006
 XXYZ=             -0.0000 YYXZ=             -0.0000 ZZXY=             -0.0000
 N-N= 0.000000000000D+00 E-N=-3.370691782609D+01  KE= 1.460933290745D+01
 No NMR shielding tensors so no spin-rotation constants.
 Leave Link  601 at Sun Apr 18 20:02:35 2021, MaxMem=   104857600 cpu:              69.6 elap:               1.5
 (Enter /s/ls4/users/knvvv/bin/g16sse/l801.exe)
 DoSCS=F DFT=T ScalE2(SS,OS)=  1.000000  1.000000
 Range of M.O.s used for correlation:     1    36
 NBasis=    36 NAE=     2 NBE=     2 NFC=     0 NFV=     0
 NROrb=     36 NOA=     2 NOB=     2 NVA=    34 NVB=    34
 Leave Link  801 at Sun Apr 18 20:02:35 2021, MaxMem=   104857600 cpu:               4.7 elap:               0.1
 (Enter /s/ls4/users/knvvv/bin/g16sse/l914.exe)
 RHF ground state
 Doing stability rather than CIS.
 Keep R1 and R2 ints in memory in symmetry-blocked form, NReq=68380815.
 FoFCou: FMM=F IPFlag=           0 FMFlag=           0 FMFlg1=           0
         NFxFlg=           0 DoJE=F BraDBF=F KetDBF=F FulRan=T
         wScrn=  0.000000 ICntrl=       600 IOpCl=  0 I1Cent=           0 NGrid=           0
         NMat0=    1 NMatS0=    666 NMatT0=    0 NMatD0=    1 NMtDS0=    0 NMtDT0=    0
 Petite list used in FoFCou.
 MDV=   104857600 DFT=T DoStab=T Mixed=T DoRPA=F DoScal=F NonHer=F
 Making orbital integer symmetry assigments:
 Orbital symmetries:
       Occupied  (A1G) (A1G)
       Virtual   (T1U) (T1U) (T1U) (A1G) (T1U) (T1U) (T1U) (T2G)
                 (T2G) (T2G) (EG) (EG) (A1G) (T1U) (T1U) (T1U)
                 (T2G) (T2G) (T2G) (EG) (EG) (A2U) (T2U) (T2U)
                 (T2U) (T1U) (T1U) (T1U) (A1G) (T1U) (T1U) (T1U)
                 (A1G) (A1G)
    48 initial guesses have been made.
 Convergence on wavefunction:    0.001000000000000
 Davidson Disk Diagonalization:  ConvIn= 1.00D-03 SkipCon=T Conv= 1.00D-03.
 Max sub-space:   272 roots to seek:    48 dimension of matrix:          136
 Iteration     1 Dimension    48 NMult     0 NNew     48
 CISAX will form    48 AO SS matrices at one time.
 NMat=    48 NSing=    24 JSym2X= 2.
 New state      1 was old state      6
 Excitation Energies [eV] at current iteration:
 Root      1 :     1.955886888568931
 Root      2 :     1.955886888572387
 Root      3 :     1.955886888579335
 Root      4 :     6.371658322707037
 Root      5 :     6.371658322709901
 Root      6 :     6.371658322710004
 Root      7 :     7.092314125405513
 Root      8 :     8.264737760839594
 Root      9 :     8.495973652316010
 Root     10 :     8.495973652318767
 Root     11 :     8.495973652326676
 Root     12 :     9.991737797672981
 Root     13 :     9.991737797674091
 Root     14 :     9.991737797674636
 Root     15 :    10.103971954460030
 Root     16 :    10.103971954460210
 Root     17 :    10.103971954460330
 Root     18 :    10.103971954764710
 Root     19 :    10.103971954765020
 Root     20 :    10.410666164444740
 Root     21 :    10.410666164446520
 Root     22 :    10.410666164446970
 Root     23 :    10.410666164472240
 Root     24 :    10.410666164474510
 Root     25 :    18.634377457268320
 Root     26 :    19.345269144917370
 Root     27 :    19.345269144919670
 Root     28 :    19.345269144920010
 Root     29 :    19.807644565534290
 Root     30 :    19.807644565537630
 Root     31 :    19.807644565540060
 Root     32 :    20.099207359598880
 Root     33 :    28.568019659985080
 Root     34 :    28.568019659985690
 Root     35 :    28.568019659986230
 Root     36 :    28.568019660192740
 Root     37 :    28.568019660194040
 Root     38 :    29.872147818119820
 Root     39 :    29.872147818119990
 Root     40 :    29.872147818120060
 Root     41 :    29.872147818550310
 Root     42 :    29.872147818550540
 Root     43 :    30.891327602468670
 Root     44 :    30.891327602597570
 Root     45 :    30.891327602597630
 Root     46 :    32.587817433355650
 Root     47 :    32.587817433742960
 Root     48 :    32.587817433743000
 Iteration     2 Dimension    96 NMult    48 NNew     48
 CISAX will form    48 AO SS matrices at one time.
 NMat=    48 NSing=    24 JSym2X= 2.
 Root      1 not converged, maximum delta is    0.308691120916657
 Excitation Energies [eV] at current iteration:
 Root      1 :     1.951255214623894   Change is   -0.004631673945037
 Root      2 :     1.951255215735587   Change is   -0.004631672843748
 Root      3 :     1.951255216858477   Change is   -0.004631671713910
 Root      4 :     6.361011442814304   Change is   -0.010646879892734
 Root      5 :     6.361011442817095   Change is   -0.010646879892806
 Root      6 :     6.361011442817246   Change is   -0.010646879892758
 Root      7 :     7.048263785043501   Change is   -0.044050340362012
 Root      8 :     8.256310778366302   Change is   -0.008426982473292
 Root      9 :     8.495204415695424   Change is   -0.000769236623343
 Root     10 :     8.495204415701043   Change is   -0.000769236625633
 Root     11 :     8.495204415764981   Change is   -0.000769236551030
 Root     12 :     9.940897341877323   Change is   -0.050840455795657
 Root     13 :     9.940897341878278   Change is   -0.050840455795814
 Root     14 :     9.940897341878864   Change is   -0.050840455795772
 Root     15 :    10.103870458431110   Change is   -0.000101496028921
 Root     16 :    10.103870458431320   Change is   -0.000101496028891
 Root     17 :    10.103870458431420   Change is   -0.000101496028909
 Root     18 :    10.103870458735770   Change is   -0.000101496028933
 Root     19 :    10.103870458736020   Change is   -0.000101496029000
 Root     20 :    10.410491526330730   Change is   -0.000174638114013
 Root     21 :    10.410491526332450   Change is   -0.000174638114073
 Root     22 :    10.410491526332710   Change is   -0.000174638114254
 Root     23 :    10.410491526358030   Change is   -0.000174638114206
 Root     24 :    10.410491526360330   Change is   -0.000174638114188
 Root     25 :    18.600413577156440   Change is   -0.033963880111877
 Root     26 :    19.323994483625700   Change is   -0.021274661291669
 Root     27 :    19.323994483627890   Change is   -0.021274661291778
 Root     28 :    19.323994483628180   Change is   -0.021274661291826
 Root     29 :    19.799877384339410   Change is   -0.007767181198224
 Root     30 :    19.799877389889420   Change is   -0.007767175644874
 Root     31 :    19.799877395565930   Change is   -0.007767169974125
 Root     32 :    20.049814182851970   Change is   -0.049393176746911
 Root     33 :    28.558379576690520   Change is   -0.009640083294562
 Root     34 :    28.558379576691080   Change is   -0.009640083294611
 Root     35 :    28.558379576691460   Change is   -0.009640083294768
 Root     36 :    28.558379576897790   Change is   -0.009640083294949
 Root     37 :    28.558379576899120   Change is   -0.009640083294925
 Root     38 :    29.869116252755140   Change is   -0.003031565364677
 Root     39 :    29.869116252755200   Change is   -0.003031565364785
 Root     40 :    29.869116252755260   Change is   -0.003031565364797
 Root     41 :    29.869116253185460   Change is   -0.003031565364846
 Root     42 :    29.869116253185560   Change is   -0.003031565364979
 Root     43 :    30.889765220328670   Change is   -0.001562382139999
 Root     44 :    30.889765220457480   Change is   -0.001562382140096
 Root     45 :    30.889765220457490   Change is   -0.001562382140145
 Root     46 :    32.581360673365330   Change is   -0.006456759990316
 Root     47 :    32.581360673752020   Change is   -0.006456759990981
 Root     48 :    32.581360673752130   Change is   -0.006456759990836
 Iteration     3 Dimension   102 NMult    96 NNew      6
 CISAX will form     6 AO SS matrices at one time.
 NMat=     6 NSing=     3 JSym2X= 2.
 Root      1 not converged, maximum delta is    0.428474330728534
 Excitation Energies [eV] at current iteration:
 Root      1 :     1.951254888899250   Change is   -0.000000325724644
 Root      2 :     1.951254888912464   Change is   -0.000000327946013
 Root      3 :     1.951254888919249   Change is   -0.000000326816338
 Root      4 :     6.361003014023541   Change is   -0.000008428790762
 Root      5 :     6.361003014026375   Change is   -0.000008428790720
 Root      6 :     6.361003014026513   Change is   -0.000008428790732
 Convergence achieved on expansion vectors.
 ***********************************************************************
 Stability analysis using <AA,BB:AA,BB> singles matrix:
 ***********************************************************************
 1PDM for each excited state written to RWF  633
 Ground to excited state transition densities written to RWF  633

 Eigenvectors of the stability matrix:
 
 Eigenvector   1:      Triplet-T1U  Eigenvalue= 0.0717073  <S**2>=2.000
       2 ->  3         0.42520
       2 ->  4         0.49772
       2 ->  5        -0.10311
       2 ->  9         0.22658
 
 Eigenvector   2:      Triplet-T1U  Eigenvalue= 0.0717073  <S**2>=2.000
       2 ->  3        -0.41378
       2 ->  4         0.41702
       2 ->  5         0.30665
       2 ->  7        -0.12502
       2 ->  8         0.18899
 
 Eigenvector   3:      Triplet-T1U  Eigenvalue= 0.0717073  <S**2>=2.000
       2 ->  3         0.29520
       2 ->  4        -0.13238
       2 ->  5         0.57834
       2 ->  7        -0.19214
       2 ->  8        -0.12780
 
 Eigenvector   4:      Singlet-T1U  Eigenvalue= 0.2337626  <S**2>=0.000
       2 ->  3        -0.29408
       2 ->  4        -0.24902
       2 ->  5         0.50593
       2 ->  7         0.18892
       2 ->  9         0.24311
 
 Eigenvector   5:      Singlet-T1U  Eigenvalue= 0.2337626  <S**2>=0.000
       2 ->  3        -0.41616
       2 ->  4         0.48088
       2 ->  8        -0.30674
 
 Eigenvector   6:      Singlet-T1U  Eigenvalue= 0.2337626  <S**2>=0.000
       2 ->  3         0.38052
       2 ->  4         0.33347
       2 ->  5         0.38532
       2 ->  7         0.24171
       2 ->  9        -0.19069
 The wavefunction is stable under the perturbations considered.
 Leave Link  914 at Sun Apr 18 20:02:42 2021, MaxMem=   104857600 cpu:             348.6 elap:               7.4
 (Enter /s/ls4/users/knvvv/bin/g16sse/l508.exe)
 The wavefunction is already stable.
 Leave Link  508 at Sun Apr 18 20:02:42 2021, MaxMem=   104857600 cpu:               2.2 elap:               0.1
 (Enter /s/ls4/users/knvvv/bin/g16sse/l601.exe)
 Copying SCF densities to generalized density rwf, IOpCl= 0 IROHF=0.

 **********************************************************************

            Population analysis using the SCF density.

 **********************************************************************

 Orbital symmetries:
       Occupied  (A1G) (A1G)
       Virtual   (T1U) (T1U) (T1U) (A1G) (T1U) (T1U) (T1U) (T2G)
                 (T2G) (T2G) (EG) (EG) (A1G) (T1U) (T1U) (T1U)
                 (T2G) (T2G) (T2G) (EG) (EG) (A2U) (T2U) (T2U)
                 (T2U) (T1U) (T1U) (T1U) (A1G) (T1U) (T1U) (T1U)
                 (A1G) (A1G)
 The electronic state is 1-A1G.
 Alpha  occ. eigenvalues --   -4.31046  -0.26657
 Alpha virt. eigenvalues --   -0.01544  -0.01544  -0.01544   0.08634   0.13145
 Alpha virt. eigenvalues --    0.13145   0.13145   0.20788   0.20788   0.20788
 Alpha virt. eigenvalues --    0.20788   0.20788   0.52403   0.58120   0.58120
 Alpha virt. eigenvalues --    0.58120   0.90308   0.90308   0.90308   0.90308
 Alpha virt. eigenvalues --    0.90308   0.96356   0.96356   0.96356   0.96356
 Alpha virt. eigenvalues --    0.96356   0.96356   0.96356   2.66603  10.35448
 Alpha virt. eigenvalues --   10.35448  10.35448  11.37313  62.67659
          Condensed to atoms (all electrons):
               1
     1  Be   4.000000
 Mulliken charges:
               1
     1  Be   0.000000
 Sum of Mulliken charges =   0.00000
 Mulliken charges with hydrogens summed into heavy atoms:
               1
     1  Be   0.000000
 Electronic spatial extent (au):  <R**2>=             16.6200
 Charge=              0.0000 electrons
 Dipole moment (field-independent basis, Debye):
    X=             -0.0000    Y=             -0.0000    Z=              0.0000  Tot=              0.0000
 Quadrupole moment (field-independent basis, Debye-Ang):
   XX=             -7.4515   YY=             -7.4515   ZZ=             -7.4515
   XY=             -0.0000   XZ=             -0.0000   YZ=             -0.0000
 Traceless Quadrupole moment (field-independent basis, Debye-Ang):
   XX=              0.0000   YY=              0.0000   ZZ=              0.0000
   XY=             -0.0000   XZ=             -0.0000   YZ=             -0.0000
 Octapole moment (field-independent basis, Debye-Ang**2):
  XXX=              0.0000  YYY=             -0.0000  ZZZ=              0.0000  XYY=              0.0000
  XXY=              0.0000  XXZ=              0.0000  XZZ=             -0.0000  YZZ=              0.0000
  YYZ=              0.0000  XYZ=              0.0000
 Hexadecapole moment (field-independent basis, Debye-Ang**3):
 XXXX=            -18.9018 YYYY=            -18.9018 ZZZZ=            -18.9018 XXXY=             -0.0000
 XXXZ=             -0.0000 YYYX=             -0.0000 YYYZ=             -0.0000 ZZZX=             -0.0000
 ZZZY=             -0.0000 XXYY=             -6.3006 XXZZ=             -6.3006 YYZZ=             -6.3006
 XXYZ=             -0.0000 YYXZ=             -0.0000 ZZXY=             -0.0000
 N-N= 0.000000000000D+00 E-N=-3.370691782609D+01  KE= 1.460933290745D+01
 No NMR shielding tensors so no spin-rotation constants.
 Leave Link  601 at Sun Apr 18 20:02:44 2021, MaxMem=   104857600 cpu:              67.2 elap:               1.5
 (Enter /s/ls4/users/knvvv/bin/g16sse/l9999.exe)

 Test job not archived.
 1\1\GINC-N151\Stability\RM062X\def2QZVP\Be1\KNVVV\18-Apr-2021\0\\#P M0
 62X/Def2QZVP Integral=UltraFineGrid SCF=NoSymm Stable=(RExt, Opt) IOp(
 1/33=1)\\Database calculations.\\0,1\Be,0,0.,0.,0.\\Version=ES64L-G16R
 evA.03\State=1-A1G\HF=-14.6666812\RMSD=3.418e-09\Dipole=0.,0.,0.\Quadr
 upole=0.,0.,0.,0.,0.,0.\PG=OH [O(Be1)]\\@


 YOU WILL NEVER "FIND" TIME FOR ANYTHING.
 IF YOU WANT TIME, YOU MUST MAKE IT.

                        -- CHARLES BIXTON
 Job cpu time:       0 days  0 hours 29 minutes 24.2 seconds.
 Elapsed time:       0 days  0 hours  0 minutes 37.9 seconds.
 File lengths (MBytes):  RWF=      6 Int=      0 D2E=      0 Chk=      1 Scr=      1
 Normal termination of Gaussian 16 at Sun Apr 18 20:02:44 2021.
