 Entering Gaussian System, Link 0=/s/ls4/users/knvvv/bin/g16sse/g16
 Input=data/database/M062X--BE4--02_CaO_MR-MGM-BE4.gjf
 Output=data/database/M062X--BE4--02_CaO_MR-MGM-BE4.log
 Initial command:
 /s/ls4/users/knvvv/bin/g16sse/l1.exe "/s/ls4/users/knvvv/bin/scratch/Gau-46770.inp" -scrdir="/s/ls4/users/knvvv/bin/scratch/"
 Entering Link 1 = /s/ls4/users/knvvv/bin/g16sse/l1.exe PID=     46771.
  
 Copyright (c) 1988,1990,1992,1993,1995,1998,2003,2009,2016,
            Gaussian, Inc.  All Rights Reserved.
  
 This is part of the Gaussian(R) 16 program.  It is based on
 the Gaussian(R) 09 system (copyright 2009, Gaussian, Inc.),
 the Gaussian(R) 03 system (copyright 2003, Gaussian, Inc.),
 the Gaussian(R) 98 system (copyright 1998, Gaussian, Inc.),
 the Gaussian(R) 94 system (copyright 1995, Gaussian, Inc.),
 the Gaussian 92(TM) system (copyright 1992, Gaussian, Inc.),
 the Gaussian 90(TM) system (copyright 1990, Gaussian, Inc.),
 the Gaussian 88(TM) system (copyright 1988, Gaussian, Inc.),
 the Gaussian 86(TM) system (copyright 1986, Carnegie Mellon
 University), and the Gaussian 82(TM) system (copyright 1983,
 Carnegie Mellon University). Gaussian is a federally registered
 trademark of Gaussian, Inc.
  
 This software contains proprietary and confidential information,
 including trade secrets, belonging to Gaussian, Inc.
  
 This software is provided under written license and may be
 used, copied, transmitted, or stored only in accord with that
 written license.
  
 The following legend is applicable only to US Government
 contracts under FAR:
  
                    RESTRICTED RIGHTS LEGEND
  
 Use, reproduction and disclosure by the US Government is
 subject to restrictions as set forth in subparagraphs (a)
 and (c) of the Commercial Computer Software - Restricted
 Rights clause in FAR 52.227-19.
  
 Gaussian, Inc.
 340 Quinnipiac St., Bldg. 40, Wallingford CT 06492
  
  
 ---------------------------------------------------------------
 Warning -- This program may not be used in any manner that
 competes with the business of Gaussian, Inc. or will provide
 assistance to any competitor of Gaussian, Inc.  The licensee
 of this program is prohibited from giving any competitor of
 Gaussian, Inc. access to this program.  By using this program,
 the user acknowledges that Gaussian, Inc. is engaged in the
 business of creating and licensing software in the field of
 computational chemistry and represents and warrants to the
 licensee that it is not a competitor of Gaussian, Inc. and that
 it will not use this program in any manner prohibited above.
 ---------------------------------------------------------------
  

 Cite this work as:
 Gaussian 16, Revision A.03,
 M. J. Frisch, G. W. Trucks, H. B. Schlegel, G. E. Scuseria, 
 M. A. Robb, J. R. Cheeseman, G. Scalmani, V. Barone, 
 G. A. Petersson, H. Nakatsuji, X. Li, M. Caricato, A. V. Marenich, 
 J. Bloino, B. G. Janesko, R. Gomperts, B. Mennucci, H. P. Hratchian, 
 J. V. Ortiz, A. F. Izmaylov, J. L. Sonnenberg, D. Williams-Young, 
 F. Ding, F. Lipparini, F. Egidi, J. Goings, B. Peng, A. Petrone, 
 T. Henderson, D. Ranasinghe, V. G. Zakrzewski, J. Gao, N. Rega, 
 G. Zheng, W. Liang, M. Hada, M. Ehara, K. Toyota, R. Fukuda, 
 J. Hasegawa, M. Ishida, T. Nakajima, Y. Honda, O. Kitao, H. Nakai, 
 T. Vreven, K. Throssell, J. A. Montgomery, Jr., J. E. Peralta, 
 F. Ogliaro, M. J. Bearpark, J. J. Heyd, E. N. Brothers, K. N. Kudin, 
 V. N. Staroverov, T. A. Keith, R. Kobayashi, J. Normand, 
 K. Raghavachari, A. P. Rendell, J. C. Burant, S. S. Iyengar, 
 J. Tomasi, M. Cossi, J. M. Millam, M. Klene, C. Adamo, R. Cammi, 
 J. W. Ochterski, R. L. Martin, K. Morokuma, O. Farkas, 
 J. B. Foresman, and D. J. Fox, Gaussian, Inc., Wallingford CT, 2016.
 
 ******************************************
 Gaussian 16:  ES64L-G16RevA.03 25-Dec-2016
                16-Apr-2021 
 ******************************************
 %RWF=temp6_81706,70GB
 %nprocshared=48
 Will use up to   48 processors via shared memory.
 Default route: MaxDisk=80GB
 ----------------------------------------------------------------------
 #P M062X/GEN Integral=UltraFineGrid SCF=NoSymm Stable=(RExt, Opt) IOp(
 1/33=1)
 ----------------------------------------------------------------------
 1/33=1,38=1,172=1/1;
 2/12=2,17=6,18=5,40=1/2;
 3/5=7,11=2,25=1,30=1,74=-55,75=-5/1,2,3;
 4/9=2/1;
 5/5=2,38=5/2;
 6/7=2,8=2,9=2,10=2,28=1/1;
 8/6=1,10=90,11=11/1;
 9/8=-3,42=1,46=1/14;
 5/5=2,8=3,17=40,38=5/8(-2);
 6/7=2,8=2,9=2,10=2,28=1/1;
 99/5=1,9=1/99;
 Leave Link    1 at Fri Apr 16 23:02:31 2021, MaxMem=           0 cpu:               8.2 elap:               0.2
 (Enter /s/ls4/users/knvvv/bin/g16sse/l101.exe)
 ONIOM data not found on unit 2.
 ----------------------
 Database calculations.
 ----------------------
 TstMul:  ICh=     0
 TstMul:  Mul=     1
 TstMul:  ICh=     0
 TstMul:  Mul=     1
 Symbolic Z-matrix:
 Charge =  0 Multiplicity = 1
 Ca                    0.        0.        1.821 
 O                     0.        0.        0. 
 
 RdStrC is calling ZToCFu for IStruc=1 NZ=     2.
 PrtBox:  NBox=     1 Levels=  1 BoxLen=    8.00 SMaxX=        3.44
          Shift=            0.000000            0.000000            0.000000
 Box      1 Number                   0 centers from      1 to      2:
 After GenITR:
 ITRead=  0  0
 MicOpt= -1 -1
 ITRead=  0  0
 MicOpt= -1 -1
 NAtoms=      2 NQM=        2 NQMF=       0 NMMI=      0 NMMIF=      0
                NMic=       0 NMicF=      0.
                    Isotopes and Nuclear Properties:
 (Nuclear quadrupole moments (NQMom) in fm**2, nuclear magnetic moments (NMagM)
  in nuclear magnetons)

  Atom         1           2
 IAtWgt=          40          16
 AtmWgt=  39.9625907  15.9949146
 NucSpn=           0           0
 AtZEff=  -0.0000000  -0.0000000
 NQMom=    0.0000000   0.0000000
 NMagM=    0.0000000   0.0000000
 AtZNuc=  20.0000000   8.0000000
 No MM parameters found.
 Leave Link  101 at Fri Apr 16 23:02:32 2021, MaxMem=   104857600 cpu:               6.5 elap:               0.2
 (Enter /s/ls4/users/knvvv/bin/g16sse/l202.exe)
                          Input orientation:                          
 ---------------------------------------------------------------------
 Center     Atomic      Atomic             Coordinates (Angstroms)
 Number     Number       Type             X           Y           Z
 ---------------------------------------------------------------------
      1         20           0        0.000000    0.000000    1.821000
      2          8           0        0.000000    0.000000    0.000000
 ---------------------------------------------------------------------
 Stoichiometry    CaO
 Framework group  C*V[C*(OCa)]
 Deg. of freedom     1
 Full point group                 C*V     NOp   4
 Largest Abelian subgroup         C2V     NOp   4
 Largest concise Abelian subgroup C1      NOp   1
                         Standard orientation:                         
 ---------------------------------------------------------------------
 Center     Atomic      Atomic             Coordinates (Angstroms)
 Number     Number       Type             X           Y           Z
 ---------------------------------------------------------------------
      1         20           0        0.000000    0.000000    0.520286
      2          8           0        0.000000    0.000000   -1.300714
 ---------------------------------------------------------------------
 Rotational constants (GHZ):           0.0000000          13.3419740          13.3419740
 Leave Link  202 at Fri Apr 16 23:02:32 2021, MaxMem=   104857600 cpu:               6.0 elap:               0.2
 (Enter /s/ls4/users/knvvv/bin/g16sse/l301.exe)
 General basis read from cards:  (5D, 7F)
 Centers:       2
 S 12 1.00
     Exponent=  6.1420000000D+04 Coefficients=  9.0000000000D-05
     Exponent=  9.1990000000D+03 Coefficients=  6.9800000000D-04
     Exponent=  2.0910000000D+03 Coefficients=  3.6640000000D-03
     Exponent=  5.9090000000D+02 Coefficients=  1.5218000000D-02
     Exponent=  1.9230000000D+02 Coefficients=  5.2423000000D-02
     Exponent=  6.9320000000D+01 Coefficients=  1.4592100000D-01
     Exponent=  2.6970000000D+01 Coefficients=  3.0525800000D-01
     Exponent=  1.1100000000D+01 Coefficients=  3.9850800000D-01
     Exponent=  4.6820000000D+00 Coefficients=  2.1698000000D-01
     Exponent=  1.4280000000D+00 Coefficients=  1.7594000000D-02
     Exponent=  5.5470000000D-01 Coefficients= -2.5020000000D-03
     Exponent=  2.0670000000D-01 Coefficients=  9.5400000000D-04
 S 12 1.00
     Exponent=  6.1420000000D+04 Coefficients= -2.0000000000D-05
     Exponent=  9.1990000000D+03 Coefficients= -1.5900000000D-04
     Exponent=  2.0910000000D+03 Coefficients= -8.2900000000D-04
     Exponent=  5.9090000000D+02 Coefficients= -3.5080000000D-03
     Exponent=  1.9230000000D+02 Coefficients= -1.2156000000D-02
     Exponent=  6.9320000000D+01 Coefficients= -3.6261000000D-02
     Exponent=  2.6970000000D+01 Coefficients= -8.2992000000D-02
     Exponent=  1.1100000000D+01 Coefficients= -1.5209000000D-01
     Exponent=  4.6820000000D+00 Coefficients= -1.1533100000D-01
     Exponent=  1.4280000000D+00 Coefficients=  2.8897900000D-01
     Exponent=  5.5470000000D-01 Coefficients=  5.8612800000D-01
     Exponent=  2.0670000000D-01 Coefficients=  2.7762400000D-01
 S 1 1.00
     Exponent=  9.3881000000D+01 Coefficients=  1.0000000000D+00
 S 1 1.00
     Exponent=  3.4900000000D+01 Coefficients=  1.0000000000D+00
 S 1 1.00
     Exponent=  1.2974000000D+01 Coefficients=  1.0000000000D+00
 S 1 1.00
     Exponent=  1.4280000000D+00 Coefficients=  1.0000000000D+00
 S 1 1.00
     Exponent=  5.5470000000D-01 Coefficients=  1.0000000000D+00
 S 1 1.00
     Exponent=  2.0670000000D-01 Coefficients=  1.0000000000D+00
 S 1 1.00
     Exponent=  6.9590000000D-02 Coefficients=  1.0000000000D+00
 P 6 1.00
     Exponent=  6.3420000000D+01 Coefficients=  6.0440000000D-03
     Exponent=  1.4660000000D+01 Coefficients=  4.1799000000D-02
     Exponent=  4.4590000000D+00 Coefficients=  1.6114300000D-01
     Exponent=  1.5310000000D+00 Coefficients=  3.5673100000D-01
     Exponent=  5.3020000000D-01 Coefficients=  4.4830900000D-01
     Exponent=  1.7500000000D-01 Coefficients=  2.4494000000D-01
 P 1 1.00
     Exponent=  1.2614000000D+02 Coefficients=  1.0000000000D+00
 P 1 1.00
     Exponent=  4.2730000000D+01 Coefficients=  1.0000000000D+00
 P 1 1.00
     Exponent=  1.4475000000D+01 Coefficients=  1.0000000000D+00
 P 1 1.00
     Exponent=  1.5310000000D+00 Coefficients=  1.0000000000D+00
 P 1 1.00
     Exponent=  5.3020000000D-01 Coefficients=  1.0000000000D+00
 P 1 1.00
     Exponent=  1.7500000000D-01 Coefficients=  1.0000000000D+00
 P 1 1.00
     Exponent=  5.3480000000D-02 Coefficients=  1.0000000000D+00
 D 1 1.00
     Exponent=  5.7544000000D+01 Coefficients=  1.0000000000D+00
 D 1 1.00
     Exponent=  1.4927000000D+01 Coefficients=  1.0000000000D+00
 D 1 1.00
     Exponent=  3.7750000000D+00 Coefficients=  1.0000000000D+00
 D 1 1.00
     Exponent=  1.3000000000D+00 Coefficients=  1.0000000000D+00
 D 1 1.00
     Exponent=  4.4400000000D-01 Coefficients=  1.0000000000D+00
 D 1 1.00
     Exponent=  1.5400000000D-01 Coefficients=  1.0000000000D+00
 F 1 1.00
     Exponent=  2.6483000000D+01 Coefficients=  1.0000000000D+00
 F 1 1.00
     Exponent=  2.6660000000D+00 Coefficients=  1.0000000000D+00
 F 1 1.00
     Exponent=  8.5900000000D-01 Coefficients=  1.0000000000D+00
 F 1 1.00
     Exponent=  3.2400000000D-01 Coefficients=  1.0000000000D+00
 G 1 1.00
     Exponent=  1.8460000000D+00 Coefficients=  1.0000000000D+00
 G 1 1.00
     Exponent=  7.1400000000D-01 Coefficients=  1.0000000000D+00
 ****
 Centers:       1
 S 22 1.00
     Exponent=  7.5039600000D+06 Coefficients=  2.2400000000D-06
     Exponent=  1.1234860000D+06 Coefficients=  1.7440000000D-05
     Exponent=  2.5566350000D+05 Coefficients=  9.1770000000D-05
     Exponent=  7.2416060000D+04 Coefficients=  3.8768000000D-04
     Exponent=  2.3626040000D+04 Coefficients=  1.4118500000D-03
     Exponent=  8.5299860000D+03 Coefficients=  4.5935900000D-03
     Exponent=  3.3273410000D+03 Coefficients=  1.3597330000D-02
     Exponent=  1.3803540000D+03 Coefficients=  3.6673600000D-02
     Exponent=  6.0221490000D+02 Coefficients=  8.8720760000D-02
     Exponent=  2.7388740000D+02 Coefficients=  1.8414893000D-01
     Exponent=  1.2894510000D+02 Coefficients=  3.0074216000D-01
     Exponent=  6.2422990000D+01 Coefficients=  3.2434815000D-01
     Exponent=  3.0574370000D+01 Coefficients=  1.7195747000D-01
     Exponent=  1.3855220000D+01 Coefficients=  2.4809330000D-02
     Exponent=  6.8362040000D+00 Coefficients= -1.0340800000D-03
     Exponent=  3.3781530000D+00 Coefficients=  1.0129000000D-03
     Exponent=  1.4919070000D+00 Coefficients= -4.6678000000D-04
     Exponent=  7.2114000000D-01 Coefficients=  1.8662000000D-04
     Exponent=  3.3415200000D-01 Coefficients= -8.8080000000D-05
     Exponent=  8.2382000000D-02 Coefficients=  3.3470000000D-05
     Exponent=  4.1655000000D-02 Coefficients= -2.6450000000D-05
     Exponent=  1.9973000000D-02 Coefficients=  8.1300000000D-06
 S 22 1.00
     Exponent=  7.5039600000D+06 Coefficients= -6.5000000000D-07
     Exponent=  1.1234860000D+06 Coefficients= -5.0700000000D-06
     Exponent=  2.5566350000D+05 Coefficients= -2.6630000000D-05
     Exponent=  7.2416060000D+04 Coefficients= -1.1266000000D-04
     Exponent=  2.3626040000D+04 Coefficients= -4.1030000000D-04
     Exponent=  8.5299860000D+03 Coefficients= -1.3411100000D-03
     Exponent=  3.3273410000D+03 Coefficients= -3.9940400000D-03
     Exponent=  1.3803540000D+03 Coefficients= -1.0989030000D-02
     Exponent=  6.0221490000D+02 Coefficients= -2.7564470000D-02
     Exponent=  2.7388740000D+02 Coefficients= -6.2162460000D-02
     Exponent=  1.2894510000D+02 Coefficients= -1.1860476000D-01
     Exponent=  6.2422990000D+01 Coefficients= -1.7410494000D-01
     Exponent=  3.0574370000D+01 Coefficients= -1.1847714000D-01
     Exponent=  1.3855220000D+01 Coefficients=  1.9457468000D-01
     Exponent=  6.8362040000D+00 Coefficients=  5.4661131000D-01
     Exponent=  3.3781530000D+00 Coefficients=  3.8126324000D-01
     Exponent=  1.4919070000D+00 Coefficients=  5.1878530000D-02
     Exponent=  7.2114000000D-01 Coefficients= -2.0499600000D-03
     Exponent=  3.3415200000D-01 Coefficients=  1.6880900000D-03
     Exponent=  8.2382000000D-02 Coefficients= -3.9740000000D-04
     Exponent=  4.1655000000D-02 Coefficients=  3.1167000000D-04
     Exponent=  1.9973000000D-02 Coefficients= -9.5110000000D-05
 S 22 1.00
     Exponent=  7.5039600000D+06 Coefficients=  2.2000000000D-07
     Exponent=  1.1234860000D+06 Coefficients=  1.7500000000D-06
     Exponent=  2.5566350000D+05 Coefficients=  9.1800000000D-06
     Exponent=  7.2416060000D+04 Coefficients=  3.8880000000D-05
     Exponent=  2.3626040000D+04 Coefficients=  1.4138000000D-04
     Exponent=  8.5299860000D+03 Coefficients=  4.6324000000D-04
     Exponent=  3.3273410000D+03 Coefficients=  1.3773100000D-03
     Exponent=  1.3803540000D+03 Coefficients=  3.8078600000D-03
     Exponent=  6.0221490000D+02 Coefficients=  9.5564100000D-03
     Exponent=  2.7388740000D+02 Coefficients=  2.1831320000D-02
     Exponent=  1.2894510000D+02 Coefficients=  4.2149510000D-02
     Exponent=  6.2422990000D+01 Coefficients=  6.4628450000D-02
     Exponent=  3.0574370000D+01 Coefficients=  4.5359830000D-02
     Exponent=  1.3855220000D+01 Coefficients= -8.2498530000D-02
     Exponent=  6.8362040000D+00 Coefficients= -3.2315107000D-01
     Exponent=  3.3781530000D+00 Coefficients= -3.6063496000D-01
     Exponent=  1.4919070000D+00 Coefficients=  2.0438954000D-01
     Exponent=  7.2114000000D-01 Coefficients=  6.9610089000D-01
     Exponent=  3.3415200000D-01 Coefficients=  3.6177498000D-01
     Exponent=  8.2382000000D-02 Coefficients=  1.4218530000D-02
     Exponent=  4.1655000000D-02 Coefficients= -6.4193200000D-03
     Exponent=  1.9973000000D-02 Coefficients=  1.5714700000D-03
 S 22 1.00
     Exponent=  7.5039600000D+06 Coefficients= -5.0000000000D-08
     Exponent=  1.1234860000D+06 Coefficients= -4.2000000000D-07
     Exponent=  2.5566350000D+05 Coefficients= -2.1900000000D-06
     Exponent=  7.2416060000D+04 Coefficients= -9.2900000000D-06
     Exponent=  2.3626040000D+04 Coefficients= -3.3740000000D-05
     Exponent=  8.5299860000D+03 Coefficients= -1.1070000000D-04
     Exponent=  3.3273410000D+03 Coefficients= -3.2862000000D-04
     Exponent=  1.3803540000D+03 Coefficients= -9.1050000000D-04
     Exponent=  6.0221490000D+02 Coefficients= -2.2809000000D-03
     Exponent=  2.7388740000D+02 Coefficients= -5.2309500000D-03
     Exponent=  1.2894510000D+02 Coefficients= -1.0083610000D-02
     Exponent=  6.2422990000D+01 Coefficients= -1.5612940000D-02
     Exponent=  3.0574370000D+01 Coefficients= -1.0883380000D-02
     Exponent=  1.3855220000D+01 Coefficients=  1.9957680000D-02
     Exponent=  6.8362040000D+00 Coefficients=  8.3488600000D-02
     Exponent=  3.3781530000D+00 Coefficients=  9.5949510000D-02
     Exponent=  1.4919070000D+00 Coefficients= -6.3957720000D-02
     Exponent=  7.2114000000D-01 Coefficients= -2.4522487000D-01
     Exponent=  3.3415200000D-01 Coefficients= -2.8584670000D-01
     Exponent=  8.2382000000D-02 Coefficients=  3.7013321000D-01
     Exponent=  4.1655000000D-02 Coefficients=  5.9095562000D-01
     Exponent=  1.9973000000D-02 Coefficients=  2.2320821000D-01
 S 1 1.00
     Exponent=  3.2818000000D+00 Coefficients=  1.0000000000D+00
 S 1 1.00
     Exponent=  1.5643000000D+00 Coefficients=  1.0000000000D+00
 S 1 1.00
     Exponent=  7.4560000000D-01 Coefficients=  1.0000000000D+00
 S 1 1.00
     Exponent=  8.2382000000D-02 Coefficients=  1.0000000000D+00
 S 1 1.00
     Exponent=  4.1655000000D-02 Coefficients=  1.0000000000D+00
 S 1 1.00
     Exponent=  1.9973000000D-02 Coefficients=  1.0000000000D+00
 P 16 1.00
     Exponent=  9.3630100000D+03 Coefficients=  4.6170000000D-05
     Exponent=  2.2162550000D+03 Coefficients=  4.1049000000D-04
     Exponent=  7.1975960000D+02 Coefficients=  2.3556700000D-03
     Exponent=  2.7517280000D+02 Coefficients=  1.0254910000D-02
     Exponent=  1.1639240000D+02 Coefficients=  3.5660350000D-02
     Exponent=  5.2777700000D+01 Coefficients=  9.9640560000D-02
     Exponent=  2.5131880000D+01 Coefficients=  2.1320626000D-01
     Exponent=  1.2314160000D+01 Coefficients=  3.3153524000D-01
     Exponent=  6.1667970000D+00 Coefficients=  3.2934263000D-01
     Exponent=  3.1142790000D+00 Coefficients=  1.5466414000D-01
     Exponent=  1.5190130000D+00 Coefficients=  2.2155260000D-02
     Exponent=  7.2543500000D-01 Coefficients=  5.5191000000D-04
     Exponent=  3.4092600000D-01 Coefficients=  1.5177000000D-04
     Exponent=  1.4400000000D-01 Coefficients= -5.4390000000D-05
     Exponent=  5.8000000000D-02 Coefficients=  5.3800000000D-06
     Exponent=  2.3160000000D-02 Coefficients= -3.7200000000D-06
 P 16 1.00
     Exponent=  9.3630100000D+03 Coefficients= -1.5050000000D-05
     Exponent=  2.2162550000D+03 Coefficients= -1.3361000000D-04
     Exponent=  7.1975960000D+02 Coefficients= -7.7014000000D-04
     Exponent=  2.7517280000D+02 Coefficients= -3.3645300000D-03
     Exponent=  1.1639240000D+02 Coefficients= -1.1866240000D-02
     Exponent=  5.2777700000D+01 Coefficients= -3.3894230000D-02
     Exponent=  2.5131880000D+01 Coefficients= -7.5143290000D-02
     Exponent=  1.2314160000D+01 Coefficients= -1.2144348000D-01
     Exponent=  6.1667970000D+00 Coefficients= -1.2922084000D-01
     Exponent=  3.1142790000D+00 Coefficients=  1.5877030000D-02
     Exponent=  1.5190130000D+00 Coefficients=  3.0853676000D-01
     Exponent=  7.2543500000D-01 Coefficients=  4.7281521000D-01
     Exponent=  3.4092600000D-01 Coefficients=  2.9410281000D-01
     Exponent=  1.4400000000D-01 Coefficients=  4.4981090000D-02
     Exponent=  5.8000000000D-02 Coefficients=  1.2190000000D-05
     Exponent=  2.3160000000D-02 Coefficients=  6.5915000000D-04
 P 16 1.00
     Exponent=  9.3630100000D+03 Coefficients=  3.1300000000D-06
     Exponent=  2.2162550000D+03 Coefficients=  2.7950000000D-05
     Exponent=  7.1975960000D+02 Coefficients=  1.6003000000D-04
     Exponent=  2.7517280000D+02 Coefficients=  7.0417000000D-04
     Exponent=  1.1639240000D+02 Coefficients=  2.4692200000D-03
     Exponent=  5.2777700000D+01 Coefficients=  7.1189900000D-03
     Exponent=  2.5131880000D+01 Coefficients=  1.5690170000D-02
     Exponent=  1.2314160000D+01 Coefficients=  2.5785640000D-02
     Exponent=  6.1667970000D+00 Coefficients=  2.6936560000D-02
     Exponent=  3.1142790000D+00 Coefficients= -4.8558600000D-03
     Exponent=  1.5190130000D+00 Coefficients= -7.6542120000D-02
     Exponent=  7.2543500000D-01 Coefficients= -1.1554459000D-01
     Exponent=  3.4092600000D-01 Coefficients= -1.2127062000D-01
     Exponent=  1.4400000000D-01 Coefficients=  1.2642003000D-01
     Exponent=  5.8000000000D-02 Coefficients=  6.1443087000D-01
     Exponent=  2.3160000000D-02 Coefficients=  3.9408164000D-01
 P 1 1.00
     Exponent=  3.3392000000D+00 Coefficients=  1.0000000000D+00
 P 1 1.00
     Exponent=  1.6309000000D+00 Coefficients=  1.0000000000D+00
 P 1 1.00
     Exponent=  7.9660000000D-01 Coefficients=  1.0000000000D+00
 P 1 1.00
     Exponent=  1.4400000000D-01 Coefficients=  1.0000000000D+00
 P 1 1.00
     Exponent=  5.8000000000D-02 Coefficients=  1.0000000000D+00
 P 1 1.00
     Exponent=  2.3160000000D-02 Coefficients=  1.0000000000D+00
 D 7 1.00
     Exponent=  2.6270830000D+01 Coefficients=  7.3460000000D-03
     Exponent=  7.3078200000D+00 Coefficients=  4.0901000000D-02
     Exponent=  2.4549800000D+00 Coefficients=  1.3006500000D-01
     Exponent=  8.8714000000D-01 Coefficients=  2.4415100000D-01
     Exponent=  3.0925000000D-01 Coefficients=  3.3544500000D-01
     Exponent=  1.0316000000D-01 Coefficients=  4.1197100000D-01
     Exponent=  3.3740000000D-02 Coefficients=  2.8652600000D-01
 D 1 1.00
     Exponent=  3.3287000000D+00 Coefficients=  1.0000000000D+00
 D 1 1.00
     Exponent=  1.6458000000D+00 Coefficients=  1.0000000000D+00
 D 1 1.00
     Exponent=  8.1370000000D-01 Coefficients=  1.0000000000D+00
 D 1 1.00
     Exponent=  3.0925000000D-01 Coefficients=  1.0000000000D+00
 D 1 1.00
     Exponent=  1.0316000000D-01 Coefficients=  1.0000000000D+00
 D 1 1.00
     Exponent=  3.3740000000D-02 Coefficients=  1.0000000000D+00
 F 1 1.00
     Exponent=  2.2297000000D+00 Coefficients=  1.0000000000D+00
 F 1 1.00
     Exponent=  1.2035000000D+00 Coefficients=  1.0000000000D+00
 F 1 1.00
     Exponent=  4.8830000000D-01 Coefficients=  1.0000000000D+00
 F 1 1.00
     Exponent=  1.1650000000D-01 Coefficients=  1.0000000000D+00
 G 1 1.00
     Exponent=  1.5908000000D+00 Coefficients=  1.0000000000D+00
 G 1 1.00
     Exponent=  1.4660000000D-01 Coefficients=  1.0000000000D+00
 ****
 Ernie: Thresh=  0.10000D-02 Tol=  0.10000D-05 Strict=F.
 Ernie:  63 primitive shells out of 223 were deleted.
 There are   123 symmetry adapted cartesian basis functions of A1  symmetry.
 There are    33 symmetry adapted cartesian basis functions of A2  symmetry.
 There are    66 symmetry adapted cartesian basis functions of B1  symmetry.
 There are    66 symmetry adapted cartesian basis functions of B2  symmetry.
 There are    90 symmetry adapted basis functions of A1  symmetry.
 There are    29 symmetry adapted basis functions of A2  symmetry.
 There are    54 symmetry adapted basis functions of B1  symmetry.
 There are    54 symmetry adapted basis functions of B2  symmetry.
   227 basis functions,   483 primitive gaussians,   288 cartesian basis functions
    14 alpha electrons       14 beta electrons
       nuclear repulsion energy        46.4955264949 Hartrees.
 IExCor= 4336 DFT=T Ex+Corr=M062X ExCW=0 ScaHFX=  0.540000
 ScaDFX=  1.000000  1.000000  1.000000  1.000000 ScalE2=  1.000000  1.000000
 IRadAn=      5 IRanWt=     -1 IRanGd=            0 ICorTp=0 IEmpDi=  4
 NAtoms=    2 NActive=    2 NUniq=    2 SFac= 1.00D+00 NAtFMM=   60 NAOKFM=F Big=F
 Integral buffers will be    131072 words long.
 Raffenetti 2 integral format.
 Two-electron integral symmetry is turned on.
 Leave Link  301 at Fri Apr 16 23:02:32 2021, MaxMem=   104857600 cpu:              11.2 elap:               0.3
 (Enter /s/ls4/users/knvvv/bin/g16sse/l302.exe)
 NPDir=0 NMtPBC=     1 NCelOv=     1 NCel=       1 NClECP=     1 NCelD=      1
         NCelK=      1 NCelE2=     1 NClLst=     1 CellRange=     0.0.
 One-electron integrals computed using PRISM.
 One-electron integral symmetry used in STVInt
 PrsmSu:  requested number of processors reduced to:   4 ShMem   1 Linda.
 PrsmSu:  requested number of processors reduced to:  21 ShMem   1 Linda.
 NBasis=   227 RedAO= T EigKep=  8.71D-06  NBF=    90    29    54    54
 NBsUse=   227 1.00D-06 EigRej= -1.00D+00 NBFU=    90    29    54    54
 Precomputing XC quadrature grid using
 IXCGrd= 4 IRadAn=           5 IRanWt=          -1 IRanGd=           0 AccXCQ= 0.00D+00.
 Generated NRdTot=       0 NPtTot=           0 NUsed=           0 NTot=          32
 NSgBfM=   288   288   288   288   288 MxSgAt=     2 MxSgA2=     2.
 Leave Link  302 at Fri Apr 16 23:02:43 2021, MaxMem=   104857600 cpu:             516.9 elap:              11.1
 (Enter /s/ls4/users/knvvv/bin/g16sse/l303.exe)
 DipDrv:  MaxL=1.
 Leave Link  303 at Fri Apr 16 23:02:45 2021, MaxMem=   104857600 cpu:              77.2 elap:               1.7
 (Enter /s/ls4/users/knvvv/bin/g16sse/l401.exe)
 SCF N**3 symmetry information disabled.
 ExpMin= 2.00D-02 ExpMax= 7.50D+06 ExpMxC= 3.33D+03 IAcc=3 IRadAn=         5 AccDes= 0.00D+00
 Harris functional with IExCor= 1009 and IRadAn=       5 diagonalized for initial guess.
 HarFok:  IExCor= 1009 AccDes= 0.00D+00 IRadAn=         5 IDoV= 1 UseB2=F ITyADJ=14
 ICtDFT=  3500011 ScaDFX=  1.000000  1.000000  1.000000  1.000000
 FoFCou: FMM=F IPFlag=           0 FMFlag=      100000 FMFlg1=           0
         NFxFlg=           0 DoJE=T BraDBF=F KetDBF=T FulRan=T
         wScrn=  0.000000 ICntrl=       500 IOpCl=  0 I1Cent=   200000004 NGrid=           0
         NMat0=    1 NMatS0=      1 NMatT0=    0 NMatD0=    1 NMtDS0=    0 NMtDT0=    0
 Petite list used in FoFCou.
 CoulSu:  requested number of processors reduced to:  20 ShMem   1 Linda.
 CoulSu:  requested number of processors reduced to:  20 ShMem   1 Linda.
 CoulSu:  requested number of processors reduced to:  21 ShMem   1 Linda.
 CoulSu:  requested number of processors reduced to:  21 ShMem   1 Linda.
 Harris En= -752.604283726329    
 JPrj=0 DoOrth=F DoCkMO=F.
 Initial guess orbital symmetries:
       Occupied  (SG) (SG) (SG) (SG) (PI) (PI) (SG) (SG) (PI) (PI)
                 (SG) (PI) (PI) (SG)
       Virtual   (SG) (DLTA) (DLTA) (PI) (PI) (SG) (PI) (PI) (SG)
                 (SG) (PI) (PI) (DLTA) (DLTA) (SG) (PI) (PI) (SG)
                 (SG) (PI) (PI) (SG) (SG) (DLTA) (DLTA) (PI) (PI)
                 (PHI) (PHI) (DLTA) (DLTA) (SG) (PI) (PI) (SG)
                 (PI) (PI) (SG) (DLTA) (DLTA) (PI) (PI) (PHI) (PHI)
                 (?A) (?A) (SG) (DLTA) (DLTA) (SG) (PI) (PI) (SG)
                 (PI) (PI) (DLTA) (DLTA) (SG) (PI) (PI) (SG) (DLTA)
                 (DLTA) (PI) (PI) (PHI) (PHI) (SG) (PHI) (PHI)
                 (DLTA) (DLTA) (SG) (PI) (PI) (PI) (PI) (SG) (DLTA)
                 (DLTA) (SG) (PI) (PI) (SG) (PI) (PI) (SG) (PI)
                 (PI) (SG) (PHI) (PHI) (?A) (?A) (DLTA) (DLTA)
                 (DLTA) (DLTA) (SG) (PHI) (PHI) (DLTA) (DLTA) (PI)
                 (PI) (SG) (PI) (PI) (DLTA) (DLTA) (PHI) (PHI)
                 (SG) (DLTA) (DLTA) (PI) (PI) (SG) (PI) (PI) (PI)
                 (PI) (SG) (SG) (SG) (?A) (?A) (PHI) (PHI) (DLTA)
                 (DLTA) (PI) (PI) (SG) (PI) (PI) (PHI) (PHI) (SG)
                 (DLTA) (DLTA) (PI) (PI) (SG) (DLTA) (DLTA) (PI)
                 (PI) (?A) (?A) (PHI) (PHI) (DLTA) (DLTA) (SG)
                 (PI) (PI) (SG) (PHI) (PHI) (DLTA) (DLTA) (PI)
                 (PI) (SG) (DLTA) (DLTA) (PI) (PI) (SG) (PI) (PI)
                 (SG) (SG) (SG) (DLTA) (DLTA) (PI) (PI) (SG) (PI)
                 (PI) (SG) (PI) (PI) (SG) (DLTA) (DLTA) (PI) (PI)
                 (SG) (SG) (PHI) (PHI) (DLTA) (DLTA) (PI) (PI)
                 (SG) (PI) (PI) (SG) (DLTA) (DLTA) (PI) (PI) (SG)
                 (SG) (SG) (PI) (PI) (SG) (SG)
 The electronic state of the initial guess is 1-SG.
 Leave Link  401 at Fri Apr 16 23:02:50 2021, MaxMem=   104857600 cpu:             222.6 elap:               4.9
 (Enter /s/ls4/users/knvvv/bin/g16sse/l502.exe)
 Integral symmetry usage will be decided dynamically.
 Closed shell SCF:
 Using DIIS extrapolation, IDIIS=  1040.
 NGot=   104857600 LenX=   104673922 LenY=   104590537
 Requested convergence on RMS density matrix=1.00D-08 within 128 cycles.
 Requested convergence on MAX density matrix=1.00D-06.
 Requested convergence on             energy=1.00D-06.
 No special actions if energy rises.
 Fock matrices will be formed incrementally for  20 cycles.

 Cycle   1  Pass 1  IDiag  1:
 FoFJK:  IHMeth= 1 ICntrl=       0 DoSepK=F KAlg= 0 I1Cent=           0 FoldK=F
 IRaf= 990000000 NMat=       1 IRICut=       1 DoRegI=T DoRafI=F ISym2E= 1 IDoP0=0 IntGTp=1.
 FoFCou: FMM=F IPFlag=           0 FMFlag=      100000 FMFlg1=           0
         NFxFlg=           0 DoJE=F BraDBF=F KetDBF=F FulRan=T
         wScrn=  0.000000 ICntrl=         0 IOpCl=  0 I1Cent=           0 NGrid=           0
         NMat0=    1 NMatS0=      1 NMatT0=    0 NMatD0=    1 NMtDS0=    0 NMtDT0=    0
 Petite list used in FoFCou.
 CoulSu:  requested number of processors reduced to:  21 ShMem   1 Linda.
 E= -752.397176230952    
 DIIS: error= 7.46D-02 at cycle   1 NSaved=   1.
 NSaved= 1 IEnMin= 1 EnMin= -752.397176230952     IErMin= 1 ErrMin= 7.46D-02
 ErrMax= 7.46D-02  0.00D+00 EMaxC= 1.00D-01 BMatC= 6.97D-01 BMatP= 6.97D-01
 IDIUse=3 WtCom= 2.54D-01 WtEn= 7.46D-01
 Coeff-Com:  0.100D+01
 Coeff-En:   0.100D+01
 Coeff:      0.100D+01
 Gap=    -0.275 Goal=   None    Shift=    0.000
 GapD=   -0.275 DampG=0.250 DampE=0.500 DampFc=0.2500 IDamp=-1.
 Damping current iteration by 2.50D-01
 RMSDP=1.01D-02 MaxDP=1.03D+00              OVMax= 9.99D-01

 Cycle   2  Pass 1  IDiag  1:
 RMSU=  2.27D-03    CP:  9.41D-01
 CoulSu:  requested number of processors reduced to:  21 ShMem   1 Linda.
 E= -752.267732326868     Delta-E=        0.129443904084 Rises=F Damp=T
 DIIS: error= 5.43D-02 at cycle   2 NSaved=   2.
 NSaved= 2 IEnMin= 1 EnMin= -752.397176230952     IErMin= 2 ErrMin= 5.43D-02
 ErrMax= 5.43D-02  0.00D+00 EMaxC= 1.00D-01 BMatC= 1.51D-01 BMatP= 6.97D-01
 IDIUse=3 WtCom= 4.57D-01 WtEn= 5.43D-01
 Coeff-Com: -0.729D-01 0.107D+01
 Coeff-En:   0.606D+00 0.394D+00
 Coeff:      0.296D+00 0.704D+00
 Gap=    -0.002 Goal=   None    Shift=    0.000
 RMSDP=2.82D-03 MaxDP=2.04D-01 DE= 1.29D-01 OVMax= 9.98D-01

 Cycle   3  Pass 1  IDiag  1:
 RMSU=  2.75D-03    CP:  9.33D-01  7.30D-01
 CoulSu:  requested number of processors reduced to:  21 ShMem   1 Linda.
 E= -752.754781580261     Delta-E=       -0.487049253393 Rises=F Damp=F
 DIIS: error= 2.15D-02 at cycle   3 NSaved=   3.
 NSaved= 3 IEnMin= 3 EnMin= -752.754781580261     IErMin= 3 ErrMin= 2.15D-02
 ErrMax= 2.15D-02  0.00D+00 EMaxC= 1.00D-01 BMatC= 2.76D-02 BMatP= 1.51D-01
 IDIUse=3 WtCom= 7.85D-01 WtEn= 2.15D-01
 Coeff-Com: -0.959D-01 0.303D+00 0.793D+00
 Coeff-En:   0.000D+00 0.000D+00 0.100D+01
 Coeff:     -0.753D-01 0.238D+00 0.838D+00
 Gap=     0.161 Goal=   None    Shift=    0.000
 RMSDP=9.05D-04 MaxDP=4.30D-02 DE=-4.87D-01 OVMax= 6.28D-02

 Cycle   4  Pass 1  IDiag  1:
 RMSU=  8.92D-04    CP:  9.26D-01  6.95D-01  9.87D-01
 CoulSu:  requested number of processors reduced to:  21 ShMem   1 Linda.
 E= -752.782790998438     Delta-E=       -0.028009418177 Rises=F Damp=F
 DIIS: error= 8.12D-03 at cycle   4 NSaved=   4.
 NSaved= 4 IEnMin= 4 EnMin= -752.782790998438     IErMin= 4 ErrMin= 8.12D-03
 ErrMax= 8.12D-03  0.00D+00 EMaxC= 1.00D-01 BMatC= 5.13D-03 BMatP= 2.76D-02
 IDIUse=3 WtCom= 9.19D-01 WtEn= 8.12D-02
 Coeff-Com: -0.827D-01 0.108D+00 0.123D+00 0.852D+00
 Coeff-En:   0.000D+00 0.000D+00 0.000D+00 0.100D+01
 Coeff:     -0.760D-01 0.990D-01 0.113D+00 0.864D+00
 Gap=     0.161 Goal=   None    Shift=    0.000
 RMSDP=4.04D-04 MaxDP=2.03D-02 DE=-2.80D-02 OVMax= 2.64D-02

 Cycle   5  Pass 1  IDiag  1:
 RMSU=  3.69D-04    CP:  9.26D-01  7.30D-01  1.03D+00  1.11D+00
 CoulSu:  requested number of processors reduced to:  21 ShMem   1 Linda.
 E= -752.787604069342     Delta-E=       -0.004813070905 Rises=F Damp=F
 DIIS: error= 3.39D-03 at cycle   5 NSaved=   5.
 NSaved= 5 IEnMin= 5 EnMin= -752.787604069342     IErMin= 5 ErrMin= 3.39D-03
 ErrMax= 3.39D-03  0.00D+00 EMaxC= 1.00D-01 BMatC= 6.58D-04 BMatP= 5.13D-03
 IDIUse=3 WtCom= 9.66D-01 WtEn= 3.39D-02
 Coeff-Com: -0.225D-01 0.296D-01-0.894D-01 0.119D+00 0.963D+00
 Coeff-En:   0.000D+00 0.000D+00 0.000D+00 0.000D+00 0.100D+01
 Coeff:     -0.218D-01 0.286D-01-0.863D-01 0.115D+00 0.965D+00
 Gap=     0.163 Goal=   None    Shift=    0.000
 RMSDP=2.10D-04 MaxDP=1.07D-02 DE=-4.81D-03 OVMax= 1.64D-02

 Cycle   6  Pass 1  IDiag  1:
 RMSU=  1.46D-04    CP:  9.25D-01  7.38D-01  1.01D+00  1.25D+00  1.20D+00
 CoulSu:  requested number of processors reduced to:  21 ShMem   1 Linda.
 E= -752.788265670646     Delta-E=       -0.000661601303 Rises=F Damp=F
 DIIS: error= 2.23D-03 at cycle   6 NSaved=   6.
 NSaved= 6 IEnMin= 6 EnMin= -752.788265670646     IErMin= 6 ErrMin= 2.23D-03
 ErrMax= 2.23D-03  0.00D+00 EMaxC= 1.00D-01 BMatC= 2.34D-04 BMatP= 6.58D-04
 IDIUse=3 WtCom= 9.78D-01 WtEn= 2.23D-02
 Coeff-Com: -0.131D-01 0.193D-01-0.178D-01-0.921D-01 0.113D+00 0.990D+00
 Coeff-En:   0.000D+00 0.000D+00 0.000D+00 0.000D+00 0.000D+00 0.100D+01
 Coeff:     -0.128D-01 0.188D-01-0.174D-01-0.900D-01 0.111D+00 0.991D+00
 Gap=     0.164 Goal=   None    Shift=    0.000
 RMSDP=8.03D-05 MaxDP=5.40D-03 DE=-6.62D-04 OVMax= 8.79D-03

 Cycle   7  Pass 1  IDiag  1:
 RMSU=  4.61D-05    CP:  9.25D-01  7.44D-01  1.01D+00  1.28D+00  1.30D+00
                    CP:  1.26D+00
 CoulSu:  requested number of processors reduced to:  21 ShMem   1 Linda.
 E= -752.788454073739     Delta-E=       -0.000188403093 Rises=F Damp=F
 DIIS: error= 1.53D-03 at cycle   7 NSaved=   7.
 NSaved= 7 IEnMin= 7 EnMin= -752.788454073739     IErMin= 7 ErrMin= 1.53D-03
 ErrMax= 1.53D-03  0.00D+00 EMaxC= 1.00D-01 BMatC= 1.09D-04 BMatP= 2.34D-04
 IDIUse=3 WtCom= 9.85D-01 WtEn= 1.53D-02
 Coeff-Com: -0.885D-02 0.111D-01-0.873D-02-0.235D-01-0.770D-01-0.380D+00
 Coeff-Com:  0.149D+01
 Coeff-En:   0.000D+00 0.000D+00 0.000D+00 0.000D+00 0.000D+00 0.000D+00
 Coeff-En:   0.100D+01
 Coeff:     -0.872D-02 0.109D-01-0.859D-02-0.231D-01-0.758D-01-0.375D+00
 Coeff:      0.148D+01
 Gap=     0.164 Goal=   None    Shift=    0.000
 RMSDP=6.15D-05 MaxDP=4.25D-03 DE=-1.88D-04 OVMax= 8.23D-03

 Cycle   8  Pass 1  IDiag  1:
 RMSU=  2.56D-05    CP:  9.25D-01  7.49D-01  1.01D+00  1.31D+00  1.34D+00
                    CP:  1.48D+00  1.75D+00
 CoulSu:  requested number of processors reduced to:  21 ShMem   1 Linda.
 E= -752.788538070024     Delta-E=       -0.000083996286 Rises=F Damp=F
 DIIS: error= 1.04D-03 at cycle   8 NSaved=   8.
 NSaved= 8 IEnMin= 8 EnMin= -752.788538070024     IErMin= 8 ErrMin= 1.04D-03
 ErrMax= 1.04D-03  0.00D+00 EMaxC= 1.00D-01 BMatC= 5.92D-05 BMatP= 1.09D-04
 IDIUse=3 WtCom= 9.90D-01 WtEn= 1.04D-02
 Coeff-Com: -0.594D-02 0.714D-02-0.529D-02-0.287D-02-0.183D-01-0.446D+00
 Coeff-Com:  0.153D+00 0.132D+01
 Coeff-En:   0.000D+00 0.000D+00 0.000D+00 0.000D+00 0.000D+00 0.000D+00
 Coeff-En:   0.000D+00 0.100D+01
 Coeff:     -0.588D-02 0.706D-02-0.523D-02-0.284D-02-0.182D-01-0.441D+00
 Coeff:      0.151D+00 0.131D+01
 Gap=     0.164 Goal=   None    Shift=    0.000
 RMSDP=3.87D-05 MaxDP=2.82D-03 DE=-8.40D-05 OVMax= 5.64D-03

 Cycle   9  Pass 1  IDiag  1:
 RMSU=  1.15D-05    CP:  9.25D-01  7.53D-01  1.01D+00  1.32D+00  1.36D+00
                    CP:  1.57D+00  2.30D+00  1.66D+00
 CoulSu:  requested number of processors reduced to:  21 ShMem   1 Linda.
 E= -752.788573936821     Delta-E=       -0.000035866796 Rises=F Damp=F
 DIIS: error= 6.78D-04 at cycle   9 NSaved=   9.
 NSaved= 9 IEnMin= 9 EnMin= -752.788573936821     IErMin= 9 ErrMin= 6.78D-04
 ErrMax= 6.78D-04  0.00D+00 EMaxC= 1.00D-01 BMatC= 3.12D-05 BMatP= 5.92D-05
 IDIUse=3 WtCom= 9.93D-01 WtEn= 6.78D-03
 Coeff-Com: -0.398D-02 0.531D-02-0.708D-02-0.757D-02 0.475D-01-0.590D-02
 Coeff-Com: -0.467D+00-0.469D-01 0.149D+01
 Coeff-En:   0.000D+00 0.000D+00 0.000D+00 0.000D+00 0.000D+00 0.000D+00
 Coeff-En:   0.000D+00 0.000D+00 0.100D+01
 Coeff:     -0.395D-02 0.528D-02-0.703D-02-0.752D-02 0.471D-01-0.586D-02
 Coeff:     -0.464D+00-0.466D-01 0.148D+01
 Gap=     0.164 Goal=   None    Shift=    0.000
 RMSDP=2.01D-05 MaxDP=1.52D-03 DE=-3.59D-05 OVMax= 2.84D-03

 Cycle  10  Pass 1  IDiag  1:
 RMSU=  5.39D-06    CP:  9.25D-01  7.54D-01  1.01D+00  1.33D+00  1.35D+00
                    CP:  1.57D+00  2.54D+00  2.17D+00  1.64D+00
 CoulSu:  requested number of processors reduced to:  21 ShMem   1 Linda.
 E= -752.788582631982     Delta-E=       -0.000008695161 Rises=F Damp=F
 DIIS: error= 5.21D-04 at cycle  10 NSaved=  10.
 NSaved=10 IEnMin=10 EnMin= -752.788582631982     IErMin=10 ErrMin= 5.21D-04
 ErrMax= 5.21D-04  0.00D+00 EMaxC= 1.00D-01 BMatC= 2.20D-05 BMatP= 3.12D-05
 IDIUse=3 WtCom= 9.95D-01 WtEn= 5.21D-03
 Coeff-Com: -0.369D-02 0.477D-02-0.483D-02-0.110D-01 0.128D-01 0.183D-01
 Coeff-Com: -0.191D+00-0.189D+00 0.211D+00 0.115D+01
 Coeff-En:   0.000D+00 0.000D+00 0.000D+00 0.000D+00 0.000D+00 0.000D+00
 Coeff-En:   0.000D+00 0.000D+00 0.000D+00 0.100D+01
 Coeff:     -0.367D-02 0.474D-02-0.480D-02-0.109D-01 0.127D-01 0.183D-01
 Coeff:     -0.190D+00-0.188D+00 0.210D+00 0.115D+01
 Gap=     0.163 Goal=   None    Shift=    0.000
 RMSDP=5.33D-06 MaxDP=4.52D-04 DE=-8.70D-06 OVMax= 7.69D-04

 Cycle  11  Pass 1  IDiag  1:
 RMSU=  1.68D-06    CP:  9.25D-01  7.55D-01  1.01D+00  1.33D+00  1.35D+00
                    CP:  1.58D+00  2.61D+00  2.26D+00  1.85D+00  1.06D+00
 CoulSu:  requested number of processors reduced to:  21 ShMem   1 Linda.
 E= -752.788585804248     Delta-E=       -0.000003172266 Rises=F Damp=F
 DIIS: error= 4.70D-04 at cycle  11 NSaved=  11.
 NSaved=11 IEnMin=11 EnMin= -752.788585804248     IErMin=11 ErrMin= 4.70D-04
 ErrMax= 4.70D-04  0.00D+00 EMaxC= 1.00D-01 BMatC= 1.81D-05 BMatP= 2.20D-05
 IDIUse=3 WtCom= 9.95D-01 WtEn= 4.70D-03
 Coeff-Com: -0.249D-02 0.316D-02-0.385D-02-0.585D-02 0.503D-02-0.128D+00
 Coeff-Com: -0.438D-01 0.704D+00-0.323D+00-0.518D+01 0.598D+01
 Coeff-En:   0.000D+00 0.000D+00 0.000D+00 0.000D+00 0.000D+00 0.000D+00
 Coeff-En:   0.000D+00 0.000D+00 0.000D+00 0.000D+00 0.100D+01
 Coeff:     -0.248D-02 0.314D-02-0.383D-02-0.583D-02 0.500D-02-0.128D+00
 Coeff:     -0.436D-01 0.701D+00-0.321D+00-0.516D+01 0.595D+01
 Gap=     0.163 Goal=   None    Shift=    0.000
 DSYEVD-2 returned Info=       26219 IAlg= 4 N=   227 NDim=   227 NE2=      460750 trying  DSYEV.
 RMSDP=8.00D-06 MaxDP=5.58D-04 DE=-3.17D-06 OVMax= 5.17D-04

 Cycle  12  Pass 1  IDiag  1:
 RMSU=  2.44D-06    CP:  9.25D-01  7.56D-01  1.01D+00  1.33D+00  1.36D+00
                    CP:  1.58D+00  2.64D+00  2.21D+00  1.92D+00  7.48D-01
                    CP:  3.00D+00
 CoulSu:  requested number of processors reduced to:  21 ShMem   1 Linda.
 E= -752.788595043363     Delta-E=       -0.000009239115 Rises=F Damp=F
 DIIS: error= 3.11D-04 at cycle  12 NSaved=  12.
 NSaved=12 IEnMin=12 EnMin= -752.788595043363     IErMin=12 ErrMin= 3.11D-04
 ErrMax= 3.11D-04  0.00D+00 EMaxC= 1.00D-01 BMatC= 7.93D-06 BMatP= 1.81D-05
 IDIUse=3 WtCom= 9.97D-01 WtEn= 3.11D-03
 Coeff-Com: -0.905D-04 0.251D-03-0.117D-02 0.408D-03 0.229D-01 0.699D-03
 Coeff-Com: -0.190D+00 0.201D+00 0.910D+00-0.197D+01-0.945D+00 0.297D+01
 Coeff-En:   0.000D+00 0.000D+00 0.000D+00 0.000D+00 0.000D+00 0.000D+00
 Coeff-En:   0.000D+00 0.000D+00 0.000D+00 0.000D+00 0.000D+00 0.100D+01
 Coeff:     -0.902D-04 0.250D-03-0.117D-02 0.407D-03 0.229D-01 0.697D-03
 Coeff:     -0.189D+00 0.201D+00 0.907D+00-0.196D+01-0.942D+00 0.296D+01
 Gap=     0.162 Goal=   None    Shift=    0.000
 RMSDP=1.51D-05 MaxDP=1.31D-03 DE=-9.24D-06 OVMax= 1.22D-03

 Cycle  13  Pass 1  IDiag  1:
 RMSU=  4.09D-06    CP:  9.24D-01  7.58D-01  1.01D+00  1.33D+00  1.37D+00
                    CP:  1.53D+00  2.54D+00  2.00D+00  1.87D+00  4.09D-01
                    CP:  3.00D+00  3.00D+00
 CoulSu:  requested number of processors reduced to:  21 ShMem   1 Linda.
 E= -752.788602962267     Delta-E=       -0.000007918904 Rises=F Damp=F
 DIIS: error= 3.16D-05 at cycle  13 NSaved=  13.
 NSaved=13 IEnMin=13 EnMin= -752.788602962267     IErMin=13 ErrMin= 3.16D-05
 ErrMax= 3.16D-05  0.00D+00 EMaxC= 1.00D-01 BMatC= 2.87D-08 BMatP= 7.93D-06
 IDIUse=1 WtCom= 1.00D+00 WtEn= 0.00D+00
 Coeff-Com: -0.438D-04 0.259D-04-0.666D-04-0.182D-03-0.141D-02 0.128D-01
 Coeff-Com: -0.126D-01-0.808D-01-0.543D-01 0.109D+01-0.526D+00-0.751D+00
 Coeff-Com:  0.132D+01
 Coeff:     -0.438D-04 0.259D-04-0.666D-04-0.182D-03-0.141D-02 0.128D-01
 Coeff:     -0.126D-01-0.808D-01-0.543D-01 0.109D+01-0.526D+00-0.751D+00
 Coeff:      0.132D+01
 Gap=     0.162 Goal=   None    Shift=    0.000
 RMSDP=5.44D-06 MaxDP=3.40D-04 DE=-7.92D-06 OVMax= 5.70D-04

 Cycle  14  Pass 1  IDiag  1:
 RMSU=  1.04D-06    CP:  9.24D-01  7.58D-01  1.01D+00  1.33D+00  1.38D+00
                    CP:  1.52D+00  2.48D+00  1.99D+00  1.82D+00  5.38D-01
                    CP:  1.08D+00  3.00D+00  1.38D+00
 CoulSu:  requested number of processors reduced to:  21 ShMem   1 Linda.
 E= -752.788603103184     Delta-E=       -0.000000140917 Rises=F Damp=F
 DIIS: error= 8.34D-06 at cycle  14 NSaved=  14.
 NSaved=14 IEnMin=14 EnMin= -752.788603103184     IErMin=14 ErrMin= 8.34D-06
 ErrMax= 8.34D-06  0.00D+00 EMaxC= 1.00D-01 BMatC= 1.59D-09 BMatP= 2.87D-08
 IDIUse=1 WtCom= 1.00D+00 WtEn= 0.00D+00
 Coeff-Com: -0.143D-04 0.245D-04 0.736D-04-0.247D-03-0.133D-03-0.158D-02
 Coeff-Com:  0.356D-02 0.235D-01-0.371D-01-0.258D+00 0.276D+00 0.260D-01
 Coeff-Com: -0.330D+00 0.130D+01
 Coeff:     -0.143D-04 0.245D-04 0.736D-04-0.247D-03-0.133D-03-0.158D-02
 Coeff:      0.356D-02 0.235D-01-0.371D-01-0.258D+00 0.276D+00 0.260D-01
 Coeff:     -0.330D+00 0.130D+01
 Gap=     0.162 Goal=   None    Shift=    0.000
 RMSDP=1.19D-06 MaxDP=7.08D-05 DE=-1.41D-07 OVMax= 1.05D-04

 Cycle  15  Pass 1  IDiag  1:
 RMSU=  4.20D-07    CP:  9.24D-01  7.58D-01  1.01D+00  1.33D+00  1.38D+00
                    CP:  1.52D+00  2.48D+00  2.00D+00  1.83D+00  5.95D-01
                    CP:  7.11D-01  3.00D+00  1.45D+00  1.44D+00
 CoulSu:  requested number of processors reduced to:  21 ShMem   1 Linda.
 E= -752.788603108824     Delta-E=       -0.000000005640 Rises=F Damp=F
 DIIS: error= 3.73D-06 at cycle  15 NSaved=  15.
 NSaved=15 IEnMin=15 EnMin= -752.788603108824     IErMin=15 ErrMin= 3.73D-06
 ErrMax= 3.73D-06  0.00D+00 EMaxC= 1.00D-01 BMatC= 8.19D-10 BMatP= 1.59D-09
 IDIUse=1 WtCom= 1.00D+00 WtEn= 0.00D+00
 Coeff-Com:  0.133D-05-0.199D-05-0.237D-04 0.468D-04 0.166D-03-0.107D-03
 Coeff-Com: -0.159D-02 0.101D-02 0.156D-01-0.670D-02-0.511D-01 0.503D-01
 Coeff-Com: -0.454D-02-0.396D+00 0.139D+01
 Coeff:      0.133D-05-0.199D-05-0.237D-04 0.468D-04 0.166D-03-0.107D-03
 Coeff:     -0.159D-02 0.101D-02 0.156D-01-0.670D-02-0.511D-01 0.503D-01
 Coeff:     -0.454D-02-0.396D+00 0.139D+01
 Gap=     0.162 Goal=   None    Shift=    0.000
 RMSDP=3.67D-07 MaxDP=3.81D-05 DE=-5.64D-09 OVMax= 4.87D-05

 Cycle  16  Pass 1  IDiag  1:
 RMSU=  9.83D-08    CP:  9.24D-01  7.58D-01  1.01D+00  1.33D+00  1.38D+00
                    CP:  1.52D+00  2.47D+00  1.99D+00  1.83D+00  5.84D-01
                    CP:  6.87D-01  3.00D+00  1.47D+00  1.60D+00  1.31D+00
 CoulSu:  requested number of processors reduced to:  21 ShMem   1 Linda.
 E= -752.788603110101     Delta-E=       -0.000000001277 Rises=F Damp=F
 DIIS: error= 2.38D-07 at cycle  16 NSaved=  16.
 NSaved=16 IEnMin=16 EnMin= -752.788603110101     IErMin=16 ErrMin= 2.38D-07
 ErrMax= 2.38D-07  0.00D+00 EMaxC= 1.00D-01 BMatC= 2.91D-12 BMatP= 8.19D-10
 IDIUse=1 WtCom= 1.00D+00 WtEn= 0.00D+00
 Coeff-Com:  0.393D-06-0.586D-06 0.124D-05-0.583D-05-0.102D-05 0.694D-04
 Coeff-Com: -0.153D-04-0.193D-03-0.110D-02 0.528D-02 0.293D-03-0.514D-02
 Coeff-Com:  0.744D-02 0.845D-02-0.156D+00 0.114D+01
 Coeff:      0.393D-06-0.586D-06 0.124D-05-0.583D-05-0.102D-05 0.694D-04
 Coeff:     -0.153D-04-0.193D-03-0.110D-02 0.528D-02 0.293D-03-0.514D-02
 Coeff:      0.744D-02 0.845D-02-0.156D+00 0.114D+01
 Gap=     0.162 Goal=   None    Shift=    0.000
 RMSDP=2.87D-08 MaxDP=2.29D-06 DE=-1.28D-09 OVMax= 3.13D-06

 Cycle  17  Pass 1  IDiag  1:
 RMSU=  7.69D-09    CP:  9.24D-01  7.58D-01  1.01D+00  1.33D+00  1.38D+00
                    CP:  1.52D+00  2.47D+00  1.99D+00  1.83D+00  5.84D-01
                    CP:  6.87D-01  3.00D+00  1.47D+00  1.61D+00  1.35D+00
                    CP:  1.15D+00
 CoulSu:  requested number of processors reduced to:  21 ShMem   1 Linda.
 E= -752.788603110096     Delta-E=        0.000000000005 Rises=F Damp=F
 DIIS: error= 7.27D-08 at cycle  17 NSaved=  17.
 NSaved=17 IEnMin=16 EnMin= -752.788603110101     IErMin=17 ErrMin= 7.27D-08
 ErrMax= 7.27D-08  0.00D+00 EMaxC= 1.00D-01 BMatC= 3.92D-13 BMatP= 2.91D-12
 IDIUse=1 WtCom= 1.00D+00 WtEn= 0.00D+00
 Coeff-Com:  0.380D-07-0.247D-07 0.131D-06 0.204D-06-0.251D-05-0.223D-05
 Coeff-Com:  0.151D-04 0.192D-04 0.255D-04-0.368D-03 0.252D-03 0.160D-03
 Coeff-Com: -0.688D-03 0.280D-02 0.951D-02-0.168D+00 0.116D+01
 Coeff:      0.380D-07-0.247D-07 0.131D-06 0.204D-06-0.251D-05-0.223D-05
 Coeff:      0.151D-04 0.192D-04 0.255D-04-0.368D-03 0.252D-03 0.160D-03
 Coeff:     -0.688D-03 0.280D-02 0.951D-02-0.168D+00 0.116D+01
 Gap=     0.162 Goal=   None    Shift=    0.000
 RMSDP=3.60D-09 MaxDP=2.47D-07 DE= 4.89D-12 OVMax= 3.00D-07

 SCF Done:  E(RM062X) =  -752.788603110     A.U. after   17 cycles
            NFock= 17  Conv=0.36D-08     -V/T= 2.0006
 KE= 7.523527579628D+02 PE=-1.879866845547D+03 EE= 3.282299579794D+02
 Leave Link  502 at Fri Apr 16 23:03:46 2021, MaxMem=   104857600 cpu:            1757.5 elap:              56.7
 (Enter /s/ls4/users/knvvv/bin/g16sse/l601.exe)
 Copying SCF densities to generalized density rwf, IOpCl= 0 IROHF=0.

 **********************************************************************

            Population analysis using the SCF density.

 **********************************************************************

 Orbital symmetries:
       Occupied  (SG) (SG) (SG) (PI) (PI) (SG) (SG) (SG) (PI) (PI)
                 (SG) (PI) (PI) (SG)
       Virtual   (SG) (PI) (PI) (SG) (SG) (DLTA) (DLTA) (PI) (PI)
                 (SG) (PI) (PI) (SG) (DLTA) (DLTA) (SG) (PI) (PI)
                 (PI) (PI) (SG) (SG) (SG) (PHI) (PHI) (DLTA) (DLTA)
                 (PI) (PI) (DLTA) (DLTA) (SG) (PI) (PI) (PI) (PI)
                 (SG) (SG) (DLTA) (DLTA) (?A) (?A) (PI) (PI) (PHI)
                 (PHI) (SG) (DLTA) (DLTA) (PI) (PI) (SG) (SG) (PI)
                 (PI) (SG) (DLTA) (DLTA) (SG) (DLTA) (DLTA) (PI)
                 (PI) (PI) (PI) (PHI) (PHI) (PHI) (PHI) (SG) (PI)
                 (PI) (SG) (DLTA) (DLTA) (PI) (PI) (SG) (DLTA)
                 (DLTA) (SG) (PI) (PI) (SG) (PI) (PI) (SG) (PI)
                 (PI) (PHI) (PHI) (?A) (?A) (SG) (DLTA) (DLTA)
                 (DLTA) (DLTA) (SG) (PI) (PI) (PHI) (PHI) (DLTA)
                 (DLTA) (PHI) (PHI) (SG) (PI) (PI) (DLTA) (DLTA)
                 (SG) (DLTA) (DLTA) (PI) (PI) (PI) (PI) (SG) (PI)
                 (PI) (SG) (SG) (SG) (?A) (?A) (PHI) (PHI) (DLTA)
                 (DLTA) (PI) (PI) (SG) (PI) (PI) (PHI) (PHI) (DLTA)
                 (DLTA) (PI) (PI) (SG) (SG) (DLTA) (DLTA) (PI)
                 (PI) (?A) (?A) (PHI) (PHI) (DLTA) (DLTA) (SG)
                 (PI) (PI) (SG) (PHI) (PHI) (DLTA) (DLTA) (PI)
                 (PI) (SG) (DLTA) (DLTA) (PI) (PI) (PI) (PI) (SG)
                 (SG) (SG) (SG) (DLTA) (DLTA) (PI) (PI) (SG) (PI)
                 (PI) (SG) (PI) (PI) (SG) (DLTA) (DLTA) (PI) (PI)
                 (SG) (SG) (PHI) (PHI) (DLTA) (DLTA) (PI) (PI)
                 (SG) (PI) (PI) (SG) (DLTA) (DLTA) (PI) (PI) (SG)
                 (SG) (SG) (PI) (PI) (SG) (SG)
 The electronic state is 1-SG.
 Alpha  occ. eigenvalues -- -146.61040 -19.45393 -15.72922 -12.84041 -12.84041
 Alpha  occ. eigenvalues --  -12.83966  -1.84474  -1.10896  -1.08658  -1.08658
 Alpha  occ. eigenvalues --   -0.80190  -0.23138  -0.23138  -0.22399
 Alpha virt. eigenvalues --   -0.06200  -0.01372  -0.01372   0.00611   0.03064
 Alpha virt. eigenvalues --    0.04011   0.04011   0.06012   0.06012   0.06646
 Alpha virt. eigenvalues --    0.08962   0.08962   0.09802   0.12678   0.12681
 Alpha virt. eigenvalues --    0.16813   0.17570   0.17570   0.20456   0.20456
 Alpha virt. eigenvalues --    0.21357   0.26674   0.32901   0.34880   0.34880
 Alpha virt. eigenvalues --    0.35599   0.35600   0.38810   0.38810   0.40968
 Alpha virt. eigenvalues --    0.40968   0.41447   0.42378   0.42378   0.46215
 Alpha virt. eigenvalues --    0.46215   0.48131   0.56916   0.59527   0.59528
 Alpha virt. eigenvalues --    0.62997   0.63001   0.63176   0.63176   0.64969
 Alpha virt. eigenvalues --    0.64969   0.73327   0.77452   0.77453   0.80175
 Alpha virt. eigenvalues --    0.80175   0.82210   0.94428   1.08392   1.08392
 Alpha virt. eigenvalues --    1.26106   1.29852   1.29859   1.31223   1.35011
 Alpha virt. eigenvalues --    1.35013   1.37137   1.37137   1.38208   1.38208
 Alpha virt. eigenvalues --    1.41962   1.41962   1.48313   1.48313   1.52501
 Alpha virt. eigenvalues --    1.55158   1.55158   1.59528   1.62449   1.62450
 Alpha virt. eigenvalues --    1.71165   1.71165   1.77788   1.82689   1.82693
 Alpha virt. eigenvalues --    2.07890   2.28536   2.28536   2.32156   2.89968
 Alpha virt. eigenvalues --    2.89968   3.30633   3.51374   3.51374   3.52184
 Alpha virt. eigenvalues --    3.52184   3.52881   3.52881   3.55720   3.60923
 Alpha virt. eigenvalues --    3.60925   3.80382   3.80388   3.91796   3.96913
 Alpha virt. eigenvalues --    3.96913   3.99164   3.99164   4.07196   4.07202
 Alpha virt. eigenvalues --    4.08654   4.08654   4.11465   4.19502   4.19502
 Alpha virt. eigenvalues --    4.22950   4.22954   4.26643   4.27769   4.27771
 Alpha virt. eigenvalues --    4.44693   4.44693   4.50457   4.50457   4.53099
 Alpha virt. eigenvalues --    4.63149   4.63149   4.68036   5.35640   6.04063
 Alpha virt. eigenvalues --    6.31411   6.31428   6.32912   6.32912   6.44612
 Alpha virt. eigenvalues --    6.44618   6.87625   6.87625   6.94816   9.23501
 Alpha virt. eigenvalues --    9.23501   9.27762   9.27762   9.33205   9.33206
 Alpha virt. eigenvalues --    9.42170   9.42170   9.49031   9.61241   9.61250
 Alpha virt. eigenvalues --    9.61262   9.78660   9.78660  10.21161  10.21166
 Alpha virt. eigenvalues --   10.21236  10.21236  10.30159  10.30160  10.42169
 Alpha virt. eigenvalues --   10.55884  10.55884  10.58378  11.38236  11.38236
 Alpha virt. eigenvalues --   11.46675  11.46677  11.50811  11.50811  11.79461
 Alpha virt. eigenvalues --   12.18016  12.18017  12.39126  12.39126  12.73140
 Alpha virt. eigenvalues --   12.73140  12.75551  13.52389  16.57468  17.11381
 Alpha virt. eigenvalues --   25.84738  25.84738  26.01546  26.01546  26.42065
 Alpha virt. eigenvalues --   32.46819  32.46819  32.96702  42.43080  42.43080
 Alpha virt. eigenvalues --   45.60920  46.20735  46.20735  46.32130  46.32130
 Alpha virt. eigenvalues --   46.53095  62.35380 102.00255 102.00255 102.00965
 Alpha virt. eigenvalues --  102.00965 102.01019 102.01019 102.03613 115.24949
 Alpha virt. eigenvalues --  115.24949 115.64696 196.34116 196.34116 196.40529
 Alpha virt. eigenvalues --  196.40529 196.52109 212.93112 353.00854 390.02422
 Alpha virt. eigenvalues --  390.02422 390.34009 882.54067
          Condensed to atoms (all electrons):
               1          2
     1  Ca  18.735807  -0.122506
     2  O   -0.122506   9.509205
 Mulliken charges:
               1
     1  Ca   1.386699
     2  O   -1.386699
 Sum of Mulliken charges =   0.00000
 Mulliken charges with hydrogens summed into heavy atoms:
               1
     1  Ca   1.386699
     2  O   -1.386699
 Electronic spatial extent (au):  <R**2>=            114.1520
 Charge=             -0.0000 electrons
 Dipole moment (field-independent basis, Debye):
    X=              0.0000    Y=              0.0000    Z=              9.8168  Tot=              9.8168
 Quadrupole moment (field-independent basis, Debye-Ang):
   XX=            -17.9330   YY=            -17.9330   ZZ=            -26.6574
   XY=             -0.0000   XZ=              0.0000   YZ=              0.0000
 Traceless Quadrupole moment (field-independent basis, Debye-Ang):
   XX=              2.9081   YY=              2.9081   ZZ=             -5.8163
   XY=             -0.0000   XZ=              0.0000   YZ=              0.0000
 Octapole moment (field-independent basis, Debye-Ang**2):
  XXX=              0.0000  YYY=              0.0000  ZZZ=             23.8304  XYY=              0.0000
  XXY=              0.0000  XXZ=              7.0074  XZZ=              0.0000  YZZ=              0.0000
  YYZ=              7.0074  XYZ=             -0.0000
 Hexadecapole moment (field-independent basis, Debye-Ang**3):
 XXXX=            -21.2021 YYYY=            -21.2021 ZZZZ=           -139.2269 XXXY=             -0.0000
 XXXZ=              0.0000 YYYX=             -0.0000 YYYZ=              0.0000 ZZZX=              0.0000
 ZZZY=             -0.0000 XXYY=             -7.0673 XXZZ=            -24.3628 YYZZ=            -24.3628
 XXYZ=              0.0000 YYXZ=              0.0000 ZZXY=             -0.0000
 N-N= 4.649552649489D+01 E-N=-1.879866849218D+03  KE= 7.523527579628D+02
 PrsmSu:  requested number of processors reduced to:  21 ShMem   1 Linda.
 No NMR shielding tensors so no spin-rotation constants.
 Leave Link  601 at Fri Apr 16 23:03:51 2021, MaxMem=   104857600 cpu:             226.7 elap:               5.0
 (Enter /s/ls4/users/knvvv/bin/g16sse/l801.exe)
 DoSCS=F DFT=T ScalE2(SS,OS)=  1.000000  1.000000
 Range of M.O.s used for correlation:     1   227
 NBasis=   227 NAE=    14 NBE=    14 NFC=     0 NFV=     0
 NROrb=    227 NOA=    14 NOB=    14 NVA=   213 NVB=   213

 **** Warning!!: The largest alpha MO coefficient is  0.26028280D+03

 Leave Link  801 at Fri Apr 16 23:03:51 2021, MaxMem=   104857600 cpu:               3.7 elap:               0.1
 (Enter /s/ls4/users/knvvv/bin/g16sse/l914.exe)
 RHF ground state
 Doing stability rather than CIS.
 Two-electron integrals replicated using symmetry.
 MDV=   104857600 DFT=T DoStab=T Mixed=T DoRPA=F DoScal=F NonHer=F
 Making orbital integer symmetry assigments:
 Orbital symmetries:
       Occupied  (SG) (SG) (SG) (PI) (PI) (SG) (SG) (SG) (PI) (PI)
                 (SG) (PI) (PI) (SG)
       Virtual   (SG) (PI) (PI) (SG) (SG) (DLTA) (DLTA) (PI) (PI)
                 (SG) (PI) (PI) (SG) (DLTA) (DLTA) (SG) (PI) (PI)
                 (PI) (PI) (SG) (SG) (SG) (PHI) (PHI) (DLTA) (DLTA)
                 (PI) (PI) (DLTA) (DLTA) (SG) (PI) (PI) (PI) (PI)
                 (SG) (SG) (DLTA) (DLTA) (?A) (?A) (PI) (PI) (PHI)
                 (PHI) (SG) (DLTA) (DLTA) (PI) (PI) (SG) (SG) (PI)
                 (PI) (SG) (DLTA) (DLTA) (SG) (DLTA) (DLTA) (PI)
                 (PI) (PI) (PI) (PHI) (PHI) (PHI) (PHI) (SG) (PI)
                 (PI) (SG) (DLTA) (DLTA) (PI) (PI) (SG) (DLTA)
                 (DLTA) (SG) (PI) (PI) (SG) (PI) (PI) (SG) (PI)
                 (PI) (PHI) (PHI) (?A) (?A) (SG) (DLTA) (DLTA)
                 (DLTA) (DLTA) (SG) (PI) (PI) (PHI) (PHI) (DLTA)
                 (DLTA) (PHI) (PHI) (SG) (PI) (PI) (DLTA) (DLTA)
                 (SG) (DLTA) (DLTA) (PI) (PI) (PI) (PI) (SG) (PI)
                 (PI) (SG) (SG) (SG) (?A) (?A) (PHI) (PHI) (DLTA)
                 (DLTA) (PI) (PI) (SG) (PI) (PI) (PHI) (PHI) (DLTA)
                 (DLTA) (PI) (PI) (SG) (SG) (DLTA) (DLTA) (PI)
                 (PI) (?A) (?A) (PHI) (PHI) (DLTA) (DLTA) (SG)
                 (PI) (PI) (SG) (PHI) (PHI) (DLTA) (DLTA) (PI)
                 (PI) (SG) (DLTA) (DLTA) (PI) (PI) (PI) (PI) (SG)
                 (SG) (SG) (SG) (DLTA) (DLTA) (PI) (PI) (SG) (PI)
                 (PI) (SG) (PI) (PI) (SG) (DLTA) (DLTA) (PI) (PI)
                 (SG) (SG) (PHI) (PHI) (DLTA) (DLTA) (PI) (PI)
                 (SG) (PI) (PI) (SG) (DLTA) (DLTA) (PI) (PI) (SG)
                 (SG) (SG) (PI) (PI) (SG) (SG)
    24 initial guesses have been made.
 Convergence on wavefunction:    0.001000000000000
 Davidson Disk Diagonalization:  ConvIn= 1.00D-03 SkipCon=T Conv= 1.00D-03.
 Max sub-space:  2000 roots to seek:    24 dimension of matrix:         5964
 Iteration     1 Dimension    24 NMult     0 NNew     24
 Estimated number of processors is:   19
 CISAX will form     1 AO SS matrices at one time.
 NMat=     1 NSing=     1 JSym2X= 2.
 FoFJK:  IHMeth= 1 ICntrl=       0 DoSepK=F KAlg= 0 I1Cent=           0 FoldK=F
 IRaf= 990000000 NMat=       1 IRICut=       1 DoRegI=T DoRafI=F ISym2E= 2 IDoP0=0 IntGTp=1.
 FoFCou: FMM=F IPFlag=           0 FMFlag=      100000 FMFlg1=           0
         NFxFlg=           0 DoJE=F BraDBF=F KetDBF=F FulRan=T
         wScrn=  0.000000 ICntrl=         0 IOpCl=  0 I1Cent=           0 NGrid=           0
         NMat0=    1 NMatS0=      1 NMatT0=    0 NMatD0=    1 NMtDS0=    0 NMtDT0=    0
 Integrals replicated using symmetry in FoFCou.
 CoulSu:  requested number of processors reduced to:  21 ShMem   1 Linda.
 NMat=     1 NSing=     1 JSym2X= 2.
 CoulSu:  requested number of processors reduced to:  21 ShMem   1 Linda.
 NMat=     1 NSing=     1 JSym2X= 2.
 CoulSu:  requested number of processors reduced to:  21 ShMem   1 Linda.
 NMat=     1 NSing=     1 JSym2X= 2.
 CoulSu:  requested number of processors reduced to:  21 ShMem   1 Linda.
 NMat=     1 NSing=     1 JSym2X= 2.
 CoulSu:  requested number of processors reduced to:  21 ShMem   1 Linda.
 NMat=     1 NSing=     1 JSym2X= 2.
 CoulSu:  requested number of processors reduced to:  21 ShMem   1 Linda.
 NMat=     1 NSing=     1 JSym2X= 2.
 CoulSu:  requested number of processors reduced to:  21 ShMem   1 Linda.
 NMat=     1 NSing=     1 JSym2X= 2.
 CoulSu:  requested number of processors reduced to:  21 ShMem   1 Linda.
 NMat=     1 NSing=     1 JSym2X= 2.
 CoulSu:  requested number of processors reduced to:  21 ShMem   1 Linda.
 NMat=     1 NSing=     1 JSym2X= 2.
 CoulSu:  requested number of processors reduced to:  21 ShMem   1 Linda.
 NMat=     1 NSing=     1 JSym2X= 2.
 CoulSu:  requested number of processors reduced to:  21 ShMem   1 Linda.
 NMat=     1 NSing=     1 JSym2X= 2.
 CoulSu:  requested number of processors reduced to:  21 ShMem   1 Linda.
 NMat=     1 NSing=     0 JSym2X= 2.
 CoulSu:  requested number of processors reduced to:  21 ShMem   1 Linda.
 NMat=     1 NSing=     0 JSym2X= 2.
 CoulSu:  requested number of processors reduced to:  21 ShMem   1 Linda.
 NMat=     1 NSing=     0 JSym2X= 2.
 CoulSu:  requested number of processors reduced to:  21 ShMem   1 Linda.
 NMat=     1 NSing=     0 JSym2X= 2.
 CoulSu:  requested number of processors reduced to:  21 ShMem   1 Linda.
 NMat=     1 NSing=     0 JSym2X= 2.
 CoulSu:  requested number of processors reduced to:  21 ShMem   1 Linda.
 NMat=     1 NSing=     0 JSym2X= 2.
 CoulSu:  requested number of processors reduced to:  21 ShMem   1 Linda.
 NMat=     1 NSing=     0 JSym2X= 2.
 CoulSu:  requested number of processors reduced to:  21 ShMem   1 Linda.
 NMat=     1 NSing=     0 JSym2X= 2.
 CoulSu:  requested number of processors reduced to:  21 ShMem   1 Linda.
 NMat=     1 NSing=     0 JSym2X= 2.
 CoulSu:  requested number of processors reduced to:  21 ShMem   1 Linda.
 NMat=     1 NSing=     0 JSym2X= 2.
 CoulSu:  requested number of processors reduced to:  21 ShMem   1 Linda.
 NMat=     1 NSing=     0 JSym2X= 2.
 CoulSu:  requested number of processors reduced to:  21 ShMem   1 Linda.
 NMat=     1 NSing=     0 JSym2X= 2.
 CoulSu:  requested number of processors reduced to:  21 ShMem   1 Linda.
 New state      1 was old state      3
 Excitation Energies [eV] at current iteration:
 Root      1 :     2.339219071285363
 Root      2 :     2.339219071287218
 Root      3 :     2.413149729122282
 Root      4 :     2.415710671290082
 Root      5 :     2.415710671293423
 Root      6 :     2.866272911230098
 Root      7 :     3.987824547595504
 Root      8 :     3.987824547661539
 Root      9 :     3.993968701279694
 Root     10 :     3.993968701317633
 Root     11 :     4.073914311538208
 Root     12 :     4.074070451251909
 Root     13 :     4.188463927654988
 Root     14 :     4.188480269199537
 Root     15 :     4.230216225058460
 Root     16 :     4.262326887190022
 Root     17 :     4.335457823270369
 Root     18 :     4.335457823306785
 Root     19 :     4.557351154457073
 Root     20 :     4.599183760162426
 Root     21 :     4.599183760175864
 Root     22 :     4.607976076228422
 Root     23 :     4.607976076231171
 Root     24 :     5.055764060516617
 Iteration     2 Dimension    48 NMult    24 NNew     24
 Estimated number of processors is:   19
 CISAX will form     1 AO SS matrices at one time.
 NMat=     1 NSing=     1 JSym2X= 2.
 CoulSu:  requested number of processors reduced to:  21 ShMem   1 Linda.
 NMat=     1 NSing=     1 JSym2X= 2.
 CoulSu:  requested number of processors reduced to:  21 ShMem   1 Linda.
 NMat=     1 NSing=     1 JSym2X= 2.
 CoulSu:  requested number of processors reduced to:  21 ShMem   1 Linda.
 NMat=     1 NSing=     1 JSym2X= 2.
 CoulSu:  requested number of processors reduced to:  21 ShMem   1 Linda.
 NMat=     1 NSing=     1 JSym2X= 2.
 CoulSu:  requested number of processors reduced to:  21 ShMem   1 Linda.
 NMat=     1 NSing=     1 JSym2X= 2.
 CoulSu:  requested number of processors reduced to:  21 ShMem   1 Linda.
 NMat=     1 NSing=     1 JSym2X= 2.
 CoulSu:  requested number of processors reduced to:  21 ShMem   1 Linda.
 NMat=     1 NSing=     1 JSym2X= 2.
 CoulSu:  requested number of processors reduced to:  21 ShMem   1 Linda.
 NMat=     1 NSing=     1 JSym2X= 2.
 CoulSu:  requested number of processors reduced to:  21 ShMem   1 Linda.
 NMat=     1 NSing=     1 JSym2X= 2.
 CoulSu:  requested number of processors reduced to:  21 ShMem   1 Linda.
 NMat=     1 NSing=     1 JSym2X= 2.
 CoulSu:  requested number of processors reduced to:  21 ShMem   1 Linda.
 NMat=     1 NSing=     1 JSym2X= 2.
 CoulSu:  requested number of processors reduced to:  21 ShMem   1 Linda.
 NMat=     1 NSing=     0 JSym2X= 2.
 CoulSu:  requested number of processors reduced to:  21 ShMem   1 Linda.
 NMat=     1 NSing=     0 JSym2X= 2.
 CoulSu:  requested number of processors reduced to:  21 ShMem   1 Linda.
 NMat=     1 NSing=     0 JSym2X= 2.
 CoulSu:  requested number of processors reduced to:  21 ShMem   1 Linda.
 NMat=     1 NSing=     0 JSym2X= 2.
 CoulSu:  requested number of processors reduced to:  21 ShMem   1 Linda.
 NMat=     1 NSing=     0 JSym2X= 2.
 CoulSu:  requested number of processors reduced to:  21 ShMem   1 Linda.
 NMat=     1 NSing=     0 JSym2X= 2.
 CoulSu:  requested number of processors reduced to:  21 ShMem   1 Linda.
 NMat=     1 NSing=     0 JSym2X= 2.
 CoulSu:  requested number of processors reduced to:  21 ShMem   1 Linda.
 NMat=     1 NSing=     0 JSym2X= 2.
 CoulSu:  requested number of processors reduced to:  21 ShMem   1 Linda.
 NMat=     1 NSing=     0 JSym2X= 2.
 CoulSu:  requested number of processors reduced to:  21 ShMem   1 Linda.
 NMat=     1 NSing=     0 JSym2X= 2.
 CoulSu:  requested number of processors reduced to:  21 ShMem   1 Linda.
 NMat=     1 NSing=     0 JSym2X= 2.
 CoulSu:  requested number of processors reduced to:  21 ShMem   1 Linda.
 NMat=     1 NSing=     0 JSym2X= 2.
 CoulSu:  requested number of processors reduced to:  21 ShMem   1 Linda.
 New state      1 was old state      3
 Root      1 not converged, maximum delta is    0.122735505531626
 Excitation Energies [eV] at current iteration:
 Root      1 :     1.875782535575885   Change is   -0.537367193546397
 Root      2 :     2.154210827151323   Change is   -0.261499844138759
 Root      3 :     2.154210827151922   Change is   -0.261499844141502
 Root      4 :     2.197140865050921   Change is   -0.142078206234443
 Root      5 :     2.197140865051229   Change is   -0.142078206235989
 Root      6 :     2.300356687333506   Change is   -0.565916223896593
 Root      7 :     3.567032224488783   Change is   -0.663184000569677
 Root      8 :     3.776923502875670   Change is   -0.217045198404024
 Root      9 :     3.776923502891193   Change is   -0.217045198426441
 Root     10 :     3.855073934738153   Change is   -0.132750612923385
 Root     11 :     3.855073934769772   Change is   -0.132750612825732
 Root     12 :     3.913701626910767   Change is   -0.160212684627442
 Root     13 :     3.913957242352472   Change is   -0.160113208899438
 Root     14 :     3.957547006625962   Change is   -0.641636753536464
 Root     15 :     3.957547006626645   Change is   -0.641636753549219
 Root     16 :     4.066342187348901   Change is   -0.122121740306087
 Root     17 :     4.066348012421551   Change is   -0.122132256777985
 Root     18 :     4.114867839309900   Change is   -0.147459047880122
 Root     19 :     4.150619086802918   Change is   -0.184838736467451
 Root     20 :     4.150619086829280   Change is   -0.184838736477505
 Root     21 :     4.272120987463630   Change is   -0.335855088764791
 Root     22 :     4.272120987465745   Change is   -0.335855088765425
 Root     23 :     4.341860628808968   Change is   -0.713903431707649
 Root     24 :     4.351585210086037   Change is   -0.205765944371035
 Iteration     3 Dimension    54 NMult    48 NNew      6
 Estimated number of processors is:   19
 CISAX will form     1 AO SS matrices at one time.
 NMat=     1 NSing=     1 JSym2X= 2.
 CoulSu:  requested number of processors reduced to:  21 ShMem   1 Linda.
 NMat=     1 NSing=     1 JSym2X= 2.
 CoulSu:  requested number of processors reduced to:  21 ShMem   1 Linda.
 NMat=     1 NSing=     1 JSym2X= 2.
 CoulSu:  requested number of processors reduced to:  21 ShMem   1 Linda.
 NMat=     1 NSing=     0 JSym2X= 2.
 CoulSu:  requested number of processors reduced to:  21 ShMem   1 Linda.
 NMat=     1 NSing=     0 JSym2X= 2.
 CoulSu:  requested number of processors reduced to:  21 ShMem   1 Linda.
 NMat=     1 NSing=     0 JSym2X= 2.
 CoulSu:  requested number of processors reduced to:  21 ShMem   1 Linda.
 Root      1 not converged, maximum delta is    0.057691171204371
 Excitation Energies [eV] at current iteration:
 Root      1 :     1.800359655286768   Change is   -0.075422880289117
 Root      2 :     2.122938134907718   Change is   -0.031272692243605
 Root      3 :     2.122938134907990   Change is   -0.031272692243932
 Root      4 :     2.189041300698054   Change is   -0.008099564352867
 Root      5 :     2.189041300698616   Change is   -0.008099564352613
 Root      6 :     2.192694480783657   Change is   -0.107662206549849
 Iteration     4 Dimension    60 NMult    54 NNew      6
 Estimated number of processors is:   19
 CISAX will form     1 AO SS matrices at one time.
 NMat=     1 NSing=     1 JSym2X= 2.
 CoulSu:  requested number of processors reduced to:  21 ShMem   1 Linda.
 NMat=     1 NSing=     1 JSym2X= 2.
 CoulSu:  requested number of processors reduced to:  21 ShMem   1 Linda.
 NMat=     1 NSing=     1 JSym2X= 2.
 CoulSu:  requested number of processors reduced to:  21 ShMem   1 Linda.
 NMat=     1 NSing=     0 JSym2X= 2.
 CoulSu:  requested number of processors reduced to:  21 ShMem   1 Linda.
 NMat=     1 NSing=     0 JSym2X= 2.
 CoulSu:  requested number of processors reduced to:  21 ShMem   1 Linda.
 NMat=     1 NSing=     0 JSym2X= 2.
 CoulSu:  requested number of processors reduced to:  21 ShMem   1 Linda.
 Root      1 not converged, maximum delta is    0.008783531722529
 Excitation Energies [eV] at current iteration:
 Root      1 :     1.793050225617651   Change is   -0.007309429669116
 Root      2 :     2.119533760762088   Change is   -0.003404374145630
 Root      3 :     2.119533760762299   Change is   -0.003404374145690
 Root      4 :     2.180001426161188   Change is   -0.012693054622469
 Root      5 :     2.187958732284917   Change is   -0.001082568413137
 Root      6 :     2.187958732285448   Change is   -0.001082568413167
 Iteration     5 Dimension    66 NMult    60 NNew      6
 Estimated number of processors is:   19
 CISAX will form     1 AO SS matrices at one time.
 NMat=     1 NSing=     1 JSym2X= 2.
 CoulSu:  requested number of processors reduced to:  21 ShMem   1 Linda.
 NMat=     1 NSing=     1 JSym2X= 2.
 CoulSu:  requested number of processors reduced to:  21 ShMem   1 Linda.
 NMat=     1 NSing=     1 JSym2X= 2.
 CoulSu:  requested number of processors reduced to:  21 ShMem   1 Linda.
 NMat=     1 NSing=     0 JSym2X= 2.
 CoulSu:  requested number of processors reduced to:  21 ShMem   1 Linda.
 NMat=     1 NSing=     0 JSym2X= 2.
 CoulSu:  requested number of processors reduced to:  21 ShMem   1 Linda.
 NMat=     1 NSing=     0 JSym2X= 2.
 CoulSu:  requested number of processors reduced to:  21 ShMem   1 Linda.
 Root      1 not converged, maximum delta is    0.005073970767030
 Excitation Energies [eV] at current iteration:
 Root      1 :     1.791098134638655   Change is   -0.001952090978996
 Root      2 :     2.119362436133642   Change is   -0.000171324628446
 Root      3 :     2.119362436133890   Change is   -0.000171324628409
 Root      4 :     2.178968201710633   Change is   -0.001033224450555
 Root      5 :     2.187854290967724   Change is   -0.000104441317193
 Root      6 :     2.187854290968225   Change is   -0.000104441317223
 Iteration     6 Dimension    72 NMult    66 NNew      6
 Estimated number of processors is:   19
 CISAX will form     1 AO SS matrices at one time.
 NMat=     1 NSing=     1 JSym2X= 2.
 CoulSu:  requested number of processors reduced to:  21 ShMem   1 Linda.
 NMat=     1 NSing=     1 JSym2X= 2.
 CoulSu:  requested number of processors reduced to:  21 ShMem   1 Linda.
 NMat=     1 NSing=     1 JSym2X= 2.
 CoulSu:  requested number of processors reduced to:  21 ShMem   1 Linda.
 NMat=     1 NSing=     0 JSym2X= 2.
 CoulSu:  requested number of processors reduced to:  21 ShMem   1 Linda.
 NMat=     1 NSing=     0 JSym2X= 2.
 CoulSu:  requested number of processors reduced to:  21 ShMem   1 Linda.
 NMat=     1 NSing=     0 JSym2X= 2.
 CoulSu:  requested number of processors reduced to:  21 ShMem   1 Linda.
 DSYEVD-2 returned Info=         145 IAlg= 4 N=    72 NDim=    72 NE2=     1345028 trying  DSYEV.
 Root      1 not converged, maximum delta is    0.001487695996848
 Excitation Energies [eV] at current iteration:
 Root      1 :     1.790954072433436   Change is   -0.000144062205219
 Root      2 :     2.119357274575493   Change is   -0.000005161558149
 Root      3 :     2.119357274575755   Change is   -0.000005161558135
 Root      4 :     2.178850232719034   Change is   -0.000117968991600
 Root      5 :     2.187850564899281   Change is   -0.000003726068443
 Root      6 :     2.187850564899788   Change is   -0.000003726068437
 Iteration     7 Dimension    78 NMult    72 NNew      6
 Estimated number of processors is:   19
 CISAX will form     1 AO SS matrices at one time.
 NMat=     1 NSing=     1 JSym2X= 2.
 CoulSu:  requested number of processors reduced to:  21 ShMem   1 Linda.
 NMat=     1 NSing=     1 JSym2X= 2.
 CoulSu:  requested number of processors reduced to:  21 ShMem   1 Linda.
 NMat=     1 NSing=     1 JSym2X= 2.
 CoulSu:  requested number of processors reduced to:  21 ShMem   1 Linda.
 NMat=     1 NSing=     0 JSym2X= 2.
 CoulSu:  requested number of processors reduced to:  21 ShMem   1 Linda.
 NMat=     1 NSing=     0 JSym2X= 2.
 CoulSu:  requested number of processors reduced to:  21 ShMem   1 Linda.
 NMat=     1 NSing=     0 JSym2X= 2.
 CoulSu:  requested number of processors reduced to:  21 ShMem   1 Linda.
 Root      1 has converged.
 Excitation Energies [eV] at current iteration:
 Root      1 :     1.790947503295448   Change is   -0.000006569137988
 Root      2 :     2.119357130784417   Change is   -0.000000143791076
 Root      3 :     2.119357130784671   Change is   -0.000000143791084
 Root      4 :     2.178842670001931   Change is   -0.000007562717103
 Root      5 :     2.187850396421077   Change is   -0.000000168478204
 Root      6 :     2.187850396421615   Change is   -0.000000168478174
 Convergence achieved on expansion vectors.
 ***********************************************************************
 Stability analysis using <AA,BB:AA,BB> singles matrix:
 ***********************************************************************
 1PDM for each excited state written to RWF  633
 Ground to excited state transition densities written to RWF  633

 Eigenvectors of the stability matrix:
 
 Eigenvector   1:      Triplet-SG   Eigenvalue= 0.0658161  <S**2>=2.000
      14 -> 15         0.66109
      14 -> 19         0.13710
      14 -> 36        -0.12815
 The wavefunction is stable under the perturbations considered.
 Leave Link  914 at Fri Apr 16 23:08:24 2021, MaxMem=   104857600 cpu:            8706.7 elap:             272.2
 (Enter /s/ls4/users/knvvv/bin/g16sse/l508.exe)
 The wavefunction is already stable.
 Leave Link  508 at Fri Apr 16 23:08:24 2021, MaxMem=   104857600 cpu:               2.3 elap:               0.1
 (Enter /s/ls4/users/knvvv/bin/g16sse/l601.exe)
 Copying SCF densities to generalized density rwf, IOpCl= 0 IROHF=0.

 **********************************************************************

            Population analysis using the SCF density.

 **********************************************************************

 Orbital symmetries:
       Occupied  (SG) (SG) (SG) (PI) (PI) (SG) (SG) (SG) (PI) (PI)
                 (SG) (PI) (PI) (SG)
       Virtual   (SG) (PI) (PI) (SG) (SG) (DLTA) (DLTA) (PI) (PI)
                 (SG) (PI) (PI) (SG) (DLTA) (DLTA) (SG) (PI) (PI)
                 (PI) (PI) (SG) (SG) (SG) (PHI) (PHI) (DLTA) (DLTA)
                 (PI) (PI) (DLTA) (DLTA) (SG) (PI) (PI) (PI) (PI)
                 (SG) (SG) (DLTA) (DLTA) (?A) (?A) (PI) (PI) (PHI)
                 (PHI) (SG) (DLTA) (DLTA) (PI) (PI) (SG) (SG) (PI)
                 (PI) (SG) (DLTA) (DLTA) (SG) (DLTA) (DLTA) (PI)
                 (PI) (PI) (PI) (PHI) (PHI) (PHI) (PHI) (SG) (PI)
                 (PI) (SG) (DLTA) (DLTA) (PI) (PI) (SG) (DLTA)
                 (DLTA) (SG) (PI) (PI) (SG) (PI) (PI) (SG) (PI)
                 (PI) (PHI) (PHI) (?A) (?A) (SG) (DLTA) (DLTA)
                 (DLTA) (DLTA) (SG) (PI) (PI) (PHI) (PHI) (DLTA)
                 (DLTA) (PHI) (PHI) (SG) (PI) (PI) (DLTA) (DLTA)
                 (SG) (DLTA) (DLTA) (PI) (PI) (PI) (PI) (SG) (PI)
                 (PI) (SG) (SG) (SG) (?A) (?A) (PHI) (PHI) (DLTA)
                 (DLTA) (PI) (PI) (SG) (PI) (PI) (PHI) (PHI) (DLTA)
                 (DLTA) (PI) (PI) (SG) (SG) (DLTA) (DLTA) (PI)
                 (PI) (?A) (?A) (PHI) (PHI) (DLTA) (DLTA) (SG)
                 (PI) (PI) (SG) (PHI) (PHI) (DLTA) (DLTA) (PI)
                 (PI) (SG) (DLTA) (DLTA) (PI) (PI) (PI) (PI) (SG)
                 (SG) (SG) (SG) (DLTA) (DLTA) (PI) (PI) (SG) (PI)
                 (PI) (SG) (PI) (PI) (SG) (DLTA) (DLTA) (PI) (PI)
                 (SG) (SG) (PHI) (PHI) (DLTA) (DLTA) (PI) (PI)
                 (SG) (PI) (PI) (SG) (DLTA) (DLTA) (PI) (PI) (SG)
                 (SG) (SG) (PI) (PI) (SG) (SG)
 The electronic state is 1-SG.
 Alpha  occ. eigenvalues -- -146.61040 -19.45393 -15.72922 -12.84041 -12.84041
 Alpha  occ. eigenvalues --  -12.83966  -1.84474  -1.10896  -1.08658  -1.08658
 Alpha  occ. eigenvalues --   -0.80190  -0.23138  -0.23138  -0.22399
 Alpha virt. eigenvalues --   -0.06200  -0.01372  -0.01372   0.00611   0.03064
 Alpha virt. eigenvalues --    0.04011   0.04011   0.06012   0.06012   0.06646
 Alpha virt. eigenvalues --    0.08962   0.08962   0.09802   0.12678   0.12681
 Alpha virt. eigenvalues --    0.16813   0.17570   0.17570   0.20456   0.20456
 Alpha virt. eigenvalues --    0.21357   0.26674   0.32901   0.34880   0.34880
 Alpha virt. eigenvalues --    0.35599   0.35600   0.38810   0.38810   0.40968
 Alpha virt. eigenvalues --    0.40968   0.41447   0.42378   0.42378   0.46215
 Alpha virt. eigenvalues --    0.46215   0.48131   0.56916   0.59527   0.59528
 Alpha virt. eigenvalues --    0.62997   0.63001   0.63176   0.63176   0.64969
 Alpha virt. eigenvalues --    0.64969   0.73327   0.77452   0.77453   0.80175
 Alpha virt. eigenvalues --    0.80175   0.82210   0.94428   1.08392   1.08392
 Alpha virt. eigenvalues --    1.26106   1.29852   1.29859   1.31223   1.35011
 Alpha virt. eigenvalues --    1.35013   1.37137   1.37137   1.38208   1.38208
 Alpha virt. eigenvalues --    1.41962   1.41962   1.48313   1.48313   1.52501
 Alpha virt. eigenvalues --    1.55158   1.55158   1.59528   1.62449   1.62450
 Alpha virt. eigenvalues --    1.71165   1.71165   1.77788   1.82689   1.82693
 Alpha virt. eigenvalues --    2.07890   2.28536   2.28536   2.32156   2.89968
 Alpha virt. eigenvalues --    2.89968   3.30633   3.51374   3.51374   3.52184
 Alpha virt. eigenvalues --    3.52184   3.52881   3.52881   3.55720   3.60923
 Alpha virt. eigenvalues --    3.60925   3.80382   3.80388   3.91796   3.96913
 Alpha virt. eigenvalues --    3.96913   3.99164   3.99164   4.07196   4.07202
 Alpha virt. eigenvalues --    4.08654   4.08654   4.11465   4.19502   4.19502
 Alpha virt. eigenvalues --    4.22950   4.22954   4.26643   4.27769   4.27771
 Alpha virt. eigenvalues --    4.44693   4.44693   4.50457   4.50457   4.53099
 Alpha virt. eigenvalues --    4.63149   4.63149   4.68036   5.35640   6.04063
 Alpha virt. eigenvalues --    6.31411   6.31428   6.32912   6.32912   6.44612
 Alpha virt. eigenvalues --    6.44618   6.87625   6.87625   6.94816   9.23501
 Alpha virt. eigenvalues --    9.23501   9.27762   9.27762   9.33205   9.33206
 Alpha virt. eigenvalues --    9.42170   9.42170   9.49031   9.61241   9.61250
 Alpha virt. eigenvalues --    9.61262   9.78660   9.78660  10.21161  10.21166
 Alpha virt. eigenvalues --   10.21236  10.21236  10.30159  10.30160  10.42169
 Alpha virt. eigenvalues --   10.55884  10.55884  10.58378  11.38236  11.38236
 Alpha virt. eigenvalues --   11.46675  11.46677  11.50811  11.50811  11.79461
 Alpha virt. eigenvalues --   12.18016  12.18017  12.39126  12.39126  12.73140
 Alpha virt. eigenvalues --   12.73140  12.75551  13.52389  16.57468  17.11381
 Alpha virt. eigenvalues --   25.84738  25.84738  26.01546  26.01546  26.42065
 Alpha virt. eigenvalues --   32.46819  32.46819  32.96702  42.43080  42.43080
 Alpha virt. eigenvalues --   45.60920  46.20735  46.20735  46.32130  46.32130
 Alpha virt. eigenvalues --   46.53095  62.35380 102.00255 102.00255 102.00965
 Alpha virt. eigenvalues --  102.00965 102.01019 102.01019 102.03613 115.24949
 Alpha virt. eigenvalues --  115.24949 115.64696 196.34116 196.34116 196.40529
 Alpha virt. eigenvalues --  196.40529 196.52109 212.93112 353.00854 390.02422
 Alpha virt. eigenvalues --  390.02422 390.34009 882.54067
          Condensed to atoms (all electrons):
               1          2
     1  Ca  18.735807  -0.122506
     2  O   -0.122506   9.509205
 Mulliken charges:
               1
     1  Ca   1.386699
     2  O   -1.386699
 Sum of Mulliken charges =   0.00000
 Mulliken charges with hydrogens summed into heavy atoms:
               1
     1  Ca   1.386699
     2  O   -1.386699
 Electronic spatial extent (au):  <R**2>=            114.1520
 Charge=             -0.0000 electrons
 Dipole moment (field-independent basis, Debye):
    X=              0.0000    Y=              0.0000    Z=              9.8168  Tot=              9.8168
 Quadrupole moment (field-independent basis, Debye-Ang):
   XX=            -17.9330   YY=            -17.9330   ZZ=            -26.6574
   XY=             -0.0000   XZ=              0.0000   YZ=              0.0000
 Traceless Quadrupole moment (field-independent basis, Debye-Ang):
   XX=              2.9081   YY=              2.9081   ZZ=             -5.8163
   XY=             -0.0000   XZ=              0.0000   YZ=              0.0000
 Octapole moment (field-independent basis, Debye-Ang**2):
  XXX=              0.0000  YYY=              0.0000  ZZZ=             23.8304  XYY=              0.0000
  XXY=              0.0000  XXZ=              7.0074  XZZ=              0.0000  YZZ=              0.0000
  YYZ=              7.0074  XYZ=             -0.0000
 Hexadecapole moment (field-independent basis, Debye-Ang**3):
 XXXX=            -21.2021 YYYY=            -21.2021 ZZZZ=           -139.2269 XXXY=             -0.0000
 XXXZ=              0.0000 YYYX=             -0.0000 YYYZ=              0.0000 ZZZX=              0.0000
 ZZZY=             -0.0000 XXYY=             -7.0673 XXZZ=            -24.3628 YYZZ=            -24.3628
 XXYZ=              0.0000 YYXZ=              0.0000 ZZXY=             -0.0000
 N-N= 4.649552649489D+01 E-N=-1.879866849218D+03  KE= 7.523527579628D+02
 PrsmSu:  requested number of processors reduced to:  21 ShMem   1 Linda.
 No NMR shielding tensors so no spin-rotation constants.
 Leave Link  601 at Fri Apr 16 23:08:29 2021, MaxMem=   104857600 cpu:             220.6 elap:               4.8
 (Enter /s/ls4/users/knvvv/bin/g16sse/l9999.exe)

 Test job not archived.
 1\1\GINC-N152\Stability\RM062X\Gen\Ca1O1\KNVVV\16-Apr-2021\0\\#P M062X
 /GEN Integral=UltraFineGrid SCF=NoSymm Stable=(RExt, Opt) IOp(1/33=1)\
 \Database calculations.\\0,1\Ca,0,0.,0.,1.821\O,0,0.,0.,0.\\Version=ES
 64L-G16RevA.03\State=1-SG\HF=-752.7886031\RMSD=3.600e-09\Dipole=0.,0.,
 3.8622334\Quadrupole=2.1621231,2.1621231,-4.3242462,0.,0.,0.\PG=C*V [C
 *(O1Ca1)]\\@


 I WANT TO KNOW HOW GOD CREATED THE WORLD.  I AM NOT INTERESTED IN
 THIS OR THAT PHENOMENON, IN THE SPECTRUM OF THIS OR THAT ELEMENT.
 I WANT TO KNOW HIS THOUGHTS, THE REST ARE DETAILS.
     -- ALBERT EINSTEIN
 Job cpu time:       0 days  3 hours 16 minutes 12.3 seconds.
 Elapsed time:       0 days  0 hours  5 minutes 57.4 seconds.
 File lengths (MBytes):  RWF=    173 Int=      0 D2E=      0 Chk=      8 Scr=      1
 Normal termination of Gaussian 16 at Fri Apr 16 23:08:29 2021.
