 Entering Gaussian System, Link 0=/s/ls4/users/knvvv/bin/g16sse/g16
 Input=data/database/M062X--def2-QZVPPD--11_H2O_H2O20Bind4.gjf
 Output=data/database/M062X--def2-QZVPPD--11_H2O_H2O20Bind4.log
 Initial command:
 /s/ls4/users/knvvv/bin/g16sse/l1.exe "/s/ls4/users/knvvv/bin/scratch/Gau-7943.inp" -scrdir="/s/ls4/users/knvvv/bin/scratch/"
 Entering Link 1 = /s/ls4/users/knvvv/bin/g16sse/l1.exe PID=      7944.
  
 Copyright (c) 1988,1990,1992,1993,1995,1998,2003,2009,2016,
            Gaussian, Inc.  All Rights Reserved.
  
 This is part of the Gaussian(R) 16 program.  It is based on
 the Gaussian(R) 09 system (copyright 2009, Gaussian, Inc.),
 the Gaussian(R) 03 system (copyright 2003, Gaussian, Inc.),
 the Gaussian(R) 98 system (copyright 1998, Gaussian, Inc.),
 the Gaussian(R) 94 system (copyright 1995, Gaussian, Inc.),
 the Gaussian 92(TM) system (copyright 1992, Gaussian, Inc.),
 the Gaussian 90(TM) system (copyright 1990, Gaussian, Inc.),
 the Gaussian 88(TM) system (copyright 1988, Gaussian, Inc.),
 the Gaussian 86(TM) system (copyright 1986, Carnegie Mellon
 University), and the Gaussian 82(TM) system (copyright 1983,
 Carnegie Mellon University). Gaussian is a federally registered
 trademark of Gaussian, Inc.
  
 This software contains proprietary and confidential information,
 including trade secrets, belonging to Gaussian, Inc.
  
 This software is provided under written license and may be
 used, copied, transmitted, or stored only in accord with that
 written license.
  
 The following legend is applicable only to US Government
 contracts under FAR:
  
                    RESTRICTED RIGHTS LEGEND
  
 Use, reproduction and disclosure by the US Government is
 subject to restrictions as set forth in subparagraphs (a)
 and (c) of the Commercial Computer Software - Restricted
 Rights clause in FAR 52.227-19.
  
 Gaussian, Inc.
 340 Quinnipiac St., Bldg. 40, Wallingford CT 06492
  
  
 ---------------------------------------------------------------
 Warning -- This program may not be used in any manner that
 competes with the business of Gaussian, Inc. or will provide
 assistance to any competitor of Gaussian, Inc.  The licensee
 of this program is prohibited from giving any competitor of
 Gaussian, Inc. access to this program.  By using this program,
 the user acknowledges that Gaussian, Inc. is engaged in the
 business of creating and licensing software in the field of
 computational chemistry and represents and warrants to the
 licensee that it is not a competitor of Gaussian, Inc. and that
 it will not use this program in any manner prohibited above.
 ---------------------------------------------------------------
  

 Cite this work as:
 Gaussian 16, Revision A.03,
 M. J. Frisch, G. W. Trucks, H. B. Schlegel, G. E. Scuseria, 
 M. A. Robb, J. R. Cheeseman, G. Scalmani, V. Barone, 
 G. A. Petersson, H. Nakatsuji, X. Li, M. Caricato, A. V. Marenich, 
 J. Bloino, B. G. Janesko, R. Gomperts, B. Mennucci, H. P. Hratchian, 
 J. V. Ortiz, A. F. Izmaylov, J. L. Sonnenberg, D. Williams-Young, 
 F. Ding, F. Lipparini, F. Egidi, J. Goings, B. Peng, A. Petrone, 
 T. Henderson, D. Ranasinghe, V. G. Zakrzewski, J. Gao, N. Rega, 
 G. Zheng, W. Liang, M. Hada, M. Ehara, K. Toyota, R. Fukuda, 
 J. Hasegawa, M. Ishida, T. Nakajima, Y. Honda, O. Kitao, H. Nakai, 
 T. Vreven, K. Throssell, J. A. Montgomery, Jr., J. E. Peralta, 
 F. Ogliaro, M. J. Bearpark, J. J. Heyd, E. N. Brothers, K. N. Kudin, 
 V. N. Staroverov, T. A. Keith, R. Kobayashi, J. Normand, 
 K. Raghavachari, A. P. Rendell, J. C. Burant, S. S. Iyengar, 
 J. Tomasi, M. Cossi, J. M. Millam, M. Klene, C. Adamo, R. Cammi, 
 J. W. Ochterski, R. L. Martin, K. Morokuma, O. Farkas, 
 J. B. Foresman, and D. J. Fox, Gaussian, Inc., Wallingford CT, 2016.
 
 ******************************************
 Gaussian 16:  ES64L-G16RevA.03 25-Dec-2016
                17-Apr-2021 
 ******************************************
 %RWF=temp10_89839,70GB
 %nprocshared=48
 Will use up to   48 processors via shared memory.
 Default route: MaxDisk=80GB
 ----------------------------------------------------------------------
 #P M062X/GEN Integral=UltraFineGrid SCF=NoSymm Stable=(RExt, Opt) IOp(
 1/33=1)
 ----------------------------------------------------------------------
 1/33=1,38=1,172=1/1;
 2/12=2,17=6,18=5,40=1/2;
 3/5=7,11=2,25=1,30=1,74=-55,75=-5/1,2,3;
 4/9=2/1;
 5/5=2,38=5/2;
 6/7=2,8=2,9=2,10=2,28=1/1;
 8/6=1,10=90,11=11/1;
 9/8=-3,42=1,46=1/14;
 5/5=2,8=3,17=40,38=5/8(-2);
 6/7=2,8=2,9=2,10=2,28=1/1;
 99/5=1,9=1/99;
 Leave Link    1 at Sat Apr 17 06:08:48 2021, MaxMem=           0 cpu:               8.1 elap:               0.2
 (Enter /s/ls4/users/knvvv/bin/g16sse/l101.exe)
 ONIOM data not found on unit 2.
 ----------------------
 Database calculations.
 ----------------------
 TstMul:  ICh=     0
 TstMul:  Mul=     1
 TstMul:  ICh=     0
 TstMul:  Mul=     1
 Symbolic Z-matrix:
 Charge =  0 Multiplicity = 1
 O                     0.        0.       -0.38936 
 H                     0.76298   0.        0.19468 
 H                    -0.76298   0.        0.19468 
 
 RdStrC is calling ZToCFu for IStruc=1 NZ=     3.
 PrtBox:  NBox=     1 Levels=  1 BoxLen=    8.00 SMaxX=        2.88
          Shift=            1.441832            0.000000            0.735786
 Box      1 Number                   0 centers from      1 to      3:
 After GenITR:
 ITRead=  0  0  0
 MicOpt= -1 -1 -1
 ITRead=  0  0  0
 MicOpt= -1 -1 -1
 NAtoms=      3 NQM=        3 NQMF=       0 NMMI=      0 NMMIF=      0
                NMic=       0 NMicF=      0.
                    Isotopes and Nuclear Properties:
 (Nuclear quadrupole moments (NQMom) in fm**2, nuclear magnetic moments (NMagM)
  in nuclear magnetons)

  Atom         1           2           3
 IAtWgt=          16           1           1
 AtmWgt=  15.9949146   1.0078250   1.0078250
 NucSpn=           0           1           1
 AtZEff=  -0.0000000  -0.0000000  -0.0000000
 NQMom=    0.0000000   0.0000000   0.0000000
 NMagM=    0.0000000   2.7928460   2.7928460
 AtZNuc=   8.0000000   1.0000000   1.0000000
 No MM parameters found.
 Leave Link  101 at Sat Apr 17 06:08:48 2021, MaxMem=   104857600 cpu:               6.9 elap:               0.2
 (Enter /s/ls4/users/knvvv/bin/g16sse/l202.exe)
                          Input orientation:                          
 ---------------------------------------------------------------------
 Center     Atomic      Atomic             Coordinates (Angstroms)
 Number     Number       Type             X           Y           Z
 ---------------------------------------------------------------------
      1          8           0        0.000000    0.000000   -0.389361
      2          1           0        0.762984    0.000000    0.194681
      3          1           0       -0.762984    0.000000    0.194681
 ---------------------------------------------------------------------
                    Distance matrix (angstroms):
                    1          2          3
     1  O    0.000000
     2  H    0.960859   0.000000
     3  H    0.960859   1.525969   0.000000
 Stoichiometry    H2O
 Framework group  C2V[C2(O),SGV(H2)]
 Deg. of freedom     2
 Full point group                 C2V     NOp   4
 Largest Abelian subgroup         C2V     NOp   4
 Largest concise Abelian subgroup C2      NOp   2
                         Standard orientation:                         
 ---------------------------------------------------------------------
 Center     Atomic      Atomic             Coordinates (Angstroms)
 Number     Number       Type             X           Y           Z
 ---------------------------------------------------------------------
      1          8           0        0.000000    0.000000    0.116808
      2          1           0        0.000000    0.762984   -0.467233
      3          1           0       -0.000000   -0.762984   -0.467233
 ---------------------------------------------------------------------
 Rotational constants (GHZ):         827.6749363         430.6959213         283.2839119
 Leave Link  202 at Sat Apr 17 06:08:48 2021, MaxMem=   104857600 cpu:              11.4 elap:               0.3
 (Enter /s/ls4/users/knvvv/bin/g16sse/l301.exe)
 General basis read from cards:  (5D, 7F)
 Centers:       2      3
 S 4 1.00
     Exponent=  1.9069169000D+02 Coefficients=  7.0815167000D-04
     Exponent=  2.8605532000D+01 Coefficients=  5.4678827000D-03
     Exponent=  6.5095943000D+00 Coefficients=  2.7966605000D-02
     Exponent=  1.8412455000D+00 Coefficients=  1.0764538000D-01
 S 1 1.00
     Exponent=  5.9853725000D-01 Coefficients=  1.0000000000D+00
 S 1 1.00
     Exponent=  2.1397624000D-01 Coefficients=  1.0000000000D+00
 S 1 1.00
     Exponent=  8.0316286000D-02 Coefficients=  1.0000000000D+00
 P 1 1.00
     Exponent=  2.2920000000D+00 Coefficients=  1.0000000000D+00
 P 1 1.00
     Exponent=  8.3800000000D-01 Coefficients=  1.0000000000D+00
 P 1 1.00
     Exponent=  2.9200000000D-01 Coefficients=  1.0000000000D+00
 P 1 1.00
     Exponent=  8.4063199228D-02 Coefficients=  1.0000000000D+00
 D 1 1.00
     Exponent=  2.0620000000D+00 Coefficients=  1.0000000000D+00
 D 1 1.00
     Exponent=  6.6200000000D-01 Coefficients=  1.0000000000D+00
 F 1 1.00
     Exponent=  1.3970000000D+00 Coefficients=  1.0000000000D+00
 ****
 Centers:       1
 S 8 1.00
     Exponent=  1.1650646908D+05 Coefficients=  4.0383857939D-05
     Exponent=  1.7504349724D+04 Coefficients=  3.1255139004D-04
     Exponent=  3.9934513230D+03 Coefficients=  1.6341473495D-03
     Exponent=  1.1330063186D+03 Coefficients=  6.8283224757D-03
     Exponent=  3.6999569594D+02 Coefficients=  2.4124410221D-02
     Exponent=  1.3362074349D+02 Coefficients=  7.2730206154D-02
     Exponent=  5.2035643649D+01 Coefficients=  1.7934429892D-01
     Exponent=  2.1461939313D+01 Coefficients=  3.3059588895D-01
 S 2 1.00
     Exponent=  8.9835051252D+01 Coefficients=  9.6468652996D-02
     Exponent=  2.6428010844D+01 Coefficients=  9.4117481120D-01
 S 1 1.00
     Exponent=  9.2822824649D+00 Coefficients=  1.0000000000D+00
 S 1 1.00
     Exponent=  4.0947728533D+00 Coefficients=  1.0000000000D+00
 S 1 1.00
     Exponent=  1.3255349078D+00 Coefficients=  1.0000000000D+00
 S 1 1.00
     Exponent=  5.1877230787D-01 Coefficients=  1.0000000000D+00
 S 1 1.00
     Exponent=  1.9772676454D-01 Coefficients=  1.0000000000D+00
 S 1 1.00
     Exponent=  6.9638535104D-02 Coefficients=  1.0000000000D+00
 P 5 1.00
     Exponent=  1.9115255810D+02 Coefficients=  2.5115697705D-03
     Exponent=  4.5233356739D+01 Coefficients=  2.0039240864D-02
     Exponent=  1.4353465922D+01 Coefficients=  9.3609064762D-02
     Exponent=  5.2422371832D+00 Coefficients=  3.0618127124D-01
     Exponent=  2.0792418599D+00 Coefficients=  6.7810501439D-01
 P 1 1.00
     Exponent=  8.4282371424D-01 Coefficients=  1.0000000000D+00
 P 1 1.00
     Exponent=  3.3617694891D-01 Coefficients=  1.0000000000D+00
 P 1 1.00
     Exponent=  1.2863997974D-01 Coefficients=  1.0000000000D+00
 P 1 1.00
     Exponent=  4.3598162776D-02 Coefficients=  1.0000000000D+00
 D 1 1.00
     Exponent=  3.7750000000D+00 Coefficients=  1.0000000000D+00
 D 1 1.00
     Exponent=  1.3000000000D+00 Coefficients=  1.0000000000D+00
 D 1 1.00
     Exponent=  4.4400000000D-01 Coefficients=  1.0000000000D+00
 D 1 1.00
     Exponent=  1.2546378695D-01 Coefficients=  1.0000000000D+00
 F 1 1.00
     Exponent=  2.6660000000D+00 Coefficients=  1.0000000000D+00
 F 1 1.00
     Exponent=  8.5900000000D-01 Coefficients=  1.0000000000D+00
 G 1 1.00
     Exponent=  1.8460000000D+00 Coefficients=  1.0000000000D+00
 ****
 Ernie: Thresh=  0.10000D-02 Tol=  0.10000D-05 Strict=F.
 There are    63 symmetry adapted cartesian basis functions of A1  symmetry.
 There are    21 symmetry adapted cartesian basis functions of A2  symmetry.
 There are    30 symmetry adapted cartesian basis functions of B1  symmetry.
 There are    44 symmetry adapted cartesian basis functions of B2  symmetry.
 There are    50 symmetry adapted basis functions of A1  symmetry.
 There are    19 symmetry adapted basis functions of A2  symmetry.
 There are    26 symmetry adapted basis functions of B1  symmetry.
 There are    37 symmetry adapted basis functions of B2  symmetry.
   132 basis functions,   184 primitive gaussians,   158 cartesian basis functions
     5 alpha electrons        5 beta electrons
       nuclear repulsion energy         9.1585175141 Hartrees.
 IExCor= 4336 DFT=T Ex+Corr=M062X ExCW=0 ScaHFX=  0.540000
 ScaDFX=  1.000000  1.000000  1.000000  1.000000 ScalE2=  1.000000  1.000000
 IRadAn=      5 IRanWt=     -1 IRanGd=            0 ICorTp=0 IEmpDi=  4
 NAtoms=    3 NActive=    3 NUniq=    2 SFac= 2.25D+00 NAtFMM=   60 NAOKFM=F Big=F
 Integral buffers will be    131072 words long.
 Raffenetti 2 integral format.
 Two-electron integral symmetry is turned on.
 Leave Link  301 at Sat Apr 17 06:08:48 2021, MaxMem=   104857600 cpu:               7.3 elap:               0.2
 (Enter /s/ls4/users/knvvv/bin/g16sse/l302.exe)
 NPDir=0 NMtPBC=     1 NCelOv=     1 NCel=       1 NClECP=     1 NCelD=      1
         NCelK=      1 NCelE2=     1 NClLst=     1 CellRange=     0.0.
 One-electron integrals computed using PRISM.
 One-electron integral symmetry used in STVInt
 PrsmSu:  requested number of processors reduced to:   4 ShMem   1 Linda.
 PrsmSu:  requested number of processors reduced to:  21 ShMem   1 Linda.
 NBasis=   132 RedAO= T EigKep=  1.35D-04  NBF=    50    19    26    37
 NBsUse=   132 1.00D-06 EigRej= -1.00D+00 NBFU=    50    19    26    37
 Precomputing XC quadrature grid using
 IXCGrd= 4 IRadAn=           5 IRanWt=          -1 IRanGd=           0 AccXCQ= 0.00D+00.
 Generated NRdTot=       0 NPtTot=           0 NUsed=           0 NTot=          32
 NSgBfM=   158   158   158   158   158 MxSgAt=     3 MxSgA2=     3.
 Leave Link  302 at Sat Apr 17 06:08:52 2021, MaxMem=   104857600 cpu:             187.5 elap:               4.1
 (Enter /s/ls4/users/knvvv/bin/g16sse/l303.exe)
 DipDrv:  MaxL=1.
 Leave Link  303 at Sat Apr 17 06:08:53 2021, MaxMem=   104857600 cpu:              15.1 elap:               0.4
 (Enter /s/ls4/users/knvvv/bin/g16sse/l401.exe)
 SCF N**3 symmetry information disabled.
 ExpMin= 4.36D-02 ExpMax= 1.17D+05 ExpMxC= 1.13D+03 IAcc=3 IRadAn=         5 AccDes= 0.00D+00
 Harris functional with IExCor= 1009 and IRadAn=       5 diagonalized for initial guess.
 HarFok:  IExCor= 1009 AccDes= 0.00D+00 IRadAn=         5 IDoV= 1 UseB2=F ITyADJ=14
 ICtDFT=  3500011 ScaDFX=  1.000000  1.000000  1.000000  1.000000
 FoFCou: FMM=F IPFlag=           0 FMFlag=      100000 FMFlg1=           0
         NFxFlg=           0 DoJE=T BraDBF=F KetDBF=T FulRan=T
         wScrn=  0.000000 ICntrl=       500 IOpCl=  0 I1Cent=   200000004 NGrid=           0
         NMat0=    1 NMatS0=      1 NMatT0=    0 NMatD0=    1 NMtDS0=    0 NMtDT0=    0
 Petite list used in FoFCou.
 CoulSu:  requested number of processors reduced to:  21 ShMem   1 Linda.
 CoulSu:  requested number of processors reduced to:  21 ShMem   1 Linda.
 CoulSu:  requested number of processors reduced to:  21 ShMem   1 Linda.
 CoulSu:  requested number of processors reduced to:  21 ShMem   1 Linda.
 Harris En= -76.4320228899632    
 JPrj=0 DoOrth=F DoCkMO=F.
 Initial guess orbital symmetries:
       Occupied  (A1) (A1) (B2) (A1) (B1)
       Virtual   (A1) (B2) (A1) (B1) (B2) (A1) (A1) (A2) (B1) (B2)
                 (A1) (B2) (B2) (A1) (B1) (A1) (A2) (A1) (B1) (A1)
                 (B2) (B2) (A2) (B1) (A1) (B2) (A1) (B2) (A1) (A1)
                 (B1) (B2) (A2) (A1) (A1) (B1) (B2) (B1) (A1) (B2)
                 (A1) (A2) (B2) (B2) (B1) (A2) (A1) (B2) (A2) (B1)
                 (A1) (A1) (B2) (A1) (B2) (A1) (B1) (A2) (A1) (B1)
                 (B2) (A1) (B1) (A1) (B2) (A2) (A1) (B2) (B1) (A1)
                 (B2) (B1) (A1) (A2) (B2) (A2) (A1) (B2) (B1) (B2)
                 (A1) (A2) (B1) (B2) (A1) (B2) (A1) (B1) (B1) (A2)
                 (A1) (B2) (A2) (A1) (B2) (A1) (A2) (B1) (B2) (A1)
                 (B2) (B1) (A1) (A1) (A2) (B2) (A1) (A2) (B1) (B2)
                 (B1) (A1) (B1) (A1) (A2) (B2) (A1) (B2) (B2) (A1)
                 (B1) (A2) (A1) (B2) (A1) (A1) (A1)
 The electronic state of the initial guess is 1-A1.
 Leave Link  401 at Sat Apr 17 06:08:55 2021, MaxMem=   104857600 cpu:              92.7 elap:               2.1
 (Enter /s/ls4/users/knvvv/bin/g16sse/l502.exe)
 Keep R1 ints in memory in symmetry-blocked form, NReq=92809239.
 FoFCou: FMM=F IPFlag=           0 FMFlag=           0 FMFlg1=           0
         NFxFlg=           0 DoJE=F BraDBF=F KetDBF=F FulRan=T
         wScrn=  0.000000 ICntrl=       600 IOpCl=  0 I1Cent=           0 NGrid=           0
         NMat0=    1 NMatS0=   8778 NMatT0=    0 NMatD0=    1 NMtDS0=    0 NMtDT0=    0
 Petite list used in FoFCou.
 CoulSu:  requested number of processors reduced to:  14 ShMem   1 Linda.
 Closed shell SCF:
 Using DIIS extrapolation, IDIIS=  1040.
 NGot=   104857600 LenX=    95018483 LenY=    94993078
 Requested convergence on RMS density matrix=1.00D-08 within 128 cycles.
 Requested convergence on MAX density matrix=1.00D-06.
 Requested convergence on             energy=1.00D-06.
 No special actions if energy rises.

 Cycle   1  Pass 1  IDiag  1:
 E= -76.3575824565980    
 DIIS: error= 4.38D-02 at cycle   1 NSaved=   1.
 NSaved= 1 IEnMin= 1 EnMin= -76.3575824565980     IErMin= 1 ErrMin= 4.38D-02
 ErrMax= 4.38D-02  0.00D+00 EMaxC= 1.00D-01 BMatC= 1.46D-01 BMatP= 1.46D-01
 IDIUse=3 WtCom= 5.62D-01 WtEn= 4.38D-01
 Coeff-Com:  0.100D+01
 Coeff-En:   0.100D+01
 Coeff:      0.100D+01
 Gap=     0.274 Goal=   None    Shift=    0.000
 GapD=    0.274 DampG=1.000 DampE=0.500 DampFc=0.5000 IDamp=-1.
 Damping current iteration by 5.00D-01
 RMSDP=1.88D-03 MaxDP=6.53D-02              OVMax= 1.76D-01

 Cycle   2  Pass 1  IDiag  1:
 E= -76.3904446428381     Delta-E=       -0.032862186240 Rises=F Damp=T
 DIIS: error= 2.14D-02 at cycle   2 NSaved=   2.
 NSaved= 2 IEnMin= 2 EnMin= -76.3904446428381     IErMin= 2 ErrMin= 2.14D-02
 ErrMax= 2.14D-02  0.00D+00 EMaxC= 1.00D-01 BMatC= 1.35D-02 BMatP= 1.46D-01
 IDIUse=3 WtCom= 7.86D-01 WtEn= 2.14D-01
 Coeff-Com:  0.576D-01 0.942D+00
 Coeff-En:   0.185D+00 0.815D+00
 Coeff:      0.848D-01 0.915D+00
 Gap=     0.412 Goal=   None    Shift=    0.000
 RMSDP=6.25D-04 MaxDP=1.31D-02 DE=-3.29D-02 OVMax= 1.05D-01

 Cycle   3  Pass 1  IDiag  1:
 E= -76.4366177352846     Delta-E=       -0.046173092447 Rises=F Damp=F
 DIIS: error= 2.06D-03 at cycle   3 NSaved=   3.
 NSaved= 3 IEnMin= 3 EnMin= -76.4366177352846     IErMin= 3 ErrMin= 2.06D-03
 ErrMax= 2.06D-03  0.00D+00 EMaxC= 1.00D-01 BMatC= 2.46D-04 BMatP= 1.35D-02
 IDIUse=3 WtCom= 9.79D-01 WtEn= 2.06D-02
 Coeff-Com: -0.345D-01 0.640D-01 0.970D+00
 Coeff-En:   0.000D+00 0.000D+00 0.100D+01
 Coeff:     -0.338D-01 0.627D-01 0.971D+00
 Gap=     0.413 Goal=   None    Shift=    0.000
 RMSDP=7.41D-05 MaxDP=3.10D-03 DE=-4.62D-02 OVMax= 4.21D-03

 Cycle   4  Pass 1  IDiag  1:
 E= -76.4367900569349     Delta-E=       -0.000172321650 Rises=F Damp=F
 DIIS: error= 1.84D-04 at cycle   4 NSaved=   4.
 NSaved= 4 IEnMin= 4 EnMin= -76.4367900569349     IErMin= 4 ErrMin= 1.84D-04
 ErrMax= 1.84D-04  0.00D+00 EMaxC= 1.00D-01 BMatC= 2.74D-06 BMatP= 2.46D-04
 IDIUse=3 WtCom= 9.98D-01 WtEn= 1.84D-03
 Coeff-Com:  0.373D-03-0.124D-02 0.438D-01 0.957D+00
 Coeff-En:   0.000D+00 0.000D+00 0.000D+00 0.100D+01
 Coeff:      0.372D-03-0.123D-02 0.437D-01 0.957D+00
 Gap=     0.414 Goal=   None    Shift=    0.000
 RMSDP=2.40D-05 MaxDP=5.94D-04 DE=-1.72D-04 OVMax= 5.98D-04

 Cycle   5  Pass 1  IDiag  1:
 E= -76.4367917396741     Delta-E=       -0.000001682739 Rises=F Damp=F
 DIIS: error= 4.87D-05 at cycle   5 NSaved=   5.
 NSaved= 5 IEnMin= 5 EnMin= -76.4367917396741     IErMin= 5 ErrMin= 4.87D-05
 ErrMax= 4.87D-05  0.00D+00 EMaxC= 1.00D-01 BMatC= 8.05D-08 BMatP= 2.74D-06
 IDIUse=1 WtCom= 1.00D+00 WtEn= 0.00D+00
 Coeff-Com:  0.145D-02-0.257D-02-0.317D-01 0.436D-01 0.989D+00
 Coeff:      0.145D-02-0.257D-02-0.317D-01 0.436D-01 0.989D+00
 Gap=     0.414 Goal=   None    Shift=    0.000
 RMSDP=4.45D-06 MaxDP=1.14D-04 DE=-1.68D-06 OVMax= 1.79D-04

 Cycle   6  Pass 1  IDiag  1:
 E= -76.4367918514854     Delta-E=       -0.000000111811 Rises=F Damp=F
 DIIS: error= 7.75D-06 at cycle   6 NSaved=   6.
 NSaved= 6 IEnMin= 6 EnMin= -76.4367918514854     IErMin= 6 ErrMin= 7.75D-06
 ErrMax= 7.75D-06  0.00D+00 EMaxC= 1.00D-01 BMatC= 2.90D-09 BMatP= 8.05D-08
 IDIUse=1 WtCom= 1.00D+00 WtEn= 0.00D+00
 Coeff-Com: -0.154D-03 0.215D-03 0.114D-02-0.264D-01-0.932D-02 0.103D+01
 Coeff:     -0.154D-03 0.215D-03 0.114D-02-0.264D-01-0.932D-02 0.103D+01
 Gap=     0.414 Goal=   None    Shift=    0.000
 RMSDP=5.53D-07 MaxDP=2.38D-05 DE=-1.12D-07 OVMax= 3.40D-05

 Cycle   7  Pass 1  IDiag  1:
 E= -76.4367918560388     Delta-E=       -0.000000004553 Rises=F Damp=F
 DIIS: error= 1.42D-06 at cycle   7 NSaved=   7.
 NSaved= 7 IEnMin= 7 EnMin= -76.4367918560388     IErMin= 7 ErrMin= 1.42D-06
 ErrMax= 1.42D-06  0.00D+00 EMaxC= 1.00D-01 BMatC= 8.52D-11 BMatP= 2.90D-09
 IDIUse=1 WtCom= 1.00D+00 WtEn= 0.00D+00
 Coeff-Com: -0.251D-04 0.619D-04 0.410D-03 0.432D-04-0.268D-01-0.858D-01
 Coeff-Com:  0.111D+01
 Coeff:     -0.251D-04 0.619D-04 0.410D-03 0.432D-04-0.268D-01-0.858D-01
 Coeff:      0.111D+01
 Gap=     0.414 Goal=   None    Shift=    0.000
 RMSDP=1.23D-07 MaxDP=5.07D-06 DE=-4.55D-09 OVMax= 9.32D-06

 Cycle   8  Pass 1  IDiag  1:
 E= -76.4367918562456     Delta-E=       -0.000000000207 Rises=F Damp=F
 DIIS: error= 2.22D-07 at cycle   8 NSaved=   8.
 NSaved= 8 IEnMin= 8 EnMin= -76.4367918562456     IErMin= 8 ErrMin= 2.22D-07
 ErrMax= 2.22D-07  0.00D+00 EMaxC= 1.00D-01 BMatC= 1.36D-12 BMatP= 8.52D-11
 IDIUse=1 WtCom= 1.00D+00 WtEn= 0.00D+00
 Coeff-Com:  0.614D-05-0.115D-04-0.459D-04 0.290D-03 0.357D-02 0.866D-03
 Coeff-Com: -0.197D+00 0.119D+01
 Coeff:      0.614D-05-0.115D-04-0.459D-04 0.290D-03 0.357D-02 0.866D-03
 Coeff:     -0.197D+00 0.119D+01
 Gap=     0.414 Goal=   None    Shift=    0.000
 RMSDP=1.42D-08 MaxDP=3.96D-07 DE=-2.07D-10 OVMax= 1.31D-06

 Cycle   9  Pass 1  IDiag  1:
 E= -76.4367918562485     Delta-E=       -0.000000000003 Rises=F Damp=F
 DIIS: error= 3.08D-08 at cycle   9 NSaved=   9.
 NSaved= 9 IEnMin= 9 EnMin= -76.4367918562485     IErMin= 9 ErrMin= 3.08D-08
 ErrMax= 3.08D-08  0.00D+00 EMaxC= 1.00D-01 BMatC= 3.04D-14 BMatP= 1.36D-12
 IDIUse=1 WtCom= 1.00D+00 WtEn= 0.00D+00
 Coeff-Com: -0.216D-06 0.235D-06 0.245D-05 0.386D-04-0.400D-03-0.111D-02
 Coeff-Com:  0.277D-01-0.196D+00 0.117D+01
 Coeff:     -0.216D-06 0.235D-06 0.245D-05 0.386D-04-0.400D-03-0.111D-02
 Coeff:      0.277D-01-0.196D+00 0.117D+01
 Gap=     0.414 Goal=   None    Shift=    0.000
 RMSDP=2.54D-09 MaxDP=8.43D-08 DE=-2.96D-12 OVMax= 1.09D-07

 SCF Done:  E(RM062X) =  -76.4367918562     A.U. after    9 cycles
            NFock=  9  Conv=0.25D-08     -V/T= 2.0033
 KE= 7.618325077318D+01 PE=-1.991582107390D+02 EE= 3.737965059540D+01
 Leave Link  502 at Sat Apr 17 06:09:32 2021, MaxMem=   104857600 cpu:            1721.2 elap:              37.1
 (Enter /s/ls4/users/knvvv/bin/g16sse/l601.exe)
 Copying SCF densities to generalized density rwf, IOpCl= 0 IROHF=0.

 **********************************************************************

            Population analysis using the SCF density.

 **********************************************************************

 Orbital symmetries:
       Occupied  (A1) (A1) (B2) (A1) (B1)
       Virtual   (A1) (B2) (A1) (B1) (B2) (A1) (A2) (A1) (B1) (B2)
                 (A1) (B2) (B2) (A1) (B1) (A1) (A2) (A1) (B1) (B2)
                 (A1) (B2) (A2) (B1) (A1) (B2) (A1) (B2) (A1) (A1)
                 (B2) (B1) (A2) (A1) (A1) (B1) (B2) (B1) (A1) (B2)
                 (A1) (A2) (B2) (B1) (B2) (A2) (A1) (B2) (A2) (A1)
                 (B1) (A1) (B2) (A1) (B2) (A1) (B1) (A1) (A2) (B1)
                 (B2) (A1) (A1) (B1) (B2) (A2) (B2) (A1) (B1) (A1)
                 (B2) (B1) (A1) (A2) (B2) (A2) (A1) (B2) (B1) (B2)
                 (A1) (A2) (B1) (B2) (B2) (A1) (B1) (A1) (B1) (A1)
                 (A2) (B2) (A2) (A1) (B2) (A1) (A2) (B2) (B1) (A1)
                 (B2) (B1) (A1) (A1) (A2) (B2) (A1) (A2) (B2) (B1)
                 (B1) (A1) (B1) (A1) (B2) (A2) (A1) (B2) (B2) (A1)
                 (B1) (A2) (A1) (B2) (A1) (A1) (A1)
 The electronic state is 1-A1.
 Alpha  occ. eigenvalues --  -19.62898  -1.13582  -0.61124  -0.47610  -0.40333
 Alpha virt. eigenvalues --    0.01055   0.04178   0.06365   0.06387   0.13503
 Alpha virt. eigenvalues --    0.14782   0.17153   0.18812   0.19545   0.23196
 Alpha virt. eigenvalues --    0.25627   0.27648   0.35568   0.36734   0.40045
 Alpha virt. eigenvalues --    0.44667   0.46111   0.46117   0.51374   0.53304
 Alpha virt. eigenvalues --    0.54640   0.64996   0.77222   0.81491   0.84052
 Alpha virt. eigenvalues --    0.94632   1.00424   1.05699   1.11028   1.14631
 Alpha virt. eigenvalues --    1.33224   1.38463   1.44151   1.46192   1.51089
 Alpha virt. eigenvalues --    1.60186   1.62965   1.89701   1.95051   2.00914
 Alpha virt. eigenvalues --    2.03496   2.24771   2.27716   2.43826   2.44076
 Alpha virt. eigenvalues --    2.45844   2.55619   2.60543   2.65761   2.68402
 Alpha virt. eigenvalues --    2.69891   2.90638   3.09838   3.22131   3.27160
 Alpha virt. eigenvalues --    3.40627   3.69473   3.87810   3.90036   3.92803
 Alpha virt. eigenvalues --    4.07028   4.16138   4.24716   4.25425   4.40395
 Alpha virt. eigenvalues --    4.56108   4.79441   4.79853   5.29827   5.31497
 Alpha virt. eigenvalues --    5.41562   5.61984   5.82982   5.86030   5.93985
 Alpha virt. eigenvalues --    6.29893   6.43096   6.64901   6.94531   7.02742
 Alpha virt. eigenvalues --    7.10931   7.15955   7.24089   7.25159   7.30586
 Alpha virt. eigenvalues --    7.30923   7.52886   7.54303   7.64970   7.69635
 Alpha virt. eigenvalues --    7.71671   7.71844   7.81517   7.95786   8.18163
 Alpha virt. eigenvalues --    8.37389   8.45487   8.58879   8.62493   8.87189
 Alpha virt. eigenvalues --    8.91957   9.68522   9.69867  10.08489  10.17101
 Alpha virt. eigenvalues --   10.52589  10.59666  10.77330  10.91486  10.98598
 Alpha virt. eigenvalues --   11.14205  11.29548  11.57010  11.58758  11.68449
 Alpha virt. eigenvalues --   11.69364  12.11114  12.65214  13.26769  13.43325
 Alpha virt. eigenvalues --   13.45819  13.86215  14.23606  16.42799  16.45672
 Alpha virt. eigenvalues --   48.33612 251.40944
          Condensed to atoms (all electrons):
               1          2          3
     1  O    8.156602   0.278565   0.278565
     2  H    0.278565   0.383015  -0.018445
     3  H    0.278565  -0.018445   0.383015
 Mulliken charges:
               1
     1  O   -0.713731
     2  H    0.356866
     3  H    0.356866
 Sum of Mulliken charges =  -0.00000
 Mulliken charges with hydrogens summed into heavy atoms:
               1
     1  O   -0.000000
 Electronic spatial extent (au):  <R**2>=             19.8424
 Charge=             -0.0000 electrons
 Dipole moment (field-independent basis, Debye):
    X=             -0.0000    Y=              0.0000    Z=             -1.8897  Tot=              1.8897
 Quadrupole moment (field-independent basis, Debye-Ang):
   XX=             -7.7045   YY=             -4.3690   ZZ=             -6.4014
   XY=              0.0000   XZ=              0.0000   YZ=             -0.0000
 Traceless Quadrupole moment (field-independent basis, Debye-Ang):
   XX=             -1.5462   YY=              1.7893   ZZ=             -0.2431
   XY=              0.0000   XZ=              0.0000   YZ=             -0.0000
 Octapole moment (field-independent basis, Debye-Ang**2):
  XXX=              0.0000  YYY=             -0.0000  ZZZ=             -1.0142  XYY=             -0.0000
  XXY=             -0.0000  XXZ=             -0.2191  XZZ=              0.0000  YZZ=             -0.0000
  YYZ=             -1.3443  XYZ=             -0.0000
 Hexadecapole moment (field-independent basis, Debye-Ang**3):
 XXXX=             -7.2907 YYYY=             -6.3929 ZZZZ=             -7.6942 XXXY=             -0.0000
 XXXZ=             -0.0000 YYYX=             -0.0000 YYYZ=             -0.0000 ZZZX=             -0.0000
 ZZZY=             -0.0000 XXYY=             -2.6153 XXZZ=             -2.5467 YYZZ=             -2.0296
 XXYZ=              0.0000 YYXZ=              0.0000 ZZXY=              0.0000
 N-N= 9.158517514140D+00 E-N=-1.991582115223D+02  KE= 7.618325077318D+01
 PrsmSu:  requested number of processors reduced to:  21 ShMem   1 Linda.
 No NMR shielding tensors so no spin-rotation constants.
 Leave Link  601 at Sat Apr 17 06:09:34 2021, MaxMem=   104857600 cpu:              83.0 elap:               1.9
 (Enter /s/ls4/users/knvvv/bin/g16sse/l801.exe)
 DoSCS=F DFT=T ScalE2(SS,OS)=  1.000000  1.000000
 Range of M.O.s used for correlation:     1   132
 NBasis=   132 NAE=     5 NBE=     5 NFC=     0 NFV=     0
 NROrb=    132 NOA=     5 NOB=     5 NVA=   127 NVB=   127

 **** Warning!!: The largest alpha MO coefficient is  0.26939693D+02

 Leave Link  801 at Sat Apr 17 06:09:34 2021, MaxMem=   104857600 cpu:               3.1 elap:               0.1
 (Enter /s/ls4/users/knvvv/bin/g16sse/l914.exe)
 RHF ground state
 Doing stability rather than CIS.
 Two-electron integrals replicated using symmetry.
 MDV=   104857600 DFT=T DoStab=T Mixed=T DoRPA=F DoScal=F NonHer=F
 Making orbital integer symmetry assigments:
 Orbital symmetries:
       Occupied  (A1) (A1) (B2) (A1) (B1)
       Virtual   (A1) (B2) (A1) (B1) (B2) (A1) (A2) (A1) (B1) (B2)
                 (A1) (B2) (B2) (A1) (B1) (A1) (A2) (A1) (B1) (B2)
                 (A1) (B2) (A2) (B1) (A1) (B2) (A1) (B2) (A1) (A1)
                 (B2) (B1) (A2) (A1) (A1) (B1) (B2) (B1) (A1) (B2)
                 (A1) (A2) (B2) (B1) (B2) (A2) (A1) (B2) (A2) (A1)
                 (B1) (A1) (B2) (A1) (B2) (A1) (B1) (A1) (A2) (B1)
                 (B2) (A1) (A1) (B1) (B2) (A2) (B2) (A1) (B1) (A1)
                 (B2) (B1) (A1) (A2) (B2) (A2) (A1) (B2) (B1) (B2)
                 (A1) (A2) (B1) (B2) (B2) (A1) (B1) (A1) (B1) (A1)
                 (A2) (B2) (A2) (A1) (B2) (A1) (A2) (B2) (B1) (A1)
                 (B2) (B1) (A1) (A1) (A2) (B2) (A1) (A2) (B2) (B1)
                 (B1) (A1) (B1) (A1) (B2) (A2) (A1) (B2) (B2) (A1)
                 (B1) (A2) (A1) (B2) (A1) (A1) (A1)
    24 initial guesses have been made.
 Convergence on wavefunction:    0.001000000000000
 Davidson Disk Diagonalization:  ConvIn= 1.00D-03 SkipCon=T Conv= 1.00D-03.
 Max sub-space:  2000 roots to seek:    24 dimension of matrix:         1270
 Iteration     1 Dimension    24 NMult     0 NNew     24
 Estimated number of processors is:   20
 CISAX will form     1 AO SS matrices at one time.
 NMat=     1 NSing=     1 JSym2X= 2.
 FoFJK:  IHMeth= 1 ICntrl=       0 DoSepK=F KAlg= 0 I1Cent=           0 FoldK=F
 IRaf= 990000000 NMat=       1 IRICut=       1 DoRegI=T DoRafI=F ISym2E= 2 IDoP0=0 IntGTp=1.
 FoFCou: FMM=F IPFlag=           0 FMFlag=      100000 FMFlg1=           0
         NFxFlg=           0 DoJE=F BraDBF=F KetDBF=F FulRan=T
         wScrn=  0.000000 ICntrl=         0 IOpCl=  0 I1Cent=           0 NGrid=           0
         NMat0=    1 NMatS0=      1 NMatT0=    0 NMatD0=    1 NMtDS0=    0 NMtDT0=    0
 Integrals replicated using symmetry in FoFCou.
 CoulSu:  requested number of processors reduced to:  20 ShMem   1 Linda.
 NMat=     1 NSing=     1 JSym2X= 2.
 CoulSu:  requested number of processors reduced to:  20 ShMem   1 Linda.
 NMat=     1 NSing=     1 JSym2X= 2.
 CoulSu:  requested number of processors reduced to:  20 ShMem   1 Linda.
 NMat=     1 NSing=     1 JSym2X= 2.
 CoulSu:  requested number of processors reduced to:  20 ShMem   1 Linda.
 NMat=     1 NSing=     1 JSym2X= 2.
 CoulSu:  requested number of processors reduced to:  20 ShMem   1 Linda.
 NMat=     1 NSing=     1 JSym2X= 2.
 CoulSu:  requested number of processors reduced to:  20 ShMem   1 Linda.
 NMat=     1 NSing=     1 JSym2X= 2.
 CoulSu:  requested number of processors reduced to:  20 ShMem   1 Linda.
 NMat=     1 NSing=     1 JSym2X= 2.
 CoulSu:  requested number of processors reduced to:  20 ShMem   1 Linda.
 NMat=     1 NSing=     1 JSym2X= 2.
 CoulSu:  requested number of processors reduced to:  20 ShMem   1 Linda.
 NMat=     1 NSing=     1 JSym2X= 2.
 CoulSu:  requested number of processors reduced to:  20 ShMem   1 Linda.
 NMat=     1 NSing=     1 JSym2X= 2.
 CoulSu:  requested number of processors reduced to:  20 ShMem   1 Linda.
 NMat=     1 NSing=     1 JSym2X= 2.
 CoulSu:  requested number of processors reduced to:  20 ShMem   1 Linda.
 NMat=     1 NSing=     0 JSym2X= 2.
 CoulSu:  requested number of processors reduced to:  20 ShMem   1 Linda.
 NMat=     1 NSing=     0 JSym2X= 2.
 CoulSu:  requested number of processors reduced to:  20 ShMem   1 Linda.
 NMat=     1 NSing=     0 JSym2X= 2.
 CoulSu:  requested number of processors reduced to:  20 ShMem   1 Linda.
 NMat=     1 NSing=     0 JSym2X= 2.
 CoulSu:  requested number of processors reduced to:  20 ShMem   1 Linda.
 NMat=     1 NSing=     0 JSym2X= 2.
 CoulSu:  requested number of processors reduced to:  20 ShMem   1 Linda.
 NMat=     1 NSing=     0 JSym2X= 2.
 CoulSu:  requested number of processors reduced to:  20 ShMem   1 Linda.
 NMat=     1 NSing=     0 JSym2X= 2.
 CoulSu:  requested number of processors reduced to:  20 ShMem   1 Linda.
 NMat=     1 NSing=     0 JSym2X= 2.
 CoulSu:  requested number of processors reduced to:  20 ShMem   1 Linda.
 NMat=     1 NSing=     0 JSym2X= 2.
 CoulSu:  requested number of processors reduced to:  20 ShMem   1 Linda.
 NMat=     1 NSing=     0 JSym2X= 2.
 CoulSu:  requested number of processors reduced to:  20 ShMem   1 Linda.
 NMat=     1 NSing=     0 JSym2X= 2.
 CoulSu:  requested number of processors reduced to:  20 ShMem   1 Linda.
 NMat=     1 NSing=     0 JSym2X= 2.
 CoulSu:  requested number of processors reduced to:  20 ShMem   1 Linda.
 New state      1 was old state      2
 Excitation Energies [eV] at current iteration:
 Root      1 :     7.793587087923853
 Root      2 :     8.121978149853021
 Root      3 :     9.344332767406145
 Root      4 :     9.498589703745003
 Root      5 :    10.000781976650320
 Root      6 :    10.067860442829260
 Root      7 :    10.162940189412290
 Root      8 :    10.184698401198520
 Root      9 :    10.252302879579230
 Root     10 :    11.228640073283880
 Root     11 :    11.423052885394380
 Root     12 :    11.538276655122080
 Root     13 :    11.608330015937330
 Root     14 :    11.658014295703370
 Root     15 :    11.967535529285980
 Root     16 :    12.060863157105440
 Root     17 :    12.153509751582030
 Root     18 :    12.223284566935380
 Root     19 :    12.246989730476200
 Root     20 :    13.026127344166210
 Root     21 :    13.113074710421460
 Root     22 :    13.165226962363290
 Root     23 :    13.209188526425150
 Root     24 :    13.383214193548640
 Iteration     2 Dimension    48 NMult    24 NNew     24
 Estimated number of processors is:   20
 CISAX will form     1 AO SS matrices at one time.
 NMat=     1 NSing=     1 JSym2X= 2.
 CoulSu:  requested number of processors reduced to:  20 ShMem   1 Linda.
 NMat=     1 NSing=     1 JSym2X= 2.
 CoulSu:  requested number of processors reduced to:  20 ShMem   1 Linda.
 NMat=     1 NSing=     1 JSym2X= 2.
 CoulSu:  requested number of processors reduced to:  20 ShMem   1 Linda.
 NMat=     1 NSing=     1 JSym2X= 2.
 CoulSu:  requested number of processors reduced to:  20 ShMem   1 Linda.
 NMat=     1 NSing=     1 JSym2X= 2.
 CoulSu:  requested number of processors reduced to:  20 ShMem   1 Linda.
 NMat=     1 NSing=     1 JSym2X= 2.
 CoulSu:  requested number of processors reduced to:  20 ShMem   1 Linda.
 NMat=     1 NSing=     1 JSym2X= 2.
 CoulSu:  requested number of processors reduced to:  20 ShMem   1 Linda.
 NMat=     1 NSing=     1 JSym2X= 2.
 CoulSu:  requested number of processors reduced to:  20 ShMem   1 Linda.
 NMat=     1 NSing=     1 JSym2X= 2.
 CoulSu:  requested number of processors reduced to:  20 ShMem   1 Linda.
 NMat=     1 NSing=     1 JSym2X= 2.
 CoulSu:  requested number of processors reduced to:  20 ShMem   1 Linda.
 NMat=     1 NSing=     1 JSym2X= 2.
 CoulSu:  requested number of processors reduced to:  20 ShMem   1 Linda.
 NMat=     1 NSing=     1 JSym2X= 2.
 CoulSu:  requested number of processors reduced to:  20 ShMem   1 Linda.
 NMat=     1 NSing=     0 JSym2X= 2.
 CoulSu:  requested number of processors reduced to:  20 ShMem   1 Linda.
 NMat=     1 NSing=     0 JSym2X= 2.
 CoulSu:  requested number of processors reduced to:  20 ShMem   1 Linda.
 NMat=     1 NSing=     0 JSym2X= 2.
 CoulSu:  requested number of processors reduced to:  20 ShMem   1 Linda.
 NMat=     1 NSing=     0 JSym2X= 2.
 CoulSu:  requested number of processors reduced to:  20 ShMem   1 Linda.
 NMat=     1 NSing=     0 JSym2X= 2.
 CoulSu:  requested number of processors reduced to:  20 ShMem   1 Linda.
 NMat=     1 NSing=     0 JSym2X= 2.
 CoulSu:  requested number of processors reduced to:  20 ShMem   1 Linda.
 NMat=     1 NSing=     0 JSym2X= 2.
 CoulSu:  requested number of processors reduced to:  20 ShMem   1 Linda.
 NMat=     1 NSing=     0 JSym2X= 2.
 CoulSu:  requested number of processors reduced to:  20 ShMem   1 Linda.
 NMat=     1 NSing=     0 JSym2X= 2.
 CoulSu:  requested number of processors reduced to:  20 ShMem   1 Linda.
 NMat=     1 NSing=     0 JSym2X= 2.
 CoulSu:  requested number of processors reduced to:  20 ShMem   1 Linda.
 NMat=     1 NSing=     0 JSym2X= 2.
 CoulSu:  requested number of processors reduced to:  20 ShMem   1 Linda.
 NMat=     1 NSing=     0 JSym2X= 2.
 CoulSu:  requested number of processors reduced to:  20 ShMem   1 Linda.
 Root      1 not converged, maximum delta is    0.145765058513827
 Excitation Energies [eV] at current iteration:
 Root      1 :     7.207939242026830   Change is   -0.585647845897023
 Root      2 :     7.939059309784052   Change is   -0.182918840068968
 Root      3 :     8.921007719050525   Change is   -0.423325048355621
 Root      4 :     9.209349699528673   Change is   -0.791432277121647
 Root      5 :     9.247909359811974   Change is   -0.250680343933030
 Root      6 :     9.810054769453236   Change is   -0.352885419959049
 Root      7 :     9.914792570051826   Change is   -0.153067872777436
 Root      8 :     9.933399338740896   Change is   -0.318903540838330
 Root      9 :    10.100925519455280   Change is   -0.083772881743241
 Root     10 :    10.692993968465700   Change is   -0.535646104818178
 Root     11 :    10.908072002851160   Change is   -0.514980882543217
 Root     12 :    11.066392486430320   Change is   -0.471884168691759
 Root     13 :    11.371952693174500   Change is   -0.286061602528875
 Root     14 :    11.382957280676800   Change is   -0.225372735260527
 Root     15 :    11.728451510635810   Change is   -0.239084018650168
 Root     16 :    11.768248498401020   Change is   -0.292614658704418
 Root     17 :    11.958419583071400   Change is   -0.195090168510631
 Root     18 :    12.067840449682000   Change is   -0.179149280794192
 Root     19 :    12.102613117315890   Change is   -0.120671449619490
 Root     20 :    12.416057781918440   Change is   -0.697016928503019
 Root     21 :    12.530916468650740   Change is   -0.495210875515476
 Root     22 :    12.943634674434580   Change is   -0.221592287928709
 Root     23 :    12.955198848874280   Change is   -0.253989677550876
 Root     24 :    13.120631133987520   Change is   -0.262583059561128
 Iteration     3 Dimension    54 NMult    48 NNew      6
 Estimated number of processors is:   20
 CISAX will form     1 AO SS matrices at one time.
 NMat=     1 NSing=     1 JSym2X= 2.
 CoulSu:  requested number of processors reduced to:  20 ShMem   1 Linda.
 NMat=     1 NSing=     1 JSym2X= 2.
 CoulSu:  requested number of processors reduced to:  20 ShMem   1 Linda.
 NMat=     1 NSing=     1 JSym2X= 2.
 CoulSu:  requested number of processors reduced to:  20 ShMem   1 Linda.
 NMat=     1 NSing=     0 JSym2X= 2.
 CoulSu:  requested number of processors reduced to:  20 ShMem   1 Linda.
 NMat=     1 NSing=     0 JSym2X= 2.
 CoulSu:  requested number of processors reduced to:  20 ShMem   1 Linda.
 NMat=     1 NSing=     0 JSym2X= 2.
 CoulSu:  requested number of processors reduced to:  20 ShMem   1 Linda.
 Root      1 not converged, maximum delta is    0.011777768895568
 Excitation Energies [eV] at current iteration:
 Root      1 :     7.194892923957148   Change is   -0.013046318069682
 Root      2 :     7.928120416341149   Change is   -0.010938893442904
 Root      3 :     8.903264732557043   Change is   -0.017742986493483
 Root      4 :     9.108960579761410   Change is   -0.100389119767262
 Root      5 :     9.242935475789828   Change is   -0.004973884022145
 Root      6 :     9.919176279986344   Change is   -0.014223058754553
 Iteration     4 Dimension    60 NMult    54 NNew      6
 Estimated number of processors is:   20
 CISAX will form     1 AO SS matrices at one time.
 NMat=     1 NSing=     1 JSym2X= 2.
 CoulSu:  requested number of processors reduced to:  20 ShMem   1 Linda.
 NMat=     1 NSing=     1 JSym2X= 2.
 CoulSu:  requested number of processors reduced to:  20 ShMem   1 Linda.
 NMat=     1 NSing=     1 JSym2X= 2.
 CoulSu:  requested number of processors reduced to:  20 ShMem   1 Linda.
 NMat=     1 NSing=     0 JSym2X= 2.
 CoulSu:  requested number of processors reduced to:  20 ShMem   1 Linda.
 NMat=     1 NSing=     0 JSym2X= 2.
 CoulSu:  requested number of processors reduced to:  20 ShMem   1 Linda.
 NMat=     1 NSing=     0 JSym2X= 2.
 CoulSu:  requested number of processors reduced to:  20 ShMem   1 Linda.
 Root      1 has converged.
 Excitation Energies [eV] at current iteration:
 Root      1 :     7.194765727928822   Change is   -0.000127196028327
 Root      2 :     7.928032552507270   Change is   -0.000087863833878
 Root      3 :     8.902931351340952   Change is   -0.000333381216091
 Root      4 :     9.091925613485200   Change is   -0.017034966276209
 Root      5 :     9.242859587263904   Change is   -0.000075888525924
 Root      6 :     9.917637750221751   Change is   -0.001538529764594
 Convergence achieved on expansion vectors.
 ***********************************************************************
 Stability analysis using <AA,BB:AA,BB> singles matrix:
 ***********************************************************************
 1PDM for each excited state written to RWF  633
 Ground to excited state transition densities written to RWF  633

 Eigenvectors of the stability matrix:
 
 Eigenvector   1:      Triplet-B1   Eigenvalue= 0.2644028  <S**2>=2.000
       5 ->  6         0.65379
       5 ->  8         0.10733
       5 -> 13        -0.15033
       5 -> 16        -0.15471
 The wavefunction is stable under the perturbations considered.
 Leave Link  914 at Sat Apr 17 06:10:58 2021, MaxMem=   104857600 cpu:            3147.7 elap:              83.8
 (Enter /s/ls4/users/knvvv/bin/g16sse/l508.exe)
 The wavefunction is already stable.
 Leave Link  508 at Sat Apr 17 06:10:58 2021, MaxMem=   104857600 cpu:               2.2 elap:               0.1
 (Enter /s/ls4/users/knvvv/bin/g16sse/l601.exe)
 Copying SCF densities to generalized density rwf, IOpCl= 0 IROHF=0.

 **********************************************************************

            Population analysis using the SCF density.

 **********************************************************************

 Orbital symmetries:
       Occupied  (A1) (A1) (B2) (A1) (B1)
       Virtual   (A1) (B2) (A1) (B1) (B2) (A1) (A2) (A1) (B1) (B2)
                 (A1) (B2) (B2) (A1) (B1) (A1) (A2) (A1) (B1) (B2)
                 (A1) (B2) (A2) (B1) (A1) (B2) (A1) (B2) (A1) (A1)
                 (B2) (B1) (A2) (A1) (A1) (B1) (B2) (B1) (A1) (B2)
                 (A1) (A2) (B2) (B1) (B2) (A2) (A1) (B2) (A2) (A1)
                 (B1) (A1) (B2) (A1) (B2) (A1) (B1) (A1) (A2) (B1)
                 (B2) (A1) (A1) (B1) (B2) (A2) (B2) (A1) (B1) (A1)
                 (B2) (B1) (A1) (A2) (B2) (A2) (A1) (B2) (B1) (B2)
                 (A1) (A2) (B1) (B2) (B2) (A1) (B1) (A1) (B1) (A1)
                 (A2) (B2) (A2) (A1) (B2) (A1) (A2) (B2) (B1) (A1)
                 (B2) (B1) (A1) (A1) (A2) (B2) (A1) (A2) (B2) (B1)
                 (B1) (A1) (B1) (A1) (B2) (A2) (A1) (B2) (B2) (A1)
                 (B1) (A2) (A1) (B2) (A1) (A1) (A1)
 The electronic state is 1-A1.
 Alpha  occ. eigenvalues --  -19.62898  -1.13582  -0.61124  -0.47610  -0.40333
 Alpha virt. eigenvalues --    0.01055   0.04178   0.06365   0.06387   0.13503
 Alpha virt. eigenvalues --    0.14782   0.17153   0.18812   0.19545   0.23196
 Alpha virt. eigenvalues --    0.25627   0.27648   0.35568   0.36734   0.40045
 Alpha virt. eigenvalues --    0.44667   0.46111   0.46117   0.51374   0.53304
 Alpha virt. eigenvalues --    0.54640   0.64996   0.77222   0.81491   0.84052
 Alpha virt. eigenvalues --    0.94632   1.00424   1.05699   1.11028   1.14631
 Alpha virt. eigenvalues --    1.33224   1.38463   1.44151   1.46192   1.51089
 Alpha virt. eigenvalues --    1.60186   1.62965   1.89701   1.95051   2.00914
 Alpha virt. eigenvalues --    2.03496   2.24771   2.27716   2.43826   2.44076
 Alpha virt. eigenvalues --    2.45844   2.55619   2.60543   2.65761   2.68402
 Alpha virt. eigenvalues --    2.69891   2.90638   3.09838   3.22131   3.27160
 Alpha virt. eigenvalues --    3.40627   3.69473   3.87810   3.90036   3.92803
 Alpha virt. eigenvalues --    4.07028   4.16138   4.24716   4.25425   4.40395
 Alpha virt. eigenvalues --    4.56108   4.79441   4.79853   5.29827   5.31497
 Alpha virt. eigenvalues --    5.41562   5.61984   5.82982   5.86030   5.93985
 Alpha virt. eigenvalues --    6.29893   6.43096   6.64901   6.94531   7.02742
 Alpha virt. eigenvalues --    7.10931   7.15955   7.24089   7.25159   7.30586
 Alpha virt. eigenvalues --    7.30923   7.52886   7.54303   7.64970   7.69635
 Alpha virt. eigenvalues --    7.71671   7.71844   7.81517   7.95786   8.18163
 Alpha virt. eigenvalues --    8.37389   8.45487   8.58879   8.62493   8.87189
 Alpha virt. eigenvalues --    8.91957   9.68522   9.69867  10.08489  10.17101
 Alpha virt. eigenvalues --   10.52589  10.59666  10.77330  10.91486  10.98598
 Alpha virt. eigenvalues --   11.14205  11.29548  11.57010  11.58758  11.68449
 Alpha virt. eigenvalues --   11.69364  12.11114  12.65214  13.26769  13.43325
 Alpha virt. eigenvalues --   13.45819  13.86215  14.23606  16.42799  16.45672
 Alpha virt. eigenvalues --   48.33612 251.40944
          Condensed to atoms (all electrons):
               1          2          3
     1  O    8.156602   0.278565   0.278565
     2  H    0.278565   0.383015  -0.018445
     3  H    0.278565  -0.018445   0.383015
 Mulliken charges:
               1
     1  O   -0.713731
     2  H    0.356866
     3  H    0.356866
 Sum of Mulliken charges =  -0.00000
 Mulliken charges with hydrogens summed into heavy atoms:
               1
     1  O   -0.000000
 Electronic spatial extent (au):  <R**2>=             19.8424
 Charge=             -0.0000 electrons
 Dipole moment (field-independent basis, Debye):
    X=             -0.0000    Y=              0.0000    Z=             -1.8897  Tot=              1.8897
 Quadrupole moment (field-independent basis, Debye-Ang):
   XX=             -7.7045   YY=             -4.3690   ZZ=             -6.4014
   XY=              0.0000   XZ=              0.0000   YZ=             -0.0000
 Traceless Quadrupole moment (field-independent basis, Debye-Ang):
   XX=             -1.5462   YY=              1.7893   ZZ=             -0.2431
   XY=              0.0000   XZ=              0.0000   YZ=             -0.0000
 Octapole moment (field-independent basis, Debye-Ang**2):
  XXX=              0.0000  YYY=             -0.0000  ZZZ=             -1.0142  XYY=             -0.0000
  XXY=             -0.0000  XXZ=             -0.2191  XZZ=              0.0000  YZZ=             -0.0000
  YYZ=             -1.3443  XYZ=             -0.0000
 Hexadecapole moment (field-independent basis, Debye-Ang**3):
 XXXX=             -7.2907 YYYY=             -6.3929 ZZZZ=             -7.6942 XXXY=             -0.0000
 XXXZ=             -0.0000 YYYX=             -0.0000 YYYZ=             -0.0000 ZZZX=             -0.0000
 ZZZY=             -0.0000 XXYY=             -2.6153 XXZZ=             -2.5467 YYZZ=             -2.0296
 XXYZ=              0.0000 YYXZ=              0.0000 ZZXY=              0.0000
 N-N= 9.158517514140D+00 E-N=-1.991582115223D+02  KE= 7.618325077318D+01
 PrsmSu:  requested number of processors reduced to:  21 ShMem   1 Linda.
 No NMR shielding tensors so no spin-rotation constants.
 Leave Link  601 at Sat Apr 17 06:11:00 2021, MaxMem=   104857600 cpu:              77.2 elap:               1.8
 (Enter /s/ls4/users/knvvv/bin/g16sse/l9999.exe)

 Test job not archived.
 1\1\GINC-N156\Stability\RM062X\Gen\H2O1\KNVVV\17-Apr-2021\0\\#P M062X/
 GEN Integral=UltraFineGrid SCF=NoSymm Stable=(RExt, Opt) IOp(1/33=1)\\
 Database calculations.\\0,1\O,0,0.,0.,-0.3893611097\H,0,0.7629843868,0
 .,0.1946805549\H,0,-0.7629843868,0.,0.1946805549\\Version=ES64L-G16Rev
 A.03\State=1-A1\HF=-76.4367919\RMSD=2.544e-09\Dipole=0.,0.,0.7434796\Q
 uadrupole=1.330305,-1.1495533,-0.1807517,0.,0.,0.\PG=C02V [C2(O1),SGV(
 H2)]\\@


 SILVERMAN'S PARADOX - IF MURPHY'S LAW CAN GO WRONG, IT WILL.
 Job cpu time:       0 days  1 hours 29 minutes 29.5 seconds.
 Elapsed time:       0 days  0 hours  2 minutes 12.3 seconds.
 File lengths (MBytes):  RWF=     56 Int=      0 D2E=      0 Chk=      3 Scr=      1
 Normal termination of Gaussian 16 at Sat Apr 17 06:11:00 2021.
