 Entering Gaussian System, Link 0=/s/ls4/users/knvvv/bin/g16sse/g16
 Input=data/database/M062X--def2-QZVPPD--220_ocs_W4-11.gjf
 Output=data/database/M062X--def2-QZVPPD--220_ocs_W4-11.log
 Initial command:
 /s/ls4/users/knvvv/bin/g16sse/l1.exe "/s/ls4/users/knvvv/bin/scratch/Gau-17125.inp" -scrdir="/s/ls4/users/knvvv/bin/scratch/"
 Entering Link 1 = /s/ls4/users/knvvv/bin/g16sse/l1.exe PID=     17126.
  
 Copyright (c) 1988,1990,1992,1993,1995,1998,2003,2009,2016,
            Gaussian, Inc.  All Rights Reserved.
  
 This is part of the Gaussian(R) 16 program.  It is based on
 the Gaussian(R) 09 system (copyright 2009, Gaussian, Inc.),
 the Gaussian(R) 03 system (copyright 2003, Gaussian, Inc.),
 the Gaussian(R) 98 system (copyright 1998, Gaussian, Inc.),
 the Gaussian(R) 94 system (copyright 1995, Gaussian, Inc.),
 the Gaussian 92(TM) system (copyright 1992, Gaussian, Inc.),
 the Gaussian 90(TM) system (copyright 1990, Gaussian, Inc.),
 the Gaussian 88(TM) system (copyright 1988, Gaussian, Inc.),
 the Gaussian 86(TM) system (copyright 1986, Carnegie Mellon
 University), and the Gaussian 82(TM) system (copyright 1983,
 Carnegie Mellon University). Gaussian is a federally registered
 trademark of Gaussian, Inc.
  
 This software contains proprietary and confidential information,
 including trade secrets, belonging to Gaussian, Inc.
  
 This software is provided under written license and may be
 used, copied, transmitted, or stored only in accord with that
 written license.
  
 The following legend is applicable only to US Government
 contracts under FAR:
  
                    RESTRICTED RIGHTS LEGEND
  
 Use, reproduction and disclosure by the US Government is
 subject to restrictions as set forth in subparagraphs (a)
 and (c) of the Commercial Computer Software - Restricted
 Rights clause in FAR 52.227-19.
  
 Gaussian, Inc.
 340 Quinnipiac St., Bldg. 40, Wallingford CT 06492
  
  
 ---------------------------------------------------------------
 Warning -- This program may not be used in any manner that
 competes with the business of Gaussian, Inc. or will provide
 assistance to any competitor of Gaussian, Inc.  The licensee
 of this program is prohibited from giving any competitor of
 Gaussian, Inc. access to this program.  By using this program,
 the user acknowledges that Gaussian, Inc. is engaged in the
 business of creating and licensing software in the field of
 computational chemistry and represents and warrants to the
 licensee that it is not a competitor of Gaussian, Inc. and that
 it will not use this program in any manner prohibited above.
 ---------------------------------------------------------------
  

 Cite this work as:
 Gaussian 16, Revision A.03,
 M. J. Frisch, G. W. Trucks, H. B. Schlegel, G. E. Scuseria, 
 M. A. Robb, J. R. Cheeseman, G. Scalmani, V. Barone, 
 G. A. Petersson, H. Nakatsuji, X. Li, M. Caricato, A. V. Marenich, 
 J. Bloino, B. G. Janesko, R. Gomperts, B. Mennucci, H. P. Hratchian, 
 J. V. Ortiz, A. F. Izmaylov, J. L. Sonnenberg, D. Williams-Young, 
 F. Ding, F. Lipparini, F. Egidi, J. Goings, B. Peng, A. Petrone, 
 T. Henderson, D. Ranasinghe, V. G. Zakrzewski, J. Gao, N. Rega, 
 G. Zheng, W. Liang, M. Hada, M. Ehara, K. Toyota, R. Fukuda, 
 J. Hasegawa, M. Ishida, T. Nakajima, Y. Honda, O. Kitao, H. Nakai, 
 T. Vreven, K. Throssell, J. A. Montgomery, Jr., J. E. Peralta, 
 F. Ogliaro, M. J. Bearpark, J. J. Heyd, E. N. Brothers, K. N. Kudin, 
 V. N. Staroverov, T. A. Keith, R. Kobayashi, J. Normand, 
 K. Raghavachari, A. P. Rendell, J. C. Burant, S. S. Iyengar, 
 J. Tomasi, M. Cossi, J. M. Millam, M. Klene, C. Adamo, R. Cammi, 
 J. W. Ochterski, R. L. Martin, K. Morokuma, O. Farkas, 
 J. B. Foresman, and D. J. Fox, Gaussian, Inc., Wallingford CT, 2016.
 
 ******************************************
 Gaussian 16:  ES64L-G16RevA.03 25-Dec-2016
                17-Apr-2021 
 ******************************************
 %RWF=temp8_52225,70GB
 %nprocshared=48
 Will use up to   48 processors via shared memory.
 Default route: MaxDisk=80GB
 ----------------------------------------------------------------------
 #P M062X/GEN Integral=UltraFineGrid SCF=NoSymm Stable=(RExt, Opt) IOp(
 1/33=1)
 ----------------------------------------------------------------------
 1/33=1,38=1,172=1/1;
 2/12=2,17=6,18=5,40=1/2;
 3/5=7,11=2,25=1,30=1,74=-55,75=-5/1,2,3;
 4/9=2/1;
 5/5=2,38=5/2;
 6/7=2,8=2,9=2,10=2,28=1/1;
 8/6=1,10=90,11=11/1;
 9/8=-3,42=1,46=1/14;
 5/5=2,8=3,17=40,38=5/8(-2);
 6/7=2,8=2,9=2,10=2,28=1/1;
 99/5=1,9=1/99;
 Leave Link    1 at Sat Apr 17 20:18:12 2021, MaxMem=           0 cpu:              11.2 elap:               0.3
 (Enter /s/ls4/users/knvvv/bin/g16sse/l101.exe)
 ONIOM data not found on unit 2.
 ----------------------
 Database calculations.
 ----------------------
 TstMul:  ICh=     0
 TstMul:  Mul=     1
 TstMul:  ICh=     0
 TstMul:  Mul=     1
 Symbolic Z-matrix:
 Charge =  0 Multiplicity = 1
 O                     0.        0.        0. 
 C                     0.        0.        1.15843 
 S                     0.        0.        2.72528 
 
 RdStrC is calling ZToCFu for IStruc=1 NZ=     3.
 PrtBox:  NBox=     1 Levels=  1 BoxLen=    8.00 SMaxX=        5.15
          Shift=            0.000000            0.000000            0.000000
 Box      1 Number                   0 centers from      1 to      3:
 After GenITR:
 ITRead=  0  0  0
 MicOpt= -1 -1 -1
 ITRead=  0  0  0
 MicOpt= -1 -1 -1
 NAtoms=      3 NQM=        3 NQMF=       0 NMMI=      0 NMMIF=      0
                NMic=       0 NMicF=      0.
                    Isotopes and Nuclear Properties:
 (Nuclear quadrupole moments (NQMom) in fm**2, nuclear magnetic moments (NMagM)
  in nuclear magnetons)

  Atom         1           2           3
 IAtWgt=          16          12          32
 AtmWgt=  15.9949146  12.0000000  31.9720718
 NucSpn=           0           0           0
 AtZEff=  -0.0000000  -0.0000000  -0.0000000
 NQMom=    0.0000000   0.0000000   0.0000000
 NMagM=    0.0000000   0.0000000   0.0000000
 AtZNuc=   8.0000000   6.0000000  16.0000000
 No MM parameters found.
 Leave Link  101 at Sat Apr 17 20:18:12 2021, MaxMem=   104857600 cpu:               6.6 elap:               0.2
 (Enter /s/ls4/users/knvvv/bin/g16sse/l202.exe)
                          Input orientation:                          
 ---------------------------------------------------------------------
 Center     Atomic      Atomic             Coordinates (Angstroms)
 Number     Number       Type             X           Y           Z
 ---------------------------------------------------------------------
      1          8           0        0.000000    0.000000    0.000000
      2          6           0        0.000000    0.000000    1.158432
      3         16           0        0.000000    0.000000    2.725283
 ---------------------------------------------------------------------
                    Distance matrix (angstroms):
                    1          2          3
     1  O    0.000000
     2  C    1.158432   0.000000
     3  S    2.725283   1.566851   0.000000
 Stoichiometry    COS
 Framework group  C*V[C*(OCS)]
 Deg. of freedom     2
 Full point group                 C*V     NOp   4
 Largest Abelian subgroup         C2V     NOp   4
 Largest concise Abelian subgroup C1      NOp   1
                         Standard orientation:                         
 ---------------------------------------------------------------------
 Center     Atomic      Atomic             Coordinates (Angstroms)
 Number     Number       Type             X           Y           Z
 ---------------------------------------------------------------------
      1          8           0        0.000000    0.000000   -1.685171
      2          6           0        0.000000    0.000000   -0.526739
      3         16           0        0.000000    0.000000    1.040112
 ---------------------------------------------------------------------
 Rotational constants (GHZ):           0.0000000           6.0640440           6.0640440
 Leave Link  202 at Sat Apr 17 20:18:12 2021, MaxMem=   104857600 cpu:               6.3 elap:               0.2
 (Enter /s/ls4/users/knvvv/bin/g16sse/l301.exe)
 General basis read from cards:  (5D, 7F)
 Centers:       2
 S 8 1.00
     Exponent=  6.7025071029D+04 Coefficients=  3.8736308501D-05
     Exponent=  1.0039986538D+04 Coefficients=  3.0107917575D-04
     Exponent=  2.2849316911D+03 Coefficients=  1.5787918095D-03
     Exponent=  6.4714122130D+02 Coefficients=  6.6087087195D-03
     Exponent=  2.1109472335D+02 Coefficients=  2.3367123250D-02
     Exponent=  7.6177643862D+01 Coefficients=  7.0420716898D-02
     Exponent=  2.9633839163D+01 Coefficients=  1.7360344953D-01
     Exponent=  1.2187785081D+01 Coefficients=  3.2292305648D-01
 S 2 1.00
     Exponent=  5.3026006299D+01 Coefficients=  7.4897404492D-02
     Exponent=  1.5258502776D+01 Coefficients=  7.6136220983D-01
 S 1 1.00
     Exponent=  5.2403957464D+00 Coefficients=  1.0000000000D+00
 S 1 1.00
     Exponent=  2.2905022379D+00 Coefficients=  1.0000000000D+00
 S 1 1.00
     Exponent=  6.9673283006D-01 Coefficients=  1.0000000000D+00
 S 1 1.00
     Exponent=  2.7599337363D-01 Coefficients=  1.0000000000D+00
 S 1 1.00
     Exponent=  1.0739884389D-01 Coefficients=  1.0000000000D+00
 S 1 1.00
     Exponent=  4.4981404899D-02 Coefficients=  1.0000000000D+00
 P 5 1.00
     Exponent=  1.0512555082D+02 Coefficients=  8.4647553844D-04
     Exponent=  2.4884461066D+01 Coefficients=  6.6274038534D-03
     Exponent=  7.8637230826D+00 Coefficients=  3.0120390419D-02
     Exponent=  2.8407001835D+00 Coefficients=  9.9951435476D-02
     Exponent=  1.1227137335D+00 Coefficients=  2.3826299282D-01
 P 1 1.00
     Exponent=  4.6050725555D-01 Coefficients=  1.0000000000D+00
 P 1 1.00
     Exponent=  1.8937530913D-01 Coefficients=  1.0000000000D+00
 P 1 1.00
     Exponent=  7.5983791611D-02 Coefficients=  1.0000000000D+00
 D 1 1.00
     Exponent=  1.8480000000D+00 Coefficients=  1.0000000000D+00
 D 1 1.00
     Exponent=  6.4900000000D-01 Coefficients=  1.0000000000D+00
 D 1 1.00
     Exponent=  2.2800000000D-01 Coefficients=  1.0000000000D+00
 D 1 1.00
     Exponent=  7.6889830417D-02 Coefficients=  1.0000000000D+00
 F 1 1.00
     Exponent=  1.4190000000D+00 Coefficients=  1.0000000000D+00
 F 1 1.00
     Exponent=  4.8500000000D-01 Coefficients=  1.0000000000D+00
 G 1 1.00
     Exponent=  1.0110000000D+00 Coefficients=  1.0000000000D+00
 ****
 Centers:       1
 S 8 1.00
     Exponent=  1.1650646908D+05 Coefficients=  4.0383857939D-05
     Exponent=  1.7504349724D+04 Coefficients=  3.1255139004D-04
     Exponent=  3.9934513230D+03 Coefficients=  1.6341473495D-03
     Exponent=  1.1330063186D+03 Coefficients=  6.8283224757D-03
     Exponent=  3.6999569594D+02 Coefficients=  2.4124410221D-02
     Exponent=  1.3362074349D+02 Coefficients=  7.2730206154D-02
     Exponent=  5.2035643649D+01 Coefficients=  1.7934429892D-01
     Exponent=  2.1461939313D+01 Coefficients=  3.3059588895D-01
 S 2 1.00
     Exponent=  8.9835051252D+01 Coefficients=  9.6468652996D-02
     Exponent=  2.6428010844D+01 Coefficients=  9.4117481120D-01
 S 1 1.00
     Exponent=  9.2822824649D+00 Coefficients=  1.0000000000D+00
 S 1 1.00
     Exponent=  4.0947728533D+00 Coefficients=  1.0000000000D+00
 S 1 1.00
     Exponent=  1.3255349078D+00 Coefficients=  1.0000000000D+00
 S 1 1.00
     Exponent=  5.1877230787D-01 Coefficients=  1.0000000000D+00
 S 1 1.00
     Exponent=  1.9772676454D-01 Coefficients=  1.0000000000D+00
 S 1 1.00
     Exponent=  6.9638535104D-02 Coefficients=  1.0000000000D+00
 P 5 1.00
     Exponent=  1.9115255810D+02 Coefficients=  2.5115697705D-03
     Exponent=  4.5233356739D+01 Coefficients=  2.0039240864D-02
     Exponent=  1.4353465922D+01 Coefficients=  9.3609064762D-02
     Exponent=  5.2422371832D+00 Coefficients=  3.0618127124D-01
     Exponent=  2.0792418599D+00 Coefficients=  6.7810501439D-01
 P 1 1.00
     Exponent=  8.4282371424D-01 Coefficients=  1.0000000000D+00
 P 1 1.00
     Exponent=  3.3617694891D-01 Coefficients=  1.0000000000D+00
 P 1 1.00
     Exponent=  1.2863997974D-01 Coefficients=  1.0000000000D+00
 P 1 1.00
     Exponent=  4.3598162776D-02 Coefficients=  1.0000000000D+00
 D 1 1.00
     Exponent=  3.7750000000D+00 Coefficients=  1.0000000000D+00
 D 1 1.00
     Exponent=  1.3000000000D+00 Coefficients=  1.0000000000D+00
 D 1 1.00
     Exponent=  4.4400000000D-01 Coefficients=  1.0000000000D+00
 D 1 1.00
     Exponent=  1.2546378695D-01 Coefficients=  1.0000000000D+00
 F 1 1.00
     Exponent=  2.6660000000D+00 Coefficients=  1.0000000000D+00
 F 1 1.00
     Exponent=  8.5900000000D-01 Coefficients=  1.0000000000D+00
 G 1 1.00
     Exponent=  1.8460000000D+00 Coefficients=  1.0000000000D+00
 ****
 Centers:       3
 S 10 1.00
     Exponent=  1.2734109023D+06 Coefficients=  1.1767088246D-05
     Exponent=  1.9069783007D+05 Coefficients=  9.1478610166D-05
     Exponent=  4.3397885330D+04 Coefficients=  4.8090078640D-04
     Exponent=  1.2291809677D+04 Coefficients=  2.0257193592D-03
     Exponent=  4.0097420824D+03 Coefficients=  7.3190096406D-03
     Exponent=  1.4473531030D+03 Coefficients=  2.3300499900D-02
     Exponent=  5.6430102913D+02 Coefficients=  6.5386213610D-02
     Exponent=  2.3374506243D+02 Coefficients=  1.5614449910D-01
     Exponent=  1.0156402814D+02 Coefficients=  2.9318563787D-01
     Exponent=  4.5805907187D+01 Coefficients=  3.6287914289D-01
 S 3 1.00
     Exponent=  3.9427281503D+02 Coefficients=  1.8753305081D-02
     Exponent=  1.2172249591D+02 Coefficients=  1.6870726663D-01
     Exponent=  4.6754125963D+01 Coefficients=  6.3806830653D-01
 S 1 1.00
     Exponent=  2.0923008254D+01 Coefficients=  1.0000000000D+00
 S 1 1.00
     Exponent=  8.2685567800D+00 Coefficients=  1.0000000000D+00
 S 1 1.00
     Exponent=  3.8629345671D+00 Coefficients=  1.0000000000D+00
 S 1 1.00
     Exponent=  1.7794684781D+00 Coefficients=  1.0000000000D+00
 S 1 1.00
     Exponent=  6.1064260103D-01 Coefficients=  1.0000000000D+00
 S 1 1.00
     Exponent=  2.7412269445D-01 Coefficients=  1.0000000000D+00
 S 1 1.00
     Exponent=  1.1325939107D-01 Coefficients=  1.0000000000D+00
 S 1 1.00
     Exponent=  4.4392624881D-02 Coefficients=  1.0000000000D+00
 P 8 1.00
     Exponent=  2.1898930459D+03 Coefficients=  2.3912552864D-04
     Exponent=  5.1894596592D+02 Coefficients=  2.0772032158D-03
     Exponent=  1.6819560151D+02 Coefficients=  1.1242420571D-02
     Exponent=  6.3745282788D+01 Coefficients=  4.4069933941D-02
     Exponent=  2.6597033077D+01 Coefficients=  1.2918778608D-01
     Exponent=  1.1774251449D+01 Coefficients=  2.6910820167D-01
     Exponent=  5.3534379024D+00 Coefficients=  3.7855928620D-01
     Exponent=  2.4701911802D+00 Coefficients=  2.9692134655D-01
 P 2 1.00
     Exponent=  8.2120288349D+01 Coefficients= -3.9420318847D-02
     Exponent=  4.9523532869D+00 Coefficients=  6.4048403090D-01
 P 1 1.00
     Exponent=  1.0828262029D+00 Coefficients=  1.0000000000D+00
 P 1 1.00
     Exponent=  4.9271277356D-01 Coefficients=  1.0000000000D+00
 P 1 1.00
     Exponent=  2.0483450942D-01 Coefficients=  1.0000000000D+00
 P 1 1.00
     Exponent=  8.0743615716D-02 Coefficients=  1.0000000000D+00
 P 1 1.00
     Exponent=  2.5661157833D-02 Coefficients=  1.0000000000D+00
 D 1 1.00
     Exponent=  4.1590000000D+00 Coefficients=  1.0000000000D+00
 D 1 1.00
     Exponent=  1.0190000000D+00 Coefficients=  1.0000000000D+00
 D 1 1.00
     Exponent=  4.6400000000D-01 Coefficients=  1.0000000000D+00
 D 1 1.00
     Exponent=  1.9400000000D-01 Coefficients=  1.0000000000D+00
 D 1 1.00
     Exponent=  6.7889829366D-02 Coefficients=  1.0000000000D+00
 F 1 1.00
     Exponent=  8.6900000000D-01 Coefficients=  1.0000000000D+00
 F 1 1.00
     Exponent=  3.3500000000D-01 Coefficients=  1.0000000000D+00
 G 1 1.00
     Exponent=  6.8300000000D-01 Coefficients=  1.0000000000D+00
 ****
 Ernie: Thresh=  0.10000D-02 Tol=  0.10000D-05 Strict=F.
 There are   117 symmetry adapted cartesian basis functions of A1  symmetry.
 There are    28 symmetry adapted cartesian basis functions of A2  symmetry.
 There are    56 symmetry adapted cartesian basis functions of B1  symmetry.
 There are    56 symmetry adapted cartesian basis functions of B2  symmetry.
 There are    89 symmetry adapted basis functions of A1  symmetry.
 There are    25 symmetry adapted basis functions of A2  symmetry.
 There are    47 symmetry adapted basis functions of B1  symmetry.
 There are    47 symmetry adapted basis functions of B2  symmetry.
   208 basis functions,   332 primitive gaussians,   257 cartesian basis functions
    15 alpha electrons       15 beta electrons
       nuclear repulsion energy        79.2031736030 Hartrees.
 IExCor= 4336 DFT=T Ex+Corr=M062X ExCW=0 ScaHFX=  0.540000
 ScaDFX=  1.000000  1.000000  1.000000  1.000000 ScalE2=  1.000000  1.000000
 IRadAn=      5 IRanWt=     -1 IRanGd=            0 ICorTp=0 IEmpDi=  4
 NAtoms=    3 NActive=    3 NUniq=    3 SFac= 1.00D+00 NAtFMM=   60 NAOKFM=F Big=F
 Integral buffers will be    131072 words long.
 Raffenetti 2 integral format.
 Two-electron integral symmetry is turned on.
 Leave Link  301 at Sat Apr 17 20:18:13 2021, MaxMem=   104857600 cpu:               7.5 elap:               0.2
 (Enter /s/ls4/users/knvvv/bin/g16sse/l302.exe)
 NPDir=0 NMtPBC=     1 NCelOv=     1 NCel=       1 NClECP=     1 NCelD=      1
         NCelK=      1 NCelE2=     1 NClLst=     1 CellRange=     0.0.
 One-electron integrals computed using PRISM.
 One-electron integral symmetry used in STVInt
 PrsmSu:  requested number of processors reduced to:   4 ShMem   1 Linda.
 PrsmSu:  requested number of processors reduced to:  21 ShMem   1 Linda.
 NBasis=   208 RedAO= T EigKep=  2.27D-05  NBF=    89    25    47    47
 NBsUse=   208 1.00D-06 EigRej= -1.00D+00 NBFU=    89    25    47    47
 Precomputing XC quadrature grid using
 IXCGrd= 4 IRadAn=           5 IRanWt=          -1 IRanGd=           0 AccXCQ= 0.00D+00.
 Generated NRdTot=       0 NPtTot=           0 NUsed=           0 NTot=          32
 NSgBfM=   256   255   256   256   256 MxSgAt=     3 MxSgA2=     3.
 Leave Link  302 at Sat Apr 17 20:18:22 2021, MaxMem=   104857600 cpu:             442.8 elap:               9.5
 (Enter /s/ls4/users/knvvv/bin/g16sse/l303.exe)
 DipDrv:  MaxL=1.
 Leave Link  303 at Sat Apr 17 20:18:23 2021, MaxMem=   104857600 cpu:              48.8 elap:               1.1
 (Enter /s/ls4/users/knvvv/bin/g16sse/l401.exe)
 SCF N**3 symmetry information disabled.
 ExpMin= 2.57D-02 ExpMax= 1.27D+06 ExpMxC= 1.45D+03 IAcc=3 IRadAn=         5 AccDes= 0.00D+00
 Harris functional with IExCor= 1009 and IRadAn=       5 diagonalized for initial guess.
 HarFok:  IExCor= 1009 AccDes= 0.00D+00 IRadAn=         5 IDoV= 1 UseB2=F ITyADJ=14
 ICtDFT=  3500011 ScaDFX=  1.000000  1.000000  1.000000  1.000000
 FoFCou: FMM=F IPFlag=           0 FMFlag=      100000 FMFlg1=           0
         NFxFlg=           0 DoJE=T BraDBF=F KetDBF=T FulRan=T
         wScrn=  0.000000 ICntrl=       500 IOpCl=  0 I1Cent=   200000004 NGrid=           0
         NMat0=    1 NMatS0=      1 NMatT0=    0 NMatD0=    1 NMtDS0=    0 NMtDT0=    0
 Petite list used in FoFCou.
 CoulSu:  requested number of processors reduced to:  21 ShMem   1 Linda.
 CoulSu:  requested number of processors reduced to:  21 ShMem   1 Linda.
 CoulSu:  requested number of processors reduced to:  21 ShMem   1 Linda.
 CoulSu:  requested number of processors reduced to:  21 ShMem   1 Linda.
 Harris En= -511.305492732100    
 JPrj=0 DoOrth=F DoCkMO=F.
 Initial guess orbital symmetries:
       Occupied  (SG) (SG) (SG) (SG) (SG) (PI) (PI) (SG) (SG) (SG)
                 (PI) (PI) (SG) (PI) (PI)
       Virtual   (PI) (PI) (SG) (SG) (PI) (PI) (SG) (SG) (PI) (PI)
                 (DLTA) (DLTA) (SG) (SG) (PI) (PI) (SG) (PI) (PI)
                 (DLTA) (DLTA) (SG) (PI) (PI) (SG) (DLTA) (DLTA)
                 (SG) (PI) (PI) (SG) (PI) (PI) (DLTA) (DLTA) (SG)
                 (SG) (PI) (PI) (PI) (PI) (DLTA) (DLTA) (SG) (SG)
                 (SG) (PI) (PI) (SG) (PI) (PI) (PHI) (PHI) (SG)
                 (DLTA) (DLTA) (PI) (PI) (DLTA) (DLTA) (SG) (PI)
                 (PI) (DLTA) (DLTA) (SG) (SG) (PI) (PI) (PI) (PI)
                 (SG) (PHI) (PHI) (SG) (PI) (PI) (DLTA) (DLTA)
                 (SG) (DLTA) (DLTA) (SG) (PI) (PI) (SG) (SG) (PI)
                 (PI) (DLTA) (DLTA) (PI) (PI) (PHI) (PHI) (?A)
                 (?A) (SG) (PI) (PI) (PHI) (PHI) (DLTA) (DLTA)
                 (PHI) (PHI) (SG) (DLTA) (DLTA) (PI) (PI) (SG)
                 (PI) (PI) (SG) (DLTA) (DLTA) (SG) (PI) (PI) (DLTA)
                 (DLTA) (SG) (PI) (PI) (PI) (PI) (SG) (?A) (?A)
                 (PHI) (PHI) (SG) (SG) (PI) (PI) (SG) (DLTA) (DLTA)
                 (PI) (PI) (PHI) (PHI) (DLTA) (DLTA) (DLTA) (DLTA)
                 (PI) (PI) (SG) (SG) (SG) (PI) (PI) (SG) (DLTA)
                 (DLTA) (?A) (?A) (PI) (PI) (PHI) (PHI) (SG) (DLTA)
                 (DLTA) (SG) (SG) (PI) (PI) (PHI) (PHI) (DLTA)
                 (DLTA) (PI) (PI) (SG) (DLTA) (DLTA) (PI) (PI)
                 (SG) (SG) (SG) (SG) (PI) (PI) (SG) (SG) (SG) (SG)
                 (SG) (SG)
 The electronic state of the initial guess is 1-SG.
 Leave Link  401 at Sat Apr 17 20:18:24 2021, MaxMem=   104857600 cpu:              33.0 elap:               0.9
 (Enter /s/ls4/users/knvvv/bin/g16sse/l502.exe)
 Integral symmetry usage will be decided dynamically.
 Closed shell SCF:
 Using DIIS extrapolation, IDIIS=  1040.
 NGot=   104857600 LenX=   104709512 LenY=   104643022
 Requested convergence on RMS density matrix=1.00D-08 within 128 cycles.
 Requested convergence on MAX density matrix=1.00D-06.
 Requested convergence on             energy=1.00D-06.
 No special actions if energy rises.
 Fock matrices will be formed incrementally for  20 cycles.

 Cycle   1  Pass 1  IDiag  1:
 FoFJK:  IHMeth= 1 ICntrl=       0 DoSepK=F KAlg= 0 I1Cent=           0 FoldK=F
 IRaf= 970000000 NMat=       1 IRICut=       1 DoRegI=T DoRafI=F ISym2E= 1 IDoP0=0 IntGTp=1.
 FoFCou: FMM=F IPFlag=           0 FMFlag=      100000 FMFlg1=           0
         NFxFlg=           0 DoJE=F BraDBF=F KetDBF=F FulRan=T
         wScrn=  0.000000 ICntrl=         0 IOpCl=  0 I1Cent=           0 NGrid=           0
         NMat0=    1 NMatS0=      1 NMatT0=    0 NMatD0=    1 NMtDS0=    0 NMtDT0=    0
 Petite list used in FoFCou.
 CoulSu:  requested number of processors reduced to:  21 ShMem   1 Linda.
 E= -511.491088538193    
 DIIS: error= 4.18D-02 at cycle   1 NSaved=   1.
 NSaved= 1 IEnMin= 1 EnMin= -511.491088538193     IErMin= 1 ErrMin= 4.18D-02
 ErrMax= 4.18D-02  0.00D+00 EMaxC= 1.00D-01 BMatC= 1.91D-01 BMatP= 1.91D-01
 IDIUse=3 WtCom= 5.82D-01 WtEn= 4.18D-01
 Coeff-Com:  0.100D+01
 Coeff-En:   0.100D+01
 Coeff:      0.100D+01
 Gap=     0.391 Goal=   None    Shift=    0.000
 GapD=    0.391 DampG=1.000 DampE=0.500 DampFc=0.5000 IDamp=-1.
 Damping current iteration by 5.00D-01
 RMSDP=2.46D-03 MaxDP=1.69D-01              OVMax= 2.42D-01

 Cycle   2  Pass 1  IDiag  1:
 RMSU=  1.21D-03    CP:  9.80D-01
 CoulSu:  requested number of processors reduced to:  21 ShMem   1 Linda.
 E= -511.505089347290     Delta-E=       -0.014000809098 Rises=F Damp=T
 DIIS: error= 2.09D-02 at cycle   2 NSaved=   2.
 NSaved= 2 IEnMin= 2 EnMin= -511.505089347290     IErMin= 2 ErrMin= 2.09D-02
 ErrMax= 2.09D-02  0.00D+00 EMaxC= 1.00D-01 BMatC= 3.98D-02 BMatP= 1.91D-01
 IDIUse=3 WtCom= 7.91D-01 WtEn= 2.09D-01
 Coeff-Com:  0.576D-01 0.942D+00
 Coeff-En:   0.400D+00 0.600D+00
 Coeff:      0.129D+00 0.871D+00
 Gap=     0.407 Goal=   None    Shift=    0.000
 RMSDP=1.19D-03 MaxDP=9.57D-02 DE=-1.40D-02 OVMax= 1.55D-01

 Cycle   3  Pass 1  IDiag  1:
 RMSU=  1.02D-03    CP:  9.59D-01  1.47D+00
 CoulSu:  requested number of processors reduced to:  21 ShMem   1 Linda.
 E= -511.549966663832     Delta-E=       -0.044877316541 Rises=F Damp=F
 DIIS: error= 1.14D-02 at cycle   3 NSaved=   3.
 NSaved= 3 IEnMin= 3 EnMin= -511.549966663832     IErMin= 3 ErrMin= 1.14D-02
 ErrMax= 1.14D-02  0.00D+00 EMaxC= 1.00D-01 BMatC= 1.35D-02 BMatP= 3.98D-02
 IDIUse=3 WtCom= 8.86D-01 WtEn= 1.14D-01
 Coeff-Com: -0.161D+00 0.392D+00 0.769D+00
 Coeff-En:   0.000D+00 0.000D+00 0.100D+01
 Coeff:     -0.143D+00 0.348D+00 0.795D+00
 Gap=     0.358 Goal=   None    Shift=    0.000
 RMSDP=2.96D-04 MaxDP=8.98D-03 DE=-4.49D-02 OVMax= 3.49D-02

 Cycle   4  Pass 1  IDiag  1:
 RMSU=  1.79D-04    CP:  9.59D-01  1.60D+00  8.30D-01
 CoulSu:  requested number of processors reduced to:  21 ShMem   1 Linda.
 E= -511.559282087382     Delta-E=       -0.009315423550 Rises=F Damp=F
 DIIS: error= 4.17D-03 at cycle   4 NSaved=   4.
 NSaved= 4 IEnMin= 4 EnMin= -511.559282087382     IErMin= 4 ErrMin= 4.17D-03
 ErrMax= 4.17D-03  0.00D+00 EMaxC= 1.00D-01 BMatC= 1.73D-03 BMatP= 1.35D-02
 IDIUse=3 WtCom= 9.58D-01 WtEn= 4.17D-02
 Coeff-Com: -0.530D-01 0.112D+00 0.383D+00 0.558D+00
 Coeff-En:   0.000D+00 0.000D+00 0.707D-01 0.929D+00
 Coeff:     -0.508D-01 0.108D+00 0.370D+00 0.573D+00
 Gap=     0.360 Goal=   None    Shift=    0.000
 RMSDP=1.18D-04 MaxDP=4.78D-03 DE=-9.32D-03 OVMax= 1.30D-02

 Cycle   5  Pass 1  IDiag  1:
 RMSU=  9.05D-05    CP:  9.57D-01  1.63D+00  8.69D-01  7.08D-01
 CoulSu:  requested number of processors reduced to:  21 ShMem   1 Linda.
 E= -511.560439217079     Delta-E=       -0.001157129697 Rises=F Damp=F
 DIIS: error= 1.18D-03 at cycle   5 NSaved=   5.
 NSaved= 5 IEnMin= 5 EnMin= -511.560439217079     IErMin= 5 ErrMin= 1.18D-03
 ErrMax= 1.18D-03  0.00D+00 EMaxC= 1.00D-01 BMatC= 1.21D-04 BMatP= 1.73D-03
 IDIUse=3 WtCom= 9.88D-01 WtEn= 1.18D-02
 Coeff-Com:  0.227D-02-0.625D-02 0.717D-01 0.294D+00 0.639D+00
 Coeff-En:   0.000D+00 0.000D+00 0.000D+00 0.000D+00 0.100D+01
 Coeff:      0.224D-02-0.618D-02 0.708D-01 0.290D+00 0.643D+00
 Gap=     0.359 Goal=   None    Shift=    0.000
 RMSDP=3.38D-05 MaxDP=9.25D-04 DE=-1.16D-03 OVMax= 3.08D-03

 Cycle   6  Pass 1  IDiag  1:
 RMSU=  2.50D-05    CP:  9.56D-01  1.63D+00  8.85D-01  7.82D-01  9.43D-01
 CoulSu:  requested number of processors reduced to:  21 ShMem   1 Linda.
 E= -511.560553786261     Delta-E=       -0.000114569182 Rises=F Damp=F
 DIIS: error= 1.20D-04 at cycle   6 NSaved=   6.
 NSaved= 6 IEnMin= 6 EnMin= -511.560553786261     IErMin= 6 ErrMin= 1.20D-04
 ErrMax= 1.20D-04  0.00D+00 EMaxC= 1.00D-01 BMatC= 1.76D-06 BMatP= 1.21D-04
 IDIUse=3 WtCom= 9.99D-01 WtEn= 1.20D-03
 Coeff-Com:  0.240D-02-0.604D-02 0.355D-02 0.511D-01 0.126D+00 0.823D+00
 Coeff-En:   0.000D+00 0.000D+00 0.000D+00 0.000D+00 0.000D+00 0.100D+01
 Coeff:      0.240D-02-0.603D-02 0.355D-02 0.510D-01 0.126D+00 0.823D+00
 Gap=     0.359 Goal=   None    Shift=    0.000
 RMSDP=8.31D-06 MaxDP=3.18D-04 DE=-1.15D-04 OVMax= 5.97D-04

 Cycle   7  Pass 1  IDiag  1:
 RMSU=  4.33D-06    CP:  9.56D-01  1.63D+00  8.87D-01  8.01D-01  9.83D-01
                    CP:  9.93D-01
 CoulSu:  requested number of processors reduced to:  21 ShMem   1 Linda.
 E= -511.560555546181     Delta-E=       -0.000001759920 Rises=F Damp=F
 DIIS: error= 4.04D-05 at cycle   7 NSaved=   7.
 NSaved= 7 IEnMin= 7 EnMin= -511.560555546181     IErMin= 7 ErrMin= 4.04D-05
 ErrMax= 4.04D-05  0.00D+00 EMaxC= 1.00D-01 BMatC= 2.69D-07 BMatP= 1.76D-06
 IDIUse=1 WtCom= 1.00D+00 WtEn= 0.00D+00
 Coeff-Com:  0.105D-02-0.210D-02-0.858D-02-0.198D-01-0.517D-01 0.156D+00
 Coeff-Com:  0.925D+00
 Coeff:      0.105D-02-0.210D-02-0.858D-02-0.198D-01-0.517D-01 0.156D+00
 Coeff:      0.925D+00
 Gap=     0.359 Goal=   None    Shift=    0.000
 RMSDP=2.97D-06 MaxDP=1.06D-04 DE=-1.76D-06 OVMax= 2.49D-04

 Cycle   8  Pass 1  IDiag  1:
 RMSU=  1.26D-06    CP:  9.56D-01  1.63D+00  8.88D-01  8.06D-01  9.93D-01
                    CP:  1.07D+00  1.10D+00
 CoulSu:  requested number of processors reduced to:  21 ShMem   1 Linda.
 E= -511.560555825658     Delta-E=       -0.000000279477 Rises=F Damp=F
 DIIS: error= 8.34D-06 at cycle   8 NSaved=   8.
 NSaved= 8 IEnMin= 8 EnMin= -511.560555825658     IErMin= 8 ErrMin= 8.34D-06
 ErrMax= 8.34D-06  0.00D+00 EMaxC= 1.00D-01 BMatC= 3.00D-09 BMatP= 2.69D-07
 IDIUse=1 WtCom= 1.00D+00 WtEn= 0.00D+00
 Coeff-Com: -0.179D-03 0.384D-03 0.130D-02 0.164D-02 0.250D-02-0.350D-01
 Coeff-Com: -0.140D+00 0.117D+01
 Coeff:     -0.179D-03 0.384D-03 0.130D-02 0.164D-02 0.250D-02-0.350D-01
 Coeff:     -0.140D+00 0.117D+01
 Gap=     0.359 Goal=   None    Shift=    0.000
 RMSDP=7.45D-07 MaxDP=3.33D-05 DE=-2.79D-07 OVMax= 5.83D-05

 Cycle   9  Pass 1  IDiag  1:
 RMSU=  3.99D-07    CP:  9.56D-01  1.63D+00  8.88D-01  8.07D-01  9.91D-01
                    CP:  1.07D+00  1.13D+00  1.26D+00
 CoulSu:  requested number of processors reduced to:  21 ShMem   1 Linda.
 E= -511.560555831965     Delta-E=       -0.000000006306 Rises=F Damp=F
 DIIS: error= 1.11D-06 at cycle   9 NSaved=   9.
 NSaved= 9 IEnMin= 9 EnMin= -511.560555831965     IErMin= 9 ErrMin= 1.11D-06
 ErrMax= 1.11D-06  0.00D+00 EMaxC= 1.00D-01 BMatC= 1.04D-10 BMatP= 3.00D-09
 IDIUse=1 WtCom= 1.00D+00 WtEn= 0.00D+00
 Coeff-Com: -0.217D-04 0.447D-04 0.224D-03 0.350D-03 0.112D-02-0.322D-02
 Coeff-Com: -0.216D-01-0.275D-01 0.105D+01
 Coeff:     -0.217D-04 0.447D-04 0.224D-03 0.350D-03 0.112D-02-0.322D-02
 Coeff:     -0.216D-01-0.275D-01 0.105D+01
 Gap=     0.359 Goal=   None    Shift=    0.000
 RMSDP=1.07D-07 MaxDP=5.23D-06 DE=-6.31D-09 OVMax= 7.68D-06

 Cycle  10  Pass 1  IDiag  1:
 RMSU=  2.87D-08    CP:  9.56D-01  1.63D+00  8.88D-01  8.07D-01  9.90D-01
                    CP:  1.07D+00  1.14D+00  1.29D+00  1.12D+00
 CoulSu:  requested number of processors reduced to:  21 ShMem   1 Linda.
 E= -511.560555832104     Delta-E=       -0.000000000139 Rises=F Damp=F
 DIIS: error= 1.87D-07 at cycle  10 NSaved=  10.
 NSaved=10 IEnMin=10 EnMin= -511.560555832104     IErMin=10 ErrMin= 1.87D-07
 ErrMax= 1.87D-07  0.00D+00 EMaxC= 1.00D-01 BMatC= 3.99D-12 BMatP= 1.04D-10
 IDIUse=1 WtCom= 1.00D+00 WtEn= 0.00D+00
 Coeff-Com:  0.523D-05-0.109D-04-0.209D-04-0.475D-04-0.650D-04 0.797D-03
 Coeff-Com:  0.337D-02-0.315D-01 0.366D-01 0.991D+00
 Coeff:      0.523D-05-0.109D-04-0.209D-04-0.475D-04-0.650D-04 0.797D-03
 Coeff:      0.337D-02-0.315D-01 0.366D-01 0.991D+00
 Gap=     0.359 Goal=   None    Shift=    0.000
 RMSDP=1.03D-08 MaxDP=4.75D-07 DE=-1.39D-10 OVMax= 8.17D-07

 Cycle  11  Pass 1  IDiag  1:
 RMSU=  4.95D-09    CP:  9.56D-01  1.63D+00  8.88D-01  8.07D-01  9.90D-01
                    CP:  1.07D+00  1.14D+00  1.29D+00  1.13D+00  1.09D+00
 CoulSu:  requested number of processors reduced to:  21 ShMem   1 Linda.
 E= -511.560555832110     Delta-E=       -0.000000000006 Rises=F Damp=F
 DIIS: error= 3.49D-08 at cycle  11 NSaved=  11.
 NSaved=11 IEnMin=11 EnMin= -511.560555832110     IErMin=11 ErrMin= 3.49D-08
 ErrMax= 3.49D-08  0.00D+00 EMaxC= 1.00D-01 BMatC= 1.01D-13 BMatP= 3.99D-12
 IDIUse=1 WtCom= 1.00D+00 WtEn= 0.00D+00
 Coeff-Com:  0.392D-06-0.892D-06-0.166D-05-0.224D-05 0.695D-05 0.249D-04
 Coeff-Com:  0.157D-03 0.121D-02-0.256D-01 0.246D-01 0.100D+01
 Coeff:      0.392D-06-0.892D-06-0.166D-05-0.224D-05 0.695D-05 0.249D-04
 Coeff:      0.157D-03 0.121D-02-0.256D-01 0.246D-01 0.100D+01
 Gap=     0.359 Goal=   None    Shift=    0.000
 RMSDP=1.54D-09 MaxDP=4.42D-08 DE=-5.68D-12 OVMax= 1.04D-07

 SCF Done:  E(RM062X) =  -511.560555832     A.U. after   11 cycles
            NFock= 11  Conv=0.15D-08     -V/T= 2.0019
 KE= 5.105655700044D+02 PE=-1.371629282960D+03 EE= 2.702999835201D+02
 Leave Link  502 at Sat Apr 17 20:19:00 2021, MaxMem=   104857600 cpu:            1397.1 elap:              35.8
 (Enter /s/ls4/users/knvvv/bin/g16sse/l601.exe)
 Copying SCF densities to generalized density rwf, IOpCl= 0 IROHF=0.

 **********************************************************************

            Population analysis using the SCF density.

 **********************************************************************

 Orbital symmetries:
       Occupied  (SG) (SG) (SG) (SG) (SG) (PI) (PI) (SG) (SG) (SG)
                 (PI) (PI) (SG) (PI) (PI)
       Virtual   (PI) (PI) (SG) (SG) (PI) (PI) (SG) (PI) (PI) (SG)
                 (SG) (DLTA) (DLTA) (SG) (PI) (PI) (SG) (DLTA)
                 (DLTA) (PI) (PI) (SG) (PI) (PI) (SG) (SG) (DLTA)
                 (DLTA) (SG) (PI) (PI) (PI) (PI) (DLTA) (DLTA)
                 (SG) (PI) (PI) (SG) (PI) (PI) (DLTA) (DLTA) (SG)
                 (SG) (SG) (PI) (PI) (SG) (PI) (PI) (PHI) (PHI)
                 (SG) (DLTA) (DLTA) (PI) (PI) (DLTA) (DLTA) (SG)
                 (PI) (PI) (SG) (DLTA) (DLTA) (SG) (PI) (PI) (PI)
                 (PI) (SG) (PHI) (PHI) (SG) (PI) (PI) (DLTA) (DLTA)
                 (SG) (DLTA) (DLTA) (SG) (PI) (PI) (SG) (SG) (PI)
                 (PI) (DLTA) (DLTA) (PI) (PI) (PHI) (PHI) (?A)
                 (?A) (SG) (PI) (PI) (PHI) (PHI) (DLTA) (DLTA)
                 (PHI) (PHI) (SG) (DLTA) (DLTA) (SG) (PI) (PI)
                 (PI) (PI) (SG) (DLTA) (DLTA) (SG) (PI) (PI) (DLTA)
                 (DLTA) (SG) (PI) (PI) (PI) (PI) (?A) (?A) (SG)
                 (PHI) (PHI) (SG) (SG) (SG) (PI) (PI) (DLTA) (DLTA)
                 (PI) (PI) (PHI) (PHI) (DLTA) (DLTA) (DLTA) (DLTA)
                 (PI) (PI) (SG) (SG) (SG) (PI) (PI) (SG) (DLTA)
                 (DLTA) (?A) (?A) (PI) (PI) (PHI) (PHI) (SG) (DLTA)
                 (DLTA) (SG) (SG) (PI) (PI) (PHI) (PHI) (DLTA)
                 (DLTA) (PI) (PI) (SG) (DLTA) (DLTA) (PI) (PI)
                 (SG) (SG) (SG) (SG) (PI) (PI) (SG) (SG) (SG) (SG)
                 (SG) (SG)
 The electronic state is 1-SG.
 Alpha  occ. eigenvalues --  -89.93980 -19.71860 -10.71466  -8.29670  -6.21857
 Alpha  occ. eigenvalues --   -6.21471  -6.21471  -1.27012  -0.91322  -0.64651
 Alpha  occ. eigenvalues --   -0.56286  -0.56286  -0.54087  -0.36125  -0.36125
 Alpha virt. eigenvalues --   -0.00222  -0.00222   0.00160   0.01941   0.03099
 Alpha virt. eigenvalues --    0.03099   0.05967   0.07147   0.07147   0.09197
 Alpha virt. eigenvalues --    0.11358   0.12648   0.12648   0.15164   0.18284
 Alpha virt. eigenvalues --    0.18284   0.21953   0.21969   0.21969   0.22702
 Alpha virt. eigenvalues --    0.22702   0.25633   0.29435   0.29435   0.30698
 Alpha virt. eigenvalues --    0.37836   0.38481   0.38482   0.39806   0.40413
 Alpha virt. eigenvalues --    0.40413   0.41355   0.41355   0.45729   0.45729
 Alpha virt. eigenvalues --    0.55030   0.57582   0.57582   0.58081   0.64234
 Alpha virt. eigenvalues --    0.64234   0.66432   0.66432   0.67787   0.74273
 Alpha virt. eigenvalues --    0.82518   0.91848   0.91848   0.93533   0.95287
 Alpha virt. eigenvalues --    0.95287   1.04107   1.04107   1.08583   1.09098
 Alpha virt. eigenvalues --    1.09102   1.13993   1.13993   1.18043   1.18044
 Alpha virt. eigenvalues --    1.19676   1.23899   1.23899   1.38660   1.39653
 Alpha virt. eigenvalues --    1.39653   1.48545   1.54672   1.54672   1.63472
 Alpha virt. eigenvalues --    1.63472   1.65900   1.67397   1.67397   1.80769
 Alpha virt. eigenvalues --    1.89804   1.89804   1.90718   1.90718   2.07265
 Alpha virt. eigenvalues --    2.15171   2.15171   2.15291   2.28557   2.28557
 Alpha virt. eigenvalues --    2.40577   2.48857   2.53625   2.53625   2.73054
 Alpha virt. eigenvalues --    2.73057   2.84233   2.84233   2.90536   2.90536
 Alpha virt. eigenvalues --    2.91368   2.91370   2.98081   3.03300   3.03300
 Alpha virt. eigenvalues --    3.10242   3.10242   3.10811   3.10816   3.19040
 Alpha virt. eigenvalues --    3.19040   3.24057   3.32564   3.32566   3.48602
 Alpha virt. eigenvalues --    3.49238   3.49238   3.74714   3.74714   3.76541
 Alpha virt. eigenvalues --    3.91681   3.91681   4.01060   4.10594   4.10594
 Alpha virt. eigenvalues --    4.10880   4.10880   4.16405   4.53229   4.53229
 Alpha virt. eigenvalues --    4.64643   4.64643   4.68874   4.68875   4.73111
 Alpha virt. eigenvalues --    4.92011   4.92011   5.08242   5.50769   5.59770
 Alpha virt. eigenvalues --    5.59973   5.59973   5.60902   5.60903   5.74518
 Alpha virt. eigenvalues --    5.74518   5.79128   5.79128   5.93100   5.93102
 Alpha virt. eigenvalues --    6.16763   6.16763   6.48180   6.48180   6.61212
 Alpha virt. eigenvalues --    7.33387   7.78470   7.85466   7.85466   8.06283
 Alpha virt. eigenvalues --    8.72644   8.72644   8.72997   8.72997   8.94399
 Alpha virt. eigenvalues --    8.94399   8.95844   8.95844   9.55302   9.83690
 Alpha virt. eigenvalues --    9.83690  10.02177  10.19227  10.33261  10.33261
 Alpha virt. eigenvalues --   10.78744  10.78744  11.16903  11.16903  11.75675
 Alpha virt. eigenvalues --   11.75675  11.90862  12.01047  12.01049  13.34515
 Alpha virt. eigenvalues --   13.34515  14.00838  14.51179  24.49745  28.59105
 Alpha virt. eigenvalues --   28.97505  28.97505  29.56633  48.23670  84.20532
 Alpha virt. eigenvalues --  146.00422 251.35071 449.99952
          Condensed to atoms (all electrons):
               1          2          3
     1  O    7.953377   0.445123  -0.047284
     2  C    0.445123   4.768054   0.486807
     3  S   -0.047284   0.486807  15.509276
 Mulliken charges:
               1
     1  O   -0.351216
     2  C    0.300015
     3  S    0.051200
 Sum of Mulliken charges =  -0.00000
 Mulliken charges with hydrogens summed into heavy atoms:
               1
     1  O   -0.351216
     2  C    0.300015
     3  S    0.051200
 Electronic spatial extent (au):  <R**2>=            201.8182
 Charge=             -0.0000 electrons
 Dipole moment (field-independent basis, Debye):
    X=              0.0000    Y=             -0.0000    Z=              0.8320  Tot=              0.8320
 Quadrupole moment (field-independent basis, Debye-Ang):
   XX=            -23.4025   YY=            -23.4025   ZZ=            -24.3899
   XY=             -0.0000   XZ=              0.0000   YZ=             -0.0000
 Traceless Quadrupole moment (field-independent basis, Debye-Ang):
   XX=              0.3291   YY=              0.3291   ZZ=             -0.6583
   XY=             -0.0000   XZ=              0.0000   YZ=             -0.0000
 Octapole moment (field-independent basis, Debye-Ang**2):
  XXX=              0.0000  YYY=             -0.0000  ZZZ=              4.5590  XYY=              0.0000
  XXY=             -0.0000  XXZ=             -2.5874  XZZ=              0.0000  YZZ=             -0.0000
  YYZ=             -2.5874  XYZ=              0.0000
 Hexadecapole moment (field-independent basis, Debye-Ang**3):
 XXXX=            -27.1755 YYYY=            -27.1755 ZZZZ=           -203.5693 XXXY=             -0.0000
 XXXZ=              0.0000 YYYX=             -0.0000 YYYZ=              0.0000 ZZZX=              0.0000
 ZZZY=             -0.0000 XXYY=             -9.0585 XXZZ=            -38.7543 YYZZ=            -38.7543
 XXYZ=             -0.0000 YYXZ=              0.0000 ZZXY=             -0.0000
 N-N= 7.920317360298D+01 E-N=-1.371629281484D+03  KE= 5.105655700044D+02
 PrsmSu:  requested number of processors reduced to:  21 ShMem   1 Linda.
 No NMR shielding tensors so no spin-rotation constants.
 Leave Link  601 at Sat Apr 17 20:19:04 2021, MaxMem=   104857600 cpu:             190.7 elap:               4.2
 (Enter /s/ls4/users/knvvv/bin/g16sse/l801.exe)
 DoSCS=F DFT=T ScalE2(SS,OS)=  1.000000  1.000000
 Range of M.O.s used for correlation:     1   208
 NBasis=   208 NAE=    15 NBE=    15 NFC=     0 NFV=     0
 NROrb=    208 NOA=    15 NOB=    15 NVA=   193 NVB=   193

 **** Warning!!: The largest alpha MO coefficient is  0.45812868D+02

 Leave Link  801 at Sat Apr 17 20:19:04 2021, MaxMem=   104857600 cpu:               3.2 elap:               0.1
 (Enter /s/ls4/users/knvvv/bin/g16sse/l914.exe)
 RHF ground state
 Doing stability rather than CIS.
 Two-electron integrals replicated using symmetry.
 MDV=   104857600 DFT=T DoStab=T Mixed=T DoRPA=F DoScal=F NonHer=F
 Making orbital integer symmetry assigments:
 Orbital symmetries:
       Occupied  (SG) (SG) (SG) (SG) (SG) (PI) (PI) (SG) (SG) (SG)
                 (PI) (PI) (SG) (PI) (PI)
       Virtual   (PI) (PI) (SG) (SG) (PI) (PI) (SG) (PI) (PI) (SG)
                 (SG) (DLTA) (DLTA) (SG) (PI) (PI) (SG) (DLTA)
                 (DLTA) (PI) (PI) (SG) (PI) (PI) (SG) (SG) (DLTA)
                 (DLTA) (SG) (PI) (PI) (PI) (PI) (DLTA) (DLTA)
                 (SG) (PI) (PI) (SG) (PI) (PI) (DLTA) (DLTA) (SG)
                 (SG) (SG) (PI) (PI) (SG) (PI) (PI) (PHI) (PHI)
                 (SG) (DLTA) (DLTA) (PI) (PI) (DLTA) (DLTA) (SG)
                 (PI) (PI) (SG) (DLTA) (DLTA) (SG) (PI) (PI) (PI)
                 (PI) (SG) (PHI) (PHI) (SG) (PI) (PI) (DLTA) (DLTA)
                 (SG) (DLTA) (DLTA) (SG) (PI) (PI) (SG) (SG) (PI)
                 (PI) (DLTA) (DLTA) (PI) (PI) (PHI) (PHI) (?A)
                 (?A) (SG) (PI) (PI) (PHI) (PHI) (DLTA) (DLTA)
                 (PHI) (PHI) (SG) (DLTA) (DLTA) (SG) (PI) (PI)
                 (PI) (PI) (SG) (DLTA) (DLTA) (SG) (PI) (PI) (DLTA)
                 (DLTA) (SG) (PI) (PI) (PI) (PI) (?A) (?A) (SG)
                 (PHI) (PHI) (SG) (SG) (SG) (PI) (PI) (DLTA) (DLTA)
                 (PI) (PI) (PHI) (PHI) (DLTA) (DLTA) (DLTA) (DLTA)
                 (PI) (PI) (SG) (SG) (SG) (PI) (PI) (SG) (DLTA)
                 (DLTA) (?A) (?A) (PI) (PI) (PHI) (PHI) (SG) (DLTA)
                 (DLTA) (SG) (SG) (PI) (PI) (PHI) (PHI) (DLTA)
                 (DLTA) (PI) (PI) (SG) (DLTA) (DLTA) (PI) (PI)
                 (SG) (SG) (SG) (SG) (PI) (PI) (SG) (SG) (SG) (SG)
                 (SG) (SG)
    24 initial guesses have been made.
 Convergence on wavefunction:    0.001000000000000
 Davidson Disk Diagonalization:  ConvIn= 1.00D-03 SkipCon=T Conv= 1.00D-03.
 Max sub-space:  2000 roots to seek:    24 dimension of matrix:         5790
 Iteration     1 Dimension    24 NMult     0 NNew     24
 Estimated number of processors is:   19
 CISAX will form     1 AO SS matrices at one time.
 NMat=     1 NSing=     1 JSym2X= 2.
 FoFJK:  IHMeth= 1 ICntrl=       0 DoSepK=F KAlg= 0 I1Cent=           0 FoldK=F
 IRaf= 970000000 NMat=       1 IRICut=       1 DoRegI=T DoRafI=F ISym2E= 2 IDoP0=0 IntGTp=1.
 FoFCou: FMM=F IPFlag=           0 FMFlag=      100000 FMFlg1=           0
         NFxFlg=           0 DoJE=F BraDBF=F KetDBF=F FulRan=T
         wScrn=  0.000000 ICntrl=         0 IOpCl=  0 I1Cent=           0 NGrid=           0
         NMat0=    1 NMatS0=      1 NMatT0=    0 NMatD0=    1 NMtDS0=    0 NMtDT0=    0
 Integrals replicated using symmetry in FoFCou.
 CoulSu:  requested number of processors reduced to:  21 ShMem   1 Linda.
 NMat=     1 NSing=     1 JSym2X= 2.
 CoulSu:  requested number of processors reduced to:  21 ShMem   1 Linda.
 NMat=     1 NSing=     1 JSym2X= 2.
 CoulSu:  requested number of processors reduced to:  21 ShMem   1 Linda.
 NMat=     1 NSing=     1 JSym2X= 2.
 CoulSu:  requested number of processors reduced to:  21 ShMem   1 Linda.
 NMat=     1 NSing=     1 JSym2X= 2.
 CoulSu:  requested number of processors reduced to:  21 ShMem   1 Linda.
 NMat=     1 NSing=     1 JSym2X= 2.
 CoulSu:  requested number of processors reduced to:  21 ShMem   1 Linda.
 NMat=     1 NSing=     1 JSym2X= 2.
 CoulSu:  requested number of processors reduced to:  21 ShMem   1 Linda.
 NMat=     1 NSing=     1 JSym2X= 2.
 CoulSu:  requested number of processors reduced to:  21 ShMem   1 Linda.
 NMat=     1 NSing=     1 JSym2X= 2.
 CoulSu:  requested number of processors reduced to:  21 ShMem   1 Linda.
 NMat=     1 NSing=     1 JSym2X= 2.
 CoulSu:  requested number of processors reduced to:  21 ShMem   1 Linda.
 NMat=     1 NSing=     1 JSym2X= 2.
 CoulSu:  requested number of processors reduced to:  21 ShMem   1 Linda.
 NMat=     1 NSing=     1 JSym2X= 2.
 CoulSu:  requested number of processors reduced to:  21 ShMem   1 Linda.
 NMat=     1 NSing=     0 JSym2X= 2.
 CoulSu:  requested number of processors reduced to:  21 ShMem   1 Linda.
 NMat=     1 NSing=     0 JSym2X= 2.
 CoulSu:  requested number of processors reduced to:  21 ShMem   1 Linda.
 NMat=     1 NSing=     0 JSym2X= 2.
 CoulSu:  requested number of processors reduced to:  21 ShMem   1 Linda.
 NMat=     1 NSing=     0 JSym2X= 2.
 CoulSu:  requested number of processors reduced to:  21 ShMem   1 Linda.
 NMat=     1 NSing=     0 JSym2X= 2.
 CoulSu:  requested number of processors reduced to:  21 ShMem   1 Linda.
 NMat=     1 NSing=     0 JSym2X= 2.
 CoulSu:  requested number of processors reduced to:  21 ShMem   1 Linda.
 NMat=     1 NSing=     0 JSym2X= 2.
 CoulSu:  requested number of processors reduced to:  21 ShMem   1 Linda.
 NMat=     1 NSing=     0 JSym2X= 2.
 CoulSu:  requested number of processors reduced to:  21 ShMem   1 Linda.
 NMat=     1 NSing=     0 JSym2X= 2.
 CoulSu:  requested number of processors reduced to:  21 ShMem   1 Linda.
 NMat=     1 NSing=     0 JSym2X= 2.
 CoulSu:  requested number of processors reduced to:  21 ShMem   1 Linda.
 NMat=     1 NSing=     0 JSym2X= 2.
 CoulSu:  requested number of processors reduced to:  21 ShMem   1 Linda.
 NMat=     1 NSing=     0 JSym2X= 2.
 CoulSu:  requested number of processors reduced to:  21 ShMem   1 Linda.
 New state      1 was old state      4
 Excitation Energies [eV] at current iteration:
 Root      1 :     4.001224740411017
 Root      2 :     4.531113100623299
 Root      3 :     4.531197241324144
 Root      4 :     5.426892422256240
 Root      5 :     5.426987794479870
 Root      6 :     6.158885429310106
 Root      7 :     6.158885429320747
 Root      8 :     7.559260299570531
 Root      9 :     7.559260299641363
 Root     10 :     7.659828727354516
 Root     11 :     7.659828727412068
 Root     12 :     8.383735137423091
 Root     13 :     8.383735137812447
 Root     14 :     8.526562438563232
 Root     15 :     8.526562439001903
 Root     16 :     8.637388170235731
 Root     17 :     8.637462414741115
 Root     18 :     8.638143898726467
 Root     19 :     8.638143898727469
 Root     20 :     8.672885945949737
 Root     21 :     8.723540035804795
 Root     22 :     8.723614287210475
 Root     23 :     9.094089024735773
 Root     24 :    18.573365014634870
 Iteration     2 Dimension    48 NMult    24 NNew     24
 Estimated number of processors is:   19
 CISAX will form     1 AO SS matrices at one time.
 NMat=     1 NSing=     1 JSym2X= 2.
 CoulSu:  requested number of processors reduced to:  21 ShMem   1 Linda.
 NMat=     1 NSing=     1 JSym2X= 2.
 CoulSu:  requested number of processors reduced to:  21 ShMem   1 Linda.
 NMat=     1 NSing=     1 JSym2X= 2.
 CoulSu:  requested number of processors reduced to:  21 ShMem   1 Linda.
 NMat=     1 NSing=     1 JSym2X= 2.
 CoulSu:  requested number of processors reduced to:  21 ShMem   1 Linda.
 NMat=     1 NSing=     1 JSym2X= 2.
 CoulSu:  requested number of processors reduced to:  21 ShMem   1 Linda.
 NMat=     1 NSing=     1 JSym2X= 2.
 CoulSu:  requested number of processors reduced to:  21 ShMem   1 Linda.
 NMat=     1 NSing=     1 JSym2X= 2.
 CoulSu:  requested number of processors reduced to:  21 ShMem   1 Linda.
 NMat=     1 NSing=     1 JSym2X= 2.
 CoulSu:  requested number of processors reduced to:  21 ShMem   1 Linda.
 NMat=     1 NSing=     1 JSym2X= 2.
 CoulSu:  requested number of processors reduced to:  21 ShMem   1 Linda.
 NMat=     1 NSing=     1 JSym2X= 2.
 CoulSu:  requested number of processors reduced to:  21 ShMem   1 Linda.
 NMat=     1 NSing=     1 JSym2X= 2.
 CoulSu:  requested number of processors reduced to:  21 ShMem   1 Linda.
 NMat=     1 NSing=     1 JSym2X= 2.
 CoulSu:  requested number of processors reduced to:  21 ShMem   1 Linda.
 NMat=     1 NSing=     0 JSym2X= 2.
 CoulSu:  requested number of processors reduced to:  21 ShMem   1 Linda.
 NMat=     1 NSing=     0 JSym2X= 2.
 CoulSu:  requested number of processors reduced to:  21 ShMem   1 Linda.
 NMat=     1 NSing=     0 JSym2X= 2.
 CoulSu:  requested number of processors reduced to:  21 ShMem   1 Linda.
 NMat=     1 NSing=     0 JSym2X= 2.
 CoulSu:  requested number of processors reduced to:  21 ShMem   1 Linda.
 NMat=     1 NSing=     0 JSym2X= 2.
 CoulSu:  requested number of processors reduced to:  21 ShMem   1 Linda.
 NMat=     1 NSing=     0 JSym2X= 2.
 CoulSu:  requested number of processors reduced to:  21 ShMem   1 Linda.
 NMat=     1 NSing=     0 JSym2X= 2.
 CoulSu:  requested number of processors reduced to:  21 ShMem   1 Linda.
 NMat=     1 NSing=     0 JSym2X= 2.
 CoulSu:  requested number of processors reduced to:  21 ShMem   1 Linda.
 NMat=     1 NSing=     0 JSym2X= 2.
 CoulSu:  requested number of processors reduced to:  21 ShMem   1 Linda.
 NMat=     1 NSing=     0 JSym2X= 2.
 CoulSu:  requested number of processors reduced to:  21 ShMem   1 Linda.
 NMat=     1 NSing=     0 JSym2X= 2.
 CoulSu:  requested number of processors reduced to:  21 ShMem   1 Linda.
 NMat=     1 NSing=     0 JSym2X= 2.
 CoulSu:  requested number of processors reduced to:  21 ShMem   1 Linda.
 Vector   6 SDiff=9.21D-01 TDiff=2.77D-04 assumed to be triplet.
 Vector   7 SDiff=2.77D-04 TDiff=9.21D-01 assumed to be singlet.
 Root      1 not converged, maximum delta is    0.050777064859846
 Excitation Energies [eV] at current iteration:
 Root      1 :     3.539806847331544   Change is   -0.461417893079474
 Root      2 :     4.191246365700036   Change is   -0.339866734923263
 Root      3 :     4.191353137536789   Change is   -0.339844103787356
 Root      4 :     5.231859945375900   Change is   -0.195032476880340
 Root      5 :     5.231954033812610   Change is   -0.195033760667261
 Root      6 :     6.117164729280637   Change is   -0.041720700040110
 Root      7 :     6.117164729367347   Change is   -0.041720699942759
 Root      8 :     7.061610286832415   Change is   -0.497650012738116
 Root      9 :     7.061610286896117   Change is   -0.497650012745246
 Root     10 :     7.455752216437809   Change is   -0.204076510916706
 Root     11 :     7.455752216458456   Change is   -0.204076510953612
 Root     12 :     7.936887303351948   Change is   -0.446847834071144
 Root     13 :     7.936887303559586   Change is   -0.446847834252861
 Root     14 :     8.403596942104185   Change is   -0.122965496459048
 Root     15 :     8.403596942377639   Change is   -0.122965496624264
 Root     16 :     8.558194001979519   Change is   -0.079194168256213
 Root     17 :     8.558379476614158   Change is   -0.079082938126957
 Root     18 :     8.582761508377470   Change is   -0.055382390348997
 Root     19 :     8.582761508694048   Change is   -0.055382390033422
 Root     20 :     8.589829166183618   Change is   -0.083056779766120
 Root     21 :     8.614553604313608   Change is   -0.108986431491188
 Root     22 :     8.614714353795682   Change is   -0.108899933414793
 Root     23 :     8.896406053673074   Change is   -0.197682971062699
 Root     24 :    11.898023314657070
 Vector   6 SDiff=1.09D-06 TDiff=3.63D-03 assumed to be singlet.
 Iteration     3 Dimension    54 NMult    48 NNew      6
 Estimated number of processors is:   19
 CISAX will form     1 AO SS matrices at one time.
 NMat=     1 NSing=     1 JSym2X= 2.
 CoulSu:  requested number of processors reduced to:  21 ShMem   1 Linda.
 NMat=     1 NSing=     1 JSym2X= 2.
 CoulSu:  requested number of processors reduced to:  21 ShMem   1 Linda.
 NMat=     1 NSing=     1 JSym2X= 2.
 CoulSu:  requested number of processors reduced to:  21 ShMem   1 Linda.
 NMat=     1 NSing=     0 JSym2X= 2.
 CoulSu:  requested number of processors reduced to:  21 ShMem   1 Linda.
 NMat=     1 NSing=     0 JSym2X= 2.
 CoulSu:  requested number of processors reduced to:  21 ShMem   1 Linda.
 NMat=     1 NSing=     0 JSym2X= 2.
 CoulSu:  requested number of processors reduced to:  21 ShMem   1 Linda.
 Root      1 not converged, maximum delta is    0.017399915621956
 Excitation Energies [eV] at current iteration:
 Root      1 :     3.509714509217801   Change is   -0.030092338113743
 Root      2 :     4.173925364041926   Change is   -0.017321001658110
 Root      3 :     4.174031154266480   Change is   -0.017321983270309
 Root      4 :     5.219538028640804   Change is   -0.012321916735096
 Root      5 :     5.219630889655722   Change is   -0.012323144156888
 Root      6 :     6.116600890415223   Change is   -0.000563838952124
 Iteration     4 Dimension    60 NMult    54 NNew      6
 Estimated number of processors is:   19
 CISAX will form     1 AO SS matrices at one time.
 NMat=     1 NSing=     1 JSym2X= 2.
 CoulSu:  requested number of processors reduced to:  21 ShMem   1 Linda.
 NMat=     1 NSing=     1 JSym2X= 2.
 CoulSu:  requested number of processors reduced to:  21 ShMem   1 Linda.
 NMat=     1 NSing=     1 JSym2X= 2.
 CoulSu:  requested number of processors reduced to:  21 ShMem   1 Linda.
 NMat=     1 NSing=     0 JSym2X= 2.
 CoulSu:  requested number of processors reduced to:  21 ShMem   1 Linda.
 NMat=     1 NSing=     0 JSym2X= 2.
 CoulSu:  requested number of processors reduced to:  21 ShMem   1 Linda.
 NMat=     1 NSing=     0 JSym2X= 2.
 CoulSu:  requested number of processors reduced to:  21 ShMem   1 Linda.
 Root      1 not converged, maximum delta is    0.016980260166980
 Excitation Energies [eV] at current iteration:
 Root      1 :     3.500336143013166   Change is   -0.009378366204636
 Root      2 :     4.171878099119336   Change is   -0.002047264922590
 Root      3 :     4.171984309545334   Change is   -0.002046844721146
 Root      4 :     5.218811513248951   Change is   -0.000726515391853
 Root      5 :     5.218904332475478   Change is   -0.000726557180244
 Root      6 :     6.116589562957780   Change is   -0.000011327457443
 Iteration     5 Dimension    66 NMult    60 NNew      6
 Estimated number of processors is:   19
 CISAX will form     1 AO SS matrices at one time.
 NMat=     1 NSing=     1 JSym2X= 2.
 CoulSu:  requested number of processors reduced to:  21 ShMem   1 Linda.
 NMat=     1 NSing=     1 JSym2X= 2.
 CoulSu:  requested number of processors reduced to:  21 ShMem   1 Linda.
 NMat=     1 NSing=     1 JSym2X= 2.
 CoulSu:  requested number of processors reduced to:  21 ShMem   1 Linda.
 NMat=     1 NSing=     0 JSym2X= 2.
 CoulSu:  requested number of processors reduced to:  21 ShMem   1 Linda.
 NMat=     1 NSing=     0 JSym2X= 2.
 CoulSu:  requested number of processors reduced to:  21 ShMem   1 Linda.
 NMat=     1 NSing=     0 JSym2X= 2.
 CoulSu:  requested number of processors reduced to:  21 ShMem   1 Linda.
 Root      1 not converged, maximum delta is    0.001396252704914
 Excitation Energies [eV] at current iteration:
 Root      1 :     3.499817196139047   Change is   -0.000518946874118
 Root      2 :     4.171815262686634   Change is   -0.000062836432703
 Root      3 :     4.171921491882186   Change is   -0.000062817663147
 Root      4 :     5.218795434859611   Change is   -0.000016078389341
 Root      5 :     5.218888241525129   Change is   -0.000016090950348
 Root      6 :     6.116589134626980   Change is   -0.000000428330800
 Iteration     6 Dimension    72 NMult    66 NNew      6
 Estimated number of processors is:   19
 CISAX will form     1 AO SS matrices at one time.
 NMat=     1 NSing=     1 JSym2X= 2.
 CoulSu:  requested number of processors reduced to:  21 ShMem   1 Linda.
 NMat=     1 NSing=     1 JSym2X= 2.
 CoulSu:  requested number of processors reduced to:  21 ShMem   1 Linda.
 NMat=     1 NSing=     1 JSym2X= 2.
 CoulSu:  requested number of processors reduced to:  21 ShMem   1 Linda.
 NMat=     1 NSing=     0 JSym2X= 2.
 CoulSu:  requested number of processors reduced to:  21 ShMem   1 Linda.
 NMat=     1 NSing=     0 JSym2X= 2.
 CoulSu:  requested number of processors reduced to:  21 ShMem   1 Linda.
 NMat=     1 NSing=     0 JSym2X= 2.
 CoulSu:  requested number of processors reduced to:  21 ShMem   1 Linda.
 Root      1 has converged.
 Excitation Energies [eV] at current iteration:
 Root      1 :     3.499799141233522   Change is   -0.000018054905525
 Root      2 :     4.171814470547730   Change is   -0.000000792138903
 Root      3 :     4.171920700027838   Change is   -0.000000791854349
 Root      4 :     5.218795024128033   Change is   -0.000000410731577
 Root      5 :     5.218887830601569   Change is   -0.000000410923560
 Root      6 :     6.116589118865933   Change is   -0.000000015761046
 Convergence achieved on expansion vectors.
 ***********************************************************************
 Stability analysis using <AA,BB:AA,BB> singles matrix:
 ***********************************************************************
 1PDM for each excited state written to RWF  633
 Ground to excited state transition densities written to RWF  633

 Eigenvectors of the stability matrix:
 
 Excited state symmetry could not be determined.
 Eigenvector   1:      Triplet-?Sym  Eigenvalue= 0.1286153  <S**2>=2.000
      14 -> 16         0.43578
      14 -> 17        -0.15418
      14 -> 20        -0.15470
      15 -> 16         0.15418
      15 -> 17         0.43578
      15 -> 21        -0.15470
 The wavefunction is stable under the perturbations considered.
 Leave Link  914 at Sat Apr 17 20:23:42 2021, MaxMem=   104857600 cpu:           11169.5 elap:             277.6
 (Enter /s/ls4/users/knvvv/bin/g16sse/l508.exe)
 The wavefunction is already stable.
 Leave Link  508 at Sat Apr 17 20:23:42 2021, MaxMem=   104857600 cpu:               2.2 elap:               0.1
 (Enter /s/ls4/users/knvvv/bin/g16sse/l601.exe)
 Copying SCF densities to generalized density rwf, IOpCl= 0 IROHF=0.

 **********************************************************************

            Population analysis using the SCF density.

 **********************************************************************

 Orbital symmetries:
       Occupied  (SG) (SG) (SG) (SG) (SG) (PI) (PI) (SG) (SG) (SG)
                 (PI) (PI) (SG) (PI) (PI)
       Virtual   (PI) (PI) (SG) (SG) (PI) (PI) (SG) (PI) (PI) (SG)
                 (SG) (DLTA) (DLTA) (SG) (PI) (PI) (SG) (DLTA)
                 (DLTA) (PI) (PI) (SG) (PI) (PI) (SG) (SG) (DLTA)
                 (DLTA) (SG) (PI) (PI) (PI) (PI) (DLTA) (DLTA)
                 (SG) (PI) (PI) (SG) (PI) (PI) (DLTA) (DLTA) (SG)
                 (SG) (SG) (PI) (PI) (SG) (PI) (PI) (PHI) (PHI)
                 (SG) (DLTA) (DLTA) (PI) (PI) (DLTA) (DLTA) (SG)
                 (PI) (PI) (SG) (DLTA) (DLTA) (SG) (PI) (PI) (PI)
                 (PI) (SG) (PHI) (PHI) (SG) (PI) (PI) (DLTA) (DLTA)
                 (SG) (DLTA) (DLTA) (SG) (PI) (PI) (SG) (SG) (PI)
                 (PI) (DLTA) (DLTA) (PI) (PI) (PHI) (PHI) (?A)
                 (?A) (SG) (PI) (PI) (PHI) (PHI) (DLTA) (DLTA)
                 (PHI) (PHI) (SG) (DLTA) (DLTA) (SG) (PI) (PI)
                 (PI) (PI) (SG) (DLTA) (DLTA) (SG) (PI) (PI) (DLTA)
                 (DLTA) (SG) (PI) (PI) (PI) (PI) (?A) (?A) (SG)
                 (PHI) (PHI) (SG) (SG) (SG) (PI) (PI) (DLTA) (DLTA)
                 (PI) (PI) (PHI) (PHI) (DLTA) (DLTA) (DLTA) (DLTA)
                 (PI) (PI) (SG) (SG) (SG) (PI) (PI) (SG) (DLTA)
                 (DLTA) (?A) (?A) (PI) (PI) (PHI) (PHI) (SG) (DLTA)
                 (DLTA) (SG) (SG) (PI) (PI) (PHI) (PHI) (DLTA)
                 (DLTA) (PI) (PI) (SG) (DLTA) (DLTA) (PI) (PI)
                 (SG) (SG) (SG) (SG) (PI) (PI) (SG) (SG) (SG) (SG)
                 (SG) (SG)
 The electronic state is 1-SG.
 Alpha  occ. eigenvalues --  -89.93980 -19.71860 -10.71466  -8.29670  -6.21857
 Alpha  occ. eigenvalues --   -6.21471  -6.21471  -1.27012  -0.91322  -0.64651
 Alpha  occ. eigenvalues --   -0.56286  -0.56286  -0.54087  -0.36125  -0.36125
 Alpha virt. eigenvalues --   -0.00222  -0.00222   0.00160   0.01941   0.03099
 Alpha virt. eigenvalues --    0.03099   0.05967   0.07147   0.07147   0.09197
 Alpha virt. eigenvalues --    0.11358   0.12648   0.12648   0.15164   0.18284
 Alpha virt. eigenvalues --    0.18284   0.21953   0.21969   0.21969   0.22702
 Alpha virt. eigenvalues --    0.22702   0.25633   0.29435   0.29435   0.30698
 Alpha virt. eigenvalues --    0.37836   0.38481   0.38482   0.39806   0.40413
 Alpha virt. eigenvalues --    0.40413   0.41355   0.41355   0.45729   0.45729
 Alpha virt. eigenvalues --    0.55030   0.57582   0.57582   0.58081   0.64234
 Alpha virt. eigenvalues --    0.64234   0.66432   0.66432   0.67787   0.74273
 Alpha virt. eigenvalues --    0.82518   0.91848   0.91848   0.93533   0.95287
 Alpha virt. eigenvalues --    0.95287   1.04107   1.04107   1.08583   1.09098
 Alpha virt. eigenvalues --    1.09102   1.13993   1.13993   1.18043   1.18044
 Alpha virt. eigenvalues --    1.19676   1.23899   1.23899   1.38660   1.39653
 Alpha virt. eigenvalues --    1.39653   1.48545   1.54672   1.54672   1.63472
 Alpha virt. eigenvalues --    1.63472   1.65900   1.67397   1.67397   1.80769
 Alpha virt. eigenvalues --    1.89804   1.89804   1.90718   1.90718   2.07265
 Alpha virt. eigenvalues --    2.15171   2.15171   2.15291   2.28557   2.28557
 Alpha virt. eigenvalues --    2.40577   2.48857   2.53625   2.53625   2.73054
 Alpha virt. eigenvalues --    2.73057   2.84233   2.84233   2.90536   2.90536
 Alpha virt. eigenvalues --    2.91368   2.91370   2.98081   3.03300   3.03300
 Alpha virt. eigenvalues --    3.10242   3.10242   3.10811   3.10816   3.19040
 Alpha virt. eigenvalues --    3.19040   3.24057   3.32564   3.32566   3.48602
 Alpha virt. eigenvalues --    3.49238   3.49238   3.74714   3.74714   3.76541
 Alpha virt. eigenvalues --    3.91681   3.91681   4.01060   4.10594   4.10594
 Alpha virt. eigenvalues --    4.10880   4.10880   4.16405   4.53229   4.53229
 Alpha virt. eigenvalues --    4.64643   4.64643   4.68874   4.68875   4.73111
 Alpha virt. eigenvalues --    4.92011   4.92011   5.08242   5.50769   5.59770
 Alpha virt. eigenvalues --    5.59973   5.59973   5.60902   5.60903   5.74518
 Alpha virt. eigenvalues --    5.74518   5.79128   5.79128   5.93100   5.93102
 Alpha virt. eigenvalues --    6.16763   6.16763   6.48180   6.48180   6.61212
 Alpha virt. eigenvalues --    7.33387   7.78470   7.85466   7.85466   8.06283
 Alpha virt. eigenvalues --    8.72644   8.72644   8.72997   8.72997   8.94399
 Alpha virt. eigenvalues --    8.94399   8.95844   8.95844   9.55302   9.83690
 Alpha virt. eigenvalues --    9.83690  10.02177  10.19227  10.33261  10.33261
 Alpha virt. eigenvalues --   10.78744  10.78744  11.16903  11.16903  11.75675
 Alpha virt. eigenvalues --   11.75675  11.90862  12.01047  12.01049  13.34515
 Alpha virt. eigenvalues --   13.34515  14.00838  14.51179  24.49745  28.59105
 Alpha virt. eigenvalues --   28.97505  28.97505  29.56633  48.23670  84.20532
 Alpha virt. eigenvalues --  146.00422 251.35071 449.99952
          Condensed to atoms (all electrons):
               1          2          3
     1  O    7.953377   0.445123  -0.047284
     2  C    0.445123   4.768054   0.486807
     3  S   -0.047284   0.486807  15.509276
 Mulliken charges:
               1
     1  O   -0.351216
     2  C    0.300015
     3  S    0.051200
 Sum of Mulliken charges =  -0.00000
 Mulliken charges with hydrogens summed into heavy atoms:
               1
     1  O   -0.351216
     2  C    0.300015
     3  S    0.051200
 Electronic spatial extent (au):  <R**2>=            201.8182
 Charge=             -0.0000 electrons
 Dipole moment (field-independent basis, Debye):
    X=              0.0000    Y=             -0.0000    Z=              0.8320  Tot=              0.8320
 Quadrupole moment (field-independent basis, Debye-Ang):
   XX=            -23.4025   YY=            -23.4025   ZZ=            -24.3899
   XY=             -0.0000   XZ=              0.0000   YZ=             -0.0000
 Traceless Quadrupole moment (field-independent basis, Debye-Ang):
   XX=              0.3291   YY=              0.3291   ZZ=             -0.6583
   XY=             -0.0000   XZ=              0.0000   YZ=             -0.0000
 Octapole moment (field-independent basis, Debye-Ang**2):
  XXX=              0.0000  YYY=             -0.0000  ZZZ=              4.5590  XYY=              0.0000
  XXY=             -0.0000  XXZ=             -2.5874  XZZ=              0.0000  YZZ=             -0.0000
  YYZ=             -2.5874  XYZ=              0.0000
 Hexadecapole moment (field-independent basis, Debye-Ang**3):
 XXXX=            -27.1755 YYYY=            -27.1755 ZZZZ=           -203.5693 XXXY=             -0.0000
 XXXZ=              0.0000 YYYX=             -0.0000 YYYZ=              0.0000 ZZZX=              0.0000
 ZZZY=             -0.0000 XXYY=             -9.0585 XXZZ=            -38.7543 YYZZ=            -38.7543
 XXYZ=             -0.0000 YYXZ=              0.0000 ZZXY=             -0.0000
 N-N= 7.920317360298D+01 E-N=-1.371629281484D+03  KE= 5.105655700044D+02
 PrsmSu:  requested number of processors reduced to:  21 ShMem   1 Linda.
 No NMR shielding tensors so no spin-rotation constants.
 Leave Link  601 at Sat Apr 17 20:23:46 2021, MaxMem=   104857600 cpu:             184.8 elap:               4.1
 (Enter /s/ls4/users/knvvv/bin/g16sse/l9999.exe)

 Test job not archived.
 1\1\GINC-N154\Stability\RM062X\Gen\C1O1S1\KNVVV\17-Apr-2021\0\\#P M062
 X/GEN Integral=UltraFineGrid SCF=NoSymm Stable=(RExt, Opt) IOp(1/33=1)
 \\Database calculations.\\0,1\O,0,0.,0.,0.\C,0,0.,0.,1.15843204\S,0,0.
 ,0.,2.72528299\\Version=ES64L-G16RevA.03\State=1-SG\HF=-511.5605558\RM
 SD=1.539e-09\Dipole=0.,0.,0.327341\Quadrupole=0.2446992,0.2446992,-0.4
 893983,0.,0.,0.\PG=C*V [C*(O1C1S1)]\\@


 In the beginning the Universe was created.
 This has made a lot of people very angry
 and been widely regarded as a bad move.
                               -D.Adams
 Job cpu time:       0 days  3 hours 45 minutes 24.7 seconds.
 Elapsed time:       0 days  0 hours  5 minutes 34.6 seconds.
 File lengths (MBytes):  RWF=    165 Int=      0 D2E=      0 Chk=      7 Scr=      1
 Normal termination of Gaussian 16 at Sat Apr 17 20:23:46 2021.
