 Entering Gaussian System, Link 0=/s/ls4/users/knvvv/bin/g16sse/g16
 Input=data/database/M062X--def2-QZVPPD--26_Isomer16_Styrene45.gjf
 Output=data/database/M062X--def2-QZVPPD--26_Isomer16_Styrene45.log
 Initial command:
 /s/ls4/users/knvvv/bin/g16sse/l1.exe "/s/ls4/users/knvvv/bin/scratch/Gau-32206.inp" -scrdir="/s/ls4/users/knvvv/bin/scratch/"
 Entering Link 1 = /s/ls4/users/knvvv/bin/g16sse/l1.exe PID=     32207.
  
 Copyright (c) 1988,1990,1992,1993,1995,1998,2003,2009,2016,
            Gaussian, Inc.  All Rights Reserved.
  
 This is part of the Gaussian(R) 16 program.  It is based on
 the Gaussian(R) 09 system (copyright 2009, Gaussian, Inc.),
 the Gaussian(R) 03 system (copyright 2003, Gaussian, Inc.),
 the Gaussian(R) 98 system (copyright 1998, Gaussian, Inc.),
 the Gaussian(R) 94 system (copyright 1995, Gaussian, Inc.),
 the Gaussian 92(TM) system (copyright 1992, Gaussian, Inc.),
 the Gaussian 90(TM) system (copyright 1990, Gaussian, Inc.),
 the Gaussian 88(TM) system (copyright 1988, Gaussian, Inc.),
 the Gaussian 86(TM) system (copyright 1986, Carnegie Mellon
 University), and the Gaussian 82(TM) system (copyright 1983,
 Carnegie Mellon University). Gaussian is a federally registered
 trademark of Gaussian, Inc.
  
 This software contains proprietary and confidential information,
 including trade secrets, belonging to Gaussian, Inc.
  
 This software is provided under written license and may be
 used, copied, transmitted, or stored only in accord with that
 written license.
  
 The following legend is applicable only to US Government
 contracts under FAR:
  
                    RESTRICTED RIGHTS LEGEND
  
 Use, reproduction and disclosure by the US Government is
 subject to restrictions as set forth in subparagraphs (a)
 and (c) of the Commercial Computer Software - Restricted
 Rights clause in FAR 52.227-19.
  
 Gaussian, Inc.
 340 Quinnipiac St., Bldg. 40, Wallingford CT 06492
  
  
 ---------------------------------------------------------------
 Warning -- This program may not be used in any manner that
 competes with the business of Gaussian, Inc. or will provide
 assistance to any competitor of Gaussian, Inc.  The licensee
 of this program is prohibited from giving any competitor of
 Gaussian, Inc. access to this program.  By using this program,
 the user acknowledges that Gaussian, Inc. is engaged in the
 business of creating and licensing software in the field of
 computational chemistry and represents and warrants to the
 licensee that it is not a competitor of Gaussian, Inc. and that
 it will not use this program in any manner prohibited above.
 ---------------------------------------------------------------
  

 Cite this work as:
 Gaussian 16, Revision A.03,
 M. J. Frisch, G. W. Trucks, H. B. Schlegel, G. E. Scuseria, 
 M. A. Robb, J. R. Cheeseman, G. Scalmani, V. Barone, 
 G. A. Petersson, H. Nakatsuji, X. Li, M. Caricato, A. V. Marenich, 
 J. Bloino, B. G. Janesko, R. Gomperts, B. Mennucci, H. P. Hratchian, 
 J. V. Ortiz, A. F. Izmaylov, J. L. Sonnenberg, D. Williams-Young, 
 F. Ding, F. Lipparini, F. Egidi, J. Goings, B. Peng, A. Petrone, 
 T. Henderson, D. Ranasinghe, V. G. Zakrzewski, J. Gao, N. Rega, 
 G. Zheng, W. Liang, M. Hada, M. Ehara, K. Toyota, R. Fukuda, 
 J. Hasegawa, M. Ishida, T. Nakajima, Y. Honda, O. Kitao, H. Nakai, 
 T. Vreven, K. Throssell, J. A. Montgomery, Jr., J. E. Peralta, 
 F. Ogliaro, M. J. Bearpark, J. J. Heyd, E. N. Brothers, K. N. Kudin, 
 V. N. Staroverov, T. A. Keith, R. Kobayashi, J. Normand, 
 K. Raghavachari, A. P. Rendell, J. C. Burant, S. S. Iyengar, 
 J. Tomasi, M. Cossi, J. M. Millam, M. Klene, C. Adamo, R. Cammi, 
 J. W. Ochterski, R. L. Martin, K. Morokuma, O. Farkas, 
 J. B. Foresman, and D. J. Fox, Gaussian, Inc., Wallingford CT, 2016.
 
 ******************************************
 Gaussian 16:  ES64L-G16RevA.03 25-Dec-2016
                17-Apr-2021 
 ******************************************
 %RWF=temp7_78937,70GB
 %nprocshared=48
 Will use up to   48 processors via shared memory.
 Default route: MaxDisk=80GB
 ----------------------------------------------------------------------
 #P M062X/GEN Integral=UltraFineGrid SCF=NoSymm Stable=(RExt, Opt) IOp(
 1/33=1)
 ----------------------------------------------------------------------
 1/33=1,38=1,172=1/1;
 2/12=2,17=6,18=5,40=1/2;
 3/5=7,11=2,25=1,30=1,74=-55,75=-5/1,2,3;
 4/9=2/1;
 5/5=2,38=5/2;
 6/7=2,8=2,9=2,10=2,28=1/1;
 8/6=1,10=90,11=11/1;
 9/8=-3,42=1,46=1/14;
 5/5=2,8=3,17=40,38=5/8(-2);
 6/7=2,8=2,9=2,10=2,28=1/1;
 99/5=1,9=1/99;
 Leave Link    1 at Sat Apr 17 21:21:11 2021, MaxMem=           0 cpu:              11.3 elap:               0.3
 (Enter /s/ls4/users/knvvv/bin/g16sse/l101.exe)
 ONIOM data not found on unit 2.
 ----------------------
 Database calculations.
 ----------------------
 TstMul:  ICh=     0
 TstMul:  Mul=     1
 TstMul:  ICh=     0
 TstMul:  Mul=     1
 Symbolic Z-matrix:
 Charge =  0 Multiplicity = 1
 C                     0.09379  -1.20183   0.31058 
 C                     1.51103  -1.18371  -0.26936 
 C                    -0.64936   0.09601   0.04083 
 C                     2.20551   0.12535  -0.01169 
 C                     0.0493    1.24808  -0.0372 
 C                     1.49807   1.25834   0.08174 
 C                    -2.06359   0.05956  -0.03286 
 C                    -3.26409  -0.0208   -0.08738 
 H                     0.13799  -1.34112   1.39795 
 H                    -0.46897  -2.04613  -0.08547 
 H                     2.08729  -2.01517   0.13886 
 H                     1.47141  -1.34715  -1.35504 
 H                     3.287     0.14465   0.03279 
 H                    -0.4725    2.18594  -0.17244 
 H                     1.99631   2.20998   0.21392 
 H                    -4.32251  -0.0771   -0.13838 
 
 RdStrC is calling ZToCFu for IStruc=1 NZ=    16.
 PrtBox:  NBox=     3 Levels=  2 BoxLen=    8.00 SMaxX=       14.38
          Shift=            8.168351            3.866620            2.560649
 Box      1 Number                   0 centers from      1 to      6:
 Box      2 Number                   4 centers from      7 to     15:
 Box      3 Number                   6 centers from     16 to     16:
 After GenITR:
 ITRead=  0  0  0  0  0  0  0  0  0  0  0  0  0  0  0  0
 MicOpt= -1 -1 -1 -1 -1 -1 -1 -1 -1 -1 -1 -1 -1 -1 -1 -1
 ITRead=  0  0  0  0  0  0  0  0  0  0  0  0  0  0  0  0
 MicOpt= -1 -1 -1 -1 -1 -1 -1 -1 -1 -1 -1 -1 -1 -1 -1 -1
 NAtoms=     16 NQM=       16 NQMF=       0 NMMI=      0 NMMIF=      0
                NMic=       0 NMicF=      0.
                    Isotopes and Nuclear Properties:
 (Nuclear quadrupole moments (NQMom) in fm**2, nuclear magnetic moments (NMagM)
  in nuclear magnetons)

  Atom         1           2           3           4           5           6           7           8           9          10
 IAtWgt=          12          12          12          12          12          12          12          12           1           1
 AtmWgt=  12.0000000  12.0000000  12.0000000  12.0000000  12.0000000  12.0000000  12.0000000  12.0000000   1.0078250   1.0078250
 NucSpn=           0           0           0           0           0           0           0           0           1           1
 AtZEff=  -0.0000000  -0.0000000  -0.0000000  -0.0000000  -0.0000000  -0.0000000  -0.0000000  -0.0000000  -0.0000000  -0.0000000
 NQMom=    0.0000000   0.0000000   0.0000000   0.0000000   0.0000000   0.0000000   0.0000000   0.0000000   0.0000000   0.0000000
 NMagM=    0.0000000   0.0000000   0.0000000   0.0000000   0.0000000   0.0000000   0.0000000   0.0000000   2.7928460   2.7928460
 AtZNuc=   6.0000000   6.0000000   6.0000000   6.0000000   6.0000000   6.0000000   6.0000000   6.0000000   1.0000000   1.0000000

  Atom        11          12          13          14          15          16
 IAtWgt=           1           1           1           1           1           1
 AtmWgt=   1.0078250   1.0078250   1.0078250   1.0078250   1.0078250   1.0078250
 NucSpn=           1           1           1           1           1           1
 AtZEff=  -0.0000000  -0.0000000  -0.0000000  -0.0000000  -0.0000000  -0.0000000
 NQMom=    0.0000000   0.0000000   0.0000000   0.0000000   0.0000000   0.0000000
 NMagM=    2.7928460   2.7928460   2.7928460   2.7928460   2.7928460   2.7928460
 AtZNuc=   1.0000000   1.0000000   1.0000000   1.0000000   1.0000000   1.0000000
 No MM parameters found.
 Leave Link  101 at Sat Apr 17 21:21:11 2021, MaxMem=   104857600 cpu:               7.1 elap:               0.2
 (Enter /s/ls4/users/knvvv/bin/g16sse/l202.exe)
                          Input orientation:                          
 ---------------------------------------------------------------------
 Center     Atomic      Atomic             Coordinates (Angstroms)
 Number     Number       Type             X           Y           Z
 ---------------------------------------------------------------------
      1          6           0        0.093790   -1.201829    0.310577
      2          6           0        1.511034   -1.183705   -0.269364
      3          6           0       -0.649362    0.096008    0.040826
      4          6           0        2.205506    0.125353   -0.011694
      5          6           0        0.049302    1.248083   -0.037203
      6          6           0        1.498071    1.258344    0.081735
      7          6           0       -2.063587    0.059561   -0.032864
      8          6           0       -3.264089   -0.020797   -0.087377
      9          1           0        0.137989   -1.341124    1.397945
     10          1           0       -0.468970   -2.046127   -0.085466
     11          1           0        2.087287   -2.015172    0.138858
     12          1           0        1.471405   -1.347151   -1.355037
     13          1           0        3.286999    0.144646    0.032789
     14          1           0       -0.472500    2.185940   -0.172437
     15          1           0        1.996308    2.209975    0.213917
     16          1           0       -4.322505   -0.077102   -0.138383
 ---------------------------------------------------------------------
                    Distance matrix (angstroms):
                    1          2          3          4          5
     1  C    0.000000
     2  C    1.531418   0.000000
     3  C    1.519678   2.530058   0.000000
     4  C    2.514879   1.504100   2.855502   0.000000
     5  C    2.474874   2.846779   1.349628   2.431129   0.000000
     6  C    2.841976   2.467193   2.442164   1.338978   1.453679
     7  C    2.522565   3.792039   1.416612   4.269652   2.424233
     8  C    3.581697   4.918056   2.620473   5.472071   3.548399
     9  H    1.097144   2.165630   2.127685   2.900390   2.961673
    10  H    1.089214   2.167488   2.153424   3.445808   3.335079
    11  H    2.159871   1.090894   3.457736   2.149067   3.851391
    12  H    2.166382   1.098622   2.920410   2.124086   3.239491
    13  H    3.476600   2.238273   3.936670   1.082579   3.421280
    14  H    3.468568   3.911305   2.108217   3.382835   1.081731
    15  H    3.907598   3.462097   3.390927   2.107205   2.186122
    16  H    4.579327   5.939015   3.681584   6.532378   4.569360
                    6          7          8          9         10
     6  C    0.000000
     7  C    3.759737   0.000000
     8  C    4.933859   1.204423   0.000000
     9  H    3.215504   2.975915   3.939997   0.000000
    10  H    3.849251   2.641873   3.451761   1.750982   0.000000
    11  H    3.326612   4.643680   5.715412   2.416486   2.566268
    12  H    2.975505   4.027797   5.078492   3.058912   2.421866
    13  H    2.107838   5.351665   6.554278   3.739977   4.349802
    14  H    2.192758   2.659422   3.559479   3.908833   4.232962
    15  H    1.082272   4.600862   5.721792   4.179184   4.927639
    16  H    5.975866   2.265507   1.061139   4.884062   4.327770
                   11         12         13         14         15
    11  H    0.000000
    12  H    1.748509   0.000000
    13  H    2.472928   2.729084   0.000000
    14  H    4.929377   4.202385   4.282853   0.000000
    15  H    4.226793   3.923045   2.442186   2.498972   0.000000
    16  H    6.702120   6.054970   7.614658   4.465989   6.729208
                   16
    16  H    0.000000
 Stoichiometry    C8H8
 Framework group  C1[X(C8H8)]
 Deg. of freedom    42
 Full point group                 C1      NOp   1
 Largest Abelian subgroup         C1      NOp   1
 Largest concise Abelian subgroup C1      NOp   1
                         Standard orientation:                         
 ---------------------------------------------------------------------
 Center     Atomic      Atomic             Coordinates (Angstroms)
 Number     Number       Type             X           Y           Z
 ---------------------------------------------------------------------
      1          6           0        0.093797   -1.201930    0.310182
      2          6           0        1.511028   -1.183617   -0.269785
      3          6           0       -0.649361    0.095995    0.040872
      4          6           0        2.205506    0.125357   -0.011703
      5          6           0        0.049301    1.248095   -0.036796
      6          6           0        1.498073    1.258317    0.082112
      7          6           0       -2.063588    0.059572   -0.032798
      8          6           0       -3.264091   -0.020768   -0.087310
      9          1           0        0.138020   -1.341581    1.397504
     10          1           0       -0.468972   -2.046099   -0.086124
     11          1           0        2.087290   -2.015217    0.138153
     12          1           0        1.471374   -1.346708   -1.355510
     13          1           0        3.287000    0.144635    0.032762
     14          1           0       -0.472504    2.185996   -0.171712
     15          1           0        1.996313    2.209905    0.214594
     16          1           0       -4.322508   -0.077056   -0.138311
 ---------------------------------------------------------------------
 Rotational constants (GHZ):           5.0515702           1.4704408           1.1716282
 Leave Link  202 at Sat Apr 17 21:21:11 2021, MaxMem=   104857600 cpu:               5.6 elap:               0.1
 (Enter /s/ls4/users/knvvv/bin/g16sse/l301.exe)
 General basis read from cards:  (5D, 7F)
 Centers:       9     10     11     12     13     14     15     16
 S 4 1.00
     Exponent=  1.9069169000D+02 Coefficients=  7.0815167000D-04
     Exponent=  2.8605532000D+01 Coefficients=  5.4678827000D-03
     Exponent=  6.5095943000D+00 Coefficients=  2.7966605000D-02
     Exponent=  1.8412455000D+00 Coefficients=  1.0764538000D-01
 S 1 1.00
     Exponent=  5.9853725000D-01 Coefficients=  1.0000000000D+00
 S 1 1.00
     Exponent=  2.1397624000D-01 Coefficients=  1.0000000000D+00
 S 1 1.00
     Exponent=  8.0316286000D-02 Coefficients=  1.0000000000D+00
 P 1 1.00
     Exponent=  2.2920000000D+00 Coefficients=  1.0000000000D+00
 P 1 1.00
     Exponent=  8.3800000000D-01 Coefficients=  1.0000000000D+00
 P 1 1.00
     Exponent=  2.9200000000D-01 Coefficients=  1.0000000000D+00
 P 1 1.00
     Exponent=  8.4063199228D-02 Coefficients=  1.0000000000D+00
 D 1 1.00
     Exponent=  2.0620000000D+00 Coefficients=  1.0000000000D+00
 D 1 1.00
     Exponent=  6.6200000000D-01 Coefficients=  1.0000000000D+00
 F 1 1.00
     Exponent=  1.3970000000D+00 Coefficients=  1.0000000000D+00
 ****
 Centers:       1      2      3      4      5      6      7      8
 S 8 1.00
     Exponent=  6.7025071029D+04 Coefficients=  3.8736308501D-05
     Exponent=  1.0039986538D+04 Coefficients=  3.0107917575D-04
     Exponent=  2.2849316911D+03 Coefficients=  1.5787918095D-03
     Exponent=  6.4714122130D+02 Coefficients=  6.6087087195D-03
     Exponent=  2.1109472335D+02 Coefficients=  2.3367123250D-02
     Exponent=  7.6177643862D+01 Coefficients=  7.0420716898D-02
     Exponent=  2.9633839163D+01 Coefficients=  1.7360344953D-01
     Exponent=  1.2187785081D+01 Coefficients=  3.2292305648D-01
 S 2 1.00
     Exponent=  5.3026006299D+01 Coefficients=  7.4897404492D-02
     Exponent=  1.5258502776D+01 Coefficients=  7.6136220983D-01
 S 1 1.00
     Exponent=  5.2403957464D+00 Coefficients=  1.0000000000D+00
 S 1 1.00
     Exponent=  2.2905022379D+00 Coefficients=  1.0000000000D+00
 S 1 1.00
     Exponent=  6.9673283006D-01 Coefficients=  1.0000000000D+00
 S 1 1.00
     Exponent=  2.7599337363D-01 Coefficients=  1.0000000000D+00
 S 1 1.00
     Exponent=  1.0739884389D-01 Coefficients=  1.0000000000D+00
 S 1 1.00
     Exponent=  4.4981404899D-02 Coefficients=  1.0000000000D+00
 P 5 1.00
     Exponent=  1.0512555082D+02 Coefficients=  8.4647553844D-04
     Exponent=  2.4884461066D+01 Coefficients=  6.6274038534D-03
     Exponent=  7.8637230826D+00 Coefficients=  3.0120390419D-02
     Exponent=  2.8407001835D+00 Coefficients=  9.9951435476D-02
     Exponent=  1.1227137335D+00 Coefficients=  2.3826299282D-01
 P 1 1.00
     Exponent=  4.6050725555D-01 Coefficients=  1.0000000000D+00
 P 1 1.00
     Exponent=  1.8937530913D-01 Coefficients=  1.0000000000D+00
 P 1 1.00
     Exponent=  7.5983791611D-02 Coefficients=  1.0000000000D+00
 D 1 1.00
     Exponent=  1.8480000000D+00 Coefficients=  1.0000000000D+00
 D 1 1.00
     Exponent=  6.4900000000D-01 Coefficients=  1.0000000000D+00
 D 1 1.00
     Exponent=  2.2800000000D-01 Coefficients=  1.0000000000D+00
 D 1 1.00
     Exponent=  7.6889830417D-02 Coefficients=  1.0000000000D+00
 F 1 1.00
     Exponent=  1.4190000000D+00 Coefficients=  1.0000000000D+00
 F 1 1.00
     Exponent=  4.8500000000D-01 Coefficients=  1.0000000000D+00
 G 1 1.00
     Exponent=  1.0110000000D+00 Coefficients=  1.0000000000D+00
 ****
 Ernie: Thresh=  0.10000D-02 Tol=  0.10000D-05 Strict=F.
 There are   936 symmetry adapted cartesian basis functions of A   symmetry.
 There are   768 symmetry adapted basis functions of A   symmetry.
   768 basis functions,  1120 primitive gaussians,   936 cartesian basis functions
    28 alpha electrons       28 beta electrons
       nuclear repulsion energy       317.9831321696 Hartrees.
 IExCor= 4336 DFT=T Ex+Corr=M062X ExCW=0 ScaHFX=  0.540000
 ScaDFX=  1.000000  1.000000  1.000000  1.000000 ScalE2=  1.000000  1.000000
 IRadAn=      5 IRanWt=     -1 IRanGd=            0 ICorTp=0 IEmpDi=  4
 NAtoms=   16 NActive=   16 NUniq=   16 SFac= 1.00D+00 NAtFMM=   60 NAOKFM=F Big=F
 Integral buffers will be    131072 words long.
 Raffenetti 2 integral format.
 Two-electron integral symmetry is turned on.
 Leave Link  301 at Sat Apr 17 21:21:11 2021, MaxMem=   104857600 cpu:               7.5 elap:               0.2
 (Enter /s/ls4/users/knvvv/bin/g16sse/l302.exe)
 NPDir=0 NMtPBC=     1 NCelOv=     1 NCel=       1 NClECP=     1 NCelD=      1
         NCelK=      1 NCelE2=     1 NClLst=     1 CellRange=     0.0.
 One-electron integrals computed using PRISM.
 One-electron integral symmetry used in STVInt
 PrsmSu:  requested number of processors reduced to:   4 ShMem   1 Linda.
 PrsmSu:  requested number of processors reduced to:  18 ShMem   1 Linda.
 NBasis=   768 RedAO= T EigKep=  1.21D-06  NBF=   768
 NBsUse=   758 1.00D-06 EigRej=  8.15D-07 NBFU=   758
 Precomputing XC quadrature grid using
 IXCGrd= 4 IRadAn=           5 IRanWt=          -1 IRanGd=           0 AccXCQ= 0.00D+00.
 Generated NRdTot=       0 NPtTot=           0 NUsed=           0 NTot=          32
 NSgBfM=   933   933   933   933   933 MxSgAt=    16 MxSgA2=    16.
 Leave Link  302 at Sat Apr 17 21:21:26 2021, MaxMem=   104857600 cpu:             680.8 elap:              14.6
 (Enter /s/ls4/users/knvvv/bin/g16sse/l303.exe)
 DipDrv:  MaxL=1.
 Leave Link  303 at Sat Apr 17 21:21:34 2021, MaxMem=   104857600 cpu:             357.8 elap:               7.6
 (Enter /s/ls4/users/knvvv/bin/g16sse/l401.exe)
 SCF N**3 symmetry information disabled.
 ExpMin= 4.50D-02 ExpMax= 6.70D+04 ExpMxC= 6.47D+02 IAcc=3 IRadAn=         5 AccDes= 0.00D+00
 Harris functional with IExCor= 1009 and IRadAn=       5 diagonalized for initial guess.
 HarFok:  IExCor= 1009 AccDes= 0.00D+00 IRadAn=         5 IDoV= 1 UseB2=F ITyADJ=14
 ICtDFT=  3500011 ScaDFX=  1.000000  1.000000  1.000000  1.000000
 CalDSu:  requested number of processors reduced to:  46 ShMem   1 Linda.
 FoFCou: FMM=F IPFlag=           0 FMFlag=      100000 FMFlg1=           0
         NFxFlg=           0 DoJE=T BraDBF=F KetDBF=T FulRan=T
         wScrn=  0.000000 ICntrl=       500 IOpCl=  0 I1Cent=   200000004 NGrid=           0
         NMat0=    1 NMatS0=      1 NMatT0=    0 NMatD0=    1 NMtDS0=    0 NMtDT0=    0
 Petite list used in FoFCou.
 CoulSu:  requested number of processors reduced to:  16 ShMem   1 Linda.
 CoulSu:  requested number of processors reduced to:  17 ShMem   1 Linda.
 CoulSu:  requested number of processors reduced to:  21 ShMem   1 Linda.
 CoulSu:  requested number of processors reduced to:  21 ShMem   1 Linda.
 Harris En= -309.491869231485    
 JPrj=0 DoOrth=F DoCkMO=F.
 Leave Link  401 at Sat Apr 17 21:21:44 2021, MaxMem=   104857600 cpu:             441.9 elap:               9.8
 (Enter /s/ls4/users/knvvv/bin/g16sse/l502.exe)
 Integral symmetry usage will be decided dynamically.
 Closed shell SCF:
 Using DIIS extrapolation, IDIIS=  1040.
 NGot=   104857600 LenX=   103053188 LenY=   102176156
 Requested convergence on RMS density matrix=1.00D-08 within 128 cycles.
 Requested convergence on MAX density matrix=1.00D-06.
 Requested convergence on             energy=1.00D-06.
 No special actions if energy rises.
 Fock matrices will be formed incrementally for  20 cycles.

 Cycle   1  Pass 1  IDiag  1:
 FoFJK:  IHMeth= 1 ICntrl=       0 DoSepK=F KAlg= 0 I1Cent=           0 FoldK=F
 IRaf= 920000000 NMat=       1 IRICut=       1 DoRegI=T DoRafI=F ISym2E= 0 IDoP0=0 IntGTp=1.
 FoFCou: FMM=F IPFlag=           0 FMFlag=      100000 FMFlg1=           0
         NFxFlg=           0 DoJE=F BraDBF=F KetDBF=F FulRan=T
         wScrn=  0.000000 ICntrl=         0 IOpCl=  0 I1Cent=           0 NGrid=           0
         NMat0=    1 NMatS0=      1 NMatT0=    0 NMatD0=    1 NMtDS0=    0 NMtDT0=    0
 Symmetry not used in FoFCou.
 CoulSu:  requested number of processors reduced to:  18 ShMem   1 Linda.
 CalDSu:  requested number of processors reduced to:  46 ShMem   1 Linda.
 E= -309.318313895732    
 DIIS: error= 2.12D-02 at cycle   1 NSaved=   1.
 NSaved= 1 IEnMin= 1 EnMin= -309.318313895732     IErMin= 1 ErrMin= 2.12D-02
 ErrMax= 2.12D-02  0.00D+00 EMaxC= 1.00D-01 BMatC= 3.95D-01 BMatP= 3.95D-01
 IDIUse=3 WtCom= 7.88D-01 WtEn= 2.12D-01
 Coeff-Com:  0.100D+01
 Coeff-En:   0.100D+01
 Coeff:      0.100D+01
 Gap=     0.239 Goal=   None    Shift=    0.000
 GapD=    0.239 DampG=1.000 DampE=0.500 DampFc=0.5000 IDamp=-1.
 Damping current iteration by 5.00D-01
 RMSDP=3.02D-03 MaxDP=3.91D-01              OVMax= 1.65D-01

 Cycle   2  Pass 1  IDiag  1:
 RMSU=  1.37D-03    CP:  8.54D-01
 CoulSu:  requested number of processors reduced to:  18 ShMem   1 Linda.
 CalDSu:  requested number of processors reduced to:  46 ShMem   1 Linda.
 E= -309.449343737680     Delta-E=       -0.131029841947 Rises=F Damp=T
 DIIS: error= 7.11D-03 at cycle   2 NSaved=   2.
 NSaved= 2 IEnMin= 2 EnMin= -309.449343737680     IErMin= 2 ErrMin= 7.11D-03
 ErrMax= 7.11D-03  0.00D+00 EMaxC= 1.00D-01 BMatC= 4.85D-02 BMatP= 3.95D-01
 IDIUse=3 WtCom= 9.29D-01 WtEn= 7.11D-02
 Coeff-Com: -0.282D+00 0.128D+01
 Coeff-En:   0.000D+00 0.100D+01
 Coeff:     -0.262D+00 0.126D+01
 Gap=     0.287 Goal=   None    Shift=    0.000
 RMSDP=2.05D-03 MaxDP=1.92D-01 DE=-1.31D-01 OVMax= 9.52D-02

 Cycle   3  Pass 1  IDiag  1:
 RMSU=  1.92D-03    CP:  7.00D-01  8.29D-01
 CoulSu:  requested number of processors reduced to:  18 ShMem   1 Linda.
 CalDSu:  requested number of processors reduced to:  46 ShMem   1 Linda.
 E= -309.561376518019     Delta-E=       -0.112032780340 Rises=F Damp=F
 DIIS: error= 5.63D-03 at cycle   3 NSaved=   3.
 NSaved= 3 IEnMin= 3 EnMin= -309.561376518019     IErMin= 3 ErrMin= 5.63D-03
 ErrMax= 5.63D-03  0.00D+00 EMaxC= 1.00D-01 BMatC= 9.51D-03 BMatP= 4.85D-02
 IDIUse=3 WtCom= 9.44D-01 WtEn= 5.63D-02
 Coeff-Com: -0.166D+00 0.446D+00 0.720D+00
 Coeff-En:   0.000D+00 0.000D+00 0.100D+01
 Coeff:     -0.157D+00 0.421D+00 0.736D+00
 Gap=     0.241 Goal=   None    Shift=    0.000
 RMSDP=3.03D-04 MaxDP=3.09D-02 DE=-1.12D-01 OVMax= 3.52D-02

 Cycle   4  Pass 1  IDiag  1:
 RMSU=  2.77D-04    CP:  6.90D-01  8.41D-01  9.42D-01
 CoulSu:  requested number of processors reduced to:  18 ShMem   1 Linda.
 CalDSu:  requested number of processors reduced to:  46 ShMem   1 Linda.
 E= -309.568939004435     Delta-E=       -0.007562486415 Rises=F Damp=F
 DIIS: error= 2.31D-03 at cycle   4 NSaved=   4.
 NSaved= 4 IEnMin= 4 EnMin= -309.568939004435     IErMin= 4 ErrMin= 2.31D-03
 ErrMax= 2.31D-03  0.00D+00 EMaxC= 1.00D-01 BMatC= 1.94D-03 BMatP= 9.51D-03
 IDIUse=3 WtCom= 9.77D-01 WtEn= 2.31D-02
 Coeff-Com: -0.685D-01 0.159D+00 0.384D+00 0.525D+00
 Coeff-En:   0.000D+00 0.000D+00 0.102D+00 0.898D+00
 Coeff:     -0.669D-01 0.155D+00 0.378D+00 0.534D+00
 Gap=     0.239 Goal=   None    Shift=    0.000
 RMSDP=1.26D-04 MaxDP=1.62D-02 DE=-7.56D-03 OVMax= 1.80D-02

 Cycle   5  Pass 1  IDiag  1:
 RMSU=  1.00D-04    CP:  6.85D-01  8.63D-01  9.09D-01  9.14D-01
 CoulSu:  requested number of processors reduced to:  18 ShMem   1 Linda.
 CalDSu:  requested number of processors reduced to:  46 ShMem   1 Linda.
 E= -309.570716025304     Delta-E=       -0.001777020870 Rises=F Damp=F
 DIIS: error= 6.41D-04 at cycle   5 NSaved=   5.
 NSaved= 5 IEnMin= 5 EnMin= -309.570716025304     IErMin= 5 ErrMin= 6.41D-04
 ErrMax= 6.41D-04  0.00D+00 EMaxC= 1.00D-01 BMatC= 1.73D-04 BMatP= 1.94D-03
 IDIUse=3 WtCom= 9.94D-01 WtEn= 6.41D-03
 Coeff-Com: -0.218D-01 0.470D-01 0.142D+00 0.289D+00 0.544D+00
 Coeff-En:   0.000D+00 0.000D+00 0.000D+00 0.000D+00 0.100D+01
 Coeff:     -0.216D-01 0.467D-01 0.141D+00 0.287D+00 0.547D+00
 Gap=     0.239 Goal=   None    Shift=    0.000
 RMSDP=3.99D-05 MaxDP=5.14D-03 DE=-1.78D-03 OVMax= 5.00D-03

 Cycle   6  Pass 1  IDiag  1:
 RMSU=  2.38D-05    CP:  6.84D-01  8.62D-01  8.99D-01  9.91D-01  1.13D+00
 CoulSu:  requested number of processors reduced to:  18 ShMem   1 Linda.
 CalDSu:  requested number of processors reduced to:  46 ShMem   1 Linda.
 E= -309.570870379983     Delta-E=       -0.000154354679 Rises=F Damp=F
 DIIS: error= 1.63D-04 at cycle   6 NSaved=   6.
 NSaved= 6 IEnMin= 6 EnMin= -309.570870379983     IErMin= 6 ErrMin= 1.63D-04
 ErrMax= 1.63D-04  0.00D+00 EMaxC= 1.00D-01 BMatC= 1.22D-05 BMatP= 1.73D-04
 IDIUse=3 WtCom= 9.98D-01 WtEn= 1.63D-03
 Coeff-Com: -0.244D-02 0.490D-02 0.219D-01 0.733D-01 0.259D+00 0.643D+00
 Coeff-En:   0.000D+00 0.000D+00 0.000D+00 0.000D+00 0.000D+00 0.100D+01
 Coeff:     -0.243D-02 0.489D-02 0.218D-01 0.732D-01 0.259D+00 0.644D+00
 Gap=     0.239 Goal=   None    Shift=    0.000
 RMSDP=2.06D-05 MaxDP=2.10D-03 DE=-1.54D-04 OVMax= 1.55D-03

 Cycle   7  Pass 1  IDiag  1:
 RMSU=  1.02D-05    CP:  6.84D-01  8.58D-01  8.96D-01  1.04D+00  1.17D+00
                    CP:  1.27D+00
 CoulSu:  requested number of processors reduced to:  18 ShMem   1 Linda.
 CalDSu:  requested number of processors reduced to:  46 ShMem   1 Linda.
 E= -309.570882159091     Delta-E=       -0.000011779108 Rises=F Damp=F
 DIIS: error= 4.63D-05 at cycle   7 NSaved=   7.
 NSaved= 7 IEnMin= 7 EnMin= -309.570882159091     IErMin= 7 ErrMin= 4.63D-05
 ErrMax= 4.63D-05  0.00D+00 EMaxC= 1.00D-01 BMatC= 1.08D-06 BMatP= 1.22D-05
 IDIUse=1 WtCom= 1.00D+00 WtEn= 0.00D+00
 Coeff-Com:  0.214D-02-0.478D-02-0.106D-01-0.959D-02 0.342D-01 0.259D+00
 Coeff-Com:  0.729D+00
 Coeff:      0.214D-02-0.478D-02-0.106D-01-0.959D-02 0.342D-01 0.259D+00
 Coeff:      0.729D+00
 Gap=     0.239 Goal=   None    Shift=    0.000
 RMSDP=5.68D-06 MaxDP=5.65D-04 DE=-1.18D-05 OVMax= 6.42D-04

 Cycle   8  Pass 1  IDiag  1:
 RMSU=  3.29D-06    CP:  6.84D-01  8.58D-01  8.95D-01  1.05D+00  1.20D+00
                    CP:  1.33D+00  1.07D+00
 CoulSu:  requested number of processors reduced to:  18 ShMem   1 Linda.
 CalDSu:  requested number of processors reduced to:  46 ShMem   1 Linda.
 E= -309.570883228186     Delta-E=       -0.000001069094 Rises=F Damp=F
 DIIS: error= 1.47D-05 at cycle   8 NSaved=   8.
 NSaved= 8 IEnMin= 8 EnMin= -309.570883228186     IErMin= 8 ErrMin= 1.47D-05
 ErrMax= 1.47D-05  0.00D+00 EMaxC= 1.00D-01 BMatC= 1.85D-07 BMatP= 1.08D-06
 IDIUse=1 WtCom= 1.00D+00 WtEn= 0.00D+00
 Coeff-Com:  0.123D-02-0.273D-02-0.723D-02-0.122D-01-0.105D-01 0.576D-01
 Coeff-Com:  0.356D+00 0.618D+00
 Coeff:      0.123D-02-0.273D-02-0.723D-02-0.122D-01-0.105D-01 0.576D-01
 Coeff:      0.356D+00 0.618D+00
 Gap=     0.239 Goal=   None    Shift=    0.000
 RMSDP=1.44D-06 MaxDP=1.82D-04 DE=-1.07D-06 OVMax= 1.45D-04

 Cycle   9  Pass 1  IDiag  1:
 RMSU=  1.10D-06    CP:  6.84D-01  8.58D-01  8.95D-01  1.05D+00  1.20D+00
                    CP:  1.32D+00  1.05D+00  1.21D+00
 CoulSu:  requested number of processors reduced to:  18 ShMem   1 Linda.
 CalDSu:  requested number of processors reduced to:  46 ShMem   1 Linda.
 E= -309.570883419218     Delta-E=       -0.000000191032 Rises=F Damp=F
 DIIS: error= 3.82D-06 at cycle   9 NSaved=   9.
 NSaved= 9 IEnMin= 9 EnMin= -309.570883419218     IErMin= 9 ErrMin= 3.82D-06
 ErrMax= 3.82D-06  0.00D+00 EMaxC= 1.00D-01 BMatC= 6.33D-09 BMatP= 1.85D-07
 IDIUse=1 WtCom= 1.00D+00 WtEn= 0.00D+00
 Coeff-Com: -0.243D-04 0.149D-04-0.174D-03-0.105D-02-0.466D-02-0.134D-01
 Coeff-Com:  0.739D-03 0.125D+00 0.893D+00
 Coeff:     -0.243D-04 0.149D-04-0.174D-03-0.105D-02-0.466D-02-0.134D-01
 Coeff:      0.739D-03 0.125D+00 0.893D+00
 Gap=     0.239 Goal=   None    Shift=    0.000
 RMSDP=1.01D-06 MaxDP=1.04D-04 DE=-1.91D-07 OVMax= 6.40D-05

 Cycle  10  Pass 1  IDiag  1:
 RMSU=  4.06D-07    CP:  6.84D-01  8.58D-01  8.95D-01  1.05D+00  1.20D+00
                    CP:  1.31D+00  1.03D+00  1.33D+00  1.36D+00
 CoulSu:  requested number of processors reduced to:  18 ShMem   1 Linda.
 CalDSu:  requested number of processors reduced to:  46 ShMem   1 Linda.
 E= -309.570883427700     Delta-E=       -0.000000008482 Rises=F Damp=F
 DIIS: error= 1.77D-06 at cycle  10 NSaved=  10.
 NSaved=10 IEnMin=10 EnMin= -309.570883427700     IErMin=10 ErrMin= 1.77D-06
 ErrMax= 1.77D-06  0.00D+00 EMaxC= 1.00D-01 BMatC= 2.02D-09 BMatP= 6.33D-09
 IDIUse=1 WtCom= 1.00D+00 WtEn= 0.00D+00
 Coeff-Com: -0.114D-03 0.234D-03 0.493D-03 0.416D-03-0.142D-02-0.115D-01
 Coeff-Com: -0.277D-01 0.101D-01 0.433D+00 0.596D+00
 Coeff:     -0.114D-03 0.234D-03 0.493D-03 0.416D-03-0.142D-02-0.115D-01
 Coeff:     -0.277D-01 0.101D-01 0.433D+00 0.596D+00
 Gap=     0.239 Goal=   None    Shift=    0.000
 RMSDP=1.37D-07 MaxDP=1.14D-05 DE=-8.48D-09 OVMax= 2.68D-05

 Cycle  11  Pass 1  IDiag  1:
 RMSU=  7.64D-08    CP:  6.84D-01  8.58D-01  8.95D-01  1.05D+00  1.20D+00
                    CP:  1.31D+00  1.03D+00  1.34D+00  1.42D+00  1.14D+00
 CoulSu:  requested number of processors reduced to:  18 ShMem   1 Linda.
 CalDSu:  requested number of processors reduced to:  46 ShMem   1 Linda.
 E= -309.570883429902     Delta-E=       -0.000000002202 Rises=F Damp=F
 DIIS: error= 5.88D-07 at cycle  11 NSaved=  11.
 NSaved=11 IEnMin=11 EnMin= -309.570883429902     IErMin=11 ErrMin= 5.88D-07
 ErrMax= 5.88D-07  0.00D+00 EMaxC= 1.00D-01 BMatC= 1.72D-10 BMatP= 2.02D-09
 IDIUse=1 WtCom= 1.00D+00 WtEn= 0.00D+00
 Coeff-Com: -0.245D-04 0.552D-04 0.121D-03 0.118D-03-0.398D-04-0.224D-02
 Coeff-Com: -0.801D-02-0.136D-01 0.104D-01 0.220D+00 0.793D+00
 Coeff:     -0.245D-04 0.552D-04 0.121D-03 0.118D-03-0.398D-04-0.224D-02
 Coeff:     -0.801D-02-0.136D-01 0.104D-01 0.220D+00 0.793D+00
 Gap=     0.239 Goal=   None    Shift=    0.000
 RMSDP=8.74D-08 MaxDP=8.84D-06 DE=-2.20D-09 OVMax= 9.82D-06

 Cycle  12  Pass 1  IDiag  1:
 RMSU=  4.83D-08    CP:  6.84D-01  8.58D-01  8.95D-01  1.05D+00  1.20D+00
                    CP:  1.31D+00  1.03D+00  1.34D+00  1.43D+00  1.20D+00
                    CP:  1.34D+00
 CoulSu:  requested number of processors reduced to:  18 ShMem   1 Linda.
 CalDSu:  requested number of processors reduced to:  46 ShMem   1 Linda.
 E= -309.570883430088     Delta-E=       -0.000000000186 Rises=F Damp=F
 DIIS: error= 1.20D-07 at cycle  12 NSaved=  12.
 NSaved=12 IEnMin=12 EnMin= -309.570883430088     IErMin=12 ErrMin= 1.20D-07
 ErrMax= 1.20D-07  0.00D+00 EMaxC= 1.00D-01 BMatC= 1.31D-11 BMatP= 1.72D-10
 IDIUse=1 WtCom= 1.00D+00 WtEn= 0.00D+00
 Coeff-Com: -0.295D-07 0.214D-05 0.399D-05-0.454D-05 0.363D-04-0.812D-04
 Coeff-Com: -0.848D-03-0.539D-02-0.261D-01 0.427D-01 0.286D+00 0.704D+00
 Coeff:     -0.295D-07 0.214D-05 0.399D-05-0.454D-05 0.363D-04-0.812D-04
 Coeff:     -0.848D-03-0.539D-02-0.261D-01 0.427D-01 0.286D+00 0.704D+00
 Gap=     0.239 Goal=   None    Shift=    0.000
 RMSDP=2.71D-08 MaxDP=3.07D-06 DE=-1.86D-10 OVMax= 2.56D-06

 Cycle  13  Pass 1  IDiag  1:
 RMSU=  1.05D-08    CP:  6.84D-01  8.58D-01  8.95D-01  1.05D+00  1.20D+00
                    CP:  1.31D+00  1.03D+00  1.34D+00  1.43D+00  1.21D+00
                    CP:  1.45D+00  1.23D+00
 CoulSu:  requested number of processors reduced to:  18 ShMem   1 Linda.
 CalDSu:  requested number of processors reduced to:  46 ShMem   1 Linda.
 E= -309.570883430147     Delta-E=       -0.000000000059 Rises=F Damp=F
 DIIS: error= 3.88D-08 at cycle  13 NSaved=  13.
 NSaved=13 IEnMin=13 EnMin= -309.570883430147     IErMin=13 ErrMin= 3.88D-08
 ErrMax= 3.88D-08  0.00D+00 EMaxC= 1.00D-01 BMatC= 1.30D-12 BMatP= 1.31D-11
 IDIUse=1 WtCom= 1.00D+00 WtEn= 0.00D+00
 Coeff-Com:  0.270D-05-0.564D-05-0.112D-04-0.965D-05 0.193D-04 0.290D-03
 Coeff-Com:  0.954D-03 0.627D-03-0.719D-02-0.209D-01-0.654D-01 0.180D+00
 Coeff-Com:  0.912D+00
 Coeff:      0.270D-05-0.564D-05-0.112D-04-0.965D-05 0.193D-04 0.290D-03
 Coeff:      0.954D-03 0.627D-03-0.719D-02-0.209D-01-0.654D-01 0.180D+00
 Coeff:      0.912D+00
 Gap=     0.239 Goal=   None    Shift=    0.000
 RMSDP=1.18D-08 MaxDP=1.10D-06 DE=-5.89D-11 OVMax= 7.77D-07

 Cycle  14  Pass 1  IDiag  1:
 RMSU=  4.85D-09    CP:  6.84D-01  8.58D-01  8.95D-01  1.05D+00  1.20D+00
                    CP:  1.31D+00  1.03D+00  1.34D+00  1.43D+00  1.22D+00
                    CP:  1.50D+00  1.39D+00  1.28D+00
 CoulSu:  requested number of processors reduced to:  18 ShMem   1 Linda.
 CalDSu:  requested number of processors reduced to:  46 ShMem   1 Linda.
 E= -309.570883430143     Delta-E=        0.000000000004 Rises=F Damp=F
 DIIS: error= 5.25D-09 at cycle  14 NSaved=  14.
 NSaved=14 IEnMin=13 EnMin= -309.570883430147     IErMin=14 ErrMin= 5.25D-09
 ErrMax= 5.25D-09  0.00D+00 EMaxC= 1.00D-01 BMatC= 2.99D-14 BMatP= 1.30D-12
 IDIUse=1 WtCom= 1.00D+00 WtEn= 0.00D+00
 Coeff-Com:  0.367D-06-0.878D-06-0.124D-05 0.723D-06 0.717D-05 0.534D-04
 Coeff-Com:  0.199D-03 0.224D-03-0.618D-03-0.484D-02-0.226D-01 0.102D-01
 Coeff-Com:  0.154D+00 0.864D+00
 Coeff:      0.367D-06-0.878D-06-0.124D-05 0.723D-06 0.717D-05 0.534D-04
 Coeff:      0.199D-03 0.224D-03-0.618D-03-0.484D-02-0.226D-01 0.102D-01
 Coeff:      0.154D+00 0.864D+00
 Gap=     0.239 Goal=   None    Shift=    0.000
 RMSDP=1.82D-09 MaxDP=1.14D-07 DE= 3.87D-12 OVMax= 1.16D-07

 SCF Done:  E(RM062X) =  -309.570883430     A.U. after   14 cycles
            NFock= 14  Conv=0.18D-08     -V/T= 2.0045
 KE= 3.081733517266D+02 PE=-1.353460383601D+03 EE= 4.177330162743D+02
 Leave Link  502 at Sat Apr 17 21:40:20 2021, MaxMem=   104857600 cpu:           27437.8 elap:            1116.6
 (Enter /s/ls4/users/knvvv/bin/g16sse/l601.exe)
 Copying SCF densities to generalized density rwf, IOpCl= 0 IROHF=0.

 **********************************************************************

            Population analysis using the SCF density.

 **********************************************************************

 Orbital symmetries:
       Occupied  (A) (A) (A) (A) (A) (A) (A) (A) (A) (A) (A) (A)
                 (A) (A) (A) (A) (A) (A) (A) (A) (A) (A) (A) (A)
                 (A) (A) (A) (A)
       Virtual   (A) (A) (A) (A) (A) (A) (A) (A) (A) (A) (A) (A)
                 (A) (A) (A) (A) (A) (A) (A) (A) (A) (A) (A) (A)
                 (A) (A) (A) (A) (A) (A) (A) (A) (A) (A) (A) (A)
                 (A) (A) (A) (A) (A) (A) (A) (A) (A) (A) (A) (A)
                 (A) (A) (A) (A) (A) (A) (A) (A) (A) (A) (A) (A)
                 (A) (A) (A) (A) (A) (A) (A) (A) (A) (A) (A) (A)
                 (A) (A) (A) (A) (A) (A) (A) (A) (A) (A) (A) (A)
                 (A) (A) (A) (A) (A) (A) (A) (A) (A) (A) (A) (A)
                 (A) (A) (A) (A) (A) (A) (A) (A) (A) (A) (A) (A)
                 (A) (A) (A) (A) (A) (A) (A) (A) (A) (A) (A) (A)
                 (A) (A) (A) (A) (A) (A) (A) (A) (A) (A) (A) (A)
                 (A) (A) (A) (A) (A) (A) (A) (A) (A) (A) (A) (A)
                 (A) (A) (A) (A) (A) (A) (A) (A) (A) (A) (A) (A)
                 (A) (A) (A) (A) (A) (A) (A) (A) (A) (A) (A) (A)
                 (A) (A) (A) (A) (A) (A) (A) (A) (A) (A) (A) (A)
                 (A) (A) (A) (A) (A) (A) (A) (A) (A) (A) (A) (A)
                 (A) (A) (A) (A) (A) (A) (A) (A) (A) (A) (A) (A)
                 (A) (A) (A) (A) (A) (A) (A) (A) (A) (A) (A) (A)
                 (A) (A) (A) (A) (A) (A) (A) (A) (A) (A) (A) (A)
                 (A) (A) (A) (A) (A) (A) (A) (A) (A) (A) (A) (A)
                 (A) (A) (A) (A) (A) (A) (A) (A) (A) (A) (A) (A)
                 (A) (A) (A) (A) (A) (A) (A) (A) (A) (A) (A) (A)
                 (A) (A) (A) (A) (A) (A) (A) (A) (A) (A) (A) (A)
                 (A) (A) (A) (A) (A) (A) (A) (A) (A) (A) (A) (A)
                 (A) (A) (A) (A) (A) (A) (A) (A) (A) (A) (A) (A)
                 (A) (A) (A) (A) (A) (A) (A) (A) (A) (A) (A) (A)
                 (A) (A) (A) (A) (A) (A) (A) (A) (A) (A) (A) (A)
                 (A) (A) (A) (A) (A) (A) (A) (A) (A) (A) (A) (A)
                 (A) (A) (A) (A) (A) (A) (A) (A) (A) (A) (A) (A)
                 (A) (A) (A) (A) (A) (A) (A) (A) (A) (A) (A) (A)
                 (A) (A) (A) (A) (A) (A) (A) (A) (A) (A) (A) (A)
                 (A) (A) (A) (A) (A) (A) (A) (A) (A) (A) (A) (A)
                 (A) (A) (A) (A) (A) (A) (A) (A) (A) (A) (A) (A)
                 (A) (A) (A) (A) (A) (A) (A) (A) (A) (A) (A) (A)
                 (A) (A) (A) (A) (A) (A) (A) (A) (A) (A) (A) (A)
                 (A) (A) (A) (A) (A) (A) (A) (A) (A) (A) (A) (A)
                 (A) (A) (A) (A) (A) (A) (A) (A) (A) (A) (A) (A)
                 (A) (A) (A) (A) (A) (A) (A) (A) (A) (A) (A) (A)
                 (A) (A) (A) (A) (A) (A) (A) (A) (A) (A) (A) (A)
                 (A) (A) (A) (A) (A) (A) (A) (A) (A) (A) (A) (A)
                 (A) (A) (A) (A) (A) (A) (A) (A) (A) (A) (A) (A)
                 (A) (A) (A) (A) (A) (A) (A) (A) (A) (A) (A) (A)
                 (A) (A) (A) (A) (A) (A) (A) (A) (A) (A) (A) (A)
                 (A) (A) (A) (A) (A) (A) (A) (A) (A) (A) (A) (A)
                 (A) (A) (A) (A) (A) (A) (A) (A) (A) (A) (A) (A)
                 (A) (A) (A) (A) (A) (A) (A) (A) (A) (A) (A) (A)
                 (A) (A) (A) (A) (A) (A) (A) (A) (A) (A) (A) (A)
                 (A) (A) (A) (A) (A) (A) (A) (A) (A) (A) (A) (A)
                 (A) (A) (A) (A) (A) (A) (A) (A) (A) (A) (A) (A)
                 (A) (A) (A) (A) (A) (A) (A) (A) (A) (A) (A) (A)
                 (A) (A) (A) (A) (A) (A) (A) (A) (A) (A) (A) (A)
                 (A) (A) (A) (A) (A) (A) (A) (A) (A) (A) (A) (A)
                 (A) (A) (A) (A) (A) (A) (A) (A) (A) (A) (A) (A)
                 (A) (A) (A) (A) (A) (A) (A) (A) (A) (A) (A) (A)
                 (A) (A) (A) (A) (A) (A) (A) (A) (A) (A) (A) (A)
                 (A) (A) (A) (A) (A) (A) (A) (A) (A) (A) (A) (A)
                 (A) (A) (A) (A) (A) (A) (A) (A) (A) (A) (A) (A)
                 (A) (A) (A) (A) (A) (A) (A) (A) (A) (A) (A) (A)
                 (A) (A) (A) (A) (A) (A) (A) (A) (A) (A) (A) (A)
                 (A) (A) (A) (A) (A) (A) (A) (A) (A) (A) (A) (A)
                 (A) (A) (A) (A) (A) (A) (A) (A) (A) (A)
 The electronic state is 1-A.
 Alpha  occ. eigenvalues --  -10.56957 -10.55179 -10.55063 -10.55020 -10.54854
 Alpha  occ. eigenvalues --  -10.54511 -10.54495 -10.53720  -0.96081  -0.88290
 Alpha  occ. eigenvalues --   -0.84821  -0.82204  -0.71563  -0.70269  -0.62193
 Alpha  occ. eigenvalues --   -0.58432  -0.57322  -0.52537  -0.50913  -0.50235
 Alpha  occ. eigenvalues --   -0.46537  -0.44786  -0.40918  -0.39964  -0.39330
 Alpha  occ. eigenvalues --   -0.35153  -0.33713  -0.26413
 Alpha virt. eigenvalues --   -0.02505   0.00630   0.02104   0.02652   0.03762
 Alpha virt. eigenvalues --    0.04103   0.05674   0.05885   0.06713   0.07246
 Alpha virt. eigenvalues --    0.07710   0.09761   0.10264   0.11763   0.12005
 Alpha virt. eigenvalues --    0.12785   0.13378   0.14178   0.14499   0.14717
 Alpha virt. eigenvalues --    0.16073   0.16547   0.17446   0.17831   0.18143
 Alpha virt. eigenvalues --    0.18997   0.19857   0.19880   0.20435   0.20778
 Alpha virt. eigenvalues --    0.20904   0.21365   0.21607   0.21963   0.22183
 Alpha virt. eigenvalues --    0.22742   0.23622   0.24221   0.24331   0.24586
 Alpha virt. eigenvalues --    0.24708   0.25949   0.26206   0.27182   0.27341
 Alpha virt. eigenvalues --    0.28186   0.29592   0.29852   0.30017   0.30473
 Alpha virt. eigenvalues --    0.30748   0.30845   0.31780   0.32753   0.32865
 Alpha virt. eigenvalues --    0.33201   0.33652   0.33985   0.34791   0.35414
 Alpha virt. eigenvalues --    0.35713   0.37005   0.37146   0.37527   0.37900
 Alpha virt. eigenvalues --    0.38318   0.38586   0.39582   0.39973   0.40105
 Alpha virt. eigenvalues --    0.40478   0.41301   0.41565   0.41990   0.42449
 Alpha virt. eigenvalues --    0.43150   0.43293   0.43952   0.44592   0.45292
 Alpha virt. eigenvalues --    0.46256   0.46416   0.47050   0.47636   0.48647
 Alpha virt. eigenvalues --    0.48842   0.49340   0.49408   0.50047   0.50800
 Alpha virt. eigenvalues --    0.50977   0.52022   0.52422   0.52927   0.54043
 Alpha virt. eigenvalues --    0.54309   0.55136   0.55380   0.55832   0.56461
 Alpha virt. eigenvalues --    0.57199   0.57931   0.59247   0.59693   0.60205
 Alpha virt. eigenvalues --    0.60940   0.61990   0.62288   0.63990   0.64626
 Alpha virt. eigenvalues --    0.65865   0.66129   0.67134   0.68724   0.69024
 Alpha virt. eigenvalues --    0.69925   0.70553   0.71255   0.72363   0.74070
 Alpha virt. eigenvalues --    0.75259   0.75921   0.77045   0.77428   0.78421
 Alpha virt. eigenvalues --    0.78749   0.79745   0.81270   0.82457   0.83751
 Alpha virt. eigenvalues --    0.83903   0.84768   0.85356   0.86870   0.87465
 Alpha virt. eigenvalues --    0.88608   0.89256   0.90240   0.91627   0.92537
 Alpha virt. eigenvalues --    0.93275   0.93772   0.94454   0.94939   0.95596
 Alpha virt. eigenvalues --    0.96152   0.97797   0.98227   0.98724   0.99631
 Alpha virt. eigenvalues --    1.00088   1.01049   1.02349   1.02793   1.03622
 Alpha virt. eigenvalues --    1.05064   1.05885   1.06661   1.06817   1.08303
 Alpha virt. eigenvalues --    1.09482   1.10162   1.11130   1.11343   1.12327
 Alpha virt. eigenvalues --    1.13084   1.13869   1.14771   1.15745   1.17346
 Alpha virt. eigenvalues --    1.17796   1.19085   1.20063   1.21236   1.21932
 Alpha virt. eigenvalues --    1.23193   1.24643   1.24767   1.25649   1.26975
 Alpha virt. eigenvalues --    1.27909   1.29131   1.29885   1.31107   1.31938
 Alpha virt. eigenvalues --    1.33555   1.34402   1.34698   1.36288   1.38938
 Alpha virt. eigenvalues --    1.40144   1.41779   1.42723   1.44131   1.44333
 Alpha virt. eigenvalues --    1.45180   1.47603   1.48874   1.49782   1.53664
 Alpha virt. eigenvalues --    1.54937   1.55949   1.57238   1.59390   1.60826
 Alpha virt. eigenvalues --    1.61673   1.62518   1.64857   1.66461   1.67263
 Alpha virt. eigenvalues --    1.68190   1.70478   1.71703   1.71982   1.74647
 Alpha virt. eigenvalues --    1.78139   1.78985   1.80647   1.83113   1.84028
 Alpha virt. eigenvalues --    1.86055   1.87625   1.88258   1.89112   1.91099
 Alpha virt. eigenvalues --    1.91893   1.93992   1.95029   1.95516   1.97299
 Alpha virt. eigenvalues --    1.98257   1.99195   1.99388   1.99857   2.01246
 Alpha virt. eigenvalues --    2.01645   2.02776   2.03759   2.03912   2.05315
 Alpha virt. eigenvalues --    2.06565   2.07231   2.09980   2.10446   2.10967
 Alpha virt. eigenvalues --    2.12214   2.14033   2.14278   2.14840   2.15807
 Alpha virt. eigenvalues --    2.16409   2.18152   2.19078   2.19622   2.19891
 Alpha virt. eigenvalues --    2.21138   2.21855   2.23659   2.24367   2.25000
 Alpha virt. eigenvalues --    2.26112   2.26911   2.27025   2.29088   2.30177
 Alpha virt. eigenvalues --    2.30700   2.32016   2.32384   2.33466   2.34862
 Alpha virt. eigenvalues --    2.35153   2.37082   2.37400   2.38653   2.39806
 Alpha virt. eigenvalues --    2.42033   2.43196   2.43727   2.44373   2.44847
 Alpha virt. eigenvalues --    2.47098   2.48271   2.49614   2.51456   2.51964
 Alpha virt. eigenvalues --    2.52860   2.55065   2.55344   2.56626   2.58794
 Alpha virt. eigenvalues --    2.59623   2.60453   2.61924   2.63101   2.63900
 Alpha virt. eigenvalues --    2.64150   2.66221   2.67504   2.68741   2.69987
 Alpha virt. eigenvalues --    2.70924   2.71288   2.72046   2.73242   2.74390
 Alpha virt. eigenvalues --    2.76407   2.77125   2.77690   2.78343   2.79370
 Alpha virt. eigenvalues --    2.80491   2.81309   2.82208   2.83478   2.84591
 Alpha virt. eigenvalues --    2.85796   2.86984   2.87546   2.87877   2.89970
 Alpha virt. eigenvalues --    2.92108   2.92860   2.93846   2.95381   2.96397
 Alpha virt. eigenvalues --    2.98326   2.99878   3.01127   3.02707   3.03314
 Alpha virt. eigenvalues --    3.05258   3.07342   3.08453   3.08925   3.09710
 Alpha virt. eigenvalues --    3.10741   3.12278   3.13495   3.16582   3.18228
 Alpha virt. eigenvalues --    3.19500   3.20593   3.23050   3.25708   3.27376
 Alpha virt. eigenvalues --    3.27899   3.29190   3.31027   3.34849   3.36715
 Alpha virt. eigenvalues --    3.39031   3.41124   3.41423   3.43231   3.44956
 Alpha virt. eigenvalues --    3.46885   3.47319   3.49523   3.50674   3.53022
 Alpha virt. eigenvalues --    3.54694   3.55978   3.58618   3.60375   3.62207
 Alpha virt. eigenvalues --    3.63504   3.67301   3.69025   3.70870   3.71839
 Alpha virt. eigenvalues --    3.72873   3.74854   3.75453   3.80126   3.83984
 Alpha virt. eigenvalues --    3.86199   3.86744   3.88863   3.90920   3.92246
 Alpha virt. eigenvalues --    3.94138   3.96103   3.99195   4.02787   4.04490
 Alpha virt. eigenvalues --    4.08030   4.11013   4.11599   4.13889   4.20861
 Alpha virt. eigenvalues --    4.22798   4.26570   4.28129   4.31240   4.36669
 Alpha virt. eigenvalues --    4.42205   4.45552   4.47881   4.51042   4.54126
 Alpha virt. eigenvalues --    4.56651   4.61868   4.62585   4.64656   4.68144
 Alpha virt. eigenvalues --    4.71615   4.72644   4.74772   4.77528   4.84916
 Alpha virt. eigenvalues --    4.85869   4.87255   4.94334   4.95417   4.97798
 Alpha virt. eigenvalues --    4.98978   4.99755   5.00416   5.02394   5.03629
 Alpha virt. eigenvalues --    5.06100   5.08090   5.09757   5.11966   5.13082
 Alpha virt. eigenvalues --    5.15691   5.17244   5.20847   5.22136   5.22762
 Alpha virt. eigenvalues --    5.24445   5.26729   5.29283   5.30357   5.32164
 Alpha virt. eigenvalues --    5.32595   5.35241   5.35864   5.38305   5.41071
 Alpha virt. eigenvalues --    5.41512   5.44920   5.45716   5.46653   5.51339
 Alpha virt. eigenvalues --    5.52863   5.53043   5.55509   5.58105   5.59330
 Alpha virt. eigenvalues --    5.60935   5.61998   5.62701   5.66332   5.66676
 Alpha virt. eigenvalues --    5.69552   5.69881   5.73422   5.74152   5.75331
 Alpha virt. eigenvalues --    5.76810   5.78086   5.80214   5.81271   5.81681
 Alpha virt. eigenvalues --    5.82841   5.83896   5.84309   5.85635   5.86671
 Alpha virt. eigenvalues --    5.87853   5.89134   5.90071   5.92324   5.93947
 Alpha virt. eigenvalues --    5.95099   5.95254   5.96294   5.97335   5.99413
 Alpha virt. eigenvalues --    6.00814   6.01004   6.01714   6.03068   6.03818
 Alpha virt. eigenvalues --    6.04829   6.05300   6.05983   6.07692   6.09009
 Alpha virt. eigenvalues --    6.11433   6.11897   6.12548   6.12668   6.14002
 Alpha virt. eigenvalues --    6.15612   6.17323   6.18172   6.20540   6.20809
 Alpha virt. eigenvalues --    6.21584   6.22058   6.23470   6.24747   6.25638
 Alpha virt. eigenvalues --    6.27431   6.28050   6.28454   6.29772   6.31423
 Alpha virt. eigenvalues --    6.32669   6.33969   6.34368   6.36783   6.37978
 Alpha virt. eigenvalues --    6.38833   6.39692   6.42563   6.43031   6.43860
 Alpha virt. eigenvalues --    6.45715   6.47163   6.49413   6.50642   6.51995
 Alpha virt. eigenvalues --    6.53570   6.55199   6.55777   6.56186   6.58748
 Alpha virt. eigenvalues --    6.59264   6.60962   6.62600   6.64789   6.65865
 Alpha virt. eigenvalues --    6.68911   6.71107   6.72168   6.74786   6.76933
 Alpha virt. eigenvalues --    6.77661   6.81221   6.82306   6.83361   6.84137
 Alpha virt. eigenvalues --    6.85742   6.86908   6.89902   6.92752   6.93567
 Alpha virt. eigenvalues --    6.94026   6.95150   6.95436   6.97103   7.01863
 Alpha virt. eigenvalues --    7.02763   7.04905   7.06100   7.09686   7.12629
 Alpha virt. eigenvalues --    7.13627   7.14559   7.16973   7.18635   7.21497
 Alpha virt. eigenvalues --    7.22185   7.22782   7.25593   7.30734   7.33046
 Alpha virt. eigenvalues --    7.34361   7.34767   7.35487   7.38929   7.40302
 Alpha virt. eigenvalues --    7.41524   7.43208   7.44916   7.47394   7.48694
 Alpha virt. eigenvalues --    7.49763   7.51177   7.52628   7.53449   7.53789
 Alpha virt. eigenvalues --    7.55872   7.56792   7.57692   7.58532   7.60338
 Alpha virt. eigenvalues --    7.63802   7.65340   7.67460   7.69321   7.70261
 Alpha virt. eigenvalues --    7.72384   7.73826   7.74575   7.75111   7.77663
 Alpha virt. eigenvalues --    7.79786   7.81008   7.82764   7.84352   7.84607
 Alpha virt. eigenvalues --    7.85999   7.88370   7.90272   7.91154   7.91854
 Alpha virt. eigenvalues --    7.94907   7.97004   7.97511   7.98151   7.99911
 Alpha virt. eigenvalues --    8.01978   8.04291   8.05056   8.06742   8.08983
 Alpha virt. eigenvalues --    8.09812   8.11527   8.14272   8.16363   8.20706
 Alpha virt. eigenvalues --    8.23080   8.24129   8.26264   8.28363   8.29684
 Alpha virt. eigenvalues --    8.31094   8.32112   8.34443   8.35370   8.36613
 Alpha virt. eigenvalues --    8.38600   8.40727   8.41722   8.43502   8.44300
 Alpha virt. eigenvalues --    8.44711   8.45690   8.47780   8.49984   8.51352
 Alpha virt. eigenvalues --    8.52743   8.53253   8.57082   8.58011   8.59405
 Alpha virt. eigenvalues --    8.62865   8.65112   8.69444   8.70282   8.73033
 Alpha virt. eigenvalues --    8.74807   8.76423   8.79951   8.81699   8.82412
 Alpha virt. eigenvalues --    8.86007   8.91675   8.93713   8.97562   9.02448
 Alpha virt. eigenvalues --    9.06243   9.12514   9.17429   9.18509   9.25712
 Alpha virt. eigenvalues --    9.31662   9.36732   9.40008   9.47422   9.53344
 Alpha virt. eigenvalues --    9.54711   9.56030   9.60643   9.62526   9.65368
 Alpha virt. eigenvalues --    9.67657   9.70160   9.74804   9.75832   9.81423
 Alpha virt. eigenvalues --    9.87367   9.89383   9.89944   9.96528   9.97233
 Alpha virt. eigenvalues --   10.00055  10.04749  10.07978  10.12700  10.16427
 Alpha virt. eigenvalues --   10.21787  10.30149  10.37412  10.43044  10.56421
 Alpha virt. eigenvalues --   10.60812  10.96446  10.99871  11.02214  11.16364
 Alpha virt. eigenvalues --   11.32451  12.15605  12.18555  12.34207  12.62567
 Alpha virt. eigenvalues --   12.85877  12.92482  12.97435  13.02568  28.40649
 Alpha virt. eigenvalues --   28.49808  28.88163  29.11403  29.13761  29.21342
 Alpha virt. eigenvalues --   29.36285  30.40726 145.91115 145.97692 146.33738
 Alpha virt. eigenvalues --  146.63960 146.67114 146.69164 146.82601 148.20374
          Condensed to atoms (all electrons):
               1          2          3          4          5          6
     1  C    6.155911   0.011475   0.199810  -0.017951  -0.075037   0.014129
     2  C    0.011475   6.160564  -0.018388   0.078480   0.090687  -0.125960
     3  C    0.199810  -0.018388   5.141709   0.140093   0.301097  -0.177274
     4  C   -0.017951   0.078480   0.140093   6.103308  -0.214107   0.108806
     5  C   -0.075037   0.090687   0.301097  -0.214107   6.007761   0.362882
     6  C    0.014129  -0.125960  -0.177274   0.108806   0.362882   5.928888
     7  C   -0.284637   0.003833   0.139242   0.006615  -0.191179   0.004407
     8  C    0.006733   0.014422  -0.154960  -0.016793  -0.000153   0.016563
     9  H    0.369724  -0.053406  -0.077906  -0.038934   0.025677   0.002743
    10  H    0.412305  -0.021734  -0.055297  -0.004942   0.009812  -0.016973
    11  H   -0.022514   0.396910  -0.016356  -0.005056  -0.011634  -0.023787
    12  H   -0.065172   0.335091  -0.001919  -0.069001   0.004399   0.003973
    13  H   -0.009386  -0.100143  -0.014352   0.220697   0.008272   0.029571
    14  H    0.009167  -0.012373  -0.019835   0.019632   0.319345  -0.083715
    15  H   -0.015595   0.002646   0.004083  -0.044616  -0.110339   0.297054
    16  H    0.001274   0.000803   0.012913  -0.001267   0.001666   0.001309
               7          8          9         10         11         12
     1  C   -0.284637   0.006733   0.369724   0.412305  -0.022514  -0.065172
     2  C    0.003833   0.014422  -0.053406  -0.021734   0.396910   0.335091
     3  C    0.139242  -0.154960  -0.077906  -0.055297  -0.016356  -0.001919
     4  C    0.006615  -0.016793  -0.038934  -0.004942  -0.005056  -0.069001
     5  C   -0.191179  -0.000153   0.025677   0.009812  -0.011634   0.004399
     6  C    0.004407   0.016563   0.002743  -0.016973  -0.023787   0.003973
     7  C    6.776774  -0.076277  -0.040961  -0.025538  -0.002833   0.003722
     8  C   -0.076277   6.524274   0.003895  -0.001267   0.000448   0.000280
     9  H   -0.040961   0.003895   0.511764  -0.002027   0.004943   0.007564
    10  H   -0.025538  -0.001267  -0.002027   0.466685  -0.001160  -0.001573
    11  H   -0.002833   0.000448   0.004943  -0.001160   0.472634   0.011456
    12  H    0.003722   0.000280   0.007564  -0.001573   0.011456   0.490324
    13  H    0.001433  -0.000002  -0.003875  -0.003243  -0.012395  -0.005282
    14  H    0.009702  -0.000002  -0.001718  -0.001726   0.000320  -0.000958
    15  H    0.002335  -0.000006  -0.003552  -0.000642  -0.003062  -0.004701
    16  H   -0.090364   0.298909   0.000831  -0.000551  -0.000022  -0.000010
              13         14         15         16
     1  C   -0.009386   0.009167  -0.015595   0.001274
     2  C   -0.100143  -0.012373   0.002646   0.000803
     3  C   -0.014352  -0.019835   0.004083   0.012913
     4  C    0.220697   0.019632  -0.044616  -0.001267
     5  C    0.008272   0.319345  -0.110339   0.001666
     6  C    0.029571  -0.083715   0.297054   0.001309
     7  C    0.001433   0.009702   0.002335  -0.090364
     8  C   -0.000002  -0.000002  -0.000006   0.298909
     9  H   -0.003875  -0.001718  -0.003552   0.000831
    10  H   -0.003243  -0.001726  -0.000642  -0.000551
    11  H   -0.012395   0.000320  -0.003062  -0.000022
    12  H   -0.005282  -0.000958  -0.004701  -0.000010
    13  H    0.357396  -0.000761   0.011052   0.000007
    14  H   -0.000761   0.389317  -0.003477  -0.000457
    15  H    0.011052  -0.003477   0.414232  -0.000034
    16  H    0.000007  -0.000457  -0.000034   0.330328
 Mulliken charges:
               1
     1  C   -0.690235
     2  C   -0.762908
     3  C    0.597340
     4  C   -0.264962
     5  C   -0.529150
     6  C   -0.342615
     7  C   -0.236273
     8  C   -0.616063
     9  H    0.295240
    10  H    0.247872
    11  H    0.212109
    12  H    0.291809
    13  H    0.521011
    14  H    0.377540
    15  H    0.454621
    16  H    0.444665
 Sum of Mulliken charges =  -0.00000
 Mulliken charges with hydrogens summed into heavy atoms:
               1
     1  C   -0.147124
     2  C   -0.258990
     3  C    0.597340
     4  C    0.256049
     5  C   -0.151610
     6  C    0.112007
     7  C   -0.236273
     8  C   -0.171399
 Electronic spatial extent (au):  <R**2>=           1001.2127
 Charge=              0.0000 electrons
 Dipole moment (field-independent basis, Debye):
    X=              0.8196    Y=             -0.4332    Z=             -0.0160  Tot=              0.9271
 Quadrupole moment (field-independent basis, Debye-Ang):
   XX=            -42.2527   YY=            -45.2059   ZZ=            -50.8966
   XY=             -0.2034   XZ=              0.2590   YZ=              0.0080
 Traceless Quadrupole moment (field-independent basis, Debye-Ang):
   XX=              3.8657   YY=              0.9125   ZZ=             -4.7782
   XY=             -0.2034   XZ=              0.2590   YZ=              0.0080
 Octapole moment (field-independent basis, Debye-Ang**2):
  XXX=            -21.5761  YYY=              3.8254  ZZZ=              0.1256  XYY=              7.0806
  XXY=             -2.5829  XXZ=             -1.7324  XZZ=              2.8261  YZZ=             -3.4440
  YYZ=              0.2084  XYZ=              0.5314
 Hexadecapole moment (field-independent basis, Debye-Ang**3):
 XXXX=           -778.8069 YYYY=           -315.6261 ZZZZ=            -81.4410 XXXY=              5.8639
 XXXZ=             10.9909 YYYX=              2.6055 YYYZ=              0.1988 ZZZX=             -3.1862
 ZZZY=             -0.1824 XXYY=           -229.6652 XXZZ=           -201.9879 YYZZ=            -72.1988
 XXYZ=              1.1821 YYXZ=              2.9706 ZZXY=             -3.1601
 N-N= 3.179831321696D+02 E-N=-1.353460383581D+03  KE= 3.081733517266D+02
 PrsmSu:  requested number of processors reduced to:  19 ShMem   1 Linda.
 No NMR shielding tensors so no spin-rotation constants.
 Leave Link  601 at Sat Apr 17 21:40:33 2021, MaxMem=   104857600 cpu:             594.5 elap:              12.9
 (Enter /s/ls4/users/knvvv/bin/g16sse/l801.exe)
 DoSCS=F DFT=T ScalE2(SS,OS)=  1.000000  1.000000
 Range of M.O.s used for correlation:     1   758
 NBasis=   768 NAE=    28 NBE=    28 NFC=     0 NFV=     0
 NROrb=    758 NOA=    28 NOB=    28 NVA=   730 NVB=   730

 **** Warning!!: The largest alpha MO coefficient is  0.10204239D+03

 Leave Link  801 at Sat Apr 17 21:40:33 2021, MaxMem=   104857600 cpu:               4.4 elap:               0.1
 (Enter /s/ls4/users/knvvv/bin/g16sse/l914.exe)
 RHF ground state
 Doing stability rather than CIS.
 Two-electron integrals replicated using symmetry.
 MDV=   104857600 DFT=T DoStab=T Mixed=T DoRPA=F DoScal=F NonHer=F
 Making orbital integer symmetry assigments:
 Orbital symmetries:
       Occupied  (A) (A) (A) (A) (A) (A) (A) (A) (A) (A) (A) (A)
                 (A) (A) (A) (A) (A) (A) (A) (A) (A) (A) (A) (A)
                 (A) (A) (A) (A)
       Virtual   (A) (A) (A) (A) (A) (A) (A) (A) (A) (A) (A) (A)
                 (A) (A) (A) (A) (A) (A) (A) (A) (A) (A) (A) (A)
                 (A) (A) (A) (A) (A) (A) (A) (A) (A) (A) (A) (A)
                 (A) (A) (A) (A) (A) (A) (A) (A) (A) (A) (A) (A)
                 (A) (A) (A) (A) (A) (A) (A) (A) (A) (A) (A) (A)
                 (A) (A) (A) (A) (A) (A) (A) (A) (A) (A) (A) (A)
                 (A) (A) (A) (A) (A) (A) (A) (A) (A) (A) (A) (A)
                 (A) (A) (A) (A) (A) (A) (A) (A) (A) (A) (A) (A)
                 (A) (A) (A) (A) (A) (A) (A) (A) (A) (A) (A) (A)
                 (A) (A) (A) (A) (A) (A) (A) (A) (A) (A) (A) (A)
                 (A) (A) (A) (A) (A) (A) (A) (A) (A) (A) (A) (A)
                 (A) (A) (A) (A) (A) (A) (A) (A) (A) (A) (A) (A)
                 (A) (A) (A) (A) (A) (A) (A) (A) (A) (A) (A) (A)
                 (A) (A) (A) (A) (A) (A) (A) (A) (A) (A) (A) (A)
                 (A) (A) (A) (A) (A) (A) (A) (A) (A) (A) (A) (A)
                 (A) (A) (A) (A) (A) (A) (A) (A) (A) (A) (A) (A)
                 (A) (A) (A) (A) (A) (A) (A) (A) (A) (A) (A) (A)
                 (A) (A) (A) (A) (A) (A) (A) (A) (A) (A) (A) (A)
                 (A) (A) (A) (A) (A) (A) (A) (A) (A) (A) (A) (A)
                 (A) (A) (A) (A) (A) (A) (A) (A) (A) (A) (A) (A)
                 (A) (A) (A) (A) (A) (A) (A) (A) (A) (A) (A) (A)
                 (A) (A) (A) (A) (A) (A) (A) (A) (A) (A) (A) (A)
                 (A) (A) (A) (A) (A) (A) (A) (A) (A) (A) (A) (A)
                 (A) (A) (A) (A) (A) (A) (A) (A) (A) (A) (A) (A)
                 (A) (A) (A) (A) (A) (A) (A) (A) (A) (A) (A) (A)
                 (A) (A) (A) (A) (A) (A) (A) (A) (A) (A) (A) (A)
                 (A) (A) (A) (A) (A) (A) (A) (A) (A) (A) (A) (A)
                 (A) (A) (A) (A) (A) (A) (A) (A) (A) (A) (A) (A)
                 (A) (A) (A) (A) (A) (A) (A) (A) (A) (A) (A) (A)
                 (A) (A) (A) (A) (A) (A) (A) (A) (A) (A) (A) (A)
                 (A) (A) (A) (A) (A) (A) (A) (A) (A) (A) (A) (A)
                 (A) (A) (A) (A) (A) (A) (A) (A) (A) (A) (A) (A)
                 (A) (A) (A) (A) (A) (A) (A) (A) (A) (A) (A) (A)
                 (A) (A) (A) (A) (A) (A) (A) (A) (A) (A) (A) (A)
                 (A) (A) (A) (A) (A) (A) (A) (A) (A) (A) (A) (A)
                 (A) (A) (A) (A) (A) (A) (A) (A) (A) (A) (A) (A)
                 (A) (A) (A) (A) (A) (A) (A) (A) (A) (A) (A) (A)
                 (A) (A) (A) (A) (A) (A) (A) (A) (A) (A) (A) (A)
                 (A) (A) (A) (A) (A) (A) (A) (A) (A) (A) (A) (A)
                 (A) (A) (A) (A) (A) (A) (A) (A) (A) (A) (A) (A)
                 (A) (A) (A) (A) (A) (A) (A) (A) (A) (A) (A) (A)
                 (A) (A) (A) (A) (A) (A) (A) (A) (A) (A) (A) (A)
                 (A) (A) (A) (A) (A) (A) (A) (A) (A) (A) (A) (A)
                 (A) (A) (A) (A) (A) (A) (A) (A) (A) (A) (A) (A)
                 (A) (A) (A) (A) (A) (A) (A) (A) (A) (A) (A) (A)
                 (A) (A) (A) (A) (A) (A) (A) (A) (A) (A) (A) (A)
                 (A) (A) (A) (A) (A) (A) (A) (A) (A) (A) (A) (A)
                 (A) (A) (A) (A) (A) (A) (A) (A) (A) (A) (A) (A)
                 (A) (A) (A) (A) (A) (A) (A) (A) (A) (A) (A) (A)
                 (A) (A) (A) (A) (A) (A) (A) (A) (A) (A) (A) (A)
                 (A) (A) (A) (A) (A) (A) (A) (A) (A) (A) (A) (A)
                 (A) (A) (A) (A) (A) (A) (A) (A) (A) (A) (A) (A)
                 (A) (A) (A) (A) (A) (A) (A) (A) (A) (A) (A) (A)
                 (A) (A) (A) (A) (A) (A) (A) (A) (A) (A) (A) (A)
                 (A) (A) (A) (A) (A) (A) (A) (A) (A) (A) (A) (A)
                 (A) (A) (A) (A) (A) (A) (A) (A) (A) (A) (A) (A)
                 (A) (A) (A) (A) (A) (A) (A) (A) (A) (A) (A) (A)
                 (A) (A) (A) (A) (A) (A) (A) (A) (A) (A) (A) (A)
                 (A) (A) (A) (A) (A) (A) (A) (A) (A) (A) (A) (A)
                 (A) (A) (A) (A) (A) (A) (A) (A) (A) (A) (A) (A)
                 (A) (A) (A) (A) (A) (A) (A) (A) (A) (A)
    24 initial guesses have been made.
 Convergence on wavefunction:    0.001000000000000
 Davidson Disk Diagonalization:  ConvIn= 1.00D-03 SkipCon=T Conv= 1.00D-03.
 Max sub-space:  2000 roots to seek:    24 dimension of matrix:        40880
 Iteration     1 Dimension    24 NMult     0 NNew     24
 Estimated number of processors is:   11
 CISAX will form     1 AO SS matrices at one time.
 NMat=     1 NSing=     1 JSym2X= 0.
 FoFJK:  IHMeth= 1 ICntrl=       0 DoSepK=F KAlg= 0 I1Cent=           0 FoldK=F
 IRaf= 920000000 NMat=       1 IRICut=       1 DoRegI=T DoRafI=F ISym2E= 0 IDoP0=0 IntGTp=1.
 FoFCou: FMM=F IPFlag=           0 FMFlag=      100000 FMFlg1=           0
         NFxFlg=           0 DoJE=F BraDBF=F KetDBF=F FulRan=T
         wScrn=  0.000000 ICntrl=         0 IOpCl=  0 I1Cent=           0 NGrid=           0
         NMat0=    1 NMatS0=      1 NMatT0=    0 NMatD0=    1 NMtDS0=    0 NMtDT0=    0
 Symmetry not used in FoFCou.
 CoulSu:  requested number of processors reduced to:  17 ShMem   1 Linda.
 CalDSu:  requested number of processors reduced to:  34 ShMem   1 Linda.
 NMat=     1 NSing=     1 JSym2X= 0.
 CoulSu:  requested number of processors reduced to:  17 ShMem   1 Linda.
 CalDSu:  requested number of processors reduced to:  34 ShMem   1 Linda.
 NMat=     1 NSing=     1 JSym2X= 0.
 CoulSu:  requested number of processors reduced to:  17 ShMem   1 Linda.
 CalDSu:  requested number of processors reduced to:  34 ShMem   1 Linda.
 NMat=     1 NSing=     1 JSym2X= 0.
 CoulSu:  requested number of processors reduced to:  17 ShMem   1 Linda.
 CalDSu:  requested number of processors reduced to:  34 ShMem   1 Linda.
 NMat=     1 NSing=     1 JSym2X= 0.
 CoulSu:  requested number of processors reduced to:  17 ShMem   1 Linda.
 CalDSu:  requested number of processors reduced to:  34 ShMem   1 Linda.
 NMat=     1 NSing=     1 JSym2X= 0.
 CoulSu:  requested number of processors reduced to:  17 ShMem   1 Linda.
 CalDSu:  requested number of processors reduced to:  34 ShMem   1 Linda.
 NMat=     1 NSing=     1 JSym2X= 0.
 CoulSu:  requested number of processors reduced to:  17 ShMem   1 Linda.
 CalDSu:  requested number of processors reduced to:  34 ShMem   1 Linda.
 NMat=     1 NSing=     1 JSym2X= 0.
 CoulSu:  requested number of processors reduced to:  17 ShMem   1 Linda.
 CalDSu:  requested number of processors reduced to:  34 ShMem   1 Linda.
 NMat=     1 NSing=     1 JSym2X= 0.
 CoulSu:  requested number of processors reduced to:  17 ShMem   1 Linda.
 CalDSu:  requested number of processors reduced to:  34 ShMem   1 Linda.
 NMat=     1 NSing=     1 JSym2X= 0.
 CoulSu:  requested number of processors reduced to:  17 ShMem   1 Linda.
 CalDSu:  requested number of processors reduced to:  34 ShMem   1 Linda.
 NMat=     1 NSing=     1 JSym2X= 0.
 CoulSu:  requested number of processors reduced to:  17 ShMem   1 Linda.
 CalDSu:  requested number of processors reduced to:  34 ShMem   1 Linda.
 NMat=     1 NSing=     1 JSym2X= 0.
 CoulSu:  requested number of processors reduced to:  17 ShMem   1 Linda.
 CalDSu:  requested number of processors reduced to:  34 ShMem   1 Linda.
 NMat=     1 NSing=     0 JSym2X= 0.
 CoulSu:  requested number of processors reduced to:  17 ShMem   1 Linda.
 CalDSu:  requested number of processors reduced to:  34 ShMem   1 Linda.
 NMat=     1 NSing=     0 JSym2X= 0.
 CoulSu:  requested number of processors reduced to:  17 ShMem   1 Linda.
 CalDSu:  requested number of processors reduced to:  34 ShMem   1 Linda.
 NMat=     1 NSing=     0 JSym2X= 0.
 CoulSu:  requested number of processors reduced to:  17 ShMem   1 Linda.
 CalDSu:  requested number of processors reduced to:  34 ShMem   1 Linda.
 NMat=     1 NSing=     0 JSym2X= 0.
 CoulSu:  requested number of processors reduced to:  17 ShMem   1 Linda.
 CalDSu:  requested number of processors reduced to:  34 ShMem   1 Linda.
 NMat=     1 NSing=     0 JSym2X= 0.
 CoulSu:  requested number of processors reduced to:  17 ShMem   1 Linda.
 CalDSu:  requested number of processors reduced to:  34 ShMem   1 Linda.
 NMat=     1 NSing=     0 JSym2X= 0.
 CoulSu:  requested number of processors reduced to:  17 ShMem   1 Linda.
 CalDSu:  requested number of processors reduced to:  34 ShMem   1 Linda.
 NMat=     1 NSing=     0 JSym2X= 0.
 CoulSu:  requested number of processors reduced to:  17 ShMem   1 Linda.
 CalDSu:  requested number of processors reduced to:  34 ShMem   1 Linda.
 NMat=     1 NSing=     0 JSym2X= 0.
 CoulSu:  requested number of processors reduced to:  17 ShMem   1 Linda.
 CalDSu:  requested number of processors reduced to:  34 ShMem   1 Linda.
 NMat=     1 NSing=     0 JSym2X= 0.
 CoulSu:  requested number of processors reduced to:  17 ShMem   1 Linda.
 CalDSu:  requested number of processors reduced to:  34 ShMem   1 Linda.
 NMat=     1 NSing=     0 JSym2X= 0.
 CoulSu:  requested number of processors reduced to:  17 ShMem   1 Linda.
 CalDSu:  requested number of processors reduced to:  34 ShMem   1 Linda.
 NMat=     1 NSing=     0 JSym2X= 0.
 CoulSu:  requested number of processors reduced to:  17 ShMem   1 Linda.
 CalDSu:  requested number of processors reduced to:  34 ShMem   1 Linda.
 NMat=     1 NSing=     0 JSym2X= 0.
 CoulSu:  requested number of processors reduced to:  17 ShMem   1 Linda.
 CalDSu:  requested number of processors reduced to:  34 ShMem   1 Linda.
 New state      1 was old state      2
 Excitation Energies [eV] at current iteration:
 Root      1 :     2.559397150639948
 Root      2 :     5.189347761341287
 Root      3 :     5.575089346322036
 Root      4 :     5.581897190379241
 Root      5 :     5.613565254025395
 Root      6 :     5.747100241109151
 Root      7 :     6.158990185739309
 Root      8 :     6.164256944333196
 Root      9 :     6.177390830039089
 Root     10 :     6.181734826660382
 Root     11 :     6.442179141779315
 Root     12 :     6.527627034132483
 Root     13 :     6.612939347685863
 Root     14 :     6.655572734672504
 Root     15 :     6.684720591624897
 Root     16 :     6.688510564566423
 Root     17 :     6.817640650454363
 Root     18 :     6.831725913824885
 Root     19 :     7.040470232550731
 Root     20 :     7.077212680816406
 Root     21 :     7.132174564494170
 Root     22 :     7.245907462153481
 Root     23 :     7.535662144406626
 Root     24 :     9.770621148887553
 Iteration     2 Dimension    48 NMult    24 NNew     24
 Estimated number of processors is:   11
 CISAX will form     1 AO SS matrices at one time.
 NMat=     1 NSing=     1 JSym2X= 0.
 CoulSu:  requested number of processors reduced to:  17 ShMem   1 Linda.
 CalDSu:  requested number of processors reduced to:  34 ShMem   1 Linda.
 NMat=     1 NSing=     1 JSym2X= 0.
 CoulSu:  requested number of processors reduced to:  17 ShMem   1 Linda.
 CalDSu:  requested number of processors reduced to:  34 ShMem   1 Linda.
 NMat=     1 NSing=     1 JSym2X= 0.
 CoulSu:  requested number of processors reduced to:  17 ShMem   1 Linda.
 CalDSu:  requested number of processors reduced to:  34 ShMem   1 Linda.
 NMat=     1 NSing=     1 JSym2X= 0.
 CoulSu:  requested number of processors reduced to:  17 ShMem   1 Linda.
 CalDSu:  requested number of processors reduced to:  34 ShMem   1 Linda.
 NMat=     1 NSing=     1 JSym2X= 0.
 CoulSu:  requested number of processors reduced to:  17 ShMem   1 Linda.
 CalDSu:  requested number of processors reduced to:  34 ShMem   1 Linda.
 NMat=     1 NSing=     1 JSym2X= 0.
 CoulSu:  requested number of processors reduced to:  17 ShMem   1 Linda.
 CalDSu:  requested number of processors reduced to:  34 ShMem   1 Linda.
 NMat=     1 NSing=     1 JSym2X= 0.
 CoulSu:  requested number of processors reduced to:  17 ShMem   1 Linda.
 CalDSu:  requested number of processors reduced to:  34 ShMem   1 Linda.
 NMat=     1 NSing=     1 JSym2X= 0.
 CoulSu:  requested number of processors reduced to:  17 ShMem   1 Linda.
 CalDSu:  requested number of processors reduced to:  34 ShMem   1 Linda.
 NMat=     1 NSing=     1 JSym2X= 0.
 CoulSu:  requested number of processors reduced to:  17 ShMem   1 Linda.
 CalDSu:  requested number of processors reduced to:  34 ShMem   1 Linda.
 NMat=     1 NSing=     1 JSym2X= 0.
 CoulSu:  requested number of processors reduced to:  17 ShMem   1 Linda.
 CalDSu:  requested number of processors reduced to:  34 ShMem   1 Linda.
 NMat=     1 NSing=     1 JSym2X= 0.
 CoulSu:  requested number of processors reduced to:  17 ShMem   1 Linda.
 CalDSu:  requested number of processors reduced to:  34 ShMem   1 Linda.
 NMat=     1 NSing=     1 JSym2X= 0.
 CoulSu:  requested number of processors reduced to:  17 ShMem   1 Linda.
 CalDSu:  requested number of processors reduced to:  34 ShMem   1 Linda.
 NMat=     1 NSing=     0 JSym2X= 0.
 CoulSu:  requested number of processors reduced to:  17 ShMem   1 Linda.
 CalDSu:  requested number of processors reduced to:  34 ShMem   1 Linda.
 NMat=     1 NSing=     0 JSym2X= 0.
 CoulSu:  requested number of processors reduced to:  17 ShMem   1 Linda.
 CalDSu:  requested number of processors reduced to:  34 ShMem   1 Linda.
 NMat=     1 NSing=     0 JSym2X= 0.
 CoulSu:  requested number of processors reduced to:  17 ShMem   1 Linda.
 CalDSu:  requested number of processors reduced to:  34 ShMem   1 Linda.
 NMat=     1 NSing=     0 JSym2X= 0.
 CoulSu:  requested number of processors reduced to:  17 ShMem   1 Linda.
 CalDSu:  requested number of processors reduced to:  34 ShMem   1 Linda.
 NMat=     1 NSing=     0 JSym2X= 0.
 CoulSu:  requested number of processors reduced to:  17 ShMem   1 Linda.
 CalDSu:  requested number of processors reduced to:  34 ShMem   1 Linda.
 NMat=     1 NSing=     0 JSym2X= 0.
 CoulSu:  requested number of processors reduced to:  17 ShMem   1 Linda.
 CalDSu:  requested number of processors reduced to:  34 ShMem   1 Linda.
 NMat=     1 NSing=     0 JSym2X= 0.
 CoulSu:  requested number of processors reduced to:  17 ShMem   1 Linda.
 CalDSu:  requested number of processors reduced to:  34 ShMem   1 Linda.
 NMat=     1 NSing=     0 JSym2X= 0.
 CoulSu:  requested number of processors reduced to:  17 ShMem   1 Linda.
 CalDSu:  requested number of processors reduced to:  34 ShMem   1 Linda.
 NMat=     1 NSing=     0 JSym2X= 0.
 CoulSu:  requested number of processors reduced to:  17 ShMem   1 Linda.
 CalDSu:  requested number of processors reduced to:  34 ShMem   1 Linda.
 NMat=     1 NSing=     0 JSym2X= 0.
 CoulSu:  requested number of processors reduced to:  17 ShMem   1 Linda.
 CalDSu:  requested number of processors reduced to:  34 ShMem   1 Linda.
 NMat=     1 NSing=     0 JSym2X= 0.
 CoulSu:  requested number of processors reduced to:  17 ShMem   1 Linda.
 CalDSu:  requested number of processors reduced to:  34 ShMem   1 Linda.
 NMat=     1 NSing=     0 JSym2X= 0.
 CoulSu:  requested number of processors reduced to:  17 ShMem   1 Linda.
 CalDSu:  requested number of processors reduced to:  34 ShMem   1 Linda.
 Root      1 not converged, maximum delta is    0.102411040252493
 Excitation Energies [eV] at current iteration:
 Root      1 :     1.797829659626156   Change is   -0.761567491013791
 Root      2 :     3.946076225768071   Change is   -1.243271535573216
 Root      3 :     5.095080418158127   Change is   -0.486816772221114
 Root      4 :     5.132706145487609   Change is   -2.402955998919016
 Root      5 :     5.461868209266011   Change is   -0.151697044759385
 Root      6 :     5.467089914522671   Change is   -0.107999431799365
 Root      7 :     5.530331200179747   Change is   -0.216769040929404
 Root      8 :     5.970212425847551   Change is   -0.471966715931764
 Root      9 :     6.003951827144039   Change is   -0.177782999516344
 Root     10 :     6.053746593031295   Change is   -0.110510351301902
 Root     11 :     6.059006699124208   Change is   -0.099983486615101
 Root     12 :     6.087535094453889   Change is   -0.089855735585200
 Root     13 :     6.245867476836445   Change is   -0.281759557296039
 Root     14 :     6.276860765008136   Change is   -0.336078582677726
 Root     15 :     6.481899309550588   Change is   -0.173673425121917
 Root     16 :     6.549353421208429   Change is   -0.135367170416468
 Root     17 :     6.561665048259344   Change is   -0.126845516307079
 Root     18 :     6.590291204111973   Change is   -0.241434709712911
 Root     19 :     6.622609576507910   Change is   -0.195031073946454
 Root     20 :     6.862165649140200   Change is   -0.215047031676206
 Root     21 :     6.875974020374680   Change is   -0.256200544119489
 Root     22 :     7.015414254810855   Change is   -0.230493207342626
 Root     23 :     7.032132276059091   Change is   -0.008337956491640
 Root     24 :     7.405279882346158   Change is   -2.365341266541396
 Iteration     3 Dimension    54 NMult    48 NNew      6
 Estimated number of processors is:   11
 CISAX will form     1 AO SS matrices at one time.
 NMat=     1 NSing=     1 JSym2X= 0.
 CoulSu:  requested number of processors reduced to:  17 ShMem   1 Linda.
 CalDSu:  requested number of processors reduced to:  34 ShMem   1 Linda.
 NMat=     1 NSing=     1 JSym2X= 0.
 CoulSu:  requested number of processors reduced to:  17 ShMem   1 Linda.
 CalDSu:  requested number of processors reduced to:  34 ShMem   1 Linda.
 NMat=     1 NSing=     1 JSym2X= 0.
 CoulSu:  requested number of processors reduced to:  17 ShMem   1 Linda.
 CalDSu:  requested number of processors reduced to:  34 ShMem   1 Linda.
 NMat=     1 NSing=     0 JSym2X= 0.
 CoulSu:  requested number of processors reduced to:  17 ShMem   1 Linda.
 CalDSu:  requested number of processors reduced to:  34 ShMem   1 Linda.
 NMat=     1 NSing=     0 JSym2X= 0.
 CoulSu:  requested number of processors reduced to:  17 ShMem   1 Linda.
 CalDSu:  requested number of processors reduced to:  34 ShMem   1 Linda.
 NMat=     1 NSing=     0 JSym2X= 0.
 CoulSu:  requested number of processors reduced to:  17 ShMem   1 Linda.
 CalDSu:  requested number of processors reduced to:  34 ShMem   1 Linda.
 Root      1 not converged, maximum delta is    0.016131132031509
 Excitation Energies [eV] at current iteration:
 Root      1 :     1.752390899399047   Change is   -0.045438760227109
 Root      2 :     3.726867073029404   Change is   -0.219209152738667
 Root      3 :     4.994283110280318   Change is   -0.138423035207291
 Root      4 :     5.045193154304160   Change is   -0.049887263853967
 Root      5 :     5.451943604217542   Change is   -0.015146310305129
 Root      6 :     5.497414958103993   Change is   -0.032916242075754
 Iteration     4 Dimension    60 NMult    54 NNew      6
 Estimated number of processors is:   11
 CISAX will form     1 AO SS matrices at one time.
 NMat=     1 NSing=     1 JSym2X= 0.
 CoulSu:  requested number of processors reduced to:  17 ShMem   1 Linda.
 CalDSu:  requested number of processors reduced to:  34 ShMem   1 Linda.
 NMat=     1 NSing=     1 JSym2X= 0.
 CoulSu:  requested number of processors reduced to:  17 ShMem   1 Linda.
 CalDSu:  requested number of processors reduced to:  34 ShMem   1 Linda.
 NMat=     1 NSing=     1 JSym2X= 0.
 CoulSu:  requested number of processors reduced to:  17 ShMem   1 Linda.
 CalDSu:  requested number of processors reduced to:  34 ShMem   1 Linda.
 NMat=     1 NSing=     0 JSym2X= 0.
 CoulSu:  requested number of processors reduced to:  17 ShMem   1 Linda.
 CalDSu:  requested number of processors reduced to:  34 ShMem   1 Linda.
 NMat=     1 NSing=     0 JSym2X= 0.
 CoulSu:  requested number of processors reduced to:  17 ShMem   1 Linda.
 CalDSu:  requested number of processors reduced to:  34 ShMem   1 Linda.
 NMat=     1 NSing=     0 JSym2X= 0.
 CoulSu:  requested number of processors reduced to:  17 ShMem   1 Linda.
 CalDSu:  requested number of processors reduced to:  34 ShMem   1 Linda.
 Root      1 not converged, maximum delta is    0.011210111144559
 Excitation Energies [eV] at current iteration:
 Root      1 :     1.747116333223928   Change is   -0.005274566175119
 Root      2 :     3.681968619227122   Change is   -0.044898453802282
 Root      3 :     4.972933971290170   Change is   -0.021349138990148
 Root      4 :     5.039674091252187   Change is   -0.005519063051974
 Root      5 :     5.449588423766357   Change is   -0.002355180451185
 Root      6 :     5.491422694544492   Change is   -0.005992263559500
 Iteration     5 Dimension    66 NMult    60 NNew      6
 Estimated number of processors is:   11
 CISAX will form     1 AO SS matrices at one time.
 NMat=     1 NSing=     1 JSym2X= 0.
 CoulSu:  requested number of processors reduced to:  17 ShMem   1 Linda.
 CalDSu:  requested number of processors reduced to:  34 ShMem   1 Linda.
 NMat=     1 NSing=     1 JSym2X= 0.
 CoulSu:  requested number of processors reduced to:  17 ShMem   1 Linda.
 CalDSu:  requested number of processors reduced to:  34 ShMem   1 Linda.
 NMat=     1 NSing=     1 JSym2X= 0.
 CoulSu:  requested number of processors reduced to:  17 ShMem   1 Linda.
 CalDSu:  requested number of processors reduced to:  34 ShMem   1 Linda.
 NMat=     1 NSing=     0 JSym2X= 0.
 CoulSu:  requested number of processors reduced to:  17 ShMem   1 Linda.
 CalDSu:  requested number of processors reduced to:  34 ShMem   1 Linda.
 NMat=     1 NSing=     0 JSym2X= 0.
[...]
                 (A) (A) (A) (A) (A) (A) (A) (A) (A) (A) (A) (A)
                 (A) (A) (A) (A) (A) (A) (A) (A) (A) (A) (A) (A)
                 (A) (A) (A) (A) (A) (A) (A) (A) (A) (A) (A) (A)
                 (A) (A) (A) (A) (A) (A) (A) (A) (A) (A) (A) (A)
                 (A) (A) (A) (A) (A) (A) (A) (A) (A) (A) (A) (A)
                 (A) (A) (A) (A) (A) (A) (A) (A) (A) (A) (A) (A)
                 (A) (A) (A) (A) (A) (A) (A) (A) (A) (A)
 The electronic state is 1-A.
 Alpha  occ. eigenvalues --  -10.56957 -10.55179 -10.55063 -10.55020 -10.54854
 Alpha  occ. eigenvalues --  -10.54511 -10.54495 -10.53720  -0.96081  -0.88290
 Alpha  occ. eigenvalues --   -0.84821  -0.82204  -0.71563  -0.70269  -0.62193
 Alpha  occ. eigenvalues --   -0.58432  -0.57322  -0.52537  -0.50913  -0.50235
 Alpha  occ. eigenvalues --   -0.46537  -0.44786  -0.40918  -0.39964  -0.39330
 Alpha  occ. eigenvalues --   -0.35153  -0.33713  -0.26413
 Alpha virt. eigenvalues --   -0.02505   0.00630   0.02104   0.02652   0.03762
 Alpha virt. eigenvalues --    0.04103   0.05674   0.05885   0.06713   0.07246
 Alpha virt. eigenvalues --    0.07710   0.09761   0.10264   0.11763   0.12005
 Alpha virt. eigenvalues --    0.12785   0.13378   0.14178   0.14499   0.14717
 Alpha virt. eigenvalues --    0.16073   0.16547   0.17446   0.17831   0.18143
 Alpha virt. eigenvalues --    0.18997   0.19857   0.19880   0.20435   0.20778
 Alpha virt. eigenvalues --    0.20904   0.21365   0.21607   0.21963   0.22183
 Alpha virt. eigenvalues --    0.22742   0.23622   0.24221   0.24331   0.24586
 Alpha virt. eigenvalues --    0.24708   0.25949   0.26206   0.27182   0.27341
 Alpha virt. eigenvalues --    0.28186   0.29592   0.29852   0.30017   0.30473
 Alpha virt. eigenvalues --    0.30748   0.30845   0.31780   0.32753   0.32865
 Alpha virt. eigenvalues --    0.33201   0.33652   0.33985   0.34791   0.35414
 Alpha virt. eigenvalues --    0.35713   0.37005   0.37146   0.37527   0.37900
 Alpha virt. eigenvalues --    0.38318   0.38586   0.39582   0.39973   0.40105
 Alpha virt. eigenvalues --    0.40478   0.41301   0.41565   0.41990   0.42449
 Alpha virt. eigenvalues --    0.43150   0.43293   0.43952   0.44592   0.45292
 Alpha virt. eigenvalues --    0.46256   0.46416   0.47050   0.47636   0.48647
 Alpha virt. eigenvalues --    0.48842   0.49340   0.49408   0.50047   0.50800
 Alpha virt. eigenvalues --    0.50977   0.52022   0.52422   0.52927   0.54043
 Alpha virt. eigenvalues --    0.54309   0.55136   0.55380   0.55832   0.56461
 Alpha virt. eigenvalues --    0.57199   0.57931   0.59247   0.59693   0.60205
 Alpha virt. eigenvalues --    0.60940   0.61990   0.62288   0.63990   0.64626
 Alpha virt. eigenvalues --    0.65865   0.66129   0.67134   0.68724   0.69024
 Alpha virt. eigenvalues --    0.69925   0.70553   0.71255   0.72363   0.74070
 Alpha virt. eigenvalues --    0.75259   0.75921   0.77045   0.77428   0.78421
 Alpha virt. eigenvalues --    0.78749   0.79745   0.81270   0.82457   0.83751
 Alpha virt. eigenvalues --    0.83903   0.84768   0.85356   0.86870   0.87465
 Alpha virt. eigenvalues --    0.88608   0.89256   0.90240   0.91627   0.92537
 Alpha virt. eigenvalues --    0.93275   0.93772   0.94454   0.94939   0.95596
 Alpha virt. eigenvalues --    0.96152   0.97797   0.98227   0.98724   0.99631
 Alpha virt. eigenvalues --    1.00088   1.01049   1.02349   1.02793   1.03622
 Alpha virt. eigenvalues --    1.05064   1.05885   1.06661   1.06817   1.08303
 Alpha virt. eigenvalues --    1.09482   1.10162   1.11130   1.11343   1.12327
 Alpha virt. eigenvalues --    1.13084   1.13869   1.14771   1.15745   1.17346
 Alpha virt. eigenvalues --    1.17796   1.19085   1.20063   1.21236   1.21932
 Alpha virt. eigenvalues --    1.23193   1.24643   1.24767   1.25649   1.26975
 Alpha virt. eigenvalues --    1.27909   1.29131   1.29885   1.31107   1.31938
 Alpha virt. eigenvalues --    1.33555   1.34402   1.34698   1.36288   1.38938
 Alpha virt. eigenvalues --    1.40144   1.41779   1.42723   1.44131   1.44333
 Alpha virt. eigenvalues --    1.45180   1.47603   1.48874   1.49782   1.53664
 Alpha virt. eigenvalues --    1.54937   1.55949   1.57238   1.59390   1.60826
 Alpha virt. eigenvalues --    1.61673   1.62518   1.64857   1.66461   1.67263
 Alpha virt. eigenvalues --    1.68190   1.70478   1.71703   1.71982   1.74647
 Alpha virt. eigenvalues --    1.78139   1.78985   1.80647   1.83113   1.84028
 Alpha virt. eigenvalues --    1.86055   1.87625   1.88258   1.89112   1.91099
 Alpha virt. eigenvalues --    1.91893   1.93992   1.95029   1.95516   1.97299
 Alpha virt. eigenvalues --    1.98257   1.99195   1.99388   1.99857   2.01246
 Alpha virt. eigenvalues --    2.01645   2.02776   2.03759   2.03912   2.05315
 Alpha virt. eigenvalues --    2.06565   2.07231   2.09980   2.10446   2.10967
 Alpha virt. eigenvalues --    2.12214   2.14033   2.14278   2.14840   2.15807
 Alpha virt. eigenvalues --    2.16409   2.18152   2.19078   2.19622   2.19891
 Alpha virt. eigenvalues --    2.21138   2.21855   2.23659   2.24367   2.25000
 Alpha virt. eigenvalues --    2.26112   2.26911   2.27025   2.29088   2.30177
 Alpha virt. eigenvalues --    2.30700   2.32016   2.32384   2.33466   2.34862
 Alpha virt. eigenvalues --    2.35153   2.37082   2.37400   2.38653   2.39806
 Alpha virt. eigenvalues --    2.42033   2.43196   2.43727   2.44373   2.44847
 Alpha virt. eigenvalues --    2.47098   2.48271   2.49614   2.51456   2.51964
 Alpha virt. eigenvalues --    2.52860   2.55065   2.55344   2.56626   2.58794
 Alpha virt. eigenvalues --    2.59623   2.60453   2.61924   2.63101   2.63900
 Alpha virt. eigenvalues --    2.64150   2.66221   2.67504   2.68741   2.69987
 Alpha virt. eigenvalues --    2.70924   2.71288   2.72046   2.73242   2.74390
 Alpha virt. eigenvalues --    2.76407   2.77125   2.77690   2.78343   2.79370
 Alpha virt. eigenvalues --    2.80491   2.81309   2.82208   2.83478   2.84591
 Alpha virt. eigenvalues --    2.85796   2.86984   2.87546   2.87877   2.89970
 Alpha virt. eigenvalues --    2.92108   2.92860   2.93846   2.95381   2.96397
 Alpha virt. eigenvalues --    2.98326   2.99878   3.01127   3.02707   3.03314
 Alpha virt. eigenvalues --    3.05258   3.07342   3.08453   3.08925   3.09710
 Alpha virt. eigenvalues --    3.10741   3.12278   3.13495   3.16582   3.18228
 Alpha virt. eigenvalues --    3.19500   3.20593   3.23050   3.25708   3.27376
 Alpha virt. eigenvalues --    3.27899   3.29190   3.31027   3.34849   3.36715
 Alpha virt. eigenvalues --    3.39031   3.41124   3.41423   3.43231   3.44956
 Alpha virt. eigenvalues --    3.46885   3.47319   3.49523   3.50674   3.53022
 Alpha virt. eigenvalues --    3.54694   3.55978   3.58618   3.60375   3.62207
 Alpha virt. eigenvalues --    3.63504   3.67301   3.69025   3.70870   3.71839
 Alpha virt. eigenvalues --    3.72873   3.74854   3.75453   3.80126   3.83984
 Alpha virt. eigenvalues --    3.86199   3.86744   3.88863   3.90920   3.92246
 Alpha virt. eigenvalues --    3.94138   3.96103   3.99195   4.02787   4.04490
 Alpha virt. eigenvalues --    4.08030   4.11013   4.11599   4.13889   4.20861
 Alpha virt. eigenvalues --    4.22798   4.26570   4.28129   4.31240   4.36669
 Alpha virt. eigenvalues --    4.42205   4.45552   4.47881   4.51042   4.54126
 Alpha virt. eigenvalues --    4.56651   4.61868   4.62585   4.64656   4.68144
 Alpha virt. eigenvalues --    4.71615   4.72644   4.74772   4.77528   4.84916
 Alpha virt. eigenvalues --    4.85869   4.87255   4.94334   4.95417   4.97798
 Alpha virt. eigenvalues --    4.98978   4.99755   5.00416   5.02394   5.03629
 Alpha virt. eigenvalues --    5.06100   5.08090   5.09757   5.11966   5.13082
 Alpha virt. eigenvalues --    5.15691   5.17244   5.20847   5.22136   5.22762
 Alpha virt. eigenvalues --    5.24445   5.26729   5.29283   5.30357   5.32164
 Alpha virt. eigenvalues --    5.32595   5.35241   5.35864   5.38305   5.41071
 Alpha virt. eigenvalues --    5.41512   5.44920   5.45716   5.46653   5.51339
 Alpha virt. eigenvalues --    5.52863   5.53043   5.55509   5.58105   5.59330
 Alpha virt. eigenvalues --    5.60935   5.61998   5.62701   5.66332   5.66676
 Alpha virt. eigenvalues --    5.69552   5.69881   5.73422   5.74152   5.75331
 Alpha virt. eigenvalues --    5.76810   5.78086   5.80214   5.81271   5.81681
 Alpha virt. eigenvalues --    5.82841   5.83896   5.84309   5.85635   5.86671
 Alpha virt. eigenvalues --    5.87853   5.89134   5.90071   5.92324   5.93947
 Alpha virt. eigenvalues --    5.95099   5.95254   5.96294   5.97335   5.99413
 Alpha virt. eigenvalues --    6.00814   6.01004   6.01714   6.03068   6.03818
 Alpha virt. eigenvalues --    6.04829   6.05300   6.05983   6.07692   6.09009
 Alpha virt. eigenvalues --    6.11433   6.11897   6.12548   6.12668   6.14002
 Alpha virt. eigenvalues --    6.15612   6.17323   6.18172   6.20540   6.20809
 Alpha virt. eigenvalues --    6.21584   6.22058   6.23470   6.24747   6.25638
 Alpha virt. eigenvalues --    6.27431   6.28050   6.28454   6.29772   6.31423
 Alpha virt. eigenvalues --    6.32669   6.33969   6.34368   6.36783   6.37978
 Alpha virt. eigenvalues --    6.38833   6.39692   6.42563   6.43031   6.43860
 Alpha virt. eigenvalues --    6.45715   6.47163   6.49413   6.50642   6.51995
 Alpha virt. eigenvalues --    6.53570   6.55199   6.55777   6.56186   6.58748
 Alpha virt. eigenvalues --    6.59264   6.60962   6.62600   6.64789   6.65865
 Alpha virt. eigenvalues --    6.68911   6.71107   6.72168   6.74786   6.76933
 Alpha virt. eigenvalues --    6.77661   6.81221   6.82306   6.83361   6.84137
 Alpha virt. eigenvalues --    6.85742   6.86908   6.89902   6.92752   6.93567
 Alpha virt. eigenvalues --    6.94026   6.95150   6.95436   6.97103   7.01863
 Alpha virt. eigenvalues --    7.02763   7.04905   7.06100   7.09686   7.12629
 Alpha virt. eigenvalues --    7.13627   7.14559   7.16973   7.18635   7.21497
 Alpha virt. eigenvalues --    7.22185   7.22782   7.25593   7.30734   7.33046
 Alpha virt. eigenvalues --    7.34361   7.34767   7.35487   7.38929   7.40302
 Alpha virt. eigenvalues --    7.41524   7.43208   7.44916   7.47394   7.48694
 Alpha virt. eigenvalues --    7.49763   7.51177   7.52628   7.53449   7.53789
 Alpha virt. eigenvalues --    7.55872   7.56792   7.57692   7.58532   7.60338
 Alpha virt. eigenvalues --    7.63802   7.65340   7.67460   7.69321   7.70261
 Alpha virt. eigenvalues --    7.72384   7.73826   7.74575   7.75111   7.77663
 Alpha virt. eigenvalues --    7.79786   7.81008   7.82764   7.84352   7.84607
 Alpha virt. eigenvalues --    7.85999   7.88370   7.90272   7.91154   7.91854
 Alpha virt. eigenvalues --    7.94907   7.97004   7.97511   7.98151   7.99911
 Alpha virt. eigenvalues --    8.01978   8.04291   8.05056   8.06742   8.08983
 Alpha virt. eigenvalues --    8.09812   8.11527   8.14272   8.16363   8.20706
 Alpha virt. eigenvalues --    8.23080   8.24129   8.26264   8.28363   8.29684
 Alpha virt. eigenvalues --    8.31094   8.32112   8.34443   8.35370   8.36613
 Alpha virt. eigenvalues --    8.38600   8.40727   8.41722   8.43502   8.44300
 Alpha virt. eigenvalues --    8.44711   8.45690   8.47780   8.49984   8.51352
 Alpha virt. eigenvalues --    8.52743   8.53253   8.57082   8.58011   8.59405
 Alpha virt. eigenvalues --    8.62865   8.65112   8.69444   8.70282   8.73033
 Alpha virt. eigenvalues --    8.74807   8.76423   8.79951   8.81699   8.82412
 Alpha virt. eigenvalues --    8.86007   8.91675   8.93713   8.97562   9.02448
 Alpha virt. eigenvalues --    9.06243   9.12514   9.17429   9.18509   9.25712
 Alpha virt. eigenvalues --    9.31662   9.36732   9.40008   9.47422   9.53344
 Alpha virt. eigenvalues --    9.54711   9.56030   9.60643   9.62526   9.65368
 Alpha virt. eigenvalues --    9.67657   9.70160   9.74804   9.75832   9.81423
 Alpha virt. eigenvalues --    9.87367   9.89383   9.89944   9.96528   9.97233
 Alpha virt. eigenvalues --   10.00055  10.04749  10.07978  10.12700  10.16427
 Alpha virt. eigenvalues --   10.21787  10.30149  10.37412  10.43044  10.56421
 Alpha virt. eigenvalues --   10.60812  10.96446  10.99871  11.02214  11.16364
 Alpha virt. eigenvalues --   11.32451  12.15605  12.18555  12.34207  12.62567
 Alpha virt. eigenvalues --   12.85877  12.92482  12.97435  13.02568  28.40649
 Alpha virt. eigenvalues --   28.49808  28.88163  29.11403  29.13761  29.21342
 Alpha virt. eigenvalues --   29.36285  30.40726 145.91115 145.97692 146.33738
 Alpha virt. eigenvalues --  146.63960 146.67114 146.69164 146.82601 148.20374
          Condensed to atoms (all electrons):
               1          2          3          4          5          6
     1  C    6.155911   0.011475   0.199810  -0.017951  -0.075037   0.014129
     2  C    0.011475   6.160564  -0.018388   0.078480   0.090687  -0.125960
     3  C    0.199810  -0.018388   5.141709   0.140093   0.301097  -0.177274
     4  C   -0.017951   0.078480   0.140093   6.103308  -0.214107   0.108806
     5  C   -0.075037   0.090687   0.301097  -0.214107   6.007761   0.362882
     6  C    0.014129  -0.125960  -0.177274   0.108806   0.362882   5.928888
     7  C   -0.284637   0.003833   0.139242   0.006615  -0.191179   0.004407
     8  C    0.006733   0.014422  -0.154960  -0.016793  -0.000153   0.016563
     9  H    0.369724  -0.053406  -0.077906  -0.038934   0.025677   0.002743
    10  H    0.412305  -0.021734  -0.055297  -0.004942   0.009812  -0.016973
    11  H   -0.022514   0.396910  -0.016356  -0.005056  -0.011634  -0.023787
    12  H   -0.065172   0.335091  -0.001919  -0.069001   0.004399   0.003973
    13  H   -0.009386  -0.100143  -0.014352   0.220697   0.008272   0.029571
    14  H    0.009167  -0.012373  -0.019835   0.019632   0.319345  -0.083715
    15  H   -0.015595   0.002646   0.004083  -0.044616  -0.110339   0.297054
    16  H    0.001274   0.000803   0.012913  -0.001267   0.001666   0.001309
               7          8          9         10         11         12
     1  C   -0.284637   0.006733   0.369724   0.412305  -0.022514  -0.065172
     2  C    0.003833   0.014422  -0.053406  -0.021734   0.396910   0.335091
     3  C    0.139242  -0.154960  -0.077906  -0.055297  -0.016356  -0.001919
     4  C    0.006615  -0.016793  -0.038934  -0.004942  -0.005056  -0.069001
     5  C   -0.191179  -0.000153   0.025677   0.009812  -0.011634   0.004399
     6  C    0.004407   0.016563   0.002743  -0.016973  -0.023787   0.003973
     7  C    6.776774  -0.076277  -0.040961  -0.025538  -0.002833   0.003722
     8  C   -0.076277   6.524274   0.003895  -0.001267   0.000448   0.000280
     9  H   -0.040961   0.003895   0.511764  -0.002027   0.004943   0.007564
    10  H   -0.025538  -0.001267  -0.002027   0.466685  -0.001160  -0.001573
    11  H   -0.002833   0.000448   0.004943  -0.001160   0.472634   0.011456
    12  H    0.003722   0.000280   0.007564  -0.001573   0.011456   0.490324
    13  H    0.001433  -0.000002  -0.003875  -0.003243  -0.012395  -0.005282
    14  H    0.009702  -0.000002  -0.001718  -0.001726   0.000320  -0.000958
    15  H    0.002335  -0.000006  -0.003552  -0.000642  -0.003062  -0.004701
    16  H   -0.090364   0.298909   0.000831  -0.000551  -0.000022  -0.000010
              13         14         15         16
     1  C   -0.009386   0.009167  -0.015595   0.001274
     2  C   -0.100143  -0.012373   0.002646   0.000803
     3  C   -0.014352  -0.019835   0.004083   0.012913
     4  C    0.220697   0.019632  -0.044616  -0.001267
     5  C    0.008272   0.319345  -0.110339   0.001666
     6  C    0.029571  -0.083715   0.297054   0.001309
     7  C    0.001433   0.009702   0.002335  -0.090364
     8  C   -0.000002  -0.000002  -0.000006   0.298909
     9  H   -0.003875  -0.001718  -0.003552   0.000831
    10  H   -0.003243  -0.001726  -0.000642  -0.000551
    11  H   -0.012395   0.000320  -0.003062  -0.000022
    12  H   -0.005282  -0.000958  -0.004701  -0.000010
    13  H    0.357396  -0.000761   0.011052   0.000007
    14  H   -0.000761   0.389317  -0.003477  -0.000457
    15  H    0.011052  -0.003477   0.414232  -0.000034
    16  H    0.000007  -0.000457  -0.000034   0.330328
 Mulliken charges:
               1
     1  C   -0.690235
     2  C   -0.762908
     3  C    0.597340
     4  C   -0.264962
     5  C   -0.529150
     6  C   -0.342615
     7  C   -0.236273
     8  C   -0.616063
     9  H    0.295240
    10  H    0.247872
    11  H    0.212109
    12  H    0.291809
    13  H    0.521011
    14  H    0.377540
    15  H    0.454621
    16  H    0.444665
 Sum of Mulliken charges =  -0.00000
 Mulliken charges with hydrogens summed into heavy atoms:
               1
     1  C   -0.147124
     2  C   -0.258990
     3  C    0.597340
     4  C    0.256049
     5  C   -0.151610
     6  C    0.112007
     7  C   -0.236273
     8  C   -0.171399
 Electronic spatial extent (au):  <R**2>=           1001.2127
 Charge=              0.0000 electrons
 Dipole moment (field-independent basis, Debye):
    X=              0.8196    Y=             -0.4332    Z=             -0.0160  Tot=              0.9271
 Quadrupole moment (field-independent basis, Debye-Ang):
   XX=            -42.2527   YY=            -45.2059   ZZ=            -50.8966
   XY=             -0.2034   XZ=              0.2590   YZ=              0.0080
 Traceless Quadrupole moment (field-independent basis, Debye-Ang):
   XX=              3.8657   YY=              0.9125   ZZ=             -4.7782
   XY=             -0.2034   XZ=              0.2590   YZ=              0.0080
 Octapole moment (field-independent basis, Debye-Ang**2):
  XXX=            -21.5761  YYY=              3.8254  ZZZ=              0.1256  XYY=              7.0806
  XXY=             -2.5829  XXZ=             -1.7324  XZZ=              2.8261  YZZ=             -3.4440
  YYZ=              0.2084  XYZ=              0.5314
 Hexadecapole moment (field-independent basis, Debye-Ang**3):
 XXXX=           -778.8069 YYYY=           -315.6261 ZZZZ=            -81.4410 XXXY=              5.8639
 XXXZ=             10.9909 YYYX=              2.6055 YYYZ=              0.1988 ZZZX=             -3.1862
 ZZZY=             -0.1824 XXYY=           -229.6652 XXZZ=           -201.9879 YYZZ=            -72.1988
 XXYZ=              1.1821 YYXZ=              2.9706 ZZXY=             -3.1601
 N-N= 3.179831321696D+02 E-N=-1.353460383581D+03  KE= 3.081733517266D+02
 PrsmSu:  requested number of processors reduced to:  19 ShMem   1 Linda.
 No NMR shielding tensors so no spin-rotation constants.
 Leave Link  601 at Sun Apr 18 00:26:21 2021, MaxMem=   104857600 cpu:             633.1 elap:              14.0
 (Enter /s/ls4/users/knvvv/bin/g16sse/l9999.exe)

 Test job not archived.
 1\1\GINC-N153\Stability\RM062X\Gen\C8H8\KNVVV\18-Apr-2021\0\\#P M062X/
 GEN Integral=UltraFineGrid SCF=NoSymm Stable=(RExt, Opt) IOp(1/33=1)\\
 Database calculations.\\0,1\C,0,0.09379,-1.201829,0.310577\C,0,1.51103
 4,-1.183705,-0.269364\C,0,-0.649362,0.096008,0.040826\C,0,2.205506,0.1
 25353,-0.011694\C,0,0.049302,1.248083,-0.037203\C,0,1.498071,1.258344,
 0.081735\C,0,-2.063587,0.059561,-0.032864\C,0,-3.264089,-0.020797,-0.0
 87377\H,0,0.137989,-1.341124,1.397945\H,0,-0.46897,-2.046127,-0.085466
 \H,0,2.087287,-2.015172,0.138858\H,0,1.471405,-1.347151,-1.355037\H,0,
 3.286999,0.144646,0.032789\H,0,-0.4725,2.18594,-0.172437\H,0,1.996308,
 2.209975,0.213917\H,0,-4.322505,-0.077102,-0.138383\\Version=ES64L-G16
 RevA.03\State=1-A\HF=-309.5708834\RMSD=1.818e-09\Dipole=0.3224403,-0.1
 704354,-0.0062483\Quadrupole=2.874023,0.6784578,-3.5524809,-0.151173,0
 .1927653,0.0045551\PG=C01 [X(C8H8)]\\@


 Boundary, n.  In political geography, an imaginary
 line between two nations, separating the imaginary
 rights of one from the imaginary rights of another.
                               -- Ambrose Bierce
 Job cpu time:       3 days  9 hours  4 minutes 50.4 seconds.
 Elapsed time:       0 days  3 hours  5 minutes 12.5 seconds.
 File lengths (MBytes):  RWF=   1022 Int=      0 D2E=      0 Chk=     65 Scr=      1
 Normal termination of Gaussian 16 at Sun Apr 18 00:26:25 2021.
