 Entering Gaussian System, Link 0=/s/ls4/users/knvvv/bin/g16sse/g16
 Input=data/database/M062X--def2-QZVP--MB16-43_Cl2.gjf
 Output=data/database/M062X--def2-QZVP--MB16-43_Cl2.log
 Initial command:
 /s/ls4/users/knvvv/bin/g16sse/l1.exe "/s/ls4/users/knvvv/bin/scratch/Gau-14273.inp" -scrdir="/s/ls4/users/knvvv/bin/scratch/"
 Entering Link 1 = /s/ls4/users/knvvv/bin/g16sse/l1.exe PID=     14274.
  
 Copyright (c) 1988,1990,1992,1993,1995,1998,2003,2009,2016,
            Gaussian, Inc.  All Rights Reserved.
  
 This is part of the Gaussian(R) 16 program.  It is based on
 the Gaussian(R) 09 system (copyright 2009, Gaussian, Inc.),
 the Gaussian(R) 03 system (copyright 2003, Gaussian, Inc.),
 the Gaussian(R) 98 system (copyright 1998, Gaussian, Inc.),
 the Gaussian(R) 94 system (copyright 1995, Gaussian, Inc.),
 the Gaussian 92(TM) system (copyright 1992, Gaussian, Inc.),
 the Gaussian 90(TM) system (copyright 1990, Gaussian, Inc.),
 the Gaussian 88(TM) system (copyright 1988, Gaussian, Inc.),
 the Gaussian 86(TM) system (copyright 1986, Carnegie Mellon
 University), and the Gaussian 82(TM) system (copyright 1983,
 Carnegie Mellon University). Gaussian is a federally registered
 trademark of Gaussian, Inc.
  
 This software contains proprietary and confidential information,
 including trade secrets, belonging to Gaussian, Inc.
  
 This software is provided under written license and may be
 used, copied, transmitted, or stored only in accord with that
 written license.
  
 The following legend is applicable only to US Government
 contracts under FAR:
  
                    RESTRICTED RIGHTS LEGEND
  
 Use, reproduction and disclosure by the US Government is
 subject to restrictions as set forth in subparagraphs (a)
 and (c) of the Commercial Computer Software - Restricted
 Rights clause in FAR 52.227-19.
  
 Gaussian, Inc.
 340 Quinnipiac St., Bldg. 40, Wallingford CT 06492
  
  
 ---------------------------------------------------------------
 Warning -- This program may not be used in any manner that
 competes with the business of Gaussian, Inc. or will provide
 assistance to any competitor of Gaussian, Inc.  The licensee
 of this program is prohibited from giving any competitor of
 Gaussian, Inc. access to this program.  By using this program,
 the user acknowledges that Gaussian, Inc. is engaged in the
 business of creating and licensing software in the field of
 computational chemistry and represents and warrants to the
 licensee that it is not a competitor of Gaussian, Inc. and that
 it will not use this program in any manner prohibited above.
 ---------------------------------------------------------------
  

 Cite this work as:
 Gaussian 16, Revision A.03,
 M. J. Frisch, G. W. Trucks, H. B. Schlegel, G. E. Scuseria, 
 M. A. Robb, J. R. Cheeseman, G. Scalmani, V. Barone, 
 G. A. Petersson, H. Nakatsuji, X. Li, M. Caricato, A. V. Marenich, 
 J. Bloino, B. G. Janesko, R. Gomperts, B. Mennucci, H. P. Hratchian, 
 J. V. Ortiz, A. F. Izmaylov, J. L. Sonnenberg, D. Williams-Young, 
 F. Ding, F. Lipparini, F. Egidi, J. Goings, B. Peng, A. Petrone, 
 T. Henderson, D. Ranasinghe, V. G. Zakrzewski, J. Gao, N. Rega, 
 G. Zheng, W. Liang, M. Hada, M. Ehara, K. Toyota, R. Fukuda, 
 J. Hasegawa, M. Ishida, T. Nakajima, Y. Honda, O. Kitao, H. Nakai, 
 T. Vreven, K. Throssell, J. A. Montgomery, Jr., J. E. Peralta, 
 F. Ogliaro, M. J. Bearpark, J. J. Heyd, E. N. Brothers, K. N. Kudin, 
 V. N. Staroverov, T. A. Keith, R. Kobayashi, J. Normand, 
 K. Raghavachari, A. P. Rendell, J. C. Burant, S. S. Iyengar, 
 J. Tomasi, M. Cossi, J. M. Millam, M. Klene, C. Adamo, R. Cammi, 
 J. W. Ochterski, R. L. Martin, K. Morokuma, O. Farkas, 
 J. B. Foresman, and D. J. Fox, Gaussian, Inc., Wallingford CT, 2016.
 
 ******************************************
 Gaussian 16:  ES64L-G16RevA.03 25-Dec-2016
                17-Apr-2021 
 ******************************************
 %RWF=temp6_66041,70GB
 %nprocshared=48
 Will use up to   48 processors via shared memory.
 Default route: MaxDisk=80GB
 ----------------------------------------------------------------------
 #P M062X/Def2QZVP Integral=UltraFineGrid SCF=NoSymm Stable=(RExt, Opt)
  IOp(1/33=1)
 ----------------------------------------------------------------------
 1/33=1,38=1,172=1/1;
 2/12=2,17=6,18=5,40=1/2;
 3/5=45,7=101,11=2,25=1,30=1,74=-55,75=-5/1,2,3;
 4/9=2/1;
 5/5=2,38=5/2;
 6/7=2,8=2,9=2,10=2,28=1/1;
 8/6=1,10=90,11=11/1;
 9/8=-3,42=1,46=1/14;
 5/5=2,8=3,17=40,38=5/8(-2);
 6/7=2,8=2,9=2,10=2,28=1/1;
 99/5=1,9=1/99;
 Leave Link    1 at Sat Apr 17 07:04:51 2021, MaxMem=           0 cpu:              11.2 elap:               0.3
 (Enter /s/ls4/users/knvvv/bin/g16sse/l101.exe)
 ONIOM data not found on unit 2.
 ----------------------
 Database calculations.
 ----------------------
 TstMul:  ICh=     0
 TstMul:  Mul=     1
 TstMul:  ICh=     0
 TstMul:  Mul=     1
 Symbolic Z-matrix:
 Charge =  0 Multiplicity = 1
 Cl                    0.        0.       -1.00585 
 Cl                    0.        0.        1.00585 
 
 RdStrC is calling ZToCFu for IStruc=1 NZ=     2.
 PrtBox:  NBox=     1 Levels=  1 BoxLen=    8.00 SMaxX=        3.80
          Shift=            0.000000            0.000000            1.900787
 Box      1 Number                   0 centers from      1 to      2:
 After GenITR:
 ITRead=  0  0
 MicOpt= -1 -1
 ITRead=  0  0
 MicOpt= -1 -1
 NAtoms=      2 NQM=        2 NQMF=       0 NMMI=      0 NMMIF=      0
                NMic=       0 NMicF=      0.
                    Isotopes and Nuclear Properties:
 (Nuclear quadrupole moments (NQMom) in fm**2, nuclear magnetic moments (NMagM)
  in nuclear magnetons)

  Atom         1           2
 IAtWgt=          35          35
 AtmWgt=  34.9688527  34.9688527
 NucSpn=           3           3
 AtZEff=  -0.0000000  -0.0000000
 NQMom=   -8.1650000  -8.1650000
 NMagM=    0.8218740   0.8218740
 AtZNuc=  17.0000000  17.0000000
 No MM parameters found.
 Leave Link  101 at Sat Apr 17 07:04:51 2021, MaxMem=   104857600 cpu:               7.0 elap:               0.2
 (Enter /s/ls4/users/knvvv/bin/g16sse/l202.exe)
                          Input orientation:                          
 ---------------------------------------------------------------------
 Center     Atomic      Atomic             Coordinates (Angstroms)
 Number     Number       Type             X           Y           Z
 ---------------------------------------------------------------------
      1         17           0        0.000000    0.000000   -1.005853
      2         17           0        0.000000    0.000000    1.005853
 ---------------------------------------------------------------------
 Stoichiometry    Cl2
 Framework group  D*H[C*(Cl.Cl)]
 Deg. of freedom     1
 Full point group                 D*H     NOp   8
 Largest Abelian subgroup         D2H     NOp   8
 Largest concise Abelian subgroup C2      NOp   2
                         Standard orientation:                         
 ---------------------------------------------------------------------
 Center     Atomic      Atomic             Coordinates (Angstroms)
 Number     Number       Type             X           Y           Z
 ---------------------------------------------------------------------
      1         17           0        0.000000    0.000000    1.005853
      2         17           0        0.000000    0.000000   -1.005853
 ---------------------------------------------------------------------
 Rotational constants (GHZ):           0.0000000           7.1422744           7.1422744
 Leave Link  202 at Sat Apr 17 07:04:52 2021, MaxMem=   104857600 cpu:              12.5 elap:               0.3
 (Enter /s/ls4/users/knvvv/bin/g16sse/l301.exe)
 Standard basis: def2QZVP (5D, 7F)
 Ernie: Thresh=  0.10000D-02 Tol=  0.10000D-05 Strict=F.
 There are    39 symmetry adapted cartesian basis functions of AG  symmetry.
 There are     9 symmetry adapted cartesian basis functions of B1G symmetry.
 There are    19 symmetry adapted cartesian basis functions of B2G symmetry.
 There are    19 symmetry adapted cartesian basis functions of B3G symmetry.
 There are     9 symmetry adapted cartesian basis functions of AU  symmetry.
 There are    39 symmetry adapted cartesian basis functions of B1U symmetry.
 There are    19 symmetry adapted cartesian basis functions of B2U symmetry.
 There are    19 symmetry adapted cartesian basis functions of B3U symmetry.
 There are    30 symmetry adapted basis functions of AG  symmetry.
 There are     8 symmetry adapted basis functions of B1G symmetry.
 There are    16 symmetry adapted basis functions of B2G symmetry.
 There are    16 symmetry adapted basis functions of B3G symmetry.
 There are     8 symmetry adapted basis functions of AU  symmetry.
 There are    30 symmetry adapted basis functions of B1U symmetry.
 There are    16 symmetry adapted basis functions of B2U symmetry.
 There are    16 symmetry adapted basis functions of B3U symmetry.
   140 basis functions,   242 primitive gaussians,   172 cartesian basis functions
    17 alpha electrons       17 beta electrons
       nuclear repulsion energy        76.0211324832 Hartrees.
 IExCor= 4336 DFT=T Ex+Corr=M062X ExCW=0 ScaHFX=  0.540000
 ScaDFX=  1.000000  1.000000  1.000000  1.000000 ScalE2=  1.000000  1.000000
 IRadAn=      5 IRanWt=     -1 IRanGd=            0 ICorTp=0 IEmpDi=  4
 NAtoms=    2 NActive=    2 NUniq=    1 SFac= 4.00D+00 NAtFMM=   60 NAOKFM=F Big=F
 Integral buffers will be    131072 words long.
 Raffenetti 2 integral format.
 Two-electron integral symmetry is turned on.
 Leave Link  301 at Sat Apr 17 07:04:52 2021, MaxMem=   104857600 cpu:               6.6 elap:               0.3
 (Enter /s/ls4/users/knvvv/bin/g16sse/l302.exe)
 NPDir=0 NMtPBC=     1 NCelOv=     1 NCel=       1 NClECP=     1 NCelD=      1
         NCelK=      1 NCelE2=     1 NClLst=     1 CellRange=     0.0.
 One-electron integrals computed using PRISM.
 One-electron integral symmetry used in STVInt
 PrsmSu:  requested number of processors reduced to:   4 ShMem   1 Linda.
 PrsmSu:  requested number of processors reduced to:  21 ShMem   1 Linda.
   8 Symmetry operations used in ECPInt.
 ECPInt:  NShTT=     990 NPrTT=    3557 LenC2=     965 LenP2D=    2923.
 LDataN:  DoStor=T MaxTD1= 8 Len=  415
 Number of processors reduced to  37 by ecpmxn.
 NBasis=   140 RedAO= T EigKep=  6.07D-04  NBF=    30     8    16    16     8    30    16    16
 NBsUse=   140 1.00D-06 EigRej= -1.00D+00 NBFU=    30     8    16    16     8    30    16    16
 Precomputing XC quadrature grid using
 IXCGrd= 4 IRadAn=           5 IRanWt=          -1 IRanGd=           0 AccXCQ= 0.00D+00.
 Generated NRdTot=       0 NPtTot=           0 NUsed=           0 NTot=          32
 NSgBfM=   166   166   166   166   166 MxSgAt=     2 MxSgA2=     2.
 Leave Link  302 at Sat Apr 17 07:05:01 2021, MaxMem=   104857600 cpu:             427.6 elap:               9.2
 (Enter /s/ls4/users/knvvv/bin/g16sse/l303.exe)
 DipDrv:  MaxL=1.
 Leave Link  303 at Sat Apr 17 07:05:02 2021, MaxMem=   104857600 cpu:              30.0 elap:               0.7
 (Enter /s/ls4/users/knvvv/bin/g16sse/l401.exe)
 SCF N**3 symmetry information disabled.
 ExpMin= 9.32D-02 ExpMax= 1.47D+06 ExpMxC= 1.67D+03 IAcc=3 IRadAn=         5 AccDes= 0.00D+00
 Harris functional with IExCor= 1009 and IRadAn=       5 diagonalized for initial guess.
 HarFok:  IExCor= 1009 AccDes= 0.00D+00 IRadAn=         5 IDoV= 1 UseB2=F ITyADJ=14
 ICtDFT=  3500011 ScaDFX=  1.000000  1.000000  1.000000  1.000000
 FoFCou: FMM=F IPFlag=           0 FMFlag=      100000 FMFlg1=           0
         NFxFlg=           0 DoJE=T BraDBF=F KetDBF=T FulRan=T
         wScrn=  0.000000 ICntrl=       500 IOpCl=  0 I1Cent=   200000004 NGrid=           0
         NMat0=    1 NMatS0=      1 NMatT0=    0 NMatD0=    1 NMtDS0=    0 NMtDT0=    0
 Petite list used in FoFCou.
 CoulSu:  requested number of processors reduced to:  21 ShMem   1 Linda.
 CoulSu:  requested number of processors reduced to:  21 ShMem   1 Linda.
 CoulSu:  requested number of processors reduced to:  21 ShMem   1 Linda.
 CoulSu:  requested number of processors reduced to:  21 ShMem   1 Linda.
 Harris En= -919.931050172913    
 JPrj=0 DoOrth=F DoCkMO=F.
 Initial guess orbital symmetries:
       Occupied  (SGU) (SGG) (SGG) (SGU) (SGG) (SGU) (PIU) (PIU)
                 (PIG) (PIG) (SGG) (SGU) (SGG) (PIU) (PIU) (PIG)
                 (PIG)
       Virtual   (SGU) (SGU) (SGG) (PIU) (PIU) (SGG) (PIG) (PIG)
                 (PIU) (PIU) (DLTG) (DLTG) (DLTU) (DLTU) (SGU)
                 (SGG) (PIG) (PIG) (SGU) (SGG) (PIU) (PIU) (PIU)
                 (PIU) (DLTG) (DLTG) (PIG) (PIG) (DLTU) (DLTU)
                 (SGG) (DLTG) (DLTG) (SGU) (PIG) (PIG) (PHIU) (PHIU)
                 (PHIG) (PHIG) (SGU) (PIU) (PIU) (DLTU) (DLTU)
                 (SGU) (SGG) (SGG) (PIG) (PIG) (SGU) (PIU) (PIU)
                 (DLTG) (DLTG) (SGG) (DLTU) (DLTU) (PIG) (PIG)
                 (DLTG) (DLTG) (SGG) (PIU) (PIU) (PHIU) (PHIU)
                 (SGU) (?A) (?A) (?B) (?B) (PHIG) (PHIG) (PIU)
                 (PIU) (DLTU) (DLTU) (PIG) (PIG) (SGU) (SGG) (PHIU)
                 (PHIU) (DLTG) (DLTG) (PHIG) (PHIG) (PIG) (PIG)
                 (PIU) (PIU) (DLTU) (DLTU) (SGU) (PIG) (PIG) (SGG)
                 (SGU) (SGG) (SGU) (DLTG) (DLTG) (PIU) (PIU) (DLTU)
                 (DLTU) (SGG) (PIG) (PIG) (SGU) (SGG) (SGU) (PIU)
                 (PIU) (PIG) (PIG) (SGG) (SGU) (SGG) (SGU) (SGG)
                 (SGU)
 The electronic state of the initial guess is 1-SGG.
 Leave Link  401 at Sat Apr 17 07:05:04 2021, MaxMem=   104857600 cpu:              66.1 elap:               1.6
 (Enter /s/ls4/users/knvvv/bin/g16sse/l502.exe)
 Keep R1 ints in memory in symmetry-blocked form, NReq=103078116.
 FoFCou: FMM=F IPFlag=           0 FMFlag=           0 FMFlg1=           0
         NFxFlg=           0 DoJE=F BraDBF=F KetDBF=F FulRan=T
         wScrn=  0.000000 ICntrl=       600 IOpCl=  0 I1Cent=           0 NGrid=           0
         NMat0=    1 NMatS0=   9870 NMatT0=    0 NMatD0=    1 NMtDS0=    0 NMtDT0=    0
 Petite list used in FoFCou.
 CoulSu:  requested number of processors reduced to:  12 ShMem   1 Linda.
 Closed shell SCF:
 Using DIIS extrapolation, IDIIS=  1040.
 NGot=   104857600 LenX=    98528149 LenY=    98498124
 Requested convergence on RMS density matrix=1.00D-08 within 128 cycles.
 Requested convergence on MAX density matrix=1.00D-06.
 Requested convergence on             energy=1.00D-06.
 No special actions if energy rises.
 Integral accuracy reduced to 1.0D-05 until final iterations.

 Cycle   1  Pass 0  IDiag  1:
 E= -920.356489431166    
 DIIS: error= 3.79D-02 at cycle   1 NSaved=   1.
 NSaved= 1 IEnMin= 1 EnMin= -920.356489431166     IErMin= 1 ErrMin= 3.79D-02
 ErrMax= 3.79D-02  0.00D+00 EMaxC= 1.00D-01 BMatC= 1.47D-01 BMatP= 1.47D-01
 IDIUse=3 WtCom= 6.21D-01 WtEn= 3.79D-01
 Coeff-Com:  0.100D+01
 Coeff-En:   0.100D+01
 Coeff:      0.100D+01
 Gap=     0.283 Goal=   None    Shift=    0.000
 GapD=    0.283 DampG=1.000 DampE=0.500 DampFc=0.5000 IDamp=-1.
 Damping current iteration by 5.00D-01
 RMSDP=1.81D-03 MaxDP=4.87D-02              OVMax= 5.89D-02

 Cycle   2  Pass 0  IDiag  1:
 E= -920.374538271192     Delta-E=       -0.018048840025 Rises=F Damp=T
 DIIS: error= 1.77D-02 at cycle   2 NSaved=   2.
 NSaved= 2 IEnMin= 2 EnMin= -920.374538271192     IErMin= 2 ErrMin= 1.77D-02
 ErrMax= 1.77D-02  0.00D+00 EMaxC= 1.00D-01 BMatC= 2.49D-02 BMatP= 1.47D-01
 IDIUse=3 WtCom= 8.23D-01 WtEn= 1.77D-01
 Coeff-Com: -0.508D+00 0.151D+01
 Coeff-En:   0.000D+00 0.100D+01
 Coeff:     -0.417D+00 0.142D+01
 Gap=     0.293 Goal=   None    Shift=    0.000
 RMSDP=5.40D-04 MaxDP=2.00D-02 DE=-1.80D-02 OVMax= 3.37D-02

 Cycle   3  Pass 0  IDiag  1:
 E= -920.389708015697     Delta-E=       -0.015169744505 Rises=F Damp=F
 DIIS: error= 5.01D-03 at cycle   3 NSaved=   3.
 NSaved= 3 IEnMin= 3 EnMin= -920.389708015697     IErMin= 3 ErrMin= 5.01D-03
 ErrMax= 5.01D-03  0.00D+00 EMaxC= 1.00D-01 BMatC= 1.57D-03 BMatP= 2.49D-02
 IDIUse=3 WtCom= 9.50D-01 WtEn= 5.01D-02
 Coeff-Com: -0.178D+00 0.400D+00 0.777D+00
 Coeff-En:   0.000D+00 0.000D+00 0.100D+01
 Coeff:     -0.169D+00 0.380D+00 0.789D+00
 Gap=     0.292 Goal=   None    Shift=    0.000
 RMSDP=1.54D-04 MaxDP=3.42D-03 DE=-1.52D-02 OVMax= 1.03D-02

 Cycle   4  Pass 0  IDiag  1:
 E= -920.390684712474     Delta-E=       -0.000976696777 Rises=F Damp=F
 DIIS: error= 1.38D-03 at cycle   4 NSaved=   4.
 NSaved= 4 IEnMin= 4 EnMin= -920.390684712474     IErMin= 4 ErrMin= 1.38D-03
 ErrMax= 1.38D-03  0.00D+00 EMaxC= 1.00D-01 BMatC= 1.22D-04 BMatP= 1.57D-03
 IDIUse=3 WtCom= 9.86D-01 WtEn= 1.38D-02
 Coeff-Com: -0.303D-01 0.592D-01 0.266D+00 0.705D+00
 Coeff-En:   0.000D+00 0.000D+00 0.000D+00 0.100D+01
 Coeff:     -0.299D-01 0.584D-01 0.263D+00 0.709D+00
 Gap=     0.292 Goal=   None    Shift=    0.000
 RMSDP=3.49D-05 MaxDP=8.57D-04 DE=-9.77D-04 OVMax= 2.67D-03

 Cycle   5  Pass 0  IDiag  1:
 E= -920.390759774602     Delta-E=       -0.000075062129 Rises=F Damp=F
 DIIS: error= 8.33D-05 at cycle   5 NSaved=   5.
 NSaved= 5 IEnMin= 5 EnMin= -920.390759774602     IErMin= 5 ErrMin= 8.33D-05
 ErrMax= 8.33D-05  0.00D+00 EMaxC= 1.00D-01 BMatC= 5.48D-07 BMatP= 1.22D-04
 IDIUse=1 WtCom= 1.00D+00 WtEn= 0.00D+00
 Coeff-Com:  0.152D-02-0.349D-02 0.173D-02 0.649D-01 0.935D+00
 Coeff:      0.152D-02-0.349D-02 0.173D-02 0.649D-01 0.935D+00
 Gap=     0.293 Goal=   None    Shift=    0.000
 RMSDP=3.88D-06 MaxDP=1.08D-04 DE=-7.51D-05 OVMax= 1.81D-04

 Initial convergence to 1.0D-05 achieved.  Increase integral accuracy.
 Cycle   6  Pass 1  IDiag  1:
 E= -920.390927915052     Delta-E=       -0.000168140450 Rises=F Damp=F
 DIIS: error= 1.86D-04 at cycle   1 NSaved=   1.
 NSaved= 1 IEnMin= 1 EnMin= -920.390927915052     IErMin= 1 ErrMin= 1.86D-04
 ErrMax= 1.86D-04  0.00D+00 EMaxC= 1.00D-01 BMatC= 2.47D-06 BMatP= 2.47D-06
 IDIUse=3 WtCom= 9.98D-01 WtEn= 1.86D-03
 Coeff-Com:  0.100D+01
 Coeff-En:   0.100D+01
 Coeff:      0.100D+01
 Gap=     0.293 Goal=   None    Shift=    0.000
 RMSDP=3.88D-06 MaxDP=1.08D-04 DE=-1.68D-04 OVMax= 2.60D-04

 Cycle   7  Pass 1  IDiag  1:
 E= -920.390928710242     Delta-E=       -0.000000795190 Rises=F Damp=F
 DIIS: error= 2.01D-05 at cycle   2 NSaved=   2.
 NSaved= 2 IEnMin= 2 EnMin= -920.390928710242     IErMin= 2 ErrMin= 2.01D-05
 ErrMax= 2.01D-05  0.00D+00 EMaxC= 1.00D-01 BMatC= 2.83D-08 BMatP= 2.47D-06
 IDIUse=1 WtCom= 1.00D+00 WtEn= 0.00D+00
 Coeff-Com: -0.103D-01 0.101D+01
 Coeff:     -0.103D-01 0.101D+01
 Gap=     0.293 Goal=   None    Shift=    0.000
 RMSDP=1.46D-06 MaxDP=3.38D-05 DE=-7.95D-07 OVMax= 6.80D-05

 Cycle   8  Pass 1  IDiag  1:
 E= -920.390928719429     Delta-E=       -0.000000009187 Rises=F Damp=F
 DIIS: error= 1.61D-05 at cycle   3 NSaved=   3.
 NSaved= 3 IEnMin= 3 EnMin= -920.390928719429     IErMin= 3 ErrMin= 1.61D-05
 ErrMax= 1.61D-05  0.00D+00 EMaxC= 1.00D-01 BMatC= 1.69D-08 BMatP= 2.83D-08
 IDIUse=1 WtCom= 1.00D+00 WtEn= 0.00D+00
 Coeff-Com: -0.131D-01 0.442D+00 0.571D+00
 Coeff:     -0.131D-01 0.442D+00 0.571D+00
 Gap=     0.293 Goal=   None    Shift=    0.000
 RMSDP=4.41D-07 MaxDP=9.83D-06 DE=-9.19D-09 OVMax= 2.66D-05

 Cycle   9  Pass 1  IDiag  1:
 E= -920.390928730776     Delta-E=       -0.000000011347 Rises=F Damp=F
 DIIS: error= 1.18D-06 at cycle   4 NSaved=   4.
 NSaved= 4 IEnMin= 4 EnMin= -920.390928730776     IErMin= 4 ErrMin= 1.18D-06
 ErrMax= 1.18D-06  0.00D+00 EMaxC= 1.00D-01 BMatC= 9.13D-11 BMatP= 1.69D-08
 IDIUse=1 WtCom= 1.00D+00 WtEn= 0.00D+00
 Coeff-Com: -0.116D-02 0.593D-02 0.587D-01 0.937D+00
 Coeff:     -0.116D-02 0.593D-02 0.587D-01 0.937D+00
 Gap=     0.293 Goal=   None    Shift=    0.000
 RMSDP=6.10D-08 MaxDP=1.45D-06 DE=-1.13D-08 OVMax= 2.99D-06

 Cycle  10  Pass 1  IDiag  1:
 E= -920.390928730843     Delta-E=       -0.000000000067 Rises=F Damp=F
 DIIS: error= 3.30D-07 at cycle   5 NSaved=   5.
 NSaved= 5 IEnMin= 5 EnMin= -920.390928730843     IErMin= 5 ErrMin= 3.30D-07
 ErrMax= 3.30D-07  0.00D+00 EMaxC= 1.00D-01 BMatC= 4.22D-12 BMatP= 9.13D-11
 IDIUse=1 WtCom= 1.00D+00 WtEn= 0.00D+00
 Coeff-Com:  0.149D-03-0.133D-01-0.457D-02 0.184D+00 0.833D+00
 Coeff:      0.149D-03-0.133D-01-0.457D-02 0.184D+00 0.833D+00
 Gap=     0.293 Goal=   None    Shift=    0.000
 RMSDP=1.19D-08 MaxDP=2.55D-07 DE=-6.70D-11 OVMax= 4.62D-07

 Cycle  11  Pass 1  IDiag  1:
 E= -920.390928730851     Delta-E=       -0.000000000008 Rises=F Damp=F
 DIIS: error= 3.36D-08 at cycle   6 NSaved=   6.
 NSaved= 6 IEnMin= 6 EnMin= -920.390928730851     IErMin= 6 ErrMin= 3.36D-08
 ErrMax= 3.36D-08  0.00D+00 EMaxC= 1.00D-01 BMatC= 7.21D-14 BMatP= 4.22D-12
 IDIUse=1 WtCom= 1.00D+00 WtEn= 0.00D+00
 Coeff-Com:  0.303D-04-0.584D-05-0.858D-03-0.288D-01 0.229D-01 0.101D+01
 Coeff:      0.303D-04-0.584D-05-0.858D-03-0.288D-01 0.229D-01 0.101D+01
 Gap=     0.293 Goal=   None    Shift=    0.000
 RMSDP=2.28D-09 MaxDP=1.02D-07 DE=-7.84D-12 OVMax= 1.26D-07

 SCF Done:  E(RM062X) =  -920.390928731     A.U. after   11 cycles
            NFock= 11  Conv=0.23D-08     -V/T= 2.0014
 KE= 9.190874896629D+02 PE=-2.340875816556D+03 EE= 4.253762656793D+02
 Leave Link  502 at Sat Apr 17 07:06:27 2021, MaxMem=   104857600 cpu:            3870.8 elap:              83.0
 (Enter /s/ls4/users/knvvv/bin/g16sse/l601.exe)
 Copying SCF densities to generalized density rwf, IOpCl= 0 IROHF=0.

 **********************************************************************

            Population analysis using the SCF density.

 **********************************************************************

 Orbital symmetries:
       Occupied  (SGG) (SGU) (SGG) (SGU) (SGG) (SGU) (PIU) (PIU)
                 (PIG) (PIG) (SGG) (SGU) (SGG) (PIU) (PIU) (PIG)
                 (PIG)
       Virtual   (SGU) (SGU) (SGG) (PIU) (PIU) (SGG) (PIG) (PIG)
                 (PIU) (PIU) (DLTG) (DLTG) (DLTU) (DLTU) (SGU)
                 (SGG) (PIG) (PIG) (SGU) (SGG) (PIU) (PIU) (PIU)
                 (PIU) (PIG) (PIG) (DLTG) (DLTG) (SGG) (DLTG) (DLTG)
                 (DLTU) (DLTU) (SGU) (PHIU) (PHIU) (PIG) (PIG)
                 (SGU) (PHIG) (PHIG) (PIU) (PIU) (DLTU) (DLTU)
                 (SGU) (SGG) (SGG) (PIG) (PIG) (SGU) (PIU) (PIU)
                 (DLTG) (DLTG) (SGG) (DLTU) (DLTU) (PIG) (PIG)
                 (DLTG) (DLTG) (SGG) (PIU) (PIU) (PHIU) (PHIU)
                 (?A) (?A) (SGU) (?B) (?B) (PHIG) (PHIG) (DLTU)
                 (DLTU) (SGU) (PHIU) (PHIU) (DLTG) (DLTG) (PIU)
                 (PIU) (SGG) (PIG) (PIG) (PHIG) (PHIG) (PIG) (PIG)
                 (PIU) (PIU) (DLTU) (DLTU) (SGU) (PIG) (PIG) (SGG)
                 (SGU) (SGG) (SGU) (PIU) (PIU) (DLTG) (DLTG) (DLTU)
                 (DLTU) (SGG) (PIG) (PIG) (SGU) (SGG) (SGU) (PIU)
                 (PIU) (PIG) (PIG) (SGG) (SGU) (SGG) (SGU) (SGG)
                 (SGU)
 The electronic state is 1-SGG.
 Alpha  occ. eigenvalues -- -102.70760-102.70760  -9.85966  -9.85957  -7.58614
 Alpha  occ. eigenvalues --   -7.58598  -7.57790  -7.57790  -7.57790  -7.57790
 Alpha  occ. eigenvalues --   -1.02946  -0.86149  -0.52573  -0.47929  -0.47929
 Alpha  occ. eigenvalues --   -0.37143  -0.37143
 Alpha virt. eigenvalues --   -0.07891   0.16372   0.17999   0.19789   0.19789
 Alpha virt. eigenvalues --    0.23671   0.24744   0.24744   0.27380   0.27380
 Alpha virt. eigenvalues --    0.29762   0.29765   0.41341   0.41341   0.44827
 Alpha virt. eigenvalues --    0.49993   0.58128   0.58128   0.70875   1.04522
 Alpha virt. eigenvalues --    1.06338   1.06338   1.09345   1.09345   1.13727
 Alpha virt. eigenvalues --    1.13727   1.15088   1.15098   1.17618   1.18693
 Alpha virt. eigenvalues --    1.18693   1.20812   1.20819   1.23607   1.27599
 Alpha virt. eigenvalues --    1.27599   1.27945   1.27945   1.37192   1.38710
 Alpha virt. eigenvalues --    1.38710   1.43611   1.43611   1.61043   1.61050
 Alpha virt. eigenvalues --    1.78352   1.80995   2.02275   2.04530   2.04530
 Alpha virt. eigenvalues --    2.67802   2.99187   2.99187   3.12519   3.12529
 Alpha virt. eigenvalues --    3.13095   3.22854   3.22865   3.31160   3.31160
 Alpha virt. eigenvalues --    3.32025   3.32030   3.36183   3.38921   3.38921
 Alpha virt. eigenvalues --    3.42774   3.42774   3.53211   3.53219   3.53842
 Alpha virt. eigenvalues --    3.55443   3.55451   3.61915   3.61915   3.76642
 Alpha virt. eigenvalues --    3.76652   3.82348   3.83816   3.83816   3.84252
 Alpha virt. eigenvalues --    3.84263   3.85238   3.85238   3.86082   3.86220
 Alpha virt. eigenvalues --    3.86220   3.90512   3.90512   4.03117   4.03117
 Alpha virt. eigenvalues --    4.16142   4.16142   4.17986   4.17989   4.30406
 Alpha virt. eigenvalues --    4.81030   4.81030   4.95392   5.34117   8.08149
 Alpha virt. eigenvalues --    8.70850  10.59053  10.59053  10.59683  10.59686
 Alpha virt. eigenvalues --   10.64588  10.64590  10.72267  10.78850  10.78850
 Alpha virt. eigenvalues --   11.34884  28.20177  28.79696  41.97990  41.97990
 Alpha virt. eigenvalues --   41.98455  41.98455  42.02192  42.03508  97.99239
 Alpha virt. eigenvalues --   98.55204 523.61159 524.55935
          Condensed to atoms (all electrons):
               1          2
     1  Cl  16.853529   0.146471
     2  Cl   0.146471  16.853529
 Mulliken charges:
               1
     1  Cl  -0.000000
     2  Cl  -0.000000
 Sum of Mulliken charges =  -0.00000
 Mulliken charges with hydrogens summed into heavy atoms:
               1
     1  Cl  -0.000000
     2  Cl  -0.000000
 Electronic spatial extent (au):  <R**2>=            177.0022
 Charge=             -0.0000 electrons
 Dipole moment (field-independent basis, Debye):
    X=             -0.0000    Y=             -0.0000    Z=              0.0000  Tot=              0.0000
 Quadrupole moment (field-independent basis, Debye-Ang):
   XX=            -25.3508   YY=            -25.3508   ZZ=            -22.1461
   XY=             -0.0000   XZ=              0.0000   YZ=              0.0000
 Traceless Quadrupole moment (field-independent basis, Debye-Ang):
   XX=             -1.0682   YY=             -1.0682   ZZ=              2.1364
   XY=             -0.0000   XZ=              0.0000   YZ=              0.0000
 Octapole moment (field-independent basis, Debye-Ang**2):
  XXX=             -0.0000  YYY=             -0.0000  ZZZ=              0.0000  XYY=             -0.0000
  XXY=             -0.0000  XXZ=             -0.0000  XZZ=             -0.0000  YZZ=             -0.0000
  YYZ=              0.0000  XYZ=              0.0000
 Hexadecapole moment (field-independent basis, Debye-Ang**3):
 XXXX=            -28.4476 YYYY=            -28.4476 ZZZZ=           -153.3641 XXXY=             -0.0000
 XXXZ=              0.0000 YYYX=             -0.0000 YYYZ=              0.0000 ZZZX=              0.0000
 ZZZY=              0.0000 XXYY=             -9.4826 XXZZ=            -34.9063 YYZZ=            -34.9063
 XXYZ=              0.0000 YYXZ=              0.0000 ZZXY=             -0.0000
 N-N= 7.602113248318D+01 E-N=-2.340875818596D+03  KE= 9.190874896629D+02
 PrsmSu:  requested number of processors reduced to:  21 ShMem   1 Linda.
 No NMR shielding tensors so no spin-rotation constants.
 Leave Link  601 at Sat Apr 17 07:06:30 2021, MaxMem=   104857600 cpu:             172.9 elap:               3.8
 (Enter /s/ls4/users/knvvv/bin/g16sse/l801.exe)
 DoSCS=F DFT=T ScalE2(SS,OS)=  1.000000  1.000000
 Range of M.O.s used for correlation:     1   140
 NBasis=   140 NAE=    17 NBE=    17 NFC=     0 NFV=     0
 NROrb=    140 NOA=    17 NOB=    17 NVA=   123 NVB=   123

 **** Warning!!: The largest alpha MO coefficient is  0.10077735D+02

 Leave Link  801 at Sat Apr 17 07:06:31 2021, MaxMem=   104857600 cpu:               5.8 elap:               0.3
 (Enter /s/ls4/users/knvvv/bin/g16sse/l914.exe)
 RHF ground state
 Doing stability rather than CIS.
 Two-electron integrals replicated using symmetry.
 MDV=   104857600 DFT=T DoStab=T Mixed=T DoRPA=F DoScal=F NonHer=F
 Making orbital integer symmetry assigments:
 Orbital symmetries:
       Occupied  (SGG) (SGU) (SGG) (SGU) (SGG) (SGU) (PIU) (PIU)
                 (PIG) (PIG) (SGG) (SGU) (SGG) (PIU) (PIU) (PIG)
                 (PIG)
       Virtual   (SGU) (SGU) (SGG) (PIU) (PIU) (SGG) (PIG) (PIG)
                 (PIU) (PIU) (DLTG) (DLTG) (DLTU) (DLTU) (SGU)
                 (SGG) (PIG) (PIG) (SGU) (SGG) (PIU) (PIU) (PIU)
                 (PIU) (PIG) (PIG) (DLTG) (DLTG) (SGG) (DLTG) (DLTG)
                 (DLTU) (DLTU) (SGU) (PHIU) (PHIU) (PIG) (PIG)
                 (SGU) (PHIG) (PHIG) (PIU) (PIU) (DLTU) (DLTU)
                 (SGU) (SGG) (SGG) (PIG) (PIG) (SGU) (PIU) (PIU)
                 (DLTG) (DLTG) (SGG) (DLTU) (DLTU) (PIG) (PIG)
                 (DLTG) (DLTG) (SGG) (PIU) (PIU) (PHIU) (PHIU)
                 (?A) (?A) (SGU) (?B) (?B) (PHIG) (PHIG) (DLTU)
                 (DLTU) (SGU) (PHIU) (PHIU) (DLTG) (DLTG) (PIU)
                 (PIU) (SGG) (PIG) (PIG) (PHIG) (PHIG) (PIG) (PIG)
                 (PIU) (PIU) (DLTU) (DLTU) (SGU) (PIG) (PIG) (SGG)
                 (SGU) (SGG) (SGU) (PIU) (PIU) (DLTG) (DLTG) (DLTU)
                 (DLTU) (SGG) (PIG) (PIG) (SGU) (SGG) (SGU) (PIU)
                 (PIU) (PIG) (PIG) (SGG) (SGU) (SGG) (SGU) (SGG)
                 (SGU)
    48 initial guesses have been made.
 Convergence on wavefunction:    0.001000000000000
 Davidson Disk Diagonalization:  ConvIn= 1.00D-03 SkipCon=T Conv= 1.00D-03.
 Max sub-space:  2000 roots to seek:    48 dimension of matrix:         4182
 Iteration     1 Dimension    48 NMult     0 NNew     48
 Estimated number of processors is:   20
 CISAX will form     1 AO SS matrices at one time.
 NMat=     1 NSing=     1 JSym2X= 2.
 FoFJK:  IHMeth= 1 ICntrl=       0 DoSepK=F KAlg= 0 I1Cent=           0 FoldK=F
 IRaf= 960000000 NMat=       1 IRICut=       1 DoRegI=T DoRafI=F ISym2E= 2 IDoP0=0 IntGTp=1.
 FoFCou: FMM=F IPFlag=           0 FMFlag=      100000 FMFlg1=           0
         NFxFlg=           0 DoJE=F BraDBF=F KetDBF=F FulRan=T
         wScrn=  0.000000 ICntrl=         0 IOpCl=  0 I1Cent=           0 NGrid=           0
         NMat0=    1 NMatS0=      1 NMatT0=    0 NMatD0=    1 NMtDS0=    0 NMtDT0=    0
 Integrals replicated using symmetry in FoFCou.
 CoulSu:  requested number of processors reduced to:  20 ShMem   1 Linda.
 NMat=     1 NSing=     1 JSym2X= 2.
 CoulSu:  requested number of processors reduced to:  20 ShMem   1 Linda.
 NMat=     1 NSing=     1 JSym2X= 2.
 CoulSu:  requested number of processors reduced to:  20 ShMem   1 Linda.
 NMat=     1 NSing=     1 JSym2X= 2.
 CoulSu:  requested number of processors reduced to:  20 ShMem   1 Linda.
 NMat=     1 NSing=     1 JSym2X= 2.
 CoulSu:  requested number of processors reduced to:  20 ShMem   1 Linda.
 NMat=     1 NSing=     1 JSym2X= 2.
 CoulSu:  requested number of processors reduced to:  20 ShMem   1 Linda.
 NMat=     1 NSing=     1 JSym2X= 2.
 CoulSu:  requested number of processors reduced to:  20 ShMem   1 Linda.
 NMat=     1 NSing=     1 JSym2X= 2.
 CoulSu:  requested number of processors reduced to:  20 ShMem   1 Linda.
 NMat=     1 NSing=     1 JSym2X= 2.
 CoulSu:  requested number of processors reduced to:  20 ShMem   1 Linda.
 NMat=     1 NSing=     1 JSym2X= 2.
 CoulSu:  requested number of processors reduced to:  20 ShMem   1 Linda.
 NMat=     1 NSing=     1 JSym2X= 2.
 CoulSu:  requested number of processors reduced to:  20 ShMem   1 Linda.
 NMat=     1 NSing=     1 JSym2X= 2.
 CoulSu:  requested number of processors reduced to:  20 ShMem   1 Linda.
 NMat=     1 NSing=     1 JSym2X= 2.
 CoulSu:  requested number of processors reduced to:  20 ShMem   1 Linda.
 NMat=     1 NSing=     1 JSym2X= 2.
 CoulSu:  requested number of processors reduced to:  20 ShMem   1 Linda.
 NMat=     1 NSing=     1 JSym2X= 2.
 CoulSu:  requested number of processors reduced to:  20 ShMem   1 Linda.
 NMat=     1 NSing=     1 JSym2X= 2.
 CoulSu:  requested number of processors reduced to:  20 ShMem   1 Linda.
 NMat=     1 NSing=     1 JSym2X= 2.
 CoulSu:  requested number of processors reduced to:  20 ShMem   1 Linda.
 NMat=     1 NSing=     1 JSym2X= 2.
 CoulSu:  requested number of processors reduced to:  20 ShMem   1 Linda.
 NMat=     1 NSing=     1 JSym2X= 2.
 CoulSu:  requested number of processors reduced to:  20 ShMem   1 Linda.
 NMat=     1 NSing=     1 JSym2X= 2.
 CoulSu:  requested number of processors reduced to:  20 ShMem   1 Linda.
 NMat=     1 NSing=     1 JSym2X= 2.
 CoulSu:  requested number of processors reduced to:  20 ShMem   1 Linda.
 NMat=     1 NSing=     1 JSym2X= 2.
 CoulSu:  requested number of processors reduced to:  20 ShMem   1 Linda.
 NMat=     1 NSing=     1 JSym2X= 2.
 CoulSu:  requested number of processors reduced to:  20 ShMem   1 Linda.
 NMat=     1 NSing=     1 JSym2X= 2.
 CoulSu:  requested number of processors reduced to:  20 ShMem   1 Linda.
 NMat=     1 NSing=     0 JSym2X= 2.
 CoulSu:  requested number of processors reduced to:  20 ShMem   1 Linda.
 NMat=     1 NSing=     0 JSym2X= 2.
 CoulSu:  requested number of processors reduced to:  20 ShMem   1 Linda.
 NMat=     1 NSing=     0 JSym2X= 2.
 CoulSu:  requested number of processors reduced to:  20 ShMem   1 Linda.
 NMat=     1 NSing=     0 JSym2X= 2.
 CoulSu:  requested number of processors reduced to:  20 ShMem   1 Linda.
 NMat=     1 NSing=     0 JSym2X= 2.
 CoulSu:  requested number of processors reduced to:  20 ShMem   1 Linda.
 NMat=     1 NSing=     0 JSym2X= 2.
 CoulSu:  requested number of processors reduced to:  20 ShMem   1 Linda.
 NMat=     1 NSing=     0 JSym2X= 2.
 CoulSu:  requested number of processors reduced to:  20 ShMem   1 Linda.
 NMat=     1 NSing=     0 JSym2X= 2.
 CoulSu:  requested number of processors reduced to:  20 ShMem   1 Linda.
 NMat=     1 NSing=     0 JSym2X= 2.
 CoulSu:  requested number of processors reduced to:  20 ShMem   1 Linda.
 NMat=     1 NSing=     0 JSym2X= 2.
 CoulSu:  requested number of processors reduced to:  20 ShMem   1 Linda.
 NMat=     1 NSing=     0 JSym2X= 2.
 CoulSu:  requested number of processors reduced to:  20 ShMem   1 Linda.
 NMat=     1 NSing=     0 JSym2X= 2.
 CoulSu:  requested number of processors reduced to:  20 ShMem   1 Linda.
 NMat=     1 NSing=     0 JSym2X= 2.
 CoulSu:  requested number of processors reduced to:  20 ShMem   1 Linda.
 NMat=     1 NSing=     0 JSym2X= 2.
 CoulSu:  requested number of processors reduced to:  20 ShMem   1 Linda.
 NMat=     1 NSing=     0 JSym2X= 2.
 CoulSu:  requested number of processors reduced to:  20 ShMem   1 Linda.
 NMat=     1 NSing=     0 JSym2X= 2.
 CoulSu:  requested number of processors reduced to:  20 ShMem   1 Linda.
 NMat=     1 NSing=     0 JSym2X= 2.
 CoulSu:  requested number of processors reduced to:  20 ShMem   1 Linda.
 NMat=     1 NSing=     0 JSym2X= 2.
 CoulSu:  requested number of processors reduced to:  20 ShMem   1 Linda.
 NMat=     1 NSing=     0 JSym2X= 2.
 CoulSu:  requested number of processors reduced to:  20 ShMem   1 Linda.
 NMat=     1 NSing=     0 JSym2X= 2.
 CoulSu:  requested number of processors reduced to:  20 ShMem   1 Linda.
 NMat=     1 NSing=     0 JSym2X= 2.
 CoulSu:  requested number of processors reduced to:  20 ShMem   1 Linda.
 NMat=     1 NSing=     0 JSym2X= 2.
 CoulSu:  requested number of processors reduced to:  20 ShMem   1 Linda.
 NMat=     1 NSing=     0 JSym2X= 2.
 CoulSu:  requested number of processors reduced to:  20 ShMem   1 Linda.
 NMat=     1 NSing=     0 JSym2X= 2.
 CoulSu:  requested number of processors reduced to:  20 ShMem   1 Linda.
 New state      1 was old state      2
 Excitation Energies [eV] at current iteration:
 Root      1 :     2.813523753029979
 Root      2 :     2.813523753030197
 Root      3 :     4.475214236375561
 Root      4 :     4.475214236375657
 Root      5 :     5.667216546683711
 Root      6 :     5.667216546683946
 Root      7 :     5.731362319276759
 Root      8 :     7.260871270100758
 Root      9 :     7.260871270100975
 Root     10 :    10.880592397929540
 Root     11 :    11.088767070913950
 Root     12 :    11.088767070914270
 Root     13 :    11.556903433929410
 Root     14 :    11.556903433929770
 Root     15 :    11.847295970929290
 Root     16 :    11.847295970930250
 Root     17 :    11.923227371449940
 Root     18 :    11.923227371451840
 Root     19 :    12.093297637164320
 Root     20 :    12.163610119164350
 Root     21 :    12.163719003746940
 Root     22 :    12.176820770348980
 Root     23 :    12.233798735178440
 Root     24 :    12.274776751791480
 Root     25 :    12.275901577491140
 Root     26 :    12.455589060076910
 Root     27 :    12.504309682552210
 Root     28 :    12.864651351777060
 Root     29 :    12.864651351778930
 Root     30 :    13.062709297699980
 Root     31 :    13.062709297700850
 Root     32 :    13.185206345148640
 Root     33 :    13.400606096202860
 Root     34 :    13.444495726510240
 Root     35 :    13.630604749228600
 Root     36 :    13.655291309602950
 Root     37 :    13.656475169338780
 Root     38 :    13.757561383532290
 Root     39 :    13.758778124804170
 Root     40 :    13.913841787284430
 Root     41 :    13.913841787502790
 Root     42 :    14.224528222880120
 Root     43 :    14.911896016613850
 Root     44 :    14.911896016614190
 Root     45 :    14.964843125110020
 Root     46 :    14.964843125110170
 Root     47 :    16.558607688631940
 Root     48 :    22.459556330151020
 Iteration     2 Dimension    96 NMult    48 NNew     48
 Estimated number of processors is:   20
 CISAX will form     1 AO SS matrices at one time.
 NMat=     1 NSing=     1 JSym2X= 2.
 CoulSu:  requested number of processors reduced to:  20 ShMem   1 Linda.
 NMat=     1 NSing=     1 JSym2X= 2.
 CoulSu:  requested number of processors reduced to:  20 ShMem   1 Linda.
 NMat=     1 NSing=     1 JSym2X= 2.
 CoulSu:  requested number of processors reduced to:  20 ShMem   1 Linda.
 NMat=     1 NSing=     1 JSym2X= 2.
 CoulSu:  requested number of processors reduced to:  20 ShMem   1 Linda.
 NMat=     1 NSing=     1 JSym2X= 2.
 CoulSu:  requested number of processors reduced to:  20 ShMem   1 Linda.
 NMat=     1 NSing=     1 JSym2X= 2.
 CoulSu:  requested number of processors reduced to:  20 ShMem   1 Linda.
 NMat=     1 NSing=     1 JSym2X= 2.
 CoulSu:  requested number of processors reduced to:  20 ShMem   1 Linda.
 NMat=     1 NSing=     1 JSym2X= 2.
 CoulSu:  requested number of processors reduced to:  20 ShMem   1 Linda.
 NMat=     1 NSing=     1 JSym2X= 2.
 CoulSu:  requested number of processors reduced to:  20 ShMem   1 Linda.
 NMat=     1 NSing=     1 JSym2X= 2.
 CoulSu:  requested number of processors reduced to:  20 ShMem   1 Linda.
 NMat=     1 NSing=     1 JSym2X= 2.
 CoulSu:  requested number of processors reduced to:  20 ShMem   1 Linda.
 NMat=     1 NSing=     1 JSym2X= 2.
 CoulSu:  requested number of processors reduced to:  20 ShMem   1 Linda.
 NMat=     1 NSing=     1 JSym2X= 2.
 CoulSu:  requested number of processors reduced to:  20 ShMem   1 Linda.
 NMat=     1 NSing=     1 JSym2X= 2.
 CoulSu:  requested number of processors reduced to:  20 ShMem   1 Linda.
 NMat=     1 NSing=     1 JSym2X= 2.
 CoulSu:  requested number of processors reduced to:  20 ShMem   1 Linda.
 NMat=     1 NSing=     1 JSym2X= 2.
 CoulSu:  requested number of processors reduced to:  20 ShMem   1 Linda.
 NMat=     1 NSing=     1 JSym2X= 2.
 CoulSu:  requested number of processors reduced to:  20 ShMem   1 Linda.
 NMat=     1 NSing=     1 JSym2X= 2.
 CoulSu:  requested number of processors reduced to:  20 ShMem   1 Linda.
 NMat=     1 NSing=     1 JSym2X= 2.
 CoulSu:  requested number of processors reduced to:  20 ShMem   1 Linda.
 NMat=     1 NSing=     1 JSym2X= 2.
 CoulSu:  requested number of processors reduced to:  20 ShMem   1 Linda.
 NMat=     1 NSing=     1 JSym2X= 2.
 CoulSu:  requested number of processors reduced to:  20 ShMem   1 Linda.
 NMat=     1 NSing=     1 JSym2X= 2.
 CoulSu:  requested number of processors reduced to:  20 ShMem   1 Linda.
 NMat=     1 NSing=     1 JSym2X= 2.
 CoulSu:  requested number of processors reduced to:  20 ShMem   1 Linda.
 NMat=     1 NSing=     1 JSym2X= 2.
 CoulSu:  requested number of processors reduced to:  20 ShMem   1 Linda.
 NMat=     1 NSing=     0 JSym2X= 2.
 CoulSu:  requested number of processors reduced to:  20 ShMem   1 Linda.
 NMat=     1 NSing=     0 JSym2X= 2.
 CoulSu:  requested number of processors reduced to:  20 ShMem   1 Linda.
 NMat=     1 NSing=     0 JSym2X= 2.
 CoulSu:  requested number of processors reduced to:  20 ShMem   1 Linda.
 NMat=     1 NSing=     0 JSym2X= 2.
 CoulSu:  requested number of processors reduced to:  20 ShMem   1 Linda.
 NMat=     1 NSing=     0 JSym2X= 2.
 CoulSu:  requested number of processors reduced to:  20 ShMem   1 Linda.
 NMat=     1 NSing=     0 JSym2X= 2.
 CoulSu:  requested number of processors reduced to:  20 ShMem   1 Linda.
 NMat=     1 NSing=     0 JSym2X= 2.
 CoulSu:  requested number of processors reduced to:  20 ShMem   1 Linda.
 NMat=     1 NSing=     0 JSym2X= 2.
 CoulSu:  requested number of processors reduced to:  20 ShMem   1 Linda.
 NMat=     1 NSing=     0 JSym2X= 2.
 CoulSu:  requested number of processors reduced to:  20 ShMem   1 Linda.
 NMat=     1 NSing=     0 JSym2X= 2.
 CoulSu:  requested number of processors reduced to:  20 ShMem   1 Linda.
 NMat=     1 NSing=     0 JSym2X= 2.
 CoulSu:  requested number of processors reduced to:  20 ShMem   1 Linda.
 NMat=     1 NSing=     0 JSym2X= 2.
 CoulSu:  requested number of processors reduced to:  20 ShMem   1 Linda.
 NMat=     1 NSing=     0 JSym2X= 2.
 CoulSu:  requested number of processors reduced to:  20 ShMem   1 Linda.
 NMat=     1 NSing=     0 JSym2X= 2.
 CoulSu:  requested number of processors reduced to:  20 ShMem   1 Linda.
 NMat=     1 NSing=     0 JSym2X= 2.
 CoulSu:  requested number of processors reduced to:  20 ShMem   1 Linda.
 NMat=     1 NSing=     0 JSym2X= 2.
 CoulSu:  requested number of processors reduced to:  20 ShMem   1 Linda.
 NMat=     1 NSing=     0 JSym2X= 2.
 CoulSu:  requested number of processors reduced to:  20 ShMem   1 Linda.
 NMat=     1 NSing=     0 JSym2X= 2.
 CoulSu:  requested number of processors reduced to:  20 ShMem   1 Linda.
 NMat=     1 NSing=     0 JSym2X= 2.
 CoulSu:  requested number of processors reduced to:  20 ShMem   1 Linda.
 NMat=     1 NSing=     0 JSym2X= 2.
 CoulSu:  requested number of processors reduced to:  20 ShMem   1 Linda.
 NMat=     1 NSing=     0 JSym2X= 2.
 CoulSu:  requested number of processors reduced to:  20 ShMem   1 Linda.
 NMat=     1 NSing=     0 JSym2X= 2.
 CoulSu:  requested number of processors reduced to:  20 ShMem   1 Linda.
 NMat=     1 NSing=     0 JSym2X= 2.
 CoulSu:  requested number of processors reduced to:  20 ShMem   1 Linda.
 NMat=     1 NSing=     0 JSym2X= 2.
 CoulSu:  requested number of processors reduced to:  20 ShMem   1 Linda.
 DSYEVD-2 returned Info=        4849 IAlg= 4 N=    96 NDim=    96 NE2=     1008767 trying  DSYEV.
 Root      1 not converged, maximum delta is    0.033797701292945
 Excitation Energies [eV] at current iteration:
 Root      1 :     2.584736123398492   Change is   -0.228787629631488
 Root      2 :     2.584736123398734   Change is   -0.228787629631463
 Root      3 :     4.023907390103957   Change is   -0.451306846271603
 Root      4 :     4.023907390104073   Change is   -0.451306846271584
 Root      5 :     5.163299985659796   Change is   -0.568062333616963
 Root      6 :     5.398934362170664   Change is   -0.268282184513046
 Root      7 :     5.398934362170895   Change is   -0.268282184513051
 Root      8 :     6.958936336073829   Change is   -0.301934934026930
 Root      9 :     6.958936336074051   Change is   -0.301934934026925
 Root     10 :    10.114566717197250   Change is   -0.766025680732287
 Root     11 :    10.834488372667180   Change is   -0.254278698246775
 Root     12 :    10.834488372667560   Change is   -0.254278698246704
 Root     13 :    11.375918852144200   Change is   -0.180984581785216
 Root     14 :    11.375918852144530   Change is   -0.180984581785237
 Root     15 :    11.542679341273470   Change is   -0.550618295890858
 Root     16 :    11.649926346903720   Change is   -0.273301024546223
 Root     17 :    11.649926346905390   Change is   -0.273301024546460
 Root     18 :    11.669275738828280   Change is   -0.178020232101013
 Root     19 :    11.669275738829230   Change is   -0.178020232101027
 Root     20 :    11.888685614242920   Change is   -0.275033389504017
 Root     21 :    11.937196999800250   Change is   -0.296601735378199
 Root     22 :    12.015321310781200   Change is   -0.148288808383151
 Root     23 :    12.021835556338890   Change is   -0.154985214010090
 Root     24 :    12.114054066451290   Change is   -0.341534993625618
 Root     25 :    12.206733564550820   Change is   -0.068043187240657
 Root     26 :    12.208789008354860   Change is   -0.067112569136278
 Root     27 :    12.245679455792120   Change is   -0.258630226760094
 Root     28 :    12.607209583052250   Change is   -0.257441768724805
 Root     29 :    12.607209583053930   Change is   -0.257441768724998
 Root     30 :    12.915080671275720   Change is   -0.715524077952884
 Root     31 :    12.990021186257770   Change is   -0.072688111442215
 Root     32 :    12.990021186258590   Change is   -0.072688111442262
 Root     33 :    13.032085167084280   Change is   -0.153121178064356
 Root     34 :    13.170316623333670   Change is   -0.230289472869195
 Root     35 :    13.336872673418030   Change is   -0.107623053092210
 Root     36 :    13.358564291570110   Change is   -0.398997091962178
 Root     37 :    13.359835793501660   Change is   -0.398942331302516
 Root     38 :    13.419011839144510   Change is   -0.236279470458437
 Root     39 :    13.420307170275360   Change is   -0.236167999063423
 Root     40 :    13.616779682473460   Change is   -0.607748540406657
 Root     41 :    13.718200058532000   Change is   -0.195641728752428
 Root     42 :    13.718200058978630   Change is   -0.195641728524165
 Root     43 :    14.349757397065130   Change is   -8.109798933085889
 Root     44 :    14.856515687759460   Change is   -0.055380328854389
 Root     45 :    14.856515687759810   Change is   -0.055380328854380
 Root     46 :    14.894499320304950   Change is   -1.664108368326991
 Root     47 :    14.911045924635620   Change is   -0.053797200474405
 Root     48 :    14.911045924635770   Change is   -0.053797200474402
 Iteration     3 Dimension   102 NMult    96 NNew      6
 Estimated number of processors is:   20
 CISAX will form     1 AO SS matrices at one time.
 NMat=     1 NSing=     1 JSym2X= 2.
 CoulSu:  requested number of processors reduced to:  20 ShMem   1 Linda.
 NMat=     1 NSing=     1 JSym2X= 2.
 CoulSu:  requested number of processors reduced to:  20 ShMem   1 Linda.
 NMat=     1 NSing=     1 JSym2X= 2.
 CoulSu:  requested number of processors reduced to:  20 ShMem   1 Linda.
 NMat=     1 NSing=     0 JSym2X= 2.
 CoulSu:  requested number of processors reduced to:  20 ShMem   1 Linda.
 NMat=     1 NSing=     0 JSym2X= 2.
 CoulSu:  requested number of processors reduced to:  20 ShMem   1 Linda.
 NMat=     1 NSing=     0 JSym2X= 2.
 CoulSu:  requested number of processors reduced to:  20 ShMem   1 Linda.
 Root      1 not converged, maximum delta is    0.008983617328966
 Excitation Energies [eV] at current iteration:
 Root      1 :     2.582951229462188   Change is   -0.001784893936304
 Root      2 :     2.582951229462406   Change is   -0.001784893936328
 Root      3 :     3.991510753851643   Change is   -0.032396636252314
 Root      4 :     3.991510753851752   Change is   -0.032396636252321
 Root      5 :     5.155816398377340   Change is   -0.007483587282456
 Root      6 :     6.950103859674371   Change is   -0.008832476399457
 Iteration     4 Dimension   108 NMult   102 NNew      6
 Estimated number of processors is:   20
 CISAX will form     1 AO SS matrices at one time.
 NMat=     1 NSing=     1 JSym2X= 2.
 CoulSu:  requested number of processors reduced to:  20 ShMem   1 Linda.
 NMat=     1 NSing=     1 JSym2X= 2.
 CoulSu:  requested number of processors reduced to:  20 ShMem   1 Linda.
 NMat=     1 NSing=     1 JSym2X= 2.
 CoulSu:  requested number of processors reduced to:  20 ShMem   1 Linda.
 NMat=     1 NSing=     0 JSym2X= 2.
 CoulSu:  requested number of processors reduced to:  20 ShMem   1 Linda.
 NMat=     1 NSing=     0 JSym2X= 2.
 CoulSu:  requested number of processors reduced to:  20 ShMem   1 Linda.
 NMat=     1 NSing=     0 JSym2X= 2.
 CoulSu:  requested number of processors reduced to:  20 ShMem   1 Linda.
 Root      1 not converged, maximum delta is    0.031196576421329
 Excitation Energies [eV] at current iteration:
 Root      1 :     2.582907106785191   Change is   -0.000044122676997
 Root      2 :     2.582907106785402   Change is   -0.000044122677003
 Root      3 :     3.990599404204220   Change is   -0.000911349647423
 Root      4 :     3.990599404204287   Change is   -0.000911349647465
 Root      5 :     5.155714037087328   Change is   -0.000102361290011
 Root      6 :     6.949873198185006   Change is   -0.000230661489365
 Iteration     5 Dimension   114 NMult   108 NNew      6
 Estimated number of processors is:   20
 CISAX will form     1 AO SS matrices at one time.
 NMat=     1 NSing=     1 JSym2X= 2.
 CoulSu:  requested number of processors reduced to:  20 ShMem   1 Linda.
 NMat=     1 NSing=     1 JSym2X= 2.
 CoulSu:  requested number of processors reduced to:  20 ShMem   1 Linda.
 NMat=     1 NSing=     1 JSym2X= 2.
 CoulSu:  requested number of processors reduced to:  20 ShMem   1 Linda.
 NMat=     1 NSing=     0 JSym2X= 2.
 CoulSu:  requested number of processors reduced to:  20 ShMem   1 Linda.
 NMat=     1 NSing=     0 JSym2X= 2.
 CoulSu:  requested number of processors reduced to:  20 ShMem   1 Linda.
 NMat=     1 NSing=     0 JSym2X= 2.
 CoulSu:  requested number of processors reduced to:  20 ShMem   1 Linda.
 DSYEVD-2 returned Info=         229 IAlg= 4 N=   114 NDim=   114 NE2=      849488 trying  DSYEV.
 Root      1 not converged, maximum delta is    0.016080198600623
 Excitation Energies [eV] at current iteration:
 Root      1 :     2.582905803519272   Change is   -0.000001303265919
 Root      2 :     2.582905803519478   Change is   -0.000001303265925
 Root      3 :     3.990592608259384   Change is   -0.000006795944836
 Root      4 :     3.990592608259501   Change is   -0.000006795944786
 Root      5 :     5.155711956615834   Change is   -0.000002080471495
 Root      6 :     6.949871832139164   Change is   -0.000001366045843
 Iteration     6 Dimension   120 NMult   114 NNew      6
 Estimated number of processors is:   20
 CISAX will form     1 AO SS matrices at one time.
 NMat=     1 NSing=     1 JSym2X= 2.
 CoulSu:  requested number of processors reduced to:  20 ShMem   1 Linda.
 NMat=     1 NSing=     1 JSym2X= 2.
 CoulSu:  requested number of processors reduced to:  20 ShMem   1 Linda.
 NMat=     1 NSing=     1 JSym2X= 2.
 CoulSu:  requested number of processors reduced to:  20 ShMem   1 Linda.
 NMat=     1 NSing=     0 JSym2X= 2.
 CoulSu:  requested number of processors reduced to:  20 ShMem   1 Linda.
 NMat=     1 NSing=     0 JSym2X= 2.
 CoulSu:  requested number of processors reduced to:  20 ShMem   1 Linda.
 NMat=     1 NSing=     0 JSym2X= 2.
 CoulSu:  requested number of processors reduced to:  20 ShMem   1 Linda.
 Root      1 not converged, maximum delta is    0.232446671060518
 Excitation Energies [eV] at current iteration:
 Root      1 :     2.582905788057975   Change is   -0.000000015461297
 Root      2 :     2.582905788058132   Change is   -0.000000015461345
 Root      3 :     3.990592464564947   Change is   -0.000000143694437
 Root      4 :     3.990592464565032   Change is   -0.000000143694470
 Root      5 :     5.155711934146625   Change is   -0.000000022469208
 Root      6 :     6.949871821015210   Change is   -0.000000011123954
 Iteration     7 Dimension   125 NMult   120 NNew      5
 Estimated number of processors is:   20
 CISAX will form     1 AO SS matrices at one time.
 NMat=     1 NSing=     1 JSym2X= 2.
 CoulSu:  requested number of processors reduced to:  20 ShMem   1 Linda.
 NMat=     1 NSing=     1 JSym2X= 2.
 CoulSu:  requested number of processors reduced to:  20 ShMem   1 Linda.
 NMat=     1 NSing=     0 JSym2X= 2.
 CoulSu:  requested number of processors reduced to:  20 ShMem   1 Linda.
 NMat=     1 NSing=     0 JSym2X= 2.
 CoulSu:  requested number of processors reduced to:  20 ShMem   1 Linda.
 NMat=     1 NSing=     0 JSym2X= 2.
 CoulSu:  requested number of processors reduced to:  20 ShMem   1 Linda.
 Root      1 not converged, maximum delta is    0.254969322003189
 Excitation Energies [eV] at current iteration:
 Root      1 :     2.582905770108048   Change is   -0.000000017949927
 Root      2 :     2.582905770108212   Change is   -0.000000017949921
 Root      3 :     3.990592462875305   Change is   -0.000000001689643
 Root      4 :     3.990592462875347   Change is   -0.000000001689685
 Root      5 :     5.155711933578863   Change is   -0.000000000567762
 Root      6 :     6.949871821015222   Change is    0.000000000000012
 Iteration     8 Dimension   127 NMult   125 NNew      2
 Estimated number of processors is:   20
 CISAX will form     1 AO SS matrices at one time.
 NMat=     1 NSing=     0 JSym2X= 2.
 CoulSu:  requested number of processors reduced to:  20 ShMem   1 Linda.
 NMat=     1 NSing=     0 JSym2X= 2.
 CoulSu:  requested number of processors reduced to:  20 ShMem   1 Linda.
 Root      1 not converged, maximum delta is    0.232223716930314
 Excitation Energies [eV] at current iteration:
 Root      1 :     2.582905768058059   Change is   -0.000000002049990
 Root      2 :     2.582905768058228   Change is   -0.000000002049984
 Root      3 :     3.990592462875250   Change is   -0.000000000000054
 Root      4 :     3.990592462875347   Change is    0.000000000000000
 Root      5 :     5.155711933578912   Change is    0.000000000000048
 Root      6 :     6.949871821015192   Change is   -0.000000000000030
 Iteration     9 Dimension   129 NMult   127 NNew      2
 Estimated number of processors is:   20
 CISAX will form     1 AO SS matrices at one time.
 NMat=     1 NSing=     0 JSym2X= 2.
 CoulSu:  requested number of processors reduced to:  20 ShMem   1 Linda.
 NMat=     1 NSing=     0 JSym2X= 2.
 CoulSu:  requested number of processors reduced to:  20 ShMem   1 Linda.
 Root      1 not converged, maximum delta is    0.056642809285076
 Excitation Energies [eV] at current iteration:
 Root      1 :     2.582905757753887   Change is   -0.000000010304171
 Root      2 :     2.582905757754069   Change is   -0.000000010304159
 Root      3 :     3.990592462875305   Change is    0.000000000000054
 Root      4 :     3.990592462875353   Change is    0.000000000000006
 Root      5 :     5.155711933578912   Change is    0.000000000000000
 Root      6 :     6.949871821015204   Change is    0.000000000000012
 Iteration    10 Dimension   131 NMult   129 NNew      2
 Estimated number of processors is:   21
 CISAX will form     1 AO SS matrices at one time.
 NMat=     1 NSing=     1 JSym2X= 2.
 CoulSu:  requested number of processors reduced to:  20 ShMem   1 Linda.
 NMat=     1 NSing=     1 JSym2X= 2.
 CoulSu:  requested number of processors reduced to:  20 ShMem   1 Linda.
 DSYEVD-2 returned Info=         164 IAlg= 4 N=   131 NDim=   131 NE2=      739249 trying  DSYEV.
 Root      1 not converged, maximum delta is    0.310149127413865
 Excitation Energies [eV] at current iteration:
 Root      1 :     2.582905757753823   Change is   -0.000000000000064
 Root      2 :     2.582905757754038   Change is   -0.000000000000031
 Root      3 :     3.990592461665479   Change is   -0.000000001209825
 Root      4 :     3.990592461665660   Change is   -0.000000001209693
 Root      5 :     5.155711933578869   Change is   -0.000000000000042
 Root      6 :     6.949871821015224   Change is    0.000000000000020
 Iteration    11 Dimension   133 NMult   131 NNew      2
 Estimated number of processors is:   21
 CISAX will form     1 AO SS matrices at one time.
 NMat=     1 NSing=     1 JSym2X= 2.
 CoulSu:  requested number of processors reduced to:  20 ShMem   1 Linda.
 NMat=     1 NSing=     1 JSym2X= 2.
 CoulSu:  requested number of processors reduced to:  20 ShMem   1 Linda.
 Root      1 not converged, maximum delta is    0.141480001930398
 Excitation Energies [eV] at current iteration:
 Root      1 :     2.582905757753857   Change is    0.000000000000034
 Root      2 :     2.582905757754009   Change is   -0.000000000000029
 Root      3 :     3.990592431180280   Change is   -0.000000030485380
 Root      4 :     3.990592431180292   Change is   -0.000000030485187
 Root      5 :     5.155711933578882   Change is    0.000000000000012
 Root      6 :     6.949871821015216   Change is   -0.000000000000008
 Convergence achieved on expansion vectors.
 ***********************************************************************
 Stability analysis using <AA,BB:AA,BB> singles matrix:
 ***********************************************************************
 1PDM for each excited state written to RWF  633
 Ground to excited state transition densities written to RWF  633

 Eigenvectors of the stability matrix:
 
 Excited state symmetry could not be determined.
 Eigenvector   1:      Triplet-?Sym  Eigenvalue= 0.0949200  <S**2>=2.000
      16 -> 18        -0.22035
      17 -> 18         0.66327
 
 Excited state symmetry could not be determined.
 Eigenvector   2:      Triplet-?Sym  Eigenvalue= 0.0949200  <S**2>=2.000
      16 -> 18         0.66327
      17 -> 18         0.22035
 
 Excited state symmetry could not be determined.
 Eigenvector   3:      Singlet-?Sym  Eigenvalue= 0.1466516  <S**2>=0.000
      16 -> 18         0.69931
 
 Excited state symmetry could not be determined.
 Eigenvector   4:      Singlet-?Sym  Eigenvalue= 0.1466516  <S**2>=0.000
      17 -> 18         0.69931
 
 Eigenvector   5:      Triplet-SGU  Eigenvalue= 0.1894689  <S**2>=2.000
      13 -> 18         0.69196
      13 -> 19        -0.11398
 
 Excited state symmetry could not be determined.
 Eigenvector   6:      Singlet-?Sym  Eigenvalue= 0.2554031  <S**2>=0.000
      15 -> 18         0.70084
 The wavefunction is stable under the perturbations considered.
 Leave Link  914 at Sat Apr 17 07:09:46 2021, MaxMem=   104857600 cpu:            7121.8 elap:             194.6
 (Enter /s/ls4/users/knvvv/bin/g16sse/l508.exe)
 The wavefunction is already stable.
 Leave Link  508 at Sat Apr 17 07:09:46 2021, MaxMem=   104857600 cpu:               2.2 elap:               0.1
 (Enter /s/ls4/users/knvvv/bin/g16sse/l601.exe)
 Copying SCF densities to generalized density rwf, IOpCl= 0 IROHF=0.

 **********************************************************************

            Population analysis using the SCF density.

 **********************************************************************

 Orbital symmetries:
       Occupied  (SGG) (SGU) (SGG) (SGU) (SGG) (SGU) (PIU) (PIU)
                 (PIG) (PIG) (SGG) (SGU) (SGG) (PIU) (PIU) (PIG)
                 (PIG)
       Virtual   (SGU) (SGU) (SGG) (PIU) (PIU) (SGG) (PIG) (PIG)
                 (PIU) (PIU) (DLTG) (DLTG) (DLTU) (DLTU) (SGU)
                 (SGG) (PIG) (PIG) (SGU) (SGG) (PIU) (PIU) (PIU)
                 (PIU) (PIG) (PIG) (DLTG) (DLTG) (SGG) (DLTG) (DLTG)
                 (DLTU) (DLTU) (SGU) (PHIU) (PHIU) (PIG) (PIG)
                 (SGU) (PHIG) (PHIG) (PIU) (PIU) (DLTU) (DLTU)
                 (SGU) (SGG) (SGG) (PIG) (PIG) (SGU) (PIU) (PIU)
                 (DLTG) (DLTG) (SGG) (DLTU) (DLTU) (PIG) (PIG)
                 (DLTG) (DLTG) (SGG) (PIU) (PIU) (PHIU) (PHIU)
                 (?A) (?A) (SGU) (?B) (?B) (PHIG) (PHIG) (DLTU)
                 (DLTU) (SGU) (PHIU) (PHIU) (DLTG) (DLTG) (PIU)
                 (PIU) (SGG) (PIG) (PIG) (PHIG) (PHIG) (PIG) (PIG)
                 (PIU) (PIU) (DLTU) (DLTU) (SGU) (PIG) (PIG) (SGG)
                 (SGU) (SGG) (SGU) (PIU) (PIU) (DLTG) (DLTG) (DLTU)
                 (DLTU) (SGG) (PIG) (PIG) (SGU) (SGG) (SGU) (PIU)
                 (PIU) (PIG) (PIG) (SGG) (SGU) (SGG) (SGU) (SGG)
                 (SGU)
 The electronic state is 1-SGG.
 Alpha  occ. eigenvalues -- -102.70760-102.70760  -9.85966  -9.85957  -7.58614
 Alpha  occ. eigenvalues --   -7.58598  -7.57790  -7.57790  -7.57790  -7.57790
 Alpha  occ. eigenvalues --   -1.02946  -0.86149  -0.52573  -0.47929  -0.47929
 Alpha  occ. eigenvalues --   -0.37143  -0.37143
 Alpha virt. eigenvalues --   -0.07891   0.16372   0.17999   0.19789   0.19789
 Alpha virt. eigenvalues --    0.23671   0.24744   0.24744   0.27380   0.27380
 Alpha virt. eigenvalues --    0.29762   0.29765   0.41341   0.41341   0.44827
 Alpha virt. eigenvalues --    0.49993   0.58128   0.58128   0.70875   1.04522
 Alpha virt. eigenvalues --    1.06338   1.06338   1.09345   1.09345   1.13727
 Alpha virt. eigenvalues --    1.13727   1.15088   1.15098   1.17618   1.18693
 Alpha virt. eigenvalues --    1.18693   1.20812   1.20819   1.23607   1.27599
 Alpha virt. eigenvalues --    1.27599   1.27945   1.27945   1.37192   1.38710
 Alpha virt. eigenvalues --    1.38710   1.43611   1.43611   1.61043   1.61050
 Alpha virt. eigenvalues --    1.78352   1.80995   2.02275   2.04530   2.04530
 Alpha virt. eigenvalues --    2.67802   2.99187   2.99187   3.12519   3.12529
 Alpha virt. eigenvalues --    3.13095   3.22854   3.22865   3.31160   3.31160
 Alpha virt. eigenvalues --    3.32025   3.32030   3.36183   3.38921   3.38921
 Alpha virt. eigenvalues --    3.42774   3.42774   3.53211   3.53219   3.53842
 Alpha virt. eigenvalues --    3.55443   3.55451   3.61915   3.61915   3.76642
 Alpha virt. eigenvalues --    3.76652   3.82348   3.83816   3.83816   3.84252
 Alpha virt. eigenvalues --    3.84263   3.85238   3.85238   3.86082   3.86220
 Alpha virt. eigenvalues --    3.86220   3.90512   3.90512   4.03117   4.03117
 Alpha virt. eigenvalues --    4.16142   4.16142   4.17986   4.17989   4.30406
 Alpha virt. eigenvalues --    4.81030   4.81030   4.95392   5.34117   8.08149
 Alpha virt. eigenvalues --    8.70850  10.59053  10.59053  10.59683  10.59686
 Alpha virt. eigenvalues --   10.64588  10.64590  10.72267  10.78850  10.78850
 Alpha virt. eigenvalues --   11.34884  28.20177  28.79696  41.97990  41.97990
 Alpha virt. eigenvalues --   41.98455  41.98455  42.02192  42.03508  97.99239
 Alpha virt. eigenvalues --   98.55204 523.61159 524.55935
          Condensed to atoms (all electrons):
               1          2
     1  Cl  16.853529   0.146471
     2  Cl   0.146471  16.853529
 Mulliken charges:
               1
     1  Cl  -0.000000
     2  Cl  -0.000000
 Sum of Mulliken charges =  -0.00000
 Mulliken charges with hydrogens summed into heavy atoms:
               1
     1  Cl  -0.000000
     2  Cl  -0.000000
 Electronic spatial extent (au):  <R**2>=            177.0022
 Charge=             -0.0000 electrons
 Dipole moment (field-independent basis, Debye):
    X=             -0.0000    Y=             -0.0000    Z=              0.0000  Tot=              0.0000
 Quadrupole moment (field-independent basis, Debye-Ang):
   XX=            -25.3508   YY=            -25.3508   ZZ=            -22.1461
   XY=             -0.0000   XZ=              0.0000   YZ=              0.0000
 Traceless Quadrupole moment (field-independent basis, Debye-Ang):
   XX=             -1.0682   YY=             -1.0682   ZZ=              2.1364
   XY=             -0.0000   XZ=              0.0000   YZ=              0.0000
 Octapole moment (field-independent basis, Debye-Ang**2):
  XXX=             -0.0000  YYY=             -0.0000  ZZZ=              0.0000  XYY=             -0.0000
  XXY=             -0.0000  XXZ=             -0.0000  XZZ=             -0.0000  YZZ=             -0.0000
  YYZ=              0.0000  XYZ=              0.0000
 Hexadecapole moment (field-independent basis, Debye-Ang**3):
 XXXX=            -28.4476 YYYY=            -28.4476 ZZZZ=           -153.3641 XXXY=             -0.0000
 XXXZ=              0.0000 YYYX=             -0.0000 YYYZ=              0.0000 ZZZX=              0.0000
 ZZZY=              0.0000 XXYY=             -9.4826 XXZZ=            -34.9063 YYZZ=            -34.9063
 XXYZ=              0.0000 YYXZ=              0.0000 ZZXY=             -0.0000
 N-N= 7.602113248318D+01 E-N=-2.340875818596D+03  KE= 9.190874896629D+02
 PrsmSu:  requested number of processors reduced to:  21 ShMem   1 Linda.
 No NMR shielding tensors so no spin-rotation constants.
 Leave Link  601 at Sat Apr 17 07:09:49 2021, MaxMem=   104857600 cpu:             143.4 elap:               3.2
 (Enter /s/ls4/users/knvvv/bin/g16sse/l9999.exe)

 Test job not archived.
 1\1\GINC-N152\Stability\RM062X\def2QZVP\Cl2\KNVVV\17-Apr-2021\0\\#P M0
 62X/Def2QZVP Integral=UltraFineGrid SCF=NoSymm Stable=(RExt, Opt) IOp(
 1/33=1)\\Database calculations.\\0,1\Cl,0,0.,0.,-1.0058533\Cl,0,0.,0.,
 1.0058533\\Version=ES64L-G16RevA.03\State=1-SGG\HF=-920.3909287\RMSD=2
 .284e-09\Dipole=0.,0.,0.\Quadrupole=-0.7941973,-0.7941973,1.5883946,0.
 ,0.,0.\PG=D*H [C*(Cl1.Cl1)]\\@


 MUD THROWN IS GROUND LOST -- FROM A TEA BAG
 Job cpu time:       0 days  3 hours 18 minutes  4.7 seconds.
 Elapsed time:       0 days  0 hours  4 minutes 57.6 seconds.
 File lengths (MBytes):  RWF=    157 Int=      0 D2E=      0 Chk=      8 Scr=      1
 Normal termination of Gaussian 16 at Sat Apr 17 07:09:49 2021.
