 Entering Gaussian System, Link 0=/s/ls4/users/knvvv/bin/g16sse/g16
 Input=data/database/M062X--MG3S--05_H2O_PA8.gjf
 Output=data/database/M062X--MG3S--05_H2O_PA8.log
 Initial command:
 /s/ls4/users/knvvv/bin/g16sse/l1.exe "/s/ls4/users/knvvv/bin/scratch/Gau-1956.inp" -scrdir="/s/ls4/users/knvvv/bin/scratch/"
 Entering Link 1 = /s/ls4/users/knvvv/bin/g16sse/l1.exe PID=      1957.
  
 Copyright (c) 1988,1990,1992,1993,1995,1998,2003,2009,2016,
            Gaussian, Inc.  All Rights Reserved.
  
 This is part of the Gaussian(R) 16 program.  It is based on
 the Gaussian(R) 09 system (copyright 2009, Gaussian, Inc.),
 the Gaussian(R) 03 system (copyright 2003, Gaussian, Inc.),
 the Gaussian(R) 98 system (copyright 1998, Gaussian, Inc.),
 the Gaussian(R) 94 system (copyright 1995, Gaussian, Inc.),
 the Gaussian 92(TM) system (copyright 1992, Gaussian, Inc.),
 the Gaussian 90(TM) system (copyright 1990, Gaussian, Inc.),
 the Gaussian 88(TM) system (copyright 1988, Gaussian, Inc.),
 the Gaussian 86(TM) system (copyright 1986, Carnegie Mellon
 University), and the Gaussian 82(TM) system (copyright 1983,
 Carnegie Mellon University). Gaussian is a federally registered
 trademark of Gaussian, Inc.
  
 This software contains proprietary and confidential information,
 including trade secrets, belonging to Gaussian, Inc.
  
 This software is provided under written license and may be
 used, copied, transmitted, or stored only in accord with that
 written license.
  
 The following legend is applicable only to US Government
 contracts under FAR:
  
                    RESTRICTED RIGHTS LEGEND
  
 Use, reproduction and disclosure by the US Government is
 subject to restrictions as set forth in subparagraphs (a)
 and (c) of the Commercial Computer Software - Restricted
 Rights clause in FAR 52.227-19.
  
 Gaussian, Inc.
 340 Quinnipiac St., Bldg. 40, Wallingford CT 06492
  
  
 ---------------------------------------------------------------
 Warning -- This program may not be used in any manner that
 competes with the business of Gaussian, Inc. or will provide
 assistance to any competitor of Gaussian, Inc.  The licensee
 of this program is prohibited from giving any competitor of
 Gaussian, Inc. access to this program.  By using this program,
 the user acknowledges that Gaussian, Inc. is engaged in the
 business of creating and licensing software in the field of
 computational chemistry and represents and warrants to the
 licensee that it is not a competitor of Gaussian, Inc. and that
 it will not use this program in any manner prohibited above.
 ---------------------------------------------------------------
  

 Cite this work as:
 Gaussian 16, Revision A.03,
 M. J. Frisch, G. W. Trucks, H. B. Schlegel, G. E. Scuseria, 
 M. A. Robb, J. R. Cheeseman, G. Scalmani, V. Barone, 
 G. A. Petersson, H. Nakatsuji, X. Li, M. Caricato, A. V. Marenich, 
 J. Bloino, B. G. Janesko, R. Gomperts, B. Mennucci, H. P. Hratchian, 
 J. V. Ortiz, A. F. Izmaylov, J. L. Sonnenberg, D. Williams-Young, 
 F. Ding, F. Lipparini, F. Egidi, J. Goings, B. Peng, A. Petrone, 
 T. Henderson, D. Ranasinghe, V. G. Zakrzewski, J. Gao, N. Rega, 
 G. Zheng, W. Liang, M. Hada, M. Ehara, K. Toyota, R. Fukuda, 
 J. Hasegawa, M. Ishida, T. Nakajima, Y. Honda, O. Kitao, H. Nakai, 
 T. Vreven, K. Throssell, J. A. Montgomery, Jr., J. E. Peralta, 
 F. Ogliaro, M. J. Bearpark, J. J. Heyd, E. N. Brothers, K. N. Kudin, 
 V. N. Staroverov, T. A. Keith, R. Kobayashi, J. Normand, 
 K. Raghavachari, A. P. Rendell, J. C. Burant, S. S. Iyengar, 
 J. Tomasi, M. Cossi, J. M. Millam, M. Klene, C. Adamo, R. Cammi, 
 J. W. Ochterski, R. L. Martin, K. Morokuma, O. Farkas, 
 J. B. Foresman, and D. J. Fox, Gaussian, Inc., Wallingford CT, 2016.
 
 ******************************************
 Gaussian 16:  ES64L-G16RevA.03 25-Dec-2016
                18-Apr-2021 
 ******************************************
 %RWF=temp12_83514,70GB
 %nprocshared=48
 Will use up to   48 processors via shared memory.
 Default route: MaxDisk=80GB
 ----------------------------------------------------------------------
 #P M062X/GEN Integral=UltraFineGrid SCF=NoSymm Stable=(RExt, Opt) IOp(
 1/33=1)
 ----------------------------------------------------------------------
 1/33=1,38=1,172=1/1;
 2/12=2,17=6,18=5,40=1/2;
 3/5=7,11=2,25=1,30=1,74=-55,75=-5/1,2,3;
 4/9=2/1;
 5/5=2,38=5/2;
 6/7=2,8=2,9=2,10=2,28=1/1;
 8/6=1,10=90,11=11/1;
 9/8=-3,42=1,46=1/14;
 5/5=2,8=3,17=40,38=5/8(-2);
 6/7=2,8=2,9=2,10=2,28=1/1;
 99/5=1,9=1/99;
 Leave Link    1 at Sun Apr 18 08:22:08 2021, MaxMem=           0 cpu:               8.3 elap:               0.2
 (Enter /s/ls4/users/knvvv/bin/g16sse/l101.exe)
 ONIOM data not found on unit 2.
 ----------------------
 Database calculations.
 ----------------------
 TstMul:  ICh=     0
 TstMul:  Mul=     1
 TstMul:  ICh=     0
 TstMul:  Mul=     1
 Symbolic Z-matrix:
 Charge =  0 Multiplicity = 1
 O                     0.        0.        0.11926 
 H                     0.        0.76324  -0.47705 
 H                     0.       -0.76324  -0.47705 
 
 RdStrC is calling ZToCFu for IStruc=1 NZ=     3.
 PrtBox:  NBox=     1 Levels=  1 BoxLen=    8.00 SMaxX=        2.88
          Shift=            0.000000            1.442315            0.901494
 Box      1 Number                   0 centers from      1 to      3:
 After GenITR:
 ITRead=  0  0  0
 MicOpt= -1 -1 -1
 ITRead=  0  0  0
 MicOpt= -1 -1 -1
 NAtoms=      3 NQM=        3 NQMF=       0 NMMI=      0 NMMIF=      0
                NMic=       0 NMicF=      0.
                    Isotopes and Nuclear Properties:
 (Nuclear quadrupole moments (NQMom) in fm**2, nuclear magnetic moments (NMagM)
  in nuclear magnetons)

  Atom         1           2           3
 IAtWgt=          16           1           1
 AtmWgt=  15.9949146   1.0078250   1.0078250
 NucSpn=           0           1           1
 AtZEff=  -0.0000000  -0.0000000  -0.0000000
 NQMom=    0.0000000   0.0000000   0.0000000
 NMagM=    0.0000000   2.7928460   2.7928460
 AtZNuc=   8.0000000   1.0000000   1.0000000
 No MM parameters found.
 Leave Link  101 at Sun Apr 18 08:22:08 2021, MaxMem=   104857600 cpu:               6.9 elap:               0.2
 (Enter /s/ls4/users/knvvv/bin/g16sse/l202.exe)
                          Input orientation:                          
 ---------------------------------------------------------------------
 Center     Atomic      Atomic             Coordinates (Angstroms)
 Number     Number       Type             X           Y           Z
 ---------------------------------------------------------------------
      1          8           0        0.000000    0.000000    0.119260
      2          1           0        0.000000    0.763240   -0.477050
      3          1           0        0.000000   -0.763240   -0.477050
 ---------------------------------------------------------------------
                    Distance matrix (angstroms):
                    1          2          3
     1  O    0.000000
     2  H    0.968566   0.000000
     3  H    0.968566   1.526480   0.000000
 Stoichiometry    H2O
 Framework group  C2V[C2(O),SGV(H2)]
 Deg. of freedom     2
 Full point group                 C2V     NOp   4
 Largest Abelian subgroup         C2V     NOp   4
 Largest concise Abelian subgroup C2      NOp   2
                         Standard orientation:                         
 ---------------------------------------------------------------------
 Center     Atomic      Atomic             Coordinates (Angstroms)
 Number     Number       Type             X           Y           Z
 ---------------------------------------------------------------------
      1          8           0        0.000000   -0.000000    0.119262
      2          1           0        0.000000    0.763240   -0.477048
      3          1           0       -0.000000   -0.763240   -0.477048
 ---------------------------------------------------------------------
 Rotational constants (GHZ):         793.9685126         430.4074848         279.1054310
 Leave Link  202 at Sun Apr 18 08:22:08 2021, MaxMem=   104857600 cpu:               9.0 elap:               0.2
 (Enter /s/ls4/users/knvvv/bin/g16sse/l301.exe)
 General basis read from cards:  (5D, 7F)
 Centers:       2      3
 S 3 1.00
     Exponent=  3.3865000000D+01 Coefficients=  2.5493800000D-02
     Exponent=  5.0947900000D+00 Coefficients=  1.9037300000D-01
     Exponent=  1.1587900000D+00 Coefficients=  8.5216100000D-01
 S 1 1.00
     Exponent=  3.2584000000D-01 Coefficients=  1.0000000000D+00
 S 1 1.00
     Exponent=  1.0274100000D-01 Coefficients=  1.0000000000D+00
 P 1 1.00
     Exponent=  1.5000000000D+00 Coefficients=  1.0000000000D+00
 P 1 1.00
     Exponent=  3.7500000000D-01 Coefficients=  1.0000000000D+00
 ****
 Centers:       1
 S 6 1.00
     Exponent=  8.5885000000D+03 Coefficients=  1.8951500000D-03
     Exponent=  1.2972300000D+03 Coefficients=  1.4385900000D-02
     Exponent=  2.9929600000D+02 Coefficients=  7.0732000000D-02
     Exponent=  8.7377100000D+01 Coefficients=  2.4000100000D-01
     Exponent=  2.5678900000D+01 Coefficients=  5.9479700000D-01
     Exponent=  3.7400400000D+00 Coefficients=  2.8080200000D-01
 S 3 1.00
     Exponent=  4.2117500000D+01 Coefficients=  1.1388900000D-01
     Exponent=  9.6283700000D+00 Coefficients=  9.2081100000D-01
     Exponent=  2.8533200000D+00 Coefficients= -3.2744700000D-03
 S 1 1.00
     Exponent=  9.0566100000D-01 Coefficients=  1.0000000000D+00
 S 1 1.00
     Exponent=  2.5561100000D-01 Coefficients=  1.0000000000D+00
 S 1 1.00
     Exponent=  8.4500000000D-02 Coefficients=  1.0000000000D+00
 P 3 1.00
     Exponent=  4.2117500000D+01 Coefficients=  3.6511400000D-02
     Exponent=  9.6283700000D+00 Coefficients=  2.3715300000D-01
     Exponent=  2.8533200000D+00 Coefficients=  8.1970200000D-01
 P 1 1.00
     Exponent=  9.0566100000D-01 Coefficients=  1.0000000000D+00
 P 1 1.00
     Exponent=  2.5561100000D-01 Coefficients=  1.0000000000D+00
 P 1 1.00
     Exponent=  8.4500000000D-02 Coefficients=  1.0000000000D+00
 D 1 1.00
     Exponent=  2.5840000000D+00 Coefficients=  1.0000000000D+00
 D 1 1.00
     Exponent=  6.4600000000D-01 Coefficients=  1.0000000000D+00
 F 1 1.00
     Exponent=  1.4000000000D+00 Coefficients=  1.0000000000D+00
 ****
 Ernie: Thresh=  0.10000D-02 Tol=  0.10000D-05 Strict=F.
 There are    25 symmetry adapted cartesian basis functions of A1  symmetry.
 There are     5 symmetry adapted cartesian basis functions of A2  symmetry.
 There are    11 symmetry adapted cartesian basis functions of B1  symmetry.
 There are    16 symmetry adapted cartesian basis functions of B2  symmetry.
 There are    22 symmetry adapted basis functions of A1  symmetry.
 There are     5 symmetry adapted basis functions of A2  symmetry.
 There are    10 symmetry adapted basis functions of B1  symmetry.
 There are    15 symmetry adapted basis functions of B2  symmetry.
    52 basis functions,    74 primitive gaussians,    57 cartesian basis functions
     5 alpha electrons        5 beta electrons
       nuclear repulsion energy         9.0882806463 Hartrees.
 IExCor= 4336 DFT=T Ex+Corr=M062X ExCW=0 ScaHFX=  0.540000
 ScaDFX=  1.000000  1.000000  1.000000  1.000000 ScalE2=  1.000000  1.000000
 IRadAn=      5 IRanWt=     -1 IRanGd=            0 ICorTp=0 IEmpDi=  4
 NAtoms=    3 NActive=    3 NUniq=    2 SFac= 2.25D+00 NAtFMM=   60 NAOKFM=F Big=F
 Integral buffers will be    131072 words long.
 Raffenetti 2 integral format.
 Two-electron integral symmetry is turned on.
 Leave Link  301 at Sun Apr 18 08:22:08 2021, MaxMem=   104857600 cpu:               5.3 elap:               0.1
 (Enter /s/ls4/users/knvvv/bin/g16sse/l302.exe)
 NPDir=0 NMtPBC=     1 NCelOv=     1 NCel=       1 NClECP=     1 NCelD=      1
         NCelK=      1 NCelE2=     1 NClLst=     1 CellRange=     0.0.
 One-electron integrals computed using PRISM.
 One-electron integral symmetry used in STVInt
 PrsmSu:  requested number of processors reduced to:  13 ShMem   1 Linda.
 NBasis=    52 RedAO= T EigKep=  2.28D-03  NBF=    22     5    10    15
 NBsUse=    52 1.00D-06 EigRej= -1.00D+00 NBFU=    22     5    10    15
 Precomputing XC quadrature grid using
 IXCGrd= 4 IRadAn=           5 IRanWt=          -1 IRanGd=           0 AccXCQ= 0.00D+00.
 Generated NRdTot=       0 NPtTot=           0 NUsed=           0 NTot=          32
 NSgBfM=    57    57    57    57    57 MxSgAt=     3 MxSgA2=     3.
 Leave Link  302 at Sun Apr 18 08:22:09 2021, MaxMem=   104857600 cpu:              41.3 elap:               0.9
 (Enter /s/ls4/users/knvvv/bin/g16sse/l303.exe)
 DipDrv:  MaxL=1.
 Leave Link  303 at Sun Apr 18 08:22:09 2021, MaxMem=   104857600 cpu:              11.8 elap:               0.3
 (Enter /s/ls4/users/knvvv/bin/g16sse/l401.exe)
 SCF N**3 symmetry information disabled.
 ExpMin= 8.45D-02 ExpMax= 8.59D+03 ExpMxC= 1.30D+03 IAcc=3 IRadAn=         5 AccDes= 0.00D+00
 Harris functional with IExCor= 1009 and IRadAn=       5 diagonalized for initial guess.
 HarFok:  IExCor= 1009 AccDes= 0.00D+00 IRadAn=         5 IDoV= 1 UseB2=F ITyADJ=14
 ICtDFT=  3500011 ScaDFX=  1.000000  1.000000  1.000000  1.000000
 FoFCou: FMM=F IPFlag=           0 FMFlag=      100000 FMFlg1=           0
         NFxFlg=           0 DoJE=T BraDBF=F KetDBF=T FulRan=T
         wScrn=  0.000000 ICntrl=       500 IOpCl=  0 I1Cent=   200000004 NGrid=           0
         NMat0=    1 NMatS0=      1 NMatT0=    0 NMatD0=    1 NMtDS0=    0 NMtDT0=    0
 Petite list used in FoFCou.
 Harris En= -76.4184831581964    
 JPrj=0 DoOrth=F DoCkMO=F.
 Initial guess orbital symmetries:
       Occupied  (A1) (A1) (B2) (A1) (B1)
       Virtual   (A1) (B2) (A1) (B1) (B2) (A1) (B2) (A1) (A1) (A2)
                 (B1) (B2) (A1) (B1) (B2) (A1) (B2) (A1) (B1) (A2)
                 (A1) (B2) (A1) (A1) (B2) (A2) (B2) (B1) (A1) (B2)
                 (A1) (B1) (B1) (A1) (B2) (A1) (B1) (A2) (B2) (B1)
                 (A2) (A1) (A1) (A1) (B2) (B2) (A1)
 The electronic state of the initial guess is 1-A1.
 Leave Link  401 at Sun Apr 18 08:22:11 2021, MaxMem=   104857600 cpu:              64.3 elap:               1.4
 (Enter /s/ls4/users/knvvv/bin/g16sse/l502.exe)
 Keep R1 ints in memory in symmetry-blocked form, NReq=43213819.
 FoFCou: FMM=F IPFlag=           0 FMFlag=           0 FMFlg1=           0
         NFxFlg=           0 DoJE=F BraDBF=F KetDBF=F FulRan=T
         wScrn=  0.000000 ICntrl=       600 IOpCl=  0 I1Cent=           0 NGrid=           0
         NMat0=    1 NMatS0=   1378 NMatT0=    0 NMatD0=    1 NMtDS0=    0 NMtDT0=    0
 Petite list used in FoFCou.
 Closed shell SCF:
 Using DIIS extrapolation, IDIIS=  1040.
 NGot=   104857600 LenX=   104594690 LenY=   104591000
 Requested convergence on RMS density matrix=1.00D-08 within 128 cycles.
 Requested convergence on MAX density matrix=1.00D-06.
 Requested convergence on             energy=1.00D-06.
 No special actions if energy rises.
 Integral accuracy reduced to 1.0D-05 until final iterations.

 Cycle   1  Pass 0  IDiag  1:
 E= -76.3494112256829    
 DIIS: error= 5.98D-02 at cycle   1 NSaved=   1.
 NSaved= 1 IEnMin= 1 EnMin= -76.3494112256829     IErMin= 1 ErrMin= 5.98D-02
 ErrMax= 5.98D-02  0.00D+00 EMaxC= 1.00D-01 BMatC= 1.20D-01 BMatP= 1.20D-01
 IDIUse=3 WtCom= 4.02D-01 WtEn= 5.98D-01
 Coeff-Com:  0.100D+01
 Coeff-En:   0.100D+01
 Coeff:      0.100D+01
 Gap=     0.326 Goal=   None    Shift=    0.000
 GapD=    0.326 DampG=1.000 DampE=0.500 DampFc=0.5000 IDamp=-1.
 Damping current iteration by 5.00D-01
 RMSDP=6.63D-03 MaxDP=1.11D-01              OVMax= 1.69D-01

 Cycle   2  Pass 0  IDiag  1:
 E= -76.3804492105513     Delta-E=       -0.031037984868 Rises=F Damp=T
 DIIS: error= 1.41D-02 at cycle   2 NSaved=   2.
 NSaved= 2 IEnMin= 2 EnMin= -76.3804492105513     IErMin= 2 ErrMin= 1.41D-02
 ErrMax= 1.41D-02  0.00D+00 EMaxC= 1.00D-01 BMatC= 5.10D-03 BMatP= 1.20D-01
 IDIUse=3 WtCom= 8.59D-01 WtEn= 1.41D-01
 Coeff-Com:  0.857D-01 0.914D+00
 Coeff-En:   0.194D+00 0.806D+00
 Coeff:      0.101D+00 0.899D+00
 Gap=     0.459 Goal=   None    Shift=    0.000
 RMSDP=7.73D-04 MaxDP=1.39D-02 DE=-3.10D-02 OVMax= 1.01D-01

 Cycle   3  Pass 0  IDiag  1:
 E= -76.4245616547944     Delta-E=       -0.044112444243 Rises=F Damp=F
 DIIS: error= 1.75D-03 at cycle   3 NSaved=   3.
 NSaved= 3 IEnMin= 3 EnMin= -76.4245616547944     IErMin= 3 ErrMin= 1.75D-03
 ErrMax= 1.75D-03  0.00D+00 EMaxC= 1.00D-01 BMatC= 7.10D-05 BMatP= 5.10D-03
 IDIUse=3 WtCom= 9.82D-01 WtEn= 1.75D-02
 Coeff-Com: -0.182D-01 0.275D-01 0.991D+00
 Coeff-En:   0.000D+00 0.000D+00 0.100D+01
 Coeff:     -0.179D-01 0.270D-01 0.991D+00
 Gap=     0.463 Goal=   None    Shift=    0.000
 RMSDP=7.44D-05 MaxDP=1.04D-03 DE=-4.41D-02 OVMax= 3.13D-03

 Cycle   4  Pass 0  IDiag  1:
 E= -76.4246247681076     Delta-E=       -0.000063113313 Rises=F Damp=F
 DIIS: error= 4.12D-04 at cycle   4 NSaved=   4.
 NSaved= 4 IEnMin= 4 EnMin= -76.4246247681076     IErMin= 4 ErrMin= 4.12D-04
 ErrMax= 4.12D-04  0.00D+00 EMaxC= 1.00D-01 BMatC= 2.88D-06 BMatP= 7.10D-05
 IDIUse=3 WtCom= 9.96D-01 WtEn= 4.12D-03
 Coeff-Com: -0.891D-03-0.416D-02 0.136D+00 0.869D+00
 Coeff-En:   0.000D+00 0.000D+00 0.000D+00 0.100D+01
 Coeff:     -0.887D-03-0.414D-02 0.135D+00 0.870D+00
 Gap=     0.464 Goal=   None    Shift=    0.000
 RMSDP=1.73D-05 MaxDP=3.44D-04 DE=-6.31D-05 OVMax= 5.57D-04

 Cycle   5  Pass 0  IDiag  1:
 E= -76.4246266682853     Delta-E=       -0.000001900178 Rises=F Damp=F
 DIIS: error= 6.72D-05 at cycle   5 NSaved=   5.
 NSaved= 5 IEnMin= 5 EnMin= -76.4246266682853     IErMin= 5 ErrMin= 6.72D-05
 ErrMax= 6.72D-05  0.00D+00 EMaxC= 1.00D-01 BMatC= 7.91D-08 BMatP= 2.88D-06
 IDIUse=1 WtCom= 1.00D+00 WtEn= 0.00D+00
 Coeff-Com:  0.108D-02-0.162D-02-0.370D-01-0.314D-01 0.107D+01
 Coeff:      0.108D-02-0.162D-02-0.370D-01-0.314D-01 0.107D+01
 Gap=     0.464 Goal=   None    Shift=    0.000
 RMSDP=6.62D-06 MaxDP=9.02D-05 DE=-1.90D-06 OVMax= 2.04D-04

 Initial convergence to 1.0D-05 achieved.  Increase integral accuracy.
 Cycle   6  Pass 1  IDiag  1:
 E= -76.4246450533502     Delta-E=       -0.000018385065 Rises=F Damp=F
 DIIS: error= 4.28D-05 at cycle   1 NSaved=   1.
 NSaved= 1 IEnMin= 1 EnMin= -76.4246450533502     IErMin= 1 ErrMin= 4.28D-05
 ErrMax= 4.28D-05  0.00D+00 EMaxC= 1.00D-01 BMatC= 5.74D-08 BMatP= 5.74D-08
 IDIUse=1 WtCom= 1.00D+00 WtEn= 0.00D+00
 Coeff-Com:  0.100D+01
 Coeff:      0.100D+01
 Gap=     0.464 Goal=   None    Shift=    0.000
 RMSDP=6.62D-06 MaxDP=9.02D-05 DE=-1.84D-05 OVMax= 4.86D-05

 Cycle   7  Pass 1  IDiag  1:
 E= -76.4246450828928     Delta-E=       -0.000000029543 Rises=F Damp=F
 DIIS: error= 8.81D-06 at cycle   2 NSaved=   2.
 NSaved= 2 IEnMin= 2 EnMin= -76.4246450828928     IErMin= 2 ErrMin= 8.81D-06
 ErrMax= 8.81D-06  0.00D+00 EMaxC= 1.00D-01 BMatC= 1.20D-09 BMatP= 5.74D-08
 IDIUse=1 WtCom= 1.00D+00 WtEn= 0.00D+00
 Coeff-Com: -0.106D-01 0.101D+01
 Coeff:     -0.106D-01 0.101D+01
 Gap=     0.464 Goal=   None    Shift=    0.000
 RMSDP=5.71D-07 MaxDP=1.28D-05 DE=-2.95D-08 OVMax= 2.14D-05

 Cycle   8  Pass 1  IDiag  1:
 E= -76.4246450829563     Delta-E=       -0.000000000063 Rises=F Damp=F
 DIIS: error= 6.50D-06 at cycle   3 NSaved=   3.
 NSaved= 3 IEnMin= 3 EnMin= -76.4246450829563     IErMin= 3 ErrMin= 6.50D-06
 ErrMax= 6.50D-06  0.00D+00 EMaxC= 1.00D-01 BMatC= 1.34D-09 BMatP= 1.20D-09
 IDIUse=1 WtCom= 1.00D+00 WtEn= 0.00D+00
 Coeff-Com: -0.273D-01 0.532D+00 0.496D+00
 Coeff:     -0.273D-01 0.532D+00 0.496D+00
 Gap=     0.464 Goal=   None    Shift=    0.000
 RMSDP=3.20D-07 MaxDP=5.89D-06 DE=-6.35D-11 OVMax= 8.87D-06

 Cycle   9  Pass 1  IDiag  1:
 E= -76.4246450838187     Delta-E=       -0.000000000862 Rises=F Damp=F
 DIIS: error= 7.11D-07 at cycle   4 NSaved=   4.
 NSaved= 4 IEnMin= 4 EnMin= -76.4246450838187     IErMin= 4 ErrMin= 7.11D-07
 ErrMax= 7.11D-07  0.00D+00 EMaxC= 1.00D-01 BMatC= 6.21D-12 BMatP= 1.20D-09
 IDIUse=1 WtCom= 1.00D+00 WtEn= 0.00D+00
 Coeff-Com:  0.127D-02-0.635D-01-0.216D-02 0.106D+01
 Coeff:      0.127D-02-0.635D-01-0.216D-02 0.106D+01
 Gap=     0.464 Goal=   None    Shift=    0.000
 RMSDP=4.52D-08 MaxDP=6.81D-07 DE=-8.62D-10 OVMax= 1.83D-06

 Cycle  10  Pass 1  IDiag  1:
 E= -76.4246450838277     Delta-E=       -0.000000000009 Rises=F Damp=F
 DIIS: error= 8.78D-08 at cycle   5 NSaved=   5.
 NSaved= 5 IEnMin= 5 EnMin= -76.4246450838277     IErMin= 5 ErrMin= 8.78D-08
 ErrMax= 8.78D-08  0.00D+00 EMaxC= 1.00D-01 BMatC= 2.52D-13 BMatP= 6.21D-12
 IDIUse=1 WtCom= 1.00D+00 WtEn= 0.00D+00
 Coeff-Com:  0.136D-02-0.303D-01-0.259D-01 0.926D-01 0.962D+00
 Coeff:      0.136D-02-0.303D-01-0.259D-01 0.926D-01 0.962D+00
 Gap=     0.464 Goal=   None    Shift=    0.000
 RMSDP=1.15D-08 MaxDP=1.76D-07 DE=-9.07D-12 OVMax= 3.52D-07

 Cycle  11  Pass 1  IDiag  1:
 E= -76.4246450838279     Delta-E=       -0.000000000000 Rises=F Damp=F
 DIIS: error= 1.25D-08 at cycle   6 NSaved=   6.
 NSaved= 6 IEnMin= 6 EnMin= -76.4246450838279     IErMin= 6 ErrMin= 1.25D-08
 ErrMax= 1.25D-08  0.00D+00 EMaxC= 1.00D-01 BMatC= 5.30D-15 BMatP= 2.52D-13
 IDIUse=1 WtCom= 1.00D+00 WtEn= 0.00D+00
 Coeff-Com:  0.360D-04 0.111D-02-0.141D-02-0.358D-01 0.323D-01 0.100D+01
 Coeff:      0.360D-04 0.111D-02-0.141D-02-0.358D-01 0.323D-01 0.100D+01
 Gap=     0.464 Goal=   None    Shift=    0.000
 RMSDP=1.69D-09 MaxDP=2.12D-08 DE=-1.99D-13 OVMax= 6.49D-08

 SCF Done:  E(RM062X) =  -76.4246450838     A.U. after   11 cycles
            NFock= 11  Conv=0.17D-08     -V/T= 2.0031
 KE= 7.618472987003D+01 PE=-1.990247554893D+02 EE= 3.732709988907D+01
 Leave Link  502 at Sun Apr 18 08:22:21 2021, MaxMem=   104857600 cpu:             456.6 elap:               9.8
 (Enter /s/ls4/users/knvvv/bin/g16sse/l601.exe)
 Copying SCF densities to generalized density rwf, IOpCl= 0 IROHF=0.

 **********************************************************************

            Population analysis using the SCF density.

 **********************************************************************

 Orbital symmetries:
       Occupied  (A1) (A1) (B2) (A1) (B1)
       Virtual   (A1) (B2) (A1) (B1) (B2) (A1) (B2) (A1) (A1) (A2)
                 (B1) (B2) (A1) (B2) (B1) (A1) (B2) (A1) (B1) (A2)
                 (A1) (B2) (A1) (A1) (B2) (A2) (B2) (B1) (A1) (B2)
                 (A1) (B1) (B1) (A1) (B2) (A1) (B1) (A2) (B2) (B1)
                 (A2) (A1) (A1) (B2) (A1) (B2) (A1)
 The electronic state is 1-A1.
 Alpha  occ. eigenvalues --  -19.62676  -1.13226  -0.60540  -0.47566  -0.40139
 Alpha virt. eigenvalues --    0.06279   0.13104   0.17070   0.17842   0.18894
 Alpha virt. eigenvalues --    0.23407   0.50304   0.51880   0.63914   0.70303
 Alpha virt. eigenvalues --    0.77927   0.85896   0.90369   1.03020   1.08446
 Alpha virt. eigenvalues --    1.26649   1.39459   1.41626   1.81345   1.82922
 Alpha virt. eigenvalues --    1.93136   2.18656   2.26728   2.38439   2.79438
 Alpha virt. eigenvalues --    3.59188   3.63433   3.64661   3.85354   4.05634
 Alpha virt. eigenvalues --    4.18223   5.01954   5.08833   5.14925   5.23587
 Alpha virt. eigenvalues --    5.39128   5.46946   5.59649   5.69535   6.87264
 Alpha virt. eigenvalues --    6.90170   6.92162   7.01670   7.26336   7.26854
 Alpha virt. eigenvalues --    7.51594  49.97989
          Condensed to atoms (all electrons):
               1          2          3
     1  O    7.940764   0.267543   0.267543
     2  H    0.267543   0.499792  -0.005260
     3  H    0.267543  -0.005260   0.499792
 Mulliken charges:
               1
     1  O   -0.475849
     2  H    0.237925
     3  H    0.237925
 Sum of Mulliken charges =   0.00000
 Mulliken charges with hydrogens summed into heavy atoms:
               1
     1  O    0.000000
 Electronic spatial extent (au):  <R**2>=             19.9217
 Charge=              0.0000 electrons
 Dipole moment (field-independent basis, Debye):
    X=             -0.0000    Y=             -0.0000    Z=             -2.0025  Tot=              2.0025
 Quadrupole moment (field-independent basis, Debye-Ang):
   XX=             -7.7064   YY=             -4.3855   ZZ=             -6.3747
   XY=              0.0000   XZ=              0.0000   YZ=             -0.0000
 Traceless Quadrupole moment (field-independent basis, Debye-Ang):
   XX=             -1.5509   YY=              1.7700   ZZ=             -0.2192
   XY=              0.0000   XZ=              0.0000   YZ=             -0.0000
 Octapole moment (field-independent basis, Debye-Ang**2):
  XXX=              0.0000  YYY=             -0.0000  ZZZ=             -1.2443  XYY=             -0.0000
  XXY=              0.0000  XXZ=             -0.3257  XZZ=              0.0000  YZZ=              0.0000
  YYZ=             -1.4074  XYZ=             -0.0000
 Hexadecapole moment (field-independent basis, Debye-Ang**3):
 XXXX=             -7.0671 YYYY=             -6.3507 ZZZZ=             -7.6911 XXXY=             -0.0000
 XXXZ=             -0.0000 YYYX=             -0.0000 YYYZ=              0.0000 ZZZX=             -0.0000
 ZZZY=              0.0000 XXYY=             -2.5691 XXZZ=             -2.5199 YYZZ=             -1.9766
 XXYZ=             -0.0000 YYXZ=              0.0000 ZZXY=             -0.0000
 N-N= 9.088280646335D+00 E-N=-1.990247553603D+02  KE= 7.618472987003D+01
 No NMR shielding tensors so no spin-rotation constants.
 Leave Link  601 at Sun Apr 18 08:22:21 2021, MaxMem=   104857600 cpu:              39.7 elap:               0.9
 (Enter /s/ls4/users/knvvv/bin/g16sse/l801.exe)
 DoSCS=F DFT=T ScalE2(SS,OS)=  1.000000  1.000000
 Range of M.O.s used for correlation:     1    52
 NBasis=    52 NAE=     5 NBE=     5 NFC=     0 NFV=     0
 NROrb=     52 NOA=     5 NOB=     5 NVA=    47 NVB=    47

 **** Warning!!: The largest alpha MO coefficient is  0.10098739D+02

 Leave Link  801 at Sun Apr 18 08:22:22 2021, MaxMem=   104857600 cpu:               3.1 elap:               0.1
 (Enter /s/ls4/users/knvvv/bin/g16sse/l914.exe)
 RHF ground state
 Doing stability rather than CIS.
 Keep R1 and R2 ints in memory in symmetry-blocked form, NReq=62400095.
 FoFCou: FMM=F IPFlag=           0 FMFlag=           0 FMFlg1=           0
         NFxFlg=           0 DoJE=F BraDBF=F KetDBF=F FulRan=T
         wScrn=  0.000000 ICntrl=       600 IOpCl=  0 I1Cent=           0 NGrid=           0
         NMat0=    1 NMatS0=   1378 NMatT0=    0 NMatD0=    1 NMtDS0=    0 NMtDT0=    0
 Petite list used in FoFCou.
 MDV=   104857600 DFT=T DoStab=T Mixed=T DoRPA=F DoScal=F NonHer=F
 Making orbital integer symmetry assigments:
 Orbital symmetries:
       Occupied  (A1) (A1) (B2) (A1) (B1)
       Virtual   (A1) (B2) (A1) (B1) (B2) (A1) (B2) (A1) (A1) (A2)
                 (B1) (B2) (A1) (B2) (B1) (A1) (B2) (A1) (B1) (A2)
                 (A1) (B2) (A1) (A1) (B2) (A2) (B2) (B1) (A1) (B2)
                 (A1) (B1) (B1) (A1) (B2) (A1) (B1) (A2) (B2) (B1)
                 (A2) (A1) (A1) (B2) (A1) (B2) (A1)
    24 initial guesses have been made.
 Convergence on wavefunction:    0.001000000000000
 Davidson Disk Diagonalization:  ConvIn= 1.00D-03 SkipCon=T Conv= 1.00D-03.
 Max sub-space:   940 roots to seek:    24 dimension of matrix:          470
 Iteration     1 Dimension    24 NMult     0 NNew     24
 CISAX will form    24 AO SS matrices at one time.
 NMat=    24 NSing=    12 JSym2X= 2.
 New state      1 was old state      2
 Excitation Energies [eV] at current iteration:
 Root      1 :     8.000254207844138
 Root      2 :     8.713693614666944
 Root      3 :    10.158921237439750
 Root      4 :    10.175280743195290
 Root      5 :    10.385386918889950
 Root      6 :    11.010721255328450
 Root      7 :    12.039820199350610
 Root      8 :    12.060874875541280
 Root      9 :    12.168846051115630
 Root     10 :    12.226309761649660
 Root     11 :    12.650162967441750
 Root     12 :    12.831810837194520
 Root     13 :    12.913825319320310
 Root     14 :    13.159305710565670
 Root     15 :    13.388989785488830
 Root     16 :    13.777595567671530
 Root     17 :    13.930073132335860
 Root     18 :    14.260835283813350
 Root     19 :    14.333198603683480
 Root     20 :    14.353839948389560
 Root     21 :    14.491171419959510
 Root     22 :    14.769138891420540
 Root     23 :    15.530798312940310
 Root     24 :    18.814360485747670
 Iteration     2 Dimension    48 NMult    24 NNew     24
 CISAX will form    24 AO SS matrices at one time.
 NMat=    24 NSing=    12 JSym2X= 2.
 Root      1 not converged, maximum delta is    0.119714474332757
 Excitation Energies [eV] at current iteration:
 Root      1 :     7.458942461057632   Change is   -0.541311746786507
 Root      2 :     8.553181291503362   Change is   -0.160512323163581
 Root      3 :     9.459282547782461   Change is   -0.715998195412833
 Root      4 :     9.506308982208063   Change is   -0.652612255231688
 Root      5 :    10.126461949540030   Change is   -0.258924969349918
 Root      6 :    10.789331685684580   Change is   -0.221389569643865
 Root      7 :    11.073190006160310   Change is   -1.153119755489354
 Root      8 :    11.387980240757260   Change is   -0.780865810358369
 Root      9 :    11.743872018240520   Change is   -0.295948181110093
 Root     10 :    11.962853263848560   Change is   -0.098021611692726
 Root     11 :    12.553880754414510   Change is   -0.096282213027241
 Root     12 :    12.598665327433890   Change is   -0.560640383131779
 Root     13 :    12.661876469746950   Change is   -0.251948849573358
 Root     14 :    12.690745550062790   Change is   -0.141065287131732
 Root     15 :    12.752358456376300   Change is   -0.636631329112528
 Root     16 :    13.475512217163210   Change is   -0.302083350508311
 Root     17 :    13.554377813183730   Change is   -0.706457470629624
 Root     18 :    13.816275268134620   Change is   -0.113797864201239
 Root     19 :    14.114917497694860   Change is   -0.218281105988622
 Root     20 :    14.230169701901360   Change is   -0.123670246488207
 Root     21 :    14.326197443713480   Change is   -0.164973976246032
 Root     22 :    14.458860307058400   Change is   -0.310278584362138
 Root     23 :    14.769935021370290   Change is   -4.044425464377374
 Root     24 :    15.119876555008830   Change is   -0.410921757931476
 Iteration     3 Dimension    54 NMult    48 NNew      6
 CISAX will form     6 AO SS matrices at one time.
 NMat=     6 NSing=     3 JSym2X= 2.
 Root      1 not converged, maximum delta is    0.001990234154487
 Excitation Energies [eV] at current iteration:
 Root      1 :     7.457015490806469   Change is   -0.001926970251162
 Root      2 :     8.547439185555655   Change is   -0.005742105947709
 Root      3 :     9.386127583804569   Change is   -0.073154963977891
 Root      4 :     9.498374764930293   Change is   -0.007934217277770
 Root      5 :    10.123641450660050   Change is   -0.002820498879982
 Root      6 :    10.770954124231130   Change is   -0.018377561453457
 Iteration     4 Dimension    60 NMult    54 NNew      6
 CISAX will form     6 AO SS matrices at one time.
 NMat=     6 NSing=     3 JSym2X= 2.
 Root      1 has converged.
 Excitation Energies [eV] at current iteration:
 Root      1 :     7.457006473822941   Change is   -0.000009016983528
 Root      2 :     8.547404188169818   Change is   -0.000034997385837
 Root      3 :     9.374511251483044   Change is   -0.011616332321526
 Root      4 :     9.498195494592883   Change is   -0.000179270337410
 Root      5 :    10.123598638912640   Change is   -0.000042811747411
 Root      6 :    10.768963743946160   Change is   -0.001990380284968
 Convergence achieved on expansion vectors.
 ***********************************************************************
 Stability analysis using <AA,BB:AA,BB> singles matrix:
 ***********************************************************************
 1PDM for each excited state written to RWF  633
 Ground to excited state transition densities written to RWF  633

 Eigenvectors of the stability matrix:
 
 Eigenvector   1:      Triplet-B1   Eigenvalue= 0.2740399  <S**2>=2.000
       5 ->  6         0.69238
       5 -> 13         0.11889
 The wavefunction is stable under the perturbations considered.
 Leave Link  914 at Sun Apr 18 08:22:29 2021, MaxMem=   104857600 cpu:             353.9 elap:               7.6
 (Enter /s/ls4/users/knvvv/bin/g16sse/l508.exe)
 The wavefunction is already stable.
 Leave Link  508 at Sun Apr 18 08:22:29 2021, MaxMem=   104857600 cpu:               2.2 elap:               0.1
 (Enter /s/ls4/users/knvvv/bin/g16sse/l601.exe)
 Copying SCF densities to generalized density rwf, IOpCl= 0 IROHF=0.

 **********************************************************************

            Population analysis using the SCF density.

 **********************************************************************

 Orbital symmetries:
       Occupied  (A1) (A1) (B2) (A1) (B1)
       Virtual   (A1) (B2) (A1) (B1) (B2) (A1) (B2) (A1) (A1) (A2)
                 (B1) (B2) (A1) (B2) (B1) (A1) (B2) (A1) (B1) (A2)
                 (A1) (B2) (A1) (A1) (B2) (A2) (B2) (B1) (A1) (B2)
                 (A1) (B1) (B1) (A1) (B2) (A1) (B1) (A2) (B2) (B1)
                 (A2) (A1) (A1) (B2) (A1) (B2) (A1)
 The electronic state is 1-A1.
 Alpha  occ. eigenvalues --  -19.62676  -1.13226  -0.60540  -0.47566  -0.40139
 Alpha virt. eigenvalues --    0.06279   0.13104   0.17070   0.17842   0.18894
 Alpha virt. eigenvalues --    0.23407   0.50304   0.51880   0.63914   0.70303
 Alpha virt. eigenvalues --    0.77927   0.85896   0.90369   1.03020   1.08446
 Alpha virt. eigenvalues --    1.26649   1.39459   1.41626   1.81345   1.82922
 Alpha virt. eigenvalues --    1.93136   2.18656   2.26728   2.38439   2.79438
 Alpha virt. eigenvalues --    3.59188   3.63433   3.64661   3.85354   4.05634
 Alpha virt. eigenvalues --    4.18223   5.01954   5.08833   5.14925   5.23587
 Alpha virt. eigenvalues --    5.39128   5.46946   5.59649   5.69535   6.87264
 Alpha virt. eigenvalues --    6.90170   6.92162   7.01670   7.26336   7.26854
 Alpha virt. eigenvalues --    7.51594  49.97989
          Condensed to atoms (all electrons):
               1          2          3
     1  O    7.940764   0.267543   0.267543
     2  H    0.267543   0.499792  -0.005260
     3  H    0.267543  -0.005260   0.499792
 Mulliken charges:
               1
     1  O   -0.475849
     2  H    0.237925
     3  H    0.237925
 Sum of Mulliken charges =   0.00000
 Mulliken charges with hydrogens summed into heavy atoms:
               1
     1  O    0.000000
 Electronic spatial extent (au):  <R**2>=             19.9217
 Charge=              0.0000 electrons
 Dipole moment (field-independent basis, Debye):
    X=             -0.0000    Y=             -0.0000    Z=             -2.0025  Tot=              2.0025
 Quadrupole moment (field-independent basis, Debye-Ang):
   XX=             -7.7064   YY=             -4.3855   ZZ=             -6.3747
   XY=              0.0000   XZ=              0.0000   YZ=             -0.0000
 Traceless Quadrupole moment (field-independent basis, Debye-Ang):
   XX=             -1.5509   YY=              1.7700   ZZ=             -0.2192
   XY=              0.0000   XZ=              0.0000   YZ=             -0.0000
 Octapole moment (field-independent basis, Debye-Ang**2):
  XXX=              0.0000  YYY=             -0.0000  ZZZ=             -1.2443  XYY=             -0.0000
  XXY=              0.0000  XXZ=             -0.3257  XZZ=              0.0000  YZZ=              0.0000
  YYZ=             -1.4074  XYZ=             -0.0000
 Hexadecapole moment (field-independent basis, Debye-Ang**3):
 XXXX=             -7.0671 YYYY=             -6.3507 ZZZZ=             -7.6911 XXXY=             -0.0000
 XXXZ=             -0.0000 YYYX=             -0.0000 YYYZ=              0.0000 ZZZX=             -0.0000
 ZZZY=              0.0000 XXYY=             -2.5691 XXZZ=             -2.5199 YYZZ=             -1.9766
 XXYZ=             -0.0000 YYXZ=              0.0000 ZZXY=             -0.0000
 N-N= 9.088280646335D+00 E-N=-1.990247553603D+02  KE= 7.618472987003D+01
 No NMR shielding tensors so no spin-rotation constants.
 Leave Link  601 at Sun Apr 18 08:22:30 2021, MaxMem=   104857600 cpu:              46.5 elap:               1.0
 (Enter /s/ls4/users/knvvv/bin/g16sse/l9999.exe)

 Test job not archived.
 1\1\GINC-N178\Stability\RM062X\Gen\H2O1\KNVVV\18-Apr-2021\0\\#P M062X/
 GEN Integral=UltraFineGrid SCF=NoSymm Stable=(RExt, Opt) IOp(1/33=1)\\
 Database calculations.\\0,1\O,0,0.,0.,0.11926\H,0,0.,0.76324,-0.47705\
 H,0,0.,-0.76324,-0.47705\\Version=ES64L-G16RevA.03\State=1-A1\HF=-76.4
 246451\RMSD=1.686e-09\Dipole=0.,0.,-0.7878612\Quadrupole=-1.1530347,1.
 3159797,-0.162945,0.,0.,0.\PG=C02V [C2(O1),SGV(H2)]\\@


 SOME THINGS ARE EASY, THEY ARE ONLY HARD TO DO.
            -- A. EINSTEIN TO J. O. HIRSCHFELDER
 THE ONLY TROUBLE WITH A SURE THING IS THE UNCERTAINTY.
     -- FROM A TEABAG (BELONGING TO W.H.?)
 Job cpu time:       0 days  0 hours 17 minutes 34.3 seconds.
 Elapsed time:       0 days  0 hours  0 minutes 22.8 seconds.
 File lengths (MBytes):  RWF=     15 Int=      0 D2E=      0 Chk=      2 Scr=      1
 Normal termination of Gaussian 16 at Sun Apr 18 08:22:30 2021.
