 Entering Gaussian System, Link 0=/s/ls4/users/knvvv/bin/g16sse/g16
 Input=data/database/M062X--MG3S--MN_52_hf2ts_BH76.gjf
 Output=data/database/M062X--MG3S--MN_52_hf2ts_BH76.log
 Initial command:
 /s/ls4/users/knvvv/bin/g16sse/l1.exe "/s/ls4/users/knvvv/bin/scratch/Gau-26592.inp" -scrdir="/s/ls4/users/knvvv/bin/scratch/"
 Entering Link 1 = /s/ls4/users/knvvv/bin/g16sse/l1.exe PID=     26593.
  
 Copyright (c) 1988,1990,1992,1993,1995,1998,2003,2009,2016,
            Gaussian, Inc.  All Rights Reserved.
  
 This is part of the Gaussian(R) 16 program.  It is based on
 the Gaussian(R) 09 system (copyright 2009, Gaussian, Inc.),
 the Gaussian(R) 03 system (copyright 2003, Gaussian, Inc.),
 the Gaussian(R) 98 system (copyright 1998, Gaussian, Inc.),
 the Gaussian(R) 94 system (copyright 1995, Gaussian, Inc.),
 the Gaussian 92(TM) system (copyright 1992, Gaussian, Inc.),
 the Gaussian 90(TM) system (copyright 1990, Gaussian, Inc.),
 the Gaussian 88(TM) system (copyright 1988, Gaussian, Inc.),
 the Gaussian 86(TM) system (copyright 1986, Carnegie Mellon
 University), and the Gaussian 82(TM) system (copyright 1983,
 Carnegie Mellon University). Gaussian is a federally registered
 trademark of Gaussian, Inc.
  
 This software contains proprietary and confidential information,
 including trade secrets, belonging to Gaussian, Inc.
  
 This software is provided under written license and may be
 used, copied, transmitted, or stored only in accord with that
 written license.
  
 The following legend is applicable only to US Government
 contracts under FAR:
  
                    RESTRICTED RIGHTS LEGEND
  
 Use, reproduction and disclosure by the US Government is
 subject to restrictions as set forth in subparagraphs (a)
 and (c) of the Commercial Computer Software - Restricted
 Rights clause in FAR 52.227-19.
  
 Gaussian, Inc.
 340 Quinnipiac St., Bldg. 40, Wallingford CT 06492
  
  
 ---------------------------------------------------------------
 Warning -- This program may not be used in any manner that
 competes with the business of Gaussian, Inc. or will provide
 assistance to any competitor of Gaussian, Inc.  The licensee
 of this program is prohibited from giving any competitor of
 Gaussian, Inc. access to this program.  By using this program,
 the user acknowledges that Gaussian, Inc. is engaged in the
 business of creating and licensing software in the field of
 computational chemistry and represents and warrants to the
 licensee that it is not a competitor of Gaussian, Inc. and that
 it will not use this program in any manner prohibited above.
 ---------------------------------------------------------------
  

 Cite this work as:
 Gaussian 16, Revision A.03,
 M. J. Frisch, G. W. Trucks, H. B. Schlegel, G. E. Scuseria, 
 M. A. Robb, J. R. Cheeseman, G. Scalmani, V. Barone, 
 G. A. Petersson, H. Nakatsuji, X. Li, M. Caricato, A. V. Marenich, 
 J. Bloino, B. G. Janesko, R. Gomperts, B. Mennucci, H. P. Hratchian, 
 J. V. Ortiz, A. F. Izmaylov, J. L. Sonnenberg, D. Williams-Young, 
 F. Ding, F. Lipparini, F. Egidi, J. Goings, B. Peng, A. Petrone, 
 T. Henderson, D. Ranasinghe, V. G. Zakrzewski, J. Gao, N. Rega, 
 G. Zheng, W. Liang, M. Hada, M. Ehara, K. Toyota, R. Fukuda, 
 J. Hasegawa, M. Ishida, T. Nakajima, Y. Honda, O. Kitao, H. Nakai, 
 T. Vreven, K. Throssell, J. A. Montgomery, Jr., J. E. Peralta, 
 F. Ogliaro, M. J. Bearpark, J. J. Heyd, E. N. Brothers, K. N. Kudin, 
 V. N. Staroverov, T. A. Keith, R. Kobayashi, J. Normand, 
 K. Raghavachari, A. P. Rendell, J. C. Burant, S. S. Iyengar, 
 J. Tomasi, M. Cossi, J. M. Millam, M. Klene, C. Adamo, R. Cammi, 
 J. W. Ochterski, R. L. Martin, K. Morokuma, O. Farkas, 
 J. B. Foresman, and D. J. Fox, Gaussian, Inc., Wallingford CT, 2016.
 
 ******************************************
 Gaussian 16:  ES64L-G16RevA.03 25-Dec-2016
                18-Apr-2021 
 ******************************************
 %RWF=temp12_913,70GB
 %nprocshared=48
 Will use up to   48 processors via shared memory.
 Default route: MaxDisk=80GB
 ----------------------------------------------------------------------
 #P M062X/GEN Integral=UltraFineGrid SCF=NoSymm Stable=(RExt, Opt) IOp(
 1/33=1)
 ----------------------------------------------------------------------
 1/33=1,38=1,172=1/1;
 2/12=2,17=6,18=5,40=1/2;
 3/5=7,11=2,25=1,30=1,74=-55,75=-5/1,2,3;
 4/9=2/1;
 5/5=2,38=5/2;
 6/7=2,8=2,9=2,10=2,28=1/1;
 8/6=1,10=90,11=11/1;
 9/8=-3,42=1,46=1/14;
 5/5=2,8=3,17=40,38=5/8(-2);
 6/7=2,8=2,9=2,10=2,28=1/1;
 99/5=1,9=1/99;
 Leave Link    1 at Sun Apr 18 10:05:04 2021, MaxMem=           0 cpu:              10.7 elap:               0.2
 (Enter /s/ls4/users/knvvv/bin/g16sse/l101.exe)
 ONIOM data not found on unit 2.
 ----------------------
 Database calculations.
 ----------------------
 TstMul:  ICh=     0
 TstMul:  Mul=     2
 TstMul:  ICh=     0
 TstMul:  Mul=     2
 Symbolic Z-matrix:
 Charge =  0 Multiplicity = 2
 H                     0.        0.       -2.23128 
 F                     0.        0.       -0.61622 
 F                     0.        0.        0.86414 
 
 RdStrC is calling ZToCFu for IStruc=1 NZ=     3.
 PrtBox:  NBox=     1 Levels=  1 BoxLen=    8.00 SMaxX=        5.85
          Shift=            0.000000            0.000000            4.216500
 Box      1 Number                   0 centers from      1 to      3:
 After GenITR:
 ITRead=  0  0  0
 MicOpt= -1 -1 -1
 ITRead=  0  0  0
 MicOpt= -1 -1 -1
 NAtoms=      3 NQM=        3 NQMF=       0 NMMI=      0 NMMIF=      0
                NMic=       0 NMicF=      0.
                    Isotopes and Nuclear Properties:
 (Nuclear quadrupole moments (NQMom) in fm**2, nuclear magnetic moments (NMagM)
  in nuclear magnetons)

  Atom         1           2           3
 IAtWgt=           1          19          19
 AtmWgt=   1.0078250  18.9984033  18.9984033
 NucSpn=           1           1           1
 AtZEff=  -0.0000000  -0.0000000  -0.0000000
 NQMom=    0.0000000   0.0000000   0.0000000
 NMagM=    2.7928460   2.6288670   2.6288670
 AtZNuc=   1.0000000   9.0000000   9.0000000
 No MM parameters found.
 Leave Link  101 at Sun Apr 18 10:05:05 2021, MaxMem=   104857600 cpu:               6.9 elap:               0.2
 (Enter /s/ls4/users/knvvv/bin/g16sse/l202.exe)
                          Input orientation:                          
 ---------------------------------------------------------------------
 Center     Atomic      Atomic             Coordinates (Angstroms)
 Number     Number       Type             X           Y           Z
 ---------------------------------------------------------------------
      1          1           0        0.000000    0.000000   -2.231276
      2          9           0        0.000000    0.000000   -0.616216
      3          9           0        0.000000    0.000000    0.864136
 ---------------------------------------------------------------------
                    Distance matrix (angstroms):
                    1          2          3
     1  H    0.000000
     2  F    1.615059   0.000000
     3  F    3.095412   1.480352   0.000000
 Stoichiometry    F2H(2)
 Framework group  C*V[C*(HFF)]
 Deg. of freedom     2
 Full point group                 C*V     NOp   4
 Largest Abelian subgroup         C2V     NOp   4
 Largest concise Abelian subgroup C1      NOp   1
                         Standard orientation:                         
 ---------------------------------------------------------------------
 Center     Atomic      Atomic             Coordinates (Angstroms)
 Number     Number       Type             X           Y           Z
 ---------------------------------------------------------------------
      1          1           0        0.000000    0.000000   -2.231276
      2          9           0        0.000000    0.000000   -0.616216
      3          9           0        0.000000    0.000000    0.864136
 ---------------------------------------------------------------------
 Rotational constants (GHZ):           0.0000000          19.2429738          19.2429738
 Leave Link  202 at Sun Apr 18 10:05:05 2021, MaxMem=   104857600 cpu:               5.7 elap:               0.1
 (Enter /s/ls4/users/knvvv/bin/g16sse/l301.exe)
 General basis read from cards:  (5D, 7F)
 Centers:       1
 S 3 1.00
     Exponent=  3.3865000000D+01 Coefficients=  2.5493800000D-02
     Exponent=  5.0947900000D+00 Coefficients=  1.9037300000D-01
     Exponent=  1.1587900000D+00 Coefficients=  8.5216100000D-01
 S 1 1.00
     Exponent=  3.2584000000D-01 Coefficients=  1.0000000000D+00
 S 1 1.00
     Exponent=  1.0274100000D-01 Coefficients=  1.0000000000D+00
 P 1 1.00
     Exponent=  1.5000000000D+00 Coefficients=  1.0000000000D+00
 P 1 1.00
     Exponent=  3.7500000000D-01 Coefficients=  1.0000000000D+00
 ****
 Centers:       2      3
 S 6 1.00
     Exponent=  1.1427100000D+04 Coefficients=  1.8009300000D-03
     Exponent=  1.7223500000D+03 Coefficients=  1.3741900000D-02
     Exponent=  3.9574600000D+02 Coefficients=  6.8133400000D-02
     Exponent=  1.1513900000D+02 Coefficients=  2.3332500000D-01
     Exponent=  3.3602600000D+01 Coefficients=  5.8908600000D-01
     Exponent=  4.9190100000D+00 Coefficients=  2.9950500000D-01
 S 3 1.00
     Exponent=  5.5444100000D+01 Coefficients=  1.1453600000D-01
     Exponent=  1.2632300000D+01 Coefficients=  9.2051200000D-01
     Exponent=  3.7175600000D+00 Coefficients= -3.3780400000D-03
 S 1 1.00
     Exponent=  1.1654500000D+00 Coefficients=  1.0000000000D+00
 S 1 1.00
     Exponent=  3.2189200000D-01 Coefficients=  1.0000000000D+00
 S 1 1.00
     Exponent=  1.0760000000D-01 Coefficients=  1.0000000000D+00
 P 3 1.00
     Exponent=  5.5444100000D+01 Coefficients=  3.5460900000D-02
     Exponent=  1.2632300000D+01 Coefficients=  2.3745100000D-01
     Exponent=  3.7175600000D+00 Coefficients=  8.2045800000D-01
 P 1 1.00
     Exponent=  1.1654500000D+00 Coefficients=  1.0000000000D+00
 P 1 1.00
     Exponent=  3.2189200000D-01 Coefficients=  1.0000000000D+00
 P 1 1.00
     Exponent=  1.0760000000D-01 Coefficients=  1.0000000000D+00
 D 1 1.00
     Exponent=  3.5000000000D+00 Coefficients=  1.0000000000D+00
 D 1 1.00
     Exponent=  8.7500000000D-01 Coefficients=  1.0000000000D+00
 F 1 1.00
     Exponent=  1.8500000000D+00 Coefficients=  1.0000000000D+00
 ****
 Ernie: Thresh=  0.10000D-02 Tol=  0.10000D-05 Strict=F.
 There are    41 symmetry adapted cartesian basis functions of A1  symmetry.
 There are     6 symmetry adapted cartesian basis functions of A2  symmetry.
 There are    20 symmetry adapted cartesian basis functions of B1  symmetry.
 There are    20 symmetry adapted cartesian basis functions of B2  symmetry.
 There are    35 symmetry adapted basis functions of A1  symmetry.
 There are     6 symmetry adapted basis functions of A2  symmetry.
 There are    18 symmetry adapted basis functions of B1  symmetry.
 There are    18 symmetry adapted basis functions of B2  symmetry.
    77 basis functions,   115 primitive gaussians,    87 cartesian basis functions
    10 alpha electrons        9 beta electrons
       nuclear repulsion energy        33.4423025658 Hartrees.
 IExCor= 4336 DFT=T Ex+Corr=M062X ExCW=0 ScaHFX=  0.540000
 ScaDFX=  1.000000  1.000000  1.000000  1.000000 ScalE2=  1.000000  1.000000
 IRadAn=      5 IRanWt=     -1 IRanGd=            0 ICorTp=0 IEmpDi=  4
 NAtoms=    3 NActive=    3 NUniq=    3 SFac= 1.00D+00 NAtFMM=   60 NAOKFM=F Big=F
 Integral buffers will be    131072 words long.
 Raffenetti 2 integral format.
 Two-electron integral symmetry is turned on.
 Leave Link  301 at Sun Apr 18 10:05:05 2021, MaxMem=   104857600 cpu:               8.1 elap:               0.2
 (Enter /s/ls4/users/knvvv/bin/g16sse/l302.exe)
 NPDir=0 NMtPBC=     1 NCelOv=     1 NCel=       1 NClECP=     1 NCelD=      1
         NCelK=      1 NCelE2=     1 NClLst=     1 CellRange=     0.0.
 One-electron integrals computed using PRISM.
 One-electron integral symmetry used in STVInt
 PrsmSu:  requested number of processors reduced to:  13 ShMem   1 Linda.
 NBasis=    77 RedAO= T EigKep=  2.09D-03  NBF=    35     6    18    18
 NBsUse=    77 1.00D-06 EigRej= -1.00D+00 NBFU=    35     6    18    18
 Precomputing XC quadrature grid using
 IXCGrd= 4 IRadAn=           5 IRanWt=          -1 IRanGd=           0 AccXCQ= 0.00D+00.
 Generated NRdTot=       0 NPtTot=           0 NUsed=           0 NTot=          32
 NSgBfM=    87    87    87    87    87 MxSgAt=     3 MxSgA2=     3.
 Leave Link  302 at Sun Apr 18 10:05:06 2021, MaxMem=   104857600 cpu:              67.2 elap:               1.5
 (Enter /s/ls4/users/knvvv/bin/g16sse/l303.exe)
 DipDrv:  MaxL=1.
 Leave Link  303 at Sun Apr 18 10:05:07 2021, MaxMem=   104857600 cpu:              12.6 elap:               0.3
 (Enter /s/ls4/users/knvvv/bin/g16sse/l401.exe)
 SCF N**3 symmetry information disabled.
 ExpMin= 1.03D-01 ExpMax= 1.14D+04 ExpMxC= 1.72D+03 IAcc=3 IRadAn=         5 AccDes= 0.00D+00
 Harris functional with IExCor= 1009 and IRadAn=       5 diagonalized for initial guess.
 HarFok:  IExCor= 1009 AccDes= 0.00D+00 IRadAn=         5 IDoV= 1 UseB2=F ITyADJ=14
 ICtDFT=  3500011 ScaDFX=  1.000000  1.000000  1.000000  1.000000
 FoFCou: FMM=F IPFlag=           0 FMFlag=      100000 FMFlg1=           0
         NFxFlg=           0 DoJE=T BraDBF=F KetDBF=T FulRan=T
         wScrn=  0.000000 ICntrl=       500 IOpCl=  0 I1Cent=   200000004 NGrid=           0
         NMat0=    1 NMatS0=      1 NMatT0=    0 NMatD0=    1 NMtDS0=    0 NMtDT0=    0
 Petite list used in FoFCou.
 Harris En= -199.906438351977    
 JPrj=0 DoOrth=F DoCkMO=F.
 Initial guess orbital symmetries:
 Alpha Orbitals:
       Occupied  (SG) (SG) (SG) (SG) (SG) (PI) (PI) (PI) (PI) (SG)
       Virtual   (SG) (SG) (PI) (PI) (SG) (SG) (PI) (PI) (SG) (SG)
                 (PI) (PI) (SG) (PI) (PI) (SG) (PI) (PI) (SG) (SG)
                 (PI) (PI) (DLTA) (DLTA) (SG) (SG) (DLTA) (DLTA)
                 (PI) (PI) (SG) (SG) (PI) (PI) (SG) (SG) (PI) (PI)
                 (PI) (PI) (SG) (PI) (PI) (DLTA) (DLTA) (PHI) (PHI)
                 (PHI) (PHI) (DLTA) (DLTA) (SG) (PI) (PI) (SG)
                 (PI) (PI) (DLTA) (DLTA) (DLTA) (DLTA) (SG) (PI)
                 (PI) (SG) (SG) (SG)
 Beta  Orbitals:
       Occupied  (SG) (SG) (SG) (SG) (SG) (PI) (PI) (PI) (PI)
       Virtual   (SG) (SG) (SG) (PI) (PI) (SG) (SG) (PI) (PI) (SG)
                 (SG) (PI) (PI) (SG) (PI) (PI) (SG) (PI) (PI) (SG)
                 (SG) (PI) (PI) (DLTA) (DLTA) (SG) (SG) (DLTA)
                 (DLTA) (PI) (PI) (SG) (SG) (PI) (PI) (SG) (SG)
                 (PI) (PI) (PI) (PI) (SG) (PI) (PI) (DLTA) (DLTA)
                 (PHI) (PHI) (PHI) (PHI) (DLTA) (DLTA) (SG) (PI)
                 (PI) (SG) (PI) (PI) (DLTA) (DLTA) (DLTA) (DLTA)
                 (SG) (PI) (PI) (SG) (SG) (SG)
 The electronic state of the initial guess is 2-SG.
 Initial guess <Sx>= 0.0000 <Sy>= 0.0000 <Sz>= 0.5000 <S**2>= 0.7500 S= 0.5000
 Leave Link  401 at Sun Apr 18 10:05:08 2021, MaxMem=   104857600 cpu:              77.9 elap:               1.7
 (Enter /s/ls4/users/knvvv/bin/g16sse/l502.exe)
 Keep R1 and R2 ints in memory in symmetry-blocked form, NReq=48176845.
 FoFCou: FMM=F IPFlag=           0 FMFlag=           0 FMFlg1=           0
         NFxFlg=           0 DoJE=F BraDBF=F KetDBF=F FulRan=T
         wScrn=  0.000000 ICntrl=       600 IOpCl=  0 I1Cent=           0 NGrid=           0
         NMat0=    1 NMatS0=   3003 NMatT0=    0 NMatD0=    1 NMtDS0=    0 NMtDT0=    0
 Petite list used in FoFCou.
 UHF open shell SCF:
 Using DIIS extrapolation, IDIIS=  1040.
 NGot=   104857600 LenX=   102464635 LenY=   102456625
 Requested convergence on RMS density matrix=1.00D-08 within 128 cycles.
 Requested convergence on MAX density matrix=1.00D-06.
 Requested convergence on             energy=1.00D-06.
 No special actions if energy rises.
 Integral accuracy reduced to 1.0D-05 until final iterations.

 Cycle   1  Pass 0  IDiag  1:
 E= -199.953186002615    
 DIIS: error= 2.70D-02 at cycle   1 NSaved=   1.
 NSaved= 1 IEnMin= 1 EnMin= -199.953186002615     IErMin= 1 ErrMin= 2.70D-02
 ErrMax= 2.70D-02  0.00D+00 EMaxC= 1.00D-01 BMatC= 1.90D-01 BMatP= 1.90D-01
 IDIUse=3 WtCom= 7.30D-01 WtEn= 2.70D-01
 Coeff-Com:  0.100D+01
 Coeff-En:   0.100D+01
 Coeff:      0.100D+01
 Gap=     0.235 Goal=   None    Shift=    0.000
 Gap=     0.268 Goal=   None    Shift=    0.000
 GapD=    0.235 DampG=1.000 DampE=0.500 DampFc=0.5000 IDamp=-1.
 Damping current iteration by 5.00D-01
 RMSDP=3.76D-03 MaxDP=1.16D-01              OVMax= 3.40D-01

 Cycle   2  Pass 0  IDiag  1:
 E= -199.969424967232     Delta-E=       -0.016238964617 Rises=F Damp=T
 DIIS: error= 1.22D-02 at cycle   2 NSaved=   2.
 NSaved= 2 IEnMin= 2 EnMin= -199.969424967232     IErMin= 2 ErrMin= 1.22D-02
 ErrMax= 1.22D-02  0.00D+00 EMaxC= 1.00D-01 BMatC= 5.17D-02 BMatP= 1.90D-01
 IDIUse=3 WtCom= 8.78D-01 WtEn= 1.22D-01
 Coeff-Com:  0.106D+00 0.894D+00
 Coeff-En:   0.416D-01 0.958D+00
 Coeff:      0.982D-01 0.902D+00
 Gap=     0.277 Goal=   None    Shift=    0.000
 Gap=     0.321 Goal=   None    Shift=    0.000
 RMSDP=1.12D-03 MaxDP=2.84D-02 DE=-1.62D-02 OVMax= 1.19D-01

 Cycle   3  Pass 0  IDiag  1:
 E= -199.996200933672     Delta-E=       -0.026775966439 Rises=F Damp=F
 DIIS: error= 7.89D-03 at cycle   3 NSaved=   3.
 NSaved= 3 IEnMin= 3 EnMin= -199.996200933672     IErMin= 3 ErrMin= 7.89D-03
 ErrMax= 7.89D-03  0.00D+00 EMaxC= 1.00D-01 BMatC= 1.26D-02 BMatP= 5.17D-02
 IDIUse=3 WtCom= 9.21D-01 WtEn= 7.89D-02
 Coeff-Com: -0.883D-01 0.293D+00 0.795D+00
 Coeff-En:   0.000D+00 0.000D+00 0.100D+01
 Coeff:     -0.813D-01 0.270D+00 0.812D+00
 Gap=     0.284 Goal=   None    Shift=    0.000
 Gap=     0.319 Goal=   None    Shift=    0.000
 RMSDP=5.85D-04 MaxDP=1.19D-02 DE=-2.68D-02 OVMax= 4.28D-02

 Cycle   4  Pass 0  IDiag  1:
 E= -199.998839400393     Delta-E=       -0.002638466721 Rises=F Damp=F
 DIIS: error= 6.31D-03 at cycle   4 NSaved=   4.
 NSaved= 4 IEnMin= 4 EnMin= -199.998839400393     IErMin= 4 ErrMin= 6.31D-03
 ErrMax= 6.31D-03  0.00D+00 EMaxC= 1.00D-01 BMatC= 6.98D-03 BMatP= 1.26D-02
 IDIUse=3 WtCom= 9.37D-01 WtEn= 6.31D-02
 Coeff-Com: -0.346D-01 0.470D-01 0.448D+00 0.540D+00
 Coeff-En:   0.000D+00 0.000D+00 0.000D+00 0.100D+01
 Coeff:     -0.324D-01 0.441D-01 0.420D+00 0.569D+00
 Gap=     0.297 Goal=   None    Shift=    0.000
 Gap=     0.316 Goal=   None    Shift=    0.000
 RMSDP=2.92D-04 MaxDP=7.56D-03 DE=-2.64D-03 OVMax= 2.56D-02

 Cycle   5  Pass 0  IDiag  1:
 E= -200.000266011548     Delta-E=       -0.001426611155 Rises=F Damp=F
 DIIS: error= 2.53D-03 at cycle   5 NSaved=   5.
 NSaved= 5 IEnMin= 5 EnMin= -200.000266011548     IErMin= 5 ErrMin= 2.53D-03
 ErrMax= 2.53D-03  0.00D+00 EMaxC= 1.00D-01 BMatC= 9.17D-04 BMatP= 6.98D-03
 IDIUse=3 WtCom= 9.75D-01 WtEn= 2.53D-02
 Coeff-Com:  0.420D-01-0.105D+00-0.270D+00 0.106D+00 0.123D+01
 Coeff-En:   0.000D+00 0.000D+00 0.000D+00 0.000D+00 0.100D+01
 Coeff:      0.409D-01-0.103D+00-0.263D+00 0.103D+00 0.122D+01
 Gap=     0.302 Goal=   None    Shift=    0.000
 Gap=     0.319 Goal=   None    Shift=    0.000
 RMSDP=2.83D-04 MaxDP=5.70D-03 DE=-1.43D-03 OVMax= 2.02D-02

 Cycle   6  Pass 0  IDiag  1:
 E= -200.000780835623     Delta-E=       -0.000514824075 Rises=F Damp=F
 DIIS: error= 8.79D-04 at cycle   6 NSaved=   6.
 NSaved= 6 IEnMin= 6 EnMin= -200.000780835623     IErMin= 6 ErrMin= 8.79D-04
 ErrMax= 8.79D-04  0.00D+00 EMaxC= 1.00D-01 BMatC= 7.44D-05 BMatP= 9.17D-04
 IDIUse=3 WtCom= 9.91D-01 WtEn= 8.79D-03
 Coeff-Com:  0.154D-01-0.253D-01-0.707D-01-0.849D-01 0.119D+00 0.105D+01
 Coeff-En:   0.000D+00 0.000D+00 0.000D+00 0.000D+00 0.000D+00 0.100D+01
 Coeff:      0.152D-01-0.251D-01-0.701D-01-0.841D-01 0.118D+00 0.105D+01
 Gap=     0.304 Goal=   None    Shift=    0.000
 Gap=     0.319 Goal=   None    Shift=    0.000
 RMSDP=7.74D-05 MaxDP=1.74D-03 DE=-5.15D-04 OVMax= 6.83D-03

 Cycle   7  Pass 0  IDiag  1:
 E= -200.000824737314     Delta-E=       -0.000043901691 Rises=F Damp=F
 DIIS: error= 2.25D-04 at cycle   7 NSaved=   7.
 NSaved= 7 IEnMin= 7 EnMin= -200.000824737314     IErMin= 7 ErrMin= 2.25D-04
 ErrMax= 2.25D-04  0.00D+00 EMaxC= 1.00D-01 BMatC= 6.35D-06 BMatP= 7.44D-05
 IDIUse=3 WtCom= 9.98D-01 WtEn= 2.25D-03
 Coeff-Com: -0.267D-02 0.513D-02 0.135D-01-0.111D-02-0.380D-01-0.128D+00
 Coeff-Com:  0.115D+01
 Coeff-En:   0.000D+00 0.000D+00 0.000D+00 0.000D+00 0.000D+00 0.000D+00
 Coeff-En:   0.100D+01
 Coeff:     -0.266D-02 0.512D-02 0.134D-01-0.111D-02-0.380D-01-0.128D+00
 Coeff:      0.115D+01
 Gap=     0.304 Goal=   None    Shift=    0.000
 Gap=     0.321 Goal=   None    Shift=    0.000
 RMSDP=2.90D-05 MaxDP=6.80D-04 DE=-4.39D-05 OVMax= 2.16D-03

 Cycle   8  Pass 0  IDiag  1:
 E= -200.000832876637     Delta-E=       -0.000008139322 Rises=F Damp=F
 DIIS: error= 1.70D-04 at cycle   8 NSaved=   8.
 NSaved= 8 IEnMin= 8 EnMin= -200.000832876637     IErMin= 8 ErrMin= 1.70D-04
 ErrMax= 1.70D-04  0.00D+00 EMaxC= 1.00D-01 BMatC= 3.33D-06 BMatP= 6.35D-06
 IDIUse=3 WtCom= 9.98D-01 WtEn= 1.70D-03
 Coeff-Com: -0.301D-02 0.562D-02-0.261D-02 0.356D-02 0.186D-01-0.135D+00
 Coeff-Com: -0.382D+00 0.149D+01
 Coeff-En:   0.000D+00 0.000D+00 0.000D+00 0.000D+00 0.000D+00 0.000D+00
 Coeff-En:   0.000D+00 0.100D+01
 Coeff:     -0.300D-02 0.561D-02-0.261D-02 0.356D-02 0.186D-01-0.135D+00
 Coeff:     -0.381D+00 0.149D+01
 Gap=     0.304 Goal=   None    Shift=    0.000
 Gap=     0.321 Goal=   None    Shift=    0.000
 RMSDP=2.81D-05 MaxDP=6.03D-04 DE=-8.14D-06 OVMax= 2.29D-03

 Cycle   9  Pass 0  IDiag  1:
 E= -200.000837883798     Delta-E=       -0.000005007162 Rises=F Damp=F
 DIIS: error= 7.62D-05 at cycle   9 NSaved=   9.
 NSaved= 9 IEnMin= 9 EnMin= -200.000837883798     IErMin= 9 ErrMin= 7.62D-05
 ErrMax= 7.62D-05  0.00D+00 EMaxC= 1.00D-01 BMatC= 9.09D-07 BMatP= 3.33D-06
 IDIUse=1 WtCom= 1.00D+00 WtEn= 0.00D+00
 Coeff-Com:  0.678D-03-0.152D-02-0.709D-02-0.659D-02 0.143D-01 0.796D-01
 Coeff-Com: -0.290D+00-0.500D+00 0.171D+01
 Coeff:      0.678D-03-0.152D-02-0.709D-02-0.659D-02 0.143D-01 0.796D-01
 Coeff:     -0.290D+00-0.500D+00 0.171D+01
 Gap=     0.304 Goal=   None    Shift=    0.000
 Gap=     0.321 Goal=   None    Shift=    0.000
 RMSDP=2.62D-05 MaxDP=5.65D-04 DE=-5.01D-06 OVMax= 2.00D-03

 Cycle  10  Pass 0  IDiag  1:
 E= -200.000839781797     Delta-E=       -0.000001897999 Rises=F Damp=F
 DIIS: error= 2.31D-05 at cycle  10 NSaved=  10.
 NSaved=10 IEnMin=10 EnMin= -200.000839781797     IErMin=10 ErrMin= 2.31D-05
 ErrMax= 2.31D-05  0.00D+00 EMaxC= 1.00D-01 BMatC= 7.58D-08 BMatP= 9.09D-07
 IDIUse=1 WtCom= 1.00D+00 WtEn= 0.00D+00
 Coeff-Com: -0.493D-04 0.123D-03 0.122D-02-0.403D-03-0.423D-02 0.865D-02
 Coeff-Com:  0.578D-01-0.269D+00 0.174D+00 0.103D+01
 Coeff:     -0.493D-04 0.123D-03 0.122D-02-0.403D-03-0.423D-02 0.865D-02
 Coeff:      0.578D-01-0.269D+00 0.174D+00 0.103D+01
 Gap=     0.305 Goal=   None    Shift=    0.000
 Gap=     0.321 Goal=   None    Shift=    0.000
 RMSDP=5.90D-06 MaxDP=1.38D-04 DE=-1.90D-06 OVMax= 4.14D-04

 Initial convergence to 1.0D-05 achieved.  Increase integral accuracy.
 Cycle  11  Pass 1  IDiag  1:
 E= -200.000824956148     Delta-E=        0.000014825649 Rises=F Damp=F
 DIIS: error= 3.08D-05 at cycle   1 NSaved=   1.
 NSaved= 1 IEnMin= 1 EnMin= -200.000824956148     IErMin= 1 ErrMin= 3.08D-05
 ErrMax= 3.08D-05  0.00D+00 EMaxC= 1.00D-01 BMatC= 2.79D-07 BMatP= 2.79D-07
 IDIUse=1 WtCom= 1.00D+00 WtEn= 0.00D+00
 Coeff-Com:  0.100D+01
 Coeff:      0.100D+01
 Gap=     0.305 Goal=   None    Shift=    0.000
 Gap=     0.321 Goal=   None    Shift=    0.000
 RMSDP=5.90D-06 MaxDP=1.38D-04 DE= 1.48D-05 OVMax= 1.73D-04

 Cycle  12  Pass 1  IDiag  1:
 E= -200.000825032967     Delta-E=       -0.000000076819 Rises=F Damp=F
 DIIS: error= 2.06D-05 at cycle   2 NSaved=   2.
 NSaved= 2 IEnMin= 2 EnMin= -200.000825032967     IErMin= 2 ErrMin= 2.06D-05
 ErrMax= 2.06D-05  0.00D+00 EMaxC= 1.00D-01 BMatC= 7.02D-08 BMatP= 2.79D-07
 IDIUse=1 WtCom= 1.00D+00 WtEn= 0.00D+00
 Coeff-Com:  0.235D+00 0.765D+00
 Coeff:      0.235D+00 0.765D+00
 Gap=     0.305 Goal=   None    Shift=    0.000
 Gap=     0.321 Goal=   None    Shift=    0.000
 RMSDP=2.47D-06 MaxDP=6.32D-05 DE=-7.68D-08 OVMax= 6.68D-05

 Cycle  13  Pass 1  IDiag  1:
 E= -200.000825041118     Delta-E=       -0.000000008151 Rises=F Damp=F
 DIIS: error= 9.78D-06 at cycle   3 NSaved=   3.
 NSaved= 3 IEnMin= 3 EnMin= -200.000825041118     IErMin= 3 ErrMin= 9.78D-06
 ErrMax= 9.78D-06  0.00D+00 EMaxC= 1.00D-01 BMatC= 2.25D-08 BMatP= 7.02D-08
 IDIUse=1 WtCom= 1.00D+00 WtEn= 0.00D+00
 Coeff-Com: -0.374D-01 0.353D+00 0.685D+00
 Coeff:     -0.374D-01 0.353D+00 0.685D+00
 Gap=     0.305 Goal=   None    Shift=    0.000
 Gap=     0.321 Goal=   None    Shift=    0.000
 RMSDP=1.15D-06 MaxDP=3.04D-05 DE=-8.15D-09 OVMax= 3.31D-05

 Cycle  14  Pass 1  IDiag  1:
 E= -200.000825044962     Delta-E=       -0.000000003844 Rises=F Damp=F
 DIIS: error= 2.87D-06 at cycle   4 NSaved=   4.
 NSaved= 4 IEnMin= 4 EnMin= -200.000825044962     IErMin= 4 ErrMin= 2.87D-06
 ErrMax= 2.87D-06  0.00D+00 EMaxC= 1.00D-01 BMatC= 1.48D-09 BMatP= 2.25D-08
 IDIUse=1 WtCom= 1.00D+00 WtEn= 0.00D+00
 Coeff-Com: -0.209D-01 0.120D+00 0.294D+00 0.607D+00
 Coeff:     -0.209D-01 0.120D+00 0.294D+00 0.607D+00
 Gap=     0.305 Goal=   None    Shift=    0.000
 Gap=     0.321 Goal=   None    Shift=    0.000
 RMSDP=2.16D-07 MaxDP=4.91D-06 DE=-3.84D-09 OVMax= 1.30D-05

 Cycle  15  Pass 1  IDiag  1:
 E= -200.000825045300     Delta-E=       -0.000000000338 Rises=F Damp=F
 DIIS: error= 2.28D-06 at cycle   5 NSaved=   5.
 NSaved= 5 IEnMin= 5 EnMin= -200.000825045300     IErMin= 5 ErrMin= 2.28D-06
 ErrMax= 2.28D-06  0.00D+00 EMaxC= 1.00D-01 BMatC= 4.61D-10 BMatP= 1.48D-09
 IDIUse=1 WtCom= 1.00D+00 WtEn= 0.00D+00
 Coeff-Com: -0.757D-03-0.369D-01-0.276D-01 0.300D+00 0.765D+00
 Coeff:     -0.757D-03-0.369D-01-0.276D-01 0.300D+00 0.765D+00
 Gap=     0.305 Goal=   None    Shift=    0.000
 Gap=     0.321 Goal=   None    Shift=    0.000
 RMSDP=1.73D-07 MaxDP=3.73D-06 DE=-3.38D-10 OVMax= 1.30D-05

 Cycle  16  Pass 1  IDiag  1:
 E= -200.000825045545     Delta-E=       -0.000000000244 Rises=F Damp=F
 DIIS: error= 9.60D-07 at cycle   6 NSaved=   6.
 NSaved= 6 IEnMin= 6 EnMin= -200.000825045545     IErMin= 6 ErrMin= 9.60D-07
 ErrMax= 9.60D-07  0.00D+00 EMaxC= 1.00D-01 BMatC= 1.20D-10 BMatP= 4.61D-10
 IDIUse=1 WtCom= 1.00D+00 WtEn= 0.00D+00
 Coeff-Com:  0.544D-02-0.394D-01-0.745D-01-0.191D+00 0.115D+00 0.118D+01
 Coeff:      0.544D-02-0.394D-01-0.745D-01-0.191D+00 0.115D+00 0.118D+01
 Gap=     0.305 Goal=   None    Shift=    0.000
 Gap=     0.321 Goal=   None    Shift=    0.000
 RMSDP=1.55D-07 MaxDP=3.61D-06 DE=-2.44D-10 OVMax= 1.08D-05

 Cycle  17  Pass 1  IDiag  1:
 E= -200.000825045714     Delta-E=       -0.000000000170 Rises=F Damp=F
 DIIS: error= 6.16D-07 at cycle   7 NSaved=   7.
 NSaved= 7 IEnMin= 7 EnMin= -200.000825045714     IErMin= 7 ErrMin= 6.16D-07
 ErrMax= 6.16D-07  0.00D+00 EMaxC= 1.00D-01 BMatC= 3.90D-11 BMatP= 1.20D-10
 IDIUse=1 WtCom= 1.00D+00 WtEn= 0.00D+00
 Coeff-Com: -0.154D-02 0.309D-01 0.595D-01-0.750D-01-0.472D+00-0.517D+00
 Coeff-Com:  0.198D+01
 Coeff:     -0.154D-02 0.309D-01 0.595D-01-0.750D-01-0.472D+00-0.517D+00
 Coeff:      0.198D+01
 Gap=     0.305 Goal=   None    Shift=    0.000
 Gap=     0.321 Goal=   None    Shift=    0.000
 RMSDP=1.97D-07 MaxDP=4.19D-06 DE=-1.70D-10 OVMax= 1.50D-05

 Cycle  18  Pass 1  IDiag  1:
 E= -200.000825045805     Delta-E=       -0.000000000090 Rises=F Damp=F
 DIIS: error= 1.16D-07 at cycle   8 NSaved=   8.
 NSaved= 8 IEnMin= 8 EnMin= -200.000825045805     IErMin= 8 ErrMin= 1.16D-07
 ErrMax= 1.16D-07  0.00D+00 EMaxC= 1.00D-01 BMatC= 1.04D-12 BMatP= 3.90D-11
 IDIUse=1 WtCom= 1.00D+00 WtEn= 0.00D+00
 Coeff-Com: -0.229D-03-0.504D-03-0.196D-02 0.182D-01 0.473D-01 0.548D-01
 Coeff-Com: -0.385D+00 0.127D+01
 Coeff:     -0.229D-03-0.504D-03-0.196D-02 0.182D-01 0.473D-01 0.548D-01
 Coeff:     -0.385D+00 0.127D+01
 Gap=     0.305 Goal=   None    Shift=    0.000
 Gap=     0.321 Goal=   None    Shift=    0.000
 RMSDP=2.98D-08 MaxDP=6.05D-07 DE=-9.04D-11 OVMax= 2.12D-06

 Cycle  19  Pass 1  IDiag  1:
 E= -200.000825045806     Delta-E=       -0.000000000001 Rises=F Damp=F
 DIIS: error= 1.48D-08 at cycle   9 NSaved=   9.
 NSaved= 9 IEnMin= 9 EnMin= -200.000825045806     IErMin= 9 ErrMin= 1.48D-08
 ErrMax= 1.48D-08  0.00D+00 EMaxC= 1.00D-01 BMatC= 4.24D-14 BMatP= 1.04D-12
 IDIUse=1 WtCom= 1.00D+00 WtEn= 0.00D+00
 Coeff-Com:  0.689D-04-0.137D-02-0.285D-02 0.159D-02 0.250D-01 0.306D-01
 Coeff-Com: -0.113D+00 0.876D-01 0.972D+00
 Coeff:      0.689D-04-0.137D-02-0.285D-02 0.159D-02 0.250D-01 0.306D-01
 Coeff:     -0.113D+00 0.876D-01 0.972D+00
 Gap=     0.305 Goal=   None    Shift=    0.000
 Gap=     0.321 Goal=   None    Shift=    0.000
 RMSDP=1.94D-09 MaxDP=3.55D-08 DE=-1.31D-12 OVMax= 1.06D-07

 SCF Done:  E(UM062X) =  -200.000825046     A.U. after   19 cycles
            NFock= 19  Conv=0.19D-08     -V/T= 2.0023
 <Sx>= 0.0000 <Sy>= 0.0000 <Sz>= 0.5000 <S**2>= 0.7949 S= 0.5222
 <L.S>= 0.000000000000E+00
 KE= 1.995415099292D+02 PE=-5.452703594219D+02 EE= 1.122857218811D+02
 Annihilation of the first spin contaminant:
 S**2 before annihilation     0.7949,   after     0.7500
 Leave Link  502 at Sun Apr 18 10:05:48 2021, MaxMem=   104857600 cpu:            1853.3 elap:              39.5
 (Enter /s/ls4/users/knvvv/bin/g16sse/l601.exe)
 Copying SCF densities to generalized density rwf, IOpCl= 1 IROHF=0.

 **********************************************************************

            Population analysis using the SCF density.

 **********************************************************************

 Orbital symmetries:
 Alpha Orbitals:
       Occupied  (SG) (SG) (SG) (SG) (SG) (PI) (PI) (PI) (PI) (SG)
       Virtual   (SG) (SG) (PI) (PI) (SG) (SG) (PI) (PI) (SG) (SG)
                 (PI) (PI) (SG) (PI) (PI) (SG) (PI) (PI) (SG) (SG)
                 (PI) (PI) (SG) (DLTA) (DLTA) (SG) (DLTA) (DLTA)
                 (SG) (PI) (PI) (SG) (PI) (PI) (SG) (SG) (PI) (PI)
                 (PI) (PI) (PI) (PI) (SG) (DLTA) (DLTA) (PHI) (PHI)
                 (PHI) (PHI) (DLTA) (DLTA) (SG) (PI) (PI) (SG)
                 (PI) (PI) (DLTA) (DLTA) (DLTA) (DLTA) (SG) (PI)
                 (PI) (SG) (SG) (SG)
 Beta  Orbitals:
       Occupied  (SG) (SG) (SG) (SG) (SG) (PI) (PI) (PI) (PI)
       Virtual   (SG) (SG) (SG) (PI) (PI) (SG) (PI) (PI) (SG) (SG)
                 (PI) (PI) (SG) (SG) (PI) (PI) (SG) (PI) (PI) (SG)
                 (SG) (PI) (PI) (SG) (SG) (DLTA) (DLTA) (DLTA)
                 (DLTA) (SG) (PI) (PI) (PI) (PI) (SG) (SG) (SG)
                 (PI) (PI) (PI) (PI) (PI) (PI) (SG) (DLTA) (DLTA)
                 (PHI) (PHI) (PHI) (PHI) (DLTA) (DLTA) (SG) (PI)
                 (PI) (SG) (PI) (PI) (DLTA) (DLTA) (DLTA) (DLTA)
                 (SG) (PI) (PI) (SG) (SG) (SG)
 The electronic state is 2-SG.
 Alpha  occ. eigenvalues --  -25.33517 -25.31101  -1.45287  -1.25392  -0.67719
 Alpha  occ. eigenvalues --   -0.61562  -0.61562  -0.50518  -0.50518  -0.39460
 Alpha virt. eigenvalues --   -0.09006   0.16849   0.20856   0.20856   0.23195
 Alpha virt. eigenvalues --    0.26262   0.27569   0.27569   0.39149   0.56980
 Alpha virt. eigenvalues --    0.66666   0.66666   0.95434   1.23831   1.23831
 Alpha virt. eigenvalues --    1.34941   1.38369   1.38369   1.61705   1.66476
 Alpha virt. eigenvalues --    1.78474   1.78474   1.94930   1.95141   1.95145
 Alpha virt. eigenvalues --    2.00895   2.12140   2.12144   2.40395   2.53402
 Alpha virt. eigenvalues --    2.53402   3.41916   3.61955   3.61955   3.87032
 Alpha virt. eigenvalues --    5.91433   6.22201   6.22201   6.36924   6.36924
 Alpha virt. eigenvalues --    6.40432   6.40432   6.40512   6.52342   6.52345
 Alpha virt. eigenvalues --    6.64127   6.64127   6.66733   6.66733   6.72365
 Alpha virt. eigenvalues --    6.72368   6.95201   7.05879   7.05879   7.57090
 Alpha virt. eigenvalues --    8.90874   8.90874   8.96143   8.96146   9.06799
 Alpha virt. eigenvalues --    9.06802   9.32135   9.43314   9.43314  10.36092
 Alpha virt. eigenvalues --   66.76128  66.89573
  Beta  occ. eigenvalues --  -25.33631 -25.30203  -1.44052  -1.23800  -0.64297
  Beta  occ. eigenvalues --   -0.61232  -0.61232  -0.49519  -0.49519
  Beta virt. eigenvalues --   -0.17420  -0.05939   0.16436   0.18710   0.18710
  Beta virt. eigenvalues --    0.21477   0.25301   0.25301   0.30886   0.35210
  Beta virt. eigenvalues --    0.47700   0.47700   0.53096   0.79898   1.23925
  Beta virt. eigenvalues --    1.23925   1.36370   1.38299   1.38299   1.55221
  Beta virt. eigenvalues --    1.63605   1.78078   1.78078   1.89109   1.94970
  Beta virt. eigenvalues --    1.95201   1.95205   2.12297   2.12301   2.23518
  Beta virt. eigenvalues --    2.53487   2.53487   2.87065   2.87065   3.08871
  Beta virt. eigenvalues --    3.42533   5.92331   6.22376   6.22376   6.37252
  Beta virt. eigenvalues --    6.37252   6.41240   6.41240   6.43497   6.52528
  Beta virt. eigenvalues --    6.52531   6.64017   6.64017   6.67205   6.67205
  Beta virt. eigenvalues --    6.73242   6.73245   6.94710   7.06171   7.06171
  Beta virt. eigenvalues --    7.56756   8.92832   8.92832   8.96616   8.96619
  Beta virt. eigenvalues --    9.07962   9.07966   9.34076   9.45623   9.45623
  Beta virt. eigenvalues --   10.38326  66.76179  66.89337
          Condensed to atoms (all electrons):
               1          2          3
     1  H    0.825137  -0.003945   0.019617
     2  F   -0.003945   9.039863   0.014484
     3  F    0.019617   0.014484   9.074689
          Atomic-Atomic Spin Densities.
               1          2          3
     1  H    0.807320  -0.039629   0.021609
     2  F   -0.039629  -0.032417  -0.104106
     3  F    0.021609  -0.104106   0.469349
 Mulliken charges and spin densities:
               1          2
     1  H    0.159191   0.789300
     2  F   -0.050401  -0.176153
     3  F   -0.108790   0.386852
 Sum of Mulliken charges =  -0.00000   1.00000
 Mulliken charges and spin densities with hydrogens summed into heavy atoms:
               1          2
     2  F    0.108790   0.613148
     3  F   -0.108790   0.386852
 Electronic spatial extent (au):  <R**2>=             75.5618
 Charge=             -0.0000 electrons
 Dipole moment (field-independent basis, Debye):
    X=              0.0000    Y=              0.0000    Z=             -1.7098  Tot=              1.7098
 Quadrupole moment (field-independent basis, Debye-Ang):
   XX=            -11.0392   YY=            -11.0392   ZZ=             -6.9463
   XY=             -0.0000   XZ=              0.0000   YZ=              0.0000
 Traceless Quadrupole moment (field-independent basis, Debye-Ang):
   XX=             -1.3643   YY=             -1.3643   ZZ=              2.7286
   XY=             -0.0000   XZ=              0.0000   YZ=              0.0000
 Octapole moment (field-independent basis, Debye-Ang**2):
  XXX=              0.0000  YYY=              0.0000  ZZZ=             -5.1110  XYY=              0.0000
  XXY=              0.0000  XXZ=              1.1653  XZZ=              0.0000  YZZ=              0.0000
  YYZ=              1.1653  XYZ=             -0.0000
 Hexadecapole moment (field-independent basis, Debye-Ang**3):
 XXXX=             -7.4799 YYYY=             -7.4799 ZZZZ=            -48.8385 XXXY=              0.0000
 XXXZ=              0.0000 YYYX=              0.0000 YYYZ=              0.0000 ZZZX=              0.0000
 ZZZY=              0.0000 XXYY=             -2.4933 XXZZ=            -13.5533 YYZZ=            -13.5533
 XXYZ=              0.0000 YYXZ=              0.0000 ZZXY=             -0.0000
 N-N= 3.344230256578D+01 E-N=-5.452703597804D+02  KE= 1.995415099292D+02
                          Isotropic Fermi Contact Couplings
        Atom                 a.u.       MegaHertz       Gauss      10(-4) cm-1
     1  H(1)               0.25399    1135.28953     405.09953     378.69182
     2  F(19)              0.60480    2544.64488     907.99257     848.80217
     3  F(19)              0.04815     202.60154      72.29327      67.58060
 --------------------------------------------------------
       Center         ----  Spin Dipole Couplings  ----
                      3XX-RR        3YY-RR        3ZZ-RR
 --------------------------------------------------------
     1   Atom        0.004990      0.004990     -0.009980
     2   Atom        0.591290      0.591290     -1.182580
     3   Atom       -1.273909     -1.273909      2.547818
 --------------------------------------------------------
                        XY            XZ            YZ
 --------------------------------------------------------
     1   Atom        0.000000      0.000000      0.000000
     2   Atom        0.000000      0.000000      0.000000
     3   Atom        0.000000      0.000000      0.000000
 --------------------------------------------------------


 ---------------------------------------------------------------------------------
              Anisotropic Spin Dipole Couplings in Principal Axis System
 ---------------------------------------------------------------------------------

       Atom             a.u.   MegaHertz   Gauss  10(-4) cm-1        Axes

              Baa    -0.0100    -5.325    -1.900    -1.776  0.0000  0.0000  1.0000
     1 H(1)   Bbb     0.0050     2.662     0.950     0.888  1.0000  0.0000  0.0000
              Bcc     0.0050     2.662     0.950     0.888 -0.0000  1.0000  0.0000
 
              Baa    -1.1826  -593.922  -211.926  -198.111  0.0000  0.0000  1.0000
     2 F(19)  Bbb     0.5913   296.961   105.963    99.055  1.0000  0.0000  0.0000
              Bcc     0.5913   296.961   105.963    99.055 -0.0000  1.0000  0.0000
 
              Baa    -1.2739  -639.790  -228.293  -213.411 -0.0000  1.0000  0.0000
     3 F(19)  Bbb    -1.2739  -639.790  -228.293  -213.411  1.0000  0.0000  0.0000
              Bcc     2.5478  1279.580   456.586   426.822  0.0000  0.0000  1.0000
 

 ---------------------------------------------------------------------------------

 No NMR shielding tensors so no spin-rotation constants.
 Leave Link  601 at Sun Apr 18 10:05:50 2021, MaxMem=   104857600 cpu:              74.0 elap:               1.6
 (Enter /s/ls4/users/knvvv/bin/g16sse/l801.exe)
 DoSCS=F DFT=T ScalE2(SS,OS)=  1.000000  1.000000
 Range of M.O.s used for correlation:     1    77
 NBasis=    77 NAE=    10 NBE=     9 NFC=     0 NFV=     0
 NROrb=     77 NOA=    10 NOB=     9 NVA=    67 NVB=    68

 **** Warning!!: The largest alpha MO coefficient is  0.10884508D+02


 **** Warning!!: The largest beta MO coefficient is  0.10716878D+02

 Leave Link  801 at Sun Apr 18 10:05:50 2021, MaxMem=   104857600 cpu:               3.1 elap:               0.1
 (Enter /s/ls4/users/knvvv/bin/g16sse/l914.exe)
 UHF ground state
 Doing stability rather than CIS.
 Keep R1 and R2 ints in memory in symmetry-blocked form, NReq=66385649.
 FoFCou: FMM=F IPFlag=           0 FMFlag=           0 FMFlg1=           0
         NFxFlg=           0 DoJE=F BraDBF=F KetDBF=F FulRan=T
         wScrn=  0.000000 ICntrl=       600 IOpCl=  0 I1Cent=           0 NGrid=           0
         NMat0=    1 NMatS0=   3003 NMatT0=    0 NMatD0=    1 NMtDS0=    0 NMtDT0=    0
 Petite list used in FoFCou.
 MDV=   104857600 DFT=T DoStab=T Mixed=T DoRPA=F DoScal=F NonHer=F
 Making orbital integer symmetry assigments:
 Orbital symmetries:
 Alpha Orbitals:
       Occupied  (SG) (SG) (SG) (SG) (SG) (PI) (PI) (PI) (PI) (SG)
       Virtual   (SG) (SG) (PI) (PI) (SG) (SG) (PI) (PI) (SG) (SG)
                 (PI) (PI) (SG) (PI) (PI) (SG) (PI) (PI) (SG) (SG)
                 (PI) (PI) (SG) (DLTA) (DLTA) (SG) (DLTA) (DLTA)
                 (SG) (PI) (PI) (SG) (PI) (PI) (SG) (SG) (PI) (PI)
                 (PI) (PI) (PI) (PI) (SG) (DLTA) (DLTA) (PHI) (PHI)
                 (PHI) (PHI) (DLTA) (DLTA) (SG) (PI) (PI) (SG)
                 (PI) (PI) (DLTA) (DLTA) (DLTA) (DLTA) (SG) (PI)
                 (PI) (SG) (SG) (SG)
 Beta  Orbitals:
       Occupied  (SG) (SG) (SG) (SG) (SG) (PI) (PI) (PI) (PI)
       Virtual   (SG) (SG) (SG) (PI) (PI) (SG) (PI) (PI) (SG) (SG)
                 (PI) (PI) (SG) (SG) (PI) (PI) (SG) (PI) (PI) (SG)
                 (SG) (PI) (PI) (SG) (SG) (DLTA) (DLTA) (DLTA)
                 (DLTA) (SG) (PI) (PI) (PI) (PI) (SG) (SG) (SG)
                 (PI) (PI) (PI) (PI) (PI) (PI) (SG) (DLTA) (DLTA)
                 (PHI) (PHI) (PHI) (PHI) (DLTA) (DLTA) (SG) (PI)
                 (PI) (SG) (PI) (PI) (DLTA) (DLTA) (DLTA) (DLTA)
                 (SG) (PI) (PI) (SG) (SG) (SG)
    12 initial guesses have been made.
 Convergence on wavefunction:    0.001000000000000
 Davidson Disk Diagonalization:  ConvIn= 1.00D-03 SkipCon=T Conv= 1.00D-03.
 Max sub-space:  2000 roots to seek:    12 dimension of matrix:         1282
 Iteration     1 Dimension    12 NMult     0 NNew     12
 CISAX will form    12 AO SS matrices at one time.
 NMat=    12 NSing=    12 JSym2X= 2.
 New state      1 was old state      6
 Excitation Energies [eV] at current iteration:
 Root      1 :     2.922190580496526
 Root      2 :     2.922190580496574
 Root      3 :     4.988441948503245
 Root      4 :     4.988441948503371
 Root      5 :     6.008210037694560
 Root      6 :     6.951209656000424
 Root      7 :     6.951209656000581
 Root      8 :     7.769220902455571
 Root      9 :     7.769220902455976
 Root     10 :     8.510273448778701
 Root     11 :     8.510273448778962
 Root     12 :    13.971072063048560
 Iteration     2 Dimension    24 NMult    12 NNew     12
 CISAX will form    12 AO SS matrices at one time.
 NMat=    12 NSing=    12 JSym2X= 2.
 Root      1 not converged, maximum delta is    0.093655929662643
 Excitation Energies [eV] at current iteration:
 Root      1 :     2.410209382966366   Change is   -0.511981197530160
 Root      2 :     2.410209382966445   Change is   -0.511981197530130
 Root      3 :     4.373949054509978   Change is   -1.634260983184581
 Root      4 :     4.456287757005554   Change is   -0.532154191497690
 Root      5 :     4.456287757005614   Change is   -0.532154191497757
 Root      6 :     6.337435063365723   Change is   -1.431785839089847
 Root      7 :     6.337435063366038   Change is   -1.431785839089938
 Root      8 :     6.814562941184443   Change is   -0.136646714816139
 Root      9 :     6.814562941184745   Change is   -0.136646714815679
 Root     10 :     7.993646228535467   Change is   -0.516627220243235
 Root     11 :     7.993646228536083   Change is   -0.516627220242879
 Root     12 :    10.152326382926140
 Iteration     3 Dimension    27 NMult    24 NNew      3
 CISAX will form     3 AO SS matrices at one time.
 NMat=     3 NSing=     3 JSym2X= 2.
 Root      1 not converged, maximum delta is    0.068030008701984
 Excitation Energies [eV] at current iteration:
 Root      1 :     2.403571334603433   Change is   -0.006638048362933
 Root      2 :     2.403571334603475   Change is   -0.006638048362969
 Root      3 :     3.827773219617158   Change is   -0.546175834892820
 Iteration     4 Dimension    30 NMult    27 NNew      3
 CISAX will form     3 AO SS matrices at one time.
 NMat=     3 NSing=     3 JSym2X= 2.
 Root      1 not converged, maximum delta is    0.008855068784785
 Excitation Energies [eV] at current iteration:
 Root      1 :     2.403352344612744   Change is   -0.000218989990690
 Root      2 :     2.403352344612828   Change is   -0.000218989990647
 Root      3 :     3.551852359696656   Change is   -0.275920859920502
 Iteration     5 Dimension    33 NMult    30 NNew      3
 CISAX will form     3 AO SS matrices at one time.
 NMat=     3 NSing=     3 JSym2X= 2.
 Root      1 not converged, maximum delta is    0.081007794898674
 Excitation Energies [eV] at current iteration:
 Root      1 :     2.403345707050569   Change is   -0.000006637562174
 Root      2 :     2.403345707050666   Change is   -0.000006637562162
 Root      3 :     3.503733691548721   Change is   -0.048118668147934
 Iteration     6 Dimension    36 NMult    33 NNew      3
 CISAX will form     3 AO SS matrices at one time.
 NMat=     3 NSing=     3 JSym2X= 2.
 Root      1 not converged, maximum delta is    0.441218899459069
 Excitation Energies [eV] at current iteration:
 Root      1 :     2.403345561745628   Change is   -0.000000145304941
 Root      2 :     2.403345561745683   Change is   -0.000000145304983
 Root      3 :     3.501724309392058   Change is   -0.002009382156664
 Iteration     7 Dimension    39 NMult    36 NNew      3
 CISAX will form     3 AO SS matrices at one time.
 NMat=     3 NSing=     3 JSym2X= 2.
 Root      1 not converged, maximum delta is    0.208214393394369
 Excitation Energies [eV] at current iteration:
 Root      1 :     2.403345559535202   Change is   -0.000000002210427
 Root      2 :     2.403345559535232   Change is   -0.000000002210451
 Root      3 :     3.501563518167760   Change is   -0.000160791224298
 Iteration     8 Dimension    40 NMult    39 NNew      1
 CISAX will form     1 AO SS matrices at one time.
 NMat=     1 NSing=     1 JSym2X= 2.
 Root      1 not converged, maximum delta is    0.169123065096102
 Excitation Energies [eV] at current iteration:
 Root      1 :     2.403345559535207   Change is    0.000000000000006
 Root      2 :     2.403345559535232   Change is    0.000000000000000
 Root      3 :     3.501557481345949   Change is   -0.000006036821810
 Iteration     9 Dimension    41 NMult    40 NNew      1
 CISAX will form     1 AO SS matrices at one time.
 NMat=     1 NSing=     1 JSym2X= 2.
 Root      1 not converged, maximum delta is    0.146408563165637
 Excitation Energies [eV] at current iteration:
 Root      1 :     2.403345559535214   Change is    0.000000000000006
 Root      2 :     2.403345559535226   Change is   -0.000000000000006
 Root      3 :     3.501557217441854   Change is   -0.000000263904095
 Iteration    10 Dimension    42 NMult    41 NNew      1
 CISAX will form     1 AO SS matrices at one time.
 NMat=     1 NSing=     1 JSym2X= 2.
 Root      1 not converged, maximum delta is    0.135234457966088
 Excitation Energies [eV] at current iteration:
 Root      1 :     2.403345559535195   Change is   -0.000000000000018
 Root      2 :     2.403345559535232   Change is    0.000000000000006
 Root      3 :     3.501557199516199   Change is   -0.000000017925655
 Iteration    11 Dimension    43 NMult    42 NNew      1
 CISAX will form     1 AO SS matrices at one time.
 NMat=     1 NSing=     1 JSym2X= 2.
 Root      1 not converged, maximum delta is    0.240555933549864
 Excitation Energies [eV] at current iteration:
 Root      1 :     2.403345559535202   Change is    0.000000000000006
 Root      2 :     2.403345559535238   Change is    0.000000000000006
 Root      3 :     3.501557198701754   Change is   -0.000000000814444
 Convergence achieved on expansion vectors.
 ***********************************************************************
 Stability analysis using <AA,BB:AA,BB> singles matrix:
 ***********************************************************************
 1PDM for each excited state written to RWF  633
 Ground to excited state transition densities written to RWF  633

 Eigenvectors of the stability matrix:
 
 Excited state symmetry could not be determined.
 Eigenvector   1:  2.905-?Sym  Eigenvalue= 0.0883213  <S**2>=1.860
      8A -> 11A       -0.14219
      9A -> 11A        0.44212
      8B -> 10B       -0.55074
      8B -> 11B        0.64728
      9B -> 10B        0.10928
      9B -> 11B       -0.12843
 
 Excited state symmetry could not be determined.
 Eigenvector   2:  2.905-?Sym  Eigenvalue= 0.0883213  <S**2>=1.860
      8A -> 11A       -0.44212
      9A -> 11A       -0.14219
      8B -> 10B       -0.10928
      8B -> 11B        0.12843
      9B -> 10B       -0.55074
      9B -> 11B        0.64728
 
 Eigenvector   3:  2.511-SG   Eigenvalue= 0.1286799  <S**2>=1.326
      5A -> 11A       -0.39971
     10A -> 11A        0.68763
      5B -> 10B        0.38995
      5B -> 11B       -0.42321
 The wavefunction is stable under the perturbations considered.
 Leave Link  914 at Sun Apr 18 10:06:03 2021, MaxMem=   104857600 cpu:             613.5 elap:              13.1
 (Enter /s/ls4/users/knvvv/bin/g16sse/l508.exe)
 The wavefunction is already stable.
 Leave Link  508 at Sun Apr 18 10:06:03 2021, MaxMem=   104857600 cpu:               2.2 elap:               0.1
 (Enter /s/ls4/users/knvvv/bin/g16sse/l601.exe)
 Copying SCF densities to generalized density rwf, IOpCl= 1 IROHF=0.

 **********************************************************************

            Population analysis using the SCF density.

 **********************************************************************

 Orbital symmetries:
 Alpha Orbitals:
       Occupied  (SG) (SG) (SG) (SG) (SG) (PI) (PI) (PI) (PI) (SG)
       Virtual   (SG) (SG) (PI) (PI) (SG) (SG) (PI) (PI) (SG) (SG)
                 (PI) (PI) (SG) (PI) (PI) (SG) (PI) (PI) (SG) (SG)
                 (PI) (PI) (SG) (DLTA) (DLTA) (SG) (DLTA) (DLTA)
                 (SG) (PI) (PI) (SG) (PI) (PI) (SG) (SG) (PI) (PI)
                 (PI) (PI) (PI) (PI) (SG) (DLTA) (DLTA) (PHI) (PHI)
                 (PHI) (PHI) (DLTA) (DLTA) (SG) (PI) (PI) (SG)
                 (PI) (PI) (DLTA) (DLTA) (DLTA) (DLTA) (SG) (PI)
                 (PI) (SG) (SG) (SG)
 Beta  Orbitals:
       Occupied  (SG) (SG) (SG) (SG) (SG) (PI) (PI) (PI) (PI)
       Virtual   (SG) (SG) (SG) (PI) (PI) (SG) (PI) (PI) (SG) (SG)
                 (PI) (PI) (SG) (SG) (PI) (PI) (SG) (PI) (PI) (SG)
                 (SG) (PI) (PI) (SG) (SG) (DLTA) (DLTA) (DLTA)
                 (DLTA) (SG) (PI) (PI) (PI) (PI) (SG) (SG) (SG)
                 (PI) (PI) (PI) (PI) (PI) (PI) (SG) (DLTA) (DLTA)
                 (PHI) (PHI) (PHI) (PHI) (DLTA) (DLTA) (SG) (PI)
                 (PI) (SG) (PI) (PI) (DLTA) (DLTA) (DLTA) (DLTA)
                 (SG) (PI) (PI) (SG) (SG) (SG)
 The electronic state is 2-SG.
 Alpha  occ. eigenvalues --  -25.33517 -25.31101  -1.45287  -1.25392  -0.67719
 Alpha  occ. eigenvalues --   -0.61562  -0.61562  -0.50518  -0.50518  -0.39460
 Alpha virt. eigenvalues --   -0.09006   0.16849   0.20856   0.20856   0.23195
 Alpha virt. eigenvalues --    0.26262   0.27569   0.27569   0.39149   0.56980
 Alpha virt. eigenvalues --    0.66666   0.66666   0.95434   1.23831   1.23831
 Alpha virt. eigenvalues --    1.34941   1.38369   1.38369   1.61705   1.66476
 Alpha virt. eigenvalues --    1.78474   1.78474   1.94930   1.95141   1.95145
 Alpha virt. eigenvalues --    2.00895   2.12140   2.12144   2.40395   2.53402
 Alpha virt. eigenvalues --    2.53402   3.41916   3.61955   3.61955   3.87032
 Alpha virt. eigenvalues --    5.91433   6.22201   6.22201   6.36924   6.36924
 Alpha virt. eigenvalues --    6.40432   6.40432   6.40512   6.52342   6.52345
 Alpha virt. eigenvalues --    6.64127   6.64127   6.66733   6.66733   6.72365
 Alpha virt. eigenvalues --    6.72368   6.95201   7.05879   7.05879   7.57090
 Alpha virt. eigenvalues --    8.90874   8.90874   8.96143   8.96146   9.06799
 Alpha virt. eigenvalues --    9.06802   9.32135   9.43314   9.43314  10.36092
 Alpha virt. eigenvalues --   66.76128  66.89573
  Beta  occ. eigenvalues --  -25.33631 -25.30203  -1.44052  -1.23800  -0.64297
  Beta  occ. eigenvalues --   -0.61232  -0.61232  -0.49519  -0.49519
  Beta virt. eigenvalues --   -0.17420  -0.05939   0.16436   0.18710   0.18710
  Beta virt. eigenvalues --    0.21477   0.25301   0.25301   0.30886   0.35210
  Beta virt. eigenvalues --    0.47700   0.47700   0.53096   0.79898   1.23925
  Beta virt. eigenvalues --    1.23925   1.36370   1.38299   1.38299   1.55221
  Beta virt. eigenvalues --    1.63605   1.78078   1.78078   1.89109   1.94970
  Beta virt. eigenvalues --    1.95201   1.95205   2.12297   2.12301   2.23518
  Beta virt. eigenvalues --    2.53487   2.53487   2.87065   2.87065   3.08871
  Beta virt. eigenvalues --    3.42533   5.92331   6.22376   6.22376   6.37252
  Beta virt. eigenvalues --    6.37252   6.41240   6.41240   6.43497   6.52528
  Beta virt. eigenvalues --    6.52531   6.64017   6.64017   6.67205   6.67205
  Beta virt. eigenvalues --    6.73242   6.73245   6.94710   7.06171   7.06171
  Beta virt. eigenvalues --    7.56756   8.92832   8.92832   8.96616   8.96619
  Beta virt. eigenvalues --    9.07962   9.07966   9.34076   9.45623   9.45623
  Beta virt. eigenvalues --   10.38326  66.76179  66.89337
          Condensed to atoms (all electrons):
               1          2          3
     1  H    0.825137  -0.003945   0.019617
     2  F   -0.003945   9.039863   0.014484
     3  F    0.019617   0.014484   9.074689
          Atomic-Atomic Spin Densities.
               1          2          3
     1  H    0.807320  -0.039629   0.021609
     2  F   -0.039629  -0.032417  -0.104106
     3  F    0.021609  -0.104106   0.469349
 Mulliken charges and spin densities:
               1          2
     1  H    0.159191   0.789300
     2  F   -0.050401  -0.176153
     3  F   -0.108790   0.386852
 Sum of Mulliken charges =  -0.00000   1.00000
 Mulliken charges and spin densities with hydrogens summed into heavy atoms:
               1          2
     2  F    0.108790   0.613148
     3  F   -0.108790   0.386852
 Electronic spatial extent (au):  <R**2>=             75.5618
 Charge=             -0.0000 electrons
 Dipole moment (field-independent basis, Debye):
    X=              0.0000    Y=              0.0000    Z=             -1.7098  Tot=              1.7098
 Quadrupole moment (field-independent basis, Debye-Ang):
   XX=            -11.0392   YY=            -11.0392   ZZ=             -6.9463
   XY=             -0.0000   XZ=              0.0000   YZ=              0.0000
 Traceless Quadrupole moment (field-independent basis, Debye-Ang):
   XX=             -1.3643   YY=             -1.3643   ZZ=              2.7286
   XY=             -0.0000   XZ=              0.0000   YZ=              0.0000
 Octapole moment (field-independent basis, Debye-Ang**2):
  XXX=              0.0000  YYY=              0.0000  ZZZ=             -5.1110  XYY=              0.0000
  XXY=              0.0000  XXZ=              1.1653  XZZ=              0.0000  YZZ=              0.0000
  YYZ=              1.1653  XYZ=             -0.0000
 Hexadecapole moment (field-independent basis, Debye-Ang**3):
 XXXX=             -7.4799 YYYY=             -7.4799 ZZZZ=            -48.8385 XXXY=              0.0000
 XXXZ=              0.0000 YYYX=              0.0000 YYYZ=              0.0000 ZZZX=              0.0000
 ZZZY=              0.0000 XXYY=             -2.4933 XXZZ=            -13.5533 YYZZ=            -13.5533
 XXYZ=              0.0000 YYXZ=              0.0000 ZZXY=             -0.0000
 N-N= 3.344230256578D+01 E-N=-5.452703597804D+02  KE= 1.995415099292D+02
                          Isotropic Fermi Contact Couplings
        Atom                 a.u.       MegaHertz       Gauss      10(-4) cm-1
     1  H(1)               0.25399    1135.28953     405.09953     378.69182
     2  F(19)              0.60480    2544.64488     907.99257     848.80217
     3  F(19)              0.04815     202.60154      72.29327      67.58060
 --------------------------------------------------------
       Center         ----  Spin Dipole Couplings  ----
                      3XX-RR        3YY-RR        3ZZ-RR
 --------------------------------------------------------
     1   Atom        0.004990      0.004990     -0.009980
     2   Atom        0.591290      0.591290     -1.182580
     3   Atom       -1.273909     -1.273909      2.547818
 --------------------------------------------------------
                        XY            XZ            YZ
 --------------------------------------------------------
     1   Atom        0.000000      0.000000      0.000000
     2   Atom        0.000000      0.000000      0.000000
     3   Atom        0.000000      0.000000      0.000000
 --------------------------------------------------------


 ---------------------------------------------------------------------------------
              Anisotropic Spin Dipole Couplings in Principal Axis System
 ---------------------------------------------------------------------------------

       Atom             a.u.   MegaHertz   Gauss  10(-4) cm-1        Axes

              Baa    -0.0100    -5.325    -1.900    -1.776  0.0000  0.0000  1.0000
     1 H(1)   Bbb     0.0050     2.662     0.950     0.888  1.0000  0.0000  0.0000
              Bcc     0.0050     2.662     0.950     0.888 -0.0000  1.0000  0.0000
 
              Baa    -1.1826  -593.922  -211.926  -198.111  0.0000  0.0000  1.0000
     2 F(19)  Bbb     0.5913   296.961   105.963    99.055  1.0000  0.0000  0.0000
              Bcc     0.5913   296.961   105.963    99.055 -0.0000  1.0000  0.0000
 
              Baa    -1.2739  -639.790  -228.293  -213.411 -0.0000  1.0000  0.0000
     3 F(19)  Bbb    -1.2739  -639.790  -228.293  -213.411  1.0000  0.0000  0.0000
              Bcc     2.5478  1279.580   456.586   426.822  0.0000  0.0000  1.0000
 

 ---------------------------------------------------------------------------------

 No NMR shielding tensors so no spin-rotation constants.
 Leave Link  601 at Sun Apr 18 10:06:04 2021, MaxMem=   104857600 cpu:              77.6 elap:               1.7
 (Enter /s/ls4/users/knvvv/bin/g16sse/l9999.exe)

 Test job not archived.
 1\1\GINC-N178\Stability\UM062X\Gen\F2H1(2)\KNVVV\18-Apr-2021\0\\#P M06
 2X/GEN Integral=UltraFineGrid SCF=NoSymm Stable=(RExt, Opt) IOp(1/33=1
 )\\Database calculations.\\0,2\H,0,0.,0.,-2.2312757093\F,0,0.,0.,-0.61
 62162784\F,0,0.,0.,0.8641358017\\Version=ES64L-G16RevA.03\State=2-SG\H
 F=-200.000825\S2=0.794939\S2-1=0.\S2A=0.750041\RMSD=1.942e-09\Dipole=0
 .,0.,-0.6726905\Quadrupole=-1.0143267,-1.0143267,2.0286533,0.,0.,0.\PG
 =C*V [C*(H1F1F1)]\\@


 "A LITTLE BIT GOES A LONG WAY"
 R.S. MULLIKEN AS QUOTED BY K. RUEDENBERG
 Job cpu time:       0 days  0 hours 46 minutes 57.5 seconds.
 Elapsed time:       0 days  0 hours  1 minutes  0.3 seconds.
 File lengths (MBytes):  RWF=     52 Int=      0 D2E=      0 Chk=      2 Scr=      1
 Normal termination of Gaussian 16 at Sun Apr 18 10:06:05 2021.
