 Entering Gaussian System, Link 0=/s/ls4/users/knvvv/bin/g16sse/g16
 Input=data/database/M062X--def2-QZVPPD--2733_05MeOHMeOH100_monA_S66x8.gjf
 Output=data/database/M062X--def2-QZVPPD--2733_05MeOHMeOH100_monA_S66x8.log
 Initial command:
 /s/ls4/users/knvvv/bin/g16sse/l1.exe "/s/ls4/users/knvvv/bin/scratch/Gau-29278.inp" -scrdir="/s/ls4/users/knvvv/bin/scratch/"
 Entering Link 1 = /s/ls4/users/knvvv/bin/g16sse/l1.exe PID=     29279.
  
 Copyright (c) 1988,1990,1992,1993,1995,1998,2003,2009,2016,
            Gaussian, Inc.  All Rights Reserved.
  
 This is part of the Gaussian(R) 16 program.  It is based on
 the Gaussian(R) 09 system (copyright 2009, Gaussian, Inc.),
 the Gaussian(R) 03 system (copyright 2003, Gaussian, Inc.),
 the Gaussian(R) 98 system (copyright 1998, Gaussian, Inc.),
 the Gaussian(R) 94 system (copyright 1995, Gaussian, Inc.),
 the Gaussian 92(TM) system (copyright 1992, Gaussian, Inc.),
 the Gaussian 90(TM) system (copyright 1990, Gaussian, Inc.),
 the Gaussian 88(TM) system (copyright 1988, Gaussian, Inc.),
 the Gaussian 86(TM) system (copyright 1986, Carnegie Mellon
 University), and the Gaussian 82(TM) system (copyright 1983,
 Carnegie Mellon University). Gaussian is a federally registered
 trademark of Gaussian, Inc.
  
 This software contains proprietary and confidential information,
 including trade secrets, belonging to Gaussian, Inc.
  
 This software is provided under written license and may be
 used, copied, transmitted, or stored only in accord with that
 written license.
  
 The following legend is applicable only to US Government
 contracts under FAR:
  
                    RESTRICTED RIGHTS LEGEND
  
 Use, reproduction and disclosure by the US Government is
 subject to restrictions as set forth in subparagraphs (a)
 and (c) of the Commercial Computer Software - Restricted
 Rights clause in FAR 52.227-19.
  
 Gaussian, Inc.
 340 Quinnipiac St., Bldg. 40, Wallingford CT 06492
  
  
 ---------------------------------------------------------------
 Warning -- This program may not be used in any manner that
 competes with the business of Gaussian, Inc. or will provide
 assistance to any competitor of Gaussian, Inc.  The licensee
 of this program is prohibited from giving any competitor of
 Gaussian, Inc. access to this program.  By using this program,
 the user acknowledges that Gaussian, Inc. is engaged in the
 business of creating and licensing software in the field of
 computational chemistry and represents and warrants to the
 licensee that it is not a competitor of Gaussian, Inc. and that
 it will not use this program in any manner prohibited above.
 ---------------------------------------------------------------
  

 Cite this work as:
 Gaussian 16, Revision A.03,
 M. J. Frisch, G. W. Trucks, H. B. Schlegel, G. E. Scuseria, 
 M. A. Robb, J. R. Cheeseman, G. Scalmani, V. Barone, 
 G. A. Petersson, H. Nakatsuji, X. Li, M. Caricato, A. V. Marenich, 
 J. Bloino, B. G. Janesko, R. Gomperts, B. Mennucci, H. P. Hratchian, 
 J. V. Ortiz, A. F. Izmaylov, J. L. Sonnenberg, D. Williams-Young, 
 F. Ding, F. Lipparini, F. Egidi, J. Goings, B. Peng, A. Petrone, 
 T. Henderson, D. Ranasinghe, V. G. Zakrzewski, J. Gao, N. Rega, 
 G. Zheng, W. Liang, M. Hada, M. Ehara, K. Toyota, R. Fukuda, 
 J. Hasegawa, M. Ishida, T. Nakajima, Y. Honda, O. Kitao, H. Nakai, 
 T. Vreven, K. Throssell, J. A. Montgomery, Jr., J. E. Peralta, 
 F. Ogliaro, M. J. Bearpark, J. J. Heyd, E. N. Brothers, K. N. Kudin, 
 V. N. Staroverov, T. A. Keith, R. Kobayashi, J. Normand, 
 K. Raghavachari, A. P. Rendell, J. C. Burant, S. S. Iyengar, 
 J. Tomasi, M. Cossi, J. M. Millam, M. Klene, C. Adamo, R. Cammi, 
 J. W. Ochterski, R. L. Martin, K. Morokuma, O. Farkas, 
 J. B. Foresman, and D. J. Fox, Gaussian, Inc., Wallingford CT, 2016.
 
 ******************************************
 Gaussian 16:  ES64L-G16RevA.03 25-Dec-2016
                17-Apr-2021 
 ******************************************
 %RWF=temp11_11750,70GB
 %nprocshared=48
 Will use up to   48 processors via shared memory.
 Default route: MaxDisk=80GB
 ----------------------------------------------------------------------
 #P M062X/GEN Integral=UltraFineGrid SCF=NoSymm Stable=(RExt, Opt) IOp(
 1/33=1)
 ----------------------------------------------------------------------
 1/33=1,38=1,172=1/1;
 2/12=2,17=6,18=5,40=1/2;
 3/5=7,11=2,25=1,30=1,74=-55,75=-5/1,2,3;
 4/9=2/1;
 5/5=2,38=5/2;
 6/7=2,8=2,9=2,10=2,28=1/1;
 8/6=1,10=90,11=11/1;
 9/8=-3,42=1,46=1/14;
 5/5=2,8=3,17=40,38=5/8(-2);
 6/7=2,8=2,9=2,10=2,28=1/1;
 99/5=1,9=1/99;
 Leave Link    1 at Sat Apr 17 21:52:22 2021, MaxMem=           0 cpu:               8.2 elap:               0.2
 (Enter /s/ls4/users/knvvv/bin/g16sse/l101.exe)
 ONIOM data not found on unit 2.
 ----------------------
 Database calculations.
 ----------------------
 TstMul:  ICh=     0
 TstMul:  Mul=     1
 TstMul:  ICh=     0
 TstMul:  Mul=     1
 Symbolic Z-matrix:
 Charge =  0 Multiplicity = 1
 O                    -0.63613  -0.02328   0.2806 
 H                     0.3081   -0.04708   0.07646 
 C                    -1.15207  -1.31129   0.01526 
 H                    -2.20995  -1.29627   0.26396 
 H                    -1.05661  -1.59267  -1.03619 
 H                    -0.67484  -2.08627   0.62051 
 
 RdStrC is calling ZToCFu for IStruc=1 NZ=     6.
 PrtBox:  NBox=     1 Levels=  1 BoxLen=    8.00 SMaxX=        4.76
          Shift=            4.176191            3.942484            1.958116
 Box      1 Number                   0 centers from      1 to      6:
 After GenITR:
 ITRead=  0  0  0  0  0  0
 MicOpt= -1 -1 -1 -1 -1 -1
 ITRead=  0  0  0  0  0  0
 MicOpt= -1 -1 -1 -1 -1 -1
 NAtoms=      6 NQM=        6 NQMF=       0 NMMI=      0 NMMIF=      0
                NMic=       0 NMicF=      0.
                    Isotopes and Nuclear Properties:
 (Nuclear quadrupole moments (NQMom) in fm**2, nuclear magnetic moments (NMagM)
  in nuclear magnetons)

  Atom         1           2           3           4           5           6
 IAtWgt=          16           1          12           1           1           1
 AtmWgt=  15.9949146   1.0078250  12.0000000   1.0078250   1.0078250   1.0078250
 NucSpn=           0           1           0           1           1           1
 AtZEff=  -0.0000000  -0.0000000  -0.0000000  -0.0000000  -0.0000000  -0.0000000
 NQMom=    0.0000000   0.0000000   0.0000000   0.0000000   0.0000000   0.0000000
 NMagM=    0.0000000   2.7928460   0.0000000   2.7928460   2.7928460   2.7928460
 AtZNuc=   8.0000000   1.0000000   6.0000000   1.0000000   1.0000000   1.0000000
 No MM parameters found.
 Leave Link  101 at Sat Apr 17 21:52:23 2021, MaxMem=   104857600 cpu:               8.6 elap:               0.2
 (Enter /s/ls4/users/knvvv/bin/g16sse/l202.exe)
                          Input orientation:                          
 ---------------------------------------------------------------------
 Center     Atomic      Atomic             Coordinates (Angstroms)
 Number     Number       Type             X           Y           Z
 ---------------------------------------------------------------------
      1          8           0       -0.636135   -0.023282    0.280599
      2          1           0        0.308097   -0.047079    0.076464
      3          6           0       -1.152065   -1.311288    0.015260
      4          1           0       -2.209945   -1.296265    0.263956
      5          1           0       -1.056610   -1.592671   -1.036191
      6          1           0       -0.674836   -2.086273    0.620511
 ---------------------------------------------------------------------
                    Distance matrix (angstroms):
                    1          2          3          4          5
     1  O    0.000000
     2  H    0.966340   0.000000
     3  C    1.412638   1.932368   0.000000
     4  H    2.024263   2.817119   1.086823   0.000000
     5  H    2.091343   2.342922   1.092628   1.763071   0.000000
     6  H    2.091164   2.328188   1.093014   1.762896   1.770327
                    6
     6  H    0.000000
 Stoichiometry    CH4O
 Framework group  C1[X(CH4O)]
 Deg. of freedom    12
 Full point group                 C1      NOp   1
 Largest Abelian subgroup         C1      NOp   1
 Largest concise Abelian subgroup C1      NOp   1
                         Standard orientation:                         
 ---------------------------------------------------------------------
 Center     Atomic      Atomic             Coordinates (Angstroms)
 Number     Number       Type             X           Y           Z
 ---------------------------------------------------------------------
      1          8           0       -0.746537    0.123287    0.000094
      2          1           0       -1.122762   -0.766806    0.000310
      3          6           0        0.658942   -0.018757    0.000170
      4          1           0        1.087473    0.979767   -0.022073
      5          1           0        1.029066   -0.524910    0.894962
      6          1           0        1.024867   -0.561804   -0.874975
 ---------------------------------------------------------------------
 Rotational constants (GHZ):         128.7775728          25.0163585          24.1026263
 Leave Link  202 at Sat Apr 17 21:52:23 2021, MaxMem=   104857600 cpu:               7.0 elap:               0.2
 (Enter /s/ls4/users/knvvv/bin/g16sse/l301.exe)
 General basis read from cards:  (5D, 7F)
 Centers:       2      4      5      6
 S 4 1.00
     Exponent=  1.9069169000D+02 Coefficients=  7.0815167000D-04
     Exponent=  2.8605532000D+01 Coefficients=  5.4678827000D-03
     Exponent=  6.5095943000D+00 Coefficients=  2.7966605000D-02
     Exponent=  1.8412455000D+00 Coefficients=  1.0764538000D-01
 S 1 1.00
     Exponent=  5.9853725000D-01 Coefficients=  1.0000000000D+00
 S 1 1.00
     Exponent=  2.1397624000D-01 Coefficients=  1.0000000000D+00
 S 1 1.00
     Exponent=  8.0316286000D-02 Coefficients=  1.0000000000D+00
 P 1 1.00
     Exponent=  2.2920000000D+00 Coefficients=  1.0000000000D+00
 P 1 1.00
     Exponent=  8.3800000000D-01 Coefficients=  1.0000000000D+00
 P 1 1.00
     Exponent=  2.9200000000D-01 Coefficients=  1.0000000000D+00
 P 1 1.00
     Exponent=  8.4063199228D-02 Coefficients=  1.0000000000D+00
 D 1 1.00
     Exponent=  2.0620000000D+00 Coefficients=  1.0000000000D+00
 D 1 1.00
     Exponent=  6.6200000000D-01 Coefficients=  1.0000000000D+00
 F 1 1.00
     Exponent=  1.3970000000D+00 Coefficients=  1.0000000000D+00
 ****
 Centers:       3
 S 8 1.00
     Exponent=  6.7025071029D+04 Coefficients=  3.8736308501D-05
     Exponent=  1.0039986538D+04 Coefficients=  3.0107917575D-04
     Exponent=  2.2849316911D+03 Coefficients=  1.5787918095D-03
     Exponent=  6.4714122130D+02 Coefficients=  6.6087087195D-03
     Exponent=  2.1109472335D+02 Coefficients=  2.3367123250D-02
     Exponent=  7.6177643862D+01 Coefficients=  7.0420716898D-02
     Exponent=  2.9633839163D+01 Coefficients=  1.7360344953D-01
     Exponent=  1.2187785081D+01 Coefficients=  3.2292305648D-01
 S 2 1.00
     Exponent=  5.3026006299D+01 Coefficients=  7.4897404492D-02
     Exponent=  1.5258502776D+01 Coefficients=  7.6136220983D-01
 S 1 1.00
     Exponent=  5.2403957464D+00 Coefficients=  1.0000000000D+00
 S 1 1.00
     Exponent=  2.2905022379D+00 Coefficients=  1.0000000000D+00
 S 1 1.00
     Exponent=  6.9673283006D-01 Coefficients=  1.0000000000D+00
 S 1 1.00
     Exponent=  2.7599337363D-01 Coefficients=  1.0000000000D+00
 S 1 1.00
     Exponent=  1.0739884389D-01 Coefficients=  1.0000000000D+00
 S 1 1.00
     Exponent=  4.4981404899D-02 Coefficients=  1.0000000000D+00
 P 5 1.00
     Exponent=  1.0512555082D+02 Coefficients=  8.4647553844D-04
     Exponent=  2.4884461066D+01 Coefficients=  6.6274038534D-03
     Exponent=  7.8637230826D+00 Coefficients=  3.0120390419D-02
     Exponent=  2.8407001835D+00 Coefficients=  9.9951435476D-02
     Exponent=  1.1227137335D+00 Coefficients=  2.3826299282D-01
 P 1 1.00
     Exponent=  4.6050725555D-01 Coefficients=  1.0000000000D+00
 P 1 1.00
     Exponent=  1.8937530913D-01 Coefficients=  1.0000000000D+00
 P 1 1.00
     Exponent=  7.5983791611D-02 Coefficients=  1.0000000000D+00
 D 1 1.00
     Exponent=  1.8480000000D+00 Coefficients=  1.0000000000D+00
 D 1 1.00
     Exponent=  6.4900000000D-01 Coefficients=  1.0000000000D+00
 D 1 1.00
     Exponent=  2.2800000000D-01 Coefficients=  1.0000000000D+00
 D 1 1.00
     Exponent=  7.6889830417D-02 Coefficients=  1.0000000000D+00
 F 1 1.00
     Exponent=  1.4190000000D+00 Coefficients=  1.0000000000D+00
 F 1 1.00
     Exponent=  4.8500000000D-01 Coefficients=  1.0000000000D+00
 G 1 1.00
     Exponent=  1.0110000000D+00 Coefficients=  1.0000000000D+00
 ****
 Centers:       1
 S 8 1.00
     Exponent=  1.1650646908D+05 Coefficients=  4.0383857939D-05
     Exponent=  1.7504349724D+04 Coefficients=  3.1255139004D-04
     Exponent=  3.9934513230D+03 Coefficients=  1.6341473495D-03
     Exponent=  1.1330063186D+03 Coefficients=  6.8283224757D-03
     Exponent=  3.6999569594D+02 Coefficients=  2.4124410221D-02
     Exponent=  1.3362074349D+02 Coefficients=  7.2730206154D-02
     Exponent=  5.2035643649D+01 Coefficients=  1.7934429892D-01
     Exponent=  2.1461939313D+01 Coefficients=  3.3059588895D-01
 S 2 1.00
     Exponent=  8.9835051252D+01 Coefficients=  9.6468652996D-02
     Exponent=  2.6428010844D+01 Coefficients=  9.4117481120D-01
 S 1 1.00
     Exponent=  9.2822824649D+00 Coefficients=  1.0000000000D+00
 S 1 1.00
     Exponent=  4.0947728533D+00 Coefficients=  1.0000000000D+00
 S 1 1.00
     Exponent=  1.3255349078D+00 Coefficients=  1.0000000000D+00
 S 1 1.00
     Exponent=  5.1877230787D-01 Coefficients=  1.0000000000D+00
 S 1 1.00
     Exponent=  1.9772676454D-01 Coefficients=  1.0000000000D+00
 S 1 1.00
     Exponent=  6.9638535104D-02 Coefficients=  1.0000000000D+00
 P 5 1.00
     Exponent=  1.9115255810D+02 Coefficients=  2.5115697705D-03
     Exponent=  4.5233356739D+01 Coefficients=  2.0039240864D-02
     Exponent=  1.4353465922D+01 Coefficients=  9.3609064762D-02
     Exponent=  5.2422371832D+00 Coefficients=  3.0618127124D-01
     Exponent=  2.0792418599D+00 Coefficients=  6.7810501439D-01
 P 1 1.00
     Exponent=  8.4282371424D-01 Coefficients=  1.0000000000D+00
 P 1 1.00
     Exponent=  3.3617694891D-01 Coefficients=  1.0000000000D+00
 P 1 1.00
     Exponent=  1.2863997974D-01 Coefficients=  1.0000000000D+00
 P 1 1.00
     Exponent=  4.3598162776D-02 Coefficients=  1.0000000000D+00
 D 1 1.00
     Exponent=  3.7750000000D+00 Coefficients=  1.0000000000D+00
 D 1 1.00
     Exponent=  1.3000000000D+00 Coefficients=  1.0000000000D+00
 D 1 1.00
     Exponent=  4.4400000000D-01 Coefficients=  1.0000000000D+00
 D 1 1.00
     Exponent=  1.2546378695D-01 Coefficients=  1.0000000000D+00
 F 1 1.00
     Exponent=  2.6660000000D+00 Coefficients=  1.0000000000D+00
 F 1 1.00
     Exponent=  8.5900000000D-01 Coefficients=  1.0000000000D+00
 G 1 1.00
     Exponent=  1.8460000000D+00 Coefficients=  1.0000000000D+00
 ****
 Ernie: Thresh=  0.10000D-02 Tol=  0.10000D-05 Strict=F.
 There are   313 symmetry adapted cartesian basis functions of A   symmetry.
 There are   261 symmetry adapted basis functions of A   symmetry.
   261 basis functions,   365 primitive gaussians,   313 cartesian basis functions
     9 alpha electrons        9 beta electrons
       nuclear repulsion energy        40.4173128582 Hartrees.
 IExCor= 4336 DFT=T Ex+Corr=M062X ExCW=0 ScaHFX=  0.540000
 ScaDFX=  1.000000  1.000000  1.000000  1.000000 ScalE2=  1.000000  1.000000
 IRadAn=      5 IRanWt=     -1 IRanGd=            0 ICorTp=0 IEmpDi=  4
 NAtoms=    6 NActive=    6 NUniq=    6 SFac= 1.00D+00 NAtFMM=   60 NAOKFM=F Big=F
 Integral buffers will be    131072 words long.
 Raffenetti 2 integral format.
 Two-electron integral symmetry is turned on.
 Leave Link  301 at Sat Apr 17 21:52:23 2021, MaxMem=   104857600 cpu:               8.2 elap:               0.2
 (Enter /s/ls4/users/knvvv/bin/g16sse/l302.exe)
 NPDir=0 NMtPBC=     1 NCelOv=     1 NCel=       1 NClECP=     1 NCelD=      1
         NCelK=      1 NCelE2=     1 NClLst=     1 CellRange=     0.0.
 One-electron integrals computed using PRISM.
 One-electron integral symmetry used in STVInt
 PrsmSu:  requested number of processors reduced to:   4 ShMem   1 Linda.
 PrsmSu:  requested number of processors reduced to:  21 ShMem   1 Linda.
 NBasis=   261 RedAO= T EigKep=  1.49D-06  NBF=   261
 NBsUse=   261 1.00D-06 EigRej= -1.00D+00 NBFU=   261
 Precomputing XC quadrature grid using
 IXCGrd= 4 IRadAn=           5 IRanWt=          -1 IRanGd=           0 AccXCQ= 0.00D+00.
 Generated NRdTot=       0 NPtTot=           0 NUsed=           0 NTot=          32
 NSgBfM=   313   313   313   313   313 MxSgAt=     6 MxSgA2=     6.
 Leave Link  302 at Sat Apr 17 21:52:27 2021, MaxMem=   104857600 cpu:             185.1 elap:               4.0
 (Enter /s/ls4/users/knvvv/bin/g16sse/l303.exe)
 DipDrv:  MaxL=1.
 Leave Link  303 at Sat Apr 17 21:52:28 2021, MaxMem=   104857600 cpu:              42.1 elap:               0.9
 (Enter /s/ls4/users/knvvv/bin/g16sse/l401.exe)
 SCF N**3 symmetry information disabled.
 ExpMin= 4.36D-02 ExpMax= 1.17D+05 ExpMxC= 1.13D+03 IAcc=3 IRadAn=         5 AccDes= 0.00D+00
 Harris functional with IExCor= 1009 and IRadAn=       5 diagonalized for initial guess.
 HarFok:  IExCor= 1009 AccDes= 0.00D+00 IRadAn=         5 IDoV= 1 UseB2=F ITyADJ=14
 ICtDFT=  3500011 ScaDFX=  1.000000  1.000000  1.000000  1.000000
 FoFCou: FMM=F IPFlag=           0 FMFlag=      100000 FMFlg1=           0
         NFxFlg=           0 DoJE=T BraDBF=F KetDBF=T FulRan=T
         wScrn=  0.000000 ICntrl=       500 IOpCl=  0 I1Cent=   200000004 NGrid=           0
         NMat0=    1 NMatS0=      1 NMatT0=    0 NMatD0=    1 NMtDS0=    0 NMtDT0=    0
 Petite list used in FoFCou.
 CoulSu:  requested number of processors reduced to:  21 ShMem   1 Linda.
 CoulSu:  requested number of processors reduced to:  21 ShMem   1 Linda.
 CoulSu:  requested number of processors reduced to:  21 ShMem   1 Linda.
 CoulSu:  requested number of processors reduced to:  21 ShMem   1 Linda.
 Harris En= -115.705166736610    
 JPrj=0 DoOrth=F DoCkMO=F.
 Leave Link  401 at Sat Apr 17 21:52:30 2021, MaxMem=   104857600 cpu:              84.3 elap:               2.0
 (Enter /s/ls4/users/knvvv/bin/g16sse/l502.exe)
 Integral symmetry usage will be decided dynamically.
 Closed shell SCF:
 Using DIIS extrapolation, IDIIS=  1040.
 NGot=   104857600 LenX=   104644058 LenY=   104545648
 Requested convergence on RMS density matrix=1.00D-08 within 128 cycles.
 Requested convergence on MAX density matrix=1.00D-06.
 Requested convergence on             energy=1.00D-06.
 No special actions if energy rises.
 Fock matrices will be formed incrementally for  20 cycles.

 Cycle   1  Pass 1  IDiag  1:
 FoFJK:  IHMeth= 1 ICntrl=       0 DoSepK=F KAlg= 0 I1Cent=           0 FoldK=F
 IRaf= 990000000 NMat=       1 IRICut=       1 DoRegI=T DoRafI=F ISym2E= 0 IDoP0=0 IntGTp=1.
 FoFCou: FMM=F IPFlag=           0 FMFlag=      100000 FMFlg1=           0
         NFxFlg=           0 DoJE=F BraDBF=F KetDBF=F FulRan=T
         wScrn=  0.000000 ICntrl=         0 IOpCl=  0 I1Cent=           0 NGrid=           0
         NMat0=    1 NMatS0=      1 NMatT0=    0 NMatD0=    1 NMtDS0=    0 NMtDT0=    0
 Symmetry not used in FoFCou.
 CoulSu:  requested number of processors reduced to:  21 ShMem   1 Linda.
 E= -115.641810551171    
 DIIS: error= 2.90D-02 at cycle   1 NSaved=   1.
 NSaved= 1 IEnMin= 1 EnMin= -115.641810551171     IErMin= 1 ErrMin= 2.90D-02
 ErrMax= 2.90D-02  0.00D+00 EMaxC= 1.00D-01 BMatC= 1.53D-01 BMatP= 1.53D-01
 IDIUse=3 WtCom= 7.10D-01 WtEn= 2.90D-01
 Coeff-Com:  0.100D+01
 Coeff-En:   0.100D+01
 Coeff:      0.100D+01
 Gap=     0.298 Goal=   None    Shift=    0.000
 GapD=    0.298 DampG=1.000 DampE=0.500 DampFc=0.5000 IDamp=-1.
 Damping current iteration by 5.00D-01
 RMSDP=4.86D-03 MaxDP=3.89D-01              OVMax= 1.38D-01

 Cycle   2  Pass 1  IDiag  1:
 RMSU=  1.64D-03    CP:  7.50D-01
 CoulSu:  requested number of processors reduced to:  21 ShMem   1 Linda.
 E= -115.683355344278     Delta-E=       -0.041544793107 Rises=F Damp=T
 DIIS: error= 1.57D-02 at cycle   2 NSaved=   2.
 NSaved= 2 IEnMin= 2 EnMin= -115.683355344278     IErMin= 2 ErrMin= 1.57D-02
 ErrMax= 1.57D-02  0.00D+00 EMaxC= 1.00D-01 BMatC= 1.87D-02 BMatP= 1.53D-01
 IDIUse=3 WtCom= 8.43D-01 WtEn= 1.57D-01
 Coeff-Com: -0.967D-01 0.110D+01
 Coeff-En:   0.000D+00 0.100D+01
 Coeff:     -0.815D-01 0.108D+01
 Gap=     0.379 Goal=   None    Shift=    0.000
 RMSDP=3.10D-03 MaxDP=1.61D-01 DE=-4.15D-02 OVMax= 8.33D-02

 Cycle   3  Pass 1  IDiag  1:
 RMSU=  1.47D-03    CP:  4.65D-01  2.10D+00
 CoulSu:  requested number of processors reduced to:  21 ShMem   1 Linda.
 E= -115.725302508180     Delta-E=       -0.041947163901 Rises=F Damp=F
 DIIS: error= 4.61D-03 at cycle   3 NSaved=   3.
 NSaved= 3 IEnMin= 3 EnMin= -115.725302508180     IErMin= 3 ErrMin= 4.61D-03
 ErrMax= 4.61D-03  0.00D+00 EMaxC= 1.00D-01 BMatC= 4.33D-03 BMatP= 1.87D-02
 IDIUse=3 WtCom= 9.54D-01 WtEn= 4.61D-02
 Coeff-Com: -0.123D+00 0.352D+00 0.771D+00
 Coeff-En:   0.000D+00 0.000D+00 0.100D+01
 Coeff:     -0.117D+00 0.335D+00 0.782D+00
 Gap=     0.362 Goal=   None    Shift=    0.000
 RMSDP=3.39D-04 MaxDP=2.22D-02 DE=-4.19D-02 OVMax= 1.53D-02

 Cycle   4  Pass 1  IDiag  1:
 RMSU=  3.05D-04    CP:  4.79D-01  2.09D+00  1.07D+00
 CoulSu:  requested number of processors reduced to:  21 ShMem   1 Linda.
 E= -115.727570355960     Delta-E=       -0.002267847780 Rises=F Damp=F
 DIIS: error= 2.07D-03 at cycle   4 NSaved=   4.
 NSaved= 4 IEnMin= 4 EnMin= -115.727570355960     IErMin= 4 ErrMin= 2.07D-03
 ErrMax= 2.07D-03  0.00D+00 EMaxC= 1.00D-01 BMatC= 6.69D-04 BMatP= 4.33D-03
 IDIUse=3 WtCom= 9.79D-01 WtEn= 2.07D-02
 Coeff-Com: -0.461D-01 0.994D-01 0.366D+00 0.581D+00
 Coeff-En:   0.000D+00 0.000D+00 0.702D-01 0.930D+00
 Coeff:     -0.452D-01 0.973D-01 0.360D+00 0.588D+00
 Gap=     0.361 Goal=   None    Shift=    0.000
 RMSDP=6.82D-05 MaxDP=3.19D-03 DE=-2.27D-03 OVMax= 6.25D-03

 Cycle   5  Pass 1  IDiag  1:
 RMSU=  5.24D-05    CP:  4.79D-01  2.08D+00  1.06D+00  8.84D-01
 CoulSu:  requested number of processors reduced to:  21 ShMem   1 Linda.
 E= -115.728065308582     Delta-E=       -0.000494952623 Rises=F Damp=F
 DIIS: error= 2.47D-04 at cycle   5 NSaved=   5.
 NSaved= 5 IEnMin= 5 EnMin= -115.728065308582     IErMin= 5 ErrMin= 2.47D-04
 ErrMax= 2.47D-04  0.00D+00 EMaxC= 1.00D-01 BMatC= 8.03D-06 BMatP= 6.69D-04
 IDIUse=3 WtCom= 9.98D-01 WtEn= 2.47D-03
 Coeff-Com: -0.644D-02 0.123D-01 0.624D-01 0.162D+00 0.770D+00
 Coeff-En:   0.000D+00 0.000D+00 0.000D+00 0.000D+00 0.100D+01
 Coeff:     -0.643D-02 0.123D-01 0.622D-01 0.161D+00 0.771D+00
 Gap=     0.361 Goal=   None    Shift=    0.000
 RMSDP=3.35D-05 MaxDP=1.72D-03 DE=-4.95D-04 OVMax= 6.05D-04

 Cycle   6  Pass 1  IDiag  1:
 RMSU=  2.12D-05    CP:  4.81D-01  2.07D+00  1.05D+00  9.09D-01  1.32D+00
 CoulSu:  requested number of processors reduced to:  21 ShMem   1 Linda.
 E= -115.728070970912     Delta-E=       -0.000005662330 Rises=F Damp=F
 DIIS: error= 1.69D-05 at cycle   6 NSaved=   6.
 NSaved= 6 IEnMin= 6 EnMin= -115.728070970912     IErMin= 6 ErrMin= 1.69D-05
 ErrMax= 1.69D-05  0.00D+00 EMaxC= 1.00D-01 BMatC= 7.66D-08 BMatP= 8.03D-06
 IDIUse=1 WtCom= 1.00D+00 WtEn= 0.00D+00
 Coeff-Com:  0.212D-02-0.425D-02-0.153D-01-0.200D-01-0.243D-01 0.106D+01
 Coeff:      0.212D-02-0.425D-02-0.153D-01-0.200D-01-0.243D-01 0.106D+01
 Gap=     0.361 Goal=   None    Shift=    0.000
 RMSDP=1.17D-05 MaxDP=6.61D-04 DE=-5.66D-06 OVMax= 1.06D-04

 Cycle   7  Pass 1  IDiag  1:
 RMSU=  2.24D-06    CP:  4.82D-01  2.07D+00  1.05D+00  9.26D-01  1.44D+00
                    CP:  1.24D+00
 CoulSu:  requested number of processors reduced to:  21 ShMem   1 Linda.
 E= -115.728071053556     Delta-E=       -0.000000082644 Rises=F Damp=F
 DIIS: error= 2.03D-06 at cycle   7 NSaved=   7.
 NSaved= 7 IEnMin= 7 EnMin= -115.728071053556     IErMin= 7 ErrMin= 2.03D-06
 ErrMax= 2.03D-06  0.00D+00 EMaxC= 1.00D-01 BMatC= 9.43D-10 BMatP= 7.66D-08
 IDIUse=1 WtCom= 1.00D+00 WtEn= 0.00D+00
 Coeff-Com: -0.376D-04 0.326D-04 0.133D-03-0.544D-03-0.757D-02-0.356D-01
 Coeff-Com:  0.104D+01
 Coeff:     -0.376D-04 0.326D-04 0.133D-03-0.544D-03-0.757D-02-0.356D-01
 Coeff:      0.104D+01
 Gap=     0.361 Goal=   None    Shift=    0.000
 RMSDP=1.47D-06 MaxDP=1.06D-04 DE=-8.26D-08 OVMax= 2.31D-05

 Cycle   8  Pass 1  IDiag  1:
 RMSU=  3.92D-07    CP:  4.82D-01  2.07D+00  1.05D+00  9.29D-01  1.44D+00
                    CP:  1.22D+00  1.15D+00
 CoulSu:  requested number of processors reduced to:  21 ShMem   1 Linda.
 E= -115.728071055276     Delta-E=       -0.000000001719 Rises=F Damp=F
 DIIS: error= 6.01D-07 at cycle   8 NSaved=   8.
 NSaved= 8 IEnMin= 8 EnMin= -115.728071055276     IErMin= 8 ErrMin= 6.01D-07
 ErrMax= 6.01D-07  0.00D+00 EMaxC= 1.00D-01 BMatC= 6.01D-11 BMatP= 9.43D-10
 IDIUse=1 WtCom= 1.00D+00 WtEn= 0.00D+00
 Coeff-Com: -0.545D-04 0.109D-03 0.307D-03 0.331D-03-0.222D-03-0.287D-01
 Coeff-Com:  0.415D-01 0.987D+00
 Coeff:     -0.545D-04 0.109D-03 0.307D-03 0.331D-03-0.222D-03-0.287D-01
 Coeff:      0.415D-01 0.987D+00
 Gap=     0.361 Goal=   None    Shift=    0.000
 RMSDP=1.38D-07 MaxDP=4.81D-06 DE=-1.72D-09 OVMax= 4.82D-06

 Cycle   9  Pass 1  IDiag  1:
 RMSU=  7.82D-08    CP:  4.82D-01  2.07D+00  1.05D+00  9.29D-01  1.44D+00
                    CP:  1.23D+00  1.18D+00  1.06D+00
 CoulSu:  requested number of processors reduced to:  21 ShMem   1 Linda.
 E= -115.728071055372     Delta-E=       -0.000000000097 Rises=F Damp=F
 DIIS: error= 1.54D-07 at cycle   9 NSaved=   9.
 NSaved= 9 IEnMin= 9 EnMin= -115.728071055372     IErMin= 9 ErrMin= 1.54D-07
 ErrMax= 1.54D-07  0.00D+00 EMaxC= 1.00D-01 BMatC= 4.05D-12 BMatP= 6.01D-11
 IDIUse=1 WtCom= 1.00D+00 WtEn= 0.00D+00
 Coeff-Com: -0.670D-05 0.160D-04 0.272D-04 0.258D-04-0.214D-04-0.428D-02
 Coeff-Com: -0.309D-01 0.159D+00 0.877D+00
 Coeff:     -0.670D-05 0.160D-04 0.272D-04 0.258D-04-0.214D-04-0.428D-02
 Coeff:     -0.309D-01 0.159D+00 0.877D+00
 Gap=     0.361 Goal=   None    Shift=    0.000
 RMSDP=3.92D-08 MaxDP=2.20D-06 DE=-9.69D-11 OVMax= 1.05D-06

 Cycle  10  Pass 1  IDiag  1:
 RMSU=  9.22D-09    CP:  4.82D-01  2.07D+00  1.05D+00  9.29D-01  1.44D+00
                    CP:  1.23D+00  1.18D+00  1.07D+00  1.14D+00
 CoulSu:  requested number of processors reduced to:  21 ShMem   1 Linda.
 E= -115.728071055378     Delta-E=       -0.000000000006 Rises=F Damp=F
 DIIS: error= 3.56D-08 at cycle  10 NSaved=  10.
 NSaved=10 IEnMin=10 EnMin= -115.728071055378     IErMin=10 ErrMin= 3.56D-08
 ErrMax= 3.56D-08  0.00D+00 EMaxC= 1.00D-01 BMatC= 1.53D-13 BMatP= 4.05D-12
 IDIUse=1 WtCom= 1.00D+00 WtEn= 0.00D+00
 Coeff-Com:  0.187D-05-0.346D-05-0.544D-05-0.676D-05 0.223D-04 0.120D-02
 Coeff-Com: -0.988D-05-0.564D-01-0.244D-01 0.108D+01
 Coeff:      0.187D-05-0.346D-05-0.544D-05-0.676D-05 0.223D-04 0.120D-02
 Coeff:     -0.988D-05-0.564D-01-0.244D-01 0.108D+01
 Gap=     0.361 Goal=   None    Shift=    0.000
 RMSDP=7.39D-09 MaxDP=4.82D-07 DE=-5.57D-12 OVMax= 2.86D-07

 SCF Done:  E(RM062X) =  -115.728071055     A.U. after   10 cycles
            NFock= 10  Conv=0.74D-08     -V/T= 2.0038
 KE= 1.152848156663D+02 PE=-3.524232549937D+02 EE= 8.099305541388D+01
 Leave Link  502 at Sat Apr 17 21:52:56 2021, MaxMem=   104857600 cpu:             843.3 elap:              26.0
 (Enter /s/ls4/users/knvvv/bin/g16sse/l601.exe)
 Copying SCF densities to generalized density rwf, IOpCl= 0 IROHF=0.

 **********************************************************************

            Population analysis using the SCF density.

 **********************************************************************

 Orbital symmetries:
       Occupied  (A) (A) (A) (A) (A) (A) (A) (A) (A)
       Virtual   (A) (A) (A) (A) (A) (A) (A) (A) (A) (A) (A) (A)
                 (A) (A) (A) (A) (A) (A) (A) (A) (A) (A) (A) (A)
                 (A) (A) (A) (A) (A) (A) (A) (A) (A) (A) (A) (A)
                 (A) (A) (A) (A) (A) (A) (A) (A) (A) (A) (A) (A)
                 (A) (A) (A) (A) (A) (A) (A) (A) (A) (A) (A) (A)
                 (A) (A) (A) (A) (A) (A) (A) (A) (A) (A) (A) (A)
                 (A) (A) (A) (A) (A) (A) (A) (A) (A) (A) (A) (A)
                 (A) (A) (A) (A) (A) (A) (A) (A) (A) (A) (A) (A)
                 (A) (A) (A) (A) (A) (A) (A) (A) (A) (A) (A) (A)
                 (A) (A) (A) (A) (A) (A) (A) (A) (A) (A) (A) (A)
                 (A) (A) (A) (A) (A) (A) (A) (A) (A) (A) (A) (A)
                 (A) (A) (A) (A) (A) (A) (A) (A) (A) (A) (A) (A)
                 (A) (A) (A) (A) (A) (A) (A) (A) (A) (A) (A) (A)
                 (A) (A) (A) (A) (A) (A) (A) (A) (A) (A) (A) (A)
                 (A) (A) (A) (A) (A) (A) (A) (A) (A) (A) (A) (A)
                 (A) (A) (A) (A) (A) (A) (A) (A) (A) (A) (A) (A)
                 (A) (A) (A) (A) (A) (A) (A) (A) (A) (A) (A) (A)
                 (A) (A) (A) (A) (A) (A) (A) (A) (A) (A) (A) (A)
                 (A) (A) (A) (A) (A) (A) (A) (A) (A) (A) (A) (A)
                 (A) (A) (A) (A) (A) (A) (A) (A) (A) (A) (A) (A)
                 (A) (A) (A) (A) (A) (A) (A) (A) (A) (A) (A) (A)
 The electronic state is 1-A.
 Alpha  occ. eigenvalues --  -19.62709 -10.58003  -1.14498  -0.77656  -0.58779
 Alpha  occ. eigenvalues --   -0.51798  -0.50140  -0.41264  -0.35640
 Alpha virt. eigenvalues --    0.00483   0.03240   0.05067   0.05316   0.08775
 Alpha virt. eigenvalues --    0.11412   0.11685   0.13449   0.13721   0.16716
 Alpha virt. eigenvalues --    0.18844   0.19921   0.21882   0.21943   0.22977
 Alpha virt. eigenvalues --    0.23078   0.25692   0.25863   0.25894   0.28118
 Alpha virt. eigenvalues --    0.28616   0.31003   0.31435   0.31723   0.33125
 Alpha virt. eigenvalues --    0.34264   0.35762   0.36256   0.36867   0.40630
 Alpha virt. eigenvalues --    0.45541   0.46339   0.47831   0.49384   0.52117
 Alpha virt. eigenvalues --    0.53641   0.55244   0.55477   0.57008   0.62277
 Alpha virt. eigenvalues --    0.63206   0.68415   0.69456   0.70887   0.74179
 Alpha virt. eigenvalues --    0.79039   0.80173   0.83671   0.86035   0.87720
 Alpha virt. eigenvalues --    0.90184   0.91721   0.94372   0.99170   1.07628
 Alpha virt. eigenvalues --    1.09341   1.11209   1.11830   1.17440   1.19844
 Alpha virt. eigenvalues --    1.20391   1.22555   1.26333   1.33998   1.37791
 Alpha virt. eigenvalues --    1.44439   1.46654   1.48048   1.48719   1.59883
 Alpha virt. eigenvalues --    1.61366   1.62626   1.81357   1.89122   1.89397
 Alpha virt. eigenvalues --    1.92910   1.93589   1.95545   1.98434   2.00988
 Alpha virt. eigenvalues --    2.01562   2.02961   2.10081   2.17453   2.17989
 Alpha virt. eigenvalues --    2.19468   2.22630   2.25468   2.33095   2.34800
 Alpha virt. eigenvalues --    2.39276   2.42350   2.49774   2.55080   2.57599
 Alpha virt. eigenvalues --    2.60758   2.62089   2.64973   2.68464   2.71740
 Alpha virt. eigenvalues --    2.77986   2.81862   2.88283   2.92201   2.94731
 Alpha virt. eigenvalues --    2.94826   2.95729   2.97816   3.04963   3.11088
 Alpha virt. eigenvalues --    3.13051   3.20269   3.23987   3.31480   3.34283
 Alpha virt. eigenvalues --    3.37721   3.38974   3.51987   3.59592   3.62484
 Alpha virt. eigenvalues --    3.82518   3.84398   3.86400   3.92339   3.95105
 Alpha virt. eigenvalues --    3.98158   4.07289   4.17729   4.18946   4.23647
 Alpha virt. eigenvalues --    4.30196   4.43660   4.50578   4.54791   4.58134
 Alpha virt. eigenvalues --    4.75975   5.18348   5.22562   5.34225   5.35196
 Alpha virt. eigenvalues --    5.41442   5.44334   5.52518   5.53063   5.65248
 Alpha virt. eigenvalues --    5.66238   5.69888   5.70505   5.73518   5.79982
 Alpha virt. eigenvalues --    5.83249   5.96577   5.97167   6.03935   6.06172
 Alpha virt. eigenvalues --    6.09666   6.14974   6.15404   6.17632   6.26928
 Alpha virt. eigenvalues --    6.28962   6.32600   6.44269   6.50354   6.53453
 Alpha virt. eigenvalues --    6.59089   6.64607   6.71304   6.73556   6.82109
 Alpha virt. eigenvalues --    6.89919   6.90117   7.21431   7.22130   7.23772
 Alpha virt. eigenvalues --    7.28124   7.29650   7.30596   7.32951   7.40811
 Alpha virt. eigenvalues --    7.42903   7.45641   7.49291   7.50271   7.52707
 Alpha virt. eigenvalues --    7.54039   7.66389   7.67393   7.68588   7.75274
 Alpha virt. eigenvalues --    7.84362   7.89284   7.97422   8.01337   8.11903
 Alpha virt. eigenvalues --    8.12535   8.15885   8.17353   8.23236   8.23506
 Alpha virt. eigenvalues --    8.25616   8.25977   8.35368   8.43035   8.49536
 Alpha virt. eigenvalues --    8.50132   8.59173   8.62063   8.69796   8.70945
 Alpha virt. eigenvalues --    8.72808   8.81733   8.87989   9.24067   9.34156
 Alpha virt. eigenvalues --    9.50507   9.53274   9.58386   9.64984   9.65141
 Alpha virt. eigenvalues --    9.81053   9.83798   9.87417   9.93694  10.08981
 Alpha virt. eigenvalues --   10.17436  10.26379  10.34636  10.66642  10.83996
 Alpha virt. eigenvalues --   11.11838  11.28172  11.34071  11.51252  11.59895
 Alpha virt. eigenvalues --   11.69638  11.73697  11.80889  11.88699  12.13891
 Alpha virt. eigenvalues --   12.45922  12.54231  12.95605  13.13145  13.65593
 Alpha virt. eigenvalues --   13.88013  14.28885  16.44472  28.99405  48.33481
 Alpha virt. eigenvalues --  146.45370 251.41728
          Condensed to atoms (all electrons):
               1          2          3          4          5          6
     1  O    8.281558   0.218975   0.268872  -0.048120  -0.080320  -0.080785
     2  H    0.218975   0.439575  -0.027391   0.026617  -0.023794  -0.024419
     3  C    0.268872  -0.027391   5.102032   0.369958   0.328017   0.326225
     4  H   -0.048120   0.026617   0.369958   0.815005  -0.151631  -0.152290
     5  H   -0.080320  -0.023794   0.328017  -0.151631   0.901203  -0.172281
     6  H   -0.080785  -0.024419   0.326225  -0.152290  -0.172281   0.905358
 Mulliken charges:
               1
     1  O   -0.560180
     2  H    0.390436
     3  C   -0.367713
     4  H    0.140461
     5  H    0.198805
     6  H    0.198192
 Sum of Mulliken charges =  -0.00000
 Mulliken charges with hydrogens summed into heavy atoms:
               1
     1  O   -0.169745
     3  C    0.169745
 Electronic spatial extent (au):  <R**2>=             84.3123
 Charge=             -0.0000 electrons
 Dipole moment (field-independent basis, Debye):
    X=              0.8380    Y=             -1.4823    Z=             -0.0017  Tot=              1.7028
 Quadrupole moment (field-independent basis, Debye-Ang):
   XX=            -13.1271   YY=            -12.2179   ZZ=            -13.8670
   XY=              2.2202   XZ=             -0.0031   YZ=             -0.0023
 Traceless Quadrupole moment (field-independent basis, Debye-Ang):
   XX=             -0.0564   YY=              0.8527   ZZ=             -0.7963
   XY=              2.2202   XZ=             -0.0031   YZ=             -0.0023
 Octapole moment (field-independent basis, Debye-Ang**2):
  XXX=             -4.2269  YYY=             -0.5145  ZZZ=              0.0326  XYY=             -1.7937
  XXY=             -2.2668  XXZ=             -0.0029  XZZ=             -0.2230  YZZ=             -0.6648
  YYZ=             -0.0386  XYZ=             -0.0036
 Hexadecapole moment (field-independent basis, Debye-Ang**3):
 XXXX=            -63.1290 YYYY=            -20.5442 ZZZZ=            -20.4547 XXXY=              3.8975
 XXXZ=             -0.0050 YYYX=              3.1285 YYYZ=             -0.0048 ZZZX=              0.0353
 ZZZY=             -0.0005 XXYY=            -12.7773 XXZZ=            -14.7351 YYZZ=             -6.9939
 XXYZ=             -0.0085 YYXZ=             -0.0446 ZZXY=             -0.2016
 N-N= 4.041731285823D+01 E-N=-3.524232554148D+02  KE= 1.152848156663D+02
 PrsmSu:  requested number of processors reduced to:  21 ShMem   1 Linda.
 No NMR shielding tensors so no spin-rotation constants.
 Leave Link  601 at Sat Apr 17 21:52:58 2021, MaxMem=   104857600 cpu:              88.8 elap:               2.1
 (Enter /s/ls4/users/knvvv/bin/g16sse/l801.exe)
 DoSCS=F DFT=T ScalE2(SS,OS)=  1.000000  1.000000
 Range of M.O.s used for correlation:     1   261
 NBasis=   261 NAE=     9 NBE=     9 NFC=     0 NFV=     0
 NROrb=    261 NOA=     9 NOB=     9 NVA=   252 NVB=   252

 **** Warning!!: The largest alpha MO coefficient is  0.23103203D+03

 Leave Link  801 at Sat Apr 17 21:52:58 2021, MaxMem=   104857600 cpu:               3.5 elap:               0.1
 (Enter /s/ls4/users/knvvv/bin/g16sse/l914.exe)
 RHF ground state
 Doing stability rather than CIS.
 Two-electron integrals replicated using symmetry.
 MDV=   104857600 DFT=T DoStab=T Mixed=T DoRPA=F DoScal=F NonHer=F
 Making orbital integer symmetry assigments:
 Orbital symmetries:
       Occupied  (A) (A) (A) (A) (A) (A) (A) (A) (A)
       Virtual   (A) (A) (A) (A) (A) (A) (A) (A) (A) (A) (A) (A)
                 (A) (A) (A) (A) (A) (A) (A) (A) (A) (A) (A) (A)
                 (A) (A) (A) (A) (A) (A) (A) (A) (A) (A) (A) (A)
                 (A) (A) (A) (A) (A) (A) (A) (A) (A) (A) (A) (A)
                 (A) (A) (A) (A) (A) (A) (A) (A) (A) (A) (A) (A)
                 (A) (A) (A) (A) (A) (A) (A) (A) (A) (A) (A) (A)
                 (A) (A) (A) (A) (A) (A) (A) (A) (A) (A) (A) (A)
                 (A) (A) (A) (A) (A) (A) (A) (A) (A) (A) (A) (A)
                 (A) (A) (A) (A) (A) (A) (A) (A) (A) (A) (A) (A)
                 (A) (A) (A) (A) (A) (A) (A) (A) (A) (A) (A) (A)
                 (A) (A) (A) (A) (A) (A) (A) (A) (A) (A) (A) (A)
                 (A) (A) (A) (A) (A) (A) (A) (A) (A) (A) (A) (A)
                 (A) (A) (A) (A) (A) (A) (A) (A) (A) (A) (A) (A)
                 (A) (A) (A) (A) (A) (A) (A) (A) (A) (A) (A) (A)
                 (A) (A) (A) (A) (A) (A) (A) (A) (A) (A) (A) (A)
                 (A) (A) (A) (A) (A) (A) (A) (A) (A) (A) (A) (A)
                 (A) (A) (A) (A) (A) (A) (A) (A) (A) (A) (A) (A)
                 (A) (A) (A) (A) (A) (A) (A) (A) (A) (A) (A) (A)
                 (A) (A) (A) (A) (A) (A) (A) (A) (A) (A) (A) (A)
                 (A) (A) (A) (A) (A) (A) (A) (A) (A) (A) (A) (A)
                 (A) (A) (A) (A) (A) (A) (A) (A) (A) (A) (A) (A)
    24 initial guesses have been made.
 Convergence on wavefunction:    0.001000000000000
 Davidson Disk Diagonalization:  ConvIn= 1.00D-03 SkipCon=T Conv= 1.00D-03.
 Max sub-space:  2000 roots to seek:    24 dimension of matrix:         4536
 Iteration     1 Dimension    24 NMult     0 NNew     24
 Estimated number of processors is:   19
 CISAX will form     1 AO SS matrices at one time.
 NMat=     1 NSing=     1 JSym2X= 0.
 FoFJK:  IHMeth= 1 ICntrl=       0 DoSepK=F KAlg= 0 I1Cent=           0 FoldK=F
 IRaf= 990000000 NMat=       1 IRICut=       1 DoRegI=T DoRafI=F ISym2E= 0 IDoP0=0 IntGTp=1.
 FoFCou: FMM=F IPFlag=           0 FMFlag=      100000 FMFlg1=           0
         NFxFlg=           0 DoJE=F BraDBF=F KetDBF=F FulRan=T
         wScrn=  0.000000 ICntrl=         0 IOpCl=  0 I1Cent=           0 NGrid=           0
         NMat0=    1 NMatS0=      1 NMatT0=    0 NMatD0=    1 NMtDS0=    0 NMtDT0=    0
 Symmetry not used in FoFCou.
 CoulSu:  requested number of processors reduced to:  21 ShMem   1 Linda.
 NMat=     1 NSing=     1 JSym2X= 0.
 CoulSu:  requested number of processors reduced to:  21 ShMem   1 Linda.
 NMat=     1 NSing=     1 JSym2X= 0.
 CoulSu:  requested number of processors reduced to:  21 ShMem   1 Linda.
 NMat=     1 NSing=     1 JSym2X= 0.
 CoulSu:  requested number of processors reduced to:  21 ShMem   1 Linda.
 NMat=     1 NSing=     1 JSym2X= 0.
 CoulSu:  requested number of processors reduced to:  21 ShMem   1 Linda.
 NMat=     1 NSing=     1 JSym2X= 0.
 CoulSu:  requested number of processors reduced to:  21 ShMem   1 Linda.
 NMat=     1 NSing=     1 JSym2X= 0.
 CoulSu:  requested number of processors reduced to:  21 ShMem   1 Linda.
 NMat=     1 NSing=     1 JSym2X= 0.
 CoulSu:  requested number of processors reduced to:  21 ShMem   1 Linda.
 NMat=     1 NSing=     1 JSym2X= 0.
 CoulSu:  requested number of processors reduced to:  21 ShMem   1 Linda.
 NMat=     1 NSing=     1 JSym2X= 0.
 CoulSu:  requested number of processors reduced to:  21 ShMem   1 Linda.
 NMat=     1 NSing=     1 JSym2X= 0.
 CoulSu:  requested number of processors reduced to:  21 ShMem   1 Linda.
 NMat=     1 NSing=     1 JSym2X= 0.
 CoulSu:  requested number of processors reduced to:  21 ShMem   1 Linda.
 NMat=     1 NSing=     0 JSym2X= 0.
 CoulSu:  requested number of processors reduced to:  21 ShMem   1 Linda.
 NMat=     1 NSing=     0 JSym2X= 0.
 CoulSu:  requested number of processors reduced to:  21 ShMem   1 Linda.
 NMat=     1 NSing=     0 JSym2X= 0.
 CoulSu:  requested number of processors reduced to:  21 ShMem   1 Linda.
 NMat=     1 NSing=     0 JSym2X= 0.
 CoulSu:  requested number of processors reduced to:  21 ShMem   1 Linda.
 NMat=     1 NSing=     0 JSym2X= 0.
 CoulSu:  requested number of processors reduced to:  21 ShMem   1 Linda.
 NMat=     1 NSing=     0 JSym2X= 0.
 CoulSu:  requested number of processors reduced to:  21 ShMem   1 Linda.
 NMat=     1 NSing=     0 JSym2X= 0.
 CoulSu:  requested number of processors reduced to:  21 ShMem   1 Linda.
 NMat=     1 NSing=     0 JSym2X= 0.
 CoulSu:  requested number of processors reduced to:  21 ShMem   1 Linda.
 NMat=     1 NSing=     0 JSym2X= 0.
 CoulSu:  requested number of processors reduced to:  21 ShMem   1 Linda.
 NMat=     1 NSing=     0 JSym2X= 0.
 CoulSu:  requested number of processors reduced to:  21 ShMem   1 Linda.
 NMat=     1 NSing=     0 JSym2X= 0.
 CoulSu:  requested number of processors reduced to:  21 ShMem   1 Linda.
 NMat=     1 NSing=     0 JSym2X= 0.
 CoulSu:  requested number of processors reduced to:  21 ShMem   1 Linda.
 New state      1 was old state      2
 Excitation Energies [eV] at current iteration:
 Root      1 :     7.042241398073127
 Root      2 :     7.204967706064387
 Root      3 :     8.189269386946890
 Root      4 :     8.299746761949820
 Root      5 :     8.724639886278364
 Root      6 :     8.800634011882154
 Root      7 :     8.803426578469479
 Root      8 :     8.827169519666212
 Root      9 :     8.923514058072529
 Root     10 :     9.078385224377413
 Root     11 :     9.461905084577442
 Root     12 :     9.614524865960906
 Root     13 :     9.642141561794990
 Root     14 :     9.888968907406317
 Root     15 :    10.167667334934930
 Root     16 :    10.239973108178280
 Root     17 :    10.290384125752960
 Root     18 :    10.348552312562530
 Root     19 :    10.371128399073300
 Root     20 :    10.389612420344540
 Root     21 :    10.560301213339720
 Root     22 :    10.873566128264880
 Root     23 :    10.907447279003580
 Root     24 :    11.034777984434850
 Iteration     2 Dimension    48 NMult    24 NNew     24
 Estimated number of processors is:   19
 CISAX will form     1 AO SS matrices at one time.
 NMat=     1 NSing=     1 JSym2X= 0.
 CoulSu:  requested number of processors reduced to:  21 ShMem   1 Linda.
 NMat=     1 NSing=     1 JSym2X= 0.
 CoulSu:  requested number of processors reduced to:  21 ShMem   1 Linda.
 NMat=     1 NSing=     1 JSym2X= 0.
 CoulSu:  requested number of processors reduced to:  21 ShMem   1 Linda.
 NMat=     1 NSing=     1 JSym2X= 0.
 CoulSu:  requested number of processors reduced to:  21 ShMem   1 Linda.
 NMat=     1 NSing=     1 JSym2X= 0.
 CoulSu:  requested number of processors reduced to:  21 ShMem   1 Linda.
 NMat=     1 NSing=     1 JSym2X= 0.
 CoulSu:  requested number of processors reduced to:  21 ShMem   1 Linda.
 NMat=     1 NSing=     1 JSym2X= 0.
 CoulSu:  requested number of processors reduced to:  21 ShMem   1 Linda.
 NMat=     1 NSing=     1 JSym2X= 0.
 CoulSu:  requested number of processors reduced to:  21 ShMem   1 Linda.
 NMat=     1 NSing=     1 JSym2X= 0.
 CoulSu:  requested number of processors reduced to:  21 ShMem   1 Linda.
 NMat=     1 NSing=     1 JSym2X= 0.
 CoulSu:  requested number of processors reduced to:  21 ShMem   1 Linda.
 NMat=     1 NSing=     1 JSym2X= 0.
 CoulSu:  requested number of processors reduced to:  21 ShMem   1 Linda.
 NMat=     1 NSing=     1 JSym2X= 0.
 CoulSu:  requested number of processors reduced to:  21 ShMem   1 Linda.
 NMat=     1 NSing=     0 JSym2X= 0.
 CoulSu:  requested number of processors reduced to:  21 ShMem   1 Linda.
 NMat=     1 NSing=     0 JSym2X= 0.
 CoulSu:  requested number of processors reduced to:  21 ShMem   1 Linda.
 NMat=     1 NSing=     0 JSym2X= 0.
 CoulSu:  requested number of processors reduced to:  21 ShMem   1 Linda.
 NMat=     1 NSing=     0 JSym2X= 0.
 CoulSu:  requested number of processors reduced to:  21 ShMem   1 Linda.
 NMat=     1 NSing=     0 JSym2X= 0.
 CoulSu:  requested number of processors reduced to:  21 ShMem   1 Linda.
 NMat=     1 NSing=     0 JSym2X= 0.
 CoulSu:  requested number of processors reduced to:  21 ShMem   1 Linda.
 NMat=     1 NSing=     0 JSym2X= 0.
 CoulSu:  requested number of processors reduced to:  21 ShMem   1 Linda.
 NMat=     1 NSing=     0 JSym2X= 0.
 CoulSu:  requested number of processors reduced to:  21 ShMem   1 Linda.
 NMat=     1 NSing=     0 JSym2X= 0.
 CoulSu:  requested number of processors reduced to:  21 ShMem   1 Linda.
 NMat=     1 NSing=     0 JSym2X= 0.
 CoulSu:  requested number of processors reduced to:  21 ShMem   1 Linda.
 NMat=     1 NSing=     0 JSym2X= 0.
 CoulSu:  requested number of processors reduced to:  21 ShMem   1 Linda.
 NMat=     1 NSing=     0 JSym2X= 0.
 CoulSu:  requested number of processors reduced to:  21 ShMem   1 Linda.
 Root      1 not converged, maximum delta is    0.112282121130192
 Excitation Energies [eV] at current iteration:
 Root      1 :     6.555166245919684   Change is   -0.487075152153444
 Root      2 :     7.007592604424322   Change is   -0.197375101640065
 Root      3 :     7.869543659671918   Change is   -0.319725727274973
 Root      4 :     8.150940066921809   Change is   -0.148806695028011
 Root      5 :     8.246735005518573   Change is   -0.553899006363582
 Root      6 :     8.529369661647747   Change is   -0.195270224630616
 Root      7 :     8.633243604481612   Change is   -0.193925915184600
 Root      8 :     8.679457151801484   Change is   -0.123969426667994
 Root      9 :     8.705130086518245   Change is   -0.218383971554283
 Root     10 :     8.882284685675788   Change is   -0.196100538701625
 Root     11 :     9.165265401349020   Change is   -0.296639683228422
 Root     12 :     9.234077939332138   Change is   -0.408063622462852
 Root     13 :     9.427523854414842   Change is   -0.187001011546063
 Root     14 :     9.690468554568627   Change is   -0.198500352837690
 Root     15 :     9.747085595559206   Change is   -0.420581739375729
 Root     16 :     9.822709049956345   Change is   -0.548419349116960
 Root     17 :    10.041347685500500   Change is   -0.198625422677785
 Root     18 :    10.089846269869760   Change is   -0.200537855883193
 Root     19 :    10.209251075854470   Change is   -0.139301236708055
 Root     20 :    10.270521482543260   Change is   -0.119090937801277
 Root     21 :    10.350104585388690   Change is   -0.210196627951038
 Root     22 :    10.569255795590210   Change is   -0.465522188844638
 Root     23 :    10.739057073827930   Change is   -0.168390205175642
 Root     24 :    10.750980422542440   Change is   -0.122585705722439
 Iteration     3 Dimension    54 NMult    48 NNew      6
 Estimated number of processors is:   19
 CISAX will form     1 AO SS matrices at one time.
 NMat=     1 NSing=     1 JSym2X= 0.
 CoulSu:  requested number of processors reduced to:  21 ShMem   1 Linda.
 NMat=     1 NSing=     1 JSym2X= 0.
 CoulSu:  requested number of processors reduced to:  21 ShMem   1 Linda.
 NMat=     1 NSing=     1 JSym2X= 0.
 CoulSu:  requested number of processors reduced to:  21 ShMem   1 Linda.
 NMat=     1 NSing=     0 JSym2X= 0.
 CoulSu:  requested number of processors reduced to:  21 ShMem   1 Linda.
 NMat=     1 NSing=     0 JSym2X= 0.
 CoulSu:  requested number of processors reduced to:  21 ShMem   1 Linda.
 NMat=     1 NSing=     0 JSym2X= 0.
 CoulSu:  requested number of processors reduced to:  21 ShMem   1 Linda.
 Root      1 not converged, maximum delta is    0.011389426468470
 Excitation Energies [eV] at current iteration:
 Root      1 :     6.529218803782072   Change is   -0.025947442137611
 Root      2 :     6.994821418564155   Change is   -0.012771185860168
 Root      3 :     7.832068296747526   Change is   -0.037475362924392
 Root      4 :     8.139813967789419   Change is   -0.011126099132391
 Root      5 :     8.169088645504493   Change is   -0.077646360014080
 Root      6 :     8.669380908138926   Change is   -0.010076243662560
 Iteration     4 Dimension    60 NMult    54 NNew      6
 Estimated number of processors is:   19
 CISAX will form     1 AO SS matrices at one time.
 NMat=     1 NSing=     1 JSym2X= 0.
 CoulSu:  requested number of processors reduced to:  21 ShMem   1 Linda.
 NMat=     1 NSing=     1 JSym2X= 0.
 CoulSu:  requested number of processors reduced to:  21 ShMem   1 Linda.
 NMat=     1 NSing=     1 JSym2X= 0.
 CoulSu:  requested number of processors reduced to:  21 ShMem   1 Linda.
 NMat=     1 NSing=     0 JSym2X= 0.
 CoulSu:  requested number of processors reduced to:  21 ShMem   1 Linda.
 NMat=     1 NSing=     0 JSym2X= 0.
 CoulSu:  requested number of processors reduced to:  21 ShMem   1 Linda.
 NMat=     1 NSing=     0 JSym2X= 0.
 CoulSu:  requested number of processors reduced to:  21 ShMem   1 Linda.
 Root      1 not converged, maximum delta is    0.004089726880827
 Excitation Energies [eV] at current iteration:
 Root      1 :     6.528008314310412   Change is   -0.001210489471660
 Root      2 :     6.994518171186375   Change is   -0.000303247377780
 Root      3 :     7.829145489336558   Change is   -0.002922807410967
 Root      4 :     8.139067654824284   Change is   -0.000746312965133
 Root      5 :     8.159422619638654   Change is   -0.009666025865838
 Root      6 :     8.668173298342225   Change is   -0.001207609796700
 Iteration     5 Dimension    66 NMult    60 NNew      6
 Estimated number of processors is:   19
 CISAX will form     1 AO SS matrices at one time.
 NMat=     1 NSing=     1 JSym2X= 0.
 CoulSu:  requested number of processors reduced to:  21 ShMem   1 Linda.
 NMat=     1 NSing=     1 JSym2X= 0.
 CoulSu:  requested number of processors reduced to:  21 ShMem   1 Linda.
 NMat=     1 NSing=     1 JSym2X= 0.
 CoulSu:  requested number of processors reduced to:  21 ShMem   1 Linda.
 NMat=     1 NSing=     0 JSym2X= 0.
 CoulSu:  requested number of processors reduced to:  21 ShMem   1 Linda.
 NMat=     1 NSing=     0 JSym2X= 0.
 CoulSu:  requested number of processors reduced to:  21 ShMem   1 Linda.
 NMat=     1 NSing=     0 JSym2X= 0.
 CoulSu:  requested number of processors reduced to:  21 ShMem   1 Linda.
 Root      1 has converged.
 Excitation Energies [eV] at current iteration:
 Root      1 :     6.527951871682733   Change is   -0.000056442627679
 Root      2 :     6.994510247781858   Change is   -0.000007923404517
 Root      3 :     7.828930151946258   Change is   -0.000215337390300
 Root      4 :     8.139033437474538   Change is   -0.000034217349747
 Root      5 :     8.158526435185992   Change is   -0.000896184452663
 Root      6 :     8.668102724997260   Change is   -0.000070573344965
 Convergence achieved on expansion vectors.
 ***********************************************************************
 Stability analysis using <AA,BB:AA,BB> singles matrix:
 ***********************************************************************
 1PDM for each excited state written to RWF  633
 Ground to excited state transition densities written to RWF  633

 Eigenvectors of the stability matrix:
 
 Eigenvector   1:      Triplet-A    Eigenvalue= 0.2398978  <S**2>=2.000
       9 -> 10         0.57799
       9 -> 11         0.27353
       9 -> 14        -0.19667
       9 -> 19        -0.12102
 The wavefunction is stable under the perturbations considered.
 Leave Link  914 at Sat Apr 17 21:58:41 2021, MaxMem=   104857600 cpu:           13809.4 elap:             342.7
 (Enter /s/ls4/users/knvvv/bin/g16sse/l508.exe)
 The wavefunction is already stable.
 Leave Link  508 at Sat Apr 17 21:58:41 2021, MaxMem=   104857600 cpu:               2.2 elap:               0.1
 (Enter /s/ls4/users/knvvv/bin/g16sse/l601.exe)
 Copying SCF densities to generalized density rwf, IOpCl= 0 IROHF=0.

 **********************************************************************

            Population analysis using the SCF density.

 **********************************************************************

 Orbital symmetries:
       Occupied  (A) (A) (A) (A) (A) (A) (A) (A) (A)
       Virtual   (A) (A) (A) (A) (A) (A) (A) (A) (A) (A) (A) (A)
                 (A) (A) (A) (A) (A) (A) (A) (A) (A) (A) (A) (A)
                 (A) (A) (A) (A) (A) (A) (A) (A) (A) (A) (A) (A)
                 (A) (A) (A) (A) (A) (A) (A) (A) (A) (A) (A) (A)
                 (A) (A) (A) (A) (A) (A) (A) (A) (A) (A) (A) (A)
                 (A) (A) (A) (A) (A) (A) (A) (A) (A) (A) (A) (A)
                 (A) (A) (A) (A) (A) (A) (A) (A) (A) (A) (A) (A)
                 (A) (A) (A) (A) (A) (A) (A) (A) (A) (A) (A) (A)
                 (A) (A) (A) (A) (A) (A) (A) (A) (A) (A) (A) (A)
                 (A) (A) (A) (A) (A) (A) (A) (A) (A) (A) (A) (A)
                 (A) (A) (A) (A) (A) (A) (A) (A) (A) (A) (A) (A)
                 (A) (A) (A) (A) (A) (A) (A) (A) (A) (A) (A) (A)
                 (A) (A) (A) (A) (A) (A) (A) (A) (A) (A) (A) (A)
                 (A) (A) (A) (A) (A) (A) (A) (A) (A) (A) (A) (A)
                 (A) (A) (A) (A) (A) (A) (A) (A) (A) (A) (A) (A)
                 (A) (A) (A) (A) (A) (A) (A) (A) (A) (A) (A) (A)
                 (A) (A) (A) (A) (A) (A) (A) (A) (A) (A) (A) (A)
                 (A) (A) (A) (A) (A) (A) (A) (A) (A) (A) (A) (A)
                 (A) (A) (A) (A) (A) (A) (A) (A) (A) (A) (A) (A)
                 (A) (A) (A) (A) (A) (A) (A) (A) (A) (A) (A) (A)
                 (A) (A) (A) (A) (A) (A) (A) (A) (A) (A) (A) (A)
 The electronic state is 1-A.
 Alpha  occ. eigenvalues --  -19.62709 -10.58003  -1.14498  -0.77656  -0.58779
 Alpha  occ. eigenvalues --   -0.51798  -0.50140  -0.41264  -0.35640
 Alpha virt. eigenvalues --    0.00483   0.03240   0.05067   0.05316   0.08775
 Alpha virt. eigenvalues --    0.11412   0.11685   0.13449   0.13721   0.16716
 Alpha virt. eigenvalues --    0.18844   0.19921   0.21882   0.21943   0.22977
 Alpha virt. eigenvalues --    0.23078   0.25692   0.25863   0.25894   0.28118
 Alpha virt. eigenvalues --    0.28616   0.31003   0.31435   0.31723   0.33125
 Alpha virt. eigenvalues --    0.34264   0.35762   0.36256   0.36867   0.40630
 Alpha virt. eigenvalues --    0.45541   0.46339   0.47831   0.49384   0.52117
 Alpha virt. eigenvalues --    0.53641   0.55244   0.55477   0.57008   0.62277
 Alpha virt. eigenvalues --    0.63206   0.68415   0.69456   0.70887   0.74179
 Alpha virt. eigenvalues --    0.79039   0.80173   0.83671   0.86035   0.87720
 Alpha virt. eigenvalues --    0.90184   0.91721   0.94372   0.99170   1.07628
 Alpha virt. eigenvalues --    1.09341   1.11209   1.11830   1.17440   1.19844
 Alpha virt. eigenvalues --    1.20391   1.22555   1.26333   1.33998   1.37791
 Alpha virt. eigenvalues --    1.44439   1.46654   1.48048   1.48719   1.59883
 Alpha virt. eigenvalues --    1.61366   1.62626   1.81357   1.89122   1.89397
 Alpha virt. eigenvalues --    1.92910   1.93589   1.95545   1.98434   2.00988
 Alpha virt. eigenvalues --    2.01562   2.02961   2.10081   2.17453   2.17989
 Alpha virt. eigenvalues --    2.19468   2.22630   2.25468   2.33095   2.34800
 Alpha virt. eigenvalues --    2.39276   2.42350   2.49774   2.55080   2.57599
 Alpha virt. eigenvalues --    2.60758   2.62089   2.64973   2.68464   2.71740
 Alpha virt. eigenvalues --    2.77986   2.81862   2.88283   2.92201   2.94731
 Alpha virt. eigenvalues --    2.94826   2.95729   2.97816   3.04963   3.11088
 Alpha virt. eigenvalues --    3.13051   3.20269   3.23987   3.31480   3.34283
 Alpha virt. eigenvalues --    3.37721   3.38974   3.51987   3.59592   3.62484
 Alpha virt. eigenvalues --    3.82518   3.84398   3.86400   3.92339   3.95105
 Alpha virt. eigenvalues --    3.98158   4.07289   4.17729   4.18946   4.23647
 Alpha virt. eigenvalues --    4.30196   4.43660   4.50578   4.54791   4.58134
 Alpha virt. eigenvalues --    4.75975   5.18348   5.22562   5.34225   5.35196
 Alpha virt. eigenvalues --    5.41442   5.44334   5.52518   5.53063   5.65248
 Alpha virt. eigenvalues --    5.66238   5.69888   5.70505   5.73518   5.79982
 Alpha virt. eigenvalues --    5.83249   5.96577   5.97167   6.03935   6.06172
 Alpha virt. eigenvalues --    6.09666   6.14974   6.15404   6.17632   6.26928
 Alpha virt. eigenvalues --    6.28962   6.32600   6.44269   6.50354   6.53453
 Alpha virt. eigenvalues --    6.59089   6.64607   6.71304   6.73556   6.82109
 Alpha virt. eigenvalues --    6.89919   6.90117   7.21431   7.22130   7.23772
 Alpha virt. eigenvalues --    7.28124   7.29650   7.30596   7.32951   7.40811
 Alpha virt. eigenvalues --    7.42903   7.45641   7.49291   7.50271   7.52707
 Alpha virt. eigenvalues --    7.54039   7.66389   7.67393   7.68588   7.75274
 Alpha virt. eigenvalues --    7.84362   7.89284   7.97422   8.01337   8.11903
 Alpha virt. eigenvalues --    8.12535   8.15885   8.17353   8.23236   8.23506
 Alpha virt. eigenvalues --    8.25616   8.25977   8.35368   8.43035   8.49536
 Alpha virt. eigenvalues --    8.50132   8.59173   8.62063   8.69796   8.70945
 Alpha virt. eigenvalues --    8.72808   8.81733   8.87989   9.24067   9.34156
 Alpha virt. eigenvalues --    9.50507   9.53274   9.58386   9.64984   9.65141
 Alpha virt. eigenvalues --    9.81053   9.83798   9.87417   9.93694  10.08981
 Alpha virt. eigenvalues --   10.17436  10.26379  10.34636  10.66642  10.83996
 Alpha virt. eigenvalues --   11.11838  11.28172  11.34071  11.51252  11.59895
 Alpha virt. eigenvalues --   11.69638  11.73697  11.80889  11.88699  12.13891
 Alpha virt. eigenvalues --   12.45922  12.54231  12.95605  13.13145  13.65593
 Alpha virt. eigenvalues --   13.88013  14.28885  16.44472  28.99405  48.33481
 Alpha virt. eigenvalues --  146.45370 251.41728
          Condensed to atoms (all electrons):
               1          2          3          4          5          6
     1  O    8.281558   0.218975   0.268872  -0.048120  -0.080320  -0.080785
     2  H    0.218975   0.439575  -0.027391   0.026617  -0.023794  -0.024419
     3  C    0.268872  -0.027391   5.102032   0.369958   0.328017   0.326225
     4  H   -0.048120   0.026617   0.369958   0.815005  -0.151631  -0.152290
     5  H   -0.080320  -0.023794   0.328017  -0.151631   0.901203  -0.172281
     6  H   -0.080785  -0.024419   0.326225  -0.152290  -0.172281   0.905358
 Mulliken charges:
               1
     1  O   -0.560180
     2  H    0.390436
     3  C   -0.367713
     4  H    0.140461
     5  H    0.198805
     6  H    0.198192
 Sum of Mulliken charges =  -0.00000
 Mulliken charges with hydrogens summed into heavy atoms:
               1
     1  O   -0.169745
     3  C    0.169745
 Electronic spatial extent (au):  <R**2>=             84.3123
 Charge=             -0.0000 electrons
 Dipole moment (field-independent basis, Debye):
    X=              0.8380    Y=             -1.4823    Z=             -0.0017  Tot=              1.7028
 Quadrupole moment (field-independent basis, Debye-Ang):
   XX=            -13.1271   YY=            -12.2179   ZZ=            -13.8670
   XY=              2.2202   XZ=             -0.0031   YZ=             -0.0023
 Traceless Quadrupole moment (field-independent basis, Debye-Ang):
   XX=             -0.0564   YY=              0.8527   ZZ=             -0.7963
   XY=              2.2202   XZ=             -0.0031   YZ=             -0.0023
 Octapole moment (field-independent basis, Debye-Ang**2):
  XXX=             -4.2269  YYY=             -0.5145  ZZZ=              0.0326  XYY=             -1.7937
  XXY=             -2.2668  XXZ=             -0.0029  XZZ=             -0.2230  YZZ=             -0.6648
  YYZ=             -0.0386  XYZ=             -0.0036
 Hexadecapole moment (field-independent basis, Debye-Ang**3):
 XXXX=            -63.1290 YYYY=            -20.5442 ZZZZ=            -20.4547 XXXY=              3.8975
 XXXZ=             -0.0050 YYYX=              3.1285 YYYZ=             -0.0048 ZZZX=              0.0353
 ZZZY=             -0.0005 XXYY=            -12.7773 XXZZ=            -14.7351 YYZZ=             -6.9939
 XXYZ=             -0.0085 YYXZ=             -0.0446 ZZXY=             -0.2016
 N-N= 4.041731285823D+01 E-N=-3.524232554148D+02  KE= 1.152848156663D+02
 PrsmSu:  requested number of processors reduced to:  21 ShMem   1 Linda.
 No NMR shielding tensors so no spin-rotation constants.
 Leave Link  601 at Sat Apr 17 21:58:43 2021, MaxMem=   104857600 cpu:              92.9 elap:               2.1
 (Enter /s/ls4/users/knvvv/bin/g16sse/l9999.exe)

 Test job not archived.
 1\1\GINC-N157\Stability\RM062X\Gen\C1H4O1\KNVVV\17-Apr-2021\0\\#P M062
 X/GEN Integral=UltraFineGrid SCF=NoSymm Stable=(RExt, Opt) IOp(1/33=1)
 \\Database calculations.\\0,1\O,0,-0.636134928,-0.023282411,0.28059932
 1\H,0,0.308097372,-0.047078748,0.076463691\C,0,-1.152065407,-1.3112877
 83,0.015259549\H,0,-2.209945023,-1.296265392,0.263955863\H,0,-1.056610
 24,-1.592670859,-1.036190606\H,0,-0.674835746,-2.086272765,0.620511449
 \\Version=ES64L-G16RevA.03\State=1-A\HF=-115.7280711\RMSD=7.386e-09\Di
 pole=0.3567408,-0.5207253,-0.2244919\Quadrupole=1.7501397,-1.1245416,-
 0.6255981,0.7548924,-0.2728277,-0.3130902\PG=C01 [X(C1H4O1)]\\@


 Ideas are like rabbits. You get a couple and learn
 how to handle them, and pretty soon you have a dozen.
                                    -- John Steinbeck
 Job cpu time:       0 days  4 hours 13 minutes 13.0 seconds.
 Elapsed time:       0 days  0 hours  6 minutes 21.0 seconds.
 File lengths (MBytes):  RWF=    143 Int=      0 D2E=      0 Chk=      9 Scr=      1
 Normal termination of Gaussian 16 at Sat Apr 17 21:58:43 2021.
