 Entering Gaussian System, Link 0=/s/ls4/users/knvvv/bin/g16sse/g16
 Input=data/database/M062X--def2-QZVPPD--15_B5_Butanediol65.gjf
 Output=data/database/M062X--def2-QZVPPD--15_B5_Butanediol65.log
 Initial command:
 /s/ls4/users/knvvv/bin/g16sse/l1.exe "/s/ls4/users/knvvv/bin/scratch/Gau-45783.inp" -scrdir="/s/ls4/users/knvvv/bin/scratch/"
 Entering Link 1 = /s/ls4/users/knvvv/bin/g16sse/l1.exe PID=     45784.
  
 Copyright (c) 1988,1990,1992,1993,1995,1998,2003,2009,2016,
            Gaussian, Inc.  All Rights Reserved.
  
 This is part of the Gaussian(R) 16 program.  It is based on
 the Gaussian(R) 09 system (copyright 2009, Gaussian, Inc.),
 the Gaussian(R) 03 system (copyright 2003, Gaussian, Inc.),
 the Gaussian(R) 98 system (copyright 1998, Gaussian, Inc.),
 the Gaussian(R) 94 system (copyright 1995, Gaussian, Inc.),
 the Gaussian 92(TM) system (copyright 1992, Gaussian, Inc.),
 the Gaussian 90(TM) system (copyright 1990, Gaussian, Inc.),
 the Gaussian 88(TM) system (copyright 1988, Gaussian, Inc.),
 the Gaussian 86(TM) system (copyright 1986, Carnegie Mellon
 University), and the Gaussian 82(TM) system (copyright 1983,
 Carnegie Mellon University). Gaussian is a federally registered
 trademark of Gaussian, Inc.
  
 This software contains proprietary and confidential information,
 including trade secrets, belonging to Gaussian, Inc.
  
 This software is provided under written license and may be
 used, copied, transmitted, or stored only in accord with that
 written license.
  
 The following legend is applicable only to US Government
 contracts under FAR:
  
                    RESTRICTED RIGHTS LEGEND
  
 Use, reproduction and disclosure by the US Government is
 subject to restrictions as set forth in subparagraphs (a)
 and (c) of the Commercial Computer Software - Restricted
 Rights clause in FAR 52.227-19.
  
 Gaussian, Inc.
 340 Quinnipiac St., Bldg. 40, Wallingford CT 06492
  
  
 ---------------------------------------------------------------
 Warning -- This program may not be used in any manner that
 competes with the business of Gaussian, Inc. or will provide
 assistance to any competitor of Gaussian, Inc.  The licensee
 of this program is prohibited from giving any competitor of
 Gaussian, Inc. access to this program.  By using this program,
 the user acknowledges that Gaussian, Inc. is engaged in the
 business of creating and licensing software in the field of
 computational chemistry and represents and warrants to the
 licensee that it is not a competitor of Gaussian, Inc. and that
 it will not use this program in any manner prohibited above.
 ---------------------------------------------------------------
  

 Cite this work as:
 Gaussian 16, Revision A.03,
 M. J. Frisch, G. W. Trucks, H. B. Schlegel, G. E. Scuseria, 
 M. A. Robb, J. R. Cheeseman, G. Scalmani, V. Barone, 
 G. A. Petersson, H. Nakatsuji, X. Li, M. Caricato, A. V. Marenich, 
 J. Bloino, B. G. Janesko, R. Gomperts, B. Mennucci, H. P. Hratchian, 
 J. V. Ortiz, A. F. Izmaylov, J. L. Sonnenberg, D. Williams-Young, 
 F. Ding, F. Lipparini, F. Egidi, J. Goings, B. Peng, A. Petrone, 
 T. Henderson, D. Ranasinghe, V. G. Zakrzewski, J. Gao, N. Rega, 
 G. Zheng, W. Liang, M. Hada, M. Ehara, K. Toyota, R. Fukuda, 
 J. Hasegawa, M. Ishida, T. Nakajima, Y. Honda, O. Kitao, H. Nakai, 
 T. Vreven, K. Throssell, J. A. Montgomery, Jr., J. E. Peralta, 
 F. Ogliaro, M. J. Bearpark, J. J. Heyd, E. N. Brothers, K. N. Kudin, 
 V. N. Staroverov, T. A. Keith, R. Kobayashi, J. Normand, 
 K. Raghavachari, A. P. Rendell, J. C. Burant, S. S. Iyengar, 
 J. Tomasi, M. Cossi, J. M. Millam, M. Klene, C. Adamo, R. Cammi, 
 J. W. Ochterski, R. L. Martin, K. Morokuma, O. Farkas, 
 J. B. Foresman, and D. J. Fox, Gaussian, Inc., Wallingford CT, 2016.
 
 ******************************************
 Gaussian 16:  ES64L-G16RevA.03 25-Dec-2016
                17-Apr-2021 
 ******************************************
 %RWF=temp10_63358,70GB
 %nprocshared=48
 Will use up to   48 processors via shared memory.
 Default route: MaxDisk=80GB
 ----------------------------------------------------------------------
 #P M062X/GEN Integral=UltraFineGrid SCF=NoSymm Stable=(RExt, Opt) IOp(
 1/33=1)
 ----------------------------------------------------------------------
 1/33=1,38=1,172=1/1;
 2/12=2,17=6,18=5,40=1/2;
 3/5=7,11=2,25=1,30=1,74=-55,75=-5/1,2,3;
 4/9=2/1;
 5/5=2,38=5/2;
 6/7=2,8=2,9=2,10=2,28=1/1;
 8/6=1,10=90,11=11/1;
 9/8=-3,42=1,46=1/14;
 5/5=2,8=3,17=40,38=5/8(-2);
 6/7=2,8=2,9=2,10=2,28=1/1;
 99/5=1,9=1/99;
 Leave Link    1 at Sat Apr 17 10:45:31 2021, MaxMem=           0 cpu:              10.6 elap:               0.2
 (Enter /s/ls4/users/knvvv/bin/g16sse/l101.exe)
 ONIOM data not found on unit 2.
 ----------------------
 Database calculations.
 ----------------------
 TstMul:  ICh=     0
 TstMul:  Mul=     1
 TstMul:  ICh=     0
 TstMul:  Mul=     1
 Symbolic Z-matrix:
 Charge =  0 Multiplicity = 1
 C                     1.39202  -0.00571   0.57255 
 H                     0.87164  -0.53203   1.37498 
 O                     1.48821  -0.85106  -0.58455 
 C                     0.62596   1.24693   0.17526 
 H                     0.43979   1.82325   1.0852 
 H                     1.26144   1.85866  -0.46782 
 C                    -0.7009    0.98543  -0.54889 
 H                     2.05069  -1.59693  -0.35759 
 H                     2.38944   0.26888   0.9235 
 C                    -1.6723    0.06473   0.1819 
 O                    -1.27211  -1.3041    0.18682 
 H                    -0.46983  -1.37115  -0.34368 
 H                    -2.65492   0.1361   -0.2909 
 H                    -1.78497   0.39158   1.22069 
 H                    -1.19686   1.94558  -0.70842 
 H                    -0.50393   0.56914  -1.53907 
 
 RdStrC is calling ZToCFu for IStruc=1 NZ=    16.
 PrtBox:  NBox=     2 Levels=  1 BoxLen=    8.00 SMaxX=        9.53
          Shift=            5.017064            3.017764            2.908413
 Box      1 Number                   0 centers from      1 to     14:
 Box      2 Number                   4 centers from     15 to     16:
 After GenITR:
 ITRead=  0  0  0  0  0  0  0  0  0  0  0  0  0  0  0  0
 MicOpt= -1 -1 -1 -1 -1 -1 -1 -1 -1 -1 -1 -1 -1 -1 -1 -1
 ITRead=  0  0  0  0  0  0  0  0  0  0  0  0  0  0  0  0
 MicOpt= -1 -1 -1 -1 -1 -1 -1 -1 -1 -1 -1 -1 -1 -1 -1 -1
 NAtoms=     16 NQM=       16 NQMF=       0 NMMI=      0 NMMIF=      0
                NMic=       0 NMicF=      0.
                    Isotopes and Nuclear Properties:
 (Nuclear quadrupole moments (NQMom) in fm**2, nuclear magnetic moments (NMagM)
  in nuclear magnetons)

  Atom         1           2           3           4           5           6           7           8           9          10
 IAtWgt=          12           1          16          12           1           1          12           1           1          12
 AtmWgt=  12.0000000   1.0078250  15.9949146  12.0000000   1.0078250   1.0078250  12.0000000   1.0078250   1.0078250  12.0000000
 NucSpn=           0           1           0           0           1           1           0           1           1           0
 AtZEff=  -0.0000000  -0.0000000  -0.0000000  -0.0000000  -0.0000000  -0.0000000  -0.0000000  -0.0000000  -0.0000000  -0.0000000
 NQMom=    0.0000000   0.0000000   0.0000000   0.0000000   0.0000000   0.0000000   0.0000000   0.0000000   0.0000000   0.0000000
 NMagM=    0.0000000   2.7928460   0.0000000   0.0000000   2.7928460   2.7928460   0.0000000   2.7928460   2.7928460   0.0000000
 AtZNuc=   6.0000000   1.0000000   8.0000000   6.0000000   1.0000000   1.0000000   6.0000000   1.0000000   1.0000000   6.0000000

  Atom        11          12          13          14          15          16
 IAtWgt=          16           1           1           1           1           1
 AtmWgt=  15.9949146   1.0078250   1.0078250   1.0078250   1.0078250   1.0078250
 NucSpn=           0           1           1           1           1           1
 AtZEff=  -0.0000000  -0.0000000  -0.0000000  -0.0000000  -0.0000000  -0.0000000
 NQMom=    0.0000000   0.0000000   0.0000000   0.0000000   0.0000000   0.0000000
 NMagM=    0.0000000   2.7928460   2.7928460   2.7928460   2.7928460   2.7928460
 AtZNuc=   8.0000000   1.0000000   1.0000000   1.0000000   1.0000000   1.0000000
 No MM parameters found.
 Leave Link  101 at Sat Apr 17 10:45:31 2021, MaxMem=   104857600 cpu:               7.4 elap:               0.2
 (Enter /s/ls4/users/knvvv/bin/g16sse/l202.exe)
                          Input orientation:                          
 ---------------------------------------------------------------------
 Center     Atomic      Atomic             Coordinates (Angstroms)
 Number     Number       Type             X           Y           Z
 ---------------------------------------------------------------------
      1          6           0        1.392021   -0.005714    0.572548
      2          1           0        0.871641   -0.532025    1.374976
      3          8           0        1.488209   -0.851062   -0.584548
      4          6           0        0.625963    1.246932    0.175258
      5          1           0        0.439793    1.823253    1.085205
      6          1           0        1.261437    1.858656   -0.467823
      7          6           0       -0.700902    0.985430   -0.548887
      8          1           0        2.050690   -1.596932   -0.357590
      9          1           0        2.389444    0.268884    0.923502
     10          6           0       -1.672301    0.064726    0.181897
     11          8           0       -1.272107   -1.304104    0.186824
     12          1           0       -0.469827   -1.371151   -0.343681
     13          1           0       -2.654916    0.136101   -0.290904
     14          1           0       -1.784973    0.391577    1.220694
     15          1           0       -1.196857    1.945578   -0.708420
     16          1           0       -0.503934    0.569140   -1.539066
 ---------------------------------------------------------------------
                    Distance matrix (angstroms):
                    1          2          3          4          5
     1  C    0.000000
     2  H    1.091645   0.000000
     3  O    1.436223   2.078864   0.000000
     4  C    1.521120   2.159715   2.392144   0.000000
     5  H    2.124777   2.412010   3.322531   1.093073   0.000000
     6  H    2.138995   3.043551   2.721695   1.091598   1.757341
     7  C    2.572996   2.911496   2.857653   1.534060   2.161802
     8  H    1.957288   2.350738   0.961362   3.225110   4.046519
     9  H    1.092440   1.774545   2.083439   2.150886   2.498670
    10  C    3.089925   2.872488   3.378599   2.584506   2.892978
    11  O    2.988675   2.569721   2.901656   3.179715   3.676690
    12  H    2.484023   2.336119   2.040200   2.885206   3.615707
    13  H    4.140454   3.957038   4.269216   3.495056   3.783832
    14  H    3.266684   2.816814   3.939133   2.763545   2.649082
    15  H    3.485787   3.841580   3.878933   2.142817   2.431188
    16  H    2.895517   3.405350   2.626159   2.162169   3.057813
                    6          7          8          9         10
     6  H    0.000000
     7  C    2.149388   0.000000
     8  H    3.546288   3.778419   0.000000
     9  H    2.394903   3.497371   2.288497   0.000000
    10  C    3.499591   1.524912   4.112519   4.133936   0.000000
    11  O    4.104931   2.471743   3.379810   4.052646   1.426140
    12  H    3.666652   2.376758   2.530647   3.531416   1.945230
    13  H    4.282093   2.146179   5.015035   5.190181   1.092780
    14  H    3.779421   2.158538   4.599724   4.186781   1.094818
    15  H    2.471569   1.092386   4.818612   4.282059   2.134553
    16  H    2.434532   1.092039   3.551599   3.811303   2.140380
                   11         12         13         14         15
    11  O    0.000000
    12  H    0.964149   0.000000
    13  H    2.052943   2.655034   0.000000
    14  H    2.051159   2.698905   1.762668   0.000000
    15  H    3.371581   3.415011   2.361030   2.546032   0.000000
    16  H    2.660419   2.279219   2.524313   3.047764   1.750627
                   16
    16  H    0.000000
 Stoichiometry    C4H10O2
 Framework group  C1[X(C4H10O2)]
 Deg. of freedom    42
 Full point group                 C1      NOp   1
 Largest Abelian subgroup         C1      NOp   1
 Largest concise Abelian subgroup C1      NOp   1
                         Standard orientation:                         
 ---------------------------------------------------------------------
 Center     Atomic      Atomic             Coordinates (Angstroms)
 Number     Number       Type             X           Y           Z
 ---------------------------------------------------------------------
      1          6           0        1.392021   -0.005714    0.572548
      2          1           0        0.871641   -0.532025    1.374976
      3          8           0        1.488209   -0.851062   -0.584548
      4          6           0        0.625963    1.246932    0.175258
      5          1           0        0.439793    1.823253    1.085205
      6          1           0        1.261437    1.858656   -0.467823
      7          6           0       -0.700902    0.985430   -0.548887
      8          1           0        2.050690   -1.596932   -0.357590
      9          1           0        2.389444    0.268884    0.923502
     10          6           0       -1.672301    0.064726    0.181897
     11          8           0       -1.272107   -1.304104    0.186824
     12          1           0       -0.469827   -1.371151   -0.343681
     13          1           0       -2.654916    0.136101   -0.290904
     14          1           0       -1.784973    0.391577    1.220694
     15          1           0       -1.196857    1.945578   -0.708420
     16          1           0       -0.503934    0.569140   -1.539066
 ---------------------------------------------------------------------
 Rotational constants (GHZ):           4.6783326           2.8574364           2.1184456
 Leave Link  202 at Sat Apr 17 10:45:31 2021, MaxMem=   104857600 cpu:               4.1 elap:               0.1
 (Enter /s/ls4/users/knvvv/bin/g16sse/l301.exe)
 General basis read from cards:  (5D, 7F)
 Centers:       2      5      6      8      9     12     13     14     15     16
 S 4 1.00
     Exponent=  1.9069169000D+02 Coefficients=  7.0815167000D-04
     Exponent=  2.8605532000D+01 Coefficients=  5.4678827000D-03
     Exponent=  6.5095943000D+00 Coefficients=  2.7966605000D-02
     Exponent=  1.8412455000D+00 Coefficients=  1.0764538000D-01
 S 1 1.00
     Exponent=  5.9853725000D-01 Coefficients=  1.0000000000D+00
 S 1 1.00
     Exponent=  2.1397624000D-01 Coefficients=  1.0000000000D+00
 S 1 1.00
     Exponent=  8.0316286000D-02 Coefficients=  1.0000000000D+00
 P 1 1.00
     Exponent=  2.2920000000D+00 Coefficients=  1.0000000000D+00
 P 1 1.00
     Exponent=  8.3800000000D-01 Coefficients=  1.0000000000D+00
 P 1 1.00
     Exponent=  2.9200000000D-01 Coefficients=  1.0000000000D+00
 P 1 1.00
     Exponent=  8.4063199228D-02 Coefficients=  1.0000000000D+00
 D 1 1.00
     Exponent=  2.0620000000D+00 Coefficients=  1.0000000000D+00
 D 1 1.00
     Exponent=  6.6200000000D-01 Coefficients=  1.0000000000D+00
 F 1 1.00
     Exponent=  1.3970000000D+00 Coefficients=  1.0000000000D+00
 ****
 Centers:       1      4      7     10
 S 8 1.00
     Exponent=  6.7025071029D+04 Coefficients=  3.8736308501D-05
     Exponent=  1.0039986538D+04 Coefficients=  3.0107917575D-04
     Exponent=  2.2849316911D+03 Coefficients=  1.5787918095D-03
     Exponent=  6.4714122130D+02 Coefficients=  6.6087087195D-03
     Exponent=  2.1109472335D+02 Coefficients=  2.3367123250D-02
     Exponent=  7.6177643862D+01 Coefficients=  7.0420716898D-02
     Exponent=  2.9633839163D+01 Coefficients=  1.7360344953D-01
     Exponent=  1.2187785081D+01 Coefficients=  3.2292305648D-01
 S 2 1.00
     Exponent=  5.3026006299D+01 Coefficients=  7.4897404492D-02
     Exponent=  1.5258502776D+01 Coefficients=  7.6136220983D-01
 S 1 1.00
     Exponent=  5.2403957464D+00 Coefficients=  1.0000000000D+00
 S 1 1.00
     Exponent=  2.2905022379D+00 Coefficients=  1.0000000000D+00
 S 1 1.00
     Exponent=  6.9673283006D-01 Coefficients=  1.0000000000D+00
 S 1 1.00
     Exponent=  2.7599337363D-01 Coefficients=  1.0000000000D+00
 S 1 1.00
     Exponent=  1.0739884389D-01 Coefficients=  1.0000000000D+00
 S 1 1.00
     Exponent=  4.4981404899D-02 Coefficients=  1.0000000000D+00
 P 5 1.00
     Exponent=  1.0512555082D+02 Coefficients=  8.4647553844D-04
     Exponent=  2.4884461066D+01 Coefficients=  6.6274038534D-03
     Exponent=  7.8637230826D+00 Coefficients=  3.0120390419D-02
     Exponent=  2.8407001835D+00 Coefficients=  9.9951435476D-02
     Exponent=  1.1227137335D+00 Coefficients=  2.3826299282D-01
 P 1 1.00
     Exponent=  4.6050725555D-01 Coefficients=  1.0000000000D+00
 P 1 1.00
     Exponent=  1.8937530913D-01 Coefficients=  1.0000000000D+00
 P 1 1.00
     Exponent=  7.5983791611D-02 Coefficients=  1.0000000000D+00
 D 1 1.00
     Exponent=  1.8480000000D+00 Coefficients=  1.0000000000D+00
 D 1 1.00
     Exponent=  6.4900000000D-01 Coefficients=  1.0000000000D+00
 D 1 1.00
     Exponent=  2.2800000000D-01 Coefficients=  1.0000000000D+00
 D 1 1.00
     Exponent=  7.6889830417D-02 Coefficients=  1.0000000000D+00
 F 1 1.00
     Exponent=  1.4190000000D+00 Coefficients=  1.0000000000D+00
 F 1 1.00
     Exponent=  4.8500000000D-01 Coefficients=  1.0000000000D+00
 G 1 1.00
     Exponent=  1.0110000000D+00 Coefficients=  1.0000000000D+00
 ****
 Centers:       3     11
 S 8 1.00
     Exponent=  1.1650646908D+05 Coefficients=  4.0383857939D-05
     Exponent=  1.7504349724D+04 Coefficients=  3.1255139004D-04
     Exponent=  3.9934513230D+03 Coefficients=  1.6341473495D-03
     Exponent=  1.1330063186D+03 Coefficients=  6.8283224757D-03
     Exponent=  3.6999569594D+02 Coefficients=  2.4124410221D-02
     Exponent=  1.3362074349D+02 Coefficients=  7.2730206154D-02
     Exponent=  5.2035643649D+01 Coefficients=  1.7934429892D-01
     Exponent=  2.1461939313D+01 Coefficients=  3.3059588895D-01
 S 2 1.00
     Exponent=  8.9835051252D+01 Coefficients=  9.6468652996D-02
     Exponent=  2.6428010844D+01 Coefficients=  9.4117481120D-01
 S 1 1.00
     Exponent=  9.2822824649D+00 Coefficients=  1.0000000000D+00
 S 1 1.00
     Exponent=  4.0947728533D+00 Coefficients=  1.0000000000D+00
 S 1 1.00
     Exponent=  1.3255349078D+00 Coefficients=  1.0000000000D+00
 S 1 1.00
     Exponent=  5.1877230787D-01 Coefficients=  1.0000000000D+00
 S 1 1.00
     Exponent=  1.9772676454D-01 Coefficients=  1.0000000000D+00
 S 1 1.00
     Exponent=  6.9638535104D-02 Coefficients=  1.0000000000D+00
 P 5 1.00
     Exponent=  1.9115255810D+02 Coefficients=  2.5115697705D-03
     Exponent=  4.5233356739D+01 Coefficients=  2.0039240864D-02
     Exponent=  1.4353465922D+01 Coefficients=  9.3609064762D-02
     Exponent=  5.2422371832D+00 Coefficients=  3.0618127124D-01
     Exponent=  2.0792418599D+00 Coefficients=  6.7810501439D-01
 P 1 1.00
     Exponent=  8.4282371424D-01 Coefficients=  1.0000000000D+00
 P 1 1.00
     Exponent=  3.3617694891D-01 Coefficients=  1.0000000000D+00
 P 1 1.00
     Exponent=  1.2863997974D-01 Coefficients=  1.0000000000D+00
 P 1 1.00
     Exponent=  4.3598162776D-02 Coefficients=  1.0000000000D+00
 D 1 1.00
     Exponent=  3.7750000000D+00 Coefficients=  1.0000000000D+00
 D 1 1.00
     Exponent=  1.3000000000D+00 Coefficients=  1.0000000000D+00
 D 1 1.00
     Exponent=  4.4400000000D-01 Coefficients=  1.0000000000D+00
 D 1 1.00
     Exponent=  1.2546378695D-01 Coefficients=  1.0000000000D+00
 F 1 1.00
     Exponent=  2.6660000000D+00 Coefficients=  1.0000000000D+00
 F 1 1.00
     Exponent=  8.5900000000D-01 Coefficients=  1.0000000000D+00
 G 1 1.00
     Exponent=  1.8460000000D+00 Coefficients=  1.0000000000D+00
 ****
 Ernie: Thresh=  0.10000D-02 Tol=  0.10000D-05 Strict=F.
 There are   860 symmetry adapted cartesian basis functions of A   symmetry.
 There are   714 symmetry adapted basis functions of A   symmetry.
   714 basis functions,  1010 primitive gaussians,   860 cartesian basis functions
    25 alpha electrons       25 beta electrons
       nuclear repulsion energy       265.4534019153 Hartrees.
 IExCor= 4336 DFT=T Ex+Corr=M062X ExCW=0 ScaHFX=  0.540000
 ScaDFX=  1.000000  1.000000  1.000000  1.000000 ScalE2=  1.000000  1.000000
 IRadAn=      5 IRanWt=     -1 IRanGd=            0 ICorTp=0 IEmpDi=  4
 NAtoms=   16 NActive=   16 NUniq=   16 SFac= 1.00D+00 NAtFMM=   60 NAOKFM=F Big=F
 Integral buffers will be    131072 words long.
 Raffenetti 2 integral format.
 Two-electron integral symmetry is turned on.
 Leave Link  301 at Sat Apr 17 10:45:31 2021, MaxMem=   104857600 cpu:               7.8 elap:               0.2
 (Enter /s/ls4/users/knvvv/bin/g16sse/l302.exe)
 NPDir=0 NMtPBC=     1 NCelOv=     1 NCel=       1 NClECP=     1 NCelD=      1
         NCelK=      1 NCelE2=     1 NClLst=     1 CellRange=     0.0.
 One-electron integrals computed using PRISM.
 One-electron integral symmetry used in STVInt
 PrsmSu:  requested number of processors reduced to:   4 ShMem   1 Linda.
 PrsmSu:  requested number of processors reduced to:  18 ShMem   1 Linda.
 NBasis=   714 RedAO= T EigKep=  5.48D-06  NBF=   714
 NBsUse=   707 1.00D-06 EigRej=  5.00D-07 NBFU=   707
 Precomputing XC quadrature grid using
 IXCGrd= 4 IRadAn=           5 IRanWt=          -1 IRanGd=           0 AccXCQ= 0.00D+00.
 Generated NRdTot=       0 NPtTot=           0 NUsed=           0 NTot=          32
 NSgBfM=   860   860   860   860   860 MxSgAt=    16 MxSgA2=    16.
 Leave Link  302 at Sat Apr 17 10:45:44 2021, MaxMem=   104857600 cpu:             596.8 elap:              12.8
 (Enter /s/ls4/users/knvvv/bin/g16sse/l303.exe)
 DipDrv:  MaxL=1.
 Leave Link  303 at Sat Apr 17 10:45:50 2021, MaxMem=   104857600 cpu:             283.4 elap:               6.1
 (Enter /s/ls4/users/knvvv/bin/g16sse/l401.exe)
 SCF N**3 symmetry information disabled.
 ExpMin= 4.36D-02 ExpMax= 1.17D+05 ExpMxC= 1.13D+03 IAcc=3 IRadAn=         5 AccDes= 0.00D+00
 Harris functional with IExCor= 1009 and IRadAn=       5 diagonalized for initial guess.
 HarFok:  IExCor= 1009 AccDes= 0.00D+00 IRadAn=         5 IDoV= 1 UseB2=F ITyADJ=14
 ICtDFT=  3500011 ScaDFX=  1.000000  1.000000  1.000000  1.000000
 FoFCou: FMM=F IPFlag=           0 FMFlag=      100000 FMFlg1=           0
         NFxFlg=           0 DoJE=T BraDBF=F KetDBF=T FulRan=T
         wScrn=  0.000000 ICntrl=       500 IOpCl=  0 I1Cent=   200000004 NGrid=           0
         NMat0=    1 NMatS0=      1 NMatT0=    0 NMatD0=    1 NMtDS0=    0 NMtDT0=    0
 Petite list used in FoFCou.
 CoulSu:  requested number of processors reduced to:  16 ShMem   1 Linda.
 CoulSu:  requested number of processors reduced to:  17 ShMem   1 Linda.
 CoulSu:  requested number of processors reduced to:  21 ShMem   1 Linda.
 CoulSu:  requested number of processors reduced to:  21 ShMem   1 Linda.
 Harris En= -308.800940645945    
 JPrj=0 DoOrth=F DoCkMO=F.
 Leave Link  401 at Sat Apr 17 10:45:58 2021, MaxMem=   104857600 cpu:             369.3 elap:               8.2
 (Enter /s/ls4/users/knvvv/bin/g16sse/l502.exe)
 Integral symmetry usage will be decided dynamically.
 Closed shell SCF:
 Using DIIS extrapolation, IDIIS=  1040.
 NGot=   104857600 LenX=   103330352 LenY=   102589892
 Requested convergence on RMS density matrix=1.00D-08 within 128 cycles.
 Requested convergence on MAX density matrix=1.00D-06.
 Requested convergence on             energy=1.00D-06.
 No special actions if energy rises.
 Fock matrices will be formed incrementally for  20 cycles.

 Cycle   1  Pass 1  IDiag  1:
 FoFJK:  IHMeth= 1 ICntrl=       0 DoSepK=F KAlg= 0 I1Cent=           0 FoldK=F
 IRaf= 960000000 NMat=       1 IRICut=       1 DoRegI=T DoRafI=F ISym2E= 0 IDoP0=0 IntGTp=1.
 FoFCou: FMM=F IPFlag=           0 FMFlag=      100000 FMFlg1=           0
         NFxFlg=           0 DoJE=F BraDBF=F KetDBF=F FulRan=T
         wScrn=  0.000000 ICntrl=         0 IOpCl=  0 I1Cent=           0 NGrid=           0
         NMat0=    1 NMatS0=      1 NMatT0=    0 NMatD0=    1 NMtDS0=    0 NMtDT0=    0
 Symmetry not used in FoFCou.
 CoulSu:  requested number of processors reduced to:  18 ShMem   1 Linda.
 E= -308.681692858615    
 DIIS: error= 1.79D-02 at cycle   1 NSaved=   1.
 NSaved= 1 IEnMin= 1 EnMin= -308.681692858615     IErMin= 1 ErrMin= 1.79D-02
 ErrMax= 1.79D-02  0.00D+00 EMaxC= 1.00D-01 BMatC= 3.86D-01 BMatP= 3.86D-01
 IDIUse=3 WtCom= 8.21D-01 WtEn= 1.79D-01
 Coeff-Com:  0.100D+01
 Coeff-En:   0.100D+01
 Coeff:      0.100D+01
 Gap=     0.281 Goal=   None    Shift=    0.000
 GapD=    0.281 DampG=1.000 DampE=0.500 DampFc=0.5000 IDamp=-1.
 Damping current iteration by 5.00D-01
 RMSDP=1.47D-03 MaxDP=6.71D-02              OVMax= 1.40D-01

 Cycle   2  Pass 1  IDiag  1:
 RMSU=  6.89D-04    CP:  9.21D-01
 CoulSu:  requested number of processors reduced to:  18 ShMem   1 Linda.
 E= -308.786713023699     Delta-E=       -0.105020165084 Rises=F Damp=T
 DIIS: error= 6.88D-03 at cycle   2 NSaved=   2.
 NSaved= 2 IEnMin= 2 EnMin= -308.786713023699     IErMin= 2 ErrMin= 6.88D-03
 ErrMax= 6.88D-03  0.00D+00 EMaxC= 1.00D-01 BMatC= 4.92D-02 BMatP= 3.86D-01
 IDIUse=3 WtCom= 9.31D-01 WtEn= 6.88D-02
 Coeff-Com: -0.136D+00 0.114D+01
 Coeff-En:   0.000D+00 0.100D+01
 Coeff:     -0.126D+00 0.113D+01
 Gap=     0.358 Goal=   None    Shift=    0.000
 RMSDP=1.00D-03 MaxDP=7.18D-02 DE=-1.05D-01 OVMax= 8.56D-02

 Cycle   3  Pass 1  IDiag  1:
 RMSU=  8.66D-04    CP:  8.66D-01  1.68D+00
 CoulSu:  requested number of processors reduced to:  18 ShMem   1 Linda.
 E= -308.890369407936     Delta-E=       -0.103656384237 Rises=F Damp=F
 DIIS: error= 2.90D-03 at cycle   3 NSaved=   3.
 NSaved= 3 IEnMin= 3 EnMin= -308.890369407936     IErMin= 3 ErrMin= 2.90D-03
 ErrMax= 2.90D-03  0.00D+00 EMaxC= 1.00D-01 BMatC= 1.13D-02 BMatP= 4.92D-02
 IDIUse=3 WtCom= 9.71D-01 WtEn= 2.90D-02
 Coeff-Com: -0.146D+00 0.374D+00 0.771D+00
 Coeff-En:   0.000D+00 0.000D+00 0.100D+01
 Coeff:     -0.141D+00 0.363D+00 0.778D+00
 Gap=     0.336 Goal=   None    Shift=    0.000
 RMSDP=1.43D-04 MaxDP=8.82D-03 DE=-1.04D-01 OVMax= 1.66D-02

 Cycle   4  Pass 1  IDiag  1:
 RMSU=  1.16D-04    CP:  8.63D-01  1.76D+00  9.28D-01
 CoulSu:  requested number of processors reduced to:  18 ShMem   1 Linda.
 E= -308.897373257215     Delta-E=       -0.007003849280 Rises=F Damp=F
 DIIS: error= 8.40D-04 at cycle   4 NSaved=   4.
 NSaved= 4 IEnMin= 4 EnMin= -308.897373257215     IErMin= 4 ErrMin= 8.40D-04
 ErrMax= 8.40D-04  0.00D+00 EMaxC= 1.00D-01 BMatC= 1.05D-03 BMatP= 1.13D-02
 IDIUse=3 WtCom= 9.92D-01 WtEn= 8.40D-03
 Coeff-Com: -0.541D-01 0.118D+00 0.343D+00 0.594D+00
 Coeff-En:   0.000D+00 0.000D+00 0.000D+00 0.100D+01
 Coeff:     -0.536D-01 0.117D+00 0.340D+00 0.597D+00
 Gap=     0.333 Goal=   None    Shift=    0.000
 RMSDP=6.04D-05 MaxDP=8.36D-03 DE=-7.00D-03 OVMax= 5.29D-03

 Cycle   5  Pass 1  IDiag  1:
 RMSU=  4.63D-05    CP:  8.61D-01  1.75D+00  9.04D-01  7.31D-01
 CoulSu:  requested number of processors reduced to:  18 ShMem   1 Linda.
 E= -308.898127301843     Delta-E=       -0.000754044627 Rises=F Damp=F
 DIIS: error= 2.97D-04 at cycle   5 NSaved=   5.
 NSaved= 5 IEnMin= 5 EnMin= -308.898127301843     IErMin= 5 ErrMin= 2.97D-04
 ErrMax= 2.97D-04  0.00D+00 EMaxC= 1.00D-01 BMatC= 5.51D-05 BMatP= 1.05D-03
 IDIUse=3 WtCom= 9.97D-01 WtEn= 2.97D-03
 Coeff-Com: -0.122D-01 0.245D-01 0.867D-01 0.247D+00 0.654D+00
 Coeff-En:   0.000D+00 0.000D+00 0.000D+00 0.000D+00 0.100D+01
 Coeff:     -0.121D-01 0.244D-01 0.865D-01 0.246D+00 0.655D+00
 Gap=     0.334 Goal=   None    Shift=    0.000
 RMSDP=1.71D-05 MaxDP=1.82D-03 DE=-7.54D-04 OVMax= 1.12D-03

 Cycle   6  Pass 1  IDiag  1:
 RMSU=  1.46D-05    CP:  8.60D-01  1.76D+00  8.97D-01  7.28D-01  1.14D+00
 CoulSu:  requested number of processors reduced to:  18 ShMem   1 Linda.
 E= -308.898169132701     Delta-E=       -0.000041830858 Rises=F Damp=F
 DIIS: error= 3.48D-05 at cycle   6 NSaved=   6.
 NSaved= 6 IEnMin= 6 EnMin= -308.898169132701     IErMin= 6 ErrMin= 3.48D-05
 ErrMax= 3.48D-05  0.00D+00 EMaxC= 1.00D-01 BMatC= 9.53D-07 BMatP= 5.51D-05
 IDIUse=1 WtCom= 1.00D+00 WtEn= 0.00D+00
 Coeff-Com:  0.218D-02-0.456D-02-0.115D-01 0.305D-03 0.846D-01 0.929D+00
 Coeff:      0.218D-02-0.456D-02-0.115D-01 0.305D-03 0.846D-01 0.929D+00
 Gap=     0.334 Goal=   None    Shift=    0.000
 RMSDP=5.66D-06 MaxDP=7.98D-04 DE=-4.18D-05 OVMax= 2.31D-04

 Cycle   7  Pass 1  IDiag  1:
 RMSU=  3.47D-06    CP:  8.60D-01  1.75D+00  8.95D-01  7.31D-01  1.22D+00
                    CP:  1.09D+00
 CoulSu:  requested number of processors reduced to:  18 ShMem   1 Linda.
 E= -308.898170007622     Delta-E=       -0.000000874921 Rises=F Damp=F
 DIIS: error= 1.02D-05 at cycle   7 NSaved=   7.
 NSaved= 7 IEnMin= 7 EnMin= -308.898170007622     IErMin= 7 ErrMin= 1.02D-05
 ErrMax= 1.02D-05  0.00D+00 EMaxC= 1.00D-01 BMatC= 9.00D-08 BMatP= 9.53D-07
 IDIUse=1 WtCom= 1.00D+00 WtEn= 0.00D+00
 Coeff-Com:  0.117D-02-0.243D-02-0.709D-02-0.118D-01-0.125D-01 0.245D+00
 Coeff-Com:  0.787D+00
 Coeff:      0.117D-02-0.243D-02-0.709D-02-0.118D-01-0.125D-01 0.245D+00
 Coeff:      0.787D+00
 Gap=     0.334 Goal=   None    Shift=    0.000
 RMSDP=1.04D-06 MaxDP=1.11D-04 DE=-8.75D-07 OVMax= 6.85D-05

 Cycle   8  Pass 1  IDiag  1:
 RMSU=  8.54D-07    CP:  8.61D-01  1.75D+00  8.95D-01  7.33D-01  1.22D+00
                    CP:  1.11D+00  1.09D+00
 CoulSu:  requested number of processors reduced to:  18 ShMem   1 Linda.
 E= -308.898170074652     Delta-E=       -0.000000067031 Rises=F Damp=F
 DIIS: error= 3.58D-06 at cycle   8 NSaved=   8.
 NSaved= 8 IEnMin= 8 EnMin= -308.898170074652     IErMin= 8 ErrMin= 3.58D-06
 ErrMax= 3.58D-06  0.00D+00 EMaxC= 1.00D-01 BMatC= 1.92D-08 BMatP= 9.00D-08
 IDIUse=1 WtCom= 1.00D+00 WtEn= 0.00D+00
 Coeff-Com:  0.324D-03-0.692D-03-0.213D-02-0.486D-02-0.109D-01 0.417D-01
 Coeff-Com:  0.347D+00 0.629D+00
 Coeff:      0.324D-03-0.692D-03-0.213D-02-0.486D-02-0.109D-01 0.417D-01
 Coeff:      0.347D+00 0.629D+00
 Gap=     0.334 Goal=   None    Shift=    0.000
 RMSDP=4.03D-07 MaxDP=6.04D-05 DE=-6.70D-08 OVMax= 2.43D-05

 Cycle   9  Pass 1  IDiag  1:
 RMSU=  2.26D-07    CP:  8.61D-01  1.75D+00  8.96D-01  7.33D-01  1.21D+00
                    CP:  1.10D+00  1.11D+00  1.23D+00
 CoulSu:  requested number of processors reduced to:  18 ShMem   1 Linda.
 E= -308.898170088046     Delta-E=       -0.000000013394 Rises=F Damp=F
 DIIS: error= 1.07D-06 at cycle   9 NSaved=   9.
 NSaved= 9 IEnMin= 9 EnMin= -308.898170088046     IErMin= 9 ErrMin= 1.07D-06
 ErrMax= 1.07D-06  0.00D+00 EMaxC= 1.00D-01 BMatC= 1.33D-09 BMatP= 1.92D-08
 IDIUse=1 WtCom= 1.00D+00 WtEn= 0.00D+00
 Coeff-Com: -0.502D-04 0.906D-04 0.213D-03-0.368D-05-0.183D-02-0.162D-01
 Coeff-Com:  0.137D-01 0.211D+00 0.793D+00
 Coeff:     -0.502D-04 0.906D-04 0.213D-03-0.368D-05-0.183D-02-0.162D-01
 Coeff:      0.137D-01 0.211D+00 0.793D+00
 Gap=     0.334 Goal=   None    Shift=    0.000
 RMSDP=1.63D-07 MaxDP=2.44D-05 DE=-1.34D-08 OVMax= 9.07D-06

 Cycle  10  Pass 1  IDiag  1:
 RMSU=  6.61D-08    CP:  8.61D-01  1.75D+00  8.96D-01  7.33D-01  1.21D+00
                    CP:  1.10D+00  1.12D+00  1.33D+00  1.07D+00
 CoulSu:  requested number of processors reduced to:  18 ShMem   1 Linda.
 E= -308.898170088955     Delta-E=       -0.000000000909 Rises=F Damp=F
 DIIS: error= 3.33D-07 at cycle  10 NSaved=  10.
 NSaved=10 IEnMin=10 EnMin= -308.898170088955     IErMin=10 ErrMin= 3.33D-07
 ErrMax= 3.33D-07  0.00D+00 EMaxC= 1.00D-01 BMatC= 1.41D-10 BMatP= 1.33D-09
 IDIUse=1 WtCom= 1.00D+00 WtEn= 0.00D+00
 Coeff-Com: -0.339D-04 0.672D-04 0.168D-03 0.202D-03-0.287D-03-0.850D-02
 Coeff-Com: -0.141D-01 0.498D-01 0.331D+00 0.642D+00
 Coeff:     -0.339D-04 0.672D-04 0.168D-03 0.202D-03-0.287D-03-0.850D-02
 Coeff:     -0.141D-01 0.498D-01 0.331D+00 0.642D+00
 Gap=     0.334 Goal=   None    Shift=    0.000
 RMSDP=2.28D-08 MaxDP=2.28D-06 DE=-9.09D-10 OVMax= 2.66D-06

 Cycle  11  Pass 1  IDiag  1:
 RMSU=  1.78D-08    CP:  8.61D-01  1.75D+00  8.96D-01  7.33D-01  1.21D+00
                    CP:  1.10D+00  1.13D+00  1.34D+00  1.10D+00  9.87D-01
 CoulSu:  requested number of processors reduced to:  18 ShMem   1 Linda.
 E= -308.898170089062     Delta-E=       -0.000000000107 Rises=F Damp=F
 DIIS: error= 6.56D-08 at cycle  11 NSaved=  11.
 NSaved=11 IEnMin=11 EnMin= -308.898170089062     IErMin=11 ErrMin= 6.56D-08
 ErrMax= 6.56D-08  0.00D+00 EMaxC= 1.00D-01 BMatC= 5.66D-12 BMatP= 1.41D-10
 IDIUse=1 WtCom= 1.00D+00 WtEn= 0.00D+00
 Coeff-Com: -0.293D-05 0.720D-05 0.136D-04 0.234D-04-0.170D-04-0.823D-03
 Coeff-Com: -0.452D-02-0.521D-02 0.157D-01 0.170D+00 0.825D+00
 Coeff:     -0.293D-05 0.720D-05 0.136D-04 0.234D-04-0.170D-04-0.823D-03
 Coeff:     -0.452D-02-0.521D-02 0.157D-01 0.170D+00 0.825D+00
 Gap=     0.334 Goal=   None    Shift=    0.000
 RMSDP=8.92D-09 MaxDP=1.14D-06 DE=-1.07D-10 OVMax= 6.68D-07

 Cycle  12  Pass 1  IDiag  1:
 RMSU=  5.09D-09    CP:  8.61D-01  1.75D+00  8.96D-01  7.33D-01  1.21D+00
                    CP:  1.10D+00  1.13D+00  1.34D+00  1.10D+00  1.03D+00
                    CP:  1.06D+00
 CoulSu:  requested number of processors reduced to:  18 ShMem   1 Linda.
 E= -308.898170089045     Delta-E=        0.000000000018 Rises=F Damp=F
 DIIS: error= 1.27D-08 at cycle  12 NSaved=  12.
 NSaved=12 IEnMin=11 EnMin= -308.898170089062     IErMin=12 ErrMin= 1.27D-08
 ErrMax= 1.27D-08  0.00D+00 EMaxC= 1.00D-01 BMatC= 1.57D-13 BMatP= 5.66D-12
 IDIUse=1 WtCom= 1.00D+00 WtEn= 0.00D+00
 Coeff-Com:  0.122D-05-0.215D-05-0.509D-05-0.756D-05 0.430D-05 0.289D-03
 Coeff-Com:  0.192D-03-0.261D-02-0.134D-01-0.156D-01 0.613D-01 0.970D+00
 Coeff:      0.122D-05-0.215D-05-0.509D-05-0.756D-05 0.430D-05 0.289D-03
 Coeff:      0.192D-03-0.261D-02-0.134D-01-0.156D-01 0.613D-01 0.970D+00
 Gap=     0.334 Goal=   None    Shift=    0.000
 RMSDP=1.79D-09 MaxDP=9.84D-08 DE= 1.77D-11 OVMax= 1.81D-07

 SCF Done:  E(RM062X) =  -308.898170089     A.U. after   12 cycles
            NFock= 12  Conv=0.18D-08     -V/T= 2.0041
 KE= 3.076272127701D+02 PE=-1.253576495475D+03 EE= 3.715977107006D+02
 Leave Link  502 at Sat Apr 17 10:57:35 2021, MaxMem=   104857600 cpu:           15971.9 elap:             696.7
 (Enter /s/ls4/users/knvvv/bin/g16sse/l601.exe)
 Copying SCF densities to generalized density rwf, IOpCl= 0 IROHF=0.

 **********************************************************************

            Population analysis using the SCF density.

 **********************************************************************

 Orbital symmetries:
       Occupied  (A) (A) (A) (A) (A) (A) (A) (A) (A) (A) (A) (A)
                 (A) (A) (A) (A) (A) (A) (A) (A) (A) (A) (A) (A)
                 (A)
       Virtual   (A) (A) (A) (A) (A) (A) (A) (A) (A) (A) (A) (A)
                 (A) (A) (A) (A) (A) (A) (A) (A) (A) (A) (A) (A)
                 (A) (A) (A) (A) (A) (A) (A) (A) (A) (A) (A) (A)
                 (A) (A) (A) (A) (A) (A) (A) (A) (A) (A) (A) (A)
                 (A) (A) (A) (A) (A) (A) (A) (A) (A) (A) (A) (A)
                 (A) (A) (A) (A) (A) (A) (A) (A) (A) (A) (A) (A)
                 (A) (A) (A) (A) (A) (A) (A) (A) (A) (A) (A) (A)
                 (A) (A) (A) (A) (A) (A) (A) (A) (A) (A) (A) (A)
                 (A) (A) (A) (A) (A) (A) (A) (A) (A) (A) (A) (A)
                 (A) (A) (A) (A) (A) (A) (A) (A) (A) (A) (A) (A)
                 (A) (A) (A) (A) (A) (A) (A) (A) (A) (A) (A) (A)
                 (A) (A) (A) (A) (A) (A) (A) (A) (A) (A) (A) (A)
                 (A) (A) (A) (A) (A) (A) (A) (A) (A) (A) (A) (A)
                 (A) (A) (A) (A) (A) (A) (A) (A) (A) (A) (A) (A)
                 (A) (A) (A) (A) (A) (A) (A) (A) (A) (A) (A) (A)
                 (A) (A) (A) (A) (A) (A) (A) (A) (A) (A) (A) (A)
                 (A) (A) (A) (A) (A) (A) (A) (A) (A) (A) (A) (A)
                 (A) (A) (A) (A) (A) (A) (A) (A) (A) (A) (A) (A)
                 (A) (A) (A) (A) (A) (A) (A) (A) (A) (A) (A) (A)
                 (A) (A) (A) (A) (A) (A) (A) (A) (A) (A) (A) (A)
                 (A) (A) (A) (A) (A) (A) (A) (A) (A) (A) (A) (A)
                 (A) (A) (A) (A) (A) (A) (A) (A) (A) (A) (A) (A)
                 (A) (A) (A) (A) (A) (A) (A) (A) (A) (A) (A) (A)
                 (A) (A) (A) (A) (A) (A) (A) (A) (A) (A) (A) (A)
                 (A) (A) (A) (A) (A) (A) (A) (A) (A) (A) (A) (A)
                 (A) (A) (A) (A) (A) (A) (A) (A) (A) (A) (A) (A)
                 (A) (A) (A) (A) (A) (A) (A) (A) (A) (A) (A) (A)
                 (A) (A) (A) (A) (A) (A) (A) (A) (A) (A) (A) (A)
                 (A) (A) (A) (A) (A) (A) (A) (A) (A) (A) (A) (A)
                 (A) (A) (A) (A) (A) (A) (A) (A) (A) (A) (A) (A)
                 (A) (A) (A) (A) (A) (A) (A) (A) (A) (A) (A) (A)
                 (A) (A) (A) (A) (A) (A) (A) (A) (A) (A) (A) (A)
                 (A) (A) (A) (A) (A) (A) (A) (A) (A) (A) (A) (A)
                 (A) (A) (A) (A) (A) (A) (A) (A) (A) (A) (A) (A)
                 (A) (A) (A) (A) (A) (A) (A) (A) (A) (A) (A) (A)
                 (A) (A) (A) (A) (A) (A) (A) (A) (A) (A) (A) (A)
                 (A) (A) (A) (A) (A) (A) (A) (A) (A) (A) (A) (A)
                 (A) (A) (A) (A) (A) (A) (A) (A) (A) (A) (A) (A)
                 (A) (A) (A) (A) (A) (A) (A) (A) (A) (A) (A) (A)
                 (A) (A) (A) (A) (A) (A) (A) (A) (A) (A) (A) (A)
                 (A) (A) (A) (A) (A) (A) (A) (A) (A) (A) (A) (A)
                 (A) (A) (A) (A) (A) (A) (A) (A) (A) (A) (A) (A)
                 (A) (A) (A) (A) (A) (A) (A) (A) (A) (A) (A) (A)
                 (A) (A) (A) (A) (A) (A) (A) (A) (A) (A) (A) (A)
                 (A) (A) (A) (A) (A) (A) (A) (A) (A) (A) (A) (A)
                 (A) (A) (A) (A) (A) (A) (A) (A) (A) (A) (A) (A)
                 (A) (A) (A) (A) (A) (A) (A) (A) (A) (A) (A) (A)
                 (A) (A) (A) (A) (A) (A) (A) (A) (A) (A) (A) (A)
                 (A) (A) (A) (A) (A) (A) (A) (A) (A) (A) (A) (A)
                 (A) (A) (A) (A) (A) (A) (A) (A) (A) (A) (A) (A)
                 (A) (A) (A) (A) (A) (A) (A) (A) (A) (A) (A) (A)
                 (A) (A) (A) (A) (A) (A) (A) (A) (A) (A) (A) (A)
                 (A) (A) (A) (A) (A) (A) (A) (A) (A) (A) (A) (A)
                 (A) (A) (A) (A) (A) (A) (A) (A) (A) (A) (A) (A)
                 (A) (A) (A) (A) (A) (A) (A) (A) (A) (A) (A) (A)
                 (A) (A) (A) (A) (A) (A) (A) (A) (A) (A) (A) (A)
                 (A) (A) (A) (A) (A) (A) (A) (A) (A) (A)
 The electronic state is 1-A.
 Alpha  occ. eigenvalues --  -19.64218 -19.60348 -10.59331 -10.57655 -10.54248
 Alpha  occ. eigenvalues --  -10.53761  -1.15940  -1.12447  -0.89499  -0.81209
 Alpha  occ. eigenvalues --   -0.72910  -0.66608  -0.60904  -0.57327  -0.53770
 Alpha  occ. eigenvalues --   -0.52811  -0.50535  -0.47679  -0.47189  -0.44190
 Alpha  occ. eigenvalues --   -0.40709  -0.40257  -0.37329  -0.36948  -0.33392
 Alpha virt. eigenvalues --   -0.00017   0.01692   0.02449   0.02973   0.04959
 Alpha virt. eigenvalues --    0.05097   0.05470   0.06553   0.07030   0.09651
 Alpha virt. eigenvalues --    0.10313   0.10683   0.11384   0.12152   0.12709
 Alpha virt. eigenvalues --    0.13084   0.13899   0.15796   0.16683   0.17035
 Alpha virt. eigenvalues --    0.17484   0.18203   0.18935   0.19676   0.19967
 Alpha virt. eigenvalues --    0.20464   0.20577   0.21392   0.22321   0.23066
 Alpha virt. eigenvalues --    0.23478   0.23792   0.23908   0.25475   0.25632
 Alpha virt. eigenvalues --    0.26427   0.27059   0.27583   0.28145   0.28264
 Alpha virt. eigenvalues --    0.28644   0.29170   0.29609   0.30296   0.30664
 Alpha virt. eigenvalues --    0.30754   0.31028   0.31545   0.32978   0.33421
 Alpha virt. eigenvalues --    0.33829   0.34461   0.35506   0.35914   0.36445
 Alpha virt. eigenvalues --    0.36757   0.37050   0.37867   0.38339   0.38519
 Alpha virt. eigenvalues --    0.38866   0.39472   0.40106   0.40521   0.40785
 Alpha virt. eigenvalues --    0.41721   0.42826   0.43385   0.43934   0.44805
 Alpha virt. eigenvalues --    0.45763   0.46196   0.46556   0.46983   0.47785
 Alpha virt. eigenvalues --    0.48013   0.48561   0.50027   0.50687   0.50755
 Alpha virt. eigenvalues --    0.51916   0.52482   0.52680   0.53897   0.54873
 Alpha virt. eigenvalues --    0.55093   0.55892   0.57128   0.58271   0.58996
 Alpha virt. eigenvalues --    0.59576   0.60687   0.61119   0.62586   0.63261
 Alpha virt. eigenvalues --    0.63986   0.65113   0.65480   0.65868   0.66627
 Alpha virt. eigenvalues --    0.66776   0.68957   0.69561   0.71437   0.71835
 Alpha virt. eigenvalues --    0.72926   0.73595   0.75055   0.75956   0.76350
 Alpha virt. eigenvalues --    0.78087   0.79444   0.80600   0.82899   0.83304
 Alpha virt. eigenvalues --    0.84927   0.86599   0.87088   0.88337   0.89371
 Alpha virt. eigenvalues --    0.91184   0.92019   0.93152   0.93891   0.94026
 Alpha virt. eigenvalues --    0.95397   0.96664   0.98819   0.99288   1.00523
 Alpha virt. eigenvalues --    1.00887   1.02825   1.03294   1.03614   1.04032
 Alpha virt. eigenvalues --    1.04907   1.05922   1.07130   1.08674   1.08709
 Alpha virt. eigenvalues --    1.10371   1.11803   1.11839   1.14021   1.14571
 Alpha virt. eigenvalues --    1.15795   1.17182   1.18777   1.19421   1.20202
 Alpha virt. eigenvalues --    1.20857   1.22246   1.23101   1.23968   1.25072
 Alpha virt. eigenvalues --    1.26373   1.28966   1.30459   1.31490   1.32164
 Alpha virt. eigenvalues --    1.33519   1.34133   1.35368   1.36078   1.39023
 Alpha virt. eigenvalues --    1.39529   1.41843   1.42153   1.42887   1.44421
 Alpha virt. eigenvalues --    1.45342   1.46794   1.50488   1.52244   1.53686
 Alpha virt. eigenvalues --    1.55192   1.57205   1.57737   1.59118   1.60528
 Alpha virt. eigenvalues --    1.62264   1.63338   1.65937   1.66564   1.68370
 Alpha virt. eigenvalues --    1.70690   1.71239   1.71767   1.73974   1.77198
 Alpha virt. eigenvalues --    1.78235   1.80377   1.82366   1.86150   1.88129
 Alpha virt. eigenvalues --    1.88909   1.89363   1.91504   1.94301   1.95860
 Alpha virt. eigenvalues --    1.96795   1.98137   2.00720   2.01239   2.03184
 Alpha virt. eigenvalues --    2.03376   2.06346   2.08442   2.09052   2.09919
 Alpha virt. eigenvalues --    2.12184   2.14141   2.15034   2.15750   2.16279
 Alpha virt. eigenvalues --    2.18317   2.19319   2.20685   2.21473   2.22189
 Alpha virt. eigenvalues --    2.23032   2.23238   2.25535   2.26822   2.28744
 Alpha virt. eigenvalues --    2.29347   2.32031   2.32971   2.33621   2.34594
 Alpha virt. eigenvalues --    2.35275   2.36764   2.37362   2.39098   2.40068
 Alpha virt. eigenvalues --    2.41129   2.41719   2.44632   2.45885   2.47303
 Alpha virt. eigenvalues --    2.48454   2.49695   2.50894   2.52944   2.54553
 Alpha virt. eigenvalues --    2.55959   2.56897   2.57332   2.58347   2.59880
 Alpha virt. eigenvalues --    2.60113   2.62402   2.63140   2.66093   2.66899
 Alpha virt. eigenvalues --    2.68272   2.69487   2.70787   2.72623   2.73399
 Alpha virt. eigenvalues --    2.76031   2.76997   2.79648   2.80966   2.82214
 Alpha virt. eigenvalues --    2.83411   2.86022   2.86478   2.86769   2.88644
 Alpha virt. eigenvalues --    2.89541   2.91245   2.92374   2.93264   2.93976
 Alpha virt. eigenvalues --    2.95700   2.96466   2.97723   2.99239   3.00257
 Alpha virt. eigenvalues --    3.01484   3.02010   3.03106   3.04914   3.05433
 Alpha virt. eigenvalues --    3.07119   3.09384   3.10921   3.11891   3.14461
 Alpha virt. eigenvalues --    3.15178   3.16052   3.19938   3.20142   3.21569
 Alpha virt. eigenvalues --    3.24701   3.25654   3.26358   3.28607   3.29420
 Alpha virt. eigenvalues --    3.31884   3.35177   3.36125   3.37570   3.38641
 Alpha virt. eigenvalues --    3.40702   3.43558   3.45348   3.46185   3.47722
 Alpha virt. eigenvalues --    3.51662   3.52846   3.53505   3.54258   3.57429
 Alpha virt. eigenvalues --    3.59182   3.60631   3.62649   3.64730   3.65296
 Alpha virt. eigenvalues --    3.68707   3.71042   3.73682   3.74281   3.76086
 Alpha virt. eigenvalues --    3.77501   3.77954   3.80368   3.85728   3.88226
 Alpha virt. eigenvalues --    3.90168   3.92877   3.94895   3.96534   3.98461
 Alpha virt. eigenvalues --    4.00495   4.01026   4.04155   4.06027   4.09063
 Alpha virt. eigenvalues --    4.09325   4.11936   4.15063   4.16560   4.19803
 Alpha virt. eigenvalues --    4.21696   4.26647   4.27829   4.30853   4.34739
 Alpha virt. eigenvalues --    4.37286   4.42770   4.43208   4.48173   4.49307
 Alpha virt. eigenvalues --    4.51271   4.52613   4.55142   4.57508   4.62834
 Alpha virt. eigenvalues --    4.66154   4.67248   4.69591   4.72860   4.75506
 Alpha virt. eigenvalues --    4.80235   4.83537   4.86441   4.91130   4.93251
 Alpha virt. eigenvalues --    5.04388   5.08902   5.13511   5.17659   5.26528
 Alpha virt. eigenvalues --    5.27482   5.31594   5.34166   5.36604   5.38838
 Alpha virt. eigenvalues --    5.40913   5.43460   5.46144   5.49776   5.53129
 Alpha virt. eigenvalues --    5.56283   5.57321   5.59452   5.61107   5.62862
 Alpha virt. eigenvalues --    5.63863   5.65365   5.68125   5.69908   5.71666
 Alpha virt. eigenvalues --    5.72506   5.74433   5.74825   5.78204   5.79109
 Alpha virt. eigenvalues --    5.81019   5.81776   5.82998   5.84532   5.88965
 Alpha virt. eigenvalues --    5.89981   5.90935   5.91443   5.93498   5.94788
 Alpha virt. eigenvalues --    5.96946   5.97582   6.00083   6.01382   6.02159
 Alpha virt. eigenvalues --    6.04356   6.06000   6.06911   6.08682   6.10044
 Alpha virt. eigenvalues --    6.12358   6.13780   6.15019   6.16171   6.17805
 Alpha virt. eigenvalues --    6.20370   6.20559   6.21633   6.23842   6.24574
 Alpha virt. eigenvalues --    6.26542   6.27650   6.30469   6.30990   6.31836
 Alpha virt. eigenvalues --    6.33090   6.34974   6.35076   6.36341   6.36986
 Alpha virt. eigenvalues --    6.38825   6.43134   6.44580   6.46828   6.47580
 Alpha virt. eigenvalues --    6.49366   6.50825   6.54333   6.55256   6.57477
 Alpha virt. eigenvalues --    6.61046   6.62411   6.63246   6.64329   6.65697
 Alpha virt. eigenvalues --    6.68822   6.70877   6.71532   6.73409   6.75634
 Alpha virt. eigenvalues --    6.76084   6.78662   6.82097   6.85666   6.86357
 Alpha virt. eigenvalues --    6.89213   6.92281   6.93112   6.95166   6.97331
 Alpha virt. eigenvalues --    6.98173   7.00168   7.02166   7.04315   7.06382
 Alpha virt. eigenvalues --    7.09995   7.12603   7.16001   7.18327   7.21319
 Alpha virt. eigenvalues --    7.23987   7.26058   7.26876   7.29596   7.31487
 Alpha virt. eigenvalues --    7.32546   7.34640   7.36386   7.38064   7.39874
 Alpha virt. eigenvalues --    7.41032   7.43119   7.44265   7.45740   7.46411
 Alpha virt. eigenvalues --    7.47828   7.49332   7.50766   7.52980   7.54811
 Alpha virt. eigenvalues --    7.55753   7.57153   7.58309   7.60489   7.62187
 Alpha virt. eigenvalues --    7.62673   7.63506   7.66607   7.69134   7.69723
 Alpha virt. eigenvalues --    7.70494   7.72123   7.74094   7.75120   7.76862
 Alpha virt. eigenvalues --    7.77865   7.78676   7.79775   7.81227   7.83838
 Alpha virt. eigenvalues --    7.84144   7.86000   7.88086   7.88504   7.88939
 Alpha virt. eigenvalues --    7.92361   7.94371   7.95067   7.96206   7.97923
 Alpha virt. eigenvalues --    8.00405   8.01868   8.02990   8.06709   8.07978
 Alpha virt. eigenvalues --    8.10025   8.13650   8.15187   8.17937   8.19298
 Alpha virt. eigenvalues --    8.22181   8.23294   8.24499   8.26494   8.27885
 Alpha virt. eigenvalues --    8.29986   8.31500   8.32550   8.34456   8.35274
 Alpha virt. eigenvalues --    8.36715   8.38654   8.40973   8.42232   8.43288
 Alpha virt. eigenvalues --    8.44824   8.46668   8.47432   8.49157   8.50770
 Alpha virt. eigenvalues --    8.51872   8.52877   8.56375   8.57515   8.58384
 Alpha virt. eigenvalues --    8.60121   8.61477   8.62736   8.64569   8.66152
 Alpha virt. eigenvalues --    8.69166   8.70381   8.71378   8.73992   8.75109
 Alpha virt. eigenvalues --    8.75770   8.80806   8.82440   8.85843   8.90604
 Alpha virt. eigenvalues --    8.90836   8.91752   8.93983   8.97951   9.01368
 Alpha virt. eigenvalues --    9.07155   9.08050   9.14661   9.20484   9.24453
 Alpha virt. eigenvalues --    9.27655   9.30512   9.33187   9.35556   9.38083
 Alpha virt. eigenvalues --    9.48162   9.53434   9.55273   9.55399   9.60855
 Alpha virt. eigenvalues --    9.61572   9.64073   9.65231   9.66792   9.70316
 Alpha virt. eigenvalues --    9.74573   9.75718   9.78849   9.82246   9.84582
 Alpha virt. eigenvalues --    9.86478   9.88953   9.92076   9.94789   9.96828
 Alpha virt. eigenvalues --    9.98926  10.01370  10.05195  10.07533  10.08375
 Alpha virt. eigenvalues --   10.14414  10.16438  10.20795  10.26909  10.31022
 Alpha virt. eigenvalues --   10.31728  10.32245  10.41577  10.67045  10.75011
 Alpha virt. eigenvalues --   10.91156  11.00451  11.15132  11.17571  11.32819
 Alpha virt. eigenvalues --   11.35303  11.40890  11.51636  11.55100  11.59800
 Alpha virt. eigenvalues --   11.70048  11.75957  11.85859  11.93082  11.95480
 Alpha virt. eigenvalues --   12.02038  12.15584  12.15912  12.22313  12.23742
 Alpha virt. eigenvalues --   12.32882  12.42076  12.49402  12.53040  12.62673
 Alpha virt. eigenvalues --   12.65718  12.90739  12.93258  12.98660  13.03276
 Alpha virt. eigenvalues --   13.05169  13.11321  13.71958  13.77628  13.92201
 Alpha virt. eigenvalues --   13.94666  14.42129  14.46495  16.54000  16.63170
 Alpha virt. eigenvalues --   29.04852  29.07900  29.13789  29.19620  48.47241
 Alpha virt. eigenvalues --   48.52122 146.53989 146.56529 146.65838 146.74394
 Alpha virt. eigenvalues --  251.58430 251.63712
          Condensed to atoms (all electrons):
               1          2          3          4          5          6
     1  C    5.660336   0.327857   0.153622   0.127996  -0.047776  -0.072453
     2  H    0.327857   0.502418  -0.045797  -0.052561   0.003298   0.009113
     3  O    0.153622  -0.045797   8.503996  -0.078194   0.001105   0.000100
     4  C    0.127996  -0.052561  -0.078194   6.208075   0.354721   0.368067
     5  H   -0.047776   0.003298   0.001105   0.354721   0.463354  -0.013791
     6  H   -0.072453   0.009113   0.000100   0.368067  -0.013791   0.467762
     7  C   -0.075143  -0.014221   0.017979   0.029819  -0.077872  -0.076991
     8  H   -0.028945  -0.013377   0.165490  -0.015272   0.000162  -0.000567
     9  H    0.383166  -0.013256  -0.034280  -0.072805  -0.000873  -0.005873
    10  C    0.014815   0.000625  -0.013419  -0.071836   0.004186   0.000105
    11  O   -0.029196   0.003920  -0.011322   0.008296   0.000064  -0.000581
    12  H   -0.022419  -0.022823   0.000517  -0.038764  -0.001537   0.000626
    13  H    0.005078  -0.000456  -0.000126  -0.014101   0.000433   0.000498
    14  H   -0.010052   0.003003  -0.000599   0.026896   0.004180   0.000520
    15  H   -0.001344   0.003387   0.000743  -0.074151  -0.005264  -0.004153
    16  H   -0.000514   0.001848   0.000674  -0.057436   0.010071   0.002239
               7          8          9         10         11         12
     1  C   -0.075143  -0.028945   0.383166   0.014815  -0.029196  -0.022419
     2  H   -0.014221  -0.013377  -0.013256   0.000625   0.003920  -0.022823
     3  O    0.017979   0.165490  -0.034280  -0.013419  -0.011322   0.000517
     4  C    0.029819  -0.015272  -0.072805  -0.071836   0.008296  -0.038764
     5  H   -0.077872   0.000162  -0.000873   0.004186   0.000064  -0.001537
     6  H   -0.076991  -0.000567  -0.005873   0.000105  -0.000581   0.000626
     7  C    6.315365   0.002396   0.001178   0.062962  -0.082004   0.023152
     8  H    0.002396   0.459336  -0.024876  -0.000932  -0.003382   0.022240
     9  H    0.001178  -0.024876   0.458548  -0.001062   0.002308  -0.002251
    10  C    0.062962  -0.000932  -0.001062   5.667958   0.256855  -0.098079
    11  O   -0.082004  -0.003382   0.002308   0.256855   8.300521   0.251526
    12  H    0.023152   0.022240  -0.002251  -0.098079   0.251526   0.481217
    13  H   -0.068594   0.000372  -0.000201   0.406994  -0.070633   0.028783
    14  H   -0.092839  -0.000353  -0.000054   0.339637  -0.066141  -0.012736
    15  H    0.356199  -0.000661   0.000396  -0.057635   0.005383  -0.006564
    16  H    0.324345  -0.000856  -0.000319  -0.065794  -0.005831  -0.016853
              13         14         15         16
     1  C    0.005078  -0.010052  -0.001344  -0.000514
     2  H   -0.000456   0.003003   0.003387   0.001848
     3  O   -0.000126  -0.000599   0.000743   0.000674
     4  C   -0.014101   0.026896  -0.074151  -0.057436
     5  H    0.000433   0.004180  -0.005264   0.010071
     6  H    0.000498   0.000520  -0.004153   0.002239
     7  C   -0.068594  -0.092839   0.356199   0.324345
     8  H    0.000372  -0.000353  -0.000661  -0.000856
     9  H   -0.000201  -0.000054   0.000396  -0.000319
    10  C    0.406994   0.339637  -0.057635  -0.065794
    11  O   -0.070633  -0.066141   0.005383  -0.005831
    12  H    0.028783  -0.012736  -0.006564  -0.016853
    13  H    0.453710  -0.024170  -0.010700  -0.005819
    14  H   -0.024170   0.509270   0.008725   0.013883
    15  H   -0.010700   0.008725   0.471783  -0.019913
    16  H   -0.005819   0.013883  -0.019913   0.510031
 Mulliken charges:
               1
     1  C   -0.385026
     2  H    0.307023
     3  O   -0.660490
     4  C   -0.648749
     5  H    0.305538
     6  H    0.325379
     7  C   -0.645730
     8  H    0.439225
     9  H    0.310254
    10  C   -0.445382
    11  O   -0.559782
    12  H    0.413965
    13  H    0.298933
    14  H    0.300830
    15  H    0.333769
    16  H    0.310243
 Sum of Mulliken charges =  -0.00000
 Mulliken charges with hydrogens summed into heavy atoms:
               1
     1  C    0.232250
     3  O   -0.221265
     4  C   -0.017832
     7  C   -0.001718
    10  C    0.154381
    11  O   -0.145817
 Electronic spatial extent (au):  <R**2>=            639.9884
 Charge=             -0.0000 electrons
 Dipole moment (field-independent basis, Debye):
    X=              1.9739    Y=              1.2738    Z=              0.5249  Tot=              2.4071
 Quadrupole moment (field-independent basis, Debye-Ang):
   XX=            -36.7363   YY=            -38.3656   ZZ=            -39.2995
   XY=             -6.0587   XZ=              2.3671   YZ=              0.8461
 Traceless Quadrupole moment (field-independent basis, Debye-Ang):
   XX=              1.3975   YY=             -0.2318   ZZ=             -1.1657
   XY=             -6.0587   XZ=              2.3671   YZ=              0.8461
 Octapole moment (field-independent basis, Debye-Ang**2):
  XXX=             11.7728  YYY=             -9.4689  ZZZ=             -0.2009  XYY=             13.4310
  XXY=             -3.8687  XXZ=              1.4958  XZZ=             -0.8320  YZZ=             -1.6103
  YYZ=             -3.2562  XYZ=             -1.2917
 Hexadecapole moment (field-independent basis, Debye-Ang**3):
 XXXX=           -418.5857 YYYY=           -260.2148 ZZZZ=           -113.6178 XXXY=            -25.5391
 XXXZ=              1.9925 YYYX=            -27.1510 YYYZ=              6.0207 ZZZX=             -3.1124
 ZZZY=              2.5490 XXYY=           -111.6945 XXZZ=            -96.2476 YYZZ=            -63.6987
 XXYZ=              1.6939 YYXZ=             -1.8180 ZZXY=             -0.0132
 N-N= 2.654534019153D+02 E-N=-1.253576495742D+03  KE= 3.076272127701D+02
 PrsmSu:  requested number of processors reduced to:  20 ShMem   1 Linda.
 No NMR shielding tensors so no spin-rotation constants.
 Leave Link  601 at Sat Apr 17 10:57:44 2021, MaxMem=   104857600 cpu:             406.7 elap:               8.9
 (Enter /s/ls4/users/knvvv/bin/g16sse/l801.exe)
 DoSCS=F DFT=T ScalE2(SS,OS)=  1.000000  1.000000
 Range of M.O.s used for correlation:     1   707
 NBasis=   714 NAE=    25 NBE=    25 NFC=     0 NFV=     0
 NROrb=    707 NOA=    25 NOB=    25 NVA=   682 NVB=   682

 **** Warning!!: The largest alpha MO coefficient is  0.58053320D+02

 Leave Link  801 at Sat Apr 17 10:57:44 2021, MaxMem=   104857600 cpu:               4.4 elap:               0.1
 (Enter /s/ls4/users/knvvv/bin/g16sse/l914.exe)
 RHF ground state
 Doing stability rather than CIS.
 Two-electron integrals replicated using symmetry.
 MDV=   104857600 DFT=T DoStab=T Mixed=T DoRPA=F DoScal=F NonHer=F
 Making orbital integer symmetry assigments:
 Orbital symmetries:
       Occupied  (A) (A) (A) (A) (A) (A) (A) (A) (A) (A) (A) (A)
                 (A) (A) (A) (A) (A) (A) (A) (A) (A) (A) (A) (A)
                 (A)
       Virtual   (A) (A) (A) (A) (A) (A) (A) (A) (A) (A) (A) (A)
                 (A) (A) (A) (A) (A) (A) (A) (A) (A) (A) (A) (A)
                 (A) (A) (A) (A) (A) (A) (A) (A) (A) (A) (A) (A)
                 (A) (A) (A) (A) (A) (A) (A) (A) (A) (A) (A) (A)
                 (A) (A) (A) (A) (A) (A) (A) (A) (A) (A) (A) (A)
                 (A) (A) (A) (A) (A) (A) (A) (A) (A) (A) (A) (A)
                 (A) (A) (A) (A) (A) (A) (A) (A) (A) (A) (A) (A)
                 (A) (A) (A) (A) (A) (A) (A) (A) (A) (A) (A) (A)
                 (A) (A) (A) (A) (A) (A) (A) (A) (A) (A) (A) (A)
                 (A) (A) (A) (A) (A) (A) (A) (A) (A) (A) (A) (A)
                 (A) (A) (A) (A) (A) (A) (A) (A) (A) (A) (A) (A)
                 (A) (A) (A) (A) (A) (A) (A) (A) (A) (A) (A) (A)
                 (A) (A) (A) (A) (A) (A) (A) (A) (A) (A) (A) (A)
                 (A) (A) (A) (A) (A) (A) (A) (A) (A) (A) (A) (A)
                 (A) (A) (A) (A) (A) (A) (A) (A) (A) (A) (A) (A)
                 (A) (A) (A) (A) (A) (A) (A) (A) (A) (A) (A) (A)
                 (A) (A) (A) (A) (A) (A) (A) (A) (A) (A) (A) (A)
                 (A) (A) (A) (A) (A) (A) (A) (A) (A) (A) (A) (A)
                 (A) (A) (A) (A) (A) (A) (A) (A) (A) (A) (A) (A)
                 (A) (A) (A) (A) (A) (A) (A) (A) (A) (A) (A) (A)
                 (A) (A) (A) (A) (A) (A) (A) (A) (A) (A) (A) (A)
                 (A) (A) (A) (A) (A) (A) (A) (A) (A) (A) (A) (A)
                 (A) (A) (A) (A) (A) (A) (A) (A) (A) (A) (A) (A)
                 (A) (A) (A) (A) (A) (A) (A) (A) (A) (A) (A) (A)
                 (A) (A) (A) (A) (A) (A) (A) (A) (A) (A) (A) (A)
                 (A) (A) (A) (A) (A) (A) (A) (A) (A) (A) (A) (A)
                 (A) (A) (A) (A) (A) (A) (A) (A) (A) (A) (A) (A)
                 (A) (A) (A) (A) (A) (A) (A) (A) (A) (A) (A) (A)
                 (A) (A) (A) (A) (A) (A) (A) (A) (A) (A) (A) (A)
                 (A) (A) (A) (A) (A) (A) (A) (A) (A) (A) (A) (A)
                 (A) (A) (A) (A) (A) (A) (A) (A) (A) (A) (A) (A)
                 (A) (A) (A) (A) (A) (A) (A) (A) (A) (A) (A) (A)
                 (A) (A) (A) (A) (A) (A) (A) (A) (A) (A) (A) (A)
                 (A) (A) (A) (A) (A) (A) (A) (A) (A) (A) (A) (A)
                 (A) (A) (A) (A) (A) (A) (A) (A) (A) (A) (A) (A)
                 (A) (A) (A) (A) (A) (A) (A) (A) (A) (A) (A) (A)
                 (A) (A) (A) (A) (A) (A) (A) (A) (A) (A) (A) (A)
                 (A) (A) (A) (A) (A) (A) (A) (A) (A) (A) (A) (A)
                 (A) (A) (A) (A) (A) (A) (A) (A) (A) (A) (A) (A)
                 (A) (A) (A) (A) (A) (A) (A) (A) (A) (A) (A) (A)
                 (A) (A) (A) (A) (A) (A) (A) (A) (A) (A) (A) (A)
                 (A) (A) (A) (A) (A) (A) (A) (A) (A) (A) (A) (A)
                 (A) (A) (A) (A) (A) (A) (A) (A) (A) (A) (A) (A)
                 (A) (A) (A) (A) (A) (A) (A) (A) (A) (A) (A) (A)
                 (A) (A) (A) (A) (A) (A) (A) (A) (A) (A) (A) (A)
                 (A) (A) (A) (A) (A) (A) (A) (A) (A) (A) (A) (A)
                 (A) (A) (A) (A) (A) (A) (A) (A) (A) (A) (A) (A)
                 (A) (A) (A) (A) (A) (A) (A) (A) (A) (A) (A) (A)
                 (A) (A) (A) (A) (A) (A) (A) (A) (A) (A) (A) (A)
                 (A) (A) (A) (A) (A) (A) (A) (A) (A) (A) (A) (A)
                 (A) (A) (A) (A) (A) (A) (A) (A) (A) (A) (A) (A)
                 (A) (A) (A) (A) (A) (A) (A) (A) (A) (A) (A) (A)
                 (A) (A) (A) (A) (A) (A) (A) (A) (A) (A) (A) (A)
                 (A) (A) (A) (A) (A) (A) (A) (A) (A) (A) (A) (A)
                 (A) (A) (A) (A) (A) (A) (A) (A) (A) (A) (A) (A)
                 (A) (A) (A) (A) (A) (A) (A) (A) (A) (A) (A) (A)
                 (A) (A) (A) (A) (A) (A) (A) (A) (A) (A)
    24 initial guesses have been made.
 Convergence on wavefunction:    0.001000000000000
 Davidson Disk Diagonalization:  ConvIn= 1.00D-03 SkipCon=T Conv= 1.00D-03.
 Max sub-space:  2000 roots to seek:    24 dimension of matrix:        34100
 Iteration     1 Dimension    24 NMult     0 NNew     24
 Estimated number of processors is:   12
 CISAX will form     1 AO SS matrices at one time.
 NMat=     1 NSing=     1 JSym2X= 0.
 FoFJK:  IHMeth= 1 ICntrl=       0 DoSepK=F KAlg= 0 I1Cent=           0 FoldK=F
 IRaf= 960000000 NMat=       1 IRICut=       1 DoRegI=T DoRafI=F ISym2E= 0 IDoP0=0 IntGTp=1.
 FoFCou: FMM=F IPFlag=           0 FMFlag=      100000 FMFlg1=           0
         NFxFlg=           0 DoJE=F BraDBF=F KetDBF=F FulRan=T
         wScrn=  0.000000 ICntrl=         0 IOpCl=  0 I1Cent=           0 NGrid=           0
         NMat0=    1 NMatS0=      1 NMatT0=    0 NMatD0=    1 NMtDS0=    0 NMtDT0=    0
 Symmetry not used in FoFCou.
 CoulSu:  requested number of processors reduced to:  18 ShMem   1 Linda.
 CalDSu:  requested number of processors reduced to:  37 ShMem   1 Linda.
 NMat=     1 NSing=     1 JSym2X= 0.
 CoulSu:  requested number of processors reduced to:  18 ShMem   1 Linda.
 CalDSu:  requested number of processors reduced to:  37 ShMem   1 Linda.
 NMat=     1 NSing=     1 JSym2X= 0.
 CoulSu:  requested number of processors reduced to:  18 ShMem   1 Linda.
 CalDSu:  requested number of processors reduced to:  37 ShMem   1 Linda.
 NMat=     1 NSing=     1 JSym2X= 0.
 CoulSu:  requested number of processors reduced to:  18 ShMem   1 Linda.
 CalDSu:  requested number of processors reduced to:  37 ShMem   1 Linda.
 NMat=     1 NSing=     1 JSym2X= 0.
 CoulSu:  requested number of processors reduced to:  18 ShMem   1 Linda.
 CalDSu:  requested number of processors reduced to:  37 ShMem   1 Linda.
 NMat=     1 NSing=     1 JSym2X= 0.
 CoulSu:  requested number of processors reduced to:  18 ShMem   1 Linda.
 CalDSu:  requested number of processors reduced to:  37 ShMem   1 Linda.
 NMat=     1 NSing=     1 JSym2X= 0.
 CoulSu:  requested number of processors reduced to:  18 ShMem   1 Linda.
 CalDSu:  requested number of processors reduced to:  37 ShMem   1 Linda.
 NMat=     1 NSing=     1 JSym2X= 0.
 CoulSu:  requested number of processors reduced to:  18 ShMem   1 Linda.
 CalDSu:  requested number of processors reduced to:  37 ShMem   1 Linda.
 NMat=     1 NSing=     1 JSym2X= 0.
 CoulSu:  requested number of processors reduced to:  18 ShMem   1 Linda.
 CalDSu:  requested number of processors reduced to:  37 ShMem   1 Linda.
 NMat=     1 NSing=     1 JSym2X= 0.
 CoulSu:  requested number of processors reduced to:  18 ShMem   1 Linda.
 CalDSu:  requested number of processors reduced to:  37 ShMem   1 Linda.
 NMat=     1 NSing=     1 JSym2X= 0.
 CoulSu:  requested number of processors reduced to:  18 ShMem   1 Linda.
 CalDSu:  requested number of processors reduced to:  37 ShMem   1 Linda.
 NMat=     1 NSing=     1 JSym2X= 0.
 CoulSu:  requested number of processors reduced to:  18 ShMem   1 Linda.
 CalDSu:  requested number of processors reduced to:  37 ShMem   1 Linda.
 NMat=     1 NSing=     0 JSym2X= 0.
 CoulSu:  requested number of processors reduced to:  18 ShMem   1 Linda.
 CalDSu:  requested number of processors reduced to:  37 ShMem   1 Linda.
 NMat=     1 NSing=     0 JSym2X= 0.
 CoulSu:  requested number of processors reduced to:  18 ShMem   1 Linda.
 CalDSu:  requested number of processors reduced to:  37 ShMem   1 Linda.
 NMat=     1 NSing=     0 JSym2X= 0.
 CoulSu:  requested number of processors reduced to:  18 ShMem   1 Linda.
 CalDSu:  requested number of processors reduced to:  37 ShMem   1 Linda.
 NMat=     1 NSing=     0 JSym2X= 0.
 CoulSu:  requested number of processors reduced to:  18 ShMem   1 Linda.
 CalDSu:  requested number of processors reduced to:  37 ShMem   1 Linda.
 NMat=     1 NSing=     0 JSym2X= 0.
 CoulSu:  requested number of processors reduced to:  18 ShMem   1 Linda.
 CalDSu:  requested number of processors reduced to:  37 ShMem   1 Linda.
 NMat=     1 NSing=     0 JSym2X= 0.
 CoulSu:  requested number of processors reduced to:  18 ShMem   1 Linda.
 CalDSu:  requested number of processors reduced to:  37 ShMem   1 Linda.
 NMat=     1 NSing=     0 JSym2X= 0.
 CoulSu:  requested number of processors reduced to:  18 ShMem   1 Linda.
 CalDSu:  requested number of processors reduced to:  37 ShMem   1 Linda.
 NMat=     1 NSing=     0 JSym2X= 0.
 CoulSu:  requested number of processors reduced to:  18 ShMem   1 Linda.
 CalDSu:  requested number of processors reduced to:  37 ShMem   1 Linda.
 NMat=     1 NSing=     0 JSym2X= 0.
 CoulSu:  requested number of processors reduced to:  18 ShMem   1 Linda.
 CalDSu:  requested number of processors reduced to:  37 ShMem   1 Linda.
 NMat=     1 NSing=     0 JSym2X= 0.
 CoulSu:  requested number of processors reduced to:  18 ShMem   1 Linda.
 CalDSu:  requested number of processors reduced to:  37 ShMem   1 Linda.
 NMat=     1 NSing=     0 JSym2X= 0.
 CoulSu:  requested number of processors reduced to:  18 ShMem   1 Linda.
 CalDSu:  requested number of processors reduced to:  37 ShMem   1 Linda.
 NMat=     1 NSing=     0 JSym2X= 0.
 CoulSu:  requested number of processors reduced to:  18 ShMem   1 Linda.
 CalDSu:  requested number of processors reduced to:  37 ShMem   1 Linda.
 New state      1 was old state      2
 Excitation Energies [eV] at current iteration:
 Root      1 :     7.224524655877309
 Root      2 :     7.244351103123241
 Root      3 :     7.522912606085926
 Root      4 :     7.612738870189527
 Root      5 :     7.716289366004307
 Root      6 :     7.745517268177988
 Root      7 :     7.961069696629957
 Root      8 :     7.982768641169836
 Root      9 :     8.030018545063447
 Root     10 :     8.073567723222631
 Root     11 :     8.305616001109035
 Root     12 :     8.361380522368284
 Root     13 :     8.553861843944553
 Root     14 :     8.590052093288024
 Root     15 :     8.670303607849432
 Root     16 :     8.708890352801756
 Root     17 :     8.723546433221919
 Root     18 :     8.741695714971959
 Root     19 :     8.774079267212796
 Root     20 :     8.832917415198562
 Root     21 :     8.860817234563770
 Root     22 :     8.883315939728504
 Root     23 :     8.913540922330411
 Root     24 :     8.930993757292022
 Iteration     2 Dimension    48 NMult    24 NNew     24
 Estimated number of processors is:   12
 CISAX will form     1 AO SS matrices at one time.
 NMat=     1 NSing=     1 JSym2X= 0.
 CoulSu:  requested number of processors reduced to:  18 ShMem   1 Linda.
 CalDSu:  requested number of processors reduced to:  37 ShMem   1 Linda.
 NMat=     1 NSing=     1 JSym2X= 0.
 CoulSu:  requested number of processors reduced to:  18 ShMem   1 Linda.
 CalDSu:  requested number of processors reduced to:  37 ShMem   1 Linda.
 NMat=     1 NSing=     1 JSym2X= 0.
 CoulSu:  requested number of processors reduced to:  18 ShMem   1 Linda.
 CalDSu:  requested number of processors reduced to:  37 ShMem   1 Linda.
 NMat=     1 NSing=     1 JSym2X= 0.
 CoulSu:  requested number of processors reduced to:  18 ShMem   1 Linda.
 CalDSu:  requested number of processors reduced to:  37 ShMem   1 Linda.
 NMat=     1 NSing=     1 JSym2X= 0.
 CoulSu:  requested number of processors reduced to:  18 ShMem   1 Linda.
 CalDSu:  requested number of processors reduced to:  37 ShMem   1 Linda.
 NMat=     1 NSing=     1 JSym2X= 0.
 CoulSu:  requested number of processors reduced to:  18 ShMem   1 Linda.
 CalDSu:  requested number of processors reduced to:  37 ShMem   1 Linda.
 NMat=     1 NSing=     1 JSym2X= 0.
 CoulSu:  requested number of processors reduced to:  18 ShMem   1 Linda.
 CalDSu:  requested number of processors reduced to:  37 ShMem   1 Linda.
 NMat=     1 NSing=     1 JSym2X= 0.
 CoulSu:  requested number of processors reduced to:  18 ShMem   1 Linda.
 CalDSu:  requested number of processors reduced to:  37 ShMem   1 Linda.
 NMat=     1 NSing=     1 JSym2X= 0.
 CoulSu:  requested number of processors reduced to:  18 ShMem   1 Linda.
 CalDSu:  requested number of processors reduced to:  37 ShMem   1 Linda.
 NMat=     1 NSing=     1 JSym2X= 0.
 CoulSu:  requested number of processors reduced to:  18 ShMem   1 Linda.
 CalDSu:  requested number of processors reduced to:  37 ShMem   1 Linda.
 NMat=     1 NSing=     1 JSym2X= 0.
 CoulSu:  requested number of processors reduced to:  18 ShMem   1 Linda.
 CalDSu:  requested number of processors reduced to:  37 ShMem   1 Linda.
 NMat=     1 NSing=     1 JSym2X= 0.
 CoulSu:  requested number of processors reduced to:  18 ShMem   1 Linda.
 CalDSu:  requested number of processors reduced to:  37 ShMem   1 Linda.
 NMat=     1 NSing=     0 JSym2X= 0.
 CoulSu:  requested number of processors reduced to:  18 ShMem   1 Linda.
 CalDSu:  requested number of processors reduced to:  37 ShMem   1 Linda.
 NMat=     1 NSing=     0 JSym2X= 0.
 CoulSu:  requested number of processors reduced to:  18 ShMem   1 Linda.
 CalDSu:  requested number of processors reduced to:  37 ShMem   1 Linda.
 NMat=     1 NSing=     0 JSym2X= 0.
 CoulSu:  requested number of processors reduced to:  18 ShMem   1 Linda.
 CalDSu:  requested number of processors reduced to:  37 ShMem   1 Linda.
 NMat=     1 NSing=     0 JSym2X= 0.
 CoulSu:  requested number of processors reduced to:  18 ShMem   1 Linda.
 CalDSu:  requested number of processors reduced to:  37 ShMem   1 Linda.
 NMat=     1 NSing=     0 JSym2X= 0.
 CoulSu:  requested number of processors reduced to:  18 ShMem   1 Linda.
 CalDSu:  requested number of processors reduced to:  37 ShMem   1 Linda.
 NMat=     1 NSing=     0 JSym2X= 0.
 CoulSu:  requested number of processors reduced to:  18 ShMem   1 Linda.
 CalDSu:  requested number of processors reduced to:  37 ShMem   1 Linda.
 NMat=     1 NSing=     0 JSym2X= 0.
 CoulSu:  requested number of processors reduced to:  18 ShMem   1 Linda.
 CalDSu:  requested number of processors reduced to:  37 ShMem   1 Linda.
 NMat=     1 NSing=     0 JSym2X= 0.
 CoulSu:  requested number of processors reduced to:  18 ShMem   1 Linda.
 CalDSu:  requested number of processors reduced to:  37 ShMem   1 Linda.
 NMat=     1 NSing=     0 JSym2X= 0.
 CoulSu:  requested number of processors reduced to:  18 ShMem   1 Linda.
 CalDSu:  requested number of processors reduced to:  37 ShMem   1 Linda.
 NMat=     1 NSing=     0 JSym2X= 0.
 CoulSu:  requested number of processors reduced to:  18 ShMem   1 Linda.
 CalDSu:  requested number of processors reduced to:  37 ShMem   1 Linda.
 NMat=     1 NSing=     0 JSym2X= 0.
 CoulSu:  requested number of processors reduced to:  18 ShMem   1 Linda.
 CalDSu:  requested number of processors reduced to:  37 ShMem   1 Linda.
 NMat=     1 NSing=     0 JSym2X= 0.
 CoulSu:  requested number of processors reduced to:  18 ShMem   1 Linda.
 CalDSu:  requested number of processors reduced to:  37 ShMem   1 Linda.
 Root      1 not converged, maximum delta is    0.318179425135349
 Excitation Energies [eV] at current iteration:
 Root      1 :     6.881352774918663   Change is   -0.343171880958646
 Root      2 :     7.053322562623027   Change is   -0.469590043462899
 Root      3 :     7.096288963959047   Change is   -0.148062139164194
 Root      4 :     7.357399362346966   Change is   -0.255339507842561
 Root      5 :     7.529833838421260   Change is   -0.186455527583047
 Root      6 :     7.626430505086658   Change is   -0.119086763091330
 Root      7 :     7.764875119540403   Change is   -0.196194577089553
 Root      8 :     7.839655642556126   Change is   -0.190362902507320
 Root      9 :     7.875102787577961   Change is   -0.107665853591876
 Root     10 :     7.962120183796741   Change is   -0.111447539425890
 Root     11 :     8.037434004210922   Change is   -0.268181996898114
 Root     12 :     8.223849713099138   Change is   -0.137530809269147
 Root     13 :     8.272032235325542   Change is   -0.281829608619011
 Root     14 :     8.395322159031574   Change is   -0.274981448817857
 Root     15 :     8.437738383772464   Change is   -0.152313709515561
 Root     16 :     8.487450064271780   Change is   -0.221440288529975
 Root     17 :     8.591324282668387   Change is   -0.132222150553533
 Root     18 :     8.617325508932375   Change is   -0.156753758280422
 Root     19 :     8.635470874242740   Change is   -0.106224840729220
 Root     20 :     8.679736941633788   Change is   -0.181080292929982
 Root     21 :     8.728980361220710   Change is   -0.103937053977852
 Root     22 :     8.737090143423170   Change is   -0.176450778907241
 Root     23 :     8.758049613728122   Change is   -0.125266326000382
 Root     24 :     8.818301196511127   Change is   -0.112692560780895
 Iteration     3 Dimension    54 NMult    48 NNew      6
 Estimated number of processors is:   12
 CISAX will form     1 AO SS matrices at one time.
 NMat=     1 NSing=     1 JSym2X= 0.
 CoulSu:  requested number of processors reduced to:  18 ShMem   1 Linda.
 CalDSu:  requested number of processors reduced to:  37 ShMem   1 Linda.
 NMat=     1 NSing=     1 JSym2X= 0.
 CoulSu:  requested number of processors reduced to:  18 ShMem   1 Linda.
 CalDSu:  requested number of processors reduced to:  37 ShMem   1 Linda.
 NMat=     1 NSing=     1 JSym2X= 0.
 CoulSu:  requested number of processors reduced to:  18 ShMem   1 Linda.
 CalDSu:  requested number of processors reduced to:  37 ShMem   1 Linda.
 NMat=     1 NSing=     0 JSym2X= 0.
 CoulSu:  requested number of processors reduced to:  18 ShMem   1 Linda.
 CalDSu:  requested number of processors reduced to:  37 ShMem   1 Linda.
 NMat=     1 NSing=     0 JSym2X= 0.
 CoulSu:  requested number of processors reduced to:  18 ShMem   1 Linda.
 CalDSu:  requested number of processors reduced to:  37 ShMem   1 Linda.
 NMat=     1 NSing=     0 JSym2X= 0.
 CoulSu:  requested number of processors reduced to:  18 ShMem   1 Linda.
 CalDSu:  requested number of processors reduced to:  37 ShMem   1 Linda.
 Root      1 not converged, maximum delta is    0.034910713729570
 Excitation Energies [eV] at current iteration:
 Root      1 :     6.813968821143601   Change is   -0.067383953775062
 Root      2 :     6.974132199203297   Change is   -0.079190363419730
 Root      3 :     7.083839450108473   Change is   -0.012449513850574
 Root      4 :     7.332930802464291   Change is   -0.024468559882676
 Root      5 :     7.482231510246346   Change is   -0.047602328174914
 Root      6 :     7.616375537790908   Change is   -0.010054967295749
 Iteration     4 Dimension    60 NMult    54 NNew      6
 Estimated number of processors is:   12
 CISAX will form     1 AO SS matrices at one time.
 NMat=     1 NSing=     1 JSym2X= 0.
 CoulSu:  requested number of processors reduced to:  18 ShMem   1 Linda.
 CalDSu:  requested number of processors reduced to:  37 ShMem   1 Linda.
 NMat=     1 NSing=     1 JSym2X= 0.
 CoulSu:  requested number of processors reduced to:  18 ShMem   1 Linda.
 CalDSu:  requested number of processors reduced to:  37 ShMem   1 Linda.
 NMat=     1 NSing=     1 JSym2X= 0.
 CoulSu:  requested number of processors reduced to:  18 ShMem   1 Linda.
 CalDSu:  requested number of processors reduced to:  37 ShMem   1 Linda.
 NMat=     1 NSing=     0 JSym2X= 0.
 CoulSu:  requested number of processors reduced to:  18 ShMem   1 Linda.
 CalDSu:  requested number of processors reduced to:  37 ShMem   1 Linda.
 NMat=     1 NSing=     0 JSym2X= 0.
 CoulSu:  requested number of processors reduced to:  18 ShMem   1 Linda.
 CalDSu:  requested number of processors reduced to:  37 ShMem   1 Linda.
 NMat=     1 NSing=     0 JSym2X= 0.
 CoulSu:  requested number of processors reduced to:  18 ShMem   1 Linda.
 CalDSu:  requested number of processors reduced to:  37 ShMem   1 Linda.
 Root      1 not converged, maximum delta is    0.006016798387158
 Excitation Energies [eV] at current iteration:
 Root      1 :     6.805938810433204   Change is   -0.008030010710397
 Root      2 :     6.962690581144550   Change is   -0.011441618058747
 Root      3 :     7.081568375830322   Change is   -0.002271074278152
 Root      4 :     7.329401100619782   Change is   -0.003529701844509
 Root      5 :     7.472197566853762   Change is   -0.010033943392584
 Root      6 :     7.614683869298513   Change is   -0.001691668492395
 Iteration     5 Dimension    66 NMult    60 NNew      6
 Estimated number of processors is:   12
 CISAX will form     1 AO SS matrices at one time.
 NMat=     1 NSing=     1 JSym2X= 0.
 CoulSu:  requested number of processors reduced to:  18 ShMem   1 Linda.
 CalDSu:  requested number of processors reduced to:  37 ShMem   1 Linda.
 NMat=     1 NSing=     1 JSym2X= 0.
 CoulSu:  requested number of processors reduced to:  18 ShMem   1 Linda.
 CalDSu:  requested number of processors reduced to:  37 ShMem   1 Linda.
 NMat=     1 NSing=     1 JSym2X= 0.
 CoulSu:  requested number of processors reduced to:  18 ShMem   1 Linda.
 CalDSu:  requested number of processors reduced to:  37 ShMem   1 Linda.
 NMat=     1 NSing=     0 JSym2X= 0.
 CoulSu:  requested number of processors reduced to:  18 ShMem   1 Linda.
 CalDSu:  requested number of processors reduced to:  37 ShMem   1 Linda.
 NMat=     1 NSing=     0 JSym2X= 0.
 CoulSu:  requested number of processors reduced to:  18 ShMem   1 Linda.
 CalDSu:  requested number of processors reduced to:  37 ShMem   1 Linda.
 NMat=     1 NSing=     0 JSym2X= 0.
 CoulSu:  requested number of processors reduced to:  18 ShMem   1 Linda.
 CalDSu:  requested number of processors reduced to:  37 ShMem   1 Linda.
 Root      1 not converged, maximum delta is    0.001597566469418
 Excitation Energies [eV] at current iteration:
 Root      1 :     6.805103297058483   Change is   -0.000835513374721
 Root      2 :     6.961309890707897   Change is   -0.001380690436653
 Root      3 :     7.081255320596815   Change is   -0.000313055233507
 Root      4 :     7.328912380627434   Change is   -0.000488719992347
 Root      5 :     7.470840662321393   Change is   -0.001356904532369
 Root      6 :     7.614403712156502   Change is   -0.000280157142012
 Iteration     6 Dimension    72 NMult    66 NNew      6
 Estimated number of processors is:   12
 CISAX will form     1 AO SS matrices at one time.
 NMat=     1 NSing=     1 JSym2X= 0.
 CoulSu:  requested number of processors reduced to:  18 ShMem   1 Linda.
 CalDSu:  requested number of processors reduced to:  37 ShMem   1 Linda.
 NMat=     1 NSing=     1 JSym2X= 0.
 CoulSu:  requested number of processors reduced to:  18 ShMem   1 Linda.
 CalDSu:  requested number of processors reduced to:  37 ShMem   1 Linda.
 NMat=     1 NSing=     1 JSym2X= 0.
 CoulSu:  requested number of processors reduced to:  18 ShMem   1 Linda.
 CalDSu:  requested number of processors reduced to:  37 ShMem   1 Linda.
 NMat=     1 NSing=     0 JSym2X= 0.
 CoulSu:  requested number of processors reduced to:  18 ShMem   1 Linda.
 CalDSu:  requested number of processors reduced to:  37 ShMem   1 Linda.
 NMat=     1 NSing=     0 JSym2X= 0.
 CoulSu:  requested number of processors reduced to:  18 ShMem   1 Linda.
 CalDSu:  requested number of processors reduced to:  37 ShMem   1 Linda.
 NMat=     1 NSing=     0 JSym2X= 0.
 CoulSu:  requested number of processors reduced to:  18 ShMem   1 Linda.
 CalDSu:  requested number of processors reduced to:  37 ShMem   1 Linda.
 Root      1 has converged.
 Excitation Energies [eV] at current iteration:
 Root      1 :     6.805002226934162   Change is   -0.000101070124322
 Root      2 :     6.961139581763428   Change is   -0.000170308944469
 Root      3 :     7.081217717838089   Change is   -0.000037602758727
 Root      4 :     7.328849723340517   Change is   -0.000062657286917
[...]
                 (A) (A) (A) (A) (A) (A) (A) (A) (A) (A) (A) (A)
                 (A) (A) (A) (A) (A) (A) (A) (A) (A) (A) (A) (A)
                 (A) (A) (A) (A) (A) (A) (A) (A) (A) (A) (A) (A)
                 (A) (A) (A) (A) (A) (A) (A) (A) (A) (A) (A) (A)
                 (A) (A) (A) (A) (A) (A) (A) (A) (A) (A) (A) (A)
                 (A) (A) (A) (A) (A) (A) (A) (A) (A) (A) (A) (A)
                 (A) (A) (A) (A) (A) (A) (A) (A) (A) (A) (A) (A)
                 (A) (A) (A) (A) (A) (A) (A) (A) (A) (A) (A) (A)
                 (A) (A) (A) (A) (A) (A) (A) (A) (A) (A) (A) (A)
                 (A) (A) (A) (A) (A) (A) (A) (A) (A) (A) (A) (A)
                 (A) (A) (A) (A) (A) (A) (A) (A) (A) (A) (A) (A)
                 (A) (A) (A) (A) (A) (A) (A) (A) (A) (A) (A) (A)
                 (A) (A) (A) (A) (A) (A) (A) (A) (A) (A) (A) (A)
                 (A) (A) (A) (A) (A) (A) (A) (A) (A) (A) (A) (A)
                 (A) (A) (A) (A) (A) (A) (A) (A) (A) (A) (A) (A)
                 (A) (A) (A) (A) (A) (A) (A) (A) (A) (A) (A) (A)
                 (A) (A) (A) (A) (A) (A) (A) (A) (A) (A) (A) (A)
                 (A) (A) (A) (A) (A) (A) (A) (A) (A) (A) (A) (A)
                 (A) (A) (A) (A) (A) (A) (A) (A) (A) (A) (A) (A)
                 (A) (A) (A) (A) (A) (A) (A) (A) (A) (A) (A) (A)
                 (A) (A) (A) (A) (A) (A) (A) (A) (A) (A) (A) (A)
                 (A) (A) (A) (A) (A) (A) (A) (A) (A) (A)
 The electronic state is 1-A.
 Alpha  occ. eigenvalues --  -19.64218 -19.60348 -10.59331 -10.57655 -10.54248
 Alpha  occ. eigenvalues --  -10.53761  -1.15940  -1.12447  -0.89499  -0.81209
 Alpha  occ. eigenvalues --   -0.72910  -0.66608  -0.60904  -0.57327  -0.53770
 Alpha  occ. eigenvalues --   -0.52811  -0.50535  -0.47679  -0.47189  -0.44190
 Alpha  occ. eigenvalues --   -0.40709  -0.40257  -0.37329  -0.36948  -0.33392
 Alpha virt. eigenvalues --   -0.00017   0.01692   0.02449   0.02973   0.04959
 Alpha virt. eigenvalues --    0.05097   0.05470   0.06553   0.07030   0.09651
 Alpha virt. eigenvalues --    0.10313   0.10683   0.11384   0.12152   0.12709
 Alpha virt. eigenvalues --    0.13084   0.13899   0.15796   0.16683   0.17035
 Alpha virt. eigenvalues --    0.17484   0.18203   0.18935   0.19676   0.19967
 Alpha virt. eigenvalues --    0.20464   0.20577   0.21392   0.22321   0.23066
 Alpha virt. eigenvalues --    0.23478   0.23792   0.23908   0.25475   0.25632
 Alpha virt. eigenvalues --    0.26427   0.27059   0.27583   0.28145   0.28264
 Alpha virt. eigenvalues --    0.28644   0.29170   0.29609   0.30296   0.30664
 Alpha virt. eigenvalues --    0.30754   0.31028   0.31545   0.32978   0.33421
 Alpha virt. eigenvalues --    0.33829   0.34461   0.35506   0.35914   0.36445
 Alpha virt. eigenvalues --    0.36757   0.37050   0.37867   0.38339   0.38519
 Alpha virt. eigenvalues --    0.38866   0.39472   0.40106   0.40521   0.40785
 Alpha virt. eigenvalues --    0.41721   0.42826   0.43385   0.43934   0.44805
 Alpha virt. eigenvalues --    0.45763   0.46196   0.46556   0.46983   0.47785
 Alpha virt. eigenvalues --    0.48013   0.48561   0.50027   0.50687   0.50755
 Alpha virt. eigenvalues --    0.51916   0.52482   0.52680   0.53897   0.54873
 Alpha virt. eigenvalues --    0.55093   0.55892   0.57128   0.58271   0.58996
 Alpha virt. eigenvalues --    0.59576   0.60687   0.61119   0.62586   0.63261
 Alpha virt. eigenvalues --    0.63986   0.65113   0.65480   0.65868   0.66627
 Alpha virt. eigenvalues --    0.66776   0.68957   0.69561   0.71437   0.71835
 Alpha virt. eigenvalues --    0.72926   0.73595   0.75055   0.75956   0.76350
 Alpha virt. eigenvalues --    0.78087   0.79444   0.80600   0.82899   0.83304
 Alpha virt. eigenvalues --    0.84927   0.86599   0.87088   0.88337   0.89371
 Alpha virt. eigenvalues --    0.91184   0.92019   0.93152   0.93891   0.94026
 Alpha virt. eigenvalues --    0.95397   0.96664   0.98819   0.99288   1.00523
 Alpha virt. eigenvalues --    1.00887   1.02825   1.03294   1.03614   1.04032
 Alpha virt. eigenvalues --    1.04907   1.05922   1.07130   1.08674   1.08709
 Alpha virt. eigenvalues --    1.10371   1.11803   1.11839   1.14021   1.14571
 Alpha virt. eigenvalues --    1.15795   1.17182   1.18777   1.19421   1.20202
 Alpha virt. eigenvalues --    1.20857   1.22246   1.23101   1.23968   1.25072
 Alpha virt. eigenvalues --    1.26373   1.28966   1.30459   1.31490   1.32164
 Alpha virt. eigenvalues --    1.33519   1.34133   1.35368   1.36078   1.39023
 Alpha virt. eigenvalues --    1.39529   1.41843   1.42153   1.42887   1.44421
 Alpha virt. eigenvalues --    1.45342   1.46794   1.50488   1.52244   1.53686
 Alpha virt. eigenvalues --    1.55192   1.57205   1.57737   1.59118   1.60528
 Alpha virt. eigenvalues --    1.62264   1.63338   1.65937   1.66564   1.68370
 Alpha virt. eigenvalues --    1.70690   1.71239   1.71767   1.73974   1.77198
 Alpha virt. eigenvalues --    1.78235   1.80377   1.82366   1.86150   1.88129
 Alpha virt. eigenvalues --    1.88909   1.89363   1.91504   1.94301   1.95860
 Alpha virt. eigenvalues --    1.96795   1.98137   2.00720   2.01239   2.03184
 Alpha virt. eigenvalues --    2.03376   2.06346   2.08442   2.09052   2.09919
 Alpha virt. eigenvalues --    2.12184   2.14141   2.15034   2.15750   2.16279
 Alpha virt. eigenvalues --    2.18317   2.19319   2.20685   2.21473   2.22189
 Alpha virt. eigenvalues --    2.23032   2.23238   2.25535   2.26822   2.28744
 Alpha virt. eigenvalues --    2.29347   2.32031   2.32971   2.33621   2.34594
 Alpha virt. eigenvalues --    2.35275   2.36764   2.37362   2.39098   2.40068
 Alpha virt. eigenvalues --    2.41129   2.41719   2.44632   2.45885   2.47303
 Alpha virt. eigenvalues --    2.48454   2.49695   2.50894   2.52944   2.54553
 Alpha virt. eigenvalues --    2.55959   2.56897   2.57332   2.58347   2.59880
 Alpha virt. eigenvalues --    2.60113   2.62402   2.63140   2.66093   2.66899
 Alpha virt. eigenvalues --    2.68272   2.69487   2.70787   2.72623   2.73399
 Alpha virt. eigenvalues --    2.76031   2.76997   2.79648   2.80966   2.82214
 Alpha virt. eigenvalues --    2.83411   2.86022   2.86478   2.86769   2.88644
 Alpha virt. eigenvalues --    2.89541   2.91245   2.92374   2.93264   2.93976
 Alpha virt. eigenvalues --    2.95700   2.96466   2.97723   2.99239   3.00257
 Alpha virt. eigenvalues --    3.01484   3.02010   3.03106   3.04914   3.05433
 Alpha virt. eigenvalues --    3.07119   3.09384   3.10921   3.11891   3.14461
 Alpha virt. eigenvalues --    3.15178   3.16052   3.19938   3.20142   3.21569
 Alpha virt. eigenvalues --    3.24701   3.25654   3.26358   3.28607   3.29420
 Alpha virt. eigenvalues --    3.31884   3.35177   3.36125   3.37570   3.38641
 Alpha virt. eigenvalues --    3.40702   3.43558   3.45348   3.46185   3.47722
 Alpha virt. eigenvalues --    3.51662   3.52846   3.53505   3.54258   3.57429
 Alpha virt. eigenvalues --    3.59182   3.60631   3.62649   3.64730   3.65296
 Alpha virt. eigenvalues --    3.68707   3.71042   3.73682   3.74281   3.76086
 Alpha virt. eigenvalues --    3.77501   3.77954   3.80368   3.85728   3.88226
 Alpha virt. eigenvalues --    3.90168   3.92877   3.94895   3.96534   3.98461
 Alpha virt. eigenvalues --    4.00495   4.01026   4.04155   4.06027   4.09063
 Alpha virt. eigenvalues --    4.09325   4.11936   4.15063   4.16560   4.19803
 Alpha virt. eigenvalues --    4.21696   4.26647   4.27829   4.30853   4.34739
 Alpha virt. eigenvalues --    4.37286   4.42770   4.43208   4.48173   4.49307
 Alpha virt. eigenvalues --    4.51271   4.52613   4.55142   4.57508   4.62834
 Alpha virt. eigenvalues --    4.66154   4.67248   4.69591   4.72860   4.75506
 Alpha virt. eigenvalues --    4.80235   4.83537   4.86441   4.91130   4.93251
 Alpha virt. eigenvalues --    5.04388   5.08902   5.13511   5.17659   5.26528
 Alpha virt. eigenvalues --    5.27482   5.31594   5.34166   5.36604   5.38838
 Alpha virt. eigenvalues --    5.40913   5.43460   5.46144   5.49776   5.53129
 Alpha virt. eigenvalues --    5.56283   5.57321   5.59452   5.61107   5.62862
 Alpha virt. eigenvalues --    5.63863   5.65365   5.68125   5.69908   5.71666
 Alpha virt. eigenvalues --    5.72506   5.74433   5.74825   5.78204   5.79109
 Alpha virt. eigenvalues --    5.81019   5.81776   5.82998   5.84532   5.88965
 Alpha virt. eigenvalues --    5.89981   5.90935   5.91443   5.93498   5.94788
 Alpha virt. eigenvalues --    5.96946   5.97582   6.00083   6.01382   6.02159
 Alpha virt. eigenvalues --    6.04356   6.06000   6.06911   6.08682   6.10044
 Alpha virt. eigenvalues --    6.12358   6.13780   6.15019   6.16171   6.17805
 Alpha virt. eigenvalues --    6.20370   6.20559   6.21633   6.23842   6.24574
 Alpha virt. eigenvalues --    6.26542   6.27650   6.30469   6.30990   6.31836
 Alpha virt. eigenvalues --    6.33090   6.34974   6.35076   6.36341   6.36986
 Alpha virt. eigenvalues --    6.38825   6.43134   6.44580   6.46828   6.47580
 Alpha virt. eigenvalues --    6.49366   6.50825   6.54333   6.55256   6.57477
 Alpha virt. eigenvalues --    6.61046   6.62411   6.63246   6.64329   6.65697
 Alpha virt. eigenvalues --    6.68822   6.70877   6.71532   6.73409   6.75634
 Alpha virt. eigenvalues --    6.76084   6.78662   6.82097   6.85666   6.86357
 Alpha virt. eigenvalues --    6.89213   6.92281   6.93112   6.95166   6.97331
 Alpha virt. eigenvalues --    6.98173   7.00168   7.02166   7.04315   7.06382
 Alpha virt. eigenvalues --    7.09995   7.12603   7.16001   7.18327   7.21319
 Alpha virt. eigenvalues --    7.23987   7.26058   7.26876   7.29596   7.31487
 Alpha virt. eigenvalues --    7.32546   7.34640   7.36386   7.38064   7.39874
 Alpha virt. eigenvalues --    7.41032   7.43119   7.44265   7.45740   7.46411
 Alpha virt. eigenvalues --    7.47828   7.49332   7.50766   7.52980   7.54811
 Alpha virt. eigenvalues --    7.55753   7.57153   7.58309   7.60489   7.62187
 Alpha virt. eigenvalues --    7.62673   7.63506   7.66607   7.69134   7.69723
 Alpha virt. eigenvalues --    7.70494   7.72123   7.74094   7.75120   7.76862
 Alpha virt. eigenvalues --    7.77865   7.78676   7.79775   7.81227   7.83838
 Alpha virt. eigenvalues --    7.84144   7.86000   7.88086   7.88504   7.88939
 Alpha virt. eigenvalues --    7.92361   7.94371   7.95067   7.96206   7.97923
 Alpha virt. eigenvalues --    8.00405   8.01868   8.02990   8.06709   8.07978
 Alpha virt. eigenvalues --    8.10025   8.13650   8.15187   8.17937   8.19298
 Alpha virt. eigenvalues --    8.22181   8.23294   8.24499   8.26494   8.27885
 Alpha virt. eigenvalues --    8.29986   8.31500   8.32550   8.34456   8.35274
 Alpha virt. eigenvalues --    8.36715   8.38654   8.40973   8.42232   8.43288
 Alpha virt. eigenvalues --    8.44824   8.46668   8.47432   8.49157   8.50770
 Alpha virt. eigenvalues --    8.51872   8.52877   8.56375   8.57515   8.58384
 Alpha virt. eigenvalues --    8.60121   8.61477   8.62736   8.64569   8.66152
 Alpha virt. eigenvalues --    8.69166   8.70381   8.71378   8.73992   8.75109
 Alpha virt. eigenvalues --    8.75770   8.80806   8.82440   8.85843   8.90604
 Alpha virt. eigenvalues --    8.90836   8.91752   8.93983   8.97951   9.01368
 Alpha virt. eigenvalues --    9.07155   9.08050   9.14661   9.20484   9.24453
 Alpha virt. eigenvalues --    9.27655   9.30512   9.33187   9.35556   9.38083
 Alpha virt. eigenvalues --    9.48162   9.53434   9.55273   9.55399   9.60855
 Alpha virt. eigenvalues --    9.61572   9.64073   9.65231   9.66792   9.70316
 Alpha virt. eigenvalues --    9.74573   9.75718   9.78849   9.82246   9.84582
 Alpha virt. eigenvalues --    9.86478   9.88953   9.92076   9.94789   9.96828
 Alpha virt. eigenvalues --    9.98926  10.01370  10.05195  10.07533  10.08375
 Alpha virt. eigenvalues --   10.14414  10.16438  10.20795  10.26909  10.31022
 Alpha virt. eigenvalues --   10.31728  10.32245  10.41577  10.67045  10.75011
 Alpha virt. eigenvalues --   10.91156  11.00451  11.15132  11.17571  11.32819
 Alpha virt. eigenvalues --   11.35303  11.40890  11.51636  11.55100  11.59800
 Alpha virt. eigenvalues --   11.70048  11.75957  11.85859  11.93082  11.95480
 Alpha virt. eigenvalues --   12.02038  12.15584  12.15912  12.22313  12.23742
 Alpha virt. eigenvalues --   12.32882  12.42076  12.49402  12.53040  12.62673
 Alpha virt. eigenvalues --   12.65718  12.90739  12.93258  12.98660  13.03276
 Alpha virt. eigenvalues --   13.05169  13.11321  13.71958  13.77628  13.92201
 Alpha virt. eigenvalues --   13.94666  14.42129  14.46495  16.54000  16.63170
 Alpha virt. eigenvalues --   29.04852  29.07900  29.13789  29.19620  48.47241
 Alpha virt. eigenvalues --   48.52122 146.53989 146.56529 146.65838 146.74394
 Alpha virt. eigenvalues --  251.58430 251.63712
          Condensed to atoms (all electrons):
               1          2          3          4          5          6
     1  C    5.660336   0.327857   0.153622   0.127996  -0.047776  -0.072453
     2  H    0.327857   0.502418  -0.045797  -0.052561   0.003298   0.009113
     3  O    0.153622  -0.045797   8.503996  -0.078194   0.001105   0.000100
     4  C    0.127996  -0.052561  -0.078194   6.208075   0.354721   0.368067
     5  H   -0.047776   0.003298   0.001105   0.354721   0.463354  -0.013791
     6  H   -0.072453   0.009113   0.000100   0.368067  -0.013791   0.467762
     7  C   -0.075143  -0.014221   0.017979   0.029819  -0.077872  -0.076991
     8  H   -0.028945  -0.013377   0.165490  -0.015272   0.000162  -0.000567
     9  H    0.383166  -0.013256  -0.034280  -0.072805  -0.000873  -0.005873
    10  C    0.014815   0.000625  -0.013419  -0.071836   0.004186   0.000105
    11  O   -0.029196   0.003920  -0.011322   0.008296   0.000064  -0.000581
    12  H   -0.022419  -0.022823   0.000517  -0.038764  -0.001537   0.000626
    13  H    0.005078  -0.000456  -0.000126  -0.014101   0.000433   0.000498
    14  H   -0.010052   0.003003  -0.000599   0.026896   0.004180   0.000520
    15  H   -0.001344   0.003387   0.000743  -0.074151  -0.005264  -0.004153
    16  H   -0.000514   0.001848   0.000674  -0.057436   0.010071   0.002239
               7          8          9         10         11         12
     1  C   -0.075143  -0.028945   0.383166   0.014815  -0.029196  -0.022419
     2  H   -0.014221  -0.013377  -0.013256   0.000625   0.003920  -0.022823
     3  O    0.017979   0.165490  -0.034280  -0.013419  -0.011322   0.000517
     4  C    0.029819  -0.015272  -0.072805  -0.071836   0.008296  -0.038764
     5  H   -0.077872   0.000162  -0.000873   0.004186   0.000064  -0.001537
     6  H   -0.076991  -0.000567  -0.005873   0.000105  -0.000581   0.000626
     7  C    6.315365   0.002396   0.001178   0.062962  -0.082004   0.023152
     8  H    0.002396   0.459336  -0.024876  -0.000932  -0.003382   0.022240
     9  H    0.001178  -0.024876   0.458548  -0.001062   0.002308  -0.002251
    10  C    0.062962  -0.000932  -0.001062   5.667958   0.256855  -0.098079
    11  O   -0.082004  -0.003382   0.002308   0.256855   8.300521   0.251526
    12  H    0.023152   0.022240  -0.002251  -0.098079   0.251526   0.481217
    13  H   -0.068594   0.000372  -0.000201   0.406994  -0.070633   0.028783
    14  H   -0.092839  -0.000353  -0.000054   0.339637  -0.066141  -0.012736
    15  H    0.356199  -0.000661   0.000396  -0.057635   0.005383  -0.006564
    16  H    0.324345  -0.000856  -0.000319  -0.065794  -0.005831  -0.016853
              13         14         15         16
     1  C    0.005078  -0.010052  -0.001344  -0.000514
     2  H   -0.000456   0.003003   0.003387   0.001848
     3  O   -0.000126  -0.000599   0.000743   0.000674
     4  C   -0.014101   0.026896  -0.074151  -0.057436
     5  H    0.000433   0.004180  -0.005264   0.010071
     6  H    0.000498   0.000520  -0.004153   0.002239
     7  C   -0.068594  -0.092839   0.356199   0.324345
     8  H    0.000372  -0.000353  -0.000661  -0.000856
     9  H   -0.000201  -0.000054   0.000396  -0.000319
    10  C    0.406994   0.339637  -0.057635  -0.065794
    11  O   -0.070633  -0.066141   0.005383  -0.005831
    12  H    0.028783  -0.012736  -0.006564  -0.016853
    13  H    0.453710  -0.024170  -0.010700  -0.005819
    14  H   -0.024170   0.509270   0.008725   0.013883
    15  H   -0.010700   0.008725   0.471783  -0.019913
    16  H   -0.005819   0.013883  -0.019913   0.510031
 Mulliken charges:
               1
     1  C   -0.385026
     2  H    0.307023
     3  O   -0.660490
     4  C   -0.648749
     5  H    0.305538
     6  H    0.325379
     7  C   -0.645730
     8  H    0.439225
     9  H    0.310254
    10  C   -0.445382
    11  O   -0.559782
    12  H    0.413965
    13  H    0.298933
    14  H    0.300830
    15  H    0.333769
    16  H    0.310243
 Sum of Mulliken charges =  -0.00000
 Mulliken charges with hydrogens summed into heavy atoms:
               1
     1  C    0.232250
     3  O   -0.221265
     4  C   -0.017832
     7  C   -0.001718
    10  C    0.154381
    11  O   -0.145817
 Electronic spatial extent (au):  <R**2>=            639.9884
 Charge=             -0.0000 electrons
 Dipole moment (field-independent basis, Debye):
    X=              1.9739    Y=              1.2738    Z=              0.5249  Tot=              2.4071
 Quadrupole moment (field-independent basis, Debye-Ang):
   XX=            -36.7363   YY=            -38.3656   ZZ=            -39.2995
   XY=             -6.0587   XZ=              2.3671   YZ=              0.8461
 Traceless Quadrupole moment (field-independent basis, Debye-Ang):
   XX=              1.3975   YY=             -0.2318   ZZ=             -1.1657
   XY=             -6.0587   XZ=              2.3671   YZ=              0.8461
 Octapole moment (field-independent basis, Debye-Ang**2):
  XXX=             11.7728  YYY=             -9.4689  ZZZ=             -0.2009  XYY=             13.4310
  XXY=             -3.8687  XXZ=              1.4958  XZZ=             -0.8320  YZZ=             -1.6103
  YYZ=             -3.2562  XYZ=             -1.2917
 Hexadecapole moment (field-independent basis, Debye-Ang**3):
 XXXX=           -418.5857 YYYY=           -260.2148 ZZZZ=           -113.6178 XXXY=            -25.5391
 XXXZ=              1.9925 YYYX=            -27.1510 YYYZ=              6.0207 ZZZX=             -3.1124
 ZZZY=              2.5490 XXYY=           -111.6945 XXZZ=            -96.2476 YYZZ=            -63.6987
 XXYZ=              1.6939 YYXZ=             -1.8180 ZZXY=             -0.0132
 N-N= 2.654534019153D+02 E-N=-1.253576495742D+03  KE= 3.076272127701D+02
 PrsmSu:  requested number of processors reduced to:  20 ShMem   1 Linda.
 No NMR shielding tensors so no spin-rotation constants.
 Leave Link  601 at Sat Apr 17 13:01:03 2021, MaxMem=   104857600 cpu:             387.4 elap:               8.5
 (Enter /s/ls4/users/knvvv/bin/g16sse/l9999.exe)

 Test job not archived.
 1\1\GINC-N156\Stability\RM062X\Gen\C4H10O2\KNVVV\17-Apr-2021\0\\#P M06
 2X/GEN Integral=UltraFineGrid SCF=NoSymm Stable=(RExt, Opt) IOp(1/33=1
 )\\Database calculations.\\0,1\C,0,1.392021,-0.005714,0.572548\H,0,0.8
 71641,-0.532025,1.374976\O,0,1.488209,-0.851062,-0.584548\C,0,0.625963
 ,1.246932,0.175258\H,0,0.439793,1.823253,1.085205\H,0,1.261437,1.85865
 6,-0.467823\C,0,-0.700902,0.98543,-0.548887\H,0,2.05069,-1.596932,-0.3
 5759\H,0,2.389444,0.268884,0.923502\C,0,-1.672301,0.064726,0.181897\O,
 0,-1.272107,-1.304104,0.186824\H,0,-0.469827,-1.371151,-0.343681\H,0,-
 2.654916,0.136101,-0.290904\H,0,-1.784973,0.391577,1.220694\H,0,-1.196
 857,1.945578,-0.70842\H,0,-0.503934,0.56914,-1.539066\\Version=ES64L-G
 16RevA.03\State=1-A\HF=-308.8981701\RMSD=1.793e-09\Dipole=0.7765932,0.
 5011462,0.2065047\Quadrupole=1.0389969,-0.1723296,-0.8666672,-4.504500
 1,1.7598495,0.6290423\PG=C01 [X(C4H10O2)]\\@


 MEMORIES ARE LIKE AN ENGLISH GRAMMER LESSON -
 PRESENT TENSE, AND PAST PERFECT.
 Job cpu time:       2 days 15 hours 40 minutes 26.0 seconds.
 Elapsed time:       0 days  2 hours 15 minutes 32.4 seconds.
 File lengths (MBytes):  RWF=    853 Int=      0 D2E=      0 Chk=     56 Scr=      1
 Normal termination of Gaussian 16 at Sat Apr 17 13:01:03 2021.
