 Entering Gaussian System, Link 0=/s/ls4/users/knvvv/bin/g16sse/g16
 Input=data/database/M062X--BE4--06_LiO-_MR-MGM-BE4.gjf
 Output=data/database/M062X--BE4--06_LiO-_MR-MGM-BE4.log
 Initial command:
 /s/ls4/users/knvvv/bin/g16sse/l1.exe "/s/ls4/users/knvvv/bin/scratch/Gau-44407.inp" -scrdir="/s/ls4/users/knvvv/bin/scratch/"
 Entering Link 1 = /s/ls4/users/knvvv/bin/g16sse/l1.exe PID=     44408.
  
 Copyright (c) 1988,1990,1992,1993,1995,1998,2003,2009,2016,
            Gaussian, Inc.  All Rights Reserved.
  
 This is part of the Gaussian(R) 16 program.  It is based on
 the Gaussian(R) 09 system (copyright 2009, Gaussian, Inc.),
 the Gaussian(R) 03 system (copyright 2003, Gaussian, Inc.),
 the Gaussian(R) 98 system (copyright 1998, Gaussian, Inc.),
 the Gaussian(R) 94 system (copyright 1995, Gaussian, Inc.),
 the Gaussian 92(TM) system (copyright 1992, Gaussian, Inc.),
 the Gaussian 90(TM) system (copyright 1990, Gaussian, Inc.),
 the Gaussian 88(TM) system (copyright 1988, Gaussian, Inc.),
 the Gaussian 86(TM) system (copyright 1986, Carnegie Mellon
 University), and the Gaussian 82(TM) system (copyright 1983,
 Carnegie Mellon University). Gaussian is a federally registered
 trademark of Gaussian, Inc.
  
 This software contains proprietary and confidential information,
 including trade secrets, belonging to Gaussian, Inc.
  
 This software is provided under written license and may be
 used, copied, transmitted, or stored only in accord with that
 written license.
  
 The following legend is applicable only to US Government
 contracts under FAR:
  
                    RESTRICTED RIGHTS LEGEND
  
 Use, reproduction and disclosure by the US Government is
 subject to restrictions as set forth in subparagraphs (a)
 and (c) of the Commercial Computer Software - Restricted
 Rights clause in FAR 52.227-19.
  
 Gaussian, Inc.
 340 Quinnipiac St., Bldg. 40, Wallingford CT 06492
  
  
 ---------------------------------------------------------------
 Warning -- This program may not be used in any manner that
 competes with the business of Gaussian, Inc. or will provide
 assistance to any competitor of Gaussian, Inc.  The licensee
 of this program is prohibited from giving any competitor of
 Gaussian, Inc. access to this program.  By using this program,
 the user acknowledges that Gaussian, Inc. is engaged in the
 business of creating and licensing software in the field of
 computational chemistry and represents and warrants to the
 licensee that it is not a competitor of Gaussian, Inc. and that
 it will not use this program in any manner prohibited above.
 ---------------------------------------------------------------
  

 Cite this work as:
 Gaussian 16, Revision A.03,
 M. J. Frisch, G. W. Trucks, H. B. Schlegel, G. E. Scuseria, 
 M. A. Robb, J. R. Cheeseman, G. Scalmani, V. Barone, 
 G. A. Petersson, H. Nakatsuji, X. Li, M. Caricato, A. V. Marenich, 
 J. Bloino, B. G. Janesko, R. Gomperts, B. Mennucci, H. P. Hratchian, 
 J. V. Ortiz, A. F. Izmaylov, J. L. Sonnenberg, D. Williams-Young, 
 F. Ding, F. Lipparini, F. Egidi, J. Goings, B. Peng, A. Petrone, 
 T. Henderson, D. Ranasinghe, V. G. Zakrzewski, J. Gao, N. Rega, 
 G. Zheng, W. Liang, M. Hada, M. Ehara, K. Toyota, R. Fukuda, 
 J. Hasegawa, M. Ishida, T. Nakajima, Y. Honda, O. Kitao, H. Nakai, 
 T. Vreven, K. Throssell, J. A. Montgomery, Jr., J. E. Peralta, 
 F. Ogliaro, M. J. Bearpark, J. J. Heyd, E. N. Brothers, K. N. Kudin, 
 V. N. Staroverov, T. A. Keith, R. Kobayashi, J. Normand, 
 K. Raghavachari, A. P. Rendell, J. C. Burant, S. S. Iyengar, 
 J. Tomasi, M. Cossi, J. M. Millam, M. Klene, C. Adamo, R. Cammi, 
 J. W. Ochterski, R. L. Martin, K. Morokuma, O. Farkas, 
 J. B. Foresman, and D. J. Fox, Gaussian, Inc., Wallingford CT, 2016.
 
 ******************************************
 Gaussian 16:  ES64L-G16RevA.03 25-Dec-2016
                16-Apr-2021 
 ******************************************
 %RWF=temp14_29476,70GB
 %nprocshared=48
 Will use up to   48 processors via shared memory.
 Default route: MaxDisk=80GB
 ----------------------------------------------------------------------
 #P M062X/GEN Integral=UltraFineGrid SCF=NoSymm Stable=(RExt, Opt) IOp(
 1/33=1)
 ----------------------------------------------------------------------
 1/33=1,38=1,172=1/1;
 2/12=2,17=6,18=5,40=1/2;
 3/5=7,11=2,25=1,30=1,74=-55,75=-5/1,2,3;
 4/9=2/1;
 5/5=2,38=5/2;
 6/7=2,8=2,9=2,10=2,28=1/1;
 8/6=1,10=90,11=11/1;
 9/8=-3,42=1,46=1/14;
 5/5=2,8=3,17=40,38=5/8(-2);
 6/7=2,8=2,9=2,10=2,28=1/1;
 99/5=1,9=1/99;
 Leave Link    1 at Fri Apr 16 22:49:57 2021, MaxMem=           0 cpu:              10.7 elap:               0.2
 (Enter /s/ls4/users/knvvv/bin/g16sse/l101.exe)
 ONIOM data not found on unit 2.
 ----------------------
 Database calculations.
 ----------------------
 TstMul:  ICh=    -1
 TstMul:  Mul=     1
 TstMul:  ICh=    -1
 TstMul:  Mul=     1
 Symbolic Z-matrix:
 Charge = -1 Multiplicity = 1
 Li                    0.        0.        1.63 
 O                     0.        0.        0. 
 
 RdStrC is calling ZToCFu for IStruc=1 NZ=     2.
 PrtBox:  NBox=     1 Levels=  1 BoxLen=    8.00 SMaxX=        3.08
          Shift=            0.000000            0.000000            0.000000
 Box      1 Number                   0 centers from      1 to      2:
 After GenITR:
 ITRead=  0  0
 MicOpt= -1 -1
 ITRead=  0  0
 MicOpt= -1 -1
 NAtoms=      2 NQM=        2 NQMF=       0 NMMI=      0 NMMIF=      0
                NMic=       0 NMicF=      0.
                    Isotopes and Nuclear Properties:
 (Nuclear quadrupole moments (NQMom) in fm**2, nuclear magnetic moments (NMagM)
  in nuclear magnetons)

  Atom         1           2
 IAtWgt=           7          16
 AtmWgt=   7.0160045  15.9949146
 NucSpn=           3           0
 AtZEff=  -0.0000000  -0.0000000
 NQMom=   -4.0100000   0.0000000
 NMagM=    3.2564240   0.0000000
 AtZNuc=   3.0000000   8.0000000
 No MM parameters found.
 Leave Link  101 at Fri Apr 16 22:49:57 2021, MaxMem=   104857600 cpu:               7.6 elap:               0.2
 (Enter /s/ls4/users/knvvv/bin/g16sse/l202.exe)
                          Input orientation:                          
 ---------------------------------------------------------------------
 Center     Atomic      Atomic             Coordinates (Angstroms)
 Number     Number       Type             X           Y           Z
 ---------------------------------------------------------------------
      1          3           0        0.000000    0.000000    1.630000
      2          8           0        0.000000    0.000000    0.000000
 ---------------------------------------------------------------------
 Stoichiometry    LiO(1-)
 Framework group  C*V[C*(LiO)]
 Deg. of freedom     1
 Full point group                 C*V     NOp   4
 Largest Abelian subgroup         C2V     NOp   4
 Largest concise Abelian subgroup C1      NOp   1
                         Standard orientation:                         
 ---------------------------------------------------------------------
 Center     Atomic      Atomic             Coordinates (Angstroms)
 Number     Number       Type             X           Y           Z
 ---------------------------------------------------------------------
      1          3           0        0.000000    0.000000   -1.185455
      2          8           0        0.000000    0.000000    0.444545
 ---------------------------------------------------------------------
 Rotational constants (GHZ):           0.0000000          39.0035531          39.0035531
 Leave Link  202 at Fri Apr 16 22:49:57 2021, MaxMem=   104857600 cpu:               6.0 elap:               0.1
 (Enter /s/ls4/users/knvvv/bin/g16sse/l301.exe)
 General basis read from cards:  (5D, 7F)
 Centers:       1
 S 12 1.00
     Exponent=  6.6010000000D+03 Coefficients=  1.1700000000D-04
     Exponent=  9.8970000000D+02 Coefficients=  9.1100000000D-04
     Exponent=  2.2570000000D+02 Coefficients=  4.7280000000D-03
     Exponent=  6.4290000000D+01 Coefficients=  1.9197000000D-02
     Exponent=  2.1180000000D+01 Coefficients=  6.3047000000D-02
     Exponent=  7.7240000000D+00 Coefficients=  1.6320800000D-01
     Exponent=  3.0030000000D+00 Coefficients=  3.1482700000D-01
     Exponent=  1.2120000000D+00 Coefficients=  3.9393600000D-01
     Exponent=  4.9300000000D-01 Coefficients=  1.9691800000D-01
     Exponent=  9.5150000000D-02 Coefficients=  9.9970000000D-03
     Exponent=  4.7910000000D-02 Coefficients= -5.4020000000D-03
     Exponent=  2.2200000000D-02 Coefficients=  1.7040000000D-03
 S 12 1.00
     Exponent=  6.6010000000D+03 Coefficients= -1.8000000000D-05
     Exponent=  9.8970000000D+02 Coefficients= -1.4200000000D-04
     Exponent=  2.2570000000D+02 Coefficients= -7.4100000000D-04
     Exponent=  6.4290000000D+01 Coefficients= -3.0200000000D-03
     Exponent=  2.1180000000D+01 Coefficients= -1.0123000000D-02
     Exponent=  7.7240000000D+00 Coefficients= -2.7094000000D-02
     Exponent=  3.0030000000D+00 Coefficients= -5.7359000000D-02
     Exponent=  1.2120000000D+00 Coefficients= -9.3895000000D-02
     Exponent=  4.9300000000D-01 Coefficients= -1.2109100000D-01
     Exponent=  9.5150000000D-02 Coefficients=  2.7660800000D-01
     Exponent=  4.7910000000D-02 Coefficients=  5.4954800000D-01
     Exponent=  2.2200000000D-02 Coefficients=  2.7738500000D-01
 S 1 1.00
     Exponent=  5.6140000000D+00 Coefficients=  1.0000000000D+00
 S 1 1.00
     Exponent=  1.8600000000D+00 Coefficients=  1.0000000000D+00
 S 1 1.00
     Exponent=  6.1600000000D-01 Coefficients=  1.0000000000D+00
 S 1 1.00
     Exponent=  9.5150000000D-02 Coefficients=  1.0000000000D+00
 S 1 1.00
     Exponent=  4.7910000000D-02 Coefficients=  1.0000000000D+00
 S 1 1.00
     Exponent=  2.2200000000D-02 Coefficients=  1.0000000000D+00
 P 6 1.00
     Exponent=  6.2500000000D+00 Coefficients=  3.3880000000D-03
     Exponent=  1.3700000000D+00 Coefficients=  1.9316000000D-02
     Exponent=  3.6720000000D-01 Coefficients=  7.9104000000D-02
     Exponent=  1.1920000000D-01 Coefficients=  2.7409500000D-01
     Exponent=  4.4740000000D-02 Coefficients=  5.1948800000D-01
     Exponent=  1.7950000000D-02 Coefficients=  2.8442300000D-01
 P 1 1.00
     Exponent=  9.7850000000D+00 Coefficients=  1.0000000000D+00
 P 1 1.00
     Exponent=  2.5930000000D+00 Coefficients=  1.0000000000D+00
 P 1 1.00
     Exponent=  6.8700000000D-01 Coefficients=  1.0000000000D+00
 P 1 1.00
     Exponent=  1.1920000000D-01 Coefficients=  1.0000000000D+00
 P 1 1.00
     Exponent=  4.4740000000D-02 Coefficients=  1.0000000000D+00
 P 1 1.00
     Exponent=  1.7950000000D-02 Coefficients=  1.0000000000D+00
 D 1 1.00
     Exponent=  1.0602000000D+01 Coefficients=  1.0000000000D+00
 D 1 1.00
     Exponent=  3.0660000000D+00 Coefficients=  1.0000000000D+00
 D 1 1.00
     Exponent=  3.4400000000D-01 Coefficients=  1.0000000000D+00
 D 1 1.00
     Exponent=  1.5300000000D-01 Coefficients=  1.0000000000D+00
 D 1 1.00
     Exponent=  6.8000000000D-02 Coefficients=  1.0000000000D+00
 F 1 1.00
     Exponent=  6.6830000000D+00 Coefficients=  1.0000000000D+00
 F 1 1.00
     Exponent=  2.4600000000D-01 Coefficients=  1.0000000000D+00
 F 1 1.00
     Exponent=  1.2920000000D-01 Coefficients=  1.0000000000D+00
 G 1 1.00
     Exponent=  2.3800000000D-01 Coefficients=  1.0000000000D+00
 ****
 Centers:       2
 S 12 1.00
     Exponent=  6.1420000000D+04 Coefficients=  9.0000000000D-05
     Exponent=  9.1990000000D+03 Coefficients=  6.9800000000D-04
     Exponent=  2.0910000000D+03 Coefficients=  3.6640000000D-03
     Exponent=  5.9090000000D+02 Coefficients=  1.5218000000D-02
     Exponent=  1.9230000000D+02 Coefficients=  5.2423000000D-02
     Exponent=  6.9320000000D+01 Coefficients=  1.4592100000D-01
     Exponent=  2.6970000000D+01 Coefficients=  3.0525800000D-01
     Exponent=  1.1100000000D+01 Coefficients=  3.9850800000D-01
     Exponent=  4.6820000000D+00 Coefficients=  2.1698000000D-01
     Exponent=  1.4280000000D+00 Coefficients=  1.7594000000D-02
     Exponent=  5.5470000000D-01 Coefficients= -2.5020000000D-03
     Exponent=  2.0670000000D-01 Coefficients=  9.5400000000D-04
 S 12 1.00
     Exponent=  6.1420000000D+04 Coefficients= -2.0000000000D-05
     Exponent=  9.1990000000D+03 Coefficients= -1.5900000000D-04
     Exponent=  2.0910000000D+03 Coefficients= -8.2900000000D-04
     Exponent=  5.9090000000D+02 Coefficients= -3.5080000000D-03
     Exponent=  1.9230000000D+02 Coefficients= -1.2156000000D-02
     Exponent=  6.9320000000D+01 Coefficients= -3.6261000000D-02
     Exponent=  2.6970000000D+01 Coefficients= -8.2992000000D-02
     Exponent=  1.1100000000D+01 Coefficients= -1.5209000000D-01
     Exponent=  4.6820000000D+00 Coefficients= -1.1533100000D-01
     Exponent=  1.4280000000D+00 Coefficients=  2.8897900000D-01
     Exponent=  5.5470000000D-01 Coefficients=  5.8612800000D-01
     Exponent=  2.0670000000D-01 Coefficients=  2.7762400000D-01
 S 1 1.00
     Exponent=  9.3881000000D+01 Coefficients=  1.0000000000D+00
 S 1 1.00
     Exponent=  3.4900000000D+01 Coefficients=  1.0000000000D+00
 S 1 1.00
     Exponent=  1.2974000000D+01 Coefficients=  1.0000000000D+00
 S 1 1.00
     Exponent=  1.4280000000D+00 Coefficients=  1.0000000000D+00
 S 1 1.00
     Exponent=  5.5470000000D-01 Coefficients=  1.0000000000D+00
 S 1 1.00
     Exponent=  2.0670000000D-01 Coefficients=  1.0000000000D+00
 S 1 1.00
     Exponent=  6.9590000000D-02 Coefficients=  1.0000000000D+00
 P 6 1.00
     Exponent=  6.3420000000D+01 Coefficients=  6.0440000000D-03
     Exponent=  1.4660000000D+01 Coefficients=  4.1799000000D-02
     Exponent=  4.4590000000D+00 Coefficients=  1.6114300000D-01
     Exponent=  1.5310000000D+00 Coefficients=  3.5673100000D-01
     Exponent=  5.3020000000D-01 Coefficients=  4.4830900000D-01
     Exponent=  1.7500000000D-01 Coefficients=  2.4494000000D-01
 P 1 1.00
     Exponent=  1.2614000000D+02 Coefficients=  1.0000000000D+00
 P 1 1.00
     Exponent=  4.2730000000D+01 Coefficients=  1.0000000000D+00
 P 1 1.00
     Exponent=  1.4475000000D+01 Coefficients=  1.0000000000D+00
 P 1 1.00
     Exponent=  1.5310000000D+00 Coefficients=  1.0000000000D+00
 P 1 1.00
     Exponent=  5.3020000000D-01 Coefficients=  1.0000000000D+00
 P 1 1.00
     Exponent=  1.7500000000D-01 Coefficients=  1.0000000000D+00
 P 1 1.00
     Exponent=  5.3480000000D-02 Coefficients=  1.0000000000D+00
 D 1 1.00
     Exponent=  5.7544000000D+01 Coefficients=  1.0000000000D+00
 D 1 1.00
     Exponent=  1.4927000000D+01 Coefficients=  1.0000000000D+00
 D 1 1.00
     Exponent=  3.7750000000D+00 Coefficients=  1.0000000000D+00
 D 1 1.00
     Exponent=  1.3000000000D+00 Coefficients=  1.0000000000D+00
 D 1 1.00
     Exponent=  4.4400000000D-01 Coefficients=  1.0000000000D+00
 D 1 1.00
     Exponent=  1.5400000000D-01 Coefficients=  1.0000000000D+00
 F 1 1.00
     Exponent=  2.6483000000D+01 Coefficients=  1.0000000000D+00
 F 1 1.00
     Exponent=  2.6660000000D+00 Coefficients=  1.0000000000D+00
 F 1 1.00
     Exponent=  8.5900000000D-01 Coefficients=  1.0000000000D+00
 F 1 1.00
     Exponent=  3.2400000000D-01 Coefficients=  1.0000000000D+00
 G 1 1.00
     Exponent=  1.8460000000D+00 Coefficients=  1.0000000000D+00
 G 1 1.00
     Exponent=  7.1400000000D-01 Coefficients=  1.0000000000D+00
 ****
 Ernie: Thresh=  0.10000D-02 Tol=  0.10000D-05 Strict=F.
 Ernie:  17 primitive shells out of 107 were deleted.
 There are   104 symmetry adapted cartesian basis functions of A1  symmetry.
 There are    27 symmetry adapted cartesian basis functions of A2  symmetry.
 There are    56 symmetry adapted cartesian basis functions of B1  symmetry.
 There are    56 symmetry adapted cartesian basis functions of B2  symmetry.
 There are    77 symmetry adapted basis functions of A1  symmetry.
 There are    24 symmetry adapted basis functions of A2  symmetry.
 There are    46 symmetry adapted basis functions of B1  symmetry.
 There are    46 symmetry adapted basis functions of B2  symmetry.
   193 basis functions,   300 primitive gaussians,   243 cartesian basis functions
     6 alpha electrons        6 beta electrons
       nuclear repulsion energy         7.7915662958 Hartrees.
 IExCor= 4336 DFT=T Ex+Corr=M062X ExCW=0 ScaHFX=  0.540000
 ScaDFX=  1.000000  1.000000  1.000000  1.000000 ScalE2=  1.000000  1.000000
 IRadAn=      5 IRanWt=     -1 IRanGd=            0 ICorTp=0 IEmpDi=  4
 NAtoms=    2 NActive=    2 NUniq=    2 SFac= 1.00D+00 NAtFMM=   60 NAOKFM=F Big=F
 Integral buffers will be    131072 words long.
 Raffenetti 2 integral format.
 Two-electron integral symmetry is turned on.
 Leave Link  301 at Fri Apr 16 22:49:57 2021, MaxMem=   104857600 cpu:              11.9 elap:               0.3
 (Enter /s/ls4/users/knvvv/bin/g16sse/l302.exe)
 NPDir=0 NMtPBC=     1 NCelOv=     1 NCel=       1 NClECP=     1 NCelD=      1
         NCelK=      1 NCelE2=     1 NClLst=     1 CellRange=     0.0.
 One-electron integrals computed using PRISM.
 One-electron integral symmetry used in STVInt
 PrsmSu:  requested number of processors reduced to:   4 ShMem   1 Linda.
 PrsmSu:  requested number of processors reduced to:  21 ShMem   1 Linda.
 NBasis=   193 RedAO= T EigKep=  1.75D-05  NBF=    77    24    46    46
 NBsUse=   193 1.00D-06 EigRej= -1.00D+00 NBFU=    77    24    46    46
 Precomputing XC quadrature grid using
 IXCGrd= 4 IRadAn=           5 IRanWt=          -1 IRanGd=           0 AccXCQ= 0.00D+00.
 Generated NRdTot=       0 NPtTot=           0 NUsed=           0 NTot=          32
 NSgBfM=   239   239   239   239   239 MxSgAt=     2 MxSgA2=     2.
 Leave Link  302 at Fri Apr 16 22:50:06 2021, MaxMem=   104857600 cpu:             410.3 elap:               8.8
 (Enter /s/ls4/users/knvvv/bin/g16sse/l303.exe)
 DipDrv:  MaxL=1.
 Leave Link  303 at Fri Apr 16 22:50:07 2021, MaxMem=   104857600 cpu:              60.2 elap:               1.3
 (Enter /s/ls4/users/knvvv/bin/g16sse/l401.exe)
 SCF N**3 symmetry information disabled.
 ExpMin= 1.80D-02 ExpMax= 6.14D+04 ExpMxC= 5.91D+02 IAcc=3 IRadAn=         5 AccDes= 0.00D+00
 Harris functional with IExCor= 1009 and IRadAn=       5 diagonalized for initial guess.
 HarFok:  IExCor= 1009 AccDes= 0.00D+00 IRadAn=         5 IDoV= 1 UseB2=F ITyADJ=14
 ICtDFT=  3500011 ScaDFX=  1.000000  1.000000  1.000000  1.000000
 FoFCou: FMM=F IPFlag=           0 FMFlag=      100000 FMFlg1=           0
         NFxFlg=           0 DoJE=T BraDBF=F KetDBF=T FulRan=T
         wScrn=  0.000000 ICntrl=       500 IOpCl=  0 I1Cent=   200000004 NGrid=           0
         NMat0=    1 NMatS0=      1 NMatT0=    0 NMatD0=    1 NMtDS0=    0 NMtDT0=    0
 Petite list used in FoFCou.
 CoulSu:  requested number of processors reduced to:  21 ShMem   1 Linda.
 CoulSu:  requested number of processors reduced to:  21 ShMem   1 Linda.
 CoulSu:  requested number of processors reduced to:  21 ShMem   1 Linda.
 CoulSu:  requested number of processors reduced to:  21 ShMem   1 Linda.
 Harris En= -83.0318173227557    
 JPrj=0 DoOrth=F DoCkMO=F.
 Initial guess orbital symmetries:
       Occupied  (SG) (SG) (SG) (SG) (PI) (PI)
       Virtual   (SG) (PI) (PI) (SG) (SG) (PI) (PI) (SG) (SG) (PI)
                 (PI) (DLTA) (DLTA) (SG) (PI) (PI) (PI) (PI) (SG)
                 (SG) (SG) (DLTA) (DLTA) (PHI) (PHI) (PI) (PI)
                 (DLTA) (DLTA) (SG) (PI) (PI) (SG) (PI) (PI) (DLTA)
                 (DLTA) (SG) (PI) (PI) (SG) (SG) (PI) (PI) (PHI)
                 (PHI) (DLTA) (DLTA) (SG) (?A) (?A) (PI) (PI) (PHI)
                 (PHI) (SG) (DLTA) (DLTA) (SG) (PI) (PI) (DLTA)
                 (DLTA) (PI) (PI) (PHI) (PHI) (DLTA) (DLTA) (SG)
                 (SG) (SG) (PI) (PI) (DLTA) (DLTA) (PI) (PI) (SG)
                 (PI) (PI) (SG) (PI) (PI) (SG) (?A) (?A) (SG) (PHI)
                 (PHI) (DLTA) (DLTA) (PI) (PI) (PHI) (PHI) (DLTA)
                 (DLTA) (SG) (PI) (PI) (SG) (SG) (DLTA) (DLTA)
                 (PI) (PI) (SG) (PI) (PI) (SG) (PI) (PI) (DLTA)
                 (DLTA) (PI) (PI) (SG) (SG) (?A) (?A) (PHI) (PHI)
                 (DLTA) (DLTA) (PI) (PI) (SG) (SG) (PHI) (PHI)
                 (DLTA) (DLTA) (PI) (PI) (SG) (DLTA) (DLTA) (PI)
                 (PI) (SG) (SG) (PI) (PI) (SG) (PHI) (PHI) (DLTA)
                 (DLTA) (PI) (PI) (SG) (PI) (PI) (SG) (DLTA) (DLTA)
                 (PI) (PI) (SG) (DLTA) (DLTA) (PI) (PI) (SG) (SG)
                 (SG) (PHI) (PHI) (DLTA) (DLTA) (PI) (PI) (SG)
                 (PI) (PI) (SG) (DLTA) (DLTA) (PI) (PI) (SG) (SG)
                 (PI) (PI) (SG) (SG)
 The electronic state of the initial guess is 1-SG.
 Leave Link  401 at Fri Apr 16 22:50:08 2021, MaxMem=   104857600 cpu:              21.1 elap:               0.6
 (Enter /s/ls4/users/knvvv/bin/g16sse/l502.exe)
 Integral symmetry usage will be decided dynamically.
 Closed shell SCF:
 Using DIIS extrapolation, IDIIS=  1040.
 NGot=   104857600 LenX=   104724445 LenY=   104664955
 Requested convergence on RMS density matrix=1.00D-08 within 128 cycles.
 Requested convergence on MAX density matrix=1.00D-06.
 Requested convergence on             energy=1.00D-06.
 No special actions if energy rises.
 Fock matrices will be formed incrementally for  20 cycles.

 Cycle   1  Pass 1  IDiag  1:
 FoFJK:  IHMeth= 1 ICntrl=       0 DoSepK=F KAlg= 0 I1Cent=           0 FoldK=F
 IRaf= 990000000 NMat=       1 IRICut=       1 DoRegI=T DoRafI=F ISym2E= 1 IDoP0=0 IntGTp=1.
 FoFCou: FMM=F IPFlag=           0 FMFlag=      100000 FMFlg1=           0
         NFxFlg=           0 DoJE=F BraDBF=F KetDBF=F FulRan=T
         wScrn=  0.000000 ICntrl=         0 IOpCl=  0 I1Cent=           0 NGrid=           0
         NMat0=    1 NMatS0=      1 NMatT0=    0 NMatD0=    1 NMtDS0=    0 NMtDT0=    0
 Petite list used in FoFCou.
 CoulSu:  requested number of processors reduced to:  21 ShMem   1 Linda.
 E= -82.2321309791161    
 DIIS: error= 9.38D-02 at cycle   1 NSaved=   1.
 NSaved= 1 IEnMin= 1 EnMin= -82.2321309791161     IErMin= 1 ErrMin= 9.38D-02
 ErrMax= 9.38D-02  0.00D+00 EMaxC= 1.00D-01 BMatC= 5.94D-01 BMatP= 5.94D-01
 IDIUse=3 WtCom= 6.25D-02 WtEn= 9.38D-01
 Coeff-Com:  0.100D+01
 Coeff-En:   0.100D+01
 Coeff:      0.100D+01
 Gap=    -0.406 Goal=   None    Shift=    0.000
 GapD=   -0.406 DampG=0.250 DampE=0.500 DampFc=0.2500 IDamp=-1.
 Damping current iteration by 2.50D-01
 RMSDP=7.88D-02 MaxDP=4.80D+00              OVMax= 9.99D-01

 Cycle   2  Pass 1  IDiag  1:
 RMSU=  1.96D-02    CP:  8.65D-01
 CoulSu:  requested number of processors reduced to:  21 ShMem   1 Linda.
 E= -82.3244755216101     Delta-E=       -0.092344542494 Rises=F Damp=T
 DIIS: error= 6.80D-02 at cycle   2 NSaved=   2.
 NSaved= 2 IEnMin= 2 EnMin= -82.3244755216101     IErMin= 2 ErrMin= 6.80D-02
 ErrMax= 6.80D-02  0.00D+00 EMaxC= 1.00D-01 BMatC= 7.91D-02 BMatP= 5.94D-01
 IDIUse=3 WtCom= 3.20D-01 WtEn= 6.80D-01
 Coeff-Com: -0.118D+00 0.112D+01
 Coeff-En:   0.425D+00 0.575D+00
 Coeff:      0.251D+00 0.749D+00
 Gap=     0.011 Goal=   None    Shift=    0.000
 RMSDP=1.99D-02 MaxDP=1.20D+00 DE=-9.23D-02 OVMax= 9.99D-01

 Cycle   3  Pass 1  IDiag  1:
 RMSU=  7.52D-03    CP:  9.87D-01  6.61D-02
 CoulSu:  requested number of processors reduced to:  21 ShMem   1 Linda.
 E= -82.6545695667034     Delta-E=       -0.330094045093 Rises=F Damp=F
 DIIS: error= 1.98D-02 at cycle   3 NSaved=   3.
 NSaved= 3 IEnMin= 3 EnMin= -82.6545695667034     IErMin= 3 ErrMin= 1.98D-02
 ErrMax= 1.98D-02  0.00D+00 EMaxC= 1.00D-01 BMatC= 1.36D-02 BMatP= 7.91D-02
 IDIUse=3 WtCom= 8.02D-01 WtEn= 1.98D-01
 Coeff-Com: -0.420D-01 0.215D+00 0.827D+00
 Coeff-En:   0.000D+00 0.000D+00 0.100D+01
 Coeff:     -0.337D-01 0.172D+00 0.861D+00
 Gap=     0.057 Goal=   None    Shift=    0.000
 RMSDP=2.30D-03 MaxDP=1.42D-01 DE=-3.30D-01 OVMax= 1.40D-01

 Cycle   4  Pass 1  IDiag  1:
 RMSU=  2.13D-03    CP:  9.79D-01  8.32D-02  1.11D+00
 CoulSu:  requested number of processors reduced to:  21 ShMem   1 Linda.
 E= -82.6799433679518     Delta-E=       -0.025373801248 Rises=F Damp=F
 DIIS: error= 8.41D-03 at cycle   4 NSaved=   4.
 NSaved= 4 IEnMin= 4 EnMin= -82.6799433679518     IErMin= 4 ErrMin= 8.41D-03
 ErrMax= 8.41D-03  0.00D+00 EMaxC= 1.00D-01 BMatC= 6.40D-03 BMatP= 1.36D-02
 IDIUse=3 WtCom= 9.16D-01 WtEn= 8.41D-02
 Coeff-Com:  0.108D+00-0.116D+00 0.729D-01 0.935D+00
 Coeff-En:   0.000D+00 0.000D+00 0.000D+00 0.100D+01
 Coeff:      0.989D-01-0.106D+00 0.668D-01 0.940D+00
 Gap=     0.047 Goal=   None    Shift=    0.000
 RMSDP=3.65D-03 MaxDP=1.80D-01 DE=-2.54D-02 OVMax= 8.33D-02

 Cycle   5  Pass 1  IDiag  1:
 RMSU=  3.05D-03    CP:  9.65D-01  1.70D-01  1.13D+00  1.50D+00
 CoulSu:  requested number of processors reduced to:  21 ShMem   1 Linda.
 E= -82.6603168661626     Delta-E=        0.019626501789 Rises=F Damp=F
 DIIS: error= 2.79D-02 at cycle   5 NSaved=   5.
 NSaved= 5 IEnMin= 4 EnMin= -82.6799433679518     IErMin= 4 ErrMin= 8.41D-03
 ErrMax= 2.79D-02  0.00D+00 EMaxC= 1.00D-01 BMatC= 2.35D-02 BMatP= 6.40D-03
 IDIUse=2 WtCom= 0.00D+00 WtEn= 1.00D+00
 Rare condition: small coef for last iteration:  0.000D+00
 Coeff-En:   0.000D+00 0.000D+00 0.444D+00 0.000D+00 0.556D+00
 Coeff:      0.000D+00 0.000D+00 0.444D+00 0.000D+00 0.556D+00
 Gap=     0.101 Goal=   None    Shift=    0.000
 RMSDP=2.86D-03 MaxDP=1.73D-01 DE= 1.96D-02 OVMax= 1.31D-01

 Cycle   6  Pass 1  IDiag  1:
 RMSU=  1.27D-03    CP:  1.02D+00  1.06D-01  1.00D+00  7.51D-01  6.50D-01
 CoulSu:  requested number of processors reduced to:  21 ShMem   1 Linda.
 E= -82.6712674781214     Delta-E=       -0.010950611959 Rises=F Damp=F
 DIIS: error= 1.80D-02 at cycle   6 NSaved=   6.
 NSaved= 6 IEnMin= 4 EnMin= -82.6799433679518     IErMin= 4 ErrMin= 8.41D-03
 ErrMax= 1.80D-02  0.00D+00 EMaxC= 1.00D-01 BMatC= 1.66D-02 BMatP= 6.40D-03
 IDIUse=2 WtCom= 0.00D+00 WtEn= 1.00D+00
 EnCoef did   100 forward-backward iterations
 Coeff-En:   0.000D+00 0.000D+00 0.000D+00 0.690D+00 0.391D-02 0.306D+00
 Coeff:      0.000D+00 0.000D+00 0.000D+00 0.690D+00 0.391D-02 0.306D+00
 Gap=     0.085 Goal=   None    Shift=    0.000
 RMSDP=1.72D-03 MaxDP=1.74D-01 DE=-1.10D-02 OVMax= 4.13D-02

 Cycle   7  Pass 1  IDiag  1:
 RMSU=  8.62D-04    CP:  1.01D+00  1.23D-01  1.15D+00  1.10D+00  6.01D-01
                    CP:  5.87D-01
 CoulSu:  requested number of processors reduced to:  21 ShMem   1 Linda.
 E= -82.6842793013885     Delta-E=       -0.013011823267 Rises=F Damp=F
 DIIS: error= 3.20D-03 at cycle   7 NSaved=   7.
 NSaved= 7 IEnMin= 7 EnMin= -82.6842793013885     IErMin= 7 ErrMin= 3.20D-03
 ErrMax= 3.20D-03  0.00D+00 EMaxC= 1.00D-01 BMatC= 4.98D-04 BMatP= 6.40D-03
 IDIUse=3 WtCom= 9.68D-01 WtEn= 3.20D-02
 Coeff-Com:  0.599D-02-0.860D-02 0.367D-01-0.431D-01 0.423D-01-0.210D+00
 Coeff-Com:  0.118D+01
 Coeff-En:   0.000D+00 0.000D+00 0.000D+00 0.550D-02 0.000D+00 0.000D+00
 Coeff-En:   0.995D+00
 Coeff:      0.580D-02-0.832D-02 0.355D-01-0.415D-01 0.409D-01-0.204D+00
 Coeff:      0.117D+01
 Gap=     0.080 Goal=   None    Shift=    0.000
 RMSDP=6.93D-04 MaxDP=5.23D-02 DE=-1.30D-02 OVMax= 1.93D-02

 Cycle   8  Pass 1  IDiag  1:
 RMSU=  5.38D-04    CP:  1.00D+00  1.22D-01  1.14D+00  1.06D+00  6.95D-01
                    CP:  7.75D-01  9.17D-01
 CoulSu:  requested number of processors reduced to:  21 ShMem   1 Linda.
 E= -82.6844884469556     Delta-E=       -0.000209145567 Rises=F Damp=F
 DIIS: error= 2.55D-03 at cycle   8 NSaved=   8.
 NSaved= 8 IEnMin= 8 EnMin= -82.6844884469556     IErMin= 8 ErrMin= 2.55D-03
 ErrMax= 2.55D-03  0.00D+00 EMaxC= 1.00D-01 BMatC= 2.57D-04 BMatP= 4.98D-04
 IDIUse=3 WtCom= 9.75D-01 WtEn= 2.55D-02
 Coeff-Com: -0.777D-03 0.123D-02 0.108D-01-0.316D-01-0.523D-01 0.115D+00
 Coeff-Com: -0.256D+00 0.121D+01
 Coeff-En:   0.000D+00 0.000D+00 0.000D+00 0.000D+00 0.000D+00 0.000D+00
 Coeff-En:   0.380D+00 0.620D+00
 Coeff:     -0.757D-03 0.120D-02 0.105D-01-0.308D-01-0.510D-01 0.112D+00
 Coeff:     -0.240D+00 0.120D+01
 Gap=     0.085 Goal=   None    Shift=    0.000
 RMSDP=3.73D-04 MaxDP=3.70D-02 DE=-2.09D-04 OVMax= 6.69D-03

 Cycle   9  Pass 1  IDiag  1:
 RMSU=  5.19D-05    CP:  1.00D+00  1.18D-01  1.11D+00  9.68D-01  7.04D-01
                    CP:  9.36D-01  8.31D-01  1.24D+00
 CoulSu:  requested number of processors reduced to:  21 ShMem   1 Linda.
 E= -82.6847288154140     Delta-E=       -0.000240368458 Rises=F Damp=F
 DIIS: error= 1.75D-04 at cycle   9 NSaved=   9.
 NSaved= 9 IEnMin= 9 EnMin= -82.6847288154140     IErMin= 9 ErrMin= 1.75D-04
 ErrMax= 1.75D-04  0.00D+00 EMaxC= 1.00D-01 BMatC= 6.57D-07 BMatP= 2.57D-04
 IDIUse=3 WtCom= 9.98D-01 WtEn= 1.75D-03
 Coeff-Com:  0.398D-03-0.421D-03 0.388D-03-0.125D-01-0.440D-02 0.434D-02
 Coeff-Com: -0.326D-01 0.143D+00 0.901D+00
 Coeff-En:   0.000D+00 0.000D+00 0.000D+00 0.000D+00 0.000D+00 0.000D+00
 Coeff-En:   0.000D+00 0.000D+00 0.100D+01
 Coeff:      0.397D-03-0.420D-03 0.387D-03-0.125D-01-0.440D-02 0.433D-02
 Coeff:     -0.326D-01 0.143D+00 0.902D+00
 Gap=     0.084 Goal=   None    Shift=    0.000
 RMSDP=1.27D-04 MaxDP=1.13D-02 DE=-2.40D-04 OVMax= 1.43D-03

 Cycle  10  Pass 1  IDiag  1:
 RMSU=  4.21D-05    CP:  1.00D+00  1.17D-01  1.12D+00  9.90D-01  6.80D-01
                    CP:  9.01D-01  8.74D-01  1.18D+00  9.04D-01
 CoulSu:  requested number of processors reduced to:  21 ShMem   1 Linda.
 E= -82.6847301653412     Delta-E=       -0.000001349927 Rises=F Damp=F
 DIIS: error= 1.15D-04 at cycle  10 NSaved=  10.
 NSaved=10 IEnMin=10 EnMin= -82.6847301653412     IErMin=10 ErrMin= 1.15D-04
 ErrMax= 1.15D-04  0.00D+00 EMaxC= 1.00D-01 BMatC= 5.59D-07 BMatP= 6.57D-07
 IDIUse=3 WtCom= 9.99D-01 WtEn= 1.15D-03
 Coeff-Com: -0.839D-04 0.969D-04-0.626D-03 0.497D-02 0.246D-02-0.462D-02
 Coeff-Com:  0.981D-02-0.138D+00-0.129D+00 0.126D+01
 Coeff-En:   0.000D+00 0.000D+00 0.000D+00 0.000D+00 0.000D+00 0.000D+00
 Coeff-En:   0.000D+00 0.000D+00 0.604D-01 0.940D+00
 Coeff:     -0.838D-04 0.967D-04-0.625D-03 0.497D-02 0.246D-02-0.461D-02
 Coeff:      0.980D-02-0.138D+00-0.129D+00 0.125D+01
 Gap=     0.085 Goal=   None    Shift=    0.000
 RMSDP=5.18D-05 MaxDP=2.67D-03 DE=-1.35D-06 OVMax= 8.65D-04

 Cycle  11  Pass 1  IDiag  1:
 RMSU=  8.29D-06    CP:  1.00D+00  1.16D-01  1.12D+00  9.85D-01  6.68D-01
                    CP:  9.04D-01  8.67D-01  1.19D+00  8.97D-01  1.37D+00
 CoulSu:  requested number of processors reduced to:  21 ShMem   1 Linda.
 E= -82.6847308462626     Delta-E=       -0.000000680921 Rises=F Damp=F
 DIIS: error= 3.72D-05 at cycle  11 NSaved=  11.
 NSaved=11 IEnMin=11 EnMin= -82.6847308462626     IErMin=11 ErrMin= 3.72D-05
 ErrMax= 3.72D-05  0.00D+00 EMaxC= 1.00D-01 BMatC= 4.62D-08 BMatP= 5.59D-07
 IDIUse=1 WtCom= 1.00D+00 WtEn= 0.00D+00
 Coeff-Com: -0.466D-04 0.747D-04-0.321D-03-0.252D-03 0.575D-03-0.786D-03
 Coeff-Com: -0.962D-03 0.240D-01 0.374D-01-0.414D+00 0.135D+01
 Coeff:     -0.466D-04 0.747D-04-0.321D-03-0.252D-03 0.575D-03-0.786D-03
 Coeff:     -0.962D-03 0.240D-01 0.374D-01-0.414D+00 0.135D+01
 Gap=     0.085 Goal=   None    Shift=    0.000
 DSYEVD-2 returned Info=         290 IAlg= 4 N=   193 NDim=   193 NE2=      542304 trying  DSYEV.
 RMSDP=8.56D-06 MaxDP=4.17D-04 DE=-6.81D-07 OVMax= 2.98D-04

 Cycle  12  Pass 1  IDiag  1:
 RMSU=  1.78D-06    CP:  1.00D+00  1.16D-01  1.12D+00  9.84D-01  6.66D-01
                    CP:  9.04D-01  8.64D-01  1.19D+00  8.96D-01  1.40D+00
                    CP:  1.40D+00
 CoulSu:  requested number of processors reduced to:  21 ShMem   1 Linda.
 E= -82.6847309130918     Delta-E=       -0.000000066829 Rises=F Damp=F
 DIIS: error= 1.87D-05 at cycle  12 NSaved=  12.
 NSaved=12 IEnMin=12 EnMin= -82.6847309130918     IErMin=12 ErrMin= 1.87D-05
 ErrMax= 1.87D-05  0.00D+00 EMaxC= 1.00D-01 BMatC= 1.05D-08 BMatP= 4.62D-08
 IDIUse=1 WtCom= 1.00D+00 WtEn= 0.00D+00
 Coeff-Com:  0.101D-04-0.135D-04-0.116D-03 0.158D-03 0.140D-03-0.442D-03
 Coeff-Com:  0.716D-04-0.111D-01-0.406D-02 0.112D+00-0.880D+00 0.178D+01
 Coeff:      0.101D-04-0.135D-04-0.116D-03 0.158D-03 0.140D-03-0.442D-03
 Coeff:      0.716D-04-0.111D-01-0.406D-02 0.112D+00-0.880D+00 0.178D+01
 Gap=     0.085 Goal=   None    Shift=    0.000
 RMSDP=3.48D-06 MaxDP=1.69D-04 DE=-6.68D-08 OVMax= 2.50D-04

 Cycle  13  Pass 1  IDiag  1:
 RMSU=  6.11D-07    CP:  1.00D+00  1.16D-01  1.12D+00  9.84D-01  6.66D-01
                    CP:  9.05D-01  8.62D-01  1.19D+00  9.05D-01  1.40D+00
                    CP:  1.59D+00  2.04D+00
 CoulSu:  requested number of processors reduced to:  21 ShMem   1 Linda.
 E= -82.6847309374866     Delta-E=       -0.000000024395 Rises=F Damp=F
 DIIS: error= 2.53D-06 at cycle  13 NSaved=  13.
 NSaved=13 IEnMin=13 EnMin= -82.6847309374866     IErMin=13 ErrMin= 2.53D-06
 ErrMax= 2.53D-06  0.00D+00 EMaxC= 1.00D-01 BMatC= 1.17D-10 BMatP= 1.05D-08
 IDIUse=1 WtCom= 1.00D+00 WtEn= 0.00D+00
 Coeff-Com:  0.130D-04-0.157D-04 0.510D-04 0.437D-04-0.237D-03 0.131D-03
 Coeff-Com:  0.102D-03-0.253D-03 0.399D-03 0.194D-01-0.143D-01-0.385D+00
 Coeff-Com:  0.138D+01
 Coeff:      0.130D-04-0.157D-04 0.510D-04 0.437D-04-0.237D-03 0.131D-03
 Coeff:      0.102D-03-0.253D-03 0.399D-03 0.194D-01-0.143D-01-0.385D+00
 Coeff:      0.138D+01
 Gap=     0.085 Goal=   None    Shift=    0.000
 RMSDP=1.44D-06 MaxDP=7.32D-05 DE=-2.44D-08 OVMax= 1.14D-04

 Cycle  14  Pass 1  IDiag  1:
 RMSU=  1.35D-07    CP:  1.00D+00  1.16D-01  1.12D+00  9.84D-01  6.66D-01
                    CP:  9.05D-01  8.62D-01  1.19D+00  9.10D-01  1.38D+00
                    CP:  1.63D+00  2.48D+00  1.65D+00
 CoulSu:  requested number of processors reduced to:  21 ShMem   1 Linda.
 E= -82.6847309391277     Delta-E=       -0.000000001641 Rises=F Damp=F
 DIIS: error= 3.23D-06 at cycle  14 NSaved=  14.
 NSaved=14 IEnMin=14 EnMin= -82.6847309391277     IErMin=13 ErrMin= 2.53D-06
 ErrMax= 3.23D-06  0.00D+00 EMaxC= 1.00D-01 BMatC= 4.27D-10 BMatP= 1.17D-10
 IDIUse=1 WtCom= 1.00D+00 WtEn= 0.00D+00
 Coeff-Com:  0.344D-05-0.478D-05 0.367D-04-0.610D-04-0.858D-04 0.643D-05
 Coeff-Com:  0.439D-03 0.169D-02-0.134D-02-0.235D-01 0.165D+00-0.316D+00
 Coeff-Com:  0.284D-01 0.115D+01
 Coeff:      0.344D-05-0.478D-05 0.367D-04-0.610D-04-0.858D-04 0.643D-05
 Coeff:      0.439D-03 0.169D-02-0.134D-02-0.235D-01 0.165D+00-0.316D+00
 Coeff:      0.284D-01 0.115D+01
 Gap=     0.085 Goal=   None    Shift=    0.000
 RMSDP=8.79D-07 MaxDP=8.40D-05 DE=-1.64D-09 OVMax= 3.60D-05

 Cycle  15  Pass 1  IDiag  1:
 RMSU=  5.58D-08    CP:  1.00D+00  1.16D-01  1.12D+00  9.84D-01  6.66D-01
                    CP:  9.05D-01  8.62D-01  1.19D+00  9.12D-01  1.38D+00
                    CP:  1.63D+00  2.59D+00  2.01D+00  1.24D+00
 CoulSu:  requested number of processors reduced to:  21 ShMem   1 Linda.
 E= -82.6847309396287     Delta-E=       -0.000000000501 Rises=F Damp=F
 DIIS: error= 9.89D-07 at cycle  15 NSaved=  15.
 NSaved=15 IEnMin=15 EnMin= -82.6847309396287     IErMin=15 ErrMin= 9.89D-07
 ErrMax= 9.89D-07  0.00D+00 EMaxC= 1.00D-01 BMatC= 4.10D-11 BMatP= 1.17D-10
 IDIUse=1 WtCom= 1.00D+00 WtEn= 0.00D+00
 Coeff-Com:  0.214D-06 0.261D-07 0.160D-05-0.178D-04-0.134D-04 0.154D-05
 Coeff-Com:  0.330D-04 0.384D-03-0.898D-03-0.320D-02 0.634D-02 0.211D-01
 Coeff-Com: -0.489D-01-0.183D+00 0.121D+01
 Coeff:      0.214D-06 0.261D-07 0.160D-05-0.178D-04-0.134D-04 0.154D-05
 Coeff:      0.330D-04 0.384D-03-0.898D-03-0.320D-02 0.634D-02 0.211D-01
 Coeff:     -0.489D-01-0.183D+00 0.121D+01
 Gap=     0.085 Goal=   None    Shift=    0.000
 RMSDP=3.45D-07 MaxDP=3.27D-05 DE=-5.01D-10 OVMax= 5.63D-06

 Cycle  16  Pass 1  IDiag  1:
 RMSU=  1.58D-08    CP:  1.00D+00  1.16D-01  1.12D+00  9.84D-01  6.66D-01
                    CP:  9.04D-01  8.62D-01  1.19D+00  9.12D-01  1.38D+00
                    CP:  1.63D+00  2.60D+00  2.11D+00  1.23D+00  1.67D+00
 CoulSu:  requested number of processors reduced to:  21 ShMem   1 Linda.
 E= -82.6847309396724     Delta-E=       -0.000000000044 Rises=F Damp=F
 DIIS: error= 3.08D-08 at cycle  16 NSaved=  16.
 NSaved=16 IEnMin=16 EnMin= -82.6847309396724     IErMin=16 ErrMin= 3.08D-08
 ErrMax= 3.08D-08  0.00D+00 EMaxC= 1.00D-01 BMatC= 6.44D-14 BMatP= 4.10D-11
 IDIUse=1 WtCom= 1.00D+00 WtEn= 0.00D+00
 Coeff-Com:  0.866D-07-0.871D-07-0.206D-05 0.466D-05 0.434D-05-0.598D-05
 Coeff-Com: -0.652D-05-0.643D-04 0.224D-03 0.112D-02-0.746D-02 0.819D-02
 Coeff-Com:  0.176D-01-0.509D-01-0.194D+00 0.123D+01
 Coeff:      0.866D-07-0.871D-07-0.206D-05 0.466D-05 0.434D-05-0.598D-05
 Coeff:     -0.652D-05-0.643D-04 0.224D-03 0.112D-02-0.746D-02 0.819D-02
 Coeff:      0.176D-01-0.509D-01-0.194D+00 0.123D+01
 Gap=     0.085 Goal=   None    Shift=    0.000
 RMSDP=7.73D-08 MaxDP=6.16D-06 DE=-4.36D-11 OVMax= 7.57D-07

 Cycle  17  Pass 1  IDiag  1:
 RMSU=  4.04D-09    CP:  1.00D+00  1.16D-01  1.12D+00  9.84D-01  6.66D-01
                    CP:  9.04D-01  8.62D-01  1.19D+00  9.12D-01  1.38D+00
                    CP:  1.63D+00  2.60D+00  2.14D+00  1.21D+00  1.86D+00
                    CP:  1.47D+00
 CoulSu:  requested number of processors reduced to:  21 ShMem   1 Linda.
 E= -82.6847309396720     Delta-E=        0.000000000000 Rises=F Damp=F
 DIIS: error= 1.86D-08 at cycle  17 NSaved=  17.
 NSaved=17 IEnMin=16 EnMin= -82.6847309396724     IErMin=17 ErrMin= 1.86D-08
 ErrMax= 1.86D-08  0.00D+00 EMaxC= 1.00D-01 BMatC= 8.81D-15 BMatP= 6.44D-14
 IDIUse=1 WtCom= 1.00D+00 WtEn= 0.00D+00
 Large coefficients: NSaved= 17 BigCof=    0.00 CofMax=   10.00 Det=-4.48D-15
 Inversion failed.  Reducing to 16 matrices.
 Large coefficients: NSaved= 16 BigCof=    0.00 CofMax=   10.00 Det=-4.58D-15
 Inversion failed.  Reducing to 15 matrices.
 Coeff-Com: -0.202D-06 0.311D-06 0.400D-06-0.592D-06-0.176D-05-0.231D-04
 Coeff-Com:  0.109D-03 0.421D-04-0.225D-03 0.412D-03-0.622D-03 0.458D-02
 Coeff-Com:  0.952D-03-0.105D+00 0.110D+01
 Coeff:     -0.202D-06 0.311D-06 0.400D-06-0.592D-06-0.176D-05-0.231D-04
 Coeff:      0.109D-03 0.421D-04-0.225D-03 0.412D-03-0.622D-03 0.458D-02
 Coeff:      0.952D-03-0.105D+00 0.110D+01
 Gap=     0.085 Goal=   None    Shift=    0.000
 RMSDP=1.74D-08 MaxDP=1.15D-06 DE= 3.69D-13 OVMax= 2.17D-07

 Cycle  18  Pass 1  IDiag  1:
 RMSU=  1.17D-09    CP:  1.00D+00  1.16D-01  1.12D+00  9.84D-01  6.66D-01
                    CP:  9.04D-01  8.62D-01  1.19D+00  9.12D-01  1.38D+00
                    CP:  1.63D+00  2.60D+00  2.14D+00  1.20D+00  1.87D+00
                    CP:  1.48D+00  1.47D+00
 CoulSu:  requested number of processors reduced to:  21 ShMem   1 Linda.
 E= -82.6847309396718     Delta-E=        0.000000000000 Rises=F Damp=F
 DIIS: error= 2.49D-09 at cycle  18 NSaved=  16.
 NSaved=16 IEnMin=14 EnMin= -82.6847309396724     IErMin=16 ErrMin= 2.49D-09
 ErrMax= 2.49D-09  0.00D+00 EMaxC= 1.00D-01 BMatC= 3.46D-16 BMatP= 8.81D-15
 IDIUse=1 WtCom= 1.00D+00 WtEn= 0.00D+00
 Large coefficients: NSaved= 16 BigCof=    0.00 CofMax=   10.00 Det=-2.15D-16
 Inversion failed.  Reducing to 15 matrices.
 Coeff-Com:  0.438D-07 0.117D-06-0.259D-06 0.118D-05-0.112D-05-0.220D-04
 Coeff-Com:  0.106D-05 0.601D-05 0.239D-03-0.828D-03-0.540D-03 0.790D-02
 Coeff-Com: -0.195D-01-0.207D+00 0.122D+01
 Coeff:      0.438D-07 0.117D-06-0.259D-06 0.118D-05-0.112D-05-0.220D-04
 Coeff:      0.106D-05 0.601D-05 0.239D-03-0.828D-03-0.540D-03 0.790D-02
 Coeff:     -0.195D-01-0.207D+00 0.122D+01
 Gap=     0.085 Goal=   None    Shift=    0.000
 RMSDP=1.88D-09 MaxDP=8.45D-08 DE= 2.27D-13 OVMax= 3.13D-08

 SCF Done:  E(RM062X) =  -82.6847309397     A.U. after   18 cycles
            NFock= 18  Conv=0.19D-08     -V/T= 2.0038
 KE= 8.237091447391D+01 PE=-2.155687262025D+02 EE= 4.272151449314D+01
 Leave Link  502 at Fri Apr 16 22:50:40 2021, MaxMem=   104857600 cpu:            1085.7 elap:              31.7
 (Enter /s/ls4/users/knvvv/bin/g16sse/l601.exe)
 Copying SCF densities to generalized density rwf, IOpCl= 0 IROHF=0.

 **********************************************************************

            Population analysis using the SCF density.

 **********************************************************************

 Orbital symmetries:
       Occupied  (SG) (SG) (SG) (SG) (PI) (PI)
       Virtual   (SG) (PI) (PI) (SG) (SG) (PI) (PI) (SG) (SG) (DLTA)
                 (DLTA) (PI) (PI) (SG) (PI) (PI) (SG) (PI) (PI)
                 (SG) (SG) (DLTA) (DLTA) (PHI) (PHI) (PI) (PI)
                 (SG) (DLTA) (DLTA) (PI) (PI) (SG) (PI) (PI) (DLTA)
                 (DLTA) (SG) (PI) (PI) (SG) (SG) (PI) (PI) (PHI)
                 (PHI) (?A) (?A) (DLTA) (DLTA) (PHI) (PHI) (SG)
                 (PI) (PI) (DLTA) (DLTA) (SG) (PI) (PI) (DLTA)
                 (DLTA) (SG) (PI) (PI) (PHI) (PHI) (SG) (DLTA)
                 (DLTA) (SG) (SG) (PI) (PI) (DLTA) (DLTA) (PI)
                 (PI) (SG) (PI) (PI) (SG) (PI) (PI) (SG) (?A) (?A)
                 (SG) (PHI) (PHI) (DLTA) (DLTA) (PI) (PI) (PHI)
                 (PHI) (SG) (DLTA) (DLTA) (PI) (PI) (SG) (SG) (DLTA)
                 (DLTA) (PI) (PI) (SG) (PI) (PI) (SG) (DLTA) (DLTA)
                 (PI) (PI) (PI) (PI) (SG) (SG) (?A) (?A) (PHI)
                 (PHI) (DLTA) (DLTA) (PI) (PI) (SG) (SG) (PHI)
                 (PHI) (DLTA) (DLTA) (PI) (PI) (SG) (DLTA) (DLTA)
                 (PI) (PI) (SG) (SG) (PI) (PI) (SG) (PHI) (PHI)
                 (DLTA) (DLTA) (PI) (PI) (SG) (PI) (PI) (SG) (DLTA)
                 (DLTA) (PI) (PI) (SG) (DLTA) (DLTA) (PI) (PI)
                 (SG) (SG) (SG) (PHI) (PHI) (DLTA) (DLTA) (PI)
                 (PI) (SG) (PI) (PI) (SG) (DLTA) (DLTA) (PI) (PI)
                 (SG) (SG) (PI) (PI) (SG) (SG)
 The electronic state is 1-SG.
 Alpha  occ. eigenvalues --  -19.25513  -1.88199  -0.61428  -0.01965   0.00278
 Alpha  occ. eigenvalues --    0.00278
 Alpha virt. eigenvalues --    0.08736   0.12179   0.12179   0.12345   0.17060
 Alpha virt. eigenvalues --    0.21433   0.21433   0.23949   0.28286   0.29790
 Alpha virt. eigenvalues --    0.29790   0.31519   0.31519   0.34922   0.36837
 Alpha virt. eigenvalues --    0.36837   0.38368   0.43529   0.43529   0.48127
 Alpha virt. eigenvalues --    0.59794   0.59800   0.59800   0.60098   0.60098
 Alpha virt. eigenvalues --    0.66118   0.66118   0.66329   0.69308   0.69308
 Alpha virt. eigenvalues --    0.74440   0.74440   0.78605   0.79399   0.79399
 Alpha virt. eigenvalues --    0.81174   0.81174   0.93604   0.97255   0.97255
 Alpha virt. eigenvalues --    1.02576   1.10404   1.25446   1.25446   1.29483
 Alpha virt. eigenvalues --    1.29483   1.30011   1.30013   1.37934   1.37935
 Alpha virt. eigenvalues --    1.39706   1.39706   1.40131   1.41408   1.41408
 Alpha virt. eigenvalues --    1.42445   1.42445   1.45397   1.55008   1.55008
 Alpha virt. eigenvalues --    1.57817   1.57819   1.59765   1.63147   1.63147
 Alpha virt. eigenvalues --    1.69429   1.69429   1.74078   1.82311   1.82311
 Alpha virt. eigenvalues --    1.99569   2.00943   2.01197   2.01197   2.12872
 Alpha virt. eigenvalues --    2.12873   2.21590   2.21590   2.41670   2.62421
 Alpha virt. eigenvalues --    2.62421   2.82169   3.18082   3.18082   3.42576
 Alpha virt. eigenvalues --    3.75651   3.75653   3.82456   3.86902   3.86902
 Alpha virt. eigenvalues --    3.94552   3.94557   3.99259   3.99259   4.21096
 Alpha virt. eigenvalues --    4.21096   4.38163   4.39910   4.39910   4.47173
 Alpha virt. eigenvalues --    4.47173   4.52861   4.59203   4.65346   4.65350
 Alpha virt. eigenvalues --    5.06192   5.06192   5.17066   6.86999   6.86999
 Alpha virt. eigenvalues --    7.12859   9.15989   9.15990   9.19484   9.19484
 Alpha virt. eigenvalues --    9.51616   9.51616   9.53809  10.00587  10.43989
 Alpha virt. eigenvalues --   10.44009  10.49527  10.49527  10.57242  10.57265
 Alpha virt. eigenvalues --   10.64968  10.64968  10.87108  10.98039  11.59325
 Alpha virt. eigenvalues --   11.59325  11.70559  11.70578  11.72661  11.72661
 Alpha virt. eigenvalues --   11.89576  12.47107  12.47111  12.82946  12.82946
 Alpha virt. eigenvalues --   12.96683  16.94135  26.06726  26.06726  26.29765
 Alpha virt. eigenvalues --   27.18792  27.18792  27.18966  27.18968  27.21679
 Alpha virt. eigenvalues --   27.21679  27.25480  32.68928  32.68928  33.14125
 Alpha virt. eigenvalues --   38.09107  38.09107  38.14396  38.14396  38.41183
 Alpha virt. eigenvalues --   46.44796  46.44796  46.67293  46.67293  46.70588
 Alpha virt. eigenvalues --   47.21213  62.69098 102.20556 102.20556 102.21330
 Alpha virt. eigenvalues --  102.21331 102.21443 102.21443 102.22272 115.45127
 Alpha virt. eigenvalues --  115.45127 115.84681 196.55872 196.55872 196.68635
 Alpha virt. eigenvalues --  196.68635 196.70009 213.25384 390.22594 390.22594
 Alpha virt. eigenvalues --  390.53873 882.86136
          Condensed to atoms (all electrons):
               1          2
     1  Li   2.711454  -0.052878
     2  O   -0.052878   9.394303
 Mulliken charges:
               1
     1  Li   0.341424
     2  O   -1.341424
 Sum of Mulliken charges =  -1.00000
 Mulliken charges with hydrogens summed into heavy atoms:
               1
     1  Li   0.341424
     2  O   -1.341424
 Electronic spatial extent (au):  <R**2>=             53.3893
 Charge=             -1.0000 electrons
 Dipole moment (field-independent basis, Debye):
    X=              0.0000    Y=             -0.0000    Z=             -5.8977  Tot=              5.8977
 Quadrupole moment (field-independent basis, Debye-Ang):
   XX=            -17.0107   YY=            -17.0107   ZZ=             -9.9453
   XY=             -0.0000   XZ=              0.0000   YZ=              0.0000
 Traceless Quadrupole moment (field-independent basis, Debye-Ang):
   XX=             -2.3551   YY=             -2.3551   ZZ=              4.7103
   XY=             -0.0000   XZ=              0.0000   YZ=              0.0000
 Octapole moment (field-independent basis, Debye-Ang**2):
  XXX=              0.0000  YYY=             -0.0000  ZZZ=             -9.3728  XYY=              0.0000
  XXY=             -0.0000  XXZ=              1.5719  XZZ=              0.0000  YZZ=             -0.0000
  YYZ=              1.5719  XYZ=              0.0000
 Hexadecapole moment (field-independent basis, Debye-Ang**3):
 XXXX=            -73.9661 YYYY=            -73.9661 ZZZZ=            -65.1036 XXXY=             -0.0000
 XXXZ=              0.0000 YYYX=             -0.0000 YYYZ=              0.0000 ZZZX=              0.0000
 ZZZY=              0.0000 XXYY=            -24.6554 XXZZ=            -26.6532 YYZZ=            -26.6532
 XXYZ=              0.0000 YYXZ=              0.0000 ZZXY=             -0.0000
 N-N= 7.791566295755D+00 E-N=-2.155687260618D+02  KE= 8.237091447391D+01
 PrsmSu:  requested number of processors reduced to:  21 ShMem   1 Linda.
 No NMR shielding tensors so no spin-rotation constants.
 Leave Link  601 at Fri Apr 16 22:50:44 2021, MaxMem=   104857600 cpu:             189.4 elap:               4.2
 (Enter /s/ls4/users/knvvv/bin/g16sse/l801.exe)
 DoSCS=F DFT=T ScalE2(SS,OS)=  1.000000  1.000000
 Range of M.O.s used for correlation:     1   193
 NBasis=   193 NAE=     6 NBE=     6 NFC=     0 NFV=     0
 NROrb=    193 NOA=     6 NOB=     6 NVA=   187 NVB=   187

 **** Warning!!: The largest alpha MO coefficient is  0.11112149D+03


 **** Warning!!: The smallest alpha delta epsilon is  0.84577848D-01

 Leave Link  801 at Fri Apr 16 22:50:44 2021, MaxMem=   104857600 cpu:               3.7 elap:               0.1
 (Enter /s/ls4/users/knvvv/bin/g16sse/l914.exe)
 RHF ground state
 Doing stability rather than CIS.
 Two-electron integrals replicated using symmetry.
 MDV=   104857600 DFT=T DoStab=T Mixed=T DoRPA=F DoScal=F NonHer=F
 Making orbital integer symmetry assigments:
 Orbital symmetries:
       Occupied  (SG) (SG) (SG) (SG) (PI) (PI)
       Virtual   (SG) (PI) (PI) (SG) (SG) (PI) (PI) (SG) (SG) (DLTA)
                 (DLTA) (PI) (PI) (SG) (PI) (PI) (SG) (PI) (PI)
                 (SG) (SG) (DLTA) (DLTA) (PHI) (PHI) (PI) (PI)
                 (SG) (DLTA) (DLTA) (PI) (PI) (SG) (PI) (PI) (DLTA)
                 (DLTA) (SG) (PI) (PI) (SG) (SG) (PI) (PI) (PHI)
                 (PHI) (?A) (?A) (DLTA) (DLTA) (PHI) (PHI) (SG)
                 (PI) (PI) (DLTA) (DLTA) (SG) (PI) (PI) (DLTA)
                 (DLTA) (SG) (PI) (PI) (PHI) (PHI) (SG) (DLTA)
                 (DLTA) (SG) (SG) (PI) (PI) (DLTA) (DLTA) (PI)
                 (PI) (SG) (PI) (PI) (SG) (PI) (PI) (SG) (?A) (?A)
                 (SG) (PHI) (PHI) (DLTA) (DLTA) (PI) (PI) (PHI)
                 (PHI) (SG) (DLTA) (DLTA) (PI) (PI) (SG) (SG) (DLTA)
                 (DLTA) (PI) (PI) (SG) (PI) (PI) (SG) (DLTA) (DLTA)
                 (PI) (PI) (PI) (PI) (SG) (SG) (?A) (?A) (PHI)
                 (PHI) (DLTA) (DLTA) (PI) (PI) (SG) (SG) (PHI)
                 (PHI) (DLTA) (DLTA) (PI) (PI) (SG) (DLTA) (DLTA)
                 (PI) (PI) (SG) (SG) (PI) (PI) (SG) (PHI) (PHI)
                 (DLTA) (DLTA) (PI) (PI) (SG) (PI) (PI) (SG) (DLTA)
                 (DLTA) (PI) (PI) (SG) (DLTA) (DLTA) (PI) (PI)
                 (SG) (SG) (SG) (PHI) (PHI) (DLTA) (DLTA) (PI)
                 (PI) (SG) (PI) (PI) (SG) (DLTA) (DLTA) (PI) (PI)
                 (SG) (SG) (PI) (PI) (SG) (SG)
    24 initial guesses have been made.
 Convergence on wavefunction:    0.001000000000000
 Davidson Disk Diagonalization:  ConvIn= 1.00D-03 SkipCon=T Conv= 1.00D-03.
 Max sub-space:  2000 roots to seek:    24 dimension of matrix:         2244
 Iteration     1 Dimension    24 NMult     0 NNew     24
 Estimated number of processors is:   19
 CISAX will form     1 AO SS matrices at one time.
 NMat=     1 NSing=     1 JSym2X= 2.
 FoFJK:  IHMeth= 1 ICntrl=       0 DoSepK=F KAlg= 0 I1Cent=           0 FoldK=F
 IRaf= 990000000 NMat=       1 IRICut=       1 DoRegI=T DoRafI=F ISym2E= 2 IDoP0=0 IntGTp=1.
 FoFCou: FMM=F IPFlag=           0 FMFlag=      100000 FMFlg1=           0
         NFxFlg=           0 DoJE=F BraDBF=F KetDBF=F FulRan=T
         wScrn=  0.000000 ICntrl=         0 IOpCl=  0 I1Cent=           0 NGrid=           0
         NMat0=    1 NMatS0=      1 NMatT0=    0 NMatD0=    1 NMtDS0=    0 NMtDT0=    0
 Integrals replicated using symmetry in FoFCou.
 CoulSu:  requested number of processors reduced to:  21 ShMem   1 Linda.
 NMat=     1 NSing=     1 JSym2X= 2.
 CoulSu:  requested number of processors reduced to:  21 ShMem   1 Linda.
 NMat=     1 NSing=     1 JSym2X= 2.
 CoulSu:  requested number of processors reduced to:  21 ShMem   1 Linda.
 NMat=     1 NSing=     1 JSym2X= 2.
 CoulSu:  requested number of processors reduced to:  21 ShMem   1 Linda.
 NMat=     1 NSing=     1 JSym2X= 2.
 CoulSu:  requested number of processors reduced to:  21 ShMem   1 Linda.
 NMat=     1 NSing=     1 JSym2X= 2.
 CoulSu:  requested number of processors reduced to:  21 ShMem   1 Linda.
 NMat=     1 NSing=     1 JSym2X= 2.
 CoulSu:  requested number of processors reduced to:  21 ShMem   1 Linda.
 NMat=     1 NSing=     1 JSym2X= 2.
 CoulSu:  requested number of processors reduced to:  21 ShMem   1 Linda.
 NMat=     1 NSing=     1 JSym2X= 2.
 CoulSu:  requested number of processors reduced to:  21 ShMem   1 Linda.
 NMat=     1 NSing=     1 JSym2X= 2.
 CoulSu:  requested number of processors reduced to:  21 ShMem   1 Linda.
 NMat=     1 NSing=     1 JSym2X= 2.
 CoulSu:  requested number of processors reduced to:  21 ShMem   1 Linda.
 NMat=     1 NSing=     1 JSym2X= 2.
 CoulSu:  requested number of processors reduced to:  21 ShMem   1 Linda.
 NMat=     1 NSing=     0 JSym2X= 2.
 CoulSu:  requested number of processors reduced to:  21 ShMem   1 Linda.
 NMat=     1 NSing=     0 JSym2X= 2.
 CoulSu:  requested number of processors reduced to:  21 ShMem   1 Linda.
 NMat=     1 NSing=     0 JSym2X= 2.
 CoulSu:  requested number of processors reduced to:  21 ShMem   1 Linda.
 NMat=     1 NSing=     0 JSym2X= 2.
 CoulSu:  requested number of processors reduced to:  21 ShMem   1 Linda.
 NMat=     1 NSing=     0 JSym2X= 2.
 CoulSu:  requested number of processors reduced to:  21 ShMem   1 Linda.
 NMat=     1 NSing=     0 JSym2X= 2.
 CoulSu:  requested number of processors reduced to:  21 ShMem   1 Linda.
 NMat=     1 NSing=     0 JSym2X= 2.
 CoulSu:  requested number of processors reduced to:  21 ShMem   1 Linda.
 NMat=     1 NSing=     0 JSym2X= 2.
 CoulSu:  requested number of processors reduced to:  21 ShMem   1 Linda.
 NMat=     1 NSing=     0 JSym2X= 2.
 CoulSu:  requested number of processors reduced to:  21 ShMem   1 Linda.
 NMat=     1 NSing=     0 JSym2X= 2.
 CoulSu:  requested number of processors reduced to:  21 ShMem   1 Linda.
 NMat=     1 NSing=     0 JSym2X= 2.
 CoulSu:  requested number of processors reduced to:  21 ShMem   1 Linda.
 NMat=     1 NSing=     0 JSym2X= 2.
 CoulSu:  requested number of processors reduced to:  21 ShMem   1 Linda.
 Excitation Energies [eV] at current iteration:
 Root      1 :     0.633323517522248
 Root      2 :     0.633323517564597
 Root      3 :     1.011151891843361
 Root      4 :     1.011151891892146
 Root      5 :     1.281009317909293
 Root      6 :     1.469438687915708
 Root      7 :     1.477034931174852
 Root      8 :     1.477075234724859
 Root      9 :     1.724750766685218
 Root     10 :     1.724750766687719
 Root     11 :     1.792940231492952
 Root     12 :     1.792948383589506
 Root     13 :     1.927238810395868
 Root     14 :     1.927238810399693
 Root     15 :     1.998482545708108
 Root     16 :     1.998482545737745
 Root     17 :     2.222357141626443
 Root     18 :     2.222357141645246
 Root     19 :     2.268732021108251
 Root     20 :     2.268732021181651
 Root     21 :     2.369343388083863
 Root     22 :     2.383126369650152
 Root     23 :     2.694370486455935
 Root     24 :     4.728664602944063
 Iteration     2 Dimension    48 NMult    24 NNew     24
 Estimated number of processors is:   19
 CISAX will form     1 AO SS matrices at one time.
 NMat=     1 NSing=     1 JSym2X= 2.
 CoulSu:  requested number of processors reduced to:  21 ShMem   1 Linda.
 NMat=     1 NSing=     1 JSym2X= 2.
 CoulSu:  requested number of processors reduced to:  21 ShMem   1 Linda.
 NMat=     1 NSing=     1 JSym2X= 2.
 CoulSu:  requested number of processors reduced to:  21 ShMem   1 Linda.
 NMat=     1 NSing=     1 JSym2X= 2.
 CoulSu:  requested number of processors reduced to:  21 ShMem   1 Linda.
 NMat=     1 NSing=     1 JSym2X= 2.
 CoulSu:  requested number of processors reduced to:  21 ShMem   1 Linda.
 NMat=     1 NSing=     1 JSym2X= 2.
 CoulSu:  requested number of processors reduced to:  21 ShMem   1 Linda.
 NMat=     1 NSing=     1 JSym2X= 2.
 CoulSu:  requested number of processors reduced to:  21 ShMem   1 Linda.
 NMat=     1 NSing=     1 JSym2X= 2.
 CoulSu:  requested number of processors reduced to:  21 ShMem   1 Linda.
 NMat=     1 NSing=     1 JSym2X= 2.
 CoulSu:  requested number of processors reduced to:  21 ShMem   1 Linda.
 NMat=     1 NSing=     1 JSym2X= 2.
 CoulSu:  requested number of processors reduced to:  21 ShMem   1 Linda.
 NMat=     1 NSing=     1 JSym2X= 2.
 CoulSu:  requested number of processors reduced to:  21 ShMem   1 Linda.
 NMat=     1 NSing=     1 JSym2X= 2.
 CoulSu:  requested number of processors reduced to:  21 ShMem   1 Linda.
 NMat=     1 NSing=     0 JSym2X= 2.
 CoulSu:  requested number of processors reduced to:  21 ShMem   1 Linda.
 NMat=     1 NSing=     0 JSym2X= 2.
 CoulSu:  requested number of processors reduced to:  21 ShMem   1 Linda.
 NMat=     1 NSing=     0 JSym2X= 2.
 CoulSu:  requested number of processors reduced to:  21 ShMem   1 Linda.
 NMat=     1 NSing=     0 JSym2X= 2.
 CoulSu:  requested number of processors reduced to:  21 ShMem   1 Linda.
 NMat=     1 NSing=     0 JSym2X= 2.
 CoulSu:  requested number of processors reduced to:  21 ShMem   1 Linda.
 NMat=     1 NSing=     0 JSym2X= 2.
 CoulSu:  requested number of processors reduced to:  21 ShMem   1 Linda.
 NMat=     1 NSing=     0 JSym2X= 2.
 CoulSu:  requested number of processors reduced to:  21 ShMem   1 Linda.
 NMat=     1 NSing=     0 JSym2X= 2.
 CoulSu:  requested number of processors reduced to:  21 ShMem   1 Linda.
 NMat=     1 NSing=     0 JSym2X= 2.
 CoulSu:  requested number of processors reduced to:  21 ShMem   1 Linda.
 NMat=     1 NSing=     0 JSym2X= 2.
 CoulSu:  requested number of processors reduced to:  21 ShMem   1 Linda.
 NMat=     1 NSing=     0 JSym2X= 2.
 CoulSu:  requested number of processors reduced to:  21 ShMem   1 Linda.
 NMat=     1 NSing=     0 JSym2X= 2.
 CoulSu:  requested number of processors reduced to:  21 ShMem   1 Linda.
 Root      1 not converged, maximum delta is    0.082441082920492
 Excitation Energies [eV] at current iteration:
 Root      1 :     0.517828895612486   Change is   -0.115494621909761
 Root      2 :     0.517828895641410   Change is   -0.115494621923187
 Root      3 :     0.629563013143704   Change is   -0.381588878699657
 Root      4 :     0.629563013170888   Change is   -0.381588878721258
 Root      5 :     0.814787049178290   Change is   -0.978161334411216
 Root      6 :     0.814832541964437   Change is   -0.978107689528515
 Root      7 :     1.026566932435812   Change is   -0.442871755479896
 Root      8 :     1.058188682604608   Change is   -0.222820635304685
 Root      9 :     1.128041138512702   Change is   -0.348993792662151
 Root     10 :     1.128178567665915   Change is   -0.348896667058944
 Root     11 :     1.216119714282381   Change is   -1.478250772173554
 Root     12 :     1.676889551571597   Change is   -0.047861215113621
 Root     13 :     1.676889551677111   Change is   -0.047861215010608
 Root     14 :     1.778354432066905   Change is   -0.220128113641204
 Root     15 :     1.778354432085792   Change is   -0.220128113651953
 Root     16 :     1.843830095380527   Change is   -0.083408715015342
 Root     17 :     1.843830095395687   Change is   -0.083408715004007
 Root     18 :     2.004433640016215   Change is   -0.264298381092036
 Root     19 :     2.004433640092691   Change is   -0.264298381088960
 Root     20 :     2.049222235172350   Change is   -0.173134906454093
 Root     21 :     2.049222235186344   Change is   -0.173134906458902
 Root     22 :     2.271484574526905   Change is   -0.111641795123247
 Root     23 :     2.394570106442454   Change is    0.025226718358592
 Root     24 :     2.725414027354825   Change is   -2.003250575589238
 Iteration     3 Dimension    54 NMult    48 NNew      6
 Estimated number of processors is:   19
 CISAX will form     1 AO SS matrices at one time.
 NMat=     1 NSing=     1 JSym2X= 2.
 CoulSu:  requested number of processors reduced to:  21 ShMem   1 Linda.
 NMat=     1 NSing=     1 JSym2X= 2.
 CoulSu:  requested number of processors reduced to:  21 ShMem   1 Linda.
 NMat=     1 NSing=     1 JSym2X= 2.
 CoulSu:  requested number of processors reduced to:  21 ShMem   1 Linda.
 NMat=     1 NSing=     0 JSym2X= 2.
 CoulSu:  requested number of processors reduced to:  21 ShMem   1 Linda.
 NMat=     1 NSing=     0 JSym2X= 2.
 CoulSu:  requested number of processors reduced to:  21 ShMem   1 Linda.
 NMat=     1 NSing=     0 JSym2X= 2.
 CoulSu:  requested number of processors reduced to:  21 ShMem   1 Linda.
 Root      1 not converged, maximum delta is    0.020412779348719
 Excitation Energies [eV] at current iteration:
 Root      1 :     0.509671321033061   Change is   -0.008157574579426
 Root      2 :     0.509671321062667   Change is   -0.008157574578743
 Root      3 :     0.584167636877731   Change is   -0.045395376265973
 Root      4 :     0.584167636902347   Change is   -0.045395376268541
 Root      5 :     0.722236285701905   Change is   -0.092550763476386
 Root      6 :     1.044589589880037   Change is   -0.013599092724571
 Iteration     4 Dimension    60 NMult    54 NNew      6
 Estimated number of processors is:   19
 CISAX will form     1 AO SS matrices at one time.
 NMat=     1 NSing=     1 JSym2X= 2.
 CoulSu:  requested number of processors reduced to:  21 ShMem   1 Linda.
 NMat=     1 NSing=     1 JSym2X= 2.
 CoulSu:  requested number of processors reduced to:  21 ShMem   1 Linda.
 NMat=     1 NSing=     1 JSym2X= 2.
 CoulSu:  requested number of processors reduced to:  21 ShMem   1 Linda.
 NMat=     1 NSing=     0 JSym2X= 2.
 CoulSu:  requested number of processors reduced to:  21 ShMem   1 Linda.
 NMat=     1 NSing=     0 JSym2X= 2.
 CoulSu:  requested number of processors reduced to:  21 ShMem   1 Linda.
 NMat=     1 NSing=     0 JSym2X= 2.
 CoulSu:  requested number of processors reduced to:  21 ShMem   1 Linda.
 Root      1 not converged, maximum delta is    0.004661816839343
 Excitation Energies [eV] at current iteration:
 Root      1 :     0.508947723498122   Change is   -0.000723597534939
 Root      2 :     0.508947723527843   Change is   -0.000723597534824
 Root      3 :     0.582175988159761   Change is   -0.001991648717970
 Root      4 :     0.582175988184504   Change is   -0.001991648717843
 Root      5 :     0.718910159602317   Change is   -0.003326126099587
 Root      6 :     1.042836624918170   Change is   -0.001752964961867
 Iteration     5 Dimension    66 NMult    60 NNew      6
 Estimated number of processors is:   19
 CISAX will form     1 AO SS matrices at one time.
 NMat=     1 NSing=     1 JSym2X= 2.
 CoulSu:  requested number of processors reduced to:  21 ShMem   1 Linda.
 NMat=     1 NSing=     1 JSym2X= 2.
 CoulSu:  requested number of processors reduced to:  21 ShMem   1 Linda.
 NMat=     1 NSing=     1 JSym2X= 2.
 CoulSu:  requested number of processors reduced to:  21 ShMem   1 Linda.
 NMat=     1 NSing=     0 JSym2X= 2.
 CoulSu:  requested number of processors reduced to:  21 ShMem   1 Linda.
 NMat=     1 NSing=     0 JSym2X= 2.
 CoulSu:  requested number of processors reduced to:  21 ShMem   1 Linda.
 NMat=     1 NSing=     0 JSym2X= 2.
 CoulSu:  requested number of processors reduced to:  21 ShMem   1 Linda.
 Root      1 has converged.
 Excitation Energies [eV] at current iteration:
 Root      1 :     0.508891791200732   Change is   -0.000055932297390
 Root      2 :     0.508891791230484   Change is   -0.000055932297360
 Root      3 :     0.582122964500476   Change is   -0.000053023659285
 Root      4 :     0.582122964525225   Change is   -0.000053023659279
 Root      5 :     0.718840396937406   Change is   -0.000069762664912
 Root      6 :     1.042734851550924   Change is   -0.000101773367246
 Convergence achieved on expansion vectors.
 ***********************************************************************
 Stability analysis using <AA,BB:AA,BB> singles matrix:
 ***********************************************************************
 1PDM for each excited state written to RWF  633
 Ground to excited state transition densities written to RWF  633

 Eigenvectors of the stability matrix:
 
 Excited state symmetry could not be determined.
 Eigenvector   1:      Singlet-?Sym  Eigenvalue= 0.0187014  <S**2>=0.000
       5 ->  7        -0.20334
       6 ->  7         0.61218
       6 -> 10        -0.24337
       6 -> 11        -0.10791
 The wavefunction is stable under the perturbations considered.
 Leave Link  914 at Fri Apr 16 22:52:39 2021, MaxMem=   104857600 cpu:            3938.6 elap:             115.3
 (Enter /s/ls4/users/knvvv/bin/g16sse/l508.exe)
 The wavefunction is already stable.
 Leave Link  508 at Fri Apr 16 22:52:39 2021, MaxMem=   104857600 cpu:               2.4 elap:               0.1
 (Enter /s/ls4/users/knvvv/bin/g16sse/l601.exe)
 Copying SCF densities to generalized density rwf, IOpCl= 0 IROHF=0.

 **********************************************************************

            Population analysis using the SCF density.

 **********************************************************************

 Orbital symmetries:
       Occupied  (SG) (SG) (SG) (SG) (PI) (PI)
       Virtual   (SG) (PI) (PI) (SG) (SG) (PI) (PI) (SG) (SG) (DLTA)
                 (DLTA) (PI) (PI) (SG) (PI) (PI) (SG) (PI) (PI)
                 (SG) (SG) (DLTA) (DLTA) (PHI) (PHI) (PI) (PI)
                 (SG) (DLTA) (DLTA) (PI) (PI) (SG) (PI) (PI) (DLTA)
                 (DLTA) (SG) (PI) (PI) (SG) (SG) (PI) (PI) (PHI)
                 (PHI) (?A) (?A) (DLTA) (DLTA) (PHI) (PHI) (SG)
                 (PI) (PI) (DLTA) (DLTA) (SG) (PI) (PI) (DLTA)
                 (DLTA) (SG) (PI) (PI) (PHI) (PHI) (SG) (DLTA)
                 (DLTA) (SG) (SG) (PI) (PI) (DLTA) (DLTA) (PI)
                 (PI) (SG) (PI) (PI) (SG) (PI) (PI) (SG) (?A) (?A)
                 (SG) (PHI) (PHI) (DLTA) (DLTA) (PI) (PI) (PHI)
                 (PHI) (SG) (DLTA) (DLTA) (PI) (PI) (SG) (SG) (DLTA)
                 (DLTA) (PI) (PI) (SG) (PI) (PI) (SG) (DLTA) (DLTA)
                 (PI) (PI) (PI) (PI) (SG) (SG) (?A) (?A) (PHI)
                 (PHI) (DLTA) (DLTA) (PI) (PI) (SG) (SG) (PHI)
                 (PHI) (DLTA) (DLTA) (PI) (PI) (SG) (DLTA) (DLTA)
                 (PI) (PI) (SG) (SG) (PI) (PI) (SG) (PHI) (PHI)
                 (DLTA) (DLTA) (PI) (PI) (SG) (PI) (PI) (SG) (DLTA)
                 (DLTA) (PI) (PI) (SG) (DLTA) (DLTA) (PI) (PI)
                 (SG) (SG) (SG) (PHI) (PHI) (DLTA) (DLTA) (PI)
                 (PI) (SG) (PI) (PI) (SG) (DLTA) (DLTA) (PI) (PI)
                 (SG) (SG) (PI) (PI) (SG) (SG)
 The electronic state is 1-SG.
 Alpha  occ. eigenvalues --  -19.25513  -1.88199  -0.61428  -0.01965   0.00278
 Alpha  occ. eigenvalues --    0.00278
 Alpha virt. eigenvalues --    0.08736   0.12179   0.12179   0.12345   0.17060
 Alpha virt. eigenvalues --    0.21433   0.21433   0.23949   0.28286   0.29790
 Alpha virt. eigenvalues --    0.29790   0.31519   0.31519   0.34922   0.36837
 Alpha virt. eigenvalues --    0.36837   0.38368   0.43529   0.43529   0.48127
 Alpha virt. eigenvalues --    0.59794   0.59800   0.59800   0.60098   0.60098
 Alpha virt. eigenvalues --    0.66118   0.66118   0.66329   0.69308   0.69308
 Alpha virt. eigenvalues --    0.74440   0.74440   0.78605   0.79399   0.79399
 Alpha virt. eigenvalues --    0.81174   0.81174   0.93604   0.97255   0.97255
 Alpha virt. eigenvalues --    1.02576   1.10404   1.25446   1.25446   1.29483
 Alpha virt. eigenvalues --    1.29483   1.30011   1.30013   1.37934   1.37935
 Alpha virt. eigenvalues --    1.39706   1.39706   1.40131   1.41408   1.41408
 Alpha virt. eigenvalues --    1.42445   1.42445   1.45397   1.55008   1.55008
 Alpha virt. eigenvalues --    1.57817   1.57819   1.59765   1.63147   1.63147
 Alpha virt. eigenvalues --    1.69429   1.69429   1.74078   1.82311   1.82311
 Alpha virt. eigenvalues --    1.99569   2.00943   2.01197   2.01197   2.12872
 Alpha virt. eigenvalues --    2.12873   2.21590   2.21590   2.41670   2.62421
 Alpha virt. eigenvalues --    2.62421   2.82169   3.18082   3.18082   3.42576
 Alpha virt. eigenvalues --    3.75651   3.75653   3.82456   3.86902   3.86902
 Alpha virt. eigenvalues --    3.94552   3.94557   3.99259   3.99259   4.21096
 Alpha virt. eigenvalues --    4.21096   4.38163   4.39910   4.39910   4.47173
 Alpha virt. eigenvalues --    4.47173   4.52861   4.59203   4.65346   4.65350
 Alpha virt. eigenvalues --    5.06192   5.06192   5.17066   6.86999   6.86999
 Alpha virt. eigenvalues --    7.12859   9.15989   9.15990   9.19484   9.19484
 Alpha virt. eigenvalues --    9.51616   9.51616   9.53809  10.00587  10.43989
 Alpha virt. eigenvalues --   10.44009  10.49527  10.49527  10.57242  10.57265
 Alpha virt. eigenvalues --   10.64968  10.64968  10.87108  10.98039  11.59325
 Alpha virt. eigenvalues --   11.59325  11.70559  11.70578  11.72661  11.72661
 Alpha virt. eigenvalues --   11.89576  12.47107  12.47111  12.82946  12.82946
 Alpha virt. eigenvalues --   12.96683  16.94135  26.06726  26.06726  26.29765
 Alpha virt. eigenvalues --   27.18792  27.18792  27.18966  27.18968  27.21679
 Alpha virt. eigenvalues --   27.21679  27.25480  32.68928  32.68928  33.14125
 Alpha virt. eigenvalues --   38.09107  38.09107  38.14396  38.14396  38.41183
 Alpha virt. eigenvalues --   46.44796  46.44796  46.67293  46.67293  46.70588
 Alpha virt. eigenvalues --   47.21213  62.69098 102.20556 102.20556 102.21330
 Alpha virt. eigenvalues --  102.21331 102.21443 102.21443 102.22272 115.45127
 Alpha virt. eigenvalues --  115.45127 115.84681 196.55872 196.55872 196.68635
 Alpha virt. eigenvalues --  196.68635 196.70009 213.25384 390.22594 390.22594
 Alpha virt. eigenvalues --  390.53873 882.86136
          Condensed to atoms (all electrons):
               1          2
     1  Li   2.711454  -0.052878
     2  O   -0.052878   9.394303
 Mulliken charges:
               1
     1  Li   0.341424
     2  O   -1.341424
 Sum of Mulliken charges =  -1.00000
 Mulliken charges with hydrogens summed into heavy atoms:
               1
     1  Li   0.341424
     2  O   -1.341424
 Electronic spatial extent (au):  <R**2>=             53.3893
 Charge=             -1.0000 electrons
 Dipole moment (field-independent basis, Debye):
    X=              0.0000    Y=             -0.0000    Z=             -5.8977  Tot=              5.8977
 Quadrupole moment (field-independent basis, Debye-Ang):
   XX=            -17.0107   YY=            -17.0107   ZZ=             -9.9453
   XY=             -0.0000   XZ=              0.0000   YZ=              0.0000
 Traceless Quadrupole moment (field-independent basis, Debye-Ang):
   XX=             -2.3551   YY=             -2.3551   ZZ=              4.7103
   XY=             -0.0000   XZ=              0.0000   YZ=              0.0000
 Octapole moment (field-independent basis, Debye-Ang**2):
  XXX=              0.0000  YYY=             -0.0000  ZZZ=             -9.3728  XYY=              0.0000
  XXY=             -0.0000  XXZ=              1.5719  XZZ=              0.0000  YZZ=             -0.0000
  YYZ=              1.5719  XYZ=              0.0000
 Hexadecapole moment (field-independent basis, Debye-Ang**3):
 XXXX=            -73.9661 YYYY=            -73.9661 ZZZZ=            -65.1036 XXXY=             -0.0000
 XXXZ=              0.0000 YYYX=             -0.0000 YYYZ=              0.0000 ZZZX=              0.0000
 ZZZY=              0.0000 XXYY=            -24.6554 XXZZ=            -26.6532 YYZZ=            -26.6532
 XXYZ=              0.0000 YYXZ=              0.0000 ZZXY=             -0.0000
 N-N= 7.791566295755D+00 E-N=-2.155687260618D+02  KE= 8.237091447391D+01
 PrsmSu:  requested number of processors reduced to:  21 ShMem   1 Linda.
 No NMR shielding tensors so no spin-rotation constants.
 Leave Link  601 at Fri Apr 16 22:52:45 2021, MaxMem=   104857600 cpu:             235.4 elap:               5.2
 (Enter /s/ls4/users/knvvv/bin/g16sse/l9999.exe)

 Test job not archived.
 1\1\GINC-N180\Stability\RM062X\Gen\Li1O1(1-)\KNVVV\16-Apr-2021\0\\#P M
 062X/GEN Integral=UltraFineGrid SCF=NoSymm Stable=(RExt, Opt) IOp(1/33
 =1)\\Database calculations.\\-1,1\Li,0,0.,0.,1.63\O,0,0.,0.,0.\\Versio
 n=ES64L-G16RevA.03\State=1-SG\HF=-82.6847309\RMSD=1.884e-09\Dipole=0.,
 0.,2.3203313\Quadrupole=-1.7509882,-1.7509882,3.5019765,0.,0.,0.\PG=C*
 V [C*(Li1O1)]\\@


 REFRAIN FROM ILLUSIONS, INSIST ON WORK AND NOT WORDS,
 PATIENTLY SEEK DIVINE AND SCIENTIFIC TRUTH.
 LAST WORDS OF MARIA MENDELEEVA TO HER SON DMITRI, C. 1850
 Job cpu time:       0 days  1 hours 39 minutes 48.9 seconds.
 Elapsed time:       0 days  0 hours  2 minutes 48.3 seconds.
 File lengths (MBytes):  RWF=     87 Int=      0 D2E=      0 Chk=      5 Scr=      1
 Normal termination of Gaussian 16 at Fri Apr 16 22:52:45 2021.
