 Entering Gaussian System, Link 0=/s/ls4/groups/g0130/bin/g16/g16
 Input=M062X--def2-QZVP--ISOL24_i17e.gjf
 Output=M062X--def2-QZVP--ISOL24_i17e.log
 Initial command:
 /s/ls4/groups/g0130/bin/g16/l1.exe "/dev/shm/scratch_knvvv/Gau-21513.inp" -scrdir="/dev/shm/scratch_knvvv/"
 Entering Link 1 = /s/ls4/groups/g0130/bin/g16/l1.exe PID=     21514.
  
 Copyright (c) 1988,1990,1992,1993,1995,1998,2003,2009,2016,
            Gaussian, Inc.  All Rights Reserved.
  
 This is part of the Gaussian(R) 16 program.  It is based on
 the Gaussian(R) 09 system (copyright 2009, Gaussian, Inc.),
 the Gaussian(R) 03 system (copyright 2003, Gaussian, Inc.),
 the Gaussian(R) 98 system (copyright 1998, Gaussian, Inc.),
 the Gaussian(R) 94 system (copyright 1995, Gaussian, Inc.),
 the Gaussian 92(TM) system (copyright 1992, Gaussian, Inc.),
 the Gaussian 90(TM) system (copyright 1990, Gaussian, Inc.),
 the Gaussian 88(TM) system (copyright 1988, Gaussian, Inc.),
 the Gaussian 86(TM) system (copyright 1986, Carnegie Mellon
 University), and the Gaussian 82(TM) system (copyright 1983,
 Carnegie Mellon University). Gaussian is a federally registered
 trademark of Gaussian, Inc.
  
 This software contains proprietary and confidential information,
 including trade secrets, belonging to Gaussian, Inc.
  
 This software is provided under written license and may be
 used, copied, transmitted, or stored only in accord with that
 written license.
  
 The following legend is applicable only to US Government
 contracts under FAR:
  
                    RESTRICTED RIGHTS LEGEND
  
 Use, reproduction and disclosure by the US Government is
 subject to restrictions as set forth in subparagraphs (a)
 and (c) of the Commercial Computer Software - Restricted
 Rights clause in FAR 52.227-19.
  
 Gaussian, Inc.
 340 Quinnipiac St., Bldg. 40, Wallingford CT 06492
  
  
 ---------------------------------------------------------------
 Warning -- This program may not be used in any manner that
 competes with the business of Gaussian, Inc. or will provide
 assistance to any competitor of Gaussian, Inc.  The licensee
 of this program is prohibited from giving any competitor of
 Gaussian, Inc. access to this program.  By using this program,
 the user acknowledges that Gaussian, Inc. is engaged in the
 business of creating and licensing software in the field of
 computational chemistry and represents and warrants to the
 licensee that it is not a competitor of Gaussian, Inc. and that
 it will not use this program in any manner prohibited above.
 ---------------------------------------------------------------
  

 Cite this work as:
 Gaussian 16, Revision A.03,
 M. J. Frisch, G. W. Trucks, H. B. Schlegel, G. E. Scuseria, 
 M. A. Robb, J. R. Cheeseman, G. Scalmani, V. Barone, 
 G. A. Petersson, H. Nakatsuji, X. Li, M. Caricato, A. V. Marenich, 
 J. Bloino, B. G. Janesko, R. Gomperts, B. Mennucci, H. P. Hratchian, 
 J. V. Ortiz, A. F. Izmaylov, J. L. Sonnenberg, D. Williams-Young, 
 F. Ding, F. Lipparini, F. Egidi, J. Goings, B. Peng, A. Petrone, 
 T. Henderson, D. Ranasinghe, V. G. Zakrzewski, J. Gao, N. Rega, 
 G. Zheng, W. Liang, M. Hada, M. Ehara, K. Toyota, R. Fukuda, 
 J. Hasegawa, M. Ishida, T. Nakajima, Y. Honda, O. Kitao, H. Nakai, 
 T. Vreven, K. Throssell, J. A. Montgomery, Jr., J. E. Peralta, 
 F. Ogliaro, M. J. Bearpark, J. J. Heyd, E. N. Brothers, K. N. Kudin, 
 V. N. Staroverov, T. A. Keith, R. Kobayashi, J. Normand, 
 K. Raghavachari, A. P. Rendell, J. C. Burant, S. S. Iyengar, 
 J. Tomasi, M. Cossi, J. M. Millam, M. Klene, C. Adamo, R. Cammi, 
 J. W. Ochterski, R. L. Martin, K. Morokuma, O. Farkas, 
 J. B. Foresman, and D. J. Fox, Gaussian, Inc., Wallingford CT, 2016.
 
 ******************************************
 Gaussian 16:  ES64L-G16RevA.03 25-Dec-2016
                20-Apr-2021 
 ******************************************
 %nprocshared=48
 Will use up to   48 processors via shared memory.
 %mem=90GB
 ----------------------------------------------------------------------
 #P M062X/Def2QZVP Integral=UltraFineGrid SCF=NoSymm Stable=(RExt, Opt)
  IOp(1/33=1)
 ----------------------------------------------------------------------
 1/33=1,38=1,172=1/1;
 2/12=2,17=6,18=5,40=1/2;
 3/5=45,7=101,11=2,25=1,30=1,74=-55,75=-5/1,2,3;
 4/9=2/1;
 5/5=2,38=5/2;
 6/7=2,8=2,9=2,10=2,28=1/1;
 8/6=1,10=90,11=11/1;
 9/8=-3,42=1,46=1/14;
 5/5=2,8=3,17=40,38=5/8(-2);
 6/7=2,8=2,9=2,10=2,28=1/1;
 99/5=1,9=1/99;
 Leave Link    1 at Tue Apr 20 10:36:05 2021, MaxMem= 12079595520 cpu:               7.0 elap:               0.2
 (Enter /s/ls4/groups/g0130/bin/g16/l101.exe)
 ONIOM data not found on unit 2.
 ----------------------
 Database calculations.
 ----------------------
 TstMul:  ICh=     0
 TstMul:  Mul=     1
 TstMul:  ICh=     0
 TstMul:  Mul=     1
 Symbolic Z-matrix:
 Charge =  0 Multiplicity = 1
 C                     0.0751    1.31683  -1.30921 
 C                    -1.20805   0.58315  -1.22894 
 C                    -1.04311  -0.40261  -0.09485 
 C                     0.40191  -0.27893   0.41876 
 C                     0.96454   0.91141  -0.3715 
 C                     2.77464   2.60166  -0.80165 
 C                     2.28358   1.48675  -0.08574 
 C                     3.10735   0.94106   0.92066 
 C                     4.36582   1.4815    1.19646 
 C                     4.83629   2.58124   0.47421 
 C                     4.03071   3.13794  -0.52875 
 C                     1.61741  -1.93794  -1.0757 
 C                     1.16813  -1.57531   0.2019 
 C                     1.39167  -2.45268   1.27181 
 C                     2.05555  -3.66776   1.07441 
 C                     2.50199  -4.0205   -0.20341 
 C                     2.27967  -3.15151  -1.27813 
 C                    -5.62865   1.23112   0.99955 
 C                    -6.24724   0.22307   0.2526 
 C                    -5.46515  -0.61459  -0.55129 
 C                    -4.07995  -0.44702  -0.6065 
 C                    -3.44534   0.56326   0.14028 
 C                    -4.24256   1.39944   0.94117 
 C                    -1.97642   0.77191   0.09842 
 H                     0.23725   2.12929  -2.01303 
 H                    -1.80501   0.3743   -2.11503 
 H                    -1.49028  -1.3926   -0.13827 
 H                     0.40539  -0.05463   1.49541 
 H                     2.16175   3.05318  -1.57834 
 H                     2.76616   0.0767    1.48244 
 H                     4.98073   1.03752   1.97734 
 H                     5.81663   3.00246   0.6881 
 H                     4.38387   3.99691  -1.09678 
 H                     1.45422  -1.25363  -1.9058 
 H                     1.04417  -2.17604   2.26713 
 H                     2.22577  -4.33623   1.91663 
 H                     3.0218   -4.9637   -0.36051 
 H                     2.62771  -3.41837  -2.27459 
 H                    -6.22602   1.88894   1.62849 
 H                    -7.32648   0.09086   0.29571 
 H                    -5.93606  -1.40234  -1.13688 
 H                    -3.48412  -1.10632  -1.23487 
 H                    -3.76527   2.18722   1.52276 
 H                    -1.61011   1.58498   0.72555 
 
 RdStrC is calling ZToCFu for IStruc=1 NZ=    44.
 PrtBox:  NBox=    10 Levels=  3 BoxLen=    8.00 SMaxX=       24.84
          Shift=           13.845041            9.380041            4.298356
 Box      1 Number                   0 centers from      1 to      2:
 Box      2 Number                   2 centers from      3 to     11:
 Box      3 Number                   4 centers from     12 to     12:
 Box      4 Number                   5 centers from     13 to     13:
 Box      5 Number                   6 centers from     14 to     23:
 Box      6 Number                  32 centers from     24 to     33:
 Box      7 Number                  34 centers from     34 to     41:
 Box      8 Number                  35 centers from     42 to     42:
 Box      9 Number                  38 centers from     43 to     43:
 Box     10 Number                  48 centers from     44 to     44:
 After GenITR:
 ITRead=  0  0  0  0  0  0  0  0  0  0  0  0  0  0  0  0  0  0  0  0
 ITRead=  0  0  0  0  0  0  0  0  0  0  0  0  0  0  0  0  0  0  0  0
 ITRead=  0  0  0  0
 MicOpt= -1 -1 -1 -1 -1 -1 -1 -1 -1 -1 -1 -1 -1 -1 -1 -1 -1 -1 -1 -1
 MicOpt= -1 -1 -1 -1 -1 -1 -1 -1 -1 -1 -1 -1 -1 -1 -1 -1 -1 -1 -1 -1
 MicOpt= -1 -1 -1 -1
 ITRead=  0  0  0  0  0  0  0  0  0  0  0  0  0  0  0  0  0  0  0  0
 ITRead=  0  0  0  0  0  0  0  0  0  0  0  0  0  0  0  0  0  0  0  0
 ITRead=  0  0  0  0
 MicOpt= -1 -1 -1 -1 -1 -1 -1 -1 -1 -1 -1 -1 -1 -1 -1 -1 -1 -1 -1 -1
 MicOpt= -1 -1 -1 -1 -1 -1 -1 -1 -1 -1 -1 -1 -1 -1 -1 -1 -1 -1 -1 -1
 MicOpt= -1 -1 -1 -1
 NAtoms=     44 NQM=       44 NQMF=       0 NMMI=      0 NMMIF=      0
                NMic=       0 NMicF=      0.
                    Isotopes and Nuclear Properties:
 (Nuclear quadrupole moments (NQMom) in fm**2, nuclear magnetic moments (NMagM)
  in nuclear magnetons)

  Atom         1           2           3           4           5           6           7           8           9          10
 IAtWgt=          12          12          12          12          12          12          12          12          12          12
 AtmWgt=  12.0000000  12.0000000  12.0000000  12.0000000  12.0000000  12.0000000  12.0000000  12.0000000  12.0000000  12.0000000
 NucSpn=           0           0           0           0           0           0           0           0           0           0
 AtZEff=  -0.0000000  -0.0000000  -0.0000000  -0.0000000  -0.0000000  -0.0000000  -0.0000000  -0.0000000  -0.0000000  -0.0000000
 NQMom=    0.0000000   0.0000000   0.0000000   0.0000000   0.0000000   0.0000000   0.0000000   0.0000000   0.0000000   0.0000000
 NMagM=    0.0000000   0.0000000   0.0000000   0.0000000   0.0000000   0.0000000   0.0000000   0.0000000   0.0000000   0.0000000
 AtZNuc=   6.0000000   6.0000000   6.0000000   6.0000000   6.0000000   6.0000000   6.0000000   6.0000000   6.0000000   6.0000000

  Atom        11          12          13          14          15          16          17          18          19          20
 IAtWgt=          12          12          12          12          12          12          12          12          12          12
 AtmWgt=  12.0000000  12.0000000  12.0000000  12.0000000  12.0000000  12.0000000  12.0000000  12.0000000  12.0000000  12.0000000
 NucSpn=           0           0           0           0           0           0           0           0           0           0
 AtZEff=  -0.0000000  -0.0000000  -0.0000000  -0.0000000  -0.0000000  -0.0000000  -0.0000000  -0.0000000  -0.0000000  -0.0000000
 NQMom=    0.0000000   0.0000000   0.0000000   0.0000000   0.0000000   0.0000000   0.0000000   0.0000000   0.0000000   0.0000000
 NMagM=    0.0000000   0.0000000   0.0000000   0.0000000   0.0000000   0.0000000   0.0000000   0.0000000   0.0000000   0.0000000
 AtZNuc=   6.0000000   6.0000000   6.0000000   6.0000000   6.0000000   6.0000000   6.0000000   6.0000000   6.0000000   6.0000000

  Atom        21          22          23          24          25          26          27          28          29          30
 IAtWgt=          12          12          12          12           1           1           1           1           1           1
 AtmWgt=  12.0000000  12.0000000  12.0000000  12.0000000   1.0078250   1.0078250   1.0078250   1.0078250   1.0078250   1.0078250
 NucSpn=           0           0           0           0           1           1           1           1           1           1
 AtZEff=  -0.0000000  -0.0000000  -0.0000000  -0.0000000  -0.0000000  -0.0000000  -0.0000000  -0.0000000  -0.0000000  -0.0000000
 NQMom=    0.0000000   0.0000000   0.0000000   0.0000000   0.0000000   0.0000000   0.0000000   0.0000000   0.0000000   0.0000000
 NMagM=    0.0000000   0.0000000   0.0000000   0.0000000   2.7928460   2.7928460   2.7928460   2.7928460   2.7928460   2.7928460
 AtZNuc=   6.0000000   6.0000000   6.0000000   6.0000000   1.0000000   1.0000000   1.0000000   1.0000000   1.0000000   1.0000000

  Atom        31          32          33          34          35          36          37          38          39          40
 IAtWgt=           1           1           1           1           1           1           1           1           1           1
 AtmWgt=   1.0078250   1.0078250   1.0078250   1.0078250   1.0078250   1.0078250   1.0078250   1.0078250   1.0078250   1.0078250
 NucSpn=           1           1           1           1           1           1           1           1           1           1
 AtZEff=  -0.0000000  -0.0000000  -0.0000000  -0.0000000  -0.0000000  -0.0000000  -0.0000000  -0.0000000  -0.0000000  -0.0000000
 NQMom=    0.0000000   0.0000000   0.0000000   0.0000000   0.0000000   0.0000000   0.0000000   0.0000000   0.0000000   0.0000000
 NMagM=    2.7928460   2.7928460   2.7928460   2.7928460   2.7928460   2.7928460   2.7928460   2.7928460   2.7928460   2.7928460
 AtZNuc=   1.0000000   1.0000000   1.0000000   1.0000000   1.0000000   1.0000000   1.0000000   1.0000000   1.0000000   1.0000000

  Atom        41          42          43          44
 IAtWgt=           1           1           1           1
 AtmWgt=   1.0078250   1.0078250   1.0078250   1.0078250
 NucSpn=           1           1           1           1
 AtZEff=  -0.0000000  -0.0000000  -0.0000000  -0.0000000
 NQMom=    0.0000000   0.0000000   0.0000000   0.0000000
 NMagM=    2.7928460   2.7928460   2.7928460   2.7928460
 AtZNuc=   1.0000000   1.0000000   1.0000000   1.0000000
 No MM parameters found.
 Leave Link  101 at Tue Apr 20 10:36:06 2021, MaxMem= 12079595520 cpu:               9.5 elap:               0.3
 (Enter /s/ls4/groups/g0130/bin/g16/l202.exe)
                          Input orientation:                          
 ---------------------------------------------------------------------
 Center     Atomic      Atomic             Coordinates (Angstroms)
 Number     Number       Type             X           Y           Z
 ---------------------------------------------------------------------
      1          6           0        0.075099    1.316829   -1.309209
      2          6           0       -1.208046    0.583151   -1.228941
      3          6           0       -1.043108   -0.402606   -0.094852
      4          6           0        0.401914   -0.278928    0.418760
      5          6           0        0.964538    0.911414   -0.371496
      6          6           0        2.774638    2.601659   -0.801653
      7          6           0        2.283580    1.486750   -0.085744
      8          6           0        3.107348    0.941064    0.920665
      9          6           0        4.365818    1.481502    1.196465
     10          6           0        4.836295    2.581238    0.474210
     11          6           0        4.030712    3.137941   -0.528754
     12          6           0        1.617415   -1.937943   -1.075700
     13          6           0        1.168133   -1.575306    0.201900
     14          6           0        1.391667   -2.452680    1.271810
     15          6           0        2.055549   -3.667755    1.074407
     16          6           0        2.501988   -4.020503   -0.203409
     17          6           0        2.279674   -3.151508   -1.278134
     18          6           0       -5.628650    1.231115    0.999553
     19          6           0       -6.247238    0.223065    0.252603
     20          6           0       -5.465145   -0.614585   -0.551294
     21          6           0       -4.079950   -0.447023   -0.606496
     22          6           0       -3.445338    0.563261    0.140276
     23          6           0       -4.242557    1.399442    0.941173
     24          6           0       -1.976422    0.771914    0.098416
     25          1           0        0.237246    2.129293   -2.013026
     26          1           0       -1.805013    0.374303   -2.115029
     27          1           0       -1.490283   -1.392605   -0.138268
     28          1           0        0.405394   -0.054634    1.495415
     29          1           0        2.161751    3.053181   -1.578340
     30          1           0        2.766162    0.076703    1.482435
     31          1           0        4.980725    1.037518    1.977338
     32          1           0        5.816629    3.002458    0.688098
     33          1           0        4.383866    3.996909   -1.096780
     34          1           0        1.454217   -1.253627   -1.905800
     35          1           0        1.044173   -2.176037    2.267130
     36          1           0        2.225768   -4.336234    1.916625
     37          1           0        3.021798   -4.963704   -0.360507
     38          1           0        2.627711   -3.418367   -2.274592
     39          1           0       -6.226024    1.888937    1.628487
     40          1           0       -7.326480    0.090860    0.295709
     41          1           0       -5.936058   -1.402344   -1.136878
     42          1           0       -3.484118   -1.106322   -1.234873
     43          1           0       -3.765269    2.187221    1.522757
     44          1           0       -1.610110    1.584982    0.725546
 ---------------------------------------------------------------------
                    Distance matrix (angstroms):
                    1          2          3          4          5
     1  C    0.000000
     2  C    1.480266   0.000000
     3  C    2.383590   1.511647   0.000000
     4  C    2.374684   2.459689   1.538565   0.000000
     5  C    1.354537   2.358620   2.415330   1.535566   0.000000
     6  C    3.032477   4.485390   4.909211   3.926450   2.513648
     7  C    2.530441   3.783496   3.825781   2.629223   1.467153
     8  C    3.782601   4.834411   4.479174   3.009927   2.502437
     9  C    4.971498   6.144720   5.871442   4.406413   3.788431
    10  C    5.239113   6.589926   6.617743   5.277060   4.300469
    11  C    4.424075   5.870417   6.202208   5.073554   3.792569
    12  C    3.609267   3.789806   3.224547   2.542279   3.006824
    13  C    3.441311   3.514608   2.520491   1.521419   2.560080
    14  C    4.754388   4.714714   3.463913   2.536237   3.768291
    15  C    5.869402   5.833238   4.650811   3.827339   4.924401
    16  C    5.966548   6.000809   5.066426   4.335526   5.168734
    17  C    4.982685   5.110214   4.471856   3.828465   4.365651
    18  C    6.153899   4.992773   4.989385   6.243817   6.741818
    19  C    6.603599   5.264797   5.253109   6.670144   7.271384
    20  C    5.916004   4.474000   4.450584   5.956178   6.610736
    21  C    4.568305   3.113925   3.079961   4.600707   5.229477
    22  C    3.881024   2.623095   2.599788   3.948188   4.453103
    23  C    4.869620   3.818898   3.815390   4.965980   5.392134
    24  C    2.546974   1.545286   1.512589   2.619804   2.981530
    25  H    1.087083   2.257037   3.424794   3.426402   2.169518
    26  H    2.252226   1.088641   2.294603   3.423058   3.316445
    27  H    3.341041   2.274387   1.087175   2.265163   3.374766
    28  H    3.139414   3.229871   2.179034   1.099775   2.175142
    29  H    2.727906   4.192692   4.941085   4.264785   2.734403
    30  H    4.070996   4.837600   4.150675   2.616781   2.716551
    31  H    5.911393   6.984809   6.531040   5.012754   4.654318
    32  H    6.308388   7.672949   7.698276   6.337127   5.388692
    33  H    5.078723   6.552915   7.057736   6.036190   4.662416
    34  H    2.977437   3.304472   3.200063   2.731475   2.698385
    35  H    5.092094   4.990804   3.616733   2.725434   4.062147
    36  H    6.854816   6.773922   5.495910   4.693802   5.862082
    37  H    7.002011   7.029463   6.115361   5.423851   6.224905
    38  H    5.465334   5.640795   5.226948   4.697275   5.013474
    39  H    6.975781   5.920310   5.923149   7.077616   7.527262
    40  H    7.672166   6.324725   6.314810   7.738215   8.358197
    41  H    6.599819   5.128817   5.101594   6.622082   7.318300
    42  H    4.306415   2.834582   2.784492   4.303525   4.960566
    43  H    4.850364   4.084638   4.090723   4.966499   5.252328
    44  H    2.655572   2.232788   2.223747   2.759805   2.878543
                    6          7          8          9         10
     6  C    0.000000
     7  C    1.413041   0.000000
     8  C    2.415502   1.410399   0.000000
     9  C    2.789100   2.445363   1.397099   0.000000
    10  C    2.424597   2.833338   2.424614   1.397291   0.000000
    11  C    1.392765   2.444414   2.789209   2.415050   1.401720
    12  C    4.692788   3.626612   3.807106   4.940553   5.760765
    13  C    4.586395   3.271567   3.257191   4.534140   5.550353
    14  C    5.635441   4.261170   3.818948   4.932447   6.151582
    15  C    6.583483   5.288372   4.729813   5.645094   6.866054
    16  C    6.654718   5.512839   5.123198   5.975414   7.034994
    17  C    5.794045   4.789076   4.718994   5.651585   6.517009
    18  C    8.702757   7.990407   8.741167   9.999543  10.564747
    19  C    9.389537   8.630541   9.405854  10.729002  11.333790
    20  C    8.848782   8.042083   8.835969  10.202749  10.834418
    21  C    7.504527   6.671220   7.477717   8.848778   9.478276
    22  C    6.612897   5.807274   6.609799   7.935545   8.530486
    23  C    7.329652   6.607016   7.364213   8.612551   9.167347
    24  C    5.170170   4.323485   5.152613   6.475587   7.058894
    25  H    2.851125   2.883533   4.272694   5.269305   5.248033
    26  H    5.259209   4.698099   5.802408   7.090207   7.462017
    27  H    5.880797   4.747156   5.263607   6.658522   7.496142
    28  H    4.236240   2.898881   2.936376   4.258409   5.255812
    29  H    1.087541   2.167116   3.405909   3.876549   3.404244
    30  H    3.404781   2.163402   1.085871   2.148055   3.402157
    31  H    3.877647   3.425304   2.152999   1.088575   2.159473
    32  H    3.410822   3.921561   3.412277   2.162544   1.088223
    33  H    2.150218   3.425535   3.877857   3.403905   2.162597
    34  H    4.222072   3.392656   3.941880   5.057905   5.639955
    35  H    5.936187   4.526385   3.973157   5.055417   6.342430
    36  H    7.471590   6.157920   5.442334   6.240553   7.533050
    37  H    7.582244   6.498370   6.042765   6.765444   7.804826
    38  H    6.199343   5.382347   5.426266   6.251237   6.959096
    39  H    9.350159   8.689863   9.408045  10.608477  11.143902
    40  H   10.466179   9.718399  10.487048  11.809110  12.416398
    41  H    9.592739   8.775774   9.565993  10.949416  11.597764
    42  H    7.287580   6.427352   7.230874   8.615667   9.260039
    43  H    6.953058   6.298135   7.010583   8.168175   8.674192
    44  H    4.753103   3.978526   4.765198   5.995347   6.527774
                   11         12         13         14         15
    11  C    0.000000
    12  C    5.646924   0.000000
    13  C    5.562635   1.402007   0.000000
    14  C    6.439071   2.413860   1.401591   0.000000
    15  C    7.265597   2.794132   2.434567   1.398612   0.000000
    16  C    7.327085   2.424958   2.814682   2.422221   1.398768
    17  C    6.571520   1.397249   2.431139   2.789109   2.418924
    18  C    9.963683   8.176494   7.396520   7.932800   9.113257
    19  C   10.711829   8.263601   7.630494   8.157895   9.205982
    20  C   10.210449   7.224191   6.744677   7.329268   8.278019
    21  C    8.867967   5.907873   5.428527   6.122849   7.130420
    22  C    7.935232   5.776339   5.085409   5.811444   7.002418
    23  C    8.580796   7.038835   6.218619   6.833202   8.084577
    24  C    6.486685   4.651617   3.925351   4.808210   6.076184
    25  H    4.196524   4.396119   4.415485   5.754764   6.815001
    26  H    6.649034   4.259073   4.243670   5.448052   6.435423
    27  H    7.152602   3.291498   2.686312   3.379010   4.384041
    28  H    5.237626   3.409763   2.137147   2.602568   3.994359
    29  H    2.145187   5.045817   5.057611   6.247471   7.226294
    30  H    3.874939   3.452894   2.631083   2.886412   3.833069
    31  H    3.405113   5.430126   4.951251   5.055748   5.613514
    32  H    2.165315   6.719520   6.542234   7.048371   7.667248
    33  H    1.088668   6.547990   6.563314   7.494042   8.299529
    34  H    5.274510   1.088112   2.151214   3.396887   3.882170
    35  H    6.706321   3.399972   2.154395   1.089930   2.161179
    36  H    8.068519   3.882770   3.417835   2.158539   1.088655
    37  H    8.165958   3.411601   3.903026   3.409842   2.161503
    38  H    6.928314   2.156315   3.414711   3.877798   3.406663
    39  H   10.555299   9.136585   8.289131   8.775311   9.988408
    40  H   11.787717   9.273083   8.656984   9.133918  10.136865
    41  H   10.969071   7.572685   7.231305   7.784634   8.595793
    42  H    8.659390   5.171321   4.891595   5.645300   6.525459
    43  H    8.117258   7.262385   6.343479   6.941587   8.268233
    44  H    5.983630   5.106115   4.240314   5.060809   6.414828
                   16         17         18         19         20
    16  C    0.000000
    17  C    1.399861   0.000000
    18  C    9.753660   9.323992   0.000000
    19  C    9.734720   9.297264   1.398839   0.000000
    20  C    8.671593   8.182084   2.416293   1.399849   0.000000
    21  C    7.500276   6.943353   2.791776   2.425739   1.396385
    22  C    7.516629   6.970449   2.439515   2.824711   2.438280
    23  C    8.727816   8.256874   1.397496   2.424198   2.788994
    24  C    6.566165   5.949998   3.789681   4.308698   3.809947
    25  H    6.798807   5.709504   6.655155   7.128486   6.494829
    26  H    6.443514   5.460440   5.005491   5.036061   4.101187
    27  H    4.779992   4.313422   5.030370   5.039027   4.071294
    28  H    4.796856   4.560277   6.189403   6.773419   6.242259
    29  H    7.214098   6.213066   8.405701   9.059415   8.525074
    30  H    4.438350   4.275366   8.487562   9.098092   8.506959
    31  H    6.040147   5.953295  10.656096  11.388819  10.873805
    32  H    7.816880   7.365285  11.585727  12.387557  11.912075
    33  H    8.283627   7.453884  10.596920  11.361475  10.888823
    34  H    3.413439   2.162705   8.048728   8.133371   7.079593
    35  H    3.410402   3.879034   7.598816   7.935911   7.263117
    36  H    2.161140   3.407781   9.671002   9.764630   8.893337
    37  H    1.088351   2.162600  10.726406  10.639243   9.538314
    38  H    2.160596   1.088702  10.025228   9.920255   8.736433
    39  H   10.698389  10.305408   1.088643   2.160702   3.405584
    40  H   10.665422  10.260026   2.162916   1.088164   2.163246
    41  H    8.884073   8.401058   3.404988   2.160890   1.088683
    42  H    6.737198   6.116040   3.880114   3.408033   2.152570
    43  H    8.988548   8.537467   2.158719   3.410479   3.878322
    44  H    7.013828   6.448216   4.043385   4.856073   4.618411
                   21         22         23         24         25
    21  C    0.000000
    22  C    1.407506   0.000000
    23  C    2.414779   1.405772   0.000000
    24  C    2.531312   1.484252   2.497880   0.000000
    25  H    5.220528   4.544293   5.415590   3.346788   0.000000
    26  H    2.850541   2.795133   4.041399   2.255396   2.694665
    27  H    2.796379   2.779432   4.066416   2.231030   4.347740
    28  H    4.968934   4.128721   4.901528   2.882331   4.136057
    29  H    7.221824   6.371248   7.077992   5.013997   2.178587
    30  H    7.176849   6.373450   7.152954   4.989081   4.777740
    31  H    9.538128   8.637029   9.288357   7.211296   6.294090
    32  H   10.560169   9.593427  10.189256   8.127404   6.260033
    33  H    9.572100   8.638096   9.236627   7.230653   4.639176
    34  H    5.741585   5.611876   6.899078   4.459706   3.596758
    35  H    6.124039   5.673004   6.518568   4.745285   6.124275
    36  H    7.826505   7.702072   8.699927   6.859844   7.823006
    37  H    8.419960   8.521852   9.744478   7.621687   7.797125
    38  H    7.523572   7.652900   8.986268   6.662406   6.046426
    39  H    3.880399   3.421170   2.155492   4.652739   7.422416
    40  H    3.412221   3.912874   3.411685   5.396840   8.166727
    41  H    2.153853   3.420293   3.877660   4.683169   7.165876
    42  H    1.088369   2.163341   3.404300   2.752921   4.992322
    43  H    3.401761   2.156584   1.089329   2.689203   5.340903
    44  H    3.464605   2.180486   2.647772   1.090209   3.347952
                   26         27         28         29         30
    26  H    0.000000
    27  H    2.669944   0.000000
    28  H    4.255019   2.837724   0.000000
    29  H    4.816601   5.930951   4.710762   0.000000
    30  H    5.824599   4.785694   2.364454   4.311970   0.000000
    31  H    7.951953   7.228778   4.728499   4.965114   2.464221
    32  H    8.535464   8.566821   6.267299   4.300866   4.300740
    33  H    7.243089   8.029398   6.242012   2.461771   4.963601
    34  H    3.649180   3.437086   3.755779   4.376806   3.869253
    35  H    5.815962   3.580946   2.346047   6.586452   2.942078
    36  H    7.395309   5.166873   4.671540   8.174493   4.467053
    37  H    7.407480   5.758559   5.864212   8.154339   5.372847
    38  H    5.835996   5.062160   5.519633   6.525551   5.133219
    39  H    5.987768   6.026374   6.911648   9.055053   9.174145
    40  H    6.031467   6.037401   7.825749  10.115036  10.162182
    41  H    4.602041   4.556560   6.997092   9.253168   9.207443
    42  H    2.405476   2.293442   4.867116   7.021059   6.917319
    43  H    4.512511   4.555185   4.735091   6.745092   6.864073
    44  H    3.093962   3.102670   2.709851   4.657300   4.690367
                   31         32         33         34         35
    31  H    0.000000
    32  H    2.494366   0.000000
    33  H    4.308647   2.495503   0.000000
    34  H    5.724017   6.623686   6.066753   0.000000
    35  H    5.089927   7.217097   7.782975   4.293288   0.000000
    36  H    6.039097   8.261959   9.120267   4.970784   2.487061
    37  H    6.731834   8.507079   9.093399   4.313920   4.311214
    38  H    6.593216   7.757173   7.710878   2.489818   4.967718
    39  H   11.244458  12.130531  11.155286   9.019590   8.353900
    40  H   12.457582  13.467468  12.422901   9.151772   8.893434
    41  H   11.611521  12.683000  11.647076   7.431657   7.804454
    42  H    9.304188  10.348129   9.379083   4.985879   5.823550
    43  H    8.832942   9.652670   8.749020   7.130040   6.536271
    44  H    6.730959   7.560893   6.713123   4.936779   4.854582
                   36         37         38         39         40
    36  H    0.000000
    37  H    2.492531   0.000000
    38  H    4.309332   2.491403   0.000000
    39  H   10.500885  11.680625  11.035856   0.000000
    40  H   10.652323  11.535427  10.863104   2.494069   0.000000
    41  H    9.194944   9.671050   8.871126   4.308579   2.493038
    42  H    7.277848   7.613858   6.616722   4.968748   4.305772
    43  H    8.865840  10.037264   9.311963   2.481022   4.310754
    44  H    7.154959   8.094404   7.210649   4.713211   5.924023
                   41         42         43         44
    41  H    0.000000
    42  H    2.471689   0.000000
    43  H    4.966986   4.304763   0.000000
    44  H    5.577326   3.820768   2.375488   0.000000
 Stoichiometry    C24H20
 Framework group  C1[X(C24H20)]
 Deg. of freedom   126
 Full point group                 C1      NOp   1
 Largest Abelian subgroup         C1      NOp   1
 Largest concise Abelian subgroup C1      NOp   1
                         Standard orientation:                         
 ---------------------------------------------------------------------
 Center     Atomic      Atomic             Coordinates (Angstroms)
 Number     Number       Type             X           Y           Z
 ---------------------------------------------------------------------
      1          6           0        0.058404   -1.296929    1.303942
      2          6           0       -1.224717   -0.563260    1.223217
      3          6           0       -1.058985    0.423271    0.089917
      4          6           0        0.386424    0.300011   -0.422705
      5          6           0        0.948519   -0.890838    0.367164
      6          6           0        2.758382   -2.581286    0.797523
      7          6           0        2.267801   -1.465917    0.082003
      8          6           0        3.092289   -0.919511   -0.923425
      9          6           0        4.350990   -1.459701   -1.198656
     10          6           0        4.820985   -2.559902   -0.476795
     11          6           0        4.014685   -3.117322    0.525194
     12          6           0        1.600733    1.958075    1.073778
     13          6           0        1.152418    1.596279   -0.204400
     14          6           0        1.376702    2.474386   -1.273551
     15          6           0        2.040378    3.689360   -1.074834
     16          6           0        2.485851    4.041267    0.203550
     17          6           0        2.262781    3.171535    1.277523
     18          6           0       -5.643633   -1.209933   -1.008995
     19          6           0       -6.262825   -0.202419   -0.261824
     20          6           0       -5.481371    0.634727    0.543219
     21          6           0       -4.096209    0.467195    0.599337
     22          6           0       -3.460993   -0.542554   -0.147646
     23          6           0       -4.257577   -1.378232   -0.949700
     24          6           0       -1.992098   -0.751164   -0.104837
     25          1           0        0.220069   -2.109862    2.007331
     26          1           0       -1.822352   -0.355040    2.109003
     27          1           0       -1.506241    1.413219    0.133670
     28          1           0        0.390713    0.076444   -1.499508
     29          1           0        2.144941   -3.033362    1.573450
     30          1           0        2.751477   -0.054786   -1.484865
     31          1           0        4.966455   -1.015160   -1.978772
     32          1           0        5.801498   -2.980929   -0.690240
     33          1           0        4.367459   -3.976656    1.092902
     34          1           0        1.436952    1.273190    1.903294
     35          1           0        1.029961    2.198399   -2.269316
     36          1           0        2.211189    4.358417   -1.916474
     37          1           0        3.005497    4.984386    0.361672
     38          1           0        2.610065    3.437737    2.274419
     39          1           0       -6.240509   -1.867359   -1.638817
     40          1           0       -7.342042   -0.070237   -0.305642
     41          1           0       -5.952757    1.422067    1.128986
     42          1           0       -3.500876    1.126098    1.228601
     43          1           0       -3.779818   -2.165594   -1.531461
     44          1           0       -1.625281   -1.563790   -0.732244
 ---------------------------------------------------------------------
 Rotational constants (GHZ):           0.3580516           0.1403945           0.1110859
 Leave Link  202 at Tue Apr 20 10:36:07 2021, MaxMem= 12079595520 cpu:               7.5 elap:               0.2
 (Enter /s/ls4/groups/g0130/bin/g16/l301.exe)
 Standard basis: def2QZVP (5D, 7F)
 Ernie: Thresh=  0.10000D-02 Tol=  0.10000D-05 Strict=F.
 There are  2428 symmetry adapted cartesian basis functions of A   symmetry.
 There are  1968 symmetry adapted basis functions of A   symmetry.
  1968 basis functions,  2968 primitive gaussians,  2428 cartesian basis functions
    82 alpha electrons       82 beta electrons
       nuclear repulsion energy      1809.8579993768 Hartrees.
 IExCor= 4336 DFT=T Ex+Corr=M062X ExCW=0 ScaHFX=  0.540000
 ScaDFX=  1.000000  1.000000  1.000000  1.000000 ScalE2=  1.000000  1.000000
 IRadAn=      5 IRanWt=     -1 IRanGd=            0 ICorTp=0 IEmpDi=  4
 NAtoms=   44 NActive=   44 NUniq=   44 SFac= 1.00D+00 NAtFMM=   60 NAOKFM=F Big=F
 Integral buffers will be    131072 words long.
 Raffenetti 2 integral format.
 Two-electron integral symmetry is turned on.
 Leave Link  301 at Tue Apr 20 10:36:08 2021, MaxMem= 12079595520 cpu:              11.0 elap:               0.4
 (Enter /s/ls4/groups/g0130/bin/g16/l302.exe)
 NPDir=0 NMtPBC=     1 NCelOv=     1 NCel=       1 NClECP=     1 NCelD=      1
         NCelK=      1 NCelE2=     1 NClLst=     1 CellRange=     0.0.
 One-electron integrals computed using PRISM.
 One-electron integral symmetry used in STVInt
   1 Symmetry operations used in ECPInt.
 ECPInt:  NShTT=  185136 NPrTT=  458502 LenC2=  137527 LenP2D=  247079.
 LDataN:  DoStor=T MaxTD1= 8 Len=  415
 NBasis=  1968 RedAO= T EigKep=  4.95D-06  NBF=  1968
 NBsUse=  1968 1.00D-06 EigRej= -1.00D+00 NBFU=  1968
 Precomputing XC quadrature grid using
 IXCGrd= 4 IRadAn=           5 IRanWt=          -1 IRanGd=           0 AccXCQ= 0.00D+00.
 Generated NRdTot=       0 NPtTot=           0 NUsed=           0 NTot=          32
 NSgBfM=  2300  2300  2300  2300  2300 MxSgAt=    44 MxSgA2=    44.
 Leave Link  302 at Tue Apr 20 10:36:21 2021, MaxMem= 12079595520 cpu:             604.5 elap:              12.7
 (Enter /s/ls4/groups/g0130/bin/g16/l303.exe)
 DipDrv:  MaxL=1.
 Leave Link  303 at Tue Apr 20 10:37:27 2021, MaxMem= 12079595520 cpu:            3121.1 elap:              66.5
 (Enter /s/ls4/groups/g0130/bin/g16/l401.exe)
 SCF N**3 symmetry information disabled.
 ExpMin= 7.60D-02 ExpMax= 6.70D+04 ExpMxC= 6.47D+02 IAcc=3 IRadAn=         5 AccDes= 0.00D+00
 Harris functional with IExCor= 1009 and IRadAn=       5 diagonalized for initial guess.
 HarFok:  IExCor= 1009 AccDes= 0.00D+00 IRadAn=         5 IDoV= 1 UseB2=F ITyADJ=14
 ICtDFT=  3500011 ScaDFX=  1.000000  1.000000  1.000000  1.000000
 FoFCou: FMM=F IPFlag=           0 FMFlag=      100000 FMFlg1=           0
         NFxFlg=           0 DoJE=T BraDBF=F KetDBF=T FulRan=T
         wScrn=  0.000000 ICntrl=       500 IOpCl=  0 I1Cent=   200000004 NGrid=           0
         NMat0=    1 NMatS0=      1 NMatT0=    0 NMatD0=    1 NMtDS0=    0 NMtDT0=    0
 Petite list used in FoFCou.
 Harris En= -926.182278350557    
 JPrj=0 DoOrth=F DoCkMO=F.
 Leave Link  401 at Tue Apr 20 10:38:08 2021, MaxMem= 12079595520 cpu:            1895.7 elap:              40.2
 (Enter /s/ls4/groups/g0130/bin/g16/l502.exe)
 Integral symmetry usage will be decided dynamically.
 Closed shell SCF:
 Using DIIS extrapolation, IDIIS=  1040.
 NGot= 12079595520 LenX= 12067669928 LenY= 12061772316
 Requested convergence on RMS density matrix=1.00D-08 within 128 cycles.
 Requested convergence on MAX density matrix=1.00D-06.
 Requested convergence on             energy=1.00D-06.
 No special actions if energy rises.
 Fock matrices will be formed incrementally for  20 cycles.
 Integral accuracy reduced to 1.0D-05 until final iterations.

 Cycle   1  Pass 0  IDiag  1:
 FoFJK:  IHMeth= 1 ICntrl=       0 DoSepK=F KAlg= 0 I1Cent=           0 FoldK=F
 IRaf= 660000000 NMat=       1 IRICut=       1 DoRegI=T DoRafI=F ISym2E= 0 IDoP0=0 IntGTp=1.
 FoFCou: FMM=F IPFlag=           0 FMFlag=      100000 FMFlg1=           0
         NFxFlg=           0 DoJE=F BraDBF=F KetDBF=F FulRan=T
         wScrn=  0.000000 ICntrl=         0 IOpCl=  0 I1Cent=           0 NGrid=           0
         NMat0=    1 NMatS0=      1 NMatT0=    0 NMatD0=    1 NMtDS0=    0 NMtDT0=    0
 Symmetry not used in FoFCou.
 E= -925.983156321591    
 DIIS: error= 1.74D-02 at cycle   1 NSaved=   1.
 NSaved= 1 IEnMin= 1 EnMin= -925.983156321591     IErMin= 1 ErrMin= 1.74D-02
 ErrMax= 1.74D-02  0.00D+00 EMaxC= 1.00D-01 BMatC= 1.01D+00 BMatP= 1.01D+00
 IDIUse=3 WtCom= 8.26D-01 WtEn= 1.74D-01
 Coeff-Com:  0.100D+01
 Coeff-En:   0.100D+01
 Coeff:      0.100D+01
 Gap=     0.239 Goal=   None    Shift=    0.000
 GapD=    0.239 DampG=1.000 DampE=0.500 DampFc=0.5000 IDamp=-1.
 Damping current iteration by 5.00D-01
 RMSDP=9.95D+01 MaxDP=1.05D+04              OVMax= 1.00D+00

 Problem detected with inexpensive integrals.
 Switching to full accuracy and repeating last cycle.
 Cycle   2  Pass 1  IDiag  1:
 E= -925.983171712034     Delta-E=       -0.000015390443 Rises=F Damp=F
 DIIS: error= 1.74D-02 at cycle   1 NSaved=   1.
 NSaved= 1 IEnMin= 1 EnMin= -925.983171712034     IErMin= 1 ErrMin= 1.74D-02
 ErrMax= 1.74D-02  0.00D+00 EMaxC= 1.00D-01 BMatC= 1.01D+00 BMatP= 1.01D+00
 IDIUse=3 WtCom= 8.26D-01 WtEn= 1.74D-01
 Coeff-Com:  0.100D+01
 Coeff-En:   0.100D+01
 Coeff:      0.100D+01
 Gap=     0.239 Goal=   None    Shift=    0.000
 GapD=    0.239 DampG=1.000 DampE=0.500 DampFc=0.5000 IDamp=-1.
 Damping current iteration by 5.00D-01
 RMSDP=9.09D-04 MaxDP=1.18D-01 DE=-1.54D-05 OVMax= 1.51D-01

 Cycle   3  Pass 1  IDiag  1:
 RMSU=  4.26D-04    CP:  9.26D-01
 E= -926.292340910521     Delta-E=       -0.309169198487 Rises=F Damp=T
 DIIS: error= 8.92D-03 at cycle   2 NSaved=   2.
 NSaved= 2 IEnMin= 2 EnMin= -926.292340910521     IErMin= 2 ErrMin= 8.92D-03
 ErrMax= 8.92D-03  0.00D+00 EMaxC= 1.00D-01 BMatC= 1.37D-01 BMatP= 1.01D+00
 IDIUse=3 WtCom= 9.11D-01 WtEn= 8.92D-02
 Coeff-Com: -0.312D+00 0.131D+01
 Coeff-En:   0.000D+00 0.100D+01
 Coeff:     -0.284D+00 0.128D+01
 Gap=     0.316 Goal=   None    Shift=    0.000
 GapD=    0.316 DampG=1.000 DampE=1.000 DampFc=1.0000 IDamp=-1.
 RMSDP=6.35D-04 MaxDP=6.93D-02 DE=-3.09D-01 OVMax= 8.04D-02

 Cycle   4  Pass 1  IDiag  1:
 RMSU=  5.99D-04    CP:  8.79D-01  1.43D+00
 E= -926.560736963625     Delta-E=       -0.268396053104 Rises=F Damp=F
 DIIS: error= 4.40D-03 at cycle   3 NSaved=   3.
 NSaved= 3 IEnMin= 3 EnMin= -926.560736963625     IErMin= 3 ErrMin= 4.40D-03
 ErrMax= 4.40D-03  0.00D+00 EMaxC= 1.00D-01 BMatC= 2.15D-02 BMatP= 1.37D-01
 IDIUse=3 WtCom= 9.56D-01 WtEn= 4.40D-02
 Coeff-Com: -0.179D+00 0.431D+00 0.748D+00
 Coeff-En:   0.000D+00 0.000D+00 0.100D+01
 Coeff:     -0.171D+00 0.412D+00 0.759D+00
 Gap=     0.240 Goal=   None    Shift=    0.000
 RMSDP=8.97D-05 MaxDP=1.06D-02 DE=-2.68D-01 OVMax= 1.93D-02

 Cycle   5  Pass 1  IDiag  1:
 RMSU=  6.60D-05    CP:  8.66D-01  1.52D+00  9.32D-01
 E= -926.580238045837     Delta-E=       -0.019501082212 Rises=F Damp=F
 DIIS: error= 7.01D-04 at cycle   4 NSaved=   4.
 NSaved= 4 IEnMin= 4 EnMin= -926.580238045837     IErMin= 4 ErrMin= 7.01D-04
 ErrMax= 7.01D-04  0.00D+00 EMaxC= 1.00D-01 BMatC= 1.24D-03 BMatP= 2.15D-02
 IDIUse=3 WtCom= 9.93D-01 WtEn= 7.01D-03
 Coeff-Com: -0.589D-01 0.131D+00 0.299D+00 0.629D+00
 Coeff-En:   0.000D+00 0.000D+00 0.000D+00 0.100D+01
 Coeff:     -0.585D-01 0.130D+00 0.297D+00 0.632D+00
 Gap=     0.240 Goal=   None    Shift=    0.000
 RMSDP=3.02D-05 MaxDP=9.17D-03 DE=-1.95D-02 OVMax= 9.71D-03

 Cycle   6  Pass 1  IDiag  1:
 RMSU=  2.62D-05    CP:  8.64D-01  1.51D+00  9.09D-01  9.55D-01
 E= -926.581199553305     Delta-E=       -0.000961507468 Rises=F Damp=F
 DIIS: error= 3.65D-04 at cycle   5 NSaved=   5.
 NSaved= 5 IEnMin= 5 EnMin= -926.581199553305     IErMin= 5 ErrMin= 3.65D-04
 ErrMax= 3.65D-04  0.00D+00 EMaxC= 1.00D-01 BMatC= 2.38D-04 BMatP= 1.24D-03
 IDIUse=3 WtCom= 9.96D-01 WtEn= 3.65D-03
 Coeff-Com: -0.169D-01 0.362D-01 0.960D-01 0.346D+00 0.539D+00
 Coeff-En:   0.000D+00 0.000D+00 0.000D+00 0.139D+00 0.861D+00
 Coeff:     -0.169D-01 0.361D-01 0.956D-01 0.345D+00 0.540D+00
 Gap=     0.240 Goal=   None    Shift=    0.000
 RMSDP=1.03D-05 MaxDP=3.09D-03 DE=-9.62D-04 OVMax= 4.14D-03

 Cycle   7  Pass 1  IDiag  1:
 RMSU=  7.88D-06    CP:  8.63D-01  1.50D+00  9.03D-01  1.02D+00  1.07D+00
 E= -926.581442483761     Delta-E=       -0.000242930455 Rises=F Damp=F
 DIIS: error= 7.72D-05 at cycle   6 NSaved=   6.
 NSaved= 6 IEnMin= 6 EnMin= -926.581442483761     IErMin= 6 ErrMin= 7.72D-05
 ErrMax= 7.72D-05  0.00D+00 EMaxC= 1.00D-01 BMatC= 9.32D-06 BMatP= 2.38D-04
 IDIUse=1 WtCom= 1.00D+00 WtEn= 0.00D+00
 Coeff-Com: -0.133D-02 0.266D-02 0.113D-01 0.834D-01 0.211D+00 0.693D+00
 Coeff:     -0.133D-02 0.266D-02 0.113D-01 0.834D-01 0.211D+00 0.693D+00
 Gap=     0.240 Goal=   None    Shift=    0.000
 RMSDP=3.83D-06 MaxDP=1.24D-03 DE=-2.43D-04 OVMax= 9.94D-04

 Cycle   8  Pass 1  IDiag  1:
 RMSU=  1.88D-06    CP:  8.63D-01  1.50D+00  9.01D-01  1.05D+00  1.15D+00
                    CP:  1.11D+00
 E= -926.581449606795     Delta-E=       -0.000007123034 Rises=F Damp=F
 DIIS: error= 3.71D-05 at cycle   7 NSaved=   7.
 NSaved= 7 IEnMin= 7 EnMin= -926.581449606795     IErMin= 7 ErrMin= 3.71D-05
 ErrMax= 3.71D-05  0.00D+00 EMaxC= 1.00D-01 BMatC= 2.35D-06 BMatP= 9.32D-06
 IDIUse=1 WtCom= 1.00D+00 WtEn= 0.00D+00
 Coeff-Com:  0.217D-02-0.470D-02-0.103D-01-0.130D-01 0.249D-01 0.372D+00
 Coeff-Com:  0.629D+00
 Coeff:      0.217D-02-0.470D-02-0.103D-01-0.130D-01 0.249D-01 0.372D+00
 Coeff:      0.629D+00
 Gap=     0.240 Goal=   None    Shift=    0.000
 RMSDP=1.22D-06 MaxDP=2.37D-04 DE=-7.12D-06 OVMax= 4.46D-04

 Cycle   9  Pass 1  IDiag  1:
 RMSU=  7.57D-07    CP:  8.63D-01  1.50D+00  9.00D-01  1.05D+00  1.18D+00
                    CP:  1.16D+00  9.30D-01
 E= -926.581451825529     Delta-E=       -0.000002218734 Rises=F Damp=F
 DIIS: error= 9.69D-06 at cycle   8 NSaved=   8.
 NSaved= 8 IEnMin= 8 EnMin= -926.581451825529     IErMin= 8 ErrMin= 9.69D-06
 ErrMax= 9.69D-06  0.00D+00 EMaxC= 1.00D-01 BMatC= 1.67D-07 BMatP= 2.35D-06
 IDIUse=1 WtCom= 1.00D+00 WtEn= 0.00D+00
 Coeff-Com:  0.976D-03-0.214D-02-0.507D-02-0.105D-01-0.179D-02 0.117D+00
 Coeff-Com:  0.287D+00 0.614D+00
 Coeff:      0.976D-03-0.214D-02-0.507D-02-0.105D-01-0.179D-02 0.117D+00
 Coeff:      0.287D+00 0.614D+00
 Gap=     0.240 Goal=   None    Shift=    0.000
 RMSDP=3.22D-07 MaxDP=1.32D-04 DE=-2.22D-06 OVMax= 1.22D-04

 Cycle  10  Pass 1  IDiag  1:
 RMSU=  2.62D-07    CP:  8.63D-01  1.50D+00  9.00D-01  1.05D+00  1.18D+00
                    CP:  1.15D+00  9.70D-01  1.04D+00
 E= -926.581451988995     Delta-E=       -0.000000163466 Rises=F Damp=F
 DIIS: error= 2.62D-06 at cycle   9 NSaved=   9.
 NSaved= 9 IEnMin= 9 EnMin= -926.581451988995     IErMin= 9 ErrMin= 2.62D-06
 ErrMax= 2.62D-06  0.00D+00 EMaxC= 1.00D-01 BMatC= 2.23D-08 BMatP= 1.67D-07
 IDIUse=1 WtCom= 1.00D+00 WtEn= 0.00D+00
 Coeff-Com:  0.120D-04-0.539D-04-0.283D-03-0.173D-02-0.383D-02-0.902D-02
 Coeff-Com:  0.191D-01 0.280D+00 0.716D+00
 Coeff:      0.120D-04-0.539D-04-0.283D-03-0.173D-02-0.383D-02-0.902D-02
 Coeff:      0.191D-01 0.280D+00 0.716D+00
 Gap=     0.240 Goal=   None    Shift=    0.000
 RMSDP=2.13D-07 MaxDP=1.01D-04 DE=-1.63D-07 OVMax= 4.17D-05

 Cycle  11  Pass 1  IDiag  1:
 RMSU=  1.09D-07    CP:  8.63D-01  1.50D+00  9.00D-01  1.05D+00  1.17D+00
                    CP:  1.15D+00  9.70D-01  1.13D+00  1.18D+00
 E= -926.581452012883     Delta-E=       -0.000000023888 Rises=F Damp=F
 DIIS: error= 6.92D-07 at cycle  10 NSaved=  10.
 NSaved=10 IEnMin=10 EnMin= -926.581452012883     IErMin=10 ErrMin= 6.92D-07
 ErrMax= 6.92D-07  0.00D+00 EMaxC= 1.00D-01 BMatC= 1.06D-09 BMatP= 2.23D-08
 IDIUse=1 WtCom= 1.00D+00 WtEn= 0.00D+00
 Coeff-Com: -0.534D-04 0.106D-03 0.192D-03 0.869D-06-0.135D-02-0.991D-02
 Coeff-Com: -0.125D-01 0.548D-01 0.231D+00 0.738D+00
 Coeff:     -0.534D-04 0.106D-03 0.192D-03 0.869D-06-0.135D-02-0.991D-02
 Coeff:     -0.125D-01 0.548D-01 0.231D+00 0.738D+00
 Gap=     0.240 Goal=   None    Shift=    0.000
 RMSDP=3.96D-08 MaxDP=1.31D-05 DE=-2.39D-08 OVMax= 1.12D-05

 Cycle  12  Pass 1  IDiag  1:
 RMSU=  2.39D-08    CP:  8.63D-01  1.50D+00  9.00D-01  1.05D+00  1.17D+00
                    CP:  1.15D+00  9.69D-01  1.15D+00  1.25D+00  1.11D+00
 E= -926.581452014000     Delta-E=       -0.000000001117 Rises=F Damp=F
 DIIS: error= 3.98D-07 at cycle  11 NSaved=  11.
 NSaved=11 IEnMin=11 EnMin= -926.581452014000     IErMin=11 ErrMin= 3.98D-07
 ErrMax= 3.98D-07  0.00D+00 EMaxC= 1.00D-01 BMatC= 2.48D-10 BMatP= 1.06D-09
 IDIUse=1 WtCom= 1.00D+00 WtEn= 0.00D+00
 Coeff-Com: -0.213D-04 0.459D-04 0.974D-04 0.144D-03-0.247D-03-0.312D-02
 Coeff-Com: -0.793D-02-0.911D-02 0.126D-01 0.342D+00 0.665D+00
 Coeff:     -0.213D-04 0.459D-04 0.974D-04 0.144D-03-0.247D-03-0.312D-02
 Coeff:     -0.793D-02-0.911D-02 0.126D-01 0.342D+00 0.665D+00
 Gap=     0.240 Goal=   None    Shift=    0.000
 RMSDP=1.31D-08 MaxDP=1.69D-06 DE=-1.12D-09 OVMax= 6.60D-06

 Cycle  13  Pass 1  IDiag  1:
 RMSU=  9.52D-09    CP:  8.63D-01  1.50D+00  9.00D-01  1.05D+00  1.17D+00
                    CP:  1.15D+00  9.69D-01  1.16D+00  1.27D+00  1.16D+00
                    CP:  1.13D+00
 E= -926.581452014292     Delta-E=       -0.000000000292 Rises=F Damp=F
 DIIS: error= 1.26D-07 at cycle  12 NSaved=  12.
 NSaved=12 IEnMin=12 EnMin= -926.581452014292     IErMin=12 ErrMin= 1.26D-07
 ErrMax= 1.26D-07  0.00D+00 EMaxC= 1.00D-01 BMatC= 2.07D-11 BMatP= 2.48D-10
 IDIUse=1 WtCom= 1.00D+00 WtEn= 0.00D+00
 Coeff-Com: -0.172D-05 0.485D-05 0.119D-04 0.314D-04-0.318D-05-0.233D-03
 Coeff-Com: -0.181D-02-0.779D-02-0.169D-01 0.544D-01 0.257D+00 0.715D+00
 Coeff:     -0.172D-05 0.485D-05 0.119D-04 0.314D-04-0.318D-05-0.233D-03
 Coeff:     -0.181D-02-0.779D-02-0.169D-01 0.544D-01 0.257D+00 0.715D+00
 Gap=     0.240 Goal=   None    Shift=    0.000
 RMSDP=4.94D-09 MaxDP=8.11D-07 DE=-2.92D-10 OVMax= 2.22D-06

 SCF Done:  E(RM062X) =  -926.581452014     A.U. after   13 cycles
            NFock= 13  Conv=0.49D-08     -V/T= 2.0053
 KE= 9.217047591776D+02 PE=-5.767328020557D+03 EE= 2.109183809988D+03
 Leave Link  502 at Tue Apr 20 12:42:55 2021, MaxMem= 12079595520 cpu:          359550.0 elap:            7487.6
 (Enter /s/ls4/groups/g0130/bin/g16/l601.exe)
 Copying SCF densities to generalized density rwf, IOpCl= 0 IROHF=0.

 **********************************************************************

            Population analysis using the SCF density.

 **********************************************************************

 Orbital symmetries:
       Occupied  (A) (A) (A) (A) (A) (A) (A) (A) (A) (A) (A) (A)
                 (A) (A) (A) (A) (A) (A) (A) (A) (A) (A) (A) (A)
                 (A) (A) (A) (A) (A) (A) (A) (A) (A) (A) (A) (A)
                 (A) (A) (A) (A) (A) (A) (A) (A) (A) (A) (A) (A)
                 (A) (A) (A) (A) (A) (A) (A) (A) (A) (A) (A) (A)
                 (A) (A) (A) (A) (A) (A) (A) (A) (A) (A) (A) (A)
                 (A) (A) (A) (A) (A) (A) (A) (A) (A) (A)
       Virtual   (A) (A) (A) (A) (A) (A) (A) (A) (A) (A) (A) (A)
                 (A) (A) (A) (A) (A) (A) (A) (A) (A) (A) (A) (A)
                 (A) (A) (A) (A) (A) (A) (A) (A) (A) (A) (A) (A)
                 (A) (A) (A) (A) (A) (A) (A) (A) (A) (A) (A) (A)
                 (A) (A) (A) (A) (A) (A) (A) (A) (A) (A) (A) (A)
                 (A) (A) (A) (A) (A) (A) (A) (A) (A) (A) (A) (A)
                 (A) (A) (A) (A) (A) (A) (A) (A) (A) (A) (A) (A)
                 (A) (A) (A) (A) (A) (A) (A) (A) (A) (A) (A) (A)
                 (A) (A) (A) (A) (A) (A) (A) (A) (A) (A) (A) (A)
                 (A) (A) (A) (A) (A) (A) (A) (A) (A) (A) (A) (A)
                 (A) (A) (A) (A) (A) (A) (A) (A) (A) (A) (A) (A)
                 (A) (A) (A) (A) (A) (A) (A) (A) (A) (A) (A) (A)
                 (A) (A) (A) (A) (A) (A) (A) (A) (A) (A) (A) (A)
                 (A) (A) (A) (A) (A) (A) (A) (A) (A) (A) (A) (A)
                 (A) (A) (A) (A) (A) (A) (A) (A) (A) (A) (A) (A)
                 (A) (A) (A) (A) (A) (A) (A) (A) (A) (A) (A) (A)
                 (A) (A) (A) (A) (A) (A) (A) (A) (A) (A) (A) (A)
                 (A) (A) (A) (A) (A) (A) (A) (A) (A) (A) (A) (A)
                 (A) (A) (A) (A) (A) (A) (A) (A) (A) (A) (A) (A)
                 (A) (A) (A) (A) (A) (A) (A) (A) (A) (A) (A) (A)
                 (A) (A) (A) (A) (A) (A) (A) (A) (A) (A) (A) (A)
                 (A) (A) (A) (A) (A) (A) (A) (A) (A) (A) (A) (A)
                 (A) (A) (A) (A) (A) (A) (A) (A) (A) (A) (A) (A)
                 (A) (A) (A) (A) (A) (A) (A) (A) (A) (A) (A) (A)
                 (A) (A) (A) (A) (A) (A) (A) (A) (A) (A) (A) (A)
                 (A) (A) (A) (A) (A) (A) (A) (A) (A) (A) (A) (A)
                 (A) (A) (A) (A) (A) (A) (A) (A) (A) (A) (A) (A)
                 (A) (A) (A) (A) (A) (A) (A) (A) (A) (A) (A) (A)
                 (A) (A) (A) (A) (A) (A) (A) (A) (A) (A) (A) (A)
                 (A) (A) (A) (A) (A) (A) (A) (A) (A) (A) (A) (A)
                 (A) (A) (A) (A) (A) (A) (A) (A) (A) (A) (A) (A)
                 (A) (A) (A) (A) (A) (A) (A) (A) (A) (A) (A) (A)
                 (A) (A) (A) (A) (A) (A) (A) (A) (A) (A) (A) (A)
                 (A) (A) (A) (A) (A) (A) (A) (A) (A) (A) (A) (A)
                 (A) (A) (A) (A) (A) (A) (A) (A) (A) (A) (A) (A)
                 (A) (A) (A) (A) (A) (A) (A) (A) (A) (A) (A) (A)
                 (A) (A) (A) (A) (A) (A) (A) (A) (A) (A) (A) (A)
                 (A) (A) (A) (A) (A) (A) (A) (A) (A) (A) (A) (A)
                 (A) (A) (A) (A) (A) (A) (A) (A) (A) (A) (A) (A)
                 (A) (A) (A) (A) (A) (A) (A) (A) (A) (A) (A) (A)
                 (A) (A) (A) (A) (A) (A) (A) (A) (A) (A) (A) (A)
                 (A) (A) (A) (A) (A) (A) (A) (A) (A) (A) (A) (A)
                 (A) (A) (A) (A) (A) (A) (A) (A) (A) (A) (A) (A)
                 (A) (A) (A) (A) (A) (A) (A) (A) (A) (A) (A) (A)
                 (A) (A) (A) (A) (A) (A) (A) (A) (A) (A) (A) (A)
                 (A) (A) (A) (A) (A) (A) (A) (A) (A) (A) (A) (A)
                 (A) (A) (A) (A) (A) (A) (A) (A) (A) (A) (A) (A)
                 (A) (A) (A) (A) (A) (A) (A) (A) (A) (A) (A) (A)
                 (A) (A) (A) (A) (A) (A) (A) (A) (A) (A) (A) (A)
                 (A) (A) (A) (A) (A) (A) (A) (A) (A) (A) (A) (A)
                 (A) (A) (A) (A) (A) (A) (A) (A) (A) (A) (A) (A)
                 (A) (A) (A) (A) (A) (A) (A) (A) (A) (A) (A) (A)
                 (A) (A) (A) (A) (A) (A) (A) (A) (A) (A) (A) (A)
                 (A) (A) (A) (A) (A) (A) (A) (A) (A) (A) (A) (A)
                 (A) (A) (A) (A) (A) (A) (A) (A) (A) (A) (A) (A)
                 (A) (A) (A) (A) (A) (A) (A) (A) (A) (A) (A) (A)
                 (A) (A) (A) (A) (A) (A) (A) (A) (A) (A) (A) (A)
                 (A) (A) (A) (A) (A) (A) (A) (A) (A) (A) (A) (A)
                 (A) (A) (A) (A) (A) (A) (A) (A) (A) (A) (A) (A)
                 (A) (A) (A) (A) (A) (A) (A) (A) (A) (A) (A) (A)
                 (A) (A) (A) (A) (A) (A) (A) (A) (A) (A) (A) (A)
                 (A) (A) (A) (A) (A) (A) (A) (A) (A) (A) (A) (A)
                 (A) (A) (A) (A) (A) (A) (A) (A) (A) (A) (A) (A)
                 (A) (A) (A) (A) (A) (A) (A) (A) (A) (A) (A) (A)
                 (A) (A) (A) (A) (A) (A) (A) (A) (A) (A) (A) (A)
                 (A) (A) (A) (A) (A) (A) (A) (A) (A) (A) (A) (A)
                 (A) (A) (A) (A) (A) (A) (A) (A) (A) (A) (A) (A)
                 (A) (A) (A) (A) (A) (A) (A) (A) (A) (A) (A) (A)
                 (A) (A) (A) (A) (A) (A) (A) (A) (A) (A) (A) (A)
                 (A) (A) (A) (A) (A) (A) (A) (A) (A) (A) (A) (A)
                 (A) (A) (A) (A) (A) (A) (A) (A) (A) (A) (A) (A)
                 (A) (A) (A) (A) (A) (A) (A) (A) (A) (A) (A) (A)
                 (A) (A) (A) (A) (A) (A) (A) (A) (A) (A) (A) (A)
                 (A) (A) (A) (A) (A) (A) (A) (A) (A) (A) (A) (A)
                 (A) (A) (A) (A) (A) (A) (A) (A) (A) (A) (A) (A)
                 (A) (A) (A) (A) (A) (A) (A) (A) (A) (A) (A) (A)
                 (A) (A) (A) (A) (A) (A) (A) (A) (A) (A) (A) (A)
                 (A) (A) (A) (A) (A) (A) (A) (A) (A) (A) (A) (A)
                 (A) (A) (A) (A) (A) (A) (A) (A) (A) (A) (A) (A)
                 (A) (A) (A) (A) (A) (A) (A) (A) (A) (A) (A) (A)
                 (A) (A) (A) (A) (A) (A) (A) (A) (A) (A) (A) (A)
                 (A) (A) (A) (A) (A) (A) (A) (A) (A) (A) (A) (A)
                 (A) (A) (A) (A) (A) (A) (A) (A) (A) (A) (A) (A)
                 (A) (A) (A) (A) (A) (A) (A) (A) (A) (A) (A) (A)
                 (A) (A) (A) (A) (A) (A) (A) (A) (A) (A) (A) (A)
                 (A) (A) (A) (A) (A) (A) (A) (A) (A) (A) (A) (A)
                 (A) (A) (A) (A) (A) (A) (A) (A) (A) (A) (A) (A)
                 (A) (A) (A) (A) (A) (A) (A) (A) (A) (A) (A) (A)
                 (A) (A) (A) (A) (A) (A) (A) (A) (A) (A) (A) (A)
                 (A) (A) (A) (A) (A) (A) (A) (A) (A) (A) (A) (A)
                 (A) (A) (A) (A) (A) (A) (A) (A) (A) (A) (A) (A)
                 (A) (A) (A) (A) (A) (A) (A) (A) (A) (A) (A) (A)
                 (A) (A) (A) (A) (A) (A) (A) (A) (A) (A) (A) (A)
                 (A) (A) (A) (A) (A) (A) (A) (A) (A) (A) (A) (A)
                 (A) (A) (A) (A) (A) (A) (A) (A) (A) (A) (A) (A)
                 (A) (A) (A) (A) (A) (A) (A) (A) (A) (A) (A) (A)
                 (A) (A) (A) (A) (A) (A) (A) (A) (A) (A) (A) (A)
                 (A) (A) (A) (A) (A) (A) (A) (A) (A) (A) (A) (A)
                 (A) (A) (A) (A) (A) (A) (A) (A) (A) (A) (A) (A)
                 (A) (A) (A) (A) (A) (A) (A) (A) (A) (A) (A) (A)
                 (A) (A) (A) (A) (A) (A) (A) (A) (A) (A) (A) (A)
                 (A) (A) (A) (A) (A) (A) (A) (A) (A) (A) (A) (A)
                 (A) (A) (A) (A) (A) (A) (A) (A) (A) (A) (A) (A)
                 (A) (A) (A) (A) (A) (A) (A) (A) (A) (A) (A) (A)
                 (A) (A) (A) (A) (A) (A) (A) (A) (A) (A) (A) (A)
                 (A) (A) (A) (A) (A) (A) (A) (A) (A) (A) (A) (A)
                 (A) (A) (A) (A) (A) (A) (A) (A) (A) (A) (A) (A)
                 (A) (A) (A) (A) (A) (A) (A) (A) (A) (A) (A) (A)
                 (A) (A) (A) (A) (A) (A) (A) (A) (A) (A) (A) (A)
                 (A) (A) (A) (A) (A) (A) (A) (A) (A) (A) (A) (A)
                 (A) (A) (A) (A) (A) (A) (A) (A) (A) (A) (A) (A)
                 (A) (A) (A) (A) (A) (A) (A) (A) (A) (A) (A) (A)
                 (A) (A) (A) (A) (A) (A) (A) (A) (A) (A) (A) (A)
                 (A) (A) (A) (A) (A) (A) (A) (A) (A) (A) (A) (A)
                 (A) (A) (A) (A) (A) (A) (A) (A) (A) (A) (A) (A)
                 (A) (A) (A) (A) (A) (A) (A) (A) (A) (A) (A) (A)
                 (A) (A) (A) (A) (A) (A) (A) (A) (A) (A) (A) (A)
                 (A) (A) (A) (A) (A) (A) (A) (A) (A) (A) (A) (A)
                 (A) (A) (A) (A) (A) (A) (A) (A) (A) (A) (A) (A)
                 (A) (A) (A) (A) (A) (A) (A) (A) (A) (A) (A) (A)
                 (A) (A) (A) (A) (A) (A) (A) (A) (A) (A) (A) (A)
                 (A) (A) (A) (A) (A) (A) (A) (A) (A) (A) (A) (A)
                 (A) (A) (A) (A) (A) (A) (A) (A) (A) (A) (A) (A)
                 (A) (A) (A) (A) (A) (A) (A) (A) (A) (A) (A) (A)
                 (A) (A) (A) (A) (A) (A) (A) (A) (A) (A) (A) (A)
                 (A) (A) (A) (A) (A) (A) (A) (A) (A) (A) (A) (A)
                 (A) (A) (A) (A) (A) (A) (A) (A) (A) (A) (A) (A)
                 (A) (A) (A) (A) (A) (A) (A) (A) (A) (A) (A) (A)
                 (A) (A) (A) (A) (A) (A) (A) (A) (A) (A) (A) (A)
                 (A) (A) (A) (A) (A) (A) (A) (A) (A) (A) (A) (A)
                 (A) (A) (A) (A) (A) (A) (A) (A) (A) (A) (A) (A)
                 (A) (A) (A) (A) (A) (A) (A) (A) (A) (A) (A) (A)
                 (A) (A) (A) (A) (A) (A) (A) (A) (A) (A) (A) (A)
                 (A) (A) (A) (A) (A) (A) (A) (A) (A) (A) (A) (A)
                 (A) (A) (A) (A) (A) (A) (A) (A) (A) (A) (A) (A)
                 (A) (A) (A) (A) (A) (A) (A) (A) (A) (A) (A) (A)
                 (A) (A) (A) (A) (A) (A) (A) (A) (A) (A) (A) (A)
                 (A) (A) (A) (A) (A) (A) (A) (A) (A) (A) (A) (A)
                 (A) (A) (A) (A) (A) (A) (A) (A) (A) (A) (A) (A)
                 (A) (A) (A) (A) (A) (A) (A) (A) (A) (A) (A) (A)
                 (A) (A) (A) (A) (A) (A) (A) (A) (A) (A) (A) (A)
                 (A) (A) (A) (A) (A) (A) (A) (A) (A) (A) (A) (A)
                 (A) (A) (A) (A) (A) (A) (A) (A) (A) (A) (A) (A)
                 (A) (A) (A) (A) (A) (A) (A) (A) (A) (A) (A) (A)
                 (A) (A) (A) (A) (A) (A) (A) (A) (A) (A) (A) (A)
                 (A) (A) (A) (A) (A) (A) (A) (A) (A) (A) (A) (A)
                 (A) (A) (A) (A) (A) (A) (A) (A) (A) (A) (A) (A)
                 (A) (A) (A) (A) (A) (A) (A) (A) (A) (A) (A) (A)
                 (A) (A) (A) (A) (A) (A) (A) (A) (A) (A) (A) (A)
                 (A) (A) (A) (A) (A) (A) (A) (A) (A) (A) (A) (A)
                 (A) (A) (A) (A) (A) (A) (A) (A) (A) (A) (A) (A)
                 (A) (A) (A) (A) (A) (A) (A) (A) (A) (A) (A) (A)
                 (A) (A) (A) (A) (A) (A) (A) (A) (A) (A) (A) (A)
                 (A) (A) (A) (A) (A) (A) (A) (A) (A) (A) (A) (A)
                 (A) (A) (A) (A) (A) (A) (A) (A) (A) (A) (A) (A)
                 (A) (A) (A) (A) (A) (A) (A) (A) (A) (A) (A) (A)
                 (A) (A) (A) (A) (A) (A) (A) (A) (A) (A) (A) (A)
                 (A) (A)
 The electronic state is 1-A.
 Alpha  occ. eigenvalues --  -10.56352 -10.56117 -10.56061 -10.56027 -10.55981
 Alpha  occ. eigenvalues --  -10.55820 -10.55700 -10.55666 -10.55080 -10.54989
 Alpha  occ. eigenvalues --  -10.54932 -10.54897 -10.54891 -10.54862 -10.54828
 Alpha  occ. eigenvalues --  -10.54822 -10.54818 -10.54757 -10.54754 -10.54699
 Alpha  occ. eigenvalues --  -10.54691 -10.54635 -10.54539 -10.54515  -1.00960
 Alpha  occ. eigenvalues --   -0.96589  -0.95881  -0.95319  -0.89979  -0.86361
 Alpha  occ. eigenvalues --   -0.85088  -0.84129  -0.84119  -0.84071  -0.81561
 Alpha  occ. eigenvalues --   -0.78983  -0.72736  -0.70098  -0.69069  -0.69008
 Alpha  occ. eigenvalues --   -0.68646  -0.67562  -0.65037  -0.63823  -0.61836
 Alpha  occ. eigenvalues --   -0.61105  -0.58964  -0.58293  -0.55842  -0.54014
 Alpha  occ. eigenvalues --   -0.53360  -0.52656  -0.52069  -0.51614  -0.51192
 Alpha  occ. eigenvalues --   -0.49958  -0.48788  -0.48671  -0.48558  -0.48255
 Alpha  occ. eigenvalues --   -0.47401  -0.45652  -0.44836  -0.44652  -0.43944
 Alpha  occ. eigenvalues --   -0.43467  -0.42538  -0.41160  -0.40676  -0.40342
 Alpha  occ. eigenvalues --   -0.40229  -0.39730  -0.39296  -0.38279  -0.35379
 Alpha  occ. eigenvalues --   -0.34290  -0.31001  -0.30811  -0.30797  -0.29952
 Alpha  occ. eigenvalues --   -0.29092  -0.25907
 Alpha virt. eigenvalues --   -0.01914   0.00935   0.01471   0.01748   0.02182
 Alpha virt. eigenvalues --    0.02487   0.03972   0.04436   0.04967   0.05081
 Alpha virt. eigenvalues --    0.05660   0.05960   0.06637   0.07289   0.07461
 Alpha virt. eigenvalues --    0.07560   0.08112   0.08507   0.08858   0.09350
 Alpha virt. eigenvalues --    0.09837   0.10433   0.11269   0.11397   0.11738
 Alpha virt. eigenvalues --    0.12826   0.12846   0.13522   0.13868   0.14293
 Alpha virt. eigenvalues --    0.14357   0.14736   0.15457   0.16274   0.16453
 Alpha virt. eigenvalues --    0.16755   0.17103   0.17245   0.17329   0.17673
 Alpha virt. eigenvalues --    0.17985   0.18135   0.18604   0.18836   0.19010
 Alpha virt. eigenvalues --    0.19231   0.19466   0.20160   0.20433   0.20549
 Alpha virt. eigenvalues --    0.20718   0.21386   0.21632   0.21843   0.22381
 Alpha virt. eigenvalues --    0.22901   0.23469   0.23882   0.24585   0.24666
 Alpha virt. eigenvalues --    0.25126   0.25470   0.26087   0.26334   0.26704
 Alpha virt. eigenvalues --    0.27120   0.27431   0.27710   0.27880   0.28031
 Alpha virt. eigenvalues --    0.28427   0.28634   0.29017   0.29355   0.29466
 Alpha virt. eigenvalues --    0.29727   0.30063   0.30118   0.30242   0.30577
 Alpha virt. eigenvalues --    0.30633   0.30776   0.31246   0.31468   0.31721
 Alpha virt. eigenvalues --    0.31827   0.32082   0.32385   0.32486   0.32811
 Alpha virt. eigenvalues --    0.32840   0.33106   0.33231   0.33592   0.33826
 Alpha virt. eigenvalues --    0.34529   0.34901   0.34951   0.35255   0.35718
 Alpha virt. eigenvalues --    0.35766   0.36225   0.36732   0.37072   0.37647
 Alpha virt. eigenvalues --    0.37795   0.38052   0.38309   0.38544   0.38617
 Alpha virt. eigenvalues --    0.39097   0.39648   0.39792   0.39984   0.40334
 Alpha virt. eigenvalues --    0.40674   0.41153   0.41784   0.42072   0.42424
 Alpha virt. eigenvalues --    0.42895   0.43035   0.43579   0.43765   0.44236
 Alpha virt. eigenvalues --    0.44386   0.44735   0.45111   0.45385   0.46207
 Alpha virt. eigenvalues --    0.46290   0.46613   0.46868   0.47058   0.47436
 Alpha virt. eigenvalues --    0.47545   0.47812   0.48299   0.48802   0.49038
 Alpha virt. eigenvalues --    0.49768   0.50125   0.50425   0.50551   0.51457
 Alpha virt. eigenvalues --    0.51694   0.51834   0.52346   0.52474   0.53070
 Alpha virt. eigenvalues --    0.53102   0.53710   0.54339   0.54658   0.55214
 Alpha virt. eigenvalues --    0.55578   0.55905   0.56127   0.56903   0.57220
 Alpha virt. eigenvalues --    0.57584   0.57887   0.58606   0.59057   0.59475
 Alpha virt. eigenvalues --    0.59812   0.60174   0.60628   0.60960   0.61047
 Alpha virt. eigenvalues --    0.61618   0.62185   0.62507   0.63006   0.63223
 Alpha virt. eigenvalues --    0.64123   0.64224   0.65063   0.65239   0.65560
 Alpha virt. eigenvalues --    0.65955   0.66632   0.67138   0.67725   0.68026
 Alpha virt. eigenvalues --    0.68392   0.68930   0.69754   0.70020   0.70408
 Alpha virt. eigenvalues --    0.70922   0.71105   0.71674   0.72057   0.72702
 Alpha virt. eigenvalues --    0.72999   0.73212   0.73753   0.74175   0.74321
 Alpha virt. eigenvalues --    0.74485   0.74778   0.75331   0.75398   0.75568
 Alpha virt. eigenvalues --    0.76206   0.76399   0.76670   0.77472   0.77901
 Alpha virt. eigenvalues --    0.78109   0.78123   0.78461   0.78650   0.79154
 Alpha virt. eigenvalues --    0.79313   0.79472   0.79878   0.79967   0.80528
 Alpha virt. eigenvalues --    0.81015   0.81272   0.81626   0.82031   0.82272
 Alpha virt. eigenvalues --    0.82764   0.82889   0.82968   0.83066   0.83465
 Alpha virt. eigenvalues --    0.83726   0.84026   0.84261   0.84713   0.85128
 Alpha virt. eigenvalues --    0.85381   0.86158   0.86249   0.86490   0.86968
 Alpha virt. eigenvalues --    0.87536   0.87684   0.88026   0.88202   0.88569
 Alpha virt. eigenvalues --    0.88915   0.89379   0.89448   0.90164   0.90655
 Alpha virt. eigenvalues --    0.90965   0.91156   0.91457   0.91688   0.92119
 Alpha virt. eigenvalues --    0.92234   0.92662   0.92924   0.93092   0.93285
 Alpha virt. eigenvalues --    0.93716   0.93901   0.94222   0.94635   0.95119
 Alpha virt. eigenvalues --    0.95234   0.95581   0.95731   0.95844   0.96273
 Alpha virt. eigenvalues --    0.96559   0.96825   0.97048   0.97854   0.98049
 Alpha virt. eigenvalues --    0.98241   0.98722   0.99069   0.99327   0.99581
 Alpha virt. eigenvalues --    1.00031   1.00305   1.00903   1.01109   1.01857
 Alpha virt. eigenvalues --    1.01965   1.02360   1.02652   1.02990   1.03445
 Alpha virt. eigenvalues --    1.03890   1.04199   1.04535   1.04774   1.04950
 Alpha virt. eigenvalues --    1.05487   1.05824   1.06166   1.06358   1.07042
 Alpha virt. eigenvalues --    1.07752   1.08001   1.08197   1.08348   1.08707
 Alpha virt. eigenvalues --    1.09285   1.09631   1.09909   1.10288   1.10988
 Alpha virt. eigenvalues --    1.11158   1.11713   1.11737   1.11957   1.12622
 Alpha virt. eigenvalues --    1.13110   1.13476   1.14386   1.14517   1.14915
 Alpha virt. eigenvalues --    1.15770   1.15949   1.16283   1.16623   1.16829
 Alpha virt. eigenvalues --    1.17226   1.18301   1.18463   1.18953   1.19269
 Alpha virt. eigenvalues --    1.19778   1.20117   1.20830   1.20886   1.21577
 Alpha virt. eigenvalues --    1.21699   1.22278   1.22612   1.23046   1.23077
 Alpha virt. eigenvalues --    1.23569   1.24638   1.25215   1.25647   1.25884
 Alpha virt. eigenvalues --    1.26532   1.26998   1.27196   1.27782   1.28109
 Alpha virt. eigenvalues --    1.28649   1.29112   1.29616   1.30472   1.30641
 Alpha virt. eigenvalues --    1.31093   1.31223   1.32056   1.32806   1.33369
 Alpha virt. eigenvalues --    1.33684   1.33962   1.34467   1.34886   1.35209
 Alpha virt. eigenvalues --    1.35870   1.36248   1.36475   1.37521   1.37709
 Alpha virt. eigenvalues --    1.38235   1.38366   1.39844   1.40388   1.40936
 Alpha virt. eigenvalues --    1.41373   1.42305   1.42841   1.43292   1.44060
 Alpha virt. eigenvalues --    1.44545   1.45229   1.45602   1.47093   1.47253
 Alpha virt. eigenvalues --    1.47332   1.48205   1.49160   1.49758   1.50210
 Alpha virt. eigenvalues --    1.50537   1.51400   1.52649   1.52813   1.53974
 Alpha virt. eigenvalues --    1.54588   1.54763   1.56186   1.56516   1.56873
 Alpha virt. eigenvalues --    1.57297   1.57907   1.58605   1.58675   1.59228
 Alpha virt. eigenvalues --    1.60008   1.60399   1.60697   1.61207   1.62187
 Alpha virt. eigenvalues --    1.63177   1.63480   1.63864   1.64521   1.64817
 Alpha virt. eigenvalues --    1.65288   1.66062   1.66141   1.66537   1.66992
 Alpha virt. eigenvalues --    1.67596   1.67869   1.68822   1.69708   1.70231
 Alpha virt. eigenvalues --    1.70346   1.71292   1.71689   1.71915   1.72090
 Alpha virt. eigenvalues --    1.72506   1.72960   1.73333   1.73696   1.74311
 Alpha virt. eigenvalues --    1.74357   1.74608   1.75399   1.75881   1.76613
 Alpha virt. eigenvalues --    1.76969   1.77147   1.78137   1.78666   1.78987
 Alpha virt. eigenvalues --    1.79374   1.79696   1.80406   1.80652   1.81276
 Alpha virt. eigenvalues --    1.81503   1.82016   1.82346   1.82724   1.83149
 Alpha virt. eigenvalues --    1.83932   1.84929   1.85088   1.85259   1.85915
 Alpha virt. eigenvalues --    1.86257   1.87002   1.87694   1.87850   1.88112
 Alpha virt. eigenvalues --    1.88409   1.89057   1.89491   1.89834   1.90259
 Alpha virt. eigenvalues --    1.90428   1.90554   1.90915   1.91829   1.92268
 Alpha virt. eigenvalues --    1.92321   1.92658   1.93350   1.93464   1.94017
 Alpha virt. eigenvalues --    1.94252   1.94692   1.95709   1.96529   1.96770
 Alpha virt. eigenvalues --    1.97059   1.97275   1.97630   1.98264   1.98502
 Alpha virt. eigenvalues --    1.98776   1.98931   1.99168   1.99572   2.00145
 Alpha virt. eigenvalues --    2.00426   2.00750   2.00966   2.01483   2.01995
 Alpha virt. eigenvalues --    2.02263   2.02452   2.02716   2.03289   2.03532
 Alpha virt. eigenvalues --    2.03859   2.04121   2.04321   2.05442   2.05849
 Alpha virt. eigenvalues --    2.06169   2.06364   2.06632   2.06949   2.07432
 Alpha virt. eigenvalues --    2.08153   2.08376   2.08538   2.08614   2.09435
 Alpha virt. eigenvalues --    2.09698   2.10438   2.10775   2.10842   2.11380
 Alpha virt. eigenvalues --    2.11832   2.12346   2.12680   2.13036   2.13221
 Alpha virt. eigenvalues --    2.13546   2.13854   2.14331   2.14795   2.14924
 Alpha virt. eigenvalues --    2.15434   2.15574   2.15788   2.15905   2.16662
 Alpha virt. eigenvalues --    2.16917   2.17396   2.17747   2.18145   2.18400
 Alpha virt. eigenvalues --    2.19027   2.19430   2.19657   2.19889   2.20408
 Alpha virt. eigenvalues --    2.21322   2.21468   2.21814   2.22283   2.22718
 Alpha virt. eigenvalues --    2.22910   2.23147   2.23656   2.24428   2.24625
 Alpha virt. eigenvalues --    2.24906   2.25083   2.25247   2.25670   2.26142
 Alpha virt. eigenvalues --    2.26259   2.26787   2.27181   2.27395   2.27538
 Alpha virt. eigenvalues --    2.27720   2.28404   2.28894   2.29284   2.29339
 Alpha virt. eigenvalues --    2.29709   2.29916   2.30264   2.30486   2.30993
 Alpha virt. eigenvalues --    2.31685   2.31933   2.32505   2.32674   2.33008
 Alpha virt. eigenvalues --    2.33244   2.33683   2.34267   2.34357   2.35370
 Alpha virt. eigenvalues --    2.35776   2.36066   2.36161   2.36954   2.37204
 Alpha virt. eigenvalues --    2.38082   2.38412   2.38754   2.39101   2.39401
 Alpha virt. eigenvalues --    2.40122   2.40302   2.40565   2.41241   2.41581
 Alpha virt. eigenvalues --    2.41725   2.42394   2.43113   2.43320   2.43678
 Alpha virt. eigenvalues --    2.44387   2.44727   2.44948   2.45452   2.45487
 Alpha virt. eigenvalues --    2.45747   2.46343   2.46612   2.47064   2.47212
 Alpha virt. eigenvalues --    2.47527   2.47856   2.47999   2.48760   2.49079
 Alpha virt. eigenvalues --    2.49425   2.49954   2.50285   2.50872   2.51110
 Alpha virt. eigenvalues --    2.51660   2.51859   2.52048   2.52270   2.52982
 Alpha virt. eigenvalues --    2.53591   2.53699   2.54046   2.54416   2.54892
 Alpha virt. eigenvalues --    2.55354   2.55530   2.56300   2.56798   2.56961
 Alpha virt. eigenvalues --    2.57347   2.58125   2.58315   2.59152   2.59364
 Alpha virt. eigenvalues --    2.59702   2.60028   2.60192   2.60829   2.61187
 Alpha virt. eigenvalues --    2.61424   2.61750   2.62147   2.62211   2.62815
 Alpha virt. eigenvalues --    2.63153   2.63336   2.63727   2.64193   2.64353
 Alpha virt. eigenvalues --    2.64893   2.65204   2.65502   2.65942   2.66076
 Alpha virt. eigenvalues --    2.66371   2.66601   2.66818   2.67581   2.67942
 Alpha virt. eigenvalues --    2.68550   2.68662   2.69005   2.69656   2.69755
 Alpha virt. eigenvalues --    2.69964   2.70094   2.70453   2.71344   2.71510
 Alpha virt. eigenvalues --    2.71734   2.72261   2.72977   2.73448   2.73685
 Alpha virt. eigenvalues --    2.73859   2.74038   2.74248   2.74934   2.75191
 Alpha virt. eigenvalues --    2.75806   2.75959   2.76332   2.76362   2.76929
 Alpha virt. eigenvalues --    2.77216   2.77511   2.77807   2.78027   2.78416
 Alpha virt. eigenvalues --    2.78889   2.79164   2.80183   2.80486   2.80881
 Alpha virt. eigenvalues --    2.81126   2.81380   2.82155   2.82243   2.82827
 Alpha virt. eigenvalues --    2.82854   2.83065   2.83457   2.83869   2.84201
 Alpha virt. eigenvalues --    2.84861   2.84961   2.85611   2.86053   2.86488
 Alpha virt. eigenvalues --    2.86761   2.87089   2.87435   2.88010   2.88653
 Alpha virt. eigenvalues --    2.89209   2.89688   2.90358   2.90584   2.91420
 Alpha virt. eigenvalues --    2.91569   2.92864   2.93073   2.93699   2.94237
 Alpha virt. eigenvalues --    2.95395   2.95880   2.96477   2.96948   2.97428
 Alpha virt. eigenvalues --    2.98063   2.98725   2.99048   2.99315   3.00119
 Alpha virt. eigenvalues --    3.00652   3.00673   3.01294   3.02032   3.02663
 Alpha virt. eigenvalues --    3.03077   3.03383   3.03562   3.04992   3.05403
 Alpha virt. eigenvalues --    3.05514   3.07035   3.07063   3.07806   3.08357
 Alpha virt. eigenvalues --    3.08455   3.09426   3.10159   3.10755   3.11871
 Alpha virt. eigenvalues --    3.11983   3.12458   3.13878   3.13973   3.14718
 Alpha virt. eigenvalues --    3.15044   3.15634   3.15836   3.16824   3.17178
 Alpha virt. eigenvalues --    3.17617   3.18440   3.19217   3.19521   3.19994
 Alpha virt. eigenvalues --    3.20666   3.21557   3.22088   3.22225   3.22738
 Alpha virt. eigenvalues --    3.23841   3.24769   3.25471   3.25676   3.26449
 Alpha virt. eigenvalues --    3.28083   3.28433   3.28695   3.29765   3.30018
 Alpha virt. eigenvalues --    3.30676   3.31624   3.31844   3.32489   3.33240
 Alpha virt. eigenvalues --    3.34208   3.34721   3.35511   3.36097   3.36659
 Alpha virt. eigenvalues --    3.36751   3.37086   3.37446   3.37809   3.38100
 Alpha virt. eigenvalues --    3.38619   3.39172   3.39714   3.40527   3.40692
 Alpha virt. eigenvalues --    3.41110   3.41944   3.42071   3.43066   3.44261
 Alpha virt. eigenvalues --    3.44605   3.44744   3.45288   3.45621   3.46169
 Alpha virt. eigenvalues --    3.46576   3.47107   3.47300   3.47648   3.48363
 Alpha virt. eigenvalues --    3.48941   3.49524   3.49809   3.50130   3.51181
 Alpha virt. eigenvalues --    3.51498   3.51964   3.52227   3.52884   3.53433
 Alpha virt. eigenvalues --    3.53540   3.53748   3.54991   3.55778   3.56607
 Alpha virt. eigenvalues --    3.57165   3.57890   3.58142   3.58537   3.58972
 Alpha virt. eigenvalues --    3.59454   3.59729   3.60715   3.61216   3.62397
 Alpha virt. eigenvalues --    3.62877   3.63155   3.63709   3.65432   3.66087
 Alpha virt. eigenvalues --    3.66496   3.66912   3.67908   3.68725   3.69901
 Alpha virt. eigenvalues --    3.69944   3.70785   3.71667   3.73101   3.73690
 Alpha virt. eigenvalues --    3.74413   3.74791   3.76597   3.77045   3.77447
 Alpha virt. eigenvalues --    3.78358   3.78913   3.80229   3.81045   3.82531
 Alpha virt. eigenvalues --    3.83415   3.84083   3.84488   3.84849   3.85133
 Alpha virt. eigenvalues --    3.85363   3.86680   3.86911   3.88026   3.89324
 Alpha virt. eigenvalues --    3.90289   3.91661   3.92720   3.93225   3.94520
 Alpha virt. eigenvalues --    3.95541   3.97103   3.97710   3.98797   3.99415
 Alpha virt. eigenvalues --    3.99822   4.00415   4.01370   4.02659   4.04399
 Alpha virt. eigenvalues --    4.04971   4.05835   4.06233   4.06667   4.07314
 Alpha virt. eigenvalues --    4.07464   4.09154   4.09328   4.10703   4.11132
 Alpha virt. eigenvalues --    4.12207   4.13625   4.14007   4.14681   4.15770
 Alpha virt. eigenvalues --    4.16155   4.17103   4.17339   4.19527   4.20442
 Alpha virt. eigenvalues --    4.20667   4.22905   4.23609   4.25554   4.26940
 Alpha virt. eigenvalues --    4.28814   4.29625   4.30848   4.31704   4.32552
 Alpha virt. eigenvalues --    4.33956   4.37592   4.37991   4.39691   4.41421
 Alpha virt. eigenvalues --    4.42872   4.43823   4.45355   4.47409   4.47747
 Alpha virt. eigenvalues --    4.49273   4.50596   4.51289   4.52916   4.54075
 Alpha virt. eigenvalues --    4.54785   4.55233   4.56408   4.57032   4.57437
 Alpha virt. eigenvalues --    4.57686   4.59220   4.60076   4.67225   4.67857
 Alpha virt. eigenvalues --    4.68260   4.68627   4.70283   4.70566   4.70981
 Alpha virt. eigenvalues --    4.71455   4.73512   4.74178   4.74402   4.75396
 Alpha virt. eigenvalues --    4.76302   4.78417   4.80036   4.80279   4.81645
 Alpha virt. eigenvalues --    4.81980   4.82527   4.83432   4.83733   4.84452
 Alpha virt. eigenvalues --    4.85224   4.86225   4.87106   4.88359   4.89296
 Alpha virt. eigenvalues --    4.89515   4.90897   4.91449   4.91989   4.94228
 Alpha virt. eigenvalues --    4.94679   4.95691   4.97103   4.97571   4.98258
 Alpha virt. eigenvalues --    4.98889   4.99477   5.00243   5.00684   5.01494
 Alpha virt. eigenvalues --    5.01889   5.02636   5.02961   5.04265   5.04511
 Alpha virt. eigenvalues --    5.04813   5.05135   5.05660   5.06304   5.07064
 Alpha virt. eigenvalues --    5.07402   5.07957   5.09139   5.09162   5.09493
 Alpha virt. eigenvalues --    5.09947   5.10412   5.11758   5.11966   5.12402
 Alpha virt. eigenvalues --    5.13376   5.15441   5.15534   5.15885   5.16555
 Alpha virt. eigenvalues --    5.16805   5.17625   5.17990   5.18416   5.18820
 Alpha virt. eigenvalues --    5.19231   5.19816   5.20765   5.21147   5.21591
 Alpha virt. eigenvalues --    5.21857   5.22111   5.22665   5.22943   5.23645
 Alpha virt. eigenvalues --    5.23762   5.24500   5.26126   5.26467   5.26754
 Alpha virt. eigenvalues --    5.27599   5.28367   5.29293   5.30209   5.31162
 Alpha virt. eigenvalues --    5.31379   5.32231   5.32407   5.32663   5.33098
 Alpha virt. eigenvalues --    5.33850   5.34419   5.34977   5.35574   5.36156
 Alpha virt. eigenvalues --    5.37297   5.37994   5.38555   5.39165   5.39507
 Alpha virt. eigenvalues --    5.40273   5.40884   5.41338   5.41933   5.42333
 Alpha virt. eigenvalues --    5.42840   5.43079   5.43663   5.44210   5.44319
 Alpha virt. eigenvalues --    5.44800   5.45813   5.46182   5.46365   5.46817
 Alpha virt. eigenvalues --    5.47100   5.47276   5.48000   5.48714   5.49121
 Alpha virt. eigenvalues --    5.49976   5.50883   5.51585   5.52385   5.52581
 Alpha virt. eigenvalues --    5.54475   5.54841   5.56355   5.56717   5.57328
 Alpha virt. eigenvalues --    5.58449   5.59557   5.60057   5.60655   5.61676
 Alpha virt. eigenvalues --    5.62945   5.63637   5.63857   5.64405   5.64681
 Alpha virt. eigenvalues --    5.65834   5.65957   5.66952   5.67060   5.67653
 Alpha virt. eigenvalues --    5.68763   5.69291   5.69906   5.70806   5.71143
 Alpha virt. eigenvalues --    5.71922   5.72453   5.72993   5.73275   5.73660
 Alpha virt. eigenvalues --    5.74405   5.75616   5.75746   5.76489   5.77376
 Alpha virt. eigenvalues --    5.77605   5.78285   5.78572   5.79211   5.79832
 Alpha virt. eigenvalues --    5.80372   5.80966   5.81219   5.81540   5.81952
 Alpha virt. eigenvalues --    5.82201   5.82832   5.82981   5.83408   5.83788
 Alpha virt. eigenvalues --    5.83880   5.84518   5.84942   5.85615   5.86073
 Alpha virt. eigenvalues --    5.87252   5.87557   5.87828   5.88322   5.88795
 Alpha virt. eigenvalues --    5.89221   5.89372   5.89540   5.89743   5.89900
 Alpha virt. eigenvalues --    5.90019   5.90267   5.90573   5.90778   5.91478
[...]
    20  C    0.399242   5.308241   0.365037  -0.005988  -0.047783   0.003008
    21  C   -0.019672   0.365037   5.377967   0.328969  -0.027414  -0.078574
    22  C   -0.050552  -0.005988   0.328969   4.957027   0.403906   0.407451
    23  C   -0.022751  -0.047783  -0.027414   0.403906   5.358238  -0.102457
    24  C   -0.001452   0.003008  -0.078574   0.407451  -0.102457   5.531733
    25  H   -0.000001   0.000002  -0.000338  -0.000024  -0.000062   0.003272
    26  H    0.000012   0.000010   0.008369  -0.008010   0.000078  -0.032072
    27  H    0.000062  -0.000367   0.005777  -0.001747   0.000144  -0.062307
    28  H   -0.000008  -0.000023   0.000109   0.002172  -0.000138  -0.008160
    29  H   -0.000000   0.000000   0.000003  -0.000010   0.000000  -0.000510
    30  H   -0.000000   0.000000  -0.000006   0.000060  -0.000006  -0.000014
    31  H   -0.000000  -0.000000   0.000000  -0.000000   0.000000  -0.000001
    32  H    0.000000   0.000000  -0.000000  -0.000000   0.000000  -0.000000
    33  H    0.000000   0.000000  -0.000000   0.000000  -0.000000   0.000002
    34  H    0.000000   0.000005  -0.000052   0.000048  -0.000012   0.000289
    35  H   -0.000000  -0.000001  -0.000052  -0.000003   0.000005  -0.000371
    36  H   -0.000000   0.000000   0.000001   0.000001  -0.000000  -0.000007
    37  H   -0.000000  -0.000000   0.000000  -0.000000   0.000000   0.000000
    38  H   -0.000000  -0.000000  -0.000000   0.000001   0.000000  -0.000011
    39  H   -0.073549   0.007833  -0.000024   0.003633  -0.079873  -0.000213
    40  H    0.421975  -0.077681   0.005770   0.001028   0.007528  -0.000020
    41  H   -0.075348   0.427750  -0.087220   0.006675  -0.001070  -0.000070
    42  H    0.010539  -0.086717   0.468276  -0.138519   0.006900  -0.005869
    43  H    0.008361   0.001209   0.003380  -0.095809   0.444217  -0.004496
    44  H    0.000187  -0.001063   0.012067  -0.078303  -0.010750   0.386874
              25         26         27         28         29         30
     1  C    0.424382  -0.072282   0.004649   0.005329  -0.011231   0.000721
     2  C   -0.074181   0.394994  -0.048534   0.011659   0.000594  -0.000453
     3  C    0.009150  -0.042494   0.418234  -0.099710   0.000158   0.002517
     4  C    0.004507   0.001002  -0.059441   0.472385   0.000310   0.003191
     5  C   -0.073065   0.011239   0.005690  -0.110248  -0.000650  -0.012883
     6  C   -0.002401   0.000022   0.000054  -0.000579   0.458091   0.004775
     7  C   -0.009630  -0.000212  -0.000643   0.000768  -0.114239  -0.148435
     8  C   -0.001036  -0.000005  -0.000057  -0.009703   0.001102   0.480977
     9  C    0.000163  -0.000002  -0.000010   0.000754   0.000667  -0.081683
    10  C   -0.000048   0.000000   0.000001  -0.000129   0.010021   0.010547
    11  C    0.001234   0.000003  -0.000004   0.000047  -0.072041   0.000404
    12  C   -0.000755   0.000650   0.001786   0.017325   0.000165  -0.006017
    13  C   -0.000487  -0.000420   0.009377  -0.110970  -0.000248   0.012227
    14  C    0.000174   0.000094  -0.004556  -0.031368  -0.000022   0.002015
    15  C    0.000000  -0.000013  -0.000184   0.000700   0.000001  -0.001054
    16  C    0.000001  -0.000010  -0.000010   0.000073   0.000001   0.000320
    17  C   -0.000118   0.000066   0.000027  -0.001811  -0.000019  -0.001277
    18  C    0.000009  -0.000146  -0.000190  -0.000007  -0.000000   0.000000
    19  C   -0.000001   0.000012   0.000062  -0.000008  -0.000000  -0.000000
    20  C    0.000002   0.000010  -0.000367  -0.000023   0.000000   0.000000
    21  C   -0.000338   0.008369   0.005777   0.000109   0.000003  -0.000006
    22  C   -0.000024  -0.008010  -0.001747   0.002172  -0.000010   0.000060
    23  C   -0.000062   0.000078   0.000144  -0.000138   0.000000  -0.000006
    24  C    0.003272  -0.032072  -0.062307  -0.008160  -0.000510  -0.000014
    25  H    0.487274  -0.005492  -0.000094   0.000371  -0.005761  -0.000221
    26  H   -0.005492   0.502966  -0.005689  -0.001010   0.000190  -0.000022
    27  H   -0.000094  -0.005689   0.490387   0.003362   0.000001   0.000202
    28  H    0.000371  -0.001010   0.003362   0.591151  -0.000186  -0.007870
    29  H   -0.005761   0.000190   0.000001  -0.000186   0.548455  -0.000913
    30  H   -0.000221  -0.000022   0.000202  -0.007870  -0.000913   0.568886
    31  H   -0.000000   0.000000  -0.000001   0.000172   0.000250  -0.009838
    32  H    0.000005  -0.000000  -0.000000   0.000005  -0.000774  -0.000684
    33  H    0.000032  -0.000001   0.000000   0.000003  -0.008834   0.000249
    34  H    0.000424  -0.000835   0.001080   0.003211  -0.000206   0.000536
    35  H    0.000009  -0.000007  -0.000601  -0.001581  -0.000004   0.001449
    36  H    0.000000  -0.000001   0.000062  -0.000098  -0.000000  -0.000059
    37  H   -0.000000  -0.000000   0.000005  -0.000023   0.000000  -0.000027
    38  H   -0.000003   0.000001   0.000017   0.000066  -0.000002   0.000004
    39  H   -0.000000   0.000011   0.000010  -0.000001   0.000000   0.000000
    40  H    0.000000  -0.000004  -0.000005  -0.000000  -0.000000   0.000000
    41  H    0.000000  -0.000057  -0.000080   0.000001  -0.000000  -0.000000
    42  H   -0.000066   0.005305   0.006880   0.000085   0.000001   0.000000
    43  H    0.000005  -0.000129  -0.000017   0.000170  -0.000001   0.000001
    44  H    0.001104   0.003992   0.001977   0.001603   0.000067  -0.000309
              31         32         33         34         35         36
     1  C    0.000122  -0.000002  -0.000414   0.009310   0.000155   0.000005
     2  C    0.000001   0.000001  -0.000024  -0.003310   0.000272  -0.000014
     3  C   -0.000046  -0.000001   0.000002  -0.007550   0.002047   0.000011
     4  C   -0.000770  -0.000049   0.000077   0.022239  -0.000713  -0.000481
     5  C    0.000145   0.000317   0.000470   0.012149  -0.006417   0.000163
     6  C   -0.000357   0.006470  -0.086805  -0.001285  -0.000054  -0.000001
     7  C    0.004784   0.001814   0.001916  -0.006841   0.001028  -0.000043
     8  C   -0.092976   0.003668   0.000396   0.000255  -0.001681   0.000054
     9  C    0.430774  -0.074831   0.008364   0.000128   0.000091   0.000007
    10  C   -0.075176   0.415730  -0.074103   0.000010  -0.000022   0.000001
    11  C    0.008602  -0.074969   0.426984  -0.000160   0.000018  -0.000000
    12  C    0.000070   0.000007  -0.000007   0.458635   0.004350   0.000747
    13  C   -0.000042  -0.000008   0.000009  -0.155569  -0.106118   0.003410
    14  C    0.000138   0.000001  -0.000001   0.004850   0.443435  -0.079540
    15  C    0.000005   0.000001  -0.000000   0.000305  -0.083727   0.422352
    16  C   -0.000028   0.000000   0.000000   0.010205   0.010824  -0.074475
    17  C   -0.000033   0.000001   0.000000  -0.091160  -0.000233   0.007470
    18  C   -0.000000   0.000000  -0.000000  -0.000000   0.000002  -0.000000
    19  C   -0.000000   0.000000   0.000000   0.000000  -0.000000  -0.000000
    20  C   -0.000000   0.000000   0.000000   0.000005  -0.000001   0.000000
    21  C    0.000000  -0.000000  -0.000000  -0.000052  -0.000052   0.000001
    22  C   -0.000000  -0.000000   0.000000   0.000048  -0.000003   0.000001
    23  C    0.000000   0.000000  -0.000000  -0.000012   0.000005  -0.000000
    24  C   -0.000001  -0.000000   0.000002   0.000289  -0.000371  -0.000007
    25  H   -0.000000   0.000005   0.000032   0.000424   0.000009   0.000000
    26  H    0.000000  -0.000000  -0.000001  -0.000835  -0.000007  -0.000001
    27  H   -0.000001  -0.000000   0.000000   0.001080  -0.000601   0.000062
    28  H    0.000172   0.000005   0.000003   0.003211  -0.001581  -0.000098
    29  H    0.000250  -0.000774  -0.008834  -0.000206  -0.000004  -0.000000
    30  H   -0.009838  -0.000684   0.000249   0.000536   0.001449  -0.000059
    31  H    0.515208  -0.007805  -0.000788   0.000007   0.000001  -0.000001
    32  H   -0.007805   0.514704  -0.007624   0.000001  -0.000001   0.000000
    33  H   -0.000788  -0.007624   0.516809  -0.000001   0.000000   0.000000
    34  H    0.000007   0.000001  -0.000001   0.564608  -0.000566   0.000299
    35  H    0.000001  -0.000001   0.000000  -0.000566   0.523428  -0.009226
    36  H   -0.000001   0.000000   0.000000   0.000299  -0.009226   0.515761
    37  H   -0.000001   0.000000   0.000000  -0.000837  -0.000696  -0.007677
    38  H   -0.000000  -0.000000   0.000000  -0.009918   0.000253  -0.000801
    39  H    0.000000  -0.000000   0.000000   0.000000   0.000000   0.000000
    40  H   -0.000000   0.000000   0.000000  -0.000000   0.000000  -0.000000
    41  H   -0.000000   0.000000  -0.000000  -0.000000   0.000000  -0.000000
    42  H   -0.000000  -0.000000  -0.000000   0.000045  -0.000023   0.000000
    43  H   -0.000000  -0.000000  -0.000000  -0.000000  -0.000001  -0.000000
    44  H    0.000000   0.000000  -0.000002   0.000000  -0.000150  -0.000000
              37         38         39         40         41         42
     1  C   -0.000004   0.000144  -0.000002   0.000000  -0.000008  -0.000887
     2  C    0.000003  -0.000075   0.000037   0.000010  -0.000056  -0.004793
     3  C    0.000018  -0.000041   0.000032   0.000002  -0.000007  -0.007703
     4  C   -0.000045   0.000067   0.000004  -0.000001   0.000002  -0.001346
     5  C   -0.000003  -0.000134  -0.000002   0.000000   0.000002  -0.000266
     6  C    0.000001  -0.000010  -0.000000   0.000000  -0.000000  -0.000000
     7  C    0.000007   0.000045   0.000000   0.000000  -0.000000   0.000009
     8  C    0.000051  -0.000087   0.000000  -0.000000   0.000000  -0.000003
     9  C   -0.000003  -0.000003   0.000000  -0.000000   0.000000  -0.000000
    10  C   -0.000000   0.000003  -0.000000   0.000000  -0.000000   0.000000
    11  C   -0.000000   0.000004  -0.000000   0.000000   0.000000  -0.000000
    12  C    0.002394  -0.085386   0.000000  -0.000000  -0.000002   0.000533
    13  C    0.003390   0.005258   0.000000   0.000000  -0.000000  -0.000230
    14  C    0.005227  -0.000820  -0.000000  -0.000000   0.000001  -0.000115
    15  C   -0.075409   0.007999  -0.000000   0.000000   0.000000  -0.000019
    16  C    0.417232  -0.076491  -0.000000   0.000000  -0.000000  -0.000004
    17  C   -0.075103   0.426119   0.000000   0.000000  -0.000000   0.000039
    18  C   -0.000000   0.000000   0.422272  -0.076359   0.008893   0.000452
    19  C   -0.000000  -0.000000  -0.073549   0.421975  -0.075348   0.010539
    20  C   -0.000000  -0.000000   0.007833  -0.077681   0.427750  -0.086717
    21  C    0.000000  -0.000000  -0.000024   0.005770  -0.087220   0.468276
    22  C   -0.000000   0.000001   0.003633   0.001028   0.006675  -0.138519
    23  C    0.000000   0.000000  -0.079873   0.007528  -0.001070   0.006900
    24  C    0.000000  -0.000011  -0.000213  -0.000020  -0.000070  -0.005869
    25  H   -0.000000  -0.000003  -0.000000   0.000000   0.000000  -0.000066
    26  H   -0.000000   0.000001   0.000011  -0.000004  -0.000057   0.005305
    27  H    0.000005   0.000017   0.000010  -0.000005  -0.000080   0.006880
    28  H   -0.000023   0.000066  -0.000001  -0.000000   0.000001   0.000085
    29  H    0.000000  -0.000002   0.000000  -0.000000  -0.000000   0.000001
    30  H   -0.000027   0.000004   0.000000   0.000000  -0.000000   0.000000
    31  H   -0.000001  -0.000000   0.000000  -0.000000  -0.000000  -0.000000
    32  H    0.000000  -0.000000  -0.000000   0.000000   0.000000  -0.000000
    33  H    0.000000   0.000000   0.000000   0.000000  -0.000000  -0.000000
    34  H   -0.000837  -0.009918   0.000000  -0.000000  -0.000000   0.000045
    35  H   -0.000696   0.000253   0.000000   0.000000   0.000000  -0.000023
    36  H   -0.007677  -0.000801   0.000000  -0.000000  -0.000000   0.000000
    37  H    0.516665  -0.008057  -0.000000   0.000000   0.000000  -0.000000
    38  H   -0.008057   0.515148   0.000000  -0.000000  -0.000000  -0.000000
    39  H   -0.000000   0.000000   0.517663  -0.007812  -0.000769   0.000251
    40  H    0.000000  -0.000000  -0.007812   0.512689  -0.008331  -0.000537
    41  H    0.000000  -0.000000  -0.000769  -0.008331   0.518298  -0.011014
    42  H   -0.000000  -0.000000   0.000251  -0.000537  -0.011014   0.592863
    43  H   -0.000000   0.000000  -0.009099  -0.000670   0.000243  -0.000703
    44  H    0.000000  -0.000001  -0.000192  -0.000013   0.000072   0.000839
              43         44
     1  C   -0.000116  -0.001166
     2  C   -0.000048  -0.047965
     3  C    0.000202  -0.063308
     4  C   -0.000020   0.000947
     5  C    0.000030   0.015696
     6  C   -0.000001   0.000388
     7  C   -0.000021  -0.002690
     8  C    0.000001  -0.000143
     9  C   -0.000000  -0.000008
    10  C    0.000000   0.000003
    11  C   -0.000000   0.000022
    12  C   -0.000001  -0.000060
    13  C   -0.000012  -0.001003
    14  C    0.000000  -0.000012
    15  C   -0.000000   0.000013
    16  C   -0.000000  -0.000000
    17  C   -0.000000  -0.000012
    18  C   -0.078922   0.000372
    19  C    0.008361   0.000187
    20  C    0.001209  -0.001063
    21  C    0.003380   0.012067
    22  C   -0.095809  -0.078303
    23  C    0.444217  -0.010750
    24  C   -0.004496   0.386874
    25  H    0.000005   0.001104
    26  H   -0.000129   0.003992
    27  H   -0.000017   0.001977
    28  H    0.000170   0.001603
    29  H   -0.000001   0.000067
    30  H    0.000001  -0.000309
    31  H   -0.000000   0.000000
    32  H   -0.000000   0.000000
    33  H   -0.000000  -0.000002
    34  H   -0.000000   0.000000
    35  H   -0.000001  -0.000150
    36  H   -0.000000  -0.000000
    37  H   -0.000000   0.000000
    38  H    0.000000  -0.000001
    39  H   -0.009099  -0.000192
    40  H   -0.000670  -0.000013
    41  H    0.000243   0.000072
    42  H   -0.000703   0.000839
    43  H    0.538120   0.002272
    44  H    0.002272   0.571074
 Mulliken charges:
               1
     1  C   -0.391284
     2  C   -0.186552
     3  C   -0.065736
     4  C   -0.576499
     5  C    0.250930
     6  C   -0.271171
     7  C    0.285167
     8  C   -0.208006
     9  C   -0.279218
    10  C   -0.274765
    11  C   -0.276878
    12  C   -0.187590
    13  C    0.238111
    14  C   -0.304875
    15  C   -0.248695
    16  C   -0.294339
    17  C   -0.260875
    18  C   -0.244975
    19  C   -0.273412
    20  C   -0.276864
    21  C   -0.254183
    22  C    0.309072
    23  C   -0.320376
    24  C   -0.244342
    25  H    0.241667
    26  H    0.239910
    27  H    0.234752
    28  H    0.272099
    29  H    0.195573
    30  H    0.182688
    31  H    0.227583
    32  H    0.224023
    33  H    0.223288
    34  H    0.189662
    35  H    0.224882
    36  H    0.222081
    37  H    0.222892
    38  H    0.226710
    39  H    0.219789
    40  H    0.222432
    41  H    0.222096
    42  H    0.165795
    43  H    0.191852
    44  H    0.207583
 Sum of Mulliken charges =  -0.00000
 Mulliken charges with hydrogens summed into heavy atoms:
               1
     1  C   -0.149617
     2  C    0.053358
     3  C    0.169016
     4  C   -0.304400
     5  C    0.250930
     6  C   -0.075598
     7  C    0.285167
     8  C   -0.025319
     9  C   -0.051635
    10  C   -0.050742
    11  C   -0.053591
    12  C    0.002072
    13  C    0.238111
    14  C   -0.079993
    15  C   -0.026614
    16  C   -0.071447
    17  C   -0.034166
    18  C   -0.025186
    19  C   -0.050981
    20  C   -0.054767
    21  C   -0.088388
    22  C    0.309072
    23  C   -0.128524
    24  C   -0.036759
 Electronic spatial extent (au):  <R**2>=           9620.8870
 Charge=             -0.0000 electrons
 Dipole moment (field-independent basis, Debye):
    X=              0.1517    Y=              0.0462    Z=              0.1164  Tot=              0.1967
 Quadrupole moment (field-independent basis, Debye-Ang):
   XX=           -136.5094   YY=           -135.7893   ZZ=           -135.8445
   XY=             -0.2123   XZ=             -1.2279   YZ=             -0.6833
 Traceless Quadrupole moment (field-independent basis, Debye-Ang):
   XX=             -0.4616   YY=              0.2584   ZZ=              0.2032
   XY=             -0.2123   XZ=             -1.2279   YZ=             -0.6833
 Octapole moment (field-independent basis, Debye-Ang**2):
  XXX=            -26.5962  YYY=             11.8946  ZZZ=              3.4654  XYY=             29.7163
  XXY=             -9.0072  XXZ=            -17.3719  XZZ=             10.3748  YZZ=              6.0551
  YYZ=              9.1546  XYZ=            -24.3257
 Hexadecapole moment (field-independent basis, Debye-Ang**3):
 XXXX=          -8814.9670 YYYY=          -3319.3476 ZZZZ=           -820.6549 XXXY=           -174.1452
 XXXZ=            -30.2610 YYYX=             73.2808 YYYZ=            -62.0556 ZZZX=             -7.8295
 ZZZY=            -13.6304 XXYY=          -1999.2031 XXZZ=          -1711.7676 YYZZ=           -663.0604
 XXYZ=            111.0526 YYXZ=             61.6970 ZZXY=             38.7783
 N-N= 1.809857999377D+03 E-N=-5.767328034566D+03  KE= 9.217047591776D+02
 No NMR shielding tensors so no spin-rotation constants.
 Leave Link  601 at Tue Apr 20 22:52:06 2021, MaxMem= 12079595520 cpu:            4128.5 elap:              88.4
 (Enter /s/ls4/groups/g0130/bin/g16/l9999.exe)

 Test job not archived.
 1\1\GINC-N001\Stability\RM062X\def2QZVP\C24H20\ROOT\20-Apr-2021\0\\#P 
 M062X/Def2QZVP Integral=UltraFineGrid SCF=NoSymm Stable=(RExt, Opt) IO
 p(1/33=1)\\Database calculations.\\0,1\C,0,0.0750988435,1.316828776,-1
 .3092089894\C,0,-1.2080459969,0.5831510757,-1.2289405685\C,0,-1.043107
 541,-0.4026055548,-0.0948519272\C,0,0.4019143023,-0.2789284186,0.41875
 97019\C,0,0.9645378406,0.9114139738,-0.3714955976\C,0,2.7746379617,2.6
 016594822,-0.801652668\C,0,2.2835803149,1.4867503338,-0.0857443828\C,0
 ,3.1073476326,0.9410643224,0.9206646778\C,0,4.3658181525,1.4815018521,
 1.1964646589\C,0,4.8362949788,2.5812382092,0.4742096675\C,0,4.03071202
 09,3.1379411317,-0.5287541659\C,0,1.6174149691,-1.9379432819,-1.075700
 4151\C,0,1.1681333264,-1.5753060035,0.2019000324\C,0,1.3916669112,-2.4
 526796982,1.2718095417\C,0,2.0555492289,-3.6677550697,1.0744067327\C,0
 ,2.501988326,-4.020503313,-0.2034085549\C,0,2.2796737336,-3.1515079405
 ,-1.2781343066\C,0,-5.6286496676,1.2311150398,0.9995529271\C,0,-6.2472
 376409,0.2230651862,0.2526030743\C,0,-5.4651454137,-0.6145853449,-0.55
 12939894\C,0,-4.0799495777,-0.4470232415,-0.6064960447\C,0,-3.44533845
 5,0.563260858,0.1402757333\C,0,-4.2425574717,1.3994421694,0.9411730261
 \C,0,-1.9764217365,0.7719142782,0.0984156855\H,0,0.2372462273,2.129293
 3873,-2.0130264835\H,0,-1.8050130744,0.3743029049,-2.1150286565\H,0,-1
 .4902827676,-1.3926048754,-0.1382680141\H,0,0.4053939072,-0.0546335823
 ,1.4954146099\H,0,2.1617514303,3.0531810808,-1.5783404913\H,0,2.766161
 7368,0.0767026206,1.4824352886\H,0,4.9807250629,1.0375184356,1.9773377
 398\H,0,5.8166294415,3.0024577089,0.68809845\H,0,4.3838662729,3.996908
 9405,-1.0967804702\H,0,1.4542169125,-1.2536274275,-1.9058000733\H,0,1.
 044173156,-2.176036636,2.2671303428\H,0,2.2257679794,-4.3362343426,1.9
 166250998\H,0,3.0217975006,-4.9637037569,-0.3605071877\H,0,2.627710626
 4,-3.4183670682,-2.274592064\H,0,-6.2260244979,1.8889368455,1.62848671
 67\H,0,-7.3264803597,0.0908597493,0.2957090536\H,0,-5.9360580778,-1.40
 23438757,-1.1368778657\H,0,-3.4841175569,-1.1063218423,-1.2348727917\H
 ,0,-3.7652688199,2.1872205399,1.5227566288\H,0,-1.6101101416,1.5849823
 719,0.7255463188\\Version=ES64L-G16RevA.03\State=1-A\HF=-926.581452\RM
 SD=4.939e-09\Dipole=0.0597115,-0.0181982,-0.0457253\Quadrupole=-0.3445
 939,0.1914523,0.1531416,0.1587726,0.912476,-0.5078883\PG=C01 [X(C24H20
 )]\\@


 You never know when you're making a memory.
                        -- Rickie Lee Jones
 Job cpu time:      24 days 12 hours 17 minutes 22.5 seconds.
 Elapsed time:       0 days 12 hours 15 minutes 58.4 seconds.
 File lengths (MBytes):  RWF=   7386 Int=      0 D2E=      0 Chk=    440 Scr=      1
 Normal termination of Gaussian 16 at Tue Apr 20 22:52:07 2021.
