 Entering Gaussian System, Link 0=/s/ls4/users/knvvv/bin/g16sse/g16
 Input=data/database/M062X--def2-QZVP--PNICO23_13.gjf
 Output=data/database/M062X--def2-QZVP--PNICO23_13.log
 Initial command:
 /s/ls4/users/knvvv/bin/g16sse/l1.exe "/s/ls4/users/knvvv/bin/scratch/Gau-41052.inp" -scrdir="/s/ls4/users/knvvv/bin/scratch/"
 Entering Link 1 = /s/ls4/users/knvvv/bin/g16sse/l1.exe PID=     41053.
  
 Copyright (c) 1988,1990,1992,1993,1995,1998,2003,2009,2016,
            Gaussian, Inc.  All Rights Reserved.
  
 This is part of the Gaussian(R) 16 program.  It is based on
 the Gaussian(R) 09 system (copyright 2009, Gaussian, Inc.),
 the Gaussian(R) 03 system (copyright 2003, Gaussian, Inc.),
 the Gaussian(R) 98 system (copyright 1998, Gaussian, Inc.),
 the Gaussian(R) 94 system (copyright 1995, Gaussian, Inc.),
 the Gaussian 92(TM) system (copyright 1992, Gaussian, Inc.),
 the Gaussian 90(TM) system (copyright 1990, Gaussian, Inc.),
 the Gaussian 88(TM) system (copyright 1988, Gaussian, Inc.),
 the Gaussian 86(TM) system (copyright 1986, Carnegie Mellon
 University), and the Gaussian 82(TM) system (copyright 1983,
 Carnegie Mellon University). Gaussian is a federally registered
 trademark of Gaussian, Inc.
  
 This software contains proprietary and confidential information,
 including trade secrets, belonging to Gaussian, Inc.
  
 This software is provided under written license and may be
 used, copied, transmitted, or stored only in accord with that
 written license.
  
 The following legend is applicable only to US Government
 contracts under FAR:
  
                    RESTRICTED RIGHTS LEGEND
  
 Use, reproduction and disclosure by the US Government is
 subject to restrictions as set forth in subparagraphs (a)
 and (c) of the Commercial Computer Software - Restricted
 Rights clause in FAR 52.227-19.
  
 Gaussian, Inc.
 340 Quinnipiac St., Bldg. 40, Wallingford CT 06492
  
  
 ---------------------------------------------------------------
 Warning -- This program may not be used in any manner that
 competes with the business of Gaussian, Inc. or will provide
 assistance to any competitor of Gaussian, Inc.  The licensee
 of this program is prohibited from giving any competitor of
 Gaussian, Inc. access to this program.  By using this program,
 the user acknowledges that Gaussian, Inc. is engaged in the
 business of creating and licensing software in the field of
 computational chemistry and represents and warrants to the
 licensee that it is not a competitor of Gaussian, Inc. and that
 it will not use this program in any manner prohibited above.
 ---------------------------------------------------------------
  

 Cite this work as:
 Gaussian 16, Revision A.03,
 M. J. Frisch, G. W. Trucks, H. B. Schlegel, G. E. Scuseria, 
 M. A. Robb, J. R. Cheeseman, G. Scalmani, V. Barone, 
 G. A. Petersson, H. Nakatsuji, X. Li, M. Caricato, A. V. Marenich, 
 J. Bloino, B. G. Janesko, R. Gomperts, B. Mennucci, H. P. Hratchian, 
 J. V. Ortiz, A. F. Izmaylov, J. L. Sonnenberg, D. Williams-Young, 
 F. Ding, F. Lipparini, F. Egidi, J. Goings, B. Peng, A. Petrone, 
 T. Henderson, D. Ranasinghe, V. G. Zakrzewski, J. Gao, N. Rega, 
 G. Zheng, W. Liang, M. Hada, M. Ehara, K. Toyota, R. Fukuda, 
 J. Hasegawa, M. Ishida, T. Nakajima, Y. Honda, O. Kitao, H. Nakai, 
 T. Vreven, K. Throssell, J. A. Montgomery, Jr., J. E. Peralta, 
 F. Ogliaro, M. J. Bearpark, J. J. Heyd, E. N. Brothers, K. N. Kudin, 
 V. N. Staroverov, T. A. Keith, R. Kobayashi, J. Normand, 
 K. Raghavachari, A. P. Rendell, J. C. Burant, S. S. Iyengar, 
 J. Tomasi, M. Cossi, J. M. Millam, M. Klene, C. Adamo, R. Cammi, 
 J. W. Ochterski, R. L. Martin, K. Morokuma, O. Farkas, 
 J. B. Foresman, and D. J. Fox, Gaussian, Inc., Wallingford CT, 2016.
 
 ******************************************
 Gaussian 16:  ES64L-G16RevA.03 25-Dec-2016
                18-Apr-2021 
 ******************************************
 %RWF=temp12_88687,70GB
 %nprocshared=48
 Will use up to   48 processors via shared memory.
 Default route: MaxDisk=80GB
 ----------------------------------------------------------------------
 #P M062X/Def2QZVP Integral=UltraFineGrid SCF=NoSymm Stable=(RExt, Opt)
  IOp(1/33=1)
 ----------------------------------------------------------------------
 1/33=1,38=1,172=1/1;
 2/12=2,17=6,18=5,40=1/2;
 3/5=45,7=101,11=2,25=1,30=1,74=-55,75=-5/1,2,3;
 4/9=2/1;
 5/5=2,38=5/2;
 6/7=2,8=2,9=2,10=2,28=1/1;
 8/6=1,10=90,11=11/1;
 9/8=-3,42=1,46=1/14;
 5/5=2,8=3,17=40,38=5/8(-2);
 6/7=2,8=2,9=2,10=2,28=1/1;
 99/5=1,9=1/99;
 Leave Link    1 at Sun Apr 18 04:05:45 2021, MaxMem=           0 cpu:               8.4 elap:               0.2
 (Enter /s/ls4/users/knvvv/bin/g16sse/l101.exe)
 ONIOM data not found on unit 2.
 ----------------------
 Database calculations.
 ----------------------
 TstMul:  ICh=     0
 TstMul:  Mul=     1
 TstMul:  ICh=     0
 TstMul:  Mul=     1
 Symbolic Z-matrix:
 Charge =  0 Multiplicity = 1
 N                     0.23064  -1.33964   0. 
 N                    -0.23064   1.33964   0. 
 F                     0.23064  -2.75246   0. 
 F                    -0.23064   2.75246   0. 
 H                     0.81003  -1.11774   0.80648 
 H                    -0.81003   1.11774   0.80648 
 H                     0.81003  -1.11774  -0.80648 
 H                    -0.81003   1.11774  -0.80648 
 
 RdStrC is calling ZToCFu for IStruc=1 NZ=     8.
 PrtBox:  NBox=     2 Levels=  2 BoxLen=    8.00 SMaxX=       10.40
          Shift=            1.530729            5.201403            1.524021
 Box      1 Number                   0 centers from      1 to      7:
 Box      2 Number                   2 centers from      8 to      8:
 After GenITR:
 ITRead=  0  0  0  0  0  0  0  0
 MicOpt= -1 -1 -1 -1 -1 -1 -1 -1
 ITRead=  0  0  0  0  0  0  0  0
 MicOpt= -1 -1 -1 -1 -1 -1 -1 -1
 NAtoms=      8 NQM=        8 NQMF=       0 NMMI=      0 NMMIF=      0
                NMic=       0 NMicF=      0.
                    Isotopes and Nuclear Properties:
 (Nuclear quadrupole moments (NQMom) in fm**2, nuclear magnetic moments (NMagM)
  in nuclear magnetons)

  Atom         1           2           3           4           5           6           7           8
 IAtWgt=          14          14          19          19           1           1           1           1
 AtmWgt=  14.0030740  14.0030740  18.9984033  18.9984033   1.0078250   1.0078250   1.0078250   1.0078250
 NucSpn=           2           2           1           1           1           1           1           1
 AtZEff=  -0.0000000  -0.0000000  -0.0000000  -0.0000000  -0.0000000  -0.0000000  -0.0000000  -0.0000000
 NQMom=    2.0440000   2.0440000   0.0000000   0.0000000   0.0000000   0.0000000   0.0000000   0.0000000
 NMagM=    0.4037610   0.4037610   2.6288670   2.6288670   2.7928460   2.7928460   2.7928460   2.7928460
 AtZNuc=   7.0000000   7.0000000   9.0000000   9.0000000   1.0000000   1.0000000   1.0000000   1.0000000
 No MM parameters found.
 Leave Link  101 at Sun Apr 18 04:05:45 2021, MaxMem=   104857600 cpu:               7.2 elap:               0.2
 (Enter /s/ls4/users/knvvv/bin/g16sse/l202.exe)
                          Input orientation:                          
 ---------------------------------------------------------------------
 Center     Atomic      Atomic             Coordinates (Angstroms)
 Number     Number       Type             X           Y           Z
 ---------------------------------------------------------------------
      1          7           0        0.230637   -1.339636    0.000000
      2          7           0       -0.230637    1.339636    0.000000
      3          9           0        0.230637   -2.752464    0.000000
      4          9           0       -0.230637    2.752464    0.000000
      5          1           0        0.810027   -1.117741    0.806477
      6          1           0       -0.810027    1.117741    0.806477
      7          1           0        0.810027   -1.117741   -0.806477
      8          1           0       -0.810027    1.117741   -0.806477
 ---------------------------------------------------------------------
                    Distance matrix (angstroms):
                    1          2          3          4          5
     1  N    0.000000
     2  N    2.718689   0.000000
     3  F    1.412828   4.118016   0.000000
     4  F    4.118016   1.412828   5.524220   0.000000
     5  H    1.017514   2.787847   1.912699   4.088016   0.000000
     6  H    2.787847   1.017514   4.088016   1.912699   2.760789
     7  H    1.017514   2.787847   1.912699   4.088016   1.612954
     8  H    2.787847   1.017514   4.088016   1.912699   3.197433
                    6          7          8
     6  H    0.000000
     7  H    3.197433   0.000000
     8  H    1.612954   2.760789   0.000000
 Stoichiometry    F2H4N2
 Framework group  C2H[SGH(F2N2),X(H4)]
 Deg. of freedom     6
 Full point group                 C2H     NOp   4
 Largest Abelian subgroup         C2H     NOp   4
 Largest concise Abelian subgroup C2H     NOp   4
                         Standard orientation:                         
 ---------------------------------------------------------------------
 Center     Atomic      Atomic             Coordinates (Angstroms)
 Number     Number       Type             X           Y           Z
 ---------------------------------------------------------------------
      1          7           0        0.230637   -1.339636   -0.000000
      2          7           0       -0.230637    1.339636   -0.000000
      3          9           0        0.230637   -2.752464   -0.000000
      4          9           0       -0.230637    2.752464   -0.000000
      5          1           0        0.810027   -1.117741    0.806477
      6          1           0       -0.810027    1.117741    0.806477
      7          1           0        0.810027   -1.117741   -0.806477
      8          1           0       -0.810027    1.117741   -0.806477
 ---------------------------------------------------------------------
 Rotational constants (GHZ):         103.4299944           1.4467548           1.4452746
 Leave Link  202 at Sun Apr 18 04:05:45 2021, MaxMem=   104857600 cpu:               7.3 elap:               0.2
 (Enter /s/ls4/users/knvvv/bin/g16sse/l301.exe)
 Standard basis: def2QZVP (5D, 7F)
 Ernie: Thresh=  0.10000D-02 Tol=  0.10000D-05 Strict=F.
 There are   131 symmetry adapted cartesian basis functions of AG  symmetry.
 There are    83 symmetry adapted cartesian basis functions of BG  symmetry.
 There are    83 symmetry adapted cartesian basis functions of AU  symmetry.
 There are   131 symmetry adapted cartesian basis functions of BU  symmetry.
 There are   104 symmetry adapted basis functions of AG  symmetry.
 There are    70 symmetry adapted basis functions of BG  symmetry.
 There are    70 symmetry adapted basis functions of AU  symmetry.
 There are   104 symmetry adapted basis functions of BU  symmetry.
   348 basis functions,   520 primitive gaussians,   428 cartesian basis functions
    18 alpha electrons       18 beta electrons
       nuclear repulsion energy       116.5489053729 Hartrees.
 IExCor= 4336 DFT=T Ex+Corr=M062X ExCW=0 ScaHFX=  0.540000
 ScaDFX=  1.000000  1.000000  1.000000  1.000000 ScalE2=  1.000000  1.000000
 IRadAn=      5 IRanWt=     -1 IRanGd=            0 ICorTp=0 IEmpDi=  4
 NAtoms=    8 NActive=    8 NUniq=    3 SFac= 4.00D+00 NAtFMM=   60 NAOKFM=F Big=F
 Integral buffers will be    131072 words long.
 Raffenetti 2 integral format.
 Two-electron integral symmetry is turned on.
 Leave Link  301 at Sun Apr 18 04:05:45 2021, MaxMem=   104857600 cpu:               6.3 elap:               0.2
 (Enter /s/ls4/users/knvvv/bin/g16sse/l302.exe)
 NPDir=0 NMtPBC=     1 NCelOv=     1 NCel=       1 NClECP=     1 NCelD=      1
         NCelK=      1 NCelE2=     1 NClLst=     1 CellRange=     0.0.
 One-electron integrals computed using PRISM.
 One-electron integral symmetry used in STVInt
 PrsmSu:  requested number of processors reduced to:   4 ShMem   1 Linda.
 PrsmSu:  requested number of processors reduced to:  21 ShMem   1 Linda.
   4 Symmetry operations used in ECPInt.
 ECPInt:  NShTT=    5886 NPrTT=   14376 LenC2=    5456 LenP2D=   11014.
 LDataN:  DoStor=T MaxTD1= 8 Len=  415
 Number of processors reduced to  22 by ecpmxn.
 NBasis=   348 RedAO= T EigKep=  1.46D-04  NBF=   104    70    70   104
 NBsUse=   348 1.00D-06 EigRej= -1.00D+00 NBFU=   104    70    70   104
 Precomputing XC quadrature grid using
 IXCGrd= 4 IRadAn=           5 IRanWt=          -1 IRanGd=           0 AccXCQ= 0.00D+00.
 Generated NRdTot=       0 NPtTot=           0 NUsed=           0 NTot=          32
 NSgBfM=   416   415   415   415   416 MxSgAt=     8 MxSgA2=     8.
 Leave Link  302 at Sun Apr 18 04:06:03 2021, MaxMem=   104857600 cpu:             812.5 elap:              17.4
 (Enter /s/ls4/users/knvvv/bin/g16sse/l303.exe)
 DipDrv:  MaxL=1.
 Leave Link  303 at Sun Apr 18 04:06:05 2021, MaxMem=   104857600 cpu:             107.6 elap:               2.3
 (Enter /s/ls4/users/knvvv/bin/g16sse/l401.exe)
 SCF N**3 symmetry information disabled.
 ExpMin= 8.03D-02 ExpMax= 1.33D+05 ExpMxC= 1.27D+03 IAcc=3 IRadAn=         5 AccDes= 0.00D+00
 Harris functional with IExCor= 1009 and IRadAn=       5 diagonalized for initial guess.
 HarFok:  IExCor= 1009 AccDes= 0.00D+00 IRadAn=         5 IDoV= 1 UseB2=F ITyADJ=14
 ICtDFT=  3500011 ScaDFX=  1.000000  1.000000  1.000000  1.000000
 FoFCou: FMM=F IPFlag=           0 FMFlag=      100000 FMFlg1=           0
         NFxFlg=           0 DoJE=T BraDBF=F KetDBF=T FulRan=T
         wScrn=  0.000000 ICntrl=       500 IOpCl=  0 I1Cent=   200000004 NGrid=           0
         NMat0=    1 NMatS0=      1 NMatT0=    0 NMatD0=    1 NMtDS0=    0 NMtDT0=    0
 Petite list used in FoFCou.
 CoulSu:  requested number of processors reduced to:  20 ShMem   1 Linda.
 CoulSu:  requested number of processors reduced to:  20 ShMem   1 Linda.
 CoulSu:  requested number of processors reduced to:  21 ShMem   1 Linda.
 CoulSu:  requested number of processors reduced to:  21 ShMem   1 Linda.
 Harris En= -311.296741265479    
 JPrj=0 DoOrth=F DoCkMO=F.
 Initial guess orbital symmetries:
       Occupied  (BU) (AG) (BU) (AG) (AG) (BU) (AG) (BU) (AU) (BG)
                 (AG) (BU) (AG) (BU) (AU) (BG) (AG) (BU)
       Virtual   (AG) (BU) (AG) (BU) (AU) (BG) (BU) (AG) (BG) (AU)
                 (AG) (BU) (AG) (AU) (BU) (BG) (AG) (BU) (AU) (AG)
                 (BU) (BG) (AG) (BU) (BU) (AU) (AG) (BG) (BU) (AU)
                 (BG) (AG) (AU) (AG) (BG) (BU) (AU) (AG) (BG) (AG)
                 (BU) (AG) (BU) (AG) (BG) (BU) (AU) (AU) (BU) (BG)
                 (AG) (BU) (BU) (AG) (AG) (BG) (BU) (AU) (BU) (AG)
                 (AU) (AG) (BU) (BG) (AU) (BU) (AG) (BG) (AG) (BU)
                 (AU) (BU) (BG) (AG) (AU) (BG) (AU) (BG) (AG) (BU)
                 (AU) (BU) (BG) (AG) (AG) (AU) (BU) (BG) (BU) (BG)
                 (AG) (AU) (AG) (BU) (AG) (BU) (BG) (AU) (BU) (AG)
                 (AU) (BG) (AG) (BU) (AU) (AG) (BG) (AU) (BU) (AG)
                 (BG) (BU) (BU) (AG) (BU) (AG) (AU) (BU) (BG) (AG)
                 (BU) (AG) (AU) (AG) (BG) (BU) (BG) (AU) (AU) (BG)
                 (AG) (BU) (BU) (AG) (AU) (BG) (AG) (BU) (AG) (BU)
                 (AG) (BU) (BG) (AU) (AG) (BU) (BG) (AU) (BU) (AG)
                 (AU) (BG) (AG) (BU) (AU) (BG) (BU) (AG) (BU) (AG)
                 (BG) (AU) (AG) (BU) (BU) (AU) (AG) (BG) (AU) (BG)
                 (BG) (AU) (BU) (AG) (BG) (BU) (AU) (AG) (BU) (AG)
                 (AU) (BG) (AG) (BU) (AG) (AU) (BU) (AU) (BG) (BG)
                 (AG) (AU) (BG) (BU) (BU) (AG) (AG) (AU) (BU) (BG)
                 (AG) (BU) (BU) (AG) (BG) (AU) (BG) (AU) (BU) (BU)
                 (AG) (AG) (AU) (BG) (AG) (AU) (BU) (BU) (AG) (BG)
                 (BG) (AU) (AG) (BU) (AU) (BG) (BU) (AG) (AU) (AG)
                 (BG) (BU) (BG) (AU) (BU) (AG) (BU) (AG) (BG) (AU)
                 (AG) (BU) (AG) (BU) (BG) (AU) (AG) (BU) (BU) (AG)
                 (AU) (BG) (BG) (AU) (BU) (AG) (AU) (BG) (BU) (AG)
                 (AG) (BU) (BU) (BG) (AG) (AU) (BU) (AG) (AU) (BG)
                 (AU) (BG) (BU) (AG) (AG) (BU) (BU) (AG) (BG) (AU)
                 (BU) (AG) (BG) (AU) (AU) (BG) (BU) (AG) (AU) (BG)
                 (AG) (BU) (BG) (AU) (AU) (BG) (BU) (AG) (BU) (AG)
                 (BG) (AU) (BU) (AG) (AG) (BU) (AU) (BG) (BU) (AG)
                 (AG) (BU) (AU) (BG) (BU) (AG) (BG) (AU) (BU) (AG)
                 (AG) (BU) (BU) (AG) (AG) (BU) (BU) (AG) (AG) (BU)
 The electronic state of the initial guess is 1-AG.
 Leave Link  401 at Sun Apr 18 04:06:06 2021, MaxMem=   104857600 cpu:              40.0 elap:               1.1
 (Enter /s/ls4/users/knvvv/bin/g16sse/l502.exe)
 Integral symmetry usage will be decided dynamically.
 Closed shell SCF:
 Using DIIS extrapolation, IDIIS=  1040.
 NGot=   104857600 LenX=   104464608 LenY=   104280983
 Requested convergence on RMS density matrix=1.00D-08 within 128 cycles.
 Requested convergence on MAX density matrix=1.00D-06.
 Requested convergence on             energy=1.00D-06.
 No special actions if energy rises.
 Fock matrices will be formed incrementally for  20 cycles.
 Integral accuracy reduced to 1.0D-05 until final iterations.

 Cycle   1  Pass 0  IDiag  1:
 FoFJK:  IHMeth= 1 ICntrl=       0 DoSepK=F KAlg= 0 I1Cent=           0 FoldK=F
 IRaf= 890000000 NMat=       1 IRICut=       1 DoRegI=T DoRafI=F ISym2E= 1 IDoP0=0 IntGTp=1.
 FoFCou: FMM=F IPFlag=           0 FMFlag=      100000 FMFlg1=           0
         NFxFlg=           0 DoJE=F BraDBF=F KetDBF=F FulRan=T
         wScrn=  0.000000 ICntrl=         0 IOpCl=  0 I1Cent=           0 NGrid=           0
         NMat0=    1 NMatS0=      1 NMatT0=    0 NMatD0=    1 NMtDS0=    0 NMtDT0=    0
 Petite list used in FoFCou.
 CoulSu:  requested number of processors reduced to:  21 ShMem   1 Linda.
 E= -311.431412503137    
 DIIS: error= 3.21D-02 at cycle   1 NSaved=   1.
 NSaved= 1 IEnMin= 1 EnMin= -311.431412503137     IErMin= 1 ErrMin= 3.21D-02
 ErrMax= 3.21D-02  0.00D+00 EMaxC= 1.00D-01 BMatC= 1.80D-01 BMatP= 1.80D-01
 IDIUse=3 WtCom= 6.79D-01 WtEn= 3.21D-01
 Coeff-Com:  0.100D+01
 Coeff-En:   0.100D+01
 Coeff:      0.100D+01
 Gap=     0.433 Goal=   None    Shift=    0.000
 GapD=    0.433 DampG=2.000 DampE=0.500 DampFc=1.0000 IDamp=-1.
 RMSDP=6.00D-04 MaxDP=2.21D-02              OVMax= 6.11D-02

 Cycle   2  Pass 0  IDiag  1:
 RMSU=  5.99D-04    CP:  9.96D-01
 CoulSu:  requested number of processors reduced to:  21 ShMem   1 Linda.
 E= -311.458112943154     Delta-E=       -0.026700440016 Rises=F Damp=F
 DIIS: error= 1.48D-02 at cycle   2 NSaved=   2.
 NSaved= 2 IEnMin= 2 EnMin= -311.458112943154     IErMin= 2 ErrMin= 1.48D-02
 ErrMax= 1.48D-02  0.00D+00 EMaxC= 1.00D-01 BMatC= 2.73D-02 BMatP= 1.80D-01
 IDIUse=3 WtCom= 8.52D-01 WtEn= 1.48D-01
 Coeff-Com:  0.215D+00 0.785D+00
 Coeff-En:   0.181D+00 0.819D+00
 Coeff:      0.210D+00 0.790D+00
 Gap=     0.415 Goal=   None    Shift=    0.000
 RMSDP=3.59D-04 MaxDP=1.69D-02 DE=-2.67D-02 OVMax= 4.25D-02

 Cycle   3  Pass 0  IDiag  1:
 RMSU=  3.17D-04    CP:  1.00D+00  7.24D-01
 CoulSu:  requested number of processors reduced to:  21 ShMem   1 Linda.
 E= -311.471729455361     Delta-E=       -0.013616512207 Rises=F Damp=F
 DIIS: error= 8.59D-03 at cycle   3 NSaved=   3.
 NSaved= 3 IEnMin= 3 EnMin= -311.471729455361     IErMin= 3 ErrMin= 8.59D-03
 ErrMax= 8.59D-03  0.00D+00 EMaxC= 1.00D-01 BMatC= 7.34D-03 BMatP= 2.73D-02
 IDIUse=3 WtCom= 9.14D-01 WtEn= 8.59D-02
 Coeff-Com:  0.165D-01 0.341D+00 0.643D+00
 Coeff-En:   0.000D+00 0.172D+00 0.828D+00
 Coeff:      0.151D-01 0.326D+00 0.658D+00
 Gap=     0.393 Goal=   None    Shift=    0.000
 RMSDP=1.22D-04 MaxDP=6.15D-03 DE=-1.36D-02 OVMax= 1.62D-02

 Cycle   4  Pass 0  IDiag  1:
 RMSU=  5.14D-05    CP:  1.00D+00  8.07D-01  6.91D-01
 CoulSu:  requested number of processors reduced to:  21 ShMem   1 Linda.
 E= -311.476778087015     Delta-E=       -0.005048631654 Rises=F Damp=F
 DIIS: error= 1.28D-03 at cycle   4 NSaved=   4.
 NSaved= 4 IEnMin= 4 EnMin= -311.476778087015     IErMin= 4 ErrMin= 1.28D-03
 ErrMax= 1.28D-03  0.00D+00 EMaxC= 1.00D-01 BMatC= 5.73D-04 BMatP= 7.34D-03
 IDIUse=3 WtCom= 9.87D-01 WtEn= 1.28D-02
 Coeff-Com:  0.220D-02 0.151D+00 0.337D+00 0.510D+00
 Coeff-En:   0.000D+00 0.000D+00 0.000D+00 0.100D+01
 Coeff:      0.218D-02 0.149D+00 0.333D+00 0.516D+00
 Gap=     0.393 Goal=   None    Shift=    0.000
 RMSDP=2.87D-05 MaxDP=1.18D-03 DE=-5.05D-03 OVMax= 4.63D-03

 Cycle   5  Pass 0  IDiag  1:
 RMSU=  2.01D-05    CP:  1.00D+00  8.08D-01  7.24D-01  6.57D-01
 CoulSu:  requested number of processors reduced to:  21 ShMem   1 Linda.
 E= -311.477093471419     Delta-E=       -0.000315384404 Rises=F Damp=F
 DIIS: error= 2.93D-04 at cycle   5 NSaved=   5.
 NSaved= 5 IEnMin= 5 EnMin= -311.477093471419     IErMin= 5 ErrMin= 2.93D-04
 ErrMax= 2.93D-04  0.00D+00 EMaxC= 1.00D-01 BMatC= 2.30D-05 BMatP= 5.73D-04
 IDIUse=3 WtCom= 9.97D-01 WtEn= 2.93D-03
 Coeff-Com: -0.102D-02 0.384D-01 0.968D-01 0.229D+00 0.637D+00
 Coeff-En:   0.000D+00 0.000D+00 0.000D+00 0.000D+00 0.100D+01
 Coeff:     -0.102D-02 0.383D-01 0.965D-01 0.228D+00 0.638D+00
 Gap=     0.393 Goal=   None    Shift=    0.000
 RMSDP=5.35D-06 MaxDP=2.24D-04 DE=-3.15D-04 OVMax= 8.70D-04

 Initial convergence to 1.0D-05 achieved.  Increase integral accuracy.
 Cycle   6  Pass 1  IDiag  1:
 CoulSu:  requested number of processors reduced to:  21 ShMem   1 Linda.
 E= -311.477118947296     Delta-E=       -0.000025475877 Rises=F Damp=F
 DIIS: error= 7.03D-05 at cycle   1 NSaved=   1.
 NSaved= 1 IEnMin= 1 EnMin= -311.477118947296     IErMin= 1 ErrMin= 7.03D-05
 ErrMax= 7.03D-05  0.00D+00 EMaxC= 1.00D-01 BMatC= 1.18D-06 BMatP= 1.18D-06
 IDIUse=1 WtCom= 1.00D+00 WtEn= 0.00D+00
 Coeff-Com:  0.100D+01
 Coeff:      0.100D+01
 Gap=     0.393 Goal=   None    Shift=    0.000
 RMSDP=5.35D-06 MaxDP=2.24D-04 DE=-2.55D-05 OVMax= 1.51D-04

 Cycle   7  Pass 1  IDiag  1:
 RMSU=  1.48D-05    CP:  1.00D+00
 CoulSu:  requested number of processors reduced to:  21 ShMem   1 Linda.
 E= -311.477119349923     Delta-E=       -0.000000402627 Rises=F Damp=F
 DIIS: error= 2.58D-05 at cycle   2 NSaved=   2.
 NSaved= 2 IEnMin= 2 EnMin= -311.477119349923     IErMin= 2 ErrMin= 2.58D-05
 ErrMax= 2.58D-05  0.00D+00 EMaxC= 1.00D-01 BMatC= 1.88D-07 BMatP= 1.18D-06
 IDIUse=1 WtCom= 1.00D+00 WtEn= 0.00D+00
 Coeff-Com:  0.185D+00 0.815D+00
 Coeff:      0.185D+00 0.815D+00
 Gap=     0.393 Goal=   None    Shift=    0.000
 RMSDP=1.10D-06 MaxDP=3.61D-05 DE=-4.03D-07 OVMax= 1.28D-04

 Cycle   8  Pass 1  IDiag  1:
 RMSU=  1.05D-06    CP:  1.00D+00  1.02D+00
 CoulSu:  requested number of processors reduced to:  21 ShMem   1 Linda.
 E= -311.477119382813     Delta-E=       -0.000000032890 Rises=F Damp=F
 DIIS: error= 2.21D-05 at cycle   3 NSaved=   3.
 NSaved= 3 IEnMin= 3 EnMin= -311.477119382813     IErMin= 3 ErrMin= 2.21D-05
 ErrMax= 2.21D-05  0.00D+00 EMaxC= 1.00D-01 BMatC= 1.37D-07 BMatP= 1.88D-07
 IDIUse=1 WtCom= 1.00D+00 WtEn= 0.00D+00
 Coeff-Com: -0.203D-01 0.461D+00 0.559D+00
 Coeff:     -0.203D-01 0.461D+00 0.559D+00
 Gap=     0.393 Goal=   None    Shift=    0.000
 RMSDP=3.94D-07 MaxDP=1.73D-05 DE=-3.29D-08 OVMax= 6.45D-05

 Cycle   9  Pass 1  IDiag  1:
 RMSU=  2.60D-07    CP:  1.00D+00  1.03D+00  7.41D-01
 CoulSu:  requested number of processors reduced to:  21 ShMem   1 Linda.
 E= -311.477119456366     Delta-E=       -0.000000073553 Rises=F Damp=F
 DIIS: error= 4.32D-06 at cycle   4 NSaved=   4.
 NSaved= 4 IEnMin= 4 EnMin= -311.477119456366     IErMin= 4 ErrMin= 4.32D-06
 ErrMax= 4.32D-06  0.00D+00 EMaxC= 1.00D-01 BMatC= 2.03D-09 BMatP= 1.37D-07
 IDIUse=1 WtCom= 1.00D+00 WtEn= 0.00D+00
 Coeff-Com: -0.125D-01 0.173D+00 0.232D+00 0.607D+00
 Coeff:     -0.125D-01 0.173D+00 0.232D+00 0.607D+00
 Gap=     0.393 Goal=   None    Shift=    0.000
 RMSDP=7.47D-08 MaxDP=2.98D-06 DE=-7.36D-08 OVMax= 8.76D-06

 Cycle  10  Pass 1  IDiag  1:
 RMSU=  7.14D-08    CP:  1.00D+00  1.03D+00  7.59D-01  9.91D-01
 CoulSu:  requested number of processors reduced to:  21 ShMem   1 Linda.
 E= -311.477119457849     Delta-E=       -0.000000001483 Rises=F Damp=F
 DIIS: error= 8.04D-07 at cycle   5 NSaved=   5.
 NSaved= 5 IEnMin= 5 EnMin= -311.477119457849     IErMin= 5 ErrMin= 8.04D-07
 ErrMax= 8.04D-07  0.00D+00 EMaxC= 1.00D-01 BMatC= 1.01D-10 BMatP= 2.03D-09
 IDIUse=1 WtCom= 1.00D+00 WtEn= 0.00D+00
 Coeff-Com: -0.697D-03-0.226D-01-0.264D-01 0.124D+00 0.926D+00
 Coeff:     -0.697D-03-0.226D-01-0.264D-01 0.124D+00 0.926D+00
 Gap=     0.393 Goal=   None    Shift=    0.000
 RMSDP=3.60D-08 MaxDP=1.98D-06 DE=-1.48D-09 OVMax= 4.80D-06

 Cycle  11  Pass 1  IDiag  1:
 RMSU=  1.96D-08    CP:  1.00D+00  1.03D+00  7.73D-01  1.09D+00  1.05D+00
 CoulSu:  requested number of processors reduced to:  21 ShMem   1 Linda.
 E= -311.477119457948     Delta-E=       -0.000000000099 Rises=F Damp=F
 DIIS: error= 1.53D-07 at cycle   6 NSaved=   6.
 NSaved= 6 IEnMin= 6 EnMin= -311.477119457948     IErMin= 6 ErrMin= 1.53D-07
 ErrMax= 1.53D-07  0.00D+00 EMaxC= 1.00D-01 BMatC= 5.44D-12 BMatP= 1.01D-10
 IDIUse=1 WtCom= 1.00D+00 WtEn= 0.00D+00
 Coeff-Com:  0.771D-03-0.157D-01-0.192D-01-0.236D-01 0.156D+00 0.902D+00
 Coeff:      0.771D-03-0.157D-01-0.192D-01-0.236D-01 0.156D+00 0.902D+00
 Gap=     0.393 Goal=   None    Shift=    0.000
 RMSDP=9.16D-09 MaxDP=4.15D-07 DE=-9.91D-11 OVMax= 1.62D-06

 SCF Done:  E(RM062X) =  -311.477119458     A.U. after   11 cycles
            NFock= 11  Conv=0.92D-08     -V/T= 2.0031
 KE= 3.105068198611D+02 PE=-9.720676490596D+02 EE= 2.335348043677D+02
 Leave Link  502 at Sun Apr 18 04:06:38 2021, MaxMem=   104857600 cpu:            1215.4 elap:              31.4
 (Enter /s/ls4/users/knvvv/bin/g16sse/l601.exe)
 Copying SCF densities to generalized density rwf, IOpCl= 0 IROHF=0.

 **********************************************************************

            Population analysis using the SCF density.

 **********************************************************************

 Orbital symmetries:
       Occupied  (BU) (AG) (BU) (AG) (AG) (BU) (AG) (BU) (AU) (BG)
                 (AG) (BU) (AG) (BU) (AU) (BG) (AG) (BU)
       Virtual   (AG) (AG) (BU) (AU) (BG) (BU) (BU) (AG) (BG) (AU)
                 (AG) (BU) (AU) (AG) (BU) (BG) (AG) (BU) (AU) (AG)
                 (BU) (BG) (AG) (BU) (BU) (AU) (AG) (BG) (BU) (AU)
                 (BG) (AG) (AU) (AG) (BG) (BU) (AU) (AG) (BG) (AG)
                 (AG) (BU) (BU) (BG) (BU) (AG) (AU) (BU) (AG) (BG)
                 (AU) (BU) (BU) (AG) (AG) (BG) (AU) (BU) (BU) (AG)
                 (AU) (AG) (BG) (BU) (AU) (BU) (AG) (BG) (AG) (BU)
                 (AU) (BU) (BG) (AG) (AU) (BG) (AU) (BG) (AG) (BU)
                 (AU) (BU) (BG) (AG) (AG) (BU) (AU) (BU) (BG) (BG)
                 (AG) (AU) (AG) (AG) (BU) (BU) (AU) (BG) (BU) (AG)
                 (AU) (BG) (AG) (BU) (AU) (AG) (BG) (AU) (BU) (AG)
                 (BG) (BU) (BU) (AG) (BU) (AG) (AU) (BG) (BU) (AG)
                 (AG) (BU) (AU) (BG) (AG) (BU) (BG) (AU) (AU) (BG)
                 (BU) (AG) (AG) (BU) (AU) (BG) (AG) (BU) (AG) (BU)
                 (AG) (BU) (BG) (AU) (AG) (BU) (BG) (AU) (BU) (AG)
                 (AU) (BG) (AG) (BU) (AU) (BG) (BU) (AG) (BU) (AG)
                 (BG) (AU) (AG) (BU) (AU) (BG) (BU) (AG) (AU) (BG)
                 (BG) (AU) (BU) (AG) (BU) (AU) (BG) (AG) (BU) (AG)
                 (AU) (BG) (BU) (AG) (AU) (AG) (BG) (AU) (BU) (BG)
                 (AG) (AU) (BG) (BU) (BU) (AG) (AG) (AU) (BG) (BU)
                 (AG) (BU) (BU) (BG) (AG) (AU) (BG) (BU) (AU) (BU)
                 (AG) (AU) (AG) (BG) (AG) (AU) (BU) (BU) (AG) (BG)
                 (AU) (BG) (AG) (BU) (AU) (BG) (BU) (AG) (AG) (AU)
                 (BG) (BU) (AU) (BG) (BU) (AG) (BU) (AG) (BG) (AU)
                 (AG) (BU) (AG) (BU) (BG) (AU) (BU) (AG) (BU) (AG)
                 (BG) (AU) (AU) (BG) (BU) (AG) (AU) (BG) (BU) (AG)
                 (AG) (BU) (BU) (BG) (AG) (AU) (BU) (AG) (BU) (AG)
                 (AU) (BG) (AU) (BG) (BU) (AG) (BU) (AG) (BG) (AU)
                 (AU) (BG) (BU) (AG) (AU) (BG) (BU) (AG) (AU) (BG)
                 (AG) (BU) (BG) (AU) (BG) (AU) (BU) (AG) (BU) (AG)
                 (BU) (AG) (BG) (AU) (AG) (BU) (AU) (BG) (BU) (AG)
                 (AG) (BU) (AU) (BG) (BU) (AG) (BG) (AU) (BU) (AG)
                 (AG) (BU) (BU) (AG) (AG) (BU) (BU) (AG) (AG) (BU)
 The electronic state is 1-AG.
 Alpha  occ. eigenvalues --  -25.25449 -25.25449 -14.83735 -14.83735  -1.36094
 Alpha  occ. eigenvalues --   -1.36076  -0.96670  -0.95306  -0.63220  -0.62524
 Alpha  occ. eigenvalues --   -0.60923  -0.60306  -0.55708  -0.54680  -0.47951
 Alpha  occ. eigenvalues --   -0.47306  -0.37438  -0.36762
 Alpha virt. eigenvalues --    0.02530   0.06377   0.06619   0.06696   0.09775
 Alpha virt. eigenvalues --    0.11601   0.20104   0.23684   0.23710   0.26171
 Alpha virt. eigenvalues --    0.27915   0.29178   0.33950   0.34639   0.36249
 Alpha virt. eigenvalues --    0.37108   0.37271   0.38689   0.39067   0.41764
 Alpha virt. eigenvalues --    0.45082   0.46486   0.46784   0.50763   0.56331
 Alpha virt. eigenvalues --    0.57727   0.59205   0.62026   0.69337   0.69732
 Alpha virt. eigenvalues --    0.76680   0.79400   0.80478   0.84346   0.87224
 Alpha virt. eigenvalues --    0.91877   0.94072   0.96418   0.98329   1.00304
 Alpha virt. eigenvalues --    1.02603   1.03252   1.05363   1.06385   1.10417
 Alpha virt. eigenvalues --    1.10924   1.15891   1.17406   1.17881   1.19806
 Alpha virt. eigenvalues --    1.20220   1.32286   1.36043   1.40521   1.50489
 Alpha virt. eigenvalues --    1.51779   1.52270   1.53248   1.57941   1.58715
 Alpha virt. eigenvalues --    1.63107   1.72096   1.72751   1.73609   1.73795
 Alpha virt. eigenvalues --    1.74349   1.74616   1.79149   1.80181   1.80881
 Alpha virt. eigenvalues --    1.96774   1.99554   2.03714   2.05378   2.09429
 Alpha virt. eigenvalues --    2.14284   2.17256   2.17867   2.20383   2.23124
 Alpha virt. eigenvalues --    2.23154   2.24095   2.24812   2.27807   2.34001
 Alpha virt. eigenvalues --    2.41001   2.41399   2.43013   2.43036   2.45971
 Alpha virt. eigenvalues --    2.47052   2.48700   2.51622   2.56214   2.57733
 Alpha virt. eigenvalues --    2.58828   2.63858   2.64159   2.75073   2.79549
 Alpha virt. eigenvalues --    2.82312   2.83079   2.87062   2.87385   2.87405
 Alpha virt. eigenvalues --    2.93797   2.99799   3.01682   3.03436   3.03506
 Alpha virt. eigenvalues --    3.10155   3.12805   3.16018   3.17462   3.26374
 Alpha virt. eigenvalues --    3.30080   3.32354   3.37479   3.38725   3.42125
 Alpha virt. eigenvalues --    3.60742   3.61367   3.66955   3.74179   3.75165
 Alpha virt. eigenvalues --    3.76747   3.78847   3.86641   3.96742   3.98623
 Alpha virt. eigenvalues --    4.12549   4.14149   4.17505   4.21151   4.24736
 Alpha virt. eigenvalues --    4.25028   4.29690   4.30718   4.43007   4.45629
 Alpha virt. eigenvalues --    4.47278   4.61173   4.62588   4.64937   4.72621
 Alpha virt. eigenvalues --    4.74417   4.79977   4.82153   4.91063   4.91921
 Alpha virt. eigenvalues --    5.00066   5.04103   5.12470   5.13750   5.18443
 Alpha virt. eigenvalues --    5.19319   5.32883   5.32984   5.47241   5.47334
 Alpha virt. eigenvalues --    5.53753   5.56793   5.62556   5.63700   5.78408
 Alpha virt. eigenvalues --    5.79819   5.80612   5.83178   5.86457   5.86984
 Alpha virt. eigenvalues --    5.97061   5.97568   6.21622   6.22817   6.31805
 Alpha virt. eigenvalues --    6.33307   6.33518   6.33805   6.35586   6.37069
 Alpha virt. eigenvalues --    6.48778   6.50731   6.55964   6.56735   6.60013
 Alpha virt. eigenvalues --    6.65896   6.67215   6.70071   6.71700   6.78772
 Alpha virt. eigenvalues --    6.79164   6.79171   6.81376   6.88184   6.99618
 Alpha virt. eigenvalues --    7.00267   7.13360   7.14037   7.14762   7.17202
 Alpha virt. eigenvalues --    7.18234   7.21244   7.36584   7.37817   7.39605
 Alpha virt. eigenvalues --    7.46119   7.52538   7.55965   7.56043   7.58940
 Alpha virt. eigenvalues --    7.61894   7.66971   7.67858   7.73270   7.75242
 Alpha virt. eigenvalues --    7.78650   7.80803   7.83363   7.85426   7.90537
 Alpha virt. eigenvalues --    7.93948   7.97637   8.05037   8.05697   8.13653
 Alpha virt. eigenvalues --    8.14678   8.16439   8.16917   8.24549   8.25140
 Alpha virt. eigenvalues --    8.26109   8.28515   8.41221   8.41888   8.43730
 Alpha virt. eigenvalues --    8.48458   8.70018   8.70058   8.71728   8.72217
 Alpha virt. eigenvalues --    8.82763   8.86046   8.86645   8.88623   8.88857
 Alpha virt. eigenvalues --    8.91140   9.16091   9.16583   9.31529   9.31922
 Alpha virt. eigenvalues --    9.33319   9.33502   9.38027   9.39089   9.42892
 Alpha virt. eigenvalues --    9.48518   9.55512   9.59698   9.89057   9.91916
 Alpha virt. eigenvalues --   10.13595  10.18180  10.82642  10.83571  10.84512
 Alpha virt. eigenvalues --   10.84713  11.24598  11.27054  11.29009  11.29145
 Alpha virt. eigenvalues --   11.31134  11.31236  11.35062  11.35122  11.35680
 Alpha virt. eigenvalues --   11.35827  11.39930  11.40589  11.41935  11.42841
 Alpha virt. eigenvalues --   11.52210  11.53192  11.55903  11.56008  11.66148
 Alpha virt. eigenvalues --   11.66829  12.01152  12.02113  12.04915  12.05370
 Alpha virt. eigenvalues --   12.29039  12.29598  14.02599  14.02748  14.45276
 Alpha virt. eigenvalues --   14.45281  14.46820  14.47047  14.57096  14.60672
 Alpha virt. eigenvalues --   14.64124  14.65208  14.68431  14.68513  14.95626
 Alpha virt. eigenvalues --   15.00898  15.21638  15.22584  15.23697  15.23895
 Alpha virt. eigenvalues --   15.74225  15.74489  15.77499  15.78520  16.01452
 Alpha virt. eigenvalues --   16.01454  16.07794  16.08246  16.17050  16.18924
 Alpha virt. eigenvalues --   16.55130  16.55969  37.79083  37.80770  54.51908
 Alpha virt. eigenvalues --   54.55792 195.26652 195.29806 283.43953 283.48901
          Condensed to atoms (all electrons):
               1          2          3          4          5          6
     1  N    6.519244   0.017925   0.105598  -0.000507   0.353255  -0.000252
     2  N    0.017925   6.519244  -0.000507   0.105598  -0.000252   0.353255
     3  F    0.105598  -0.000507   9.197376  -0.000007  -0.040322  -0.000126
     4  F   -0.000507   0.105598  -0.000007   9.197376  -0.000126  -0.040322
     5  H    0.353255  -0.000252  -0.040322  -0.000126   0.439035   0.000159
     6  H   -0.000252   0.353255  -0.000126  -0.040322   0.000159   0.439035
     7  H    0.353255  -0.000252  -0.040322  -0.000126  -0.036081  -0.000584
     8  H   -0.000252   0.353255  -0.000126  -0.040322  -0.000584  -0.036081
               7          8
     1  N    0.353255  -0.000252
     2  N   -0.000252   0.353255
     3  F   -0.040322  -0.000126
     4  F   -0.000126  -0.040322
     5  H   -0.036081  -0.000584
     6  H   -0.000584  -0.036081
     7  H    0.439035   0.000159
     8  H    0.000159   0.439035
 Mulliken charges:
               1
     1  N   -0.348266
     2  N   -0.348266
     3  F   -0.221565
     4  F   -0.221565
     5  H    0.284915
     6  H    0.284915
     7  H    0.284915
     8  H    0.284915
 Sum of Mulliken charges =  -0.00000
 Mulliken charges with hydrogens summed into heavy atoms:
               1
     1  N    0.221565
     2  N    0.221565
     3  F   -0.221565
     4  F   -0.221565
 Electronic spatial extent (au):  <R**2>=            676.2989
 Charge=             -0.0000 electrons
 Dipole moment (field-independent basis, Debye):
    X=              0.0000    Y=              0.0000    Z=             -0.0000  Tot=              0.0000
 Quadrupole moment (field-independent basis, Debye-Ang):
   XX=            -21.6520   YY=            -35.2730   ZZ=            -19.7506
   XY=             -2.9508   XZ=             -0.0000   YZ=              0.0000
 Traceless Quadrupole moment (field-independent basis, Debye-Ang):
   XX=              3.9065   YY=             -9.7144   ZZ=              5.8079
   XY=             -2.9508   XZ=             -0.0000   YZ=              0.0000
 Octapole moment (field-independent basis, Debye-Ang**2):
  XXX=             -0.0000  YYY=             -0.0000  ZZZ=             -0.0000  XYY=              0.0000
  XXY=              0.0000  XXZ=             -0.0000  XZZ=             -0.0000  YZZ=              0.0000
  YYZ=             -0.0000  XYZ=              0.0000
 Hexadecapole moment (field-independent basis, Debye-Ang**3):
 XXXX=            -34.5399 YYYY=           -710.1028 ZZZZ=            -22.6826 XXXY=             33.2199
 XXXZ=             -0.0000 YYYX=             42.0950 YYYZ=             -0.0000 ZZZX=             -0.0000
 ZZZY=              0.0000 XXYY=           -107.1147 XXZZ=             -7.3403 YYZZ=           -101.3361
 XXYZ=              0.0000 YYXZ=              0.0000 ZZXY=              7.8864
 N-N= 1.165489053729D+02 E-N=-9.720676410058D+02  KE= 3.105068198611D+02
 PrsmSu:  requested number of processors reduced to:  21 ShMem   1 Linda.
 No NMR shielding tensors so no spin-rotation constants.
 Leave Link  601 at Sun Apr 18 04:06:44 2021, MaxMem=   104857600 cpu:             286.6 elap:               6.2
 (Enter /s/ls4/users/knvvv/bin/g16sse/l801.exe)
 DoSCS=F DFT=T ScalE2(SS,OS)=  1.000000  1.000000
 Range of M.O.s used for correlation:     1   348
 NBasis=   348 NAE=    18 NBE=    18 NFC=     0 NFV=     0
 NROrb=    348 NOA=    18 NOB=    18 NVA=   330 NVB=   330

 **** Warning!!: The largest alpha MO coefficient is  0.13627537D+02

 Leave Link  801 at Sun Apr 18 04:06:44 2021, MaxMem=   104857600 cpu:               4.0 elap:               0.1
 (Enter /s/ls4/users/knvvv/bin/g16sse/l914.exe)
 RHF ground state
 Doing stability rather than CIS.
 Two-electron integrals replicated using symmetry.
 MDV=   104857600 DFT=T DoStab=T Mixed=T DoRPA=F DoScal=F NonHer=F
 Making orbital integer symmetry assigments:
 Orbital symmetries:
       Occupied  (BU) (AG) (BU) (AG) (AG) (BU) (AG) (BU) (AU) (BG)
                 (AG) (BU) (AG) (BU) (AU) (BG) (AG) (BU)
       Virtual   (AG) (AG) (BU) (AU) (BG) (BU) (BU) (AG) (BG) (AU)
                 (AG) (BU) (AU) (AG) (BU) (BG) (AG) (BU) (AU) (AG)
                 (BU) (BG) (AG) (BU) (BU) (AU) (AG) (BG) (BU) (AU)
                 (BG) (AG) (AU) (AG) (BG) (BU) (AU) (AG) (BG) (AG)
                 (AG) (BU) (BU) (BG) (BU) (AG) (AU) (BU) (AG) (BG)
                 (AU) (BU) (BU) (AG) (AG) (BG) (AU) (BU) (BU) (AG)
                 (AU) (AG) (BG) (BU) (AU) (BU) (AG) (BG) (AG) (BU)
                 (AU) (BU) (BG) (AG) (AU) (BG) (AU) (BG) (AG) (BU)
                 (AU) (BU) (BG) (AG) (AG) (BU) (AU) (BU) (BG) (BG)
                 (AG) (AU) (AG) (AG) (BU) (BU) (AU) (BG) (BU) (AG)
                 (AU) (BG) (AG) (BU) (AU) (AG) (BG) (AU) (BU) (AG)
                 (BG) (BU) (BU) (AG) (BU) (AG) (AU) (BG) (BU) (AG)
                 (AG) (BU) (AU) (BG) (AG) (BU) (BG) (AU) (AU) (BG)
                 (BU) (AG) (AG) (BU) (AU) (BG) (AG) (BU) (AG) (BU)
                 (AG) (BU) (BG) (AU) (AG) (BU) (BG) (AU) (BU) (AG)
                 (AU) (BG) (AG) (BU) (AU) (BG) (BU) (AG) (BU) (AG)
                 (BG) (AU) (AG) (BU) (AU) (BG) (BU) (AG) (AU) (BG)
                 (BG) (AU) (BU) (AG) (BU) (AU) (BG) (AG) (BU) (AG)
                 (AU) (BG) (BU) (AG) (AU) (AG) (BG) (AU) (BU) (BG)
                 (AG) (AU) (BG) (BU) (BU) (AG) (AG) (AU) (BG) (BU)
                 (AG) (BU) (BU) (BG) (AG) (AU) (BG) (BU) (AU) (BU)
                 (AG) (AU) (AG) (BG) (AG) (AU) (BU) (BU) (AG) (BG)
                 (AU) (BG) (AG) (BU) (AU) (BG) (BU) (AG) (AG) (AU)
                 (BG) (BU) (AU) (BG) (BU) (AG) (BU) (AG) (BG) (AU)
                 (AG) (BU) (AG) (BU) (BG) (AU) (BU) (AG) (BU) (AG)
                 (BG) (AU) (AU) (BG) (BU) (AG) (AU) (BG) (BU) (AG)
                 (AG) (BU) (BU) (BG) (AG) (AU) (BU) (AG) (BU) (AG)
                 (AU) (BG) (AU) (BG) (BU) (AG) (BU) (AG) (BG) (AU)
                 (AU) (BG) (BU) (AG) (AU) (BG) (BU) (AG) (AU) (BG)
                 (AG) (BU) (BG) (AU) (BG) (AU) (BU) (AG) (BU) (AG)
                 (BU) (AG) (BG) (AU) (AG) (BU) (AU) (BG) (BU) (AG)
                 (AG) (BU) (AU) (BG) (BU) (AG) (BG) (AU) (BU) (AG)
                 (AG) (BU) (BU) (AG) (AG) (BU) (BU) (AG) (AG) (BU)
    24 initial guesses have been made.
 Convergence on wavefunction:    0.001000000000000
 Davidson Disk Diagonalization:  ConvIn= 1.00D-03 SkipCon=T Conv= 1.00D-03.
 Max sub-space:  2000 roots to seek:    24 dimension of matrix:        11880
 Iteration     1 Dimension    24 NMult     0 NNew     24
 Estimated number of processors is:   17
 CISAX will form     1 AO SS matrices at one time.
 NMat=     1 NSing=     1 JSym2X= 2.
 FoFJK:  IHMeth= 1 ICntrl=       0 DoSepK=F KAlg= 0 I1Cent=           0 FoldK=F
 IRaf= 890000000 NMat=       1 IRICut=       1 DoRegI=T DoRafI=F ISym2E= 2 IDoP0=0 IntGTp=1.
 FoFCou: FMM=F IPFlag=           0 FMFlag=      100000 FMFlg1=           0
         NFxFlg=           0 DoJE=F BraDBF=F KetDBF=F FulRan=T
         wScrn=  0.000000 ICntrl=         0 IOpCl=  0 I1Cent=           0 NGrid=           0
         NMat0=    1 NMatS0=      1 NMatT0=    0 NMatD0=    1 NMtDS0=    0 NMtDT0=    0
 Integrals replicated using symmetry in FoFCou.
 CoulSu:  requested number of processors reduced to:  17 ShMem   1 Linda.
 NMat=     1 NSing=     1 JSym2X= 2.
 CoulSu:  requested number of processors reduced to:  17 ShMem   1 Linda.
 NMat=     1 NSing=     1 JSym2X= 2.
 CoulSu:  requested number of processors reduced to:  17 ShMem   1 Linda.
 NMat=     1 NSing=     1 JSym2X= 2.
 CoulSu:  requested number of processors reduced to:  17 ShMem   1 Linda.
 NMat=     1 NSing=     1 JSym2X= 2.
 CoulSu:  requested number of processors reduced to:  17 ShMem   1 Linda.
 NMat=     1 NSing=     1 JSym2X= 2.
 CoulSu:  requested number of processors reduced to:  17 ShMem   1 Linda.
 NMat=     1 NSing=     1 JSym2X= 2.
 CoulSu:  requested number of processors reduced to:  17 ShMem   1 Linda.
 NMat=     1 NSing=     1 JSym2X= 2.
 CoulSu:  requested number of processors reduced to:  17 ShMem   1 Linda.
 NMat=     1 NSing=     1 JSym2X= 2.
 CoulSu:  requested number of processors reduced to:  17 ShMem   1 Linda.
 NMat=     1 NSing=     1 JSym2X= 2.
 CoulSu:  requested number of processors reduced to:  17 ShMem   1 Linda.
 NMat=     1 NSing=     1 JSym2X= 2.
 CoulSu:  requested number of processors reduced to:  17 ShMem   1 Linda.
 NMat=     1 NSing=     1 JSym2X= 2.
 CoulSu:  requested number of processors reduced to:  17 ShMem   1 Linda.
 NMat=     1 NSing=     0 JSym2X= 2.
 CoulSu:  requested number of processors reduced to:  17 ShMem   1 Linda.
 NMat=     1 NSing=     0 JSym2X= 2.
 CoulSu:  requested number of processors reduced to:  17 ShMem   1 Linda.
 NMat=     1 NSing=     0 JSym2X= 2.
 CoulSu:  requested number of processors reduced to:  17 ShMem   1 Linda.
 NMat=     1 NSing=     0 JSym2X= 2.
 CoulSu:  requested number of processors reduced to:  17 ShMem   1 Linda.
 NMat=     1 NSing=     0 JSym2X= 2.
 CoulSu:  requested number of processors reduced to:  17 ShMem   1 Linda.
 NMat=     1 NSing=     0 JSym2X= 2.
 CoulSu:  requested number of processors reduced to:  17 ShMem   1 Linda.
 NMat=     1 NSing=     0 JSym2X= 2.
 CoulSu:  requested number of processors reduced to:  17 ShMem   1 Linda.
 NMat=     1 NSing=     0 JSym2X= 2.
 CoulSu:  requested number of processors reduced to:  17 ShMem   1 Linda.
 NMat=     1 NSing=     0 JSym2X= 2.
 CoulSu:  requested number of processors reduced to:  17 ShMem   1 Linda.
 NMat=     1 NSing=     0 JSym2X= 2.
 CoulSu:  requested number of processors reduced to:  17 ShMem   1 Linda.
 NMat=     1 NSing=     0 JSym2X= 2.
 CoulSu:  requested number of processors reduced to:  17 ShMem   1 Linda.
 NMat=     1 NSing=     0 JSym2X= 2.
 CoulSu:  requested number of processors reduced to:  17 ShMem   1 Linda.
 New state      1 was old state      6
 Excitation Energies [eV] at current iteration:
 Root      1 :     6.110400202054034
 Root      2 :     6.381908523318827
 Root      3 :     7.723135792320904
 Root      4 :     7.899718418408678
 Root      5 :     7.900452732935897
 Root      6 :     7.921764861274460
 Root      7 :     8.262683441626738
 Root      8 :     8.512904376031740
 Root      9 :     9.140392980503957
 Root     10 :     9.182536677986919
 Root     11 :     9.222535700166105
 Root     12 :     9.285224978366037
 Root     13 :     9.408469535002137
 Root     14 :     9.540572490557377
 Root     15 :     9.565182520784735
 Root     16 :     9.615435833333651
 Root     17 :     9.997283929829313
 Root     18 :    10.099403792157850
 Root     19 :    10.369011225642180
 Root     20 :    10.391672103004960
 Root     21 :    10.408190779101670
 Root     22 :    10.441922787431090
 Root     23 :    10.984260134780690
 Root     24 :    11.454730536712390
 Iteration     2 Dimension    48 NMult    24 NNew     24
 Estimated number of processors is:   17
 CISAX will form     1 AO SS matrices at one time.
 NMat=     1 NSing=     1 JSym2X= 2.
 CoulSu:  requested number of processors reduced to:  17 ShMem   1 Linda.
 NMat=     1 NSing=     1 JSym2X= 2.
 CoulSu:  requested number of processors reduced to:  17 ShMem   1 Linda.
 NMat=     1 NSing=     1 JSym2X= 2.
 CoulSu:  requested number of processors reduced to:  17 ShMem   1 Linda.
 NMat=     1 NSing=     1 JSym2X= 2.
 CoulSu:  requested number of processors reduced to:  17 ShMem   1 Linda.
 NMat=     1 NSing=     1 JSym2X= 2.
 CoulSu:  requested number of processors reduced to:  17 ShMem   1 Linda.
 NMat=     1 NSing=     1 JSym2X= 2.
 CoulSu:  requested number of processors reduced to:  17 ShMem   1 Linda.
 NMat=     1 NSing=     1 JSym2X= 2.
 CoulSu:  requested number of processors reduced to:  17 ShMem   1 Linda.
 NMat=     1 NSing=     1 JSym2X= 2.
 CoulSu:  requested number of processors reduced to:  17 ShMem   1 Linda.
 NMat=     1 NSing=     1 JSym2X= 2.
 CoulSu:  requested number of processors reduced to:  17 ShMem   1 Linda.
 NMat=     1 NSing=     1 JSym2X= 2.
 CoulSu:  requested number of processors reduced to:  17 ShMem   1 Linda.
 NMat=     1 NSing=     1 JSym2X= 2.
 CoulSu:  requested number of processors reduced to:  17 ShMem   1 Linda.
 NMat=     1 NSing=     1 JSym2X= 2.
 CoulSu:  requested number of processors reduced to:  17 ShMem   1 Linda.
 NMat=     1 NSing=     0 JSym2X= 2.
 CoulSu:  requested number of processors reduced to:  17 ShMem   1 Linda.
 NMat=     1 NSing=     0 JSym2X= 2.
 CoulSu:  requested number of processors reduced to:  17 ShMem   1 Linda.
 NMat=     1 NSing=     0 JSym2X= 2.
 CoulSu:  requested number of processors reduced to:  17 ShMem   1 Linda.
 NMat=     1 NSing=     0 JSym2X= 2.
 CoulSu:  requested number of processors reduced to:  17 ShMem   1 Linda.
 NMat=     1 NSing=     0 JSym2X= 2.
 CoulSu:  requested number of processors reduced to:  17 ShMem   1 Linda.
 NMat=     1 NSing=     0 JSym2X= 2.
 CoulSu:  requested number of processors reduced to:  17 ShMem   1 Linda.
 NMat=     1 NSing=     0 JSym2X= 2.
 CoulSu:  requested number of processors reduced to:  17 ShMem   1 Linda.
 NMat=     1 NSing=     0 JSym2X= 2.
 CoulSu:  requested number of processors reduced to:  17 ShMem   1 Linda.
 NMat=     1 NSing=     0 JSym2X= 2.
 CoulSu:  requested number of processors reduced to:  17 ShMem   1 Linda.
 NMat=     1 NSing=     0 JSym2X= 2.
 CoulSu:  requested number of processors reduced to:  17 ShMem   1 Linda.
 NMat=     1 NSing=     0 JSym2X= 2.
 CoulSu:  requested number of processors reduced to:  17 ShMem   1 Linda.
 NMat=     1 NSing=     0 JSym2X= 2.
 CoulSu:  requested number of processors reduced to:  17 ShMem   1 Linda.
 Root      1 not converged, maximum delta is    0.164984436055296
 Excitation Energies [eV] at current iteration:
 Root      1 :     5.160211736289996   Change is   -0.950188465764039
 Root      2 :     5.444450183994926   Change is   -0.937458339323901
 Root      3 :     7.265705184820957   Change is   -0.457430607499947
 Root      4 :     7.409057977154062   Change is   -0.512706884120397
 Root      5 :     7.607635537945110   Change is   -0.655047903681628
 Root      6 :     7.730111973802850   Change is   -0.169606444605828
 Root      7 :     7.770713664228357   Change is   -0.129739068707541
 Root      8 :     7.855971373380129   Change is   -0.656933002651610
 Root      9 :     8.602488118571438   Change is   -0.537904861932519
 Root     10 :     8.616126005463721   Change is   -0.566410672523199
 Root     11 :     8.994052772338740   Change is   -0.414416762663397
 Root     12 :     9.052822284937776   Change is   -0.169713415228331
 Root     13 :     9.097026427661527   Change is   -0.188198550704510
 Root     14 :     9.210889681614075   Change is   -0.354292839170659
 Root     15 :     9.389897829725378   Change is   -0.150674660832000
 Root     16 :     9.493680994809464   Change is   -0.121754838524187
 Root     17 :     9.596414308516781   Change is   -0.502989483641065
 Root     18 :     9.671566179755203   Change is   -0.325717750074111
 Root     19 :    10.126216985468500   Change is   -0.265455117536463
 Root     20 :    10.138245137533880   Change is   -0.230766088108309
 Root     21 :    10.290333483032130   Change is   -0.117857296069542
 Root     22 :    10.300061395618050   Change is   -0.141861391813036
 Root     23 :    10.405793928367350   Change is   -0.578466206413337
 Root     24 :    10.708765799666370   Change is   -0.745964737046018
 Iteration     3 Dimension    54 NMult    48 NNew      6
 Estimated number of processors is:   17
 CISAX will form     1 AO SS matrices at one time.
 NMat=     1 NSing=     1 JSym2X= 2.
 CoulSu:  requested number of processors reduced to:  17 ShMem   1 Linda.
 NMat=     1 NSing=     1 JSym2X= 2.
 CoulSu:  requested number of processors reduced to:  17 ShMem   1 Linda.
 NMat=     1 NSing=     1 JSym2X= 2.
 CoulSu:  requested number of processors reduced to:  17 ShMem   1 Linda.
 NMat=     1 NSing=     0 JSym2X= 2.
 CoulSu:  requested number of processors reduced to:  17 ShMem   1 Linda.
 NMat=     1 NSing=     0 JSym2X= 2.
 CoulSu:  requested number of processors reduced to:  17 ShMem   1 Linda.
 NMat=     1 NSing=     0 JSym2X= 2.
 CoulSu:  requested number of processors reduced to:  17 ShMem   1 Linda.
 Root      1 not converged, maximum delta is    0.023405714357337
 Excitation Energies [eV] at current iteration:
 Root      1 :     5.116476887299767   Change is   -0.043734848990228
 Root      2 :     5.395220626904327   Change is   -0.049229557090599
 Root      3 :     7.235533600705555   Change is   -0.030171584115403
 Root      4 :     7.457830804808409   Change is   -0.149804733136701
 Root      5 :     7.681422106535598   Change is   -0.048689867267252
 Root      6 :     7.750705775901866   Change is   -0.020007888326490
 Iteration     4 Dimension    60 NMult    54 NNew      6
 Estimated number of processors is:   17
 CISAX will form     1 AO SS matrices at one time.
 NMat=     1 NSing=     1 JSym2X= 2.
 CoulSu:  requested number of processors reduced to:  17 ShMem   1 Linda.
 NMat=     1 NSing=     1 JSym2X= 2.
 CoulSu:  requested number of processors reduced to:  17 ShMem   1 Linda.
 NMat=     1 NSing=     1 JSym2X= 2.
 CoulSu:  requested number of processors reduced to:  17 ShMem   1 Linda.
 NMat=     1 NSing=     0 JSym2X= 2.
 CoulSu:  requested number of processors reduced to:  17 ShMem   1 Linda.
 NMat=     1 NSing=     0 JSym2X= 2.
 CoulSu:  requested number of processors reduced to:  17 ShMem   1 Linda.
 NMat=     1 NSing=     0 JSym2X= 2.
 CoulSu:  requested number of processors reduced to:  17 ShMem   1 Linda.
 Root      1 not converged, maximum delta is    0.010892604728471
 Excitation Energies [eV] at current iteration:
 Root      1 :     5.110865662560309   Change is   -0.005611224739458
 Root      2 :     5.389963290635402   Change is   -0.005257336268925
 Root      3 :     7.230150008810314   Change is   -0.005383591895240
 Root      4 :     7.435689647817909   Change is   -0.022141156990500
 Root      5 :     7.629853249861599   Change is   -0.051568856673999
 Root      6 :     7.747978976738259
 Iteration     5 Dimension    66 NMult    60 NNew      6
 Estimated number of processors is:   17
 CISAX will form     1 AO SS matrices at one time.
 NMat=     1 NSing=     1 JSym2X= 2.
 CoulSu:  requested number of processors reduced to:  17 ShMem   1 Linda.
 NMat=     1 NSing=     1 JSym2X= 2.
 CoulSu:  requested number of processors reduced to:  17 ShMem   1 Linda.
 NMat=     1 NSing=     1 JSym2X= 2.
 CoulSu:  requested number of processors reduced to:  17 ShMem   1 Linda.
 NMat=     1 NSing=     0 JSym2X= 2.
 CoulSu:  requested number of processors reduced to:  17 ShMem   1 Linda.
 NMat=     1 NSing=     0 JSym2X= 2.
 CoulSu:  requested number of processors reduced to:  17 ShMem   1 Linda.
 NMat=     1 NSing=     0 JSym2X= 2.
 CoulSu:  requested number of processors reduced to:  17 ShMem   1 Linda.
 Root      1 not converged, maximum delta is    0.003465662867500
 Excitation Energies [eV] at current iteration:
 Root      1 :     5.109801351093602   Change is   -0.001064311466707
 Root      2 :     5.389190676871100   Change is   -0.000772613764302
 Root      3 :     7.229783436454340   Change is   -0.000366572355976
 Root      4 :     7.434197923893131   Change is   -0.001491723924777
 Root      5 :     7.621053606417982   Change is   -0.008799643443616
 Root      6 :     7.735772331589681   Change is   -0.012206645148578
 Iteration     6 Dimension    72 NMult    66 NNew      6
 Estimated number of processors is:   17
 CISAX will form     1 AO SS matrices at one time.
 NMat=     1 NSing=     1 JSym2X= 2.
 CoulSu:  requested number of processors reduced to:  17 ShMem   1 Linda.
 NMat=     1 NSing=     1 JSym2X= 2.
 CoulSu:  requested number of processors reduced to:  17 ShMem   1 Linda.
 NMat=     1 NSing=     1 JSym2X= 2.
 CoulSu:  requested number of processors reduced to:  17 ShMem   1 Linda.
 NMat=     1 NSing=     0 JSym2X= 2.
 CoulSu:  requested number of processors reduced to:  17 ShMem   1 Linda.
 NMat=     1 NSing=     0 JSym2X= 2.
 CoulSu:  requested number of processors reduced to:  17 ShMem   1 Linda.
 NMat=     1 NSing=     0 JSym2X= 2.
 CoulSu:  requested number of processors reduced to:  17 ShMem   1 Linda.
 Root      1 has converged.
 Excitation Energies [eV] at current iteration:
 Root      1 :     5.109718527363686   Change is   -0.000082823729916
 Root      2 :     5.389121166950175   Change is   -0.000069509920925
 Root      3 :     7.229751293015580   Change is   -0.000032143438760
 Root      4 :     7.434039769654836   Change is   -0.000158154238295
 Root      5 :     7.620272387187231   Change is   -0.000781219230752
 Root      6 :     7.734677162389915   Change is   -0.001095169199766
 Convergence achieved on expansion vectors.
 ***********************************************************************
 Stability analysis using <AA,BB:AA,BB> singles matrix:
 ***********************************************************************
 1PDM for each excited state written to RWF  633
 Ground to excited state transition densities written to RWF  633

 Eigenvectors of the stability matrix:
 
 Eigenvector   1:      Triplet-BU   Eigenvalue= 0.1877787  <S**2>=2.000
      17 -> 21        -0.12227
      17 -> 24         0.30654
      17 -> 25         0.17007
      18 -> 20         0.56773
      18 -> 29        -0.10052
 The wavefunction is stable under the perturbations considered.
 Leave Link  914 at Sun Apr 18 04:15:42 2021, MaxMem=   104857600 cpu:           20434.7 elap:             538.3
 (Enter /s/ls4/users/knvvv/bin/g16sse/l508.exe)
 The wavefunction is already stable.
 Leave Link  508 at Sun Apr 18 04:15:42 2021, MaxMem=   104857600 cpu:               2.2 elap:               0.1
 (Enter /s/ls4/users/knvvv/bin/g16sse/l601.exe)
 Copying SCF densities to generalized density rwf, IOpCl= 0 IROHF=0.

 **********************************************************************

            Population analysis using the SCF density.

 **********************************************************************

 Orbital symmetries:
       Occupied  (BU) (AG) (BU) (AG) (AG) (BU) (AG) (BU) (AU) (BG)
                 (AG) (BU) (AG) (BU) (AU) (BG) (AG) (BU)
       Virtual   (AG) (AG) (BU) (AU) (BG) (BU) (BU) (AG) (BG) (AU)
                 (AG) (BU) (AU) (AG) (BU) (BG) (AG) (BU) (AU) (AG)
                 (BU) (BG) (AG) (BU) (BU) (AU) (AG) (BG) (BU) (AU)
                 (BG) (AG) (AU) (AG) (BG) (BU) (AU) (AG) (BG) (AG)
                 (AG) (BU) (BU) (BG) (BU) (AG) (AU) (BU) (AG) (BG)
                 (AU) (BU) (BU) (AG) (AG) (BG) (AU) (BU) (BU) (AG)
                 (AU) (AG) (BG) (BU) (AU) (BU) (AG) (BG) (AG) (BU)
                 (AU) (BU) (BG) (AG) (AU) (BG) (AU) (BG) (AG) (BU)
                 (AU) (BU) (BG) (AG) (AG) (BU) (AU) (BU) (BG) (BG)
                 (AG) (AU) (AG) (AG) (BU) (BU) (AU) (BG) (BU) (AG)
                 (AU) (BG) (AG) (BU) (AU) (AG) (BG) (AU) (BU) (AG)
                 (BG) (BU) (BU) (AG) (BU) (AG) (AU) (BG) (BU) (AG)
                 (AG) (BU) (AU) (BG) (AG) (BU) (BG) (AU) (AU) (BG)
                 (BU) (AG) (AG) (BU) (AU) (BG) (AG) (BU) (AG) (BU)
                 (AG) (BU) (BG) (AU) (AG) (BU) (BG) (AU) (BU) (AG)
                 (AU) (BG) (AG) (BU) (AU) (BG) (BU) (AG) (BU) (AG)
                 (BG) (AU) (AG) (BU) (AU) (BG) (BU) (AG) (AU) (BG)
                 (BG) (AU) (BU) (AG) (BU) (AU) (BG) (AG) (BU) (AG)
                 (AU) (BG) (BU) (AG) (AU) (AG) (BG) (AU) (BU) (BG)
                 (AG) (AU) (BG) (BU) (BU) (AG) (AG) (AU) (BG) (BU)
                 (AG) (BU) (BU) (BG) (AG) (AU) (BG) (BU) (AU) (BU)
                 (AG) (AU) (AG) (BG) (AG) (AU) (BU) (BU) (AG) (BG)
                 (AU) (BG) (AG) (BU) (AU) (BG) (BU) (AG) (AG) (AU)
                 (BG) (BU) (AU) (BG) (BU) (AG) (BU) (AG) (BG) (AU)
                 (AG) (BU) (AG) (BU) (BG) (AU) (BU) (AG) (BU) (AG)
                 (BG) (AU) (AU) (BG) (BU) (AG) (AU) (BG) (BU) (AG)
                 (AG) (BU) (BU) (BG) (AG) (AU) (BU) (AG) (BU) (AG)
                 (AU) (BG) (AU) (BG) (BU) (AG) (BU) (AG) (BG) (AU)
                 (AU) (BG) (BU) (AG) (AU) (BG) (BU) (AG) (AU) (BG)
                 (AG) (BU) (BG) (AU) (BG) (AU) (BU) (AG) (BU) (AG)
                 (BU) (AG) (BG) (AU) (AG) (BU) (AU) (BG) (BU) (AG)
                 (AG) (BU) (AU) (BG) (BU) (AG) (BG) (AU) (BU) (AG)
                 (AG) (BU) (BU) (AG) (AG) (BU) (BU) (AG) (AG) (BU)
 The electronic state is 1-AG.
 Alpha  occ. eigenvalues --  -25.25449 -25.25449 -14.83735 -14.83735  -1.36094
 Alpha  occ. eigenvalues --   -1.36076  -0.96670  -0.95306  -0.63220  -0.62524
 Alpha  occ. eigenvalues --   -0.60923  -0.60306  -0.55708  -0.54680  -0.47951
 Alpha  occ. eigenvalues --   -0.47306  -0.37438  -0.36762
 Alpha virt. eigenvalues --    0.02530   0.06377   0.06619   0.06696   0.09775
 Alpha virt. eigenvalues --    0.11601   0.20104   0.23684   0.23710   0.26171
 Alpha virt. eigenvalues --    0.27915   0.29178   0.33950   0.34639   0.36249
 Alpha virt. eigenvalues --    0.37108   0.37271   0.38689   0.39067   0.41764
 Alpha virt. eigenvalues --    0.45082   0.46486   0.46784   0.50763   0.56331
 Alpha virt. eigenvalues --    0.57727   0.59205   0.62026   0.69337   0.69732
 Alpha virt. eigenvalues --    0.76680   0.79400   0.80478   0.84346   0.87224
 Alpha virt. eigenvalues --    0.91877   0.94072   0.96418   0.98329   1.00304
 Alpha virt. eigenvalues --    1.02603   1.03252   1.05363   1.06385   1.10417
 Alpha virt. eigenvalues --    1.10924   1.15891   1.17406   1.17881   1.19806
 Alpha virt. eigenvalues --    1.20220   1.32286   1.36043   1.40521   1.50489
 Alpha virt. eigenvalues --    1.51779   1.52270   1.53248   1.57941   1.58715
 Alpha virt. eigenvalues --    1.63107   1.72096   1.72751   1.73609   1.73795
 Alpha virt. eigenvalues --    1.74349   1.74616   1.79149   1.80181   1.80881
 Alpha virt. eigenvalues --    1.96774   1.99554   2.03714   2.05378   2.09429
 Alpha virt. eigenvalues --    2.14284   2.17256   2.17867   2.20383   2.23124
 Alpha virt. eigenvalues --    2.23154   2.24095   2.24812   2.27807   2.34001
 Alpha virt. eigenvalues --    2.41001   2.41399   2.43013   2.43036   2.45971
 Alpha virt. eigenvalues --    2.47052   2.48700   2.51622   2.56214   2.57733
 Alpha virt. eigenvalues --    2.58828   2.63858   2.64159   2.75073   2.79549
 Alpha virt. eigenvalues --    2.82312   2.83079   2.87062   2.87385   2.87405
 Alpha virt. eigenvalues --    2.93797   2.99799   3.01682   3.03436   3.03506
 Alpha virt. eigenvalues --    3.10155   3.12805   3.16018   3.17462   3.26374
 Alpha virt. eigenvalues --    3.30080   3.32354   3.37479   3.38725   3.42125
 Alpha virt. eigenvalues --    3.60742   3.61367   3.66955   3.74179   3.75165
 Alpha virt. eigenvalues --    3.76747   3.78847   3.86641   3.96742   3.98623
 Alpha virt. eigenvalues --    4.12549   4.14149   4.17505   4.21151   4.24736
 Alpha virt. eigenvalues --    4.25028   4.29690   4.30718   4.43007   4.45629
 Alpha virt. eigenvalues --    4.47278   4.61173   4.62588   4.64937   4.72621
 Alpha virt. eigenvalues --    4.74417   4.79977   4.82153   4.91063   4.91921
 Alpha virt. eigenvalues --    5.00066   5.04103   5.12470   5.13750   5.18443
 Alpha virt. eigenvalues --    5.19319   5.32883   5.32984   5.47241   5.47334
 Alpha virt. eigenvalues --    5.53753   5.56793   5.62556   5.63700   5.78408
 Alpha virt. eigenvalues --    5.79819   5.80612   5.83178   5.86457   5.86984
 Alpha virt. eigenvalues --    5.97061   5.97568   6.21622   6.22817   6.31805
 Alpha virt. eigenvalues --    6.33307   6.33518   6.33805   6.35586   6.37069
 Alpha virt. eigenvalues --    6.48778   6.50731   6.55964   6.56735   6.60013
 Alpha virt. eigenvalues --    6.65896   6.67215   6.70071   6.71700   6.78772
 Alpha virt. eigenvalues --    6.79164   6.79171   6.81376   6.88184   6.99618
 Alpha virt. eigenvalues --    7.00267   7.13360   7.14037   7.14762   7.17202
 Alpha virt. eigenvalues --    7.18234   7.21244   7.36584   7.37817   7.39605
 Alpha virt. eigenvalues --    7.46119   7.52538   7.55965   7.56043   7.58940
 Alpha virt. eigenvalues --    7.61894   7.66971   7.67858   7.73270   7.75242
 Alpha virt. eigenvalues --    7.78650   7.80803   7.83363   7.85426   7.90537
 Alpha virt. eigenvalues --    7.93948   7.97637   8.05037   8.05697   8.13653
 Alpha virt. eigenvalues --    8.14678   8.16439   8.16917   8.24549   8.25140
 Alpha virt. eigenvalues --    8.26109   8.28515   8.41221   8.41888   8.43730
 Alpha virt. eigenvalues --    8.48458   8.70018   8.70058   8.71728   8.72217
 Alpha virt. eigenvalues --    8.82763   8.86046   8.86645   8.88623   8.88857
 Alpha virt. eigenvalues --    8.91140   9.16091   9.16583   9.31529   9.31922
 Alpha virt. eigenvalues --    9.33319   9.33502   9.38027   9.39089   9.42892
 Alpha virt. eigenvalues --    9.48518   9.55512   9.59698   9.89057   9.91916
 Alpha virt. eigenvalues --   10.13595  10.18180  10.82642  10.83571  10.84512
 Alpha virt. eigenvalues --   10.84713  11.24598  11.27054  11.29009  11.29145
 Alpha virt. eigenvalues --   11.31134  11.31236  11.35062  11.35122  11.35680
 Alpha virt. eigenvalues --   11.35827  11.39930  11.40589  11.41935  11.42841
 Alpha virt. eigenvalues --   11.52210  11.53192  11.55903  11.56008  11.66148
 Alpha virt. eigenvalues --   11.66829  12.01152  12.02113  12.04915  12.05370
 Alpha virt. eigenvalues --   12.29039  12.29598  14.02599  14.02748  14.45276
 Alpha virt. eigenvalues --   14.45281  14.46820  14.47047  14.57096  14.60672
 Alpha virt. eigenvalues --   14.64124  14.65208  14.68431  14.68513  14.95626
 Alpha virt. eigenvalues --   15.00898  15.21638  15.22584  15.23697  15.23895
 Alpha virt. eigenvalues --   15.74225  15.74489  15.77499  15.78520  16.01452
 Alpha virt. eigenvalues --   16.01454  16.07794  16.08246  16.17050  16.18924
 Alpha virt. eigenvalues --   16.55130  16.55969  37.79083  37.80770  54.51908
 Alpha virt. eigenvalues --   54.55792 195.26652 195.29806 283.43953 283.48901
          Condensed to atoms (all electrons):
               1          2          3          4          5          6
     1  N    6.519244   0.017925   0.105598  -0.000507   0.353255  -0.000252
     2  N    0.017925   6.519244  -0.000507   0.105598  -0.000252   0.353255
     3  F    0.105598  -0.000507   9.197376  -0.000007  -0.040322  -0.000126
     4  F   -0.000507   0.105598  -0.000007   9.197376  -0.000126  -0.040322
     5  H    0.353255  -0.000252  -0.040322  -0.000126   0.439035   0.000159
     6  H   -0.000252   0.353255  -0.000126  -0.040322   0.000159   0.439035
     7  H    0.353255  -0.000252  -0.040322  -0.000126  -0.036081  -0.000584
     8  H   -0.000252   0.353255  -0.000126  -0.040322  -0.000584  -0.036081
               7          8
     1  N    0.353255  -0.000252
     2  N   -0.000252   0.353255
     3  F   -0.040322  -0.000126
     4  F   -0.000126  -0.040322
     5  H   -0.036081  -0.000584
     6  H   -0.000584  -0.036081
     7  H    0.439035   0.000159
     8  H    0.000159   0.439035
 Mulliken charges:
               1
     1  N   -0.348266
     2  N   -0.348266
     3  F   -0.221565
     4  F   -0.221565
     5  H    0.284915
     6  H    0.284915
     7  H    0.284915
     8  H    0.284915
 Sum of Mulliken charges =  -0.00000
 Mulliken charges with hydrogens summed into heavy atoms:
               1
     1  N    0.221565
     2  N    0.221565
     3  F   -0.221565
     4  F   -0.221565
 Electronic spatial extent (au):  <R**2>=            676.2989
 Charge=             -0.0000 electrons
 Dipole moment (field-independent basis, Debye):
    X=              0.0000    Y=              0.0000    Z=             -0.0000  Tot=              0.0000
 Quadrupole moment (field-independent basis, Debye-Ang):
   XX=            -21.6520   YY=            -35.2730   ZZ=            -19.7506
   XY=             -2.9508   XZ=             -0.0000   YZ=              0.0000
 Traceless Quadrupole moment (field-independent basis, Debye-Ang):
   XX=              3.9065   YY=             -9.7144   ZZ=              5.8079
   XY=             -2.9508   XZ=             -0.0000   YZ=              0.0000
 Octapole moment (field-independent basis, Debye-Ang**2):
  XXX=             -0.0000  YYY=             -0.0000  ZZZ=             -0.0000  XYY=              0.0000
  XXY=              0.0000  XXZ=             -0.0000  XZZ=             -0.0000  YZZ=              0.0000
  YYZ=             -0.0000  XYZ=              0.0000
 Hexadecapole moment (field-independent basis, Debye-Ang**3):
 XXXX=            -34.5399 YYYY=           -710.1028 ZZZZ=            -22.6826 XXXY=             33.2199
 XXXZ=             -0.0000 YYYX=             42.0950 YYYZ=             -0.0000 ZZZX=             -0.0000
 ZZZY=              0.0000 XXYY=           -107.1147 XXZZ=             -7.3403 YYZZ=           -101.3361
 XXYZ=              0.0000 YYXZ=              0.0000 ZZXY=              7.8864
 N-N= 1.165489053729D+02 E-N=-9.720676410058D+02  KE= 3.105068198611D+02
 PrsmSu:  requested number of processors reduced to:  21 ShMem   1 Linda.
 No NMR shielding tensors so no spin-rotation constants.
 Leave Link  601 at Sun Apr 18 04:15:49 2021, MaxMem=   104857600 cpu:             312.8 elap:               6.8
 (Enter /s/ls4/users/knvvv/bin/g16sse/l9999.exe)

 Test job not archived.
 1\1\GINC-N178\Stability\RM062X\def2QZVP\F2H4N2\KNVVV\18-Apr-2021\0\\#P
  M062X/Def2QZVP Integral=UltraFineGrid SCF=NoSymm Stable=(RExt, Opt) I
 Op(1/33=1)\\Database calculations.\\0,1\N,0,0.230637,-1.339636,0.\N,0,
 -0.230637,1.339636,0.\F,0,0.230637,-2.752464,0.\F,0,-0.230637,2.752464
 ,0.\H,0,0.810027,-1.117741,0.806477\H,0,-0.810027,1.117741,0.806477\H,
 0,0.810027,-1.117741,-0.806477\H,0,-0.810027,1.117741,-0.806477\\Versi
 on=ES64L-G16RevA.03\State=1-AG\HF=-311.4771195\RMSD=9.163e-09\Dipole=0
 .,0.,0.\Quadrupole=2.9044021,-7.2224399,4.3180378,-2.19382,0.,0.\PG=C0
 2H [SGH(F2N2),X(H4)]\\@


 LIFE CAN ONLY BE UNDERSTOOD BACKWARD, BUT MUST
 BE LIVED FORWARD. -- KIRKEGAARD
 Job cpu time:       0 days  6 hours 27 minutes 32.3 seconds.
 Elapsed time:       0 days  0 hours 10 minutes  4.6 seconds.
 File lengths (MBytes):  RWF=    310 Int=      0 D2E=      0 Chk=     16 Scr=      1
 Normal termination of Gaussian 16 at Sun Apr 18 04:15:49 2021.
