 Entering Gaussian System, Link 0=/s/ls4/users/knvvv/bin/g16sse/g16
 Input=data/database/M062X--MG3S--06_ClO_MR-MGN-BE17.gjf
 Output=data/database/M062X--MG3S--06_ClO_MR-MGN-BE17.log
 Initial command:
 /s/ls4/users/knvvv/bin/g16sse/l1.exe "/s/ls4/users/knvvv/bin/scratch/Gau-3068.inp" -scrdir="/s/ls4/users/knvvv/bin/scratch/"
 Entering Link 1 = /s/ls4/users/knvvv/bin/g16sse/l1.exe PID=      3069.
  
 Copyright (c) 1988,1990,1992,1993,1995,1998,2003,2009,2016,
            Gaussian, Inc.  All Rights Reserved.
  
 This is part of the Gaussian(R) 16 program.  It is based on
 the Gaussian(R) 09 system (copyright 2009, Gaussian, Inc.),
 the Gaussian(R) 03 system (copyright 2003, Gaussian, Inc.),
 the Gaussian(R) 98 system (copyright 1998, Gaussian, Inc.),
 the Gaussian(R) 94 system (copyright 1995, Gaussian, Inc.),
 the Gaussian 92(TM) system (copyright 1992, Gaussian, Inc.),
 the Gaussian 90(TM) system (copyright 1990, Gaussian, Inc.),
 the Gaussian 88(TM) system (copyright 1988, Gaussian, Inc.),
 the Gaussian 86(TM) system (copyright 1986, Carnegie Mellon
 University), and the Gaussian 82(TM) system (copyright 1983,
 Carnegie Mellon University). Gaussian is a federally registered
 trademark of Gaussian, Inc.
  
 This software contains proprietary and confidential information,
 including trade secrets, belonging to Gaussian, Inc.
  
 This software is provided under written license and may be
 used, copied, transmitted, or stored only in accord with that
 written license.
  
 The following legend is applicable only to US Government
 contracts under FAR:
  
                    RESTRICTED RIGHTS LEGEND
  
 Use, reproduction and disclosure by the US Government is
 subject to restrictions as set forth in subparagraphs (a)
 and (c) of the Commercial Computer Software - Restricted
 Rights clause in FAR 52.227-19.
  
 Gaussian, Inc.
 340 Quinnipiac St., Bldg. 40, Wallingford CT 06492
  
  
 ---------------------------------------------------------------
 Warning -- This program may not be used in any manner that
 competes with the business of Gaussian, Inc. or will provide
 assistance to any competitor of Gaussian, Inc.  The licensee
 of this program is prohibited from giving any competitor of
 Gaussian, Inc. access to this program.  By using this program,
 the user acknowledges that Gaussian, Inc. is engaged in the
 business of creating and licensing software in the field of
 computational chemistry and represents and warrants to the
 licensee that it is not a competitor of Gaussian, Inc. and that
 it will not use this program in any manner prohibited above.
 ---------------------------------------------------------------
  

 Cite this work as:
 Gaussian 16, Revision A.03,
 M. J. Frisch, G. W. Trucks, H. B. Schlegel, G. E. Scuseria, 
 M. A. Robb, J. R. Cheeseman, G. Scalmani, V. Barone, 
 G. A. Petersson, H. Nakatsuji, X. Li, M. Caricato, A. V. Marenich, 
 J. Bloino, B. G. Janesko, R. Gomperts, B. Mennucci, H. P. Hratchian, 
 J. V. Ortiz, A. F. Izmaylov, J. L. Sonnenberg, D. Williams-Young, 
 F. Ding, F. Lipparini, F. Egidi, J. Goings, B. Peng, A. Petrone, 
 T. Henderson, D. Ranasinghe, V. G. Zakrzewski, J. Gao, N. Rega, 
 G. Zheng, W. Liang, M. Hada, M. Ehara, K. Toyota, R. Fukuda, 
 J. Hasegawa, M. Ishida, T. Nakajima, Y. Honda, O. Kitao, H. Nakai, 
 T. Vreven, K. Throssell, J. A. Montgomery, Jr., J. E. Peralta, 
 F. Ogliaro, M. J. Bearpark, J. J. Heyd, E. N. Brothers, K. N. Kudin, 
 V. N. Staroverov, T. A. Keith, R. Kobayashi, J. Normand, 
 K. Raghavachari, A. P. Rendell, J. C. Burant, S. S. Iyengar, 
 J. Tomasi, M. Cossi, J. M. Millam, M. Klene, C. Adamo, R. Cammi, 
 J. W. Ochterski, R. L. Martin, K. Morokuma, O. Farkas, 
 J. B. Foresman, and D. J. Fox, Gaussian, Inc., Wallingford CT, 2016.
 
 ******************************************
 Gaussian 16:  ES64L-G16RevA.03 25-Dec-2016
                18-Apr-2021 
 ******************************************
 %RWF=temp12_76912,70GB
 %nprocshared=48
 Will use up to   48 processors via shared memory.
 Default route: MaxDisk=80GB
 ----------------------------------------------------------------------
 #P M062X/GEN Integral=UltraFineGrid SCF=NoSymm Stable=(RExt, Opt) IOp(
 1/33=1)
 ----------------------------------------------------------------------
 1/33=1,38=1,172=1/1;
 2/12=2,17=6,18=5,40=1/2;
 3/5=7,11=2,25=1,30=1,74=-55,75=-5/1,2,3;
 4/9=2/1;
 5/5=2,38=5/2;
 6/7=2,8=2,9=2,10=2,28=1/1;
 8/6=1,10=90,11=11/1;
 9/8=-3,42=1,46=1/14;
 5/5=2,8=3,17=40,38=5/8(-2);
 6/7=2,8=2,9=2,10=2,28=1/1;
 99/5=1,9=1/99;
 Leave Link    1 at Sun Apr 18 08:23:00 2021, MaxMem=           0 cpu:              11.7 elap:               0.3
 (Enter /s/ls4/users/knvvv/bin/g16sse/l101.exe)
 ONIOM data not found on unit 2.
 ----------------------
 Database calculations.
 ----------------------
 TstMul:  ICh=     0
 TstMul:  Mul=     2
 TstMul:  ICh=     0
 TstMul:  Mul=     2
 Symbolic Z-matrix:
 Charge =  0 Multiplicity = 2
 Cl                    0.        0.        0. 
 O                     0.        0.        1.57918 
 
 RdStrC is calling ZToCFu for IStruc=1 NZ=     2.
 PrtBox:  NBox=     1 Levels=  1 BoxLen=    8.00 SMaxX=        2.98
          Shift=            0.000000            0.000000            0.000000
 Box      1 Number                   0 centers from      1 to      2:
 After GenITR:
 ITRead=  0  0
 MicOpt= -1 -1
 ITRead=  0  0
 MicOpt= -1 -1
 NAtoms=      2 NQM=        2 NQMF=       0 NMMI=      0 NMMIF=      0
                NMic=       0 NMicF=      0.
                    Isotopes and Nuclear Properties:
 (Nuclear quadrupole moments (NQMom) in fm**2, nuclear magnetic moments (NMagM)
  in nuclear magnetons)

  Atom         1           2
 IAtWgt=          35          16
 AtmWgt=  34.9688527  15.9949146
 NucSpn=           3           0
 AtZEff=  -0.0000000  -0.0000000
 NQMom=   -8.1650000   0.0000000
 NMagM=    0.8218740   0.0000000
 AtZNuc=  17.0000000   8.0000000
 No MM parameters found.
 Leave Link  101 at Sun Apr 18 08:23:00 2021, MaxMem=   104857600 cpu:               6.6 elap:               0.2
 (Enter /s/ls4/users/knvvv/bin/g16sse/l202.exe)
                          Input orientation:                          
 ---------------------------------------------------------------------
 Center     Atomic      Atomic             Coordinates (Angstroms)
 Number     Number       Type             X           Y           Z
 ---------------------------------------------------------------------
      1         17           0        0.000000    0.000000    0.000000
      2          8           0        0.000000    0.000000    1.579176
 ---------------------------------------------------------------------
 Stoichiometry    ClO(2)
 Framework group  C*V[C*(OCl)]
 Deg. of freedom     1
 Full point group                 C*V     NOp   4
 Largest Abelian subgroup         C2V     NOp   4
 Largest concise Abelian subgroup C1      NOp   1
                         Standard orientation:                         
 ---------------------------------------------------------------------
 Center     Atomic      Atomic             Coordinates (Angstroms)
 Number     Number       Type             X           Y           Z
 ---------------------------------------------------------------------
      1         17           0        0.000000    0.000000    0.505336
      2          8           0        0.000000    0.000000   -1.073839
 ---------------------------------------------------------------------
 Rotational constants (GHZ):           0.0000000          18.4652254          18.4652254
 Leave Link  202 at Sun Apr 18 08:23:00 2021, MaxMem=   104857600 cpu:               6.0 elap:               0.1
 (Enter /s/ls4/users/knvvv/bin/g16sse/l301.exe)
 General basis read from cards:  (5D, 7F)
 Centers:       2
 S 6 1.00
     Exponent=  8.5885000000D+03 Coefficients=  1.8951500000D-03
     Exponent=  1.2972300000D+03 Coefficients=  1.4385900000D-02
     Exponent=  2.9929600000D+02 Coefficients=  7.0732000000D-02
     Exponent=  8.7377100000D+01 Coefficients=  2.4000100000D-01
     Exponent=  2.5678900000D+01 Coefficients=  5.9479700000D-01
     Exponent=  3.7400400000D+00 Coefficients=  2.8080200000D-01
 S 3 1.00
     Exponent=  4.2117500000D+01 Coefficients=  1.1388900000D-01
     Exponent=  9.6283700000D+00 Coefficients=  9.2081100000D-01
     Exponent=  2.8533200000D+00 Coefficients= -3.2744700000D-03
 S 1 1.00
     Exponent=  9.0566100000D-01 Coefficients=  1.0000000000D+00
 S 1 1.00
     Exponent=  2.5561100000D-01 Coefficients=  1.0000000000D+00
 S 1 1.00
     Exponent=  8.4500000000D-02 Coefficients=  1.0000000000D+00
 P 3 1.00
     Exponent=  4.2117500000D+01 Coefficients=  3.6511400000D-02
     Exponent=  9.6283700000D+00 Coefficients=  2.3715300000D-01
     Exponent=  2.8533200000D+00 Coefficients=  8.1970200000D-01
 P 1 1.00
     Exponent=  9.0566100000D-01 Coefficients=  1.0000000000D+00
 P 1 1.00
     Exponent=  2.5561100000D-01 Coefficients=  1.0000000000D+00
 P 1 1.00
     Exponent=  8.4500000000D-02 Coefficients=  1.0000000000D+00
 D 1 1.00
     Exponent=  2.5840000000D+00 Coefficients=  1.0000000000D+00
 D 1 1.00
     Exponent=  6.4600000000D-01 Coefficients=  1.0000000000D+00
 F 1 1.00
     Exponent=  1.4000000000D+00 Coefficients=  1.0000000000D+00
 ****
 Centers:       1
 S 6 1.00
     Exponent=  1.0581900000D+05 Coefficients=  7.4236270000D-04
     Exponent=  1.5872000000D+04 Coefficients=  5.7473180000D-03
     Exponent=  3.6196500000D+03 Coefficients=  2.9648760000D-02
     Exponent=  1.0308000000D+03 Coefficients=  1.1789980000D-01
     Exponent=  3.3990000000D+02 Coefficients=  3.6485320000D-01
     Exponent=  1.2453000000D+02 Coefficients=  5.8169680000D-01
 S 3 1.00
     Exponent=  1.2453000000D+02 Coefficients=  1.3704430000D-01
     Exponent=  4.9510000000D+01 Coefficients=  6.2313800000D-01
     Exponent=  2.0800000000D+01 Coefficients=  2.9032790000D-01
 S 1 1.00
     Exponent=  6.4600000000D+00 Coefficients=  1.0000000000D+00
 S 1 1.00
     Exponent=  2.5200000000D+00 Coefficients=  1.0000000000D+00
 S 1 1.00
     Exponent=  5.3000000000D-01 Coefficients=  1.0000000000D+00
 S 1 1.00
     Exponent=  1.9000000000D-01 Coefficients=  1.0000000000D+00
 S 1 1.00
     Exponent=  4.8300000000D-02 Coefficients=  1.0000000000D+00
 P 4 1.00
     Exponent=  5.8978000000D+02 Coefficients=  7.8733320000D-03
     Exponent=  1.3985000000D+02 Coefficients=  6.1554600000D-02
     Exponent=  4.4790000000D+01 Coefficients=  2.7425140000D-01
     Exponent=  1.6610000000D+01 Coefficients=  7.4989940000D-01
 P 2 1.00
     Exponent=  6.5900000000D+00 Coefficients=  6.1476400000D-01
     Exponent=  2.7100000000D+00 Coefficients=  4.4134160000D-01
 P 1 1.00
     Exponent=  9.5000000000D-01 Coefficients=  1.0000000000D+00
 P 1 1.00
     Exponent=  3.5000000000D-01 Coefficients=  1.0000000000D+00
 P 1 1.00
     Exponent=  1.2000000000D-01 Coefficients=  1.0000000000D+00
 P 1 1.00
     Exponent=  4.8300000000D-02 Coefficients=  1.0000000000D+00
 D 1 1.00
     Exponent=  3.0000000000D+00 Coefficients=  1.0000000000D+00
 D 1 1.00
     Exponent=  7.5000000000D-01 Coefficients=  1.0000000000D+00
 D 1 1.00
     Exponent=  1.8750000000D-01 Coefficients=  1.0000000000D+00
 F 1 1.00
     Exponent=  1.4000000000D+00 Coefficients=  1.0000000000D+00
 F 1 1.00
     Exponent=  3.5000000000D-01 Coefficients=  1.0000000000D+00
 ****
 Ernie: Thresh=  0.10000D-02 Tol=  0.10000D-05 Strict=F.
 There are    46 symmetry adapted cartesian basis functions of A1  symmetry.
 There are     8 symmetry adapted cartesian basis functions of A2  symmetry.
 There are    24 symmetry adapted cartesian basis functions of B1  symmetry.
 There are    24 symmetry adapted cartesian basis functions of B2  symmetry.
 There are    38 symmetry adapted basis functions of A1  symmetry.
 There are     8 symmetry adapted basis functions of A2  symmetry.
 There are    21 symmetry adapted basis functions of B1  symmetry.
 There are    21 symmetry adapted basis functions of B2  symmetry.
    88 basis functions,   134 primitive gaussians,   102 cartesian basis functions
    13 alpha electrons       12 beta electrons
       nuclear repulsion energy        45.5732122423 Hartrees.
 IExCor= 4336 DFT=T Ex+Corr=M062X ExCW=0 ScaHFX=  0.540000
 ScaDFX=  1.000000  1.000000  1.000000  1.000000 ScalE2=  1.000000  1.000000
 IRadAn=      5 IRanWt=     -1 IRanGd=            0 ICorTp=0 IEmpDi=  4
 NAtoms=    2 NActive=    2 NUniq=    2 SFac= 1.00D+00 NAtFMM=   60 NAOKFM=F Big=F
 Integral buffers will be    131072 words long.
 Raffenetti 2 integral format.
 Two-electron integral symmetry is turned on.
 Leave Link  301 at Sun Apr 18 08:23:00 2021, MaxMem=   104857600 cpu:               9.1 elap:               0.2
 (Enter /s/ls4/users/knvvv/bin/g16sse/l302.exe)
 NPDir=0 NMtPBC=     1 NCelOv=     1 NCel=       1 NClECP=     1 NCelD=      1
         NCelK=      1 NCelE2=     1 NClLst=     1 CellRange=     0.0.
 One-electron integrals computed using PRISM.
 One-electron integral symmetry used in STVInt
 PrsmSu:  requested number of processors reduced to:  13 ShMem   1 Linda.
 NBasis=    88 RedAO= T EigKep=  3.06D-03  NBF=    38     8    21    21
 NBsUse=    88 1.00D-06 EigRej= -1.00D+00 NBFU=    38     8    21    21
 Precomputing XC quadrature grid using
 IXCGrd= 4 IRadAn=           5 IRanWt=          -1 IRanGd=           0 AccXCQ= 0.00D+00.
 Generated NRdTot=       0 NPtTot=           0 NUsed=           0 NTot=          32
 NSgBfM=   102   102   102   102   102 MxSgAt=     2 MxSgA2=     2.
 Leave Link  302 at Sun Apr 18 08:23:02 2021, MaxMem=   104857600 cpu:              72.5 elap:               1.6
 (Enter /s/ls4/users/knvvv/bin/g16sse/l303.exe)
 DipDrv:  MaxL=1.
 Leave Link  303 at Sun Apr 18 08:23:02 2021, MaxMem=   104857600 cpu:              13.5 elap:               0.3
 (Enter /s/ls4/users/knvvv/bin/g16sse/l401.exe)
 SCF N**3 symmetry information disabled.
 ExpMin= 4.83D-02 ExpMax= 1.06D+05 ExpMxC= 3.62D+03 IAcc=3 IRadAn=         5 AccDes= 0.00D+00
 Harris functional with IExCor= 1009 and IRadAn=       5 diagonalized for initial guess.
 HarFok:  IExCor= 1009 AccDes= 0.00D+00 IRadAn=         5 IDoV= 1 UseB2=F ITyADJ=14
 ICtDFT=  3500011 ScaDFX=  1.000000  1.000000  1.000000  1.000000
 FoFCou: FMM=F IPFlag=           0 FMFlag=      100000 FMFlg1=           0
         NFxFlg=           0 DoJE=T BraDBF=F KetDBF=T FulRan=T
         wScrn=  0.000000 ICntrl=       500 IOpCl=  0 I1Cent=   200000004 NGrid=           0
         NMat0=    1 NMatS0=      1 NMatT0=    0 NMatD0=    1 NMtDS0=    0 NMtDT0=    0
 Petite list used in FoFCou.
 Harris En= -535.040509158715    
 JPrj=0 DoOrth=F DoCkMO=F.
 Initial guess orbital symmetries:
 Alpha Orbitals:
       Occupied  (SG) (SG) (SG) (SG) (PI) (PI) (SG) (SG) (SG) (PI)
                 (PI) (PI) (PI)
       Virtual   (SG) (SG) (PI) (PI) (SG) (SG) (PI) (PI) (DLTA)
                 (DLTA) (SG) (PI) (PI) (SG) (PI) (PI) (SG) (SG)
                 (PI) (PI) (SG) (DLTA) (DLTA) (DLTA) (DLTA) (PI)
                 (PI) (PHI) (PHI) (SG) (PI) (PI) (SG) (SG) (DLTA)
                 (DLTA) (PI) (PI) (PI) (PI) (SG) (SG) (SG) (PI)
                 (PI) (PHI) (PHI) (DLTA) (DLTA) (SG) (PI) (PI)
                 (PI) (PI) (PHI) (PHI) (DLTA) (DLTA) (DLTA) (DLTA)
                 (SG) (PI) (PI) (SG) (DLTA) (DLTA) (PI) (PI) (SG)
                 (SG) (PI) (PI) (SG) (SG) (SG)
 Beta  Orbitals:
       Occupied  (SG) (SG) (SG) (SG) (PI) (PI) (SG) (SG) (SG) (PI)
                 (PI) (PI)
       Virtual   (PI) (SG) (SG) (PI) (PI) (SG) (SG) (PI) (PI) (DLTA)
                 (DLTA) (SG) (PI) (PI) (SG) (PI) (PI) (SG) (SG)
                 (PI) (PI) (SG) (DLTA) (DLTA) (DLTA) (DLTA) (PI)
                 (PI) (PHI) (PHI) (SG) (PI) (PI) (SG) (SG) (DLTA)
                 (DLTA) (PI) (PI) (PI) (PI) (SG) (SG) (SG) (PI)
                 (PI) (PHI) (PHI) (DLTA) (DLTA) (SG) (PI) (PI)
                 (PI) (PI) (PHI) (PHI) (DLTA) (DLTA) (DLTA) (DLTA)
                 (SG) (PI) (PI) (SG) (DLTA) (DLTA) (PI) (PI) (SG)
                 (SG) (PI) (PI) (SG) (SG) (SG)
 Initial guess <Sx>= 0.0000 <Sy>= 0.0000 <Sz>= 0.5000 <S**2>= 0.7500 S= 0.5000
 Leave Link  401 at Sun Apr 18 08:23:04 2021, MaxMem=   104857600 cpu:              71.0 elap:               1.5
 (Enter /s/ls4/users/knvvv/bin/g16sse/l502.exe)
 Keep R1 and R2 ints in memory in symmetry-blocked form, NReq=52128974.
 FoFCou: FMM=F IPFlag=           0 FMFlag=           0 FMFlg1=           0
         NFxFlg=           0 DoJE=F BraDBF=F KetDBF=F FulRan=T
         wScrn=  0.000000 ICntrl=       600 IOpCl=  0 I1Cent=           0 NGrid=           0
         NMat0=    1 NMatS0=   3916 NMatT0=    0 NMatD0=    1 NMtDS0=    0 NMtDT0=    0
 Petite list used in FoFCou.
 UHF open shell SCF:
 Using DIIS extrapolation, IDIIS=  1040.
 NGot=   104857600 LenX=   100858998 LenY=   100848153
 Requested convergence on RMS density matrix=1.00D-08 within 128 cycles.
 Requested convergence on MAX density matrix=1.00D-06.
 Requested convergence on             energy=1.00D-06.
 No special actions if energy rises.

 Cycle   1  Pass 1  IDiag  1:
 E= -535.162752384333    
 DIIS: error= 6.69D-02 at cycle   1 NSaved=   1.
 NSaved= 1 IEnMin= 1 EnMin= -535.162752384333     IErMin= 1 ErrMin= 6.69D-02
 ErrMax= 6.69D-02  0.00D+00 EMaxC= 1.00D-01 BMatC= 8.16D-01 BMatP= 8.16D-01
 IDIUse=3 WtCom= 3.31D-01 WtEn= 6.69D-01
 Coeff-Com:  0.100D+01
 Coeff-En:   0.100D+01
 Coeff:      0.100D+01
 Gap=     0.378 Goal=   None    Shift=    0.000
 Gap=     0.188 Goal=   None    Shift=    0.000
 GapD=    0.188 DampG=1.000 DampE=0.500 DampFc=0.5000 IDamp=-1.
 Damping current iteration by 5.00D-01
 RMSDP=6.23D-03 MaxDP=1.70D-01              OVMax= 4.90D-01

 Cycle   2  Pass 1  IDiag  1:
 E= -535.189731020772     Delta-E=       -0.026978636438 Rises=F Damp=T
 DIIS: error= 2.57D-02 at cycle   2 NSaved=   2.
 NSaved= 2 IEnMin= 2 EnMin= -535.189731020772     IErMin= 2 ErrMin= 2.57D-02
 ErrMax= 2.57D-02  0.00D+00 EMaxC= 1.00D-01 BMatC= 1.54D-01 BMatP= 8.16D-01
 IDIUse=3 WtCom= 7.43D-01 WtEn= 2.57D-01
 Coeff-Com:  0.213D+00 0.787D+00
 Coeff-En:   0.401D+00 0.599D+00
 Coeff:      0.261D+00 0.739D+00
 Gap=     0.382 Goal=   None    Shift=    0.000
 Gap=     0.216 Goal=   None    Shift=    0.000
 RMSDP=1.44D-03 MaxDP=3.99D-02 DE=-2.70D-02 OVMax= 2.61D-01

 Cycle   3  Pass 1  IDiag  1:
 E= -535.294327146899     Delta-E=       -0.104596126127 Rises=F Damp=F
 DIIS: error= 1.03D-02 at cycle   3 NSaved=   3.
 NSaved= 3 IEnMin= 3 EnMin= -535.294327146899     IErMin= 3 ErrMin= 1.03D-02
 ErrMax= 1.03D-02  0.00D+00 EMaxC= 1.00D-01 BMatC= 1.24D-02 BMatP= 1.54D-01
 IDIUse=3 WtCom= 8.97D-01 WtEn= 1.03D-01
 Coeff-Com:  0.219D-01 0.156D+00 0.822D+00
 Coeff-En:   0.000D+00 0.000D+00 0.100D+01
 Coeff:      0.196D-01 0.140D+00 0.841D+00
 Gap=     0.354 Goal=   None    Shift=    0.000
 Gap=     0.206 Goal=   None    Shift=    0.000
 RMSDP=5.54D-04 MaxDP=1.61D-02 DE=-1.05D-01 OVMax= 6.24D-02

 Cycle   4  Pass 1  IDiag  1:
 E= -535.297278654843     Delta-E=       -0.002951507945 Rises=F Damp=F
 DIIS: error= 5.14D-03 at cycle   4 NSaved=   4.
 NSaved= 4 IEnMin= 4 EnMin= -535.297278654843     IErMin= 4 ErrMin= 5.14D-03
 ErrMax= 5.14D-03  0.00D+00 EMaxC= 1.00D-01 BMatC= 4.46D-03 BMatP= 1.24D-02
 IDIUse=3 WtCom= 9.49D-01 WtEn= 5.14D-02
 Coeff-Com:  0.143D-01-0.601D-01 0.255D+00 0.791D+00
 Coeff-En:   0.000D+00 0.000D+00 0.000D+00 0.100D+01
 Coeff:      0.135D-01-0.570D-01 0.241D+00 0.802D+00
 Gap=     0.357 Goal=   None    Shift=    0.000
 Gap=     0.213 Goal=   None    Shift=    0.000
 RMSDP=2.54D-04 MaxDP=6.25D-03 DE=-2.95D-03 OVMax= 2.21D-02

 Cycle   5  Pass 1  IDiag  1:
 E= -535.298622114586     Delta-E=       -0.001343459742 Rises=F Damp=F
 DIIS: error= 1.86D-03 at cycle   5 NSaved=   5.
 NSaved= 5 IEnMin= 5 EnMin= -535.298622114586     IErMin= 5 ErrMin= 1.86D-03
 ErrMax= 1.86D-03  0.00D+00 EMaxC= 1.00D-01 BMatC= 5.22D-04 BMatP= 4.46D-03
 IDIUse=3 WtCom= 9.81D-01 WtEn= 1.86D-02
 Coeff-Com:  0.102D-01-0.220D-01-0.158D+00-0.275D+00 0.144D+01
 Coeff-En:   0.000D+00 0.000D+00 0.000D+00 0.000D+00 0.100D+01
 Coeff:      0.101D-01-0.216D-01-0.156D+00-0.270D+00 0.144D+01
 Gap=     0.357 Goal=   None    Shift=    0.000
 Gap=     0.217 Goal=   None    Shift=    0.000
 RMSDP=2.54D-04 MaxDP=8.61D-03 DE=-1.34D-03 OVMax= 3.15D-02

 Cycle   6  Pass 1  IDiag  1:
 E= -535.299180033092     Delta-E=       -0.000557918506 Rises=F Damp=F
 DIIS: error= 9.51D-04 at cycle   6 NSaved=   6.
 NSaved= 6 IEnMin= 6 EnMin= -535.299180033092     IErMin= 6 ErrMin= 9.51D-04
 ErrMax= 9.51D-04  0.00D+00 EMaxC= 1.00D-01 BMatC= 7.21D-05 BMatP= 5.22D-04
 IDIUse=3 WtCom= 9.90D-01 WtEn= 9.51D-03
 Coeff-Com: -0.143D-02 0.985D-02-0.240D-01-0.155D+00-0.143D+00 0.131D+01
 Coeff-En:   0.000D+00 0.000D+00 0.000D+00 0.000D+00 0.000D+00 0.100D+01
 Coeff:     -0.142D-02 0.976D-02-0.238D-01-0.154D+00-0.142D+00 0.131D+01
 Gap=     0.357 Goal=   None    Shift=    0.000
 Gap=     0.219 Goal=   None    Shift=    0.000
 RMSDP=1.40D-04 MaxDP=5.37D-03 DE=-5.58D-04 OVMax= 1.87D-02

 Cycle   7  Pass 1  IDiag  1:
 E= -535.299300458225     Delta-E=       -0.000120425133 Rises=F Damp=F
 DIIS: error= 3.58D-04 at cycle   7 NSaved=   7.
 NSaved= 7 IEnMin= 7 EnMin= -535.299300458225     IErMin= 7 ErrMin= 3.58D-04
 ErrMax= 3.58D-04  0.00D+00 EMaxC= 1.00D-01 BMatC= 6.90D-06 BMatP= 7.21D-05
 IDIUse=3 WtCom= 9.96D-01 WtEn= 3.58D-03
 Coeff-Com: -0.674D-03 0.940D-03 0.256D-01 0.611D-01-0.225D+00-0.114D+00
 Coeff-Com:  0.125D+01
 Coeff-En:   0.000D+00 0.000D+00 0.000D+00 0.000D+00 0.000D+00 0.000D+00
 Coeff-En:   0.100D+01
 Coeff:     -0.671D-03 0.936D-03 0.255D-01 0.609D-01-0.225D+00-0.113D+00
 Coeff:      0.125D+01
 Gap=     0.357 Goal=   None    Shift=    0.000
 Gap=     0.219 Goal=   None    Shift=    0.000
 RMSDP=4.85D-05 MaxDP=1.99D-03 DE=-1.20D-04 OVMax= 6.72D-03

 Cycle   8  Pass 1  IDiag  1:
 E= -535.299311428181     Delta-E=       -0.000010969956 Rises=F Damp=F
 DIIS: error= 5.42D-05 at cycle   8 NSaved=   8.
 NSaved= 8 IEnMin= 8 EnMin= -535.299311428181     IErMin= 8 ErrMin= 5.42D-05
 ErrMax= 5.42D-05  0.00D+00 EMaxC= 1.00D-01 BMatC= 6.98D-07 BMatP= 6.90D-06
 IDIUse=1 WtCom= 1.00D+00 WtEn= 0.00D+00
 Coeff-Com:  0.339D-03-0.109D-02 0.349D-02 0.141D-01-0.184D-01-0.107D+00
 Coeff-Com:  0.198D+00 0.911D+00
 Coeff:      0.339D-03-0.109D-02 0.349D-02 0.141D-01-0.184D-01-0.107D+00
 Coeff:      0.198D+00 0.911D+00
 Gap=     0.357 Goal=   None    Shift=    0.000
 Gap=     0.220 Goal=   None    Shift=    0.000
 RMSDP=8.52D-06 MaxDP=2.62D-04 DE=-1.10D-05 OVMax= 9.12D-04

 Cycle   9  Pass 1  IDiag  1:
 E= -535.299311770756     Delta-E=       -0.000000342575 Rises=F Damp=F
 DIIS: error= 9.80D-06 at cycle   9 NSaved=   9.
 NSaved= 9 IEnMin= 9 EnMin= -535.299311770756     IErMin= 9 ErrMin= 9.80D-06
 ErrMax= 9.80D-06  0.00D+00 EMaxC= 1.00D-01 BMatC= 1.62D-08 BMatP= 6.98D-07
 IDIUse=1 WtCom= 1.00D+00 WtEn= 0.00D+00
 Coeff-Com: -0.145D-04 0.697D-04-0.751D-03-0.398D-02 0.109D-01 0.131D-01
 Coeff-Com: -0.718D-01-0.369D-01 0.109D+01
 Coeff:     -0.145D-04 0.697D-04-0.751D-03-0.398D-02 0.109D-01 0.131D-01
 Coeff:     -0.718D-01-0.369D-01 0.109D+01
 Gap=     0.357 Goal=   None    Shift=    0.000
 Gap=     0.220 Goal=   None    Shift=    0.000
 RMSDP=8.96D-07 MaxDP=2.69D-05 DE=-3.43D-07 OVMax= 4.62D-05

 Cycle  10  Pass 1  IDiag  1:
 E= -535.299311777741     Delta-E=       -0.000000006985 Rises=F Damp=F
 DIIS: error= 2.19D-06 at cycle  10 NSaved=  10.
 NSaved=10 IEnMin=10 EnMin= -535.299311777741     IErMin=10 ErrMin= 2.19D-06
 ErrMax= 2.19D-06  0.00D+00 EMaxC= 1.00D-01 BMatC= 7.81D-10 BMatP= 1.62D-08
 IDIUse=1 WtCom= 1.00D+00 WtEn= 0.00D+00
 Coeff-Com: -0.106D-04 0.317D-04-0.266D-03-0.405D-03 0.968D-03 0.294D-02
 Coeff-Com: -0.607D-02-0.371D-01-0.880D-01 0.113D+01
 Coeff:     -0.106D-04 0.317D-04-0.266D-03-0.405D-03 0.968D-03 0.294D-02
 Coeff:     -0.607D-02-0.371D-01-0.880D-01 0.113D+01
 Gap=     0.357 Goal=   None    Shift=    0.000
 Gap=     0.220 Goal=   None    Shift=    0.000
 RMSDP=2.56D-07 MaxDP=7.67D-06 DE=-6.98D-09 OVMax= 2.78D-05

 Cycle  11  Pass 1  IDiag  1:
 E= -535.299311778230     Delta-E=       -0.000000000489 Rises=F Damp=F
 DIIS: error= 6.20D-07 at cycle  11 NSaved=  11.
 NSaved=11 IEnMin=11 EnMin= -535.299311778230     IErMin=11 ErrMin= 6.20D-07
 ErrMax= 6.20D-07  0.00D+00 EMaxC= 1.00D-01 BMatC= 4.31D-11 BMatP= 7.81D-10
 IDIUse=1 WtCom= 1.00D+00 WtEn= 0.00D+00
 Coeff-Com:  0.527D-06-0.220D-05 0.267D-04 0.152D-03-0.417D-03-0.258D-03
 Coeff-Com:  0.189D-02-0.258D-02-0.461D-01 0.909D-01 0.956D+00
 Coeff:      0.527D-06-0.220D-05 0.267D-04 0.152D-03-0.417D-03-0.258D-03
 Coeff:      0.189D-02-0.258D-02-0.461D-01 0.909D-01 0.956D+00
 Gap=     0.357 Goal=   None    Shift=    0.000
 Gap=     0.220 Goal=   None    Shift=    0.000
 RMSDP=5.34D-08 MaxDP=1.61D-06 DE=-4.89D-10 OVMax= 6.12D-06

 Cycle  12  Pass 1  IDiag  1:
 E= -535.299311778257     Delta-E=       -0.000000000027 Rises=F Damp=F
 DIIS: error= 1.98D-07 at cycle  12 NSaved=  12.
 NSaved=12 IEnMin=12 EnMin= -535.299311778257     IErMin=12 ErrMin= 1.98D-07
 ErrMax= 1.98D-07  0.00D+00 EMaxC= 1.00D-01 BMatC= 5.74D-12 BMatP= 4.31D-11
 IDIUse=1 WtCom= 1.00D+00 WtEn= 0.00D+00
 Coeff-Com:  0.107D-05-0.193D-05-0.158D-05-0.446D-04 0.611D-04 0.502D-04
 Coeff-Com: -0.313D-03 0.174D-02 0.122D-01-0.680D-01-0.267D+00 0.132D+01
 Coeff:      0.107D-05-0.193D-05-0.158D-05-0.446D-04 0.611D-04 0.502D-04
 Coeff:     -0.313D-03 0.174D-02 0.122D-01-0.680D-01-0.267D+00 0.132D+01
 Gap=     0.357 Goal=   None    Shift=    0.000
 Gap=     0.220 Goal=   None    Shift=    0.000
 RMSDP=2.61D-08 MaxDP=7.20D-07 DE=-2.69D-11 OVMax= 2.30D-06

 Cycle  13  Pass 1  IDiag  1:
 E= -535.299311778260     Delta-E=       -0.000000000003 Rises=F Damp=F
 DIIS: error= 5.25D-08 at cycle  13 NSaved=  13.
 NSaved=13 IEnMin=13 EnMin= -535.299311778260     IErMin=13 ErrMin= 5.25D-08
 ErrMax= 5.25D-08  0.00D+00 EMaxC= 1.00D-01 BMatC= 4.40D-13 BMatP= 5.74D-12
 IDIUse=1 WtCom= 1.00D+00 WtEn= 0.00D+00
 Coeff-Com: -0.543D-06 0.104D-05-0.220D-05 0.936D-05 0.109D-04 0.140D-04
 Coeff-Com: -0.315D-04-0.567D-03-0.143D-02 0.209D-01 0.382D-01-0.504D+00
 Coeff-Com:  0.145D+01
 Coeff:     -0.543D-06 0.104D-05-0.220D-05 0.936D-05 0.109D-04 0.140D-04
 Coeff:     -0.315D-04-0.567D-03-0.143D-02 0.209D-01 0.382D-01-0.504D+00
 Coeff:      0.145D+01
 Gap=     0.357 Goal=   None    Shift=    0.000
 Gap=     0.220 Goal=   None    Shift=    0.000
 RMSDP=9.23D-09 MaxDP=3.06D-07 DE=-3.07D-12 OVMax= 8.24D-07

 SCF Done:  E(UM062X) =  -535.299311778     A.U. after   13 cycles
            NFock= 13  Conv=0.92D-08     -V/T= 2.0013
 <Sx>= 0.0000 <Sy>= 0.0000 <Sz>= 0.5000 <S**2>= 0.7567 S= 0.5034
 <L.S>= 0.000000000000E+00
 KE= 5.345829361299D+02 PE=-1.363248347164D+03 EE= 2.477928870140D+02
 Annihilation of the first spin contaminant:
 S**2 before annihilation     0.7567,   after     0.7500
 Leave Link  502 at Sun Apr 18 08:23:40 2021, MaxMem=   104857600 cpu:            1714.3 elap:              36.5
 (Enter /s/ls4/users/knvvv/bin/g16sse/l601.exe)
 Copying SCF densities to generalized density rwf, IOpCl= 1 IROHF=0.

 **********************************************************************

            Population analysis using the SCF density.

 **********************************************************************

 Orbital symmetries:
 Alpha Orbitals:
       Occupied  (SG) (SG) (SG) (PI) (SG) (PI) (SG) (SG) (?A) (SG)
                 (?A) (?A) (?A)
       Virtual   (SG) (SG) (PI) (PI) (SG) (SG) (PI) (PI) (?B) (?B)
                 (?B) (PI) (PI) (SG) (PI) (PI) (SG) (?C) (?D) (?C)
                 (?C) (?C) (?D) (?D) (?C) (?C) (?D) (?D) (?D) (SG)
                 (PI) (PI) (?E) (?E) (?E) (?E) (PI) (PI) (PI) (PI)
                 (SG) (SG) (?F) (?G) (?F) (?F) (?F) (?G) (?G) (?H)
                 (?H) (?I) (?H) (?H) (?I) (?I) (?H) (?H) (?I) (?I)
                 (?I) (PI) (PI) (?J) (?J) (?J) (PI) (PI) (SG) (SG)
                 (PI) (PI) (SG) (SG) (SG)
 Beta  Orbitals:
       Occupied  (SG) (SG) (SG) (SG) (PI) (PI) (SG) (SG) (SG) (?A)
                 (?A) (?A)
       Virtual   (?A) (SG) (SG) (PI) (PI) (SG) (SG) (?A) (?A) (?B)
                 (?B) (?B) (PI) (PI) (SG) (PI) (PI) (SG) (?C) (?C)
                 (?C) (?C) (?D) (?D) (?C) (?C) (?D) (?D) (?D) (?D)
                 (?C) (PI) (PI) (?E) (?E) (?E) (?E) (PI) (PI) (PI)
                 (PI) (SG) (SG) (?F) (?F) (?G) (?G) (?G) (?F) (?F)
                 (PI) (PI) (?H) (?H) (?F) (?H) (?F) (?F) (?F) (?I)
                 (?I) (?I) (PI) (PI) (SG) (DLTA) (DLTA) (PI) (PI)
                 (SG) (SG) (PI) (PI) (SG) (SG) (SG)
 Unable to determine electronic state:  an orbital has unidentified symmetry.
 Alpha  occ. eigenvalues -- -102.73782 -19.72931  -9.89750  -7.62133  -7.62108
 Alpha  occ. eigenvalues --   -7.61393  -1.22547  -0.89868  -0.57305  -0.56667
 Alpha  occ. eigenvalues --   -0.53916  -0.40068  -0.37047
 Alpha virt. eigenvalues --   -0.01314   0.03314   0.06865   0.07085   0.09769
 Alpha virt. eigenvalues --    0.17927   0.20426   0.20983   0.28057   0.28059
 Alpha virt. eigenvalues --    0.29822   0.35101   0.36139   0.44846   0.47774
 Alpha virt. eigenvalues --    0.48423   0.50448   0.98697   1.04316   1.05064
 Alpha virt. eigenvalues --    1.05078   1.05581   1.06608   1.09759   1.10350
 Alpha virt. eigenvalues --    1.10462   1.11371   1.12176   1.12187   1.13864
 Alpha virt. eigenvalues --    1.24119   1.25553   1.51358   1.56668   1.65444
 Alpha virt. eigenvalues --    1.65500   1.94366   1.96034   2.19986   2.21662
 Alpha virt. eigenvalues --    2.25848   2.63401   4.19051   4.19973   4.20893
 Alpha virt. eigenvalues --    4.26032   4.26046   4.27157   4.27287   4.88279
 Alpha virt. eigenvalues --    4.90412   4.93282   4.98354   4.99817   5.00378
 Alpha virt. eigenvalues --    5.00448   5.00913   5.04434   5.17517   5.17557
 Alpha virt. eigenvalues --    5.24588   5.53686   5.55872   6.29531   6.67739
 Alpha virt. eigenvalues --    6.67790   6.97782   7.02043   7.51661   9.78399
 Alpha virt. eigenvalues --   20.61350  20.62238  20.92225  49.91947 216.25229
  Beta  occ. eigenvalues -- -102.73440 -19.71533  -9.89642  -7.62104  -7.61291
  Beta  occ. eigenvalues --   -7.61129  -1.18413  -0.86216  -0.54099  -0.52164
  Beta  occ. eigenvalues --   -0.47507  -0.35060
  Beta virt. eigenvalues --   -0.13097  -0.00427   0.03108   0.06639   0.07013
  Beta virt. eigenvalues --    0.10357   0.17860   0.21434   0.21458   0.28436
  Beta virt. eigenvalues --    0.28519   0.29643   0.36102   0.36594   0.44814
  Beta virt. eigenvalues --    0.48031   0.48393   0.50919   0.99116   1.05434
  Beta virt. eigenvalues --    1.05468   1.06626   1.07244   1.07616   1.11286
  Beta virt. eigenvalues --    1.11360   1.11384   1.11672   1.12291   1.12318
  Beta virt. eigenvalues --    1.13600   1.25304   1.25677   1.52697   1.58472
  Beta virt. eigenvalues --    1.67871   1.68157   1.96198   1.96339   2.21570
  Beta virt. eigenvalues --    2.21866   2.26408   2.63443   4.20377   4.20729
  Beta virt. eigenvalues --    4.20772   4.28212   4.28322   4.28637   4.28771
  Beta virt. eigenvalues --    4.90611   4.91019   4.94326   5.02226   5.02707
  Beta virt. eigenvalues --    5.03045   5.04157   5.05415   5.06874   5.18690
  Beta virt. eigenvalues --    5.18989   5.25874   5.56113   5.56118   6.31306
  Beta virt. eigenvalues --    6.78744   6.79634   7.03900   7.09147   7.56052
  Beta virt. eigenvalues --    9.78697  20.62415  20.63132  20.92109  49.91444
  Beta virt. eigenvalues --  216.25798
          Condensed to atoms (all electrons):
               1          2
     1  Cl  16.747479   0.097419
     2  O    0.097419   8.057683
          Atomic-Atomic Spin Densities.
               1          2
     1  Cl   0.357835  -0.096835
     2  O   -0.096835   0.835834
 Mulliken charges and spin densities:
               1          2
     1  Cl   0.155102   0.261000
     2  O   -0.155102   0.739000
 Sum of Mulliken charges =  -0.00000   1.00000
 Mulliken charges and spin densities with hydrogens summed into heavy atoms:
               1          2
     1  Cl   0.155102   0.261000
     2  O   -0.155102   0.739000
 Electronic spatial extent (au):  <R**2>=             87.5783
 Charge=             -0.0000 electrons
 Dipole moment (field-independent basis, Debye):
    X=              0.0000    Y=              0.0000    Z=              1.3139  Tot=              1.3139
 Quadrupole moment (field-independent basis, Debye-Ang):
   XX=            -16.9370   YY=            -18.2046   ZZ=            -17.4928
   XY=              0.0000   XZ=              0.0000   YZ=             -0.0000
 Traceless Quadrupole moment (field-independent basis, Debye-Ang):
   XX=              0.6078   YY=             -0.6598   ZZ=              0.0520
   XY=              0.0000   XZ=              0.0000   YZ=             -0.0000
 Octapole moment (field-independent basis, Debye-Ang**2):
  XXX=              0.0000  YYY=              0.0000  ZZZ=              1.9446  XYY=              0.0000
  XXY=              0.0000  XXZ=             -0.6891  XZZ=              0.0000  YZZ=             -0.0000
  YYZ=             -0.4630  XYZ=             -0.0000
 Hexadecapole moment (field-independent basis, Debye-Ang**3):
 XXXX=            -16.5758 YYYY=            -18.5724 ZZZZ=            -68.4904 XXXY=              0.0000
 XXXZ=              0.0000 YYYX=              0.0000 YYYZ=             -0.0000 ZZZX=              0.0000
 ZZZY=              0.0000 XXYY=             -5.8592 XXZZ=            -14.3719 YYZZ=            -16.1895
 XXYZ=              0.0000 YYXZ=              0.0000 ZZXY=              0.0000
 N-N= 4.557321224233D+01 E-N=-1.363248346300D+03  KE= 5.345829361299D+02
                          Isotropic Fermi Contact Couplings
        Atom                 a.u.       MegaHertz       Gauss      10(-4) cm-1
     1  Cl(35)            -0.03836     -16.81779      -6.00101      -5.60981
     2  O(17)              0.09344     -56.64529     -20.21245     -18.89484
 --------------------------------------------------------
       Center         ----  Spin Dipole Couplings  ----
                      3XX-RR        3YY-RR        3ZZ-RR
 --------------------------------------------------------
     1   Atom        2.264907     -0.975442     -1.289464
     2   Atom        3.066261     -1.550254     -1.516008
 --------------------------------------------------------
                        XY            XZ            YZ
 --------------------------------------------------------
     1   Atom        0.000000      0.000000      0.000000
     2   Atom        0.000000      0.000000      0.000000
 --------------------------------------------------------


 ---------------------------------------------------------------------------------
              Anisotropic Spin Dipole Couplings in Principal Axis System
 ---------------------------------------------------------------------------------

       Atom             a.u.   MegaHertz   Gauss  10(-4) cm-1        Axes

              Baa    -1.2895   -67.488   -24.081   -22.511  0.0000  0.0000  1.0000
     1 Cl(35) Bbb    -0.9754   -51.052   -18.217   -17.029 -0.0000  1.0000  0.0000
              Bcc     2.2649   118.540    42.298    39.541  1.0000  0.0000  0.0000
 
              Baa    -1.5503   112.175    40.027    37.418 -0.0000  1.0000  0.0000
     2 O(17)  Bbb    -1.5160   109.697    39.143    36.591  0.0000  0.0000  1.0000
              Bcc     3.0663  -221.873   -79.170   -74.009  1.0000  0.0000  0.0000
 

 ---------------------------------------------------------------------------------

 No NMR shielding tensors so no spin-rotation constants.
 Leave Link  601 at Sun Apr 18 08:23:42 2021, MaxMem=   104857600 cpu:              83.0 elap:               1.8
 (Enter /s/ls4/users/knvvv/bin/g16sse/l801.exe)
 DoSCS=F DFT=T ScalE2(SS,OS)=  1.000000  1.000000
 Range of M.O.s used for correlation:     1    88
 NBasis=    88 NAE=    13 NBE=    12 NFC=     0 NFV=     0
 NROrb=     88 NOA=    13 NOB=    12 NVA=    75 NVB=    76
 Leave Link  801 at Sun Apr 18 08:23:42 2021, MaxMem=   104857600 cpu:               3.2 elap:               0.1
 (Enter /s/ls4/users/knvvv/bin/g16sse/l914.exe)
 UHF ground state
 Doing stability rather than CIS.
 Keep R1 and R2 ints in memory in symmetry-blocked form, NReq=77075538.
 FoFCou: FMM=F IPFlag=           0 FMFlag=           0 FMFlg1=           0
         NFxFlg=           0 DoJE=F BraDBF=F KetDBF=F FulRan=T
         wScrn=  0.000000 ICntrl=       600 IOpCl=  0 I1Cent=           0 NGrid=           0
         NMat0=    1 NMatS0=   3916 NMatT0=    0 NMatD0=    1 NMtDS0=    0 NMtDT0=    0
 Petite list used in FoFCou.
 MDV=   104857600 DFT=T DoStab=T Mixed=T DoRPA=F DoScal=F NonHer=F
 Making orbital integer symmetry assigments:
 Orbital symmetries:
 Alpha Orbitals:
       Occupied  (SG) (SG) (SG) (PI) (SG) (PI) (SG) (SG) (?A) (SG)
                 (?A) (?A) (?A)
       Virtual   (SG) (SG) (PI) (PI) (SG) (SG) (PI) (PI) (?B) (?B)
                 (?B) (PI) (PI) (SG) (PI) (PI) (SG) (?C) (?D) (?C)
                 (?C) (?C) (?D) (?D) (?C) (?C) (?D) (?D) (?D) (SG)
                 (PI) (PI) (?E) (?E) (?E) (?E) (PI) (PI) (PI) (PI)
                 (SG) (SG) (?F) (?G) (?F) (?F) (?F) (?G) (?G) (?H)
                 (?H) (?I) (?H) (?H) (?I) (?I) (?H) (?H) (?I) (?I)
                 (?I) (PI) (PI) (?J) (?J) (?J) (PI) (PI) (SG) (SG)
                 (PI) (PI) (SG) (SG) (SG)
 Beta  Orbitals:
       Occupied  (SG) (SG) (SG) (SG) (PI) (PI) (SG) (SG) (SG) (?A)
                 (?A) (?A)
       Virtual   (?A) (SG) (SG) (PI) (PI) (SG) (SG) (?A) (?A) (?B)
                 (?B) (?B) (PI) (PI) (SG) (PI) (PI) (SG) (?C) (?C)
                 (?C) (?C) (?D) (?D) (?C) (?C) (?D) (?D) (?D) (?D)
                 (?C) (PI) (PI) (?E) (?E) (?E) (?E) (PI) (PI) (PI)
                 (PI) (SG) (SG) (?F) (?F) (?G) (?G) (?G) (?F) (?F)
                 (PI) (PI) (?H) (?H) (?F) (?H) (?F) (?F) (?F) (?I)
                 (?I) (?I) (PI) (PI) (SG) (DLTA) (DLTA) (PI) (PI)
                 (SG) (SG) (PI) (PI) (SG) (SG) (SG)
    12 initial guesses have been made.
 Convergence on wavefunction:    0.001000000000000
 Davidson Disk Diagonalization:  ConvIn= 1.00D-03 SkipCon=T Conv= 1.00D-03.
 Max sub-space:  2000 roots to seek:    12 dimension of matrix:         1887
 Iteration     1 Dimension    12 NMult     0 NNew     12
 CISAX will form    12 AO SS matrices at one time.
 NMat=    12 NSing=    12 JSym2X= 2.
 Excitation Energies [eV] at current iteration:
 Root      1 :     0.326966136204561
 Root      2 :     4.664776656613703
 Root      3 :     5.182836863114689
 Root      4 :     5.806417635181989
 Root      5 :     5.950098340928555
 Root      6 :     6.259950383685807
 Root      7 :     7.886691025223131
 Root      8 :     7.994663740323617
 Root      9 :     8.406077646120323
 Root     10 :     8.930263215192459
 Root     11 :     9.188926785732505
 Root     12 :     9.386271757964835
 Iteration     2 Dimension    24 NMult    12 NNew     12
 CISAX will form    12 AO SS matrices at one time.
 NMat=    12 NSing=    12 JSym2X= 2.
 Root      1 not converged, maximum delta is    0.070558445257424
 Excitation Energies [eV] at current iteration:
 Root      1 :     0.005669392154068   Change is   -0.321296744050493
 Root      2 :     3.697093415468462   Change is   -0.967683241145240
 Root      3 :     4.070520056513143   Change is   -3.924143683810474
 Root      4 :     4.959100752595135   Change is   -0.223736110519554
 Root      5 :     5.205617394715934   Change is   -0.600800240466055
 Root      6 :     5.403850684938339   Change is   -0.546247655990216
 Root      7 :     5.536345425817302   Change is   -0.723604957868504
 Root      8 :     7.686346322317852   Change is   -0.200344702905279
 Root      9 :     8.197309226183663   Change is   -0.208768419936660
 Root     10 :     8.844269211499670   Change is   -0.085994003692788
 Root     11 :     8.987144388448119   Change is   -0.201782397284387
 Root     12 :     9.133987720776277   Change is   -0.252284037188558
 Iteration     3 Dimension    27 NMult    24 NNew      3
 CISAX will form     3 AO SS matrices at one time.
 NMat=     3 NSing=     3 JSym2X= 2.
 Root      1 not converged, maximum delta is    0.005963747785040
 Excitation Energies [eV] at current iteration:
 Root      1 :     0.000055805019920   Change is   -0.005613587134148
 Root      2 :     3.678211707784018   Change is   -0.018881707684444
 Root      3 :     3.831627474481826   Change is   -0.238892582031317
 Iteration     4 Dimension    30 NMult    27 NNew      3
 CISAX will form     3 AO SS matrices at one time.
 NMat=     3 NSing=     3 JSym2X= 2.
 Root      1 has converged.
 Excitation Energies [eV] at current iteration:
 Root      1 :    -0.000007103681897   Change is   -0.000062908701818
 Root      2 :     3.676558354687574   Change is   -0.001653353096445
 Root      3 :     3.819005727698443   Change is   -0.012621746783383
 Convergence achieved on expansion vectors.
 ***********************************************************************
 Stability analysis using <AA,BB:AA,BB> singles matrix:
 ***********************************************************************
 1PDM for each excited state written to RWF  633
 Ground to excited state transition densities written to RWF  633

 Eigenvectors of the stability matrix:
 
 Excited state symmetry could not be determined.
 Eigenvector   1:  2.014-?Sym  Eigenvalue=-0.0000003  <S**2>=0.764
     10B -> 13B       -0.21310
     12B -> 13B        0.96845
 The wavefunction is stable under the perturbations considered.
 Leave Link  914 at Sun Apr 18 08:23:50 2021, MaxMem=   104857600 cpu:             352.1 elap:               7.5
 (Enter /s/ls4/users/knvvv/bin/g16sse/l508.exe)
 The wavefunction is already stable.
 Leave Link  508 at Sun Apr 18 08:23:50 2021, MaxMem=   104857600 cpu:               2.2 elap:               0.1
 (Enter /s/ls4/users/knvvv/bin/g16sse/l601.exe)
 Copying SCF densities to generalized density rwf, IOpCl= 1 IROHF=0.

 **********************************************************************

            Population analysis using the SCF density.

 **********************************************************************

 Orbital symmetries:
 Alpha Orbitals:
       Occupied  (SG) (SG) (SG) (PI) (SG) (PI) (SG) (SG) (?A) (SG)
                 (?A) (?A) (?A)
       Virtual   (SG) (SG) (PI) (PI) (SG) (SG) (PI) (PI) (?B) (?B)
                 (?B) (PI) (PI) (SG) (PI) (PI) (SG) (?C) (?D) (?C)
                 (?C) (?C) (?D) (?D) (?C) (?C) (?D) (?D) (?D) (SG)
                 (PI) (PI) (?E) (?E) (?E) (?E) (PI) (PI) (PI) (PI)
                 (SG) (SG) (?F) (?G) (?F) (?F) (?F) (?G) (?G) (?H)
                 (?H) (?I) (?H) (?H) (?I) (?I) (?H) (?H) (?I) (?I)
                 (?I) (PI) (PI) (?J) (?J) (?J) (PI) (PI) (SG) (SG)
                 (PI) (PI) (SG) (SG) (SG)
 Beta  Orbitals:
       Occupied  (SG) (SG) (SG) (SG) (PI) (PI) (SG) (SG) (SG) (?A)
                 (?A) (?A)
       Virtual   (?A) (SG) (SG) (PI) (PI) (SG) (SG) (?A) (?A) (?B)
                 (?B) (?B) (PI) (PI) (SG) (PI) (PI) (SG) (?C) (?C)
                 (?C) (?C) (?D) (?D) (?C) (?C) (?D) (?D) (?D) (?D)
                 (?C) (PI) (PI) (?E) (?E) (?E) (?E) (PI) (PI) (PI)
                 (PI) (SG) (SG) (?F) (?F) (?G) (?G) (?G) (?F) (?F)
                 (PI) (PI) (?H) (?H) (?F) (?H) (?F) (?F) (?F) (?I)
                 (?I) (?I) (PI) (PI) (SG) (DLTA) (DLTA) (PI) (PI)
                 (SG) (SG) (PI) (PI) (SG) (SG) (SG)
 Unable to determine electronic state:  an orbital has unidentified symmetry.
 Alpha  occ. eigenvalues -- -102.73782 -19.72931  -9.89750  -7.62133  -7.62108
 Alpha  occ. eigenvalues --   -7.61393  -1.22547  -0.89868  -0.57305  -0.56667
 Alpha  occ. eigenvalues --   -0.53916  -0.40068  -0.37047
 Alpha virt. eigenvalues --   -0.01314   0.03314   0.06865   0.07085   0.09769
 Alpha virt. eigenvalues --    0.17927   0.20426   0.20983   0.28057   0.28059
 Alpha virt. eigenvalues --    0.29822   0.35101   0.36139   0.44846   0.47774
 Alpha virt. eigenvalues --    0.48423   0.50448   0.98697   1.04316   1.05064
 Alpha virt. eigenvalues --    1.05078   1.05581   1.06608   1.09759   1.10350
 Alpha virt. eigenvalues --    1.10462   1.11371   1.12176   1.12187   1.13864
 Alpha virt. eigenvalues --    1.24119   1.25553   1.51358   1.56668   1.65444
 Alpha virt. eigenvalues --    1.65500   1.94366   1.96034   2.19986   2.21662
 Alpha virt. eigenvalues --    2.25848   2.63401   4.19051   4.19973   4.20893
 Alpha virt. eigenvalues --    4.26032   4.26046   4.27157   4.27287   4.88279
 Alpha virt. eigenvalues --    4.90412   4.93282   4.98354   4.99817   5.00378
 Alpha virt. eigenvalues --    5.00448   5.00913   5.04434   5.17517   5.17557
 Alpha virt. eigenvalues --    5.24588   5.53686   5.55872   6.29531   6.67739
 Alpha virt. eigenvalues --    6.67790   6.97782   7.02043   7.51661   9.78399
 Alpha virt. eigenvalues --   20.61350  20.62238  20.92225  49.91947 216.25229
  Beta  occ. eigenvalues -- -102.73440 -19.71533  -9.89642  -7.62104  -7.61291
  Beta  occ. eigenvalues --   -7.61129  -1.18413  -0.86216  -0.54099  -0.52164
  Beta  occ. eigenvalues --   -0.47507  -0.35060
  Beta virt. eigenvalues --   -0.13097  -0.00427   0.03108   0.06639   0.07013
  Beta virt. eigenvalues --    0.10357   0.17860   0.21434   0.21458   0.28436
  Beta virt. eigenvalues --    0.28519   0.29643   0.36102   0.36594   0.44814
  Beta virt. eigenvalues --    0.48031   0.48393   0.50919   0.99116   1.05434
  Beta virt. eigenvalues --    1.05468   1.06626   1.07244   1.07616   1.11286
  Beta virt. eigenvalues --    1.11360   1.11384   1.11672   1.12291   1.12318
  Beta virt. eigenvalues --    1.13600   1.25304   1.25677   1.52697   1.58472
  Beta virt. eigenvalues --    1.67871   1.68157   1.96198   1.96339   2.21570
  Beta virt. eigenvalues --    2.21866   2.26408   2.63443   4.20377   4.20729
  Beta virt. eigenvalues --    4.20772   4.28212   4.28322   4.28637   4.28771
  Beta virt. eigenvalues --    4.90611   4.91019   4.94326   5.02226   5.02707
  Beta virt. eigenvalues --    5.03045   5.04157   5.05415   5.06874   5.18690
  Beta virt. eigenvalues --    5.18989   5.25874   5.56113   5.56118   6.31306
  Beta virt. eigenvalues --    6.78744   6.79634   7.03900   7.09147   7.56052
  Beta virt. eigenvalues --    9.78697  20.62415  20.63132  20.92109  49.91444
  Beta virt. eigenvalues --  216.25798
          Condensed to atoms (all electrons):
               1          2
     1  Cl  16.747479   0.097419
     2  O    0.097419   8.057683
          Atomic-Atomic Spin Densities.
               1          2
     1  Cl   0.357835  -0.096835
     2  O   -0.096835   0.835834
 Mulliken charges and spin densities:
               1          2
     1  Cl   0.155102   0.261000
     2  O   -0.155102   0.739000
 Sum of Mulliken charges =  -0.00000   1.00000
 Mulliken charges and spin densities with hydrogens summed into heavy atoms:
               1          2
     1  Cl   0.155102   0.261000
     2  O   -0.155102   0.739000
 Electronic spatial extent (au):  <R**2>=             87.5783
 Charge=             -0.0000 electrons
 Dipole moment (field-independent basis, Debye):
    X=              0.0000    Y=              0.0000    Z=              1.3139  Tot=              1.3139
 Quadrupole moment (field-independent basis, Debye-Ang):
   XX=            -16.9370   YY=            -18.2046   ZZ=            -17.4928
   XY=              0.0000   XZ=              0.0000   YZ=             -0.0000
 Traceless Quadrupole moment (field-independent basis, Debye-Ang):
   XX=              0.6078   YY=             -0.6598   ZZ=              0.0520
   XY=              0.0000   XZ=              0.0000   YZ=             -0.0000
 Octapole moment (field-independent basis, Debye-Ang**2):
  XXX=              0.0000  YYY=              0.0000  ZZZ=              1.9446  XYY=              0.0000
  XXY=              0.0000  XXZ=             -0.6891  XZZ=              0.0000  YZZ=             -0.0000
  YYZ=             -0.4630  XYZ=             -0.0000
 Hexadecapole moment (field-independent basis, Debye-Ang**3):
 XXXX=            -16.5758 YYYY=            -18.5724 ZZZZ=            -68.4904 XXXY=              0.0000
 XXXZ=              0.0000 YYYX=              0.0000 YYYZ=             -0.0000 ZZZX=              0.0000
 ZZZY=              0.0000 XXYY=             -5.8592 XXZZ=            -14.3719 YYZZ=            -16.1895
 XXYZ=              0.0000 YYXZ=              0.0000 ZZXY=              0.0000
 N-N= 4.557321224233D+01 E-N=-1.363248346300D+03  KE= 5.345829361299D+02
                          Isotropic Fermi Contact Couplings
        Atom                 a.u.       MegaHertz       Gauss      10(-4) cm-1
     1  Cl(35)            -0.03836     -16.81779      -6.00101      -5.60981
     2  O(17)              0.09344     -56.64529     -20.21245     -18.89484
 --------------------------------------------------------
       Center         ----  Spin Dipole Couplings  ----
                      3XX-RR        3YY-RR        3ZZ-RR
 --------------------------------------------------------
     1   Atom        2.264907     -0.975442     -1.289464
     2   Atom        3.066261     -1.550254     -1.516008
 --------------------------------------------------------
                        XY            XZ            YZ
 --------------------------------------------------------
     1   Atom        0.000000      0.000000      0.000000
     2   Atom        0.000000      0.000000      0.000000
 --------------------------------------------------------


 ---------------------------------------------------------------------------------
              Anisotropic Spin Dipole Couplings in Principal Axis System
 ---------------------------------------------------------------------------------

       Atom             a.u.   MegaHertz   Gauss  10(-4) cm-1        Axes

              Baa    -1.2895   -67.488   -24.081   -22.511  0.0000  0.0000  1.0000
     1 Cl(35) Bbb    -0.9754   -51.052   -18.217   -17.029 -0.0000  1.0000  0.0000
              Bcc     2.2649   118.540    42.298    39.541  1.0000  0.0000  0.0000
 
              Baa    -1.5503   112.175    40.027    37.418 -0.0000  1.0000  0.0000
     2 O(17)  Bbb    -1.5160   109.697    39.143    36.591  0.0000  0.0000  1.0000
              Bcc     3.0663  -221.873   -79.170   -74.009  1.0000  0.0000  0.0000
 

 ---------------------------------------------------------------------------------

 No NMR shielding tensors so no spin-rotation constants.
 Leave Link  601 at Sun Apr 18 08:23:51 2021, MaxMem=   104857600 cpu:              70.1 elap:               1.5
 (Enter /s/ls4/users/knvvv/bin/g16sse/l9999.exe)

 Test job not archived.
 1\1\GINC-N178\Stability\UM062X\Gen\Cl1O1(2)\KNVVV\18-Apr-2021\0\\#P M0
 62X/GEN Integral=UltraFineGrid SCF=NoSymm Stable=(RExt, Opt) IOp(1/33=
 1)\\Database calculations.\\0,2\Cl,0,0.,0.,0.\O,0,0.,0.,1.57917551\\Ve
 rsion=ES64L-G16RevA.03\HF=-535.2993118\S2=0.75672\S2-1=0.\S2A=0.750026
 \RMSD=9.229e-09\Dipole=0.,0.,-0.5169295\Quadrupole=0.4518886,-0.490518
 6,0.03863,0.,0.,0.\PG=C*V [C*(O1Cl1)]\\@


 TERENCE, THIS IS STUPID STUFF:
 YOU EAT YOUR VICTUALS FAST ENOUGH;
 THERE CAN'T BE MUCH AMISS, 'TIS CLEAR
 TO SEE THE RATE YOU DRINK YOUR BEER.
 BUT OH, GOOD LORD, THE VERSE YOU MAKE,
 IT GIVES A CHAP THE BELLY-ACHE.
 THE COW, THE OLD COW, SHE IS DEAD;
 IT SLEEPS WELL, THE HORNED HEAD:
 WE POOR LADS, 'TIS OUR TURN NOW
 TO HEAR SUCH TUNES AS KILLED THE COW.
 PRETTY FRIENDSHIP 'TIS TO RHYME
 YOUR FRIENDS TO DEATH BEFORE THEIR TIME.
 MOPING, MELANCHOLY MAD:
 COME PIPE A TUNE TO DANCE TO, LAD.

     -- A. E. HOUSMAN
 Job cpu time:       0 days  0 hours 40 minutes 20.7 seconds.
 Elapsed time:       0 days  0 hours  0 minutes 51.9 seconds.
 File lengths (MBytes):  RWF=     68 Int=      0 D2E=      0 Chk=      2 Scr=      1
 Normal termination of Gaussian 16 at Sun Apr 18 08:23:52 2021.
