 Entering Gaussian System, Link 0=/s/ls4/users/knvvv/bin/g16sse/g16
 Input=data/database/M062X--def2-QZVP--ALKBDE10_bef.gjf
 Output=data/database/M062X--def2-QZVP--ALKBDE10_bef.log
 Initial command:
 /s/ls4/users/knvvv/bin/g16sse/l1.exe "/s/ls4/users/knvvv/bin/scratch/Gau-46844.inp" -scrdir="/s/ls4/users/knvvv/bin/scratch/"
 Entering Link 1 = /s/ls4/users/knvvv/bin/g16sse/l1.exe PID=     46845.
  
 Copyright (c) 1988,1990,1992,1993,1995,1998,2003,2009,2016,
            Gaussian, Inc.  All Rights Reserved.
  
 This is part of the Gaussian(R) 16 program.  It is based on
 the Gaussian(R) 09 system (copyright 2009, Gaussian, Inc.),
 the Gaussian(R) 03 system (copyright 2003, Gaussian, Inc.),
 the Gaussian(R) 98 system (copyright 1998, Gaussian, Inc.),
 the Gaussian(R) 94 system (copyright 1995, Gaussian, Inc.),
 the Gaussian 92(TM) system (copyright 1992, Gaussian, Inc.),
 the Gaussian 90(TM) system (copyright 1990, Gaussian, Inc.),
 the Gaussian 88(TM) system (copyright 1988, Gaussian, Inc.),
 the Gaussian 86(TM) system (copyright 1986, Carnegie Mellon
 University), and the Gaussian 82(TM) system (copyright 1983,
 Carnegie Mellon University). Gaussian is a federally registered
 trademark of Gaussian, Inc.
  
 This software contains proprietary and confidential information,
 including trade secrets, belonging to Gaussian, Inc.
  
 This software is provided under written license and may be
 used, copied, transmitted, or stored only in accord with that
 written license.
  
 The following legend is applicable only to US Government
 contracts under FAR:
  
                    RESTRICTED RIGHTS LEGEND
  
 Use, reproduction and disclosure by the US Government is
 subject to restrictions as set forth in subparagraphs (a)
 and (c) of the Commercial Computer Software - Restricted
 Rights clause in FAR 52.227-19.
  
 Gaussian, Inc.
 340 Quinnipiac St., Bldg. 40, Wallingford CT 06492
  
  
 ---------------------------------------------------------------
 Warning -- This program may not be used in any manner that
 competes with the business of Gaussian, Inc. or will provide
 assistance to any competitor of Gaussian, Inc.  The licensee
 of this program is prohibited from giving any competitor of
 Gaussian, Inc. access to this program.  By using this program,
 the user acknowledges that Gaussian, Inc. is engaged in the
 business of creating and licensing software in the field of
 computational chemistry and represents and warrants to the
 licensee that it is not a competitor of Gaussian, Inc. and that
 it will not use this program in any manner prohibited above.
 ---------------------------------------------------------------
  

 Cite this work as:
 Gaussian 16, Revision A.03,
 M. J. Frisch, G. W. Trucks, H. B. Schlegel, G. E. Scuseria, 
 M. A. Robb, J. R. Cheeseman, G. Scalmani, V. Barone, 
 G. A. Petersson, H. Nakatsuji, X. Li, M. Caricato, A. V. Marenich, 
 J. Bloino, B. G. Janesko, R. Gomperts, B. Mennucci, H. P. Hratchian, 
 J. V. Ortiz, A. F. Izmaylov, J. L. Sonnenberg, D. Williams-Young, 
 F. Ding, F. Lipparini, F. Egidi, J. Goings, B. Peng, A. Petrone, 
 T. Henderson, D. Ranasinghe, V. G. Zakrzewski, J. Gao, N. Rega, 
 G. Zheng, W. Liang, M. Hada, M. Ehara, K. Toyota, R. Fukuda, 
 J. Hasegawa, M. Ishida, T. Nakajima, Y. Honda, O. Kitao, H. Nakai, 
 T. Vreven, K. Throssell, J. A. Montgomery, Jr., J. E. Peralta, 
 F. Ogliaro, M. J. Bearpark, J. J. Heyd, E. N. Brothers, K. N. Kudin, 
 V. N. Staroverov, T. A. Keith, R. Kobayashi, J. Normand, 
 K. Raghavachari, A. P. Rendell, J. C. Burant, S. S. Iyengar, 
 J. Tomasi, M. Cossi, J. M. Millam, M. Klene, C. Adamo, R. Cammi, 
 J. W. Ochterski, R. L. Martin, K. Morokuma, O. Farkas, 
 J. B. Foresman, and D. J. Fox, Gaussian, Inc., Wallingford CT, 2016.
 
 ******************************************
 Gaussian 16:  ES64L-G16RevA.03 25-Dec-2016
                16-Apr-2021 
 ******************************************
 %RWF=temp4_34680,70GB
 %nprocshared=48
 Will use up to   48 processors via shared memory.
 Default route: MaxDisk=80GB
 ----------------------------------------------------------------------
 #P M062X/Def2QZVP Integral=UltraFineGrid SCF=NoSymm Stable=(RExt, Opt)
  IOp(1/33=1)
 ----------------------------------------------------------------------
 1/33=1,38=1,172=1/1;
 2/12=2,17=6,18=5,40=1/2;
 3/5=45,7=101,11=2,25=1,30=1,74=-55,75=-5/1,2,3;
 4/9=2/1;
 5/5=2,38=5/2;
 6/7=2,8=2,9=2,10=2,28=1/1;
 8/6=1,10=90,11=11/1;
 9/8=-3,42=1,46=1/14;
 5/5=2,8=3,17=40,38=5/8(-2);
 6/7=2,8=2,9=2,10=2,28=1/1;
 99/5=1,9=1/99;
 Leave Link    1 at Fri Apr 16 22:59:23 2021, MaxMem=           0 cpu:              10.8 elap:               0.2
 (Enter /s/ls4/users/knvvv/bin/g16sse/l101.exe)
 ONIOM data not found on unit 2.
 ----------------------
 Database calculations.
 ----------------------
 TstMul:  ICh=     0
 TstMul:  Mul=     2
 TstMul:  ICh=     0
 TstMul:  Mul=     2
 Symbolic Z-matrix:
 Charge =  0 Multiplicity = 2
 Be                    0.        0.       -0.68236 
 F                     0.        0.        0.68236 
 
 RdStrC is calling ZToCFu for IStruc=1 NZ=     2.
 PrtBox:  NBox=     1 Levels=  1 BoxLen=    8.00 SMaxX=        2.58
          Shift=            0.000000            0.000000            1.289478
 Box      1 Number                   0 centers from      1 to      2:
 After GenITR:
 ITRead=  0  0
 MicOpt= -1 -1
 ITRead=  0  0
 MicOpt= -1 -1
 NAtoms=      2 NQM=        2 NQMF=       0 NMMI=      0 NMMIF=      0
                NMic=       0 NMicF=      0.
                    Isotopes and Nuclear Properties:
 (Nuclear quadrupole moments (NQMom) in fm**2, nuclear magnetic moments (NMagM)
  in nuclear magnetons)

  Atom         1           2
 IAtWgt=           9          19
 AtmWgt=   9.0121825  18.9984033
 NucSpn=           3           1
 AtZEff=  -0.0000000  -0.0000000
 NQMom=    5.2880000   0.0000000
 NMagM=   -1.1779000   2.6288670
 AtZNuc=   4.0000000   9.0000000
 No MM parameters found.
 Leave Link  101 at Fri Apr 16 22:59:24 2021, MaxMem=   104857600 cpu:               6.5 elap:               0.2
 (Enter /s/ls4/users/knvvv/bin/g16sse/l202.exe)
                          Input orientation:                          
 ---------------------------------------------------------------------
 Center     Atomic      Atomic             Coordinates (Angstroms)
 Number     Number       Type             X           Y           Z
 ---------------------------------------------------------------------
      1          4           0        0.000000    0.000000   -0.682363
      2          9           0        0.000000    0.000000    0.682363
 ---------------------------------------------------------------------
 Stoichiometry    BeF(2)
 Framework group  C*V[C*(BeF)]
 Deg. of freedom     1
 Full point group                 C*V     NOp   4
 Largest Abelian subgroup         C2V     NOp   4
 Largest concise Abelian subgroup C1      NOp   1
                         Standard orientation:                         
 ---------------------------------------------------------------------
 Center     Atomic      Atomic             Coordinates (Angstroms)
 Number     Number       Type             X           Y           Z
 ---------------------------------------------------------------------
      1          4           0        0.000000    0.000000   -0.944810
      2          9           0        0.000000    0.000000    0.419915
 ---------------------------------------------------------------------
 Rotational constants (GHZ):           0.0000000          44.3917245          44.3917245
 Leave Link  202 at Fri Apr 16 22:59:24 2021, MaxMem=   104857600 cpu:               6.0 elap:               0.1
 (Enter /s/ls4/users/knvvv/bin/g16sse/l301.exe)
 Standard basis: def2QZVP (5D, 7F)
 Ernie: Thresh=  0.10000D-02 Tol=  0.10000D-05 Strict=F.
 There are    52 symmetry adapted cartesian basis functions of A1  symmetry.
 There are    11 symmetry adapted cartesian basis functions of A2  symmetry.
 There are    25 symmetry adapted cartesian basis functions of B1  symmetry.
 There are    25 symmetry adapted cartesian basis functions of B2  symmetry.
 There are    41 symmetry adapted basis functions of A1  symmetry.
 There are    10 symmetry adapted basis functions of A2  symmetry.
 There are    21 symmetry adapted basis functions of B1  symmetry.
 There are    21 symmetry adapted basis functions of B2  symmetry.
    93 basis functions,   150 primitive gaussians,   113 cartesian basis functions
     7 alpha electrons        6 beta electrons
       nuclear repulsion energy        13.9591343261 Hartrees.
 IExCor= 4336 DFT=T Ex+Corr=M062X ExCW=0 ScaHFX=  0.540000
 ScaDFX=  1.000000  1.000000  1.000000  1.000000 ScalE2=  1.000000  1.000000
 IRadAn=      5 IRanWt=     -1 IRanGd=            0 ICorTp=0 IEmpDi=  4
 NAtoms=    2 NActive=    2 NUniq=    2 SFac= 1.00D+00 NAtFMM=   60 NAOKFM=F Big=F
 Integral buffers will be    131072 words long.
 Raffenetti 2 integral format.
 Two-electron integral symmetry is turned on.
 Leave Link  301 at Fri Apr 16 22:59:24 2021, MaxMem=   104857600 cpu:               6.3 elap:               0.2
 (Enter /s/ls4/users/knvvv/bin/g16sse/l302.exe)
 NPDir=0 NMtPBC=     1 NCelOv=     1 NCel=       1 NClECP=     1 NCelD=      1
         NCelK=      1 NCelE2=     1 NClLst=     1 CellRange=     0.0.
 One-electron integrals computed using PRISM.
 One-electron integral symmetry used in STVInt
 PrsmSu:  requested number of processors reduced to:   4 ShMem   1 Linda.
 PrsmSu:  requested number of processors reduced to:  21 ShMem   1 Linda.
   4 Symmetry operations used in ECPInt.
 ECPInt:  NShTT=     496 NPrTT=    1559 LenC2=     497 LenP2D=    1441.
 LDataN:  DoStor=T MaxTD1= 8 Len=  415
 Number of processors reduced to  44 by ecpmxn.
 NBasis=    93 RedAO= T EigKep=  3.25D-03  NBF=    41    10    21    21
 NBsUse=    93 1.00D-06 EigRej= -1.00D+00 NBFU=    41    10    21    21
 Precomputing XC quadrature grid using
 IXCGrd= 4 IRadAn=           5 IRanWt=          -1 IRanGd=           0 AccXCQ= 0.00D+00.
 Generated NRdTot=       0 NPtTot=           0 NUsed=           0 NTot=          32
 NSgBfM=   113   113   113   113   113 MxSgAt=     2 MxSgA2=     2.
 Leave Link  302 at Fri Apr 16 22:59:26 2021, MaxMem=   104857600 cpu:             112.9 elap:               2.5
 (Enter /s/ls4/users/knvvv/bin/g16sse/l303.exe)
 DipDrv:  MaxL=1.
 Leave Link  303 at Fri Apr 16 22:59:27 2021, MaxMem=   104857600 cpu:              17.4 elap:               0.4
 (Enter /s/ls4/users/knvvv/bin/g16sse/l401.exe)
 SCF N**3 symmetry information disabled.
 ExpMin= 4.16D-02 ExpMax= 1.33D+05 ExpMxC= 1.27D+03 IAcc=3 IRadAn=         5 AccDes= 0.00D+00
 Harris functional with IExCor= 1009 and IRadAn=       5 diagonalized for initial guess.
 HarFok:  IExCor= 1009 AccDes= 0.00D+00 IRadAn=         5 IDoV= 1 UseB2=F ITyADJ=14
 ICtDFT=  3500011 ScaDFX=  1.000000  1.000000  1.000000  1.000000
 FoFCou: FMM=F IPFlag=           0 FMFlag=      100000 FMFlg1=           0
         NFxFlg=           0 DoJE=T BraDBF=F KetDBF=T FulRan=T
         wScrn=  0.000000 ICntrl=       500 IOpCl=  0 I1Cent=   200000004 NGrid=           0
         NMat0=    1 NMatS0=      1 NMatT0=    0 NMatD0=    1 NMtDS0=    0 NMtDT0=    0
 Petite list used in FoFCou.
 CoulSu:  requested number of processors reduced to:  21 ShMem   1 Linda.
 CoulSu:  requested number of processors reduced to:  21 ShMem   1 Linda.
 CoulSu:  requested number of processors reduced to:  21 ShMem   1 Linda.
 CoulSu:  requested number of processors reduced to:  21 ShMem   1 Linda.
 Harris En= -114.541838925529    
 JPrj=0 DoOrth=F DoCkMO=F.
 Initial guess orbital symmetries:
 Alpha Orbitals:
       Occupied  (SG) (SG) (SG) (SG) (PI) (PI) (SG)
       Virtual   (PI) (PI) (SG) (SG) (PI) (PI) (SG) (DLTA) (DLTA)
                 (PI) (PI) (SG) (SG) (PI) (PI) (SG) (PI) (PI) (SG)
                 (DLTA) (DLTA) (PI) (PI) (DLTA) (DLTA) (SG) (PHI)
                 (PHI) (SG) (PI) (PI) (SG) (DLTA) (DLTA) (SG) (PI)
                 (PI) (PI) (PI) (SG) (SG) (SG) (PHI) (PHI) (DLTA)
                 (DLTA) (PI) (PI) (SG) (DLTA) (DLTA) (PI) (PI)
                 (SG) (PI) (PI) (SG) (PI) (PI) (SG) (PI) (PI) (DLTA)
                 (DLTA) (PHI) (PHI) (?A) (?A) (SG) (SG) (PHI) (PHI)
                 (DLTA) (DLTA) (PI) (PI) (SG) (SG) (DLTA) (DLTA)
                 (PI) (PI) (SG) (SG) (SG) (SG)
 Beta  Orbitals:
       Occupied  (SG) (SG) (SG) (SG) (PI) (PI)
       Virtual   (SG) (PI) (PI) (SG) (SG) (PI) (PI) (SG) (DLTA)
                 (DLTA) (PI) (PI) (SG) (SG) (PI) (PI) (SG) (PI)
                 (PI) (SG) (DLTA) (DLTA) (PI) (PI) (DLTA) (DLTA)
                 (SG) (PHI) (PHI) (SG) (PI) (PI) (SG) (DLTA) (DLTA)
                 (SG) (PI) (PI) (PI) (PI) (SG) (SG) (SG) (PHI)
                 (PHI) (DLTA) (DLTA) (PI) (PI) (SG) (DLTA) (DLTA)
                 (PI) (PI) (SG) (PI) (PI) (SG) (PI) (PI) (SG) (PI)
                 (PI) (DLTA) (DLTA) (PHI) (PHI) (?A) (?A) (SG)
                 (SG) (PHI) (PHI) (DLTA) (DLTA) (PI) (PI) (SG)
                 (SG) (DLTA) (DLTA) (PI) (PI) (SG) (SG) (SG) (SG)
 The electronic state of the initial guess is 2-SG.
 Initial guess <Sx>= 0.0000 <Sy>= 0.0000 <Sz>= 0.5000 <S**2>= 0.7500 S= 0.5000
 Leave Link  401 at Fri Apr 16 22:59:28 2021, MaxMem=   104857600 cpu:              63.9 elap:               1.5
 (Enter /s/ls4/users/knvvv/bin/g16sse/l502.exe)
 Keep R1 and R2 ints in memory in symmetry-blocked form, NReq=63789804.
 FoFCou: FMM=F IPFlag=           0 FMFlag=           0 FMFlg1=           0
         NFxFlg=           0 DoJE=F BraDBF=F KetDBF=F FulRan=T
         wScrn=  0.000000 ICntrl=       600 IOpCl=  0 I1Cent=           0 NGrid=           0
         NMat0=    1 NMatS0=   4371 NMatT0=    0 NMatD0=    1 NMtDS0=    0 NMtDT0=    0
 Petite list used in FoFCou.
 CoulSu:  requested number of processors reduced to:  21 ShMem   1 Linda.
 UHF open shell SCF:
 Using DIIS extrapolation, IDIIS=  1040.
 NGot=   104857600 LenX=    99891368 LenY=    99878158
 Requested convergence on RMS density matrix=1.00D-08 within 128 cycles.
 Requested convergence on MAX density matrix=1.00D-06.
 Requested convergence on             energy=1.00D-06.
 No special actions if energy rises.

 Cycle   1  Pass 1  IDiag  1:
 E= -114.573376138095    
 DIIS: error= 3.86D-02 at cycle   1 NSaved=   1.
 NSaved= 1 IEnMin= 1 EnMin= -114.573376138095     IErMin= 1 ErrMin= 3.86D-02
 ErrMax= 3.86D-02  0.00D+00 EMaxC= 1.00D-01 BMatC= 4.46D-01 BMatP= 4.46D-01
 IDIUse=3 WtCom= 6.14D-01 WtEn= 3.86D-01
 Coeff-Com:  0.100D+01
 Coeff-En:   0.100D+01
 Coeff:      0.100D+01
 Gap=     0.276 Goal=   None    Shift=    0.000
 Gap=     0.267 Goal=   None    Shift=    0.000
 GapD=    0.267 DampG=1.000 DampE=0.500 DampFc=0.5000 IDamp=-1.
 Damping current iteration by 5.00D-01
 RMSDP=2.74D-03 MaxDP=7.97D-02              OVMax= 1.67D-01

 Cycle   2  Pass 1  IDiag  1:
 E= -114.591895824359     Delta-E=       -0.018519686263 Rises=F Damp=T
 DIIS: error= 2.17D-02 at cycle   2 NSaved=   2.
 NSaved= 2 IEnMin= 2 EnMin= -114.591895824359     IErMin= 2 ErrMin= 2.17D-02
 ErrMax= 2.17D-02  0.00D+00 EMaxC= 1.00D-01 BMatC= 7.03D-02 BMatP= 4.46D-01
 IDIUse=3 WtCom= 7.83D-01 WtEn= 2.17D-01
 Coeff-Com:  0.121D+00 0.879D+00
 Coeff-En:   0.277D+00 0.723D+00
 Coeff:      0.155D+00 0.845D+00
 Gap=     0.268 Goal=   None    Shift=    0.000
 Gap=     0.371 Goal=   None    Shift=    0.000
 RMSDP=9.27D-04 MaxDP=4.60D-02 DE=-1.85D-02 OVMax= 1.09D-01

 Cycle   3  Pass 1  IDiag  1:
 E= -114.629740924728     Delta-E=       -0.037845100369 Rises=F Damp=F
 DIIS: error= 3.10D-03 at cycle   3 NSaved=   3.
 NSaved= 3 IEnMin= 3 EnMin= -114.629740924728     IErMin= 3 ErrMin= 3.10D-03
 ErrMax= 3.10D-03  0.00D+00 EMaxC= 1.00D-01 BMatC= 1.83D-03 BMatP= 7.03D-02
 IDIUse=3 WtCom= 9.69D-01 WtEn= 3.10D-02
 Coeff-Com: -0.448D-01 0.827D-01 0.962D+00
 Coeff-En:   0.000D+00 0.000D+00 0.100D+01
 Coeff:     -0.434D-01 0.801D-01 0.963D+00
 Gap=     0.270 Goal=   None    Shift=    0.000
 Gap=     0.320 Goal=   None    Shift=    0.000
 RMSDP=2.67D-04 MaxDP=1.20D-02 DE=-3.78D-02 OVMax= 1.78D-02

 Cycle   4  Pass 1  IDiag  1:
 E= -114.630162901971     Delta-E=       -0.000421977243 Rises=F Damp=F
 DIIS: error= 4.57D-04 at cycle   4 NSaved=   4.
 NSaved= 4 IEnMin= 4 EnMin= -114.630162901971     IErMin= 4 ErrMin= 4.57D-04
 ErrMax= 4.57D-04  0.00D+00 EMaxC= 1.00D-01 BMatC= 3.56D-05 BMatP= 1.83D-03
 IDIUse=3 WtCom= 9.95D-01 WtEn= 4.57D-03
 Coeff-Com:  0.125D-02-0.614D-02 0.261D-01 0.979D+00
 Coeff-En:   0.000D+00 0.000D+00 0.000D+00 0.100D+01
 Coeff:      0.124D-02-0.611D-02 0.260D-01 0.979D+00
 Gap=     0.270 Goal=   None    Shift=    0.000
 Gap=     0.312 Goal=   None    Shift=    0.000
 RMSDP=7.03D-05 MaxDP=2.65D-03 DE=-4.22D-04 OVMax= 4.90D-03

 Cycle   5  Pass 1  IDiag  1:
 E= -114.630183627350     Delta-E=       -0.000020725380 Rises=F Damp=F
 DIIS: error= 1.87D-04 at cycle   5 NSaved=   5.
 NSaved= 5 IEnMin= 5 EnMin= -114.630183627350     IErMin= 5 ErrMin= 1.87D-04
 ErrMax= 1.87D-04  0.00D+00 EMaxC= 1.00D-01 BMatC= 3.42D-06 BMatP= 3.56D-05
 IDIUse=3 WtCom= 9.98D-01 WtEn= 1.87D-03
 Coeff-Com:  0.215D-02-0.370D-02-0.574D-01-0.135D+00 0.119D+01
 Coeff-En:   0.000D+00 0.000D+00 0.000D+00 0.000D+00 0.100D+01
 Coeff:      0.214D-02-0.369D-02-0.573D-01-0.134D+00 0.119D+01
 Gap=     0.271 Goal=   None    Shift=    0.000
 Gap=     0.303 Goal=   None    Shift=    0.000
 RMSDP=3.12D-05 MaxDP=1.10D-03 DE=-2.07D-05 OVMax= 2.30D-03

 Cycle   6  Pass 1  IDiag  1:
 E= -114.630186707313     Delta-E=       -0.000003079963 Rises=F Damp=F
 DIIS: error= 4.72D-05 at cycle   6 NSaved=   6.
 NSaved= 6 IEnMin= 6 EnMin= -114.630186707313     IErMin= 6 ErrMin= 4.72D-05
 ErrMax= 4.72D-05  0.00D+00 EMaxC= 1.00D-01 BMatC= 3.54D-07 BMatP= 3.42D-06
 IDIUse=1 WtCom= 1.00D+00 WtEn= 0.00D+00
 Coeff-Com: -0.623D-03 0.125D-02 0.143D-01-0.630D-01-0.137D+00 0.118D+01
 Coeff:     -0.623D-03 0.125D-02 0.143D-01-0.630D-01-0.137D+00 0.118D+01
 Gap=     0.271 Goal=   None    Shift=    0.000
 Gap=     0.299 Goal=   None    Shift=    0.000
 RMSDP=8.13D-06 MaxDP=1.73D-04 DE=-3.08D-06 OVMax= 3.19D-04

 Cycle   7  Pass 1  IDiag  1:
 E= -114.630186977501     Delta-E=       -0.000000270187 Rises=F Damp=F
 DIIS: error= 2.15D-05 at cycle   7 NSaved=   7.
 NSaved= 7 IEnMin= 7 EnMin= -114.630186977501     IErMin= 7 ErrMin= 2.15D-05
 ErrMax= 2.15D-05  0.00D+00 EMaxC= 1.00D-01 BMatC= 7.21D-08 BMatP= 3.54D-07
 IDIUse=1 WtCom= 1.00D+00 WtEn= 0.00D+00
 Coeff-Com: -0.145D-03 0.213D-03 0.439D-02 0.204D-01-0.846D-01-0.350D+00
 Coeff-Com:  0.141D+01
 Coeff:     -0.145D-03 0.213D-03 0.439D-02 0.204D-01-0.846D-01-0.350D+00
 Coeff:      0.141D+01
 Gap=     0.271 Goal=   None    Shift=    0.000
 Gap=     0.296 Goal=   None    Shift=    0.000
 RMSDP=4.23D-06 MaxDP=9.89D-05 DE=-2.70D-07 OVMax= 2.30D-04

 Cycle   8  Pass 1  IDiag  1:
 E= -114.630187017176     Delta-E=       -0.000000039676 Rises=F Damp=F
 DIIS: error= 2.17D-05 at cycle   8 NSaved=   8.
 NSaved= 8 IEnMin= 8 EnMin= -114.630187017176     IErMin= 7 ErrMin= 2.15D-05
 ErrMax= 2.17D-05  0.00D+00 EMaxC= 1.00D-01 BMatC= 3.14D-08 BMatP= 7.21D-08
 IDIUse=1 WtCom= 1.00D+00 WtEn= 0.00D+00
 Coeff-Com:  0.325D-04-0.114D-03 0.146D-03 0.171D-01-0.177D-01-0.346D+00
 Coeff-Com:  0.728D+00 0.619D+00
 Coeff:      0.325D-04-0.114D-03 0.146D-03 0.171D-01-0.177D-01-0.346D+00
 Coeff:      0.728D+00 0.619D+00
 Gap=     0.271 Goal=   None    Shift=    0.000
 Gap=     0.296 Goal=   None    Shift=    0.000
 RMSDP=1.61D-06 MaxDP=3.45D-05 DE=-3.97D-08 OVMax= 6.22D-05

 Cycle   9  Pass 1  IDiag  1:
 E= -114.630187030796     Delta-E=       -0.000000013620 Rises=F Damp=F
 DIIS: error= 1.22D-05 at cycle   9 NSaved=   9.
 NSaved= 9 IEnMin= 9 EnMin= -114.630187030796     IErMin= 9 ErrMin= 1.22D-05
 ErrMax= 1.22D-05  0.00D+00 EMaxC= 1.00D-01 BMatC= 1.41D-08 BMatP= 3.14D-08
 IDIUse=1 WtCom= 1.00D+00 WtEn= 0.00D+00
 Coeff-Com:  0.314D-04-0.654D-04-0.381D-03 0.278D-02 0.546D-02-0.578D-01
 Coeff-Com:  0.263D+00-0.122D+01 0.200D+01
 Coeff:      0.314D-04-0.654D-04-0.381D-03 0.278D-02 0.546D-02-0.578D-01
 Coeff:      0.263D+00-0.122D+01 0.200D+01
 Gap=     0.271 Goal=   None    Shift=    0.000
 Gap=     0.296 Goal=   None    Shift=    0.000
 RMSDP=1.51D-06 MaxDP=2.94D-05 DE=-1.36D-08 OVMax= 7.17D-05

 Cycle  10  Pass 1  IDiag  1:
 E= -114.630187047029     Delta-E=       -0.000000016232 Rises=F Damp=F
 DIIS: error= 3.81D-06 at cycle  10 NSaved=  10.
 NSaved=10 IEnMin=10 EnMin= -114.630187047029     IErMin=10 ErrMin= 3.81D-06
 ErrMax= 3.81D-06  0.00D+00 EMaxC= 1.00D-01 BMatC= 1.71D-09 BMatP= 1.41D-08
 IDIUse=1 WtCom= 1.00D+00 WtEn= 0.00D+00
 Coeff-Com: -0.175D-04 0.317D-04 0.196D-03 0.759D-03-0.613D-02-0.226D-02
 Coeff-Com:  0.407D-01 0.137D+00-0.697D+00 0.153D+01
 Coeff:     -0.175D-04 0.317D-04 0.196D-03 0.759D-03-0.613D-02-0.226D-02
 Coeff:      0.407D-01 0.137D+00-0.697D+00 0.153D+01
 Gap=     0.271 Goal=   None    Shift=    0.000
 Gap=     0.296 Goal=   None    Shift=    0.000
 RMSDP=6.06D-07 MaxDP=1.29D-05 DE=-1.62D-08 OVMax= 3.15D-05

 Cycle  11  Pass 1  IDiag  1:
 E= -114.630187038117     Delta-E=        0.000000008912 Rises=F Damp=F
 DIIS: error= 1.82D-05 at cycle  11 NSaved=  11.
 NSaved=11 IEnMin=10 EnMin= -114.630187047029     IErMin=10 ErrMin= 3.81D-06
 ErrMax= 1.82D-05  0.00D+00 EMaxC= 1.00D-01 BMatC= 3.88D-08 BMatP= 1.71D-09
 IDIUse=1 WtCom= 1.00D+00 WtEn= 0.00D+00
 Coeff-Com: -0.737D-06 0.147D-05-0.528D-04-0.133D-03-0.831D-04 0.480D-02
 Coeff-Com: -0.593D-01 0.271D+00-0.441D+00 0.101D+01 0.210D+00
 Coeff:     -0.737D-06 0.147D-05-0.528D-04-0.133D-03-0.831D-04 0.480D-02
 Coeff:     -0.593D-01 0.271D+00-0.441D+00 0.101D+01 0.210D+00
 Gap=     0.271 Goal=   None    Shift=    0.000
 Gap=     0.296 Goal=   None    Shift=    0.000
 RMSDP=4.70D-07 MaxDP=1.02D-05 DE= 8.91D-09 OVMax= 2.05D-05

 Cycle  12  Pass 1  IDiag  1:
 E= -114.630187046742     Delta-E=       -0.000000008625 Rises=F Damp=F
 DIIS: error= 8.60D-06 at cycle  12 NSaved=  12.
 NSaved=12 IEnMin=10 EnMin= -114.630187047029     IErMin=10 ErrMin= 3.81D-06
 ErrMax= 8.60D-06  0.00D+00 EMaxC= 1.00D-01 BMatC= 8.81D-09 BMatP= 1.71D-09
 IDIUse=1 WtCom= 1.00D+00 WtEn= 0.00D+00
 Coeff-Com: -0.215D-05 0.446D-05 0.284D-04-0.120D-03-0.752D-03 0.304D-02
 Coeff-Com: -0.830D-02 0.359D-01-0.123D+00 0.300D+00-0.673D+00 0.147D+01
 Coeff:     -0.215D-05 0.446D-05 0.284D-04-0.120D-03-0.752D-03 0.304D-02
 Coeff:     -0.830D-02 0.359D-01-0.123D+00 0.300D+00-0.673D+00 0.147D+01
 Gap=     0.271 Goal=   None    Shift=    0.000
 Gap=     0.295 Goal=   None    Shift=    0.000
 RMSDP=2.58D-07 MaxDP=5.73D-06 DE=-8.63D-09 OVMax= 1.14D-05

 Cycle  13  Pass 1  IDiag  1:
 E= -114.630187045966     Delta-E=        0.000000000776 Rises=F Damp=F
 DIIS: error= 1.28D-05 at cycle  13 NSaved=  13.
 NSaved=13 IEnMin=10 EnMin= -114.630187047029     IErMin=10 ErrMin= 3.81D-06
 ErrMax= 1.28D-05  0.00D+00 EMaxC= 1.00D-01 BMatC= 1.98D-08 BMatP= 1.71D-09
 IDIUse=1 WtCom= 1.00D+00 WtEn= 0.00D+00
 Coeff-Com: -0.963D-06 0.176D-05-0.298D-05-0.394D-04-0.109D-03 0.129D-02
 Coeff-Com: -0.103D-01 0.584D-01-0.965D-01 0.879D-01 0.424D-01 0.528D+00
 Coeff-Com:  0.389D+00
 Coeff:     -0.963D-06 0.176D-05-0.298D-05-0.394D-04-0.109D-03 0.129D-02
 Coeff:     -0.103D-01 0.584D-01-0.965D-01 0.879D-01 0.424D-01 0.528D+00
 Coeff:      0.389D+00
 Gap=     0.271 Goal=   None    Shift=    0.000
 Gap=     0.296 Goal=   None    Shift=    0.000
 RMSDP=1.72D-07 MaxDP=3.85D-06 DE= 7.76D-10 OVMax= 7.65D-06

 Cycle  14  Pass 1  IDiag  1:
 E= -114.630187047185     Delta-E=       -0.000000001220 Rises=F Damp=F
 DIIS: error= 3.24D-07 at cycle  14 NSaved=  14.
 NSaved=14 IEnMin=14 EnMin= -114.630187047185     IErMin=14 ErrMin= 3.24D-07
 ErrMax= 3.24D-07  0.00D+00 EMaxC= 1.00D-01 BMatC= 1.02D-11 BMatP= 1.71D-09
 IDIUse=1 WtCom= 1.00D+00 WtEn= 0.00D+00
 Coeff-Com: -0.821D-06 0.143D-05 0.770D-05 0.470D-04-0.253D-03-0.386D-03
 Coeff-Com:  0.220D-02 0.750D-02-0.282D-01 0.211D-01 0.549D-01 0.109D+00
 Coeff-Com:  0.144D+00 0.690D+00
 Coeff:     -0.821D-06 0.143D-05 0.770D-05 0.470D-04-0.253D-03-0.386D-03
 Coeff:      0.220D-02 0.750D-02-0.282D-01 0.211D-01 0.549D-01 0.109D+00
 Coeff:      0.144D+00 0.690D+00
 Gap=     0.271 Goal=   None    Shift=    0.000
 Gap=     0.296 Goal=   None    Shift=    0.000
 RMSDP=3.22D-08 MaxDP=6.32D-07 DE=-1.22D-09 OVMax= 1.82D-06

 Cycle  15  Pass 1  IDiag  1:
 E= -114.630187047108     Delta-E=        0.000000000078 Rises=F Damp=F
 DIIS: error= 4.60D-06 at cycle  15 NSaved=  15.
 NSaved=15 IEnMin=14 EnMin= -114.630187047185     IErMin=14 ErrMin= 3.24D-07
 ErrMax= 4.60D-06  0.00D+00 EMaxC= 1.00D-01 BMatC= 2.56D-09 BMatP= 1.02D-11
 IDIUse=1 WtCom= 1.00D+00 WtEn= 0.00D+00
 Coeff-Com: -0.149D-06 0.246D-06 0.418D-05 0.133D-04-0.495D-04-0.294D-03
 Coeff-Com:  0.305D-02-0.933D-02 0.117D-01-0.407D-01-0.245D-01-0.510D-01
 Coeff-Com:  0.200D+00 0.194D+00 0.716D+00
 Coeff:     -0.149D-06 0.246D-06 0.418D-05 0.133D-04-0.495D-04-0.294D-03
 Coeff:      0.305D-02-0.933D-02 0.117D-01-0.407D-01-0.245D-01-0.510D-01
 Coeff:      0.200D+00 0.194D+00 0.716D+00
 Gap=     0.271 Goal=   None    Shift=    0.000
 Gap=     0.296 Goal=   None    Shift=    0.000
 RMSDP=5.57D-08 MaxDP=1.22D-06 DE= 7.76D-11 OVMax= 2.43D-06

 Cycle  16  Pass 1  IDiag  1:
 E= -114.630187047151     Delta-E=       -0.000000000044 Rises=F Damp=F
 DIIS: error= 2.52D-06 at cycle  16 NSaved=  16.
 NSaved=16 IEnMin=14 EnMin= -114.630187047185     IErMin=14 ErrMin= 3.24D-07
 ErrMax= 2.52D-06  0.00D+00 EMaxC= 1.00D-01 BMatC= 7.86D-10 BMatP= 1.02D-11
 IDIUse=1 WtCom= 1.00D+00 WtEn= 0.00D+00
 Coeff-Com:  0.124D-06-0.234D-06-0.146D-05 0.431D-05 0.200D-04-0.117D-03
 Coeff-Com:  0.487D-04-0.686D-03 0.181D-02 0.548D-02-0.750D-02-0.733D-01
 Coeff-Com:  0.384D-01-0.391D+00 0.673D+00 0.754D+00
 Coeff:      0.124D-06-0.234D-06-0.146D-05 0.431D-05 0.200D-04-0.117D-03
 Coeff:      0.487D-04-0.686D-03 0.181D-02 0.548D-02-0.750D-02-0.733D-01
 Coeff:      0.384D-01-0.391D+00 0.673D+00 0.754D+00
 Gap=     0.271 Goal=   None    Shift=    0.000
 Gap=     0.296 Goal=   None    Shift=    0.000
 RMSDP=9.59D-09 MaxDP=1.89D-07 DE=-4.36D-11 OVMax= 5.86D-07

 SCF Done:  E(UM062X) =  -114.630187047     A.U. after   16 cycles
            NFock= 16  Conv=0.96D-08     -V/T= 2.0028
 <Sx>= 0.0000 <Sy>= 0.0000 <Sz>= 0.5000 <S**2>= 0.7504 S= 0.5002
 <L.S>= 0.000000000000E+00
 KE= 1.143070035779D+02 PE=-3.010921425631D+02 EE= 5.819581761197D+01
 Annihilation of the first spin contaminant:
 S**2 before annihilation     0.7504,   after     0.7500
 Leave Link  502 at Fri Apr 16 23:00:30 2021, MaxMem=   104857600 cpu:            2874.1 elap:              61.5
 (Enter /s/ls4/users/knvvv/bin/g16sse/l601.exe)
 Copying SCF densities to generalized density rwf, IOpCl= 1 IROHF=0.

 **********************************************************************

            Population analysis using the SCF density.

 **********************************************************************

 Orbital symmetries:
 Alpha Orbitals:
       Occupied  (SG) (SG) (SG) (SG) (PI) (PI) (SG)
       Virtual   (PI) (PI) (SG) (SG) (PI) (PI) (SG) (DLTA) (DLTA)
                 (PI) (PI) (SG) (SG) (SG) (PI) (PI) (PI) (PI) (SG)
                 (DLTA) (DLTA) (PI) (PI) (DLTA) (DLTA) (PHI) (PHI)
                 (SG) (PI) (PI) (SG) (SG) (DLTA) (DLTA) (SG) (PI)
                 (PI) (PI) (PI) (SG) (SG) (SG) (PHI) (PHI) (DLTA)
                 (DLTA) (PI) (PI) (SG) (DLTA) (DLTA) (PI) (PI)
                 (SG) (PI) (PI) (SG) (PI) (PI) (SG) (PI) (PI) (DLTA)
                 (DLTA) (PHI) (PHI) (?A) (?A) (SG) (SG) (PHI) (PHI)
                 (DLTA) (DLTA) (PI) (PI) (SG) (SG) (DLTA) (DLTA)
                 (PI) (PI) (SG) (SG) (SG) (SG)
 Beta  Orbitals:
       Occupied  (SG) (SG) (SG) (SG) (PI) (PI)
       Virtual   (SG) (PI) (PI) (SG) (PI) (PI) (DLTA) (DLTA) (SG)
                 (SG) (PI) (PI) (SG) (SG) (PI) (PI) (PI) (PI) (SG)
                 (SG) (DLTA) (DLTA) (PI) (PI) (PHI) (PHI) (SG)
                 (DLTA) (DLTA) (PI) (PI) (SG) (SG) (DLTA) (DLTA)
                 (SG) (PI) (PI) (PI) (PI) (SG) (SG) (SG) (PHI)
                 (PHI) (DLTA) (DLTA) (PI) (PI) (SG) (DLTA) (DLTA)
                 (PI) (PI) (SG) (PI) (PI) (SG) (PI) (PI) (SG) (PI)
                 (PI) (DLTA) (DLTA) (PHI) (PHI) (?A) (?A) (SG)
                 (SG) (PHI) (PHI) (DLTA) (DLTA) (PI) (PI) (SG)
                 (SG) (DLTA) (DLTA) (PI) (PI) (SG) (SG) (SG) (SG)
 The electronic state is 2-SG.
 Alpha  occ. eigenvalues --  -25.21972  -4.30501  -1.30742  -0.56945  -0.51797
 Alpha  occ. eigenvalues --   -0.51797  -0.26238
 Alpha virt. eigenvalues --    0.00823   0.00823   0.05515   0.10300   0.13261
 Alpha virt. eigenvalues --    0.13261   0.20514   0.22348   0.22348   0.25747
 Alpha virt. eigenvalues --    0.25747   0.31139   0.50914   0.52539   0.53591
 Alpha virt. eigenvalues --    0.53591   0.60312   0.60312   0.66481   0.90360
 Alpha virt. eigenvalues --    0.90365   0.91396   0.91396   0.95980   0.95980
 Alpha virt. eigenvalues --    0.99319   0.99319   0.99584   1.19461   1.19461
 Alpha virt. eigenvalues --    1.23869   1.51498   1.68274   1.68275   1.80376
 Alpha virt. eigenvalues --    1.86178   1.86178   2.22335   2.22335   2.52678
 Alpha virt. eigenvalues --    2.83300   4.13322   4.20549   4.20549   4.29215
 Alpha virt. eigenvalues --    4.29215   4.31620   4.31620   4.64947   5.17576
 Alpha virt. eigenvalues --    5.17576   5.51108   5.51108   5.67144   6.44478
 Alpha virt. eigenvalues --    6.44478   6.74533  10.53328  10.53328  11.21349
 Alpha virt. eigenvalues --   11.30245  11.30245  11.30612  11.30616  11.32488
 Alpha virt. eigenvalues --   11.32488  11.34541  11.34545  11.56607  12.35228
 Alpha virt. eigenvalues --   14.43884  14.43884  14.49060  14.49061  14.55004
 Alpha virt. eigenvalues --   14.55004  14.70957  15.24023  15.76368  15.76370
 Alpha virt. eigenvalues --   16.03974  16.03974  16.22750  54.25594  62.82623
 Alpha virt. eigenvalues --  283.11652
  Beta  occ. eigenvalues --  -25.21885  -4.29524  -1.30455  -0.56529  -0.51652
  Beta  occ. eigenvalues --   -0.51652
  Beta virt. eigenvalues --   -0.22099  -0.03804  -0.03804   0.04383   0.12531
  Beta virt. eigenvalues --    0.12531   0.16091   0.16096   0.16496   0.25035
  Beta virt. eigenvalues --    0.31284   0.31284   0.36620   0.47296   0.53482
  Beta virt. eigenvalues --    0.53482   0.54248   0.54248   0.55005   0.66719
  Beta virt. eigenvalues --    0.70662   0.70662   0.71334   0.71334   0.83576
  Beta virt. eigenvalues --    0.83576   0.88701   0.90502   0.90504   1.09340
  Beta virt. eigenvalues --    1.09340   1.20537   1.47433   1.65619   1.65619
  Beta virt. eigenvalues --    1.80281   1.85786   1.85786   2.18002   2.18002
  Beta virt. eigenvalues --    2.54227   2.82593   4.13069   4.20446   4.20446
  Beta virt. eigenvalues --    4.29131   4.29131   4.31475   4.31475   4.64578
  Beta virt. eigenvalues --    5.17216   5.17217   5.50537   5.50537   5.67323
  Beta virt. eigenvalues --    6.44359   6.44359   6.74737  10.53612  10.53612
  Beta virt. eigenvalues --   11.21498  11.29932  11.29932  11.30258  11.30261
  Beta virt. eigenvalues --   11.32195  11.32195  11.34369  11.34373  11.58255
  Beta virt. eigenvalues --   12.36698  14.43826  14.43826  14.49043  14.49044
  Beta virt. eigenvalues --   14.55086  14.55086  14.71068  15.24265  15.76435
  Beta virt. eigenvalues --   15.76437  16.03977  16.03977  16.22987  54.25335
  Beta virt. eigenvalues --   62.83262 283.11520
          Condensed to atoms (all electrons):
               1          2
     1  Be   3.294967   0.407891
     2  F    0.407891   8.889251
          Atomic-Atomic Spin Densities.
               1          2
     1  Be   1.017381  -0.027800
     2  F   -0.027800   0.038219
 Mulliken charges and spin densities:
               1          2
     1  Be   0.297142   0.989581
     2  F   -0.297142   0.010419
 Sum of Mulliken charges =  -0.00000   1.00000
 Mulliken charges and spin densities with hydrogens summed into heavy atoms:
               1          2
     1  Be   0.297142   0.989581
     2  F   -0.297142   0.010419
 Electronic spatial extent (au):  <R**2>=             42.3049
 Charge=             -0.0000 electrons
 Dipole moment (field-independent basis, Debye):
    X=              0.0000    Y=             -0.0000    Z=             -1.3128  Tot=              1.3128
 Quadrupole moment (field-independent basis, Debye-Ang):
   XX=             -9.9545   YY=             -9.9545   ZZ=            -12.2194
   XY=              0.0000   XZ=              0.0000   YZ=              0.0000
 Traceless Quadrupole moment (field-independent basis, Debye-Ang):
   XX=              0.7550   YY=              0.7550   ZZ=             -1.5099
   XY=              0.0000   XZ=              0.0000   YZ=              0.0000
 Octapole moment (field-independent basis, Debye-Ang**2):
  XXX=              0.0000  YYY=             -0.0000  ZZZ=             16.7768  XYY=              0.0000
  XXY=              0.0000  XXZ=              3.5545  XZZ=              0.0000  YZZ=             -0.0000
  YYZ=              3.5545  XYZ=             -0.0000
 Hexadecapole moment (field-independent basis, Debye-Ang**3):
 XXXX=            -13.8691 YYYY=            -13.8691 ZZZZ=            -74.6769 XXXY=              0.0000
 XXXZ=              0.0000 YYYX=              0.0000 YYYZ=              0.0000 ZZZX=              0.0000
 ZZZY=              0.0000 XXYY=             -4.6230 XXZZ=            -12.9908 YYZZ=            -12.9908
 XXYZ=              0.0000 YYXZ=              0.0000 ZZXY=              0.0000
 N-N= 1.395913432605D+01 E-N=-3.010921427342D+02  KE= 1.143070035779D+02
                          Isotropic Fermi Contact Couplings
        Atom                 a.u.       MegaHertz       Gauss      10(-4) cm-1
     1  Be(9)              0.50126    -314.99033    -112.39638    -105.06946
     2  F(19)              0.07003     294.63230     105.13213      98.27876
 PrsmSu:  requested number of processors reduced to:  21 ShMem   1 Linda.
 --------------------------------------------------------
       Center         ----  Spin Dipole Couplings  ----
                      3XX-RR        3YY-RR        3ZZ-RR
 --------------------------------------------------------
     1   Atom       -0.039861     -0.039861      0.079722
     2   Atom       -0.062619     -0.062619      0.125237
 --------------------------------------------------------
                        XY            XZ            YZ
 --------------------------------------------------------
     1   Atom        0.000000      0.000000      0.000000
     2   Atom        0.000000      0.000000      0.000000
 --------------------------------------------------------


 ---------------------------------------------------------------------------------
              Anisotropic Spin Dipole Couplings in Principal Axis System
 ---------------------------------------------------------------------------------

       Atom             a.u.   MegaHertz   Gauss  10(-4) cm-1        Axes

              Baa    -0.0399     2.990     1.067     0.997  1.0000  0.0000  0.0000
     1 Be(9)  Bbb    -0.0399     2.990     1.067     0.997 -0.0000  1.0000  0.0000
              Bcc     0.0797    -5.980    -2.134    -1.995  0.0000  0.0000  1.0000
 
              Baa    -0.0626   -31.449   -11.222   -10.490 -0.0000  1.0000  0.0000
     2 F(19)  Bbb    -0.0626   -31.449   -11.222   -10.490  1.0000  0.0000  0.0000
              Bcc     0.1252    62.897    22.443    20.980  0.0000  0.0000  1.0000
 

 ---------------------------------------------------------------------------------

 PrsmSu:  requested number of processors reduced to:  21 ShMem   1 Linda.
 No NMR shielding tensors so no spin-rotation constants.
 Leave Link  601 at Fri Apr 16 23:00:32 2021, MaxMem=   104857600 cpu:              88.5 elap:               2.1
 (Enter /s/ls4/users/knvvv/bin/g16sse/l801.exe)
 DoSCS=F DFT=T ScalE2(SS,OS)=  1.000000  1.000000
 Range of M.O.s used for correlation:     1    93
 NBasis=    93 NAE=     7 NBE=     6 NFC=     0 NFV=     0
 NROrb=     93 NOA=     7 NOB=     6 NVA=    86 NVB=    87
 Leave Link  801 at Fri Apr 16 23:00:32 2021, MaxMem=   104857600 cpu:               3.7 elap:               0.1
 (Enter /s/ls4/users/knvvv/bin/g16sse/l914.exe)
 UHF ground state
 Doing stability rather than CIS.
 Keep R1 and R2 ints in memory in symmetry-blocked form, NReq=85168720.
 FoFCou: FMM=F IPFlag=           0 FMFlag=           0 FMFlg1=           0
         NFxFlg=           0 DoJE=F BraDBF=F KetDBF=F FulRan=T
         wScrn=  0.000000 ICntrl=       600 IOpCl=  0 I1Cent=           0 NGrid=           0
         NMat0=    1 NMatS0=   4371 NMatT0=    0 NMatD0=    1 NMtDS0=    0 NMtDT0=    0
 Petite list used in FoFCou.
 CoulSu:  requested number of processors reduced to:  21 ShMem   1 Linda.
 MDV=   104857600 DFT=T DoStab=T Mixed=T DoRPA=F DoScal=F NonHer=F
 Making orbital integer symmetry assigments:
 Orbital symmetries:
 Alpha Orbitals:
       Occupied  (SG) (SG) (SG) (SG) (PI) (PI) (SG)
       Virtual   (PI) (PI) (SG) (SG) (PI) (PI) (SG) (DLTA) (DLTA)
                 (PI) (PI) (SG) (SG) (SG) (PI) (PI) (PI) (PI) (SG)
                 (DLTA) (DLTA) (PI) (PI) (DLTA) (DLTA) (PHI) (PHI)
                 (SG) (PI) (PI) (SG) (SG) (DLTA) (DLTA) (SG) (PI)
                 (PI) (PI) (PI) (SG) (SG) (SG) (PHI) (PHI) (DLTA)
                 (DLTA) (PI) (PI) (SG) (DLTA) (DLTA) (PI) (PI)
                 (SG) (PI) (PI) (SG) (PI) (PI) (SG) (PI) (PI) (DLTA)
                 (DLTA) (PHI) (PHI) (?A) (?A) (SG) (SG) (PHI) (PHI)
                 (DLTA) (DLTA) (PI) (PI) (SG) (SG) (DLTA) (DLTA)
                 (PI) (PI) (SG) (SG) (SG) (SG)
 Beta  Orbitals:
       Occupied  (SG) (SG) (SG) (SG) (PI) (PI)
       Virtual   (SG) (PI) (PI) (SG) (PI) (PI) (DLTA) (DLTA) (SG)
                 (SG) (PI) (PI) (SG) (SG) (PI) (PI) (PI) (PI) (SG)
                 (SG) (DLTA) (DLTA) (PI) (PI) (PHI) (PHI) (SG)
                 (DLTA) (DLTA) (PI) (PI) (SG) (SG) (DLTA) (DLTA)
                 (SG) (PI) (PI) (PI) (PI) (SG) (SG) (SG) (PHI)
                 (PHI) (DLTA) (DLTA) (PI) (PI) (SG) (DLTA) (DLTA)
                 (PI) (PI) (SG) (PI) (PI) (SG) (PI) (PI) (SG) (PI)
                 (PI) (DLTA) (DLTA) (PHI) (PHI) (?A) (?A) (SG)
                 (SG) (PHI) (PHI) (DLTA) (DLTA) (PI) (PI) (SG)
                 (SG) (DLTA) (DLTA) (PI) (PI) (SG) (SG) (SG) (SG)
    12 initial guesses have been made.
 Convergence on wavefunction:    0.001000000000000
 Davidson Disk Diagonalization:  ConvIn= 1.00D-03 SkipCon=T Conv= 1.00D-03.
 Max sub-space:  2000 roots to seek:    12 dimension of matrix:         1124
 Iteration     1 Dimension    12 NMult     0 NNew     12
 CISAX will form    12 AO SS matrices at one time.
 NMat=    12 NSing=    12 JSym2X= 2.
 Excitation Energies [eV] at current iteration:
 Root      1 :     4.797835361104610
 Root      2 :     4.797835361109874
 Root      3 :     6.193486082742896
 Root      4 :     6.627939648062036
 Root      5 :     6.627939648213240
 Root      6 :     7.318085130652282
 Root      7 :     7.447784199409715
 Root      8 :     8.483915562761204
 Root      9 :     8.483915562768214
 Root     10 :     9.661124800312340
 Root     11 :    11.850941691400050
 Root     12 :    16.497391900703510
 Iteration     2 Dimension    24 NMult    12 NNew     12
 CISAX will form    12 AO SS matrices at one time.
 NMat=    12 NSing=    12 JSym2X= 2.
 Root      1 not converged, maximum delta is    0.076905254763690
 Excitation Energies [eV] at current iteration:
 Root      1 :     4.583474161390082   Change is   -0.214361199714529
 Root      2 :     4.583474161393901   Change is   -0.214361199715973
 Root      3 :     5.972307557350854   Change is   -1.345777573301428
 Root      4 :     6.031465905672730   Change is   -0.596473742389305
 Root      5 :     6.031465905752994   Change is   -0.596473742460245
 Root      6 :     6.192717580289483   Change is   -0.000768502453413
 Root      7 :     7.247087206910107   Change is   -0.200696992499608
 Root      8 :     8.177514674585332   Change is   -0.306400888175873
 Root      9 :     8.177514674591562   Change is   -0.306400888176652
 Root     10 :     9.530341555004314   Change is   -0.130783245308025
 Root     11 :    10.067289915986410   Change is   -1.783651775413644
 Root     12 :    12.727061050166780   Change is   -3.770330850536729
 Iteration     3 Dimension    27 NMult    24 NNew      3
 CISAX will form     3 AO SS matrices at one time.
 NMat=     3 NSing=     3 JSym2X= 2.
 Root      1 not converged, maximum delta is    0.070060822620869
 Excitation Energies [eV] at current iteration:
 Root      1 :     4.555875756024111   Change is   -0.027598405365970
 Root      2 :     4.555875756029906   Change is   -0.027598405363995
 Root      3 :     5.588412205416089   Change is   -0.383895351934765
 Iteration     4 Dimension    30 NMult    27 NNew      3
 CISAX will form     3 AO SS matrices at one time.
 NMat=     3 NSing=     3 JSym2X= 2.
 DSYEVD-2 returned Info=          61 IAlg= 4 N=    30 NDim=    30 NE2=     3063677 trying  DSYEV.
 Root      1 not converged, maximum delta is    0.058216794421186
 Excitation Energies [eV] at current iteration:
 Root      1 :     4.553137000147048   Change is   -0.002738755877064
 Root      2 :     4.553137000152759   Change is   -0.002738755877147
 Root      3 :     5.427015171015078   Change is   -0.161397034401012
 Iteration     5 Dimension    33 NMult    30 NNew      3
 CISAX will form     3 AO SS matrices at one time.
 NMat=     3 NSing=     3 JSym2X= 2.
 Root      1 not converged, maximum delta is    0.017104635761639
 Excitation Energies [eV] at current iteration:
 Root      1 :     4.552915987993754   Change is   -0.000221012153294
 Root      2 :     4.552915987999270   Change is   -0.000221012153489
 Root      3 :     5.372280347381550   Change is   -0.054734823633528
 Iteration     6 Dimension    36 NMult    33 NNew      3
 CISAX will form     3 AO SS matrices at one time.
 NMat=     3 NSing=     3 JSym2X= 2.
 DSYEVD-2 returned Info=          73 IAlg= 4 N=    36 NDim=    36 NE2=     2553064 trying  DSYEV.
 Root      1 not converged, maximum delta is    0.001299817852285
 Excitation Energies [eV] at current iteration:
 Root      1 :     4.552903393778073   Change is   -0.000012594215680
 Root      2 :     4.552903393783600   Change is   -0.000012594215670
 Root      3 :     5.357579727345149   Change is   -0.014700620036401
 Iteration     7 Dimension    39 NMult    36 NNew      3
 CISAX will form     3 AO SS matrices at one time.
 NMat=     3 NSing=     3 JSym2X= 2.
 Root      1 has converged.
 Excitation Energies [eV] at current iteration:
 Root      1 :     4.552903027475337   Change is   -0.000000366302736
 Root      2 :     4.552903027480890   Change is   -0.000000366302711
 Root      3 :     5.355345451177954   Change is   -0.002234276167194
 Convergence achieved on expansion vectors.
 ***********************************************************************
 Stability analysis using <AA,BB:AA,BB> singles matrix:
 ***********************************************************************
 1PDM for each excited state written to RWF  633
 Ground to excited state transition densities written to RWF  633

 Eigenvectors of the stability matrix:
 
 Excited state symmetry could not be determined.
 Eigenvector   1:  2.004-?Sym  Eigenvalue= 0.1673161  <S**2>=0.754
      7A ->  8A        0.95632
      7A ->  9A        0.13227
      5B ->  7B       -0.19798
      6B ->  7B       -0.11696
 The wavefunction is stable under the perturbations considered.
 Leave Link  914 at Fri Apr 16 23:00:50 2021, MaxMem=   104857600 cpu:             817.1 elap:              17.7
 (Enter /s/ls4/users/knvvv/bin/g16sse/l508.exe)
 The wavefunction is already stable.
 Leave Link  508 at Fri Apr 16 23:00:50 2021, MaxMem=   104857600 cpu:               2.2 elap:               0.1
 (Enter /s/ls4/users/knvvv/bin/g16sse/l601.exe)
 Copying SCF densities to generalized density rwf, IOpCl= 1 IROHF=0.

 **********************************************************************

            Population analysis using the SCF density.

 **********************************************************************

 Orbital symmetries:
 Alpha Orbitals:
       Occupied  (SG) (SG) (SG) (SG) (PI) (PI) (SG)
       Virtual   (PI) (PI) (SG) (SG) (PI) (PI) (SG) (DLTA) (DLTA)
                 (PI) (PI) (SG) (SG) (SG) (PI) (PI) (PI) (PI) (SG)
                 (DLTA) (DLTA) (PI) (PI) (DLTA) (DLTA) (PHI) (PHI)
                 (SG) (PI) (PI) (SG) (SG) (DLTA) (DLTA) (SG) (PI)
                 (PI) (PI) (PI) (SG) (SG) (SG) (PHI) (PHI) (DLTA)
                 (DLTA) (PI) (PI) (SG) (DLTA) (DLTA) (PI) (PI)
                 (SG) (PI) (PI) (SG) (PI) (PI) (SG) (PI) (PI) (DLTA)
                 (DLTA) (PHI) (PHI) (?A) (?A) (SG) (SG) (PHI) (PHI)
                 (DLTA) (DLTA) (PI) (PI) (SG) (SG) (DLTA) (DLTA)
                 (PI) (PI) (SG) (SG) (SG) (SG)
 Beta  Orbitals:
       Occupied  (SG) (SG) (SG) (SG) (PI) (PI)
       Virtual   (SG) (PI) (PI) (SG) (PI) (PI) (DLTA) (DLTA) (SG)
                 (SG) (PI) (PI) (SG) (SG) (PI) (PI) (PI) (PI) (SG)
                 (SG) (DLTA) (DLTA) (PI) (PI) (PHI) (PHI) (SG)
                 (DLTA) (DLTA) (PI) (PI) (SG) (SG) (DLTA) (DLTA)
                 (SG) (PI) (PI) (PI) (PI) (SG) (SG) (SG) (PHI)
                 (PHI) (DLTA) (DLTA) (PI) (PI) (SG) (DLTA) (DLTA)
                 (PI) (PI) (SG) (PI) (PI) (SG) (PI) (PI) (SG) (PI)
                 (PI) (DLTA) (DLTA) (PHI) (PHI) (?A) (?A) (SG)
                 (SG) (PHI) (PHI) (DLTA) (DLTA) (PI) (PI) (SG)
                 (SG) (DLTA) (DLTA) (PI) (PI) (SG) (SG) (SG) (SG)
 The electronic state is 2-SG.
 Alpha  occ. eigenvalues --  -25.21972  -4.30501  -1.30742  -0.56945  -0.51797
 Alpha  occ. eigenvalues --   -0.51797  -0.26238
 Alpha virt. eigenvalues --    0.00823   0.00823   0.05515   0.10300   0.13261
 Alpha virt. eigenvalues --    0.13261   0.20514   0.22348   0.22348   0.25747
 Alpha virt. eigenvalues --    0.25747   0.31139   0.50914   0.52539   0.53591
 Alpha virt. eigenvalues --    0.53591   0.60312   0.60312   0.66481   0.90360
 Alpha virt. eigenvalues --    0.90365   0.91396   0.91396   0.95980   0.95980
 Alpha virt. eigenvalues --    0.99319   0.99319   0.99584   1.19461   1.19461
 Alpha virt. eigenvalues --    1.23869   1.51498   1.68274   1.68275   1.80376
 Alpha virt. eigenvalues --    1.86178   1.86178   2.22335   2.22335   2.52678
 Alpha virt. eigenvalues --    2.83300   4.13322   4.20549   4.20549   4.29215
 Alpha virt. eigenvalues --    4.29215   4.31620   4.31620   4.64947   5.17576
 Alpha virt. eigenvalues --    5.17576   5.51108   5.51108   5.67144   6.44478
 Alpha virt. eigenvalues --    6.44478   6.74533  10.53328  10.53328  11.21349
 Alpha virt. eigenvalues --   11.30245  11.30245  11.30612  11.30616  11.32488
 Alpha virt. eigenvalues --   11.32488  11.34541  11.34545  11.56607  12.35228
 Alpha virt. eigenvalues --   14.43884  14.43884  14.49060  14.49061  14.55004
 Alpha virt. eigenvalues --   14.55004  14.70957  15.24023  15.76368  15.76370
 Alpha virt. eigenvalues --   16.03974  16.03974  16.22750  54.25594  62.82623
 Alpha virt. eigenvalues --  283.11652
  Beta  occ. eigenvalues --  -25.21885  -4.29524  -1.30455  -0.56529  -0.51652
  Beta  occ. eigenvalues --   -0.51652
  Beta virt. eigenvalues --   -0.22099  -0.03804  -0.03804   0.04383   0.12531
  Beta virt. eigenvalues --    0.12531   0.16091   0.16096   0.16496   0.25035
  Beta virt. eigenvalues --    0.31284   0.31284   0.36620   0.47296   0.53482
  Beta virt. eigenvalues --    0.53482   0.54248   0.54248   0.55005   0.66719
  Beta virt. eigenvalues --    0.70662   0.70662   0.71334   0.71334   0.83576
  Beta virt. eigenvalues --    0.83576   0.88701   0.90502   0.90504   1.09340
  Beta virt. eigenvalues --    1.09340   1.20537   1.47433   1.65619   1.65619
  Beta virt. eigenvalues --    1.80281   1.85786   1.85786   2.18002   2.18002
  Beta virt. eigenvalues --    2.54227   2.82593   4.13069   4.20446   4.20446
  Beta virt. eigenvalues --    4.29131   4.29131   4.31475   4.31475   4.64578
  Beta virt. eigenvalues --    5.17216   5.17217   5.50537   5.50537   5.67323
  Beta virt. eigenvalues --    6.44359   6.44359   6.74737  10.53612  10.53612
  Beta virt. eigenvalues --   11.21498  11.29932  11.29932  11.30258  11.30261
  Beta virt. eigenvalues --   11.32195  11.32195  11.34369  11.34373  11.58255
  Beta virt. eigenvalues --   12.36698  14.43826  14.43826  14.49043  14.49044
  Beta virt. eigenvalues --   14.55086  14.55086  14.71068  15.24265  15.76435
  Beta virt. eigenvalues --   15.76437  16.03977  16.03977  16.22987  54.25335
  Beta virt. eigenvalues --   62.83262 283.11520
          Condensed to atoms (all electrons):
               1          2
     1  Be   3.294967   0.407891
     2  F    0.407891   8.889251
          Atomic-Atomic Spin Densities.
               1          2
     1  Be   1.017381  -0.027800
     2  F   -0.027800   0.038219
 Mulliken charges and spin densities:
               1          2
     1  Be   0.297142   0.989581
     2  F   -0.297142   0.010419
 Sum of Mulliken charges =  -0.00000   1.00000
 Mulliken charges and spin densities with hydrogens summed into heavy atoms:
               1          2
     1  Be   0.297142   0.989581
     2  F   -0.297142   0.010419
 Electronic spatial extent (au):  <R**2>=             42.3049
 Charge=             -0.0000 electrons
 Dipole moment (field-independent basis, Debye):
    X=              0.0000    Y=             -0.0000    Z=             -1.3128  Tot=              1.3128
 Quadrupole moment (field-independent basis, Debye-Ang):
   XX=             -9.9545   YY=             -9.9545   ZZ=            -12.2194
   XY=              0.0000   XZ=              0.0000   YZ=              0.0000
 Traceless Quadrupole moment (field-independent basis, Debye-Ang):
   XX=              0.7550   YY=              0.7550   ZZ=             -1.5099
   XY=              0.0000   XZ=              0.0000   YZ=              0.0000
 Octapole moment (field-independent basis, Debye-Ang**2):
  XXX=              0.0000  YYY=             -0.0000  ZZZ=             16.7768  XYY=              0.0000
  XXY=              0.0000  XXZ=              3.5545  XZZ=              0.0000  YZZ=             -0.0000
  YYZ=              3.5545  XYZ=             -0.0000
 Hexadecapole moment (field-independent basis, Debye-Ang**3):
 XXXX=            -13.8691 YYYY=            -13.8691 ZZZZ=            -74.6769 XXXY=              0.0000
 XXXZ=              0.0000 YYYX=              0.0000 YYYZ=              0.0000 ZZZX=              0.0000
 ZZZY=              0.0000 XXYY=             -4.6230 XXZZ=            -12.9908 YYZZ=            -12.9908
 XXYZ=              0.0000 YYXZ=              0.0000 ZZXY=              0.0000
 N-N= 1.395913432605D+01 E-N=-3.010921427342D+02  KE= 1.143070035779D+02
                          Isotropic Fermi Contact Couplings
        Atom                 a.u.       MegaHertz       Gauss      10(-4) cm-1
     1  Be(9)              0.50126    -314.99033    -112.39638    -105.06946
     2  F(19)              0.07003     294.63230     105.13213      98.27876
 PrsmSu:  requested number of processors reduced to:  21 ShMem   1 Linda.
 --------------------------------------------------------
       Center         ----  Spin Dipole Couplings  ----
                      3XX-RR        3YY-RR        3ZZ-RR
 --------------------------------------------------------
     1   Atom       -0.039861     -0.039861      0.079722
     2   Atom       -0.062619     -0.062619      0.125237
 --------------------------------------------------------
                        XY            XZ            YZ
 --------------------------------------------------------
     1   Atom        0.000000      0.000000      0.000000
     2   Atom        0.000000      0.000000      0.000000
 --------------------------------------------------------


 ---------------------------------------------------------------------------------
              Anisotropic Spin Dipole Couplings in Principal Axis System
 ---------------------------------------------------------------------------------

       Atom             a.u.   MegaHertz   Gauss  10(-4) cm-1        Axes

              Baa    -0.0399     2.990     1.067     0.997  1.0000  0.0000  0.0000
     1 Be(9)  Bbb    -0.0399     2.990     1.067     0.997 -0.0000  1.0000  0.0000
              Bcc     0.0797    -5.980    -2.134    -1.995  0.0000  0.0000  1.0000
 
              Baa    -0.0626   -31.449   -11.222   -10.490 -0.0000  1.0000  0.0000
     2 F(19)  Bbb    -0.0626   -31.449   -11.222   -10.490  1.0000  0.0000  0.0000
              Bcc     0.1252    62.897    22.443    20.980  0.0000  0.0000  1.0000
 

 ---------------------------------------------------------------------------------

 PrsmSu:  requested number of processors reduced to:  21 ShMem   1 Linda.
 No NMR shielding tensors so no spin-rotation constants.
 Leave Link  601 at Fri Apr 16 23:00:52 2021, MaxMem=   104857600 cpu:              89.2 elap:               2.2
 (Enter /s/ls4/users/knvvv/bin/g16sse/l9999.exe)

 Test job not archived.
 1\1\GINC-N150\Stability\UM062X\def2QZVP\Be1F1(2)\KNVVV\16-Apr-2021\0\\
 #P M062X/Def2QZVP Integral=UltraFineGrid SCF=NoSymm Stable=(RExt, Opt)
  IOp(1/33=1)\\Database calculations.\\0,2\Be,0,0.,0.,-0.6823625\F,0,0.
 ,0.,0.6823625\\Version=ES64L-G16RevA.03\State=2-SG\HF=-114.630187\S2=0
 .750375\S2-1=0.\S2A=0.75\RMSD=9.592e-09\Dipole=0.,0.,-0.5164969\Quadru
 pole=0.5613042,0.5613042,-1.1226083,0.,0.,0.\PG=C*V [C*(Be1F1)]\\@


 ABALONE: AN EXPRESSION OF DISBELIEF.
 Job cpu time:       0 days  1 hours  8 minutes 24.7 seconds.
 Elapsed time:       0 days  0 hours  1 minutes 28.9 seconds.
 File lengths (MBytes):  RWF=     49 Int=      0 D2E=      0 Chk=      2 Scr=      1
 Normal termination of Gaussian 16 at Fri Apr 16 23:00:52 2021.
