 Entering Gaussian System, Link 0=/s/ls4/users/knvvv/bin/g16sse/g16
 Input=data/database/M062X--def2-QZVP--MB16-43_S2.gjf
 Output=data/database/M062X--def2-QZVP--MB16-43_S2.log
 Initial command:
 /s/ls4/users/knvvv/bin/g16sse/l1.exe "/s/ls4/users/knvvv/bin/scratch/Gau-48879.inp" -scrdir="/s/ls4/users/knvvv/bin/scratch/"
 Entering Link 1 = /s/ls4/users/knvvv/bin/g16sse/l1.exe PID=     48880.
  
 Copyright (c) 1988,1990,1992,1993,1995,1998,2003,2009,2016,
            Gaussian, Inc.  All Rights Reserved.
  
 This is part of the Gaussian(R) 16 program.  It is based on
 the Gaussian(R) 09 system (copyright 2009, Gaussian, Inc.),
 the Gaussian(R) 03 system (copyright 2003, Gaussian, Inc.),
 the Gaussian(R) 98 system (copyright 1998, Gaussian, Inc.),
 the Gaussian(R) 94 system (copyright 1995, Gaussian, Inc.),
 the Gaussian 92(TM) system (copyright 1992, Gaussian, Inc.),
 the Gaussian 90(TM) system (copyright 1990, Gaussian, Inc.),
 the Gaussian 88(TM) system (copyright 1988, Gaussian, Inc.),
 the Gaussian 86(TM) system (copyright 1986, Carnegie Mellon
 University), and the Gaussian 82(TM) system (copyright 1983,
 Carnegie Mellon University). Gaussian is a federally registered
 trademark of Gaussian, Inc.
  
 This software contains proprietary and confidential information,
 including trade secrets, belonging to Gaussian, Inc.
  
 This software is provided under written license and may be
 used, copied, transmitted, or stored only in accord with that
 written license.
  
 The following legend is applicable only to US Government
 contracts under FAR:
  
                    RESTRICTED RIGHTS LEGEND
  
 Use, reproduction and disclosure by the US Government is
 subject to restrictions as set forth in subparagraphs (a)
 and (c) of the Commercial Computer Software - Restricted
 Rights clause in FAR 52.227-19.
  
 Gaussian, Inc.
 340 Quinnipiac St., Bldg. 40, Wallingford CT 06492
  
  
 ---------------------------------------------------------------
 Warning -- This program may not be used in any manner that
 competes with the business of Gaussian, Inc. or will provide
 assistance to any competitor of Gaussian, Inc.  The licensee
 of this program is prohibited from giving any competitor of
 Gaussian, Inc. access to this program.  By using this program,
 the user acknowledges that Gaussian, Inc. is engaged in the
 business of creating and licensing software in the field of
 computational chemistry and represents and warrants to the
 licensee that it is not a competitor of Gaussian, Inc. and that
 it will not use this program in any manner prohibited above.
 ---------------------------------------------------------------
  

 Cite this work as:
 Gaussian 16, Revision A.03,
 M. J. Frisch, G. W. Trucks, H. B. Schlegel, G. E. Scuseria, 
 M. A. Robb, J. R. Cheeseman, G. Scalmani, V. Barone, 
 G. A. Petersson, H. Nakatsuji, X. Li, M. Caricato, A. V. Marenich, 
 J. Bloino, B. G. Janesko, R. Gomperts, B. Mennucci, H. P. Hratchian, 
 J. V. Ortiz, A. F. Izmaylov, J. L. Sonnenberg, D. Williams-Young, 
 F. Ding, F. Lipparini, F. Egidi, J. Goings, B. Peng, A. Petrone, 
 T. Henderson, D. Ranasinghe, V. G. Zakrzewski, J. Gao, N. Rega, 
 G. Zheng, W. Liang, M. Hada, M. Ehara, K. Toyota, R. Fukuda, 
 J. Hasegawa, M. Ishida, T. Nakajima, Y. Honda, O. Kitao, H. Nakai, 
 T. Vreven, K. Throssell, J. A. Montgomery, Jr., J. E. Peralta, 
 F. Ogliaro, M. J. Bearpark, J. J. Heyd, E. N. Brothers, K. N. Kudin, 
 V. N. Staroverov, T. A. Keith, R. Kobayashi, J. Normand, 
 K. Raghavachari, A. P. Rendell, J. C. Burant, S. S. Iyengar, 
 J. Tomasi, M. Cossi, J. M. Millam, M. Klene, C. Adamo, R. Cammi, 
 J. W. Ochterski, R. L. Martin, K. Morokuma, O. Farkas, 
 J. B. Foresman, and D. J. Fox, Gaussian, Inc., Wallingford CT, 2016.
 
 ******************************************
 Gaussian 16:  ES64L-G16RevA.03 25-Dec-2016
                17-Apr-2021 
 ******************************************
 %RWF=temp12_49638,70GB
 %nprocshared=48
 Will use up to   48 processors via shared memory.
 Default route: MaxDisk=80GB
 ----------------------------------------------------------------------
 #P M062X/Def2QZVP Integral=UltraFineGrid SCF=NoSymm Stable=(RExt, Opt)
  IOp(1/33=1)
 ----------------------------------------------------------------------
 1/33=1,38=1,172=1/1;
 2/12=2,17=6,18=5,40=1/2;
 3/5=45,7=101,11=2,25=1,30=1,74=-55,75=-5/1,2,3;
 4/9=2/1;
 5/5=2,38=5/2;
 6/7=2,8=2,9=2,10=2,28=1/1;
 8/6=1,10=90,11=11/1;
 9/8=-3,42=1,46=1/14;
 5/5=2,8=3,17=40,38=5/8(-2);
 6/7=2,8=2,9=2,10=2,28=1/1;
 99/5=1,9=1/99;
 Leave Link    1 at Sat Apr 17 05:02:08 2021, MaxMem=           0 cpu:               8.4 elap:               0.2
 (Enter /s/ls4/users/knvvv/bin/g16sse/l101.exe)
 ONIOM data not found on unit 2.
 ----------------------
 Database calculations.
 ----------------------
 TstMul:  ICh=     0
 TstMul:  Mul=     3
 TstMul:  ICh=     0
 TstMul:  Mul=     3
 Symbolic Z-matrix:
 Charge =  0 Multiplicity = 3
 S                     0.        0.       -0.95401 
 S                     0.        0.        0.95401 
 
 RdStrC is calling ZToCFu for IStruc=1 NZ=     2.
 PrtBox:  NBox=     1 Levels=  1 BoxLen=    8.00 SMaxX=        3.61
          Shift=            0.000000            0.000000            1.802813
 Box      1 Number                   0 centers from      1 to      2:
 After GenITR:
 ITRead=  0  0
 MicOpt= -1 -1
 ITRead=  0  0
 MicOpt= -1 -1
 NAtoms=      2 NQM=        2 NQMF=       0 NMMI=      0 NMMIF=      0
                NMic=       0 NMicF=      0.
                    Isotopes and Nuclear Properties:
 (Nuclear quadrupole moments (NQMom) in fm**2, nuclear magnetic moments (NMagM)
  in nuclear magnetons)

  Atom         1           2
 IAtWgt=          32          32
 AtmWgt=  31.9720718  31.9720718
 NucSpn=           0           0
 AtZEff=  -0.0000000  -0.0000000
 NQMom=    0.0000000   0.0000000
 NMagM=    0.0000000   0.0000000
 AtZNuc=  16.0000000  16.0000000
 No MM parameters found.
 Leave Link  101 at Sat Apr 17 05:02:08 2021, MaxMem=   104857600 cpu:               8.1 elap:               0.2
 (Enter /s/ls4/users/knvvv/bin/g16sse/l202.exe)
                          Input orientation:                          
 ---------------------------------------------------------------------
 Center     Atomic      Atomic             Coordinates (Angstroms)
 Number     Number       Type             X           Y           Z
 ---------------------------------------------------------------------
      1         16           0        0.000000    0.000000   -0.954007
      2         16           0        0.000000    0.000000    0.954007
 ---------------------------------------------------------------------
 Stoichiometry    S2(3)
 Framework group  D*H[C*(S.S)]
 Deg. of freedom     1
 Full point group                 D*H     NOp   8
 Largest Abelian subgroup         D2H     NOp   8
 Largest concise Abelian subgroup C2      NOp   2
                         Standard orientation:                         
 ---------------------------------------------------------------------
 Center     Atomic      Atomic             Coordinates (Angstroms)
 Number     Number       Type             X           Y           Z
 ---------------------------------------------------------------------
      1         16           0        0.000000    0.000000    0.954007
      2         16           0        0.000000    0.000000   -0.954007
 ---------------------------------------------------------------------
 Rotational constants (GHZ):           0.0000000           8.6838625           8.6838625
 Leave Link  202 at Sat Apr 17 05:02:08 2021, MaxMem=   104857600 cpu:              10.8 elap:               0.3
 (Enter /s/ls4/users/knvvv/bin/g16sse/l301.exe)
 Standard basis: def2QZVP (5D, 7F)
 Ernie: Thresh=  0.10000D-02 Tol=  0.10000D-05 Strict=F.
 There are    39 symmetry adapted cartesian basis functions of AG  symmetry.
 There are     9 symmetry adapted cartesian basis functions of B1G symmetry.
 There are    19 symmetry adapted cartesian basis functions of B2G symmetry.
 There are    19 symmetry adapted cartesian basis functions of B3G symmetry.
 There are     9 symmetry adapted cartesian basis functions of AU  symmetry.
 There are    39 symmetry adapted cartesian basis functions of B1U symmetry.
 There are    19 symmetry adapted cartesian basis functions of B2U symmetry.
 There are    19 symmetry adapted cartesian basis functions of B3U symmetry.
 There are    30 symmetry adapted basis functions of AG  symmetry.
 There are     8 symmetry adapted basis functions of B1G symmetry.
 There are    16 symmetry adapted basis functions of B2G symmetry.
 There are    16 symmetry adapted basis functions of B3G symmetry.
 There are     8 symmetry adapted basis functions of AU  symmetry.
 There are    30 symmetry adapted basis functions of B1U symmetry.
 There are    16 symmetry adapted basis functions of B2U symmetry.
 There are    16 symmetry adapted basis functions of B3U symmetry.
   140 basis functions,   242 primitive gaussians,   172 cartesian basis functions
    17 alpha electrons       15 beta electrons
       nuclear repulsion energy        71.0001651955 Hartrees.
 IExCor= 4336 DFT=T Ex+Corr=M062X ExCW=0 ScaHFX=  0.540000
 ScaDFX=  1.000000  1.000000  1.000000  1.000000 ScalE2=  1.000000  1.000000
 IRadAn=      5 IRanWt=     -1 IRanGd=            0 ICorTp=0 IEmpDi=  4
 NAtoms=    2 NActive=    2 NUniq=    1 SFac= 4.00D+00 NAtFMM=   60 NAOKFM=F Big=F
 Integral buffers will be    131072 words long.
 Raffenetti 2 integral format.
 Two-electron integral symmetry is turned on.
 Leave Link  301 at Sat Apr 17 05:02:08 2021, MaxMem=   104857600 cpu:               6.5 elap:               0.2
 (Enter /s/ls4/users/knvvv/bin/g16sse/l302.exe)
 NPDir=0 NMtPBC=     1 NCelOv=     1 NCel=       1 NClECP=     1 NCelD=      1
         NCelK=      1 NCelE2=     1 NClLst=     1 CellRange=     0.0.
 One-electron integrals computed using PRISM.
 One-electron integral symmetry used in STVInt
 PrsmSu:  requested number of processors reduced to:   4 ShMem   1 Linda.
 PrsmSu:  requested number of processors reduced to:  21 ShMem   1 Linda.
   8 Symmetry operations used in ECPInt.
 ECPInt:  NShTT=     990 NPrTT=    3557 LenC2=     976 LenP2D=    3004.
 LDataN:  DoStor=T MaxTD1= 8 Len=  415
 Number of processors reduced to  37 by ecpmxn.
 NBasis=   140 RedAO= T EigKep=  2.36D-04  NBF=    30     8    16    16     8    30    16    16
 NBsUse=   140 1.00D-06 EigRej= -1.00D+00 NBFU=    30     8    16    16     8    30    16    16
 Precomputing XC quadrature grid using
 IXCGrd= 4 IRadAn=           5 IRanWt=          -1 IRanGd=           0 AccXCQ= 0.00D+00.
 Generated NRdTot=       0 NPtTot=           0 NUsed=           0 NTot=          32
 NSgBfM=   168   168   168   168   168 MxSgAt=     2 MxSgA2=     2.
 Leave Link  302 at Sat Apr 17 05:02:19 2021, MaxMem=   104857600 cpu:             492.0 elap:              10.6
 (Enter /s/ls4/users/knvvv/bin/g16sse/l303.exe)
 DipDrv:  MaxL=1.
 Leave Link  303 at Sat Apr 17 05:02:20 2021, MaxMem=   104857600 cpu:              28.1 elap:               0.6
 (Enter /s/ls4/users/knvvv/bin/g16sse/l401.exe)
 SCF N**3 symmetry information disabled.
 ExpMin= 8.07D-02 ExpMax= 1.27D+06 ExpMxC= 1.45D+03 IAcc=3 IRadAn=         5 AccDes= 0.00D+00
 Harris functional with IExCor= 1009 and IRadAn=       5 diagonalized for initial guess.
 HarFok:  IExCor= 1009 AccDes= 0.00D+00 IRadAn=         5 IDoV= 1 UseB2=F ITyADJ=14
 ICtDFT=  3500011 ScaDFX=  1.000000  1.000000  1.000000  1.000000
 FoFCou: FMM=F IPFlag=           0 FMFlag=      100000 FMFlg1=           0
         NFxFlg=           0 DoJE=T BraDBF=F KetDBF=T FulRan=T
         wScrn=  0.000000 ICntrl=       500 IOpCl=  0 I1Cent=   200000004 NGrid=           0
         NMat0=    1 NMatS0=      1 NMatT0=    0 NMatD0=    1 NMtDS0=    0 NMtDT0=    0
 Petite list used in FoFCou.
 CoulSu:  requested number of processors reduced to:  21 ShMem   1 Linda.
 CoulSu:  requested number of processors reduced to:  21 ShMem   1 Linda.
 CoulSu:  requested number of processors reduced to:  21 ShMem   1 Linda.
 CoulSu:  requested number of processors reduced to:  21 ShMem   1 Linda.
 Harris En= -795.975118403256    
 JPrj=0 DoOrth=F DoCkMO=F.
 Initial guess orbital symmetries:
 Alpha Orbitals:
       Occupied  (SGU) (SGG) (SGG) (SGU) (SGG) (SGU) (PIU) (PIU)
                 (PIG) (PIG) (SGG) (SGU) (SGG) (PIU) (PIU) (PIG)
                 (PIG)
       Virtual   (SGU) (SGG) (PIU) (PIU) (SGU) (SGG) (DLTG) (DLTG)
                 (PIG) (PIG) (PIU) (PIU) (DLTU) (DLTU) (SGU) (SGG)
                 (PIG) (PIG) (SGU) (PIU) (PIU) (SGG) (DLTG) (DLTG)
                 (DLTG) (DLTG) (PIU) (PIU) (PHIU) (PHIU) (DLTU)
                 (DLTU) (SGG) (PIG) (PIG) (PIG) (PIG) (SGU) (PHIG)
                 (PHIG) (SGU) (PIU) (PIU) (DLTU) (DLTU) (SGU) (SGG)
                 (PIG) (PIG) (SGG) (SGU) (DLTG) (DLTG) (PIU) (PIU)
                 (DLTU) (DLTU) (SGG) (PIU) (PIU) (DLTG) (DLTG)
                 (PHIU) (PHIU) (PIG) (PIG) (?A) (?A) (?B) (?B)
                 (SGG) (PHIG) (PHIG) (PHIU) (PHIU) (SGU) (DLTG)
                 (DLTG) (PHIG) (PHIG) (DLTU) (DLTU) (SGU) (PIG)
                 (PIG) (PIU) (PIU) (SGG) (SGU) (PIG) (PIG) (PIU)
                 (PIU) (DLTU) (DLTU) (SGG) (PIG) (PIG) (SGU) (SGG)
                 (SGU) (DLTG) (DLTG) (PIU) (PIU) (DLTU) (DLTU)
                 (PIG) (PIG) (SGG) (SGU) (SGG) (SGU) (PIU) (PIU)
                 (PIG) (PIG) (SGG) (SGU) (SGG) (SGU) (SGG) (SGU)
 Beta  Orbitals:
       Occupied  (SGU) (SGG) (SGG) (SGU) (SGG) (SGU) (PIU) (PIU)
                 (PIG) (PIG) (SGG) (SGU) (SGG) (PIU) (PIU)
       Virtual   (PIG) (PIG) (SGU) (SGG) (PIU) (PIU) (SGU) (SGG)
                 (DLTG) (DLTG) (PIG) (PIG) (PIU) (PIU) (DLTU) (DLTU)
                 (SGU) (SGG) (PIG) (PIG) (SGU) (PIU) (PIU) (SGG)
                 (DLTG) (DLTG) (DLTG) (DLTG) (PIU) (PIU) (PHIU)
                 (PHIU) (DLTU) (DLTU) (SGG) (PIG) (PIG) (PIG) (PIG)
                 (SGU) (PHIG) (PHIG) (SGU) (PIU) (PIU) (DLTU) (DLTU)
                 (SGU) (SGG) (PIG) (PIG) (SGG) (SGU) (DLTG) (DLTG)
                 (PIU) (PIU) (DLTU) (DLTU) (SGG) (PIU) (PIU) (DLTG)
                 (DLTG) (PHIU) (PHIU) (PIG) (PIG) (?A) (?A) (?B)
                 (?B) (SGG) (PHIG) (PHIG) (PHIU) (PHIU) (SGU) (DLTG)
                 (DLTG) (PHIG) (PHIG) (DLTU) (DLTU) (SGU) (PIG)
                 (PIG) (PIU) (PIU) (SGG) (SGU) (PIG) (PIG) (PIU)
                 (PIU) (DLTU) (DLTU) (SGG) (PIG) (PIG) (SGU) (SGG)
                 (SGU) (DLTG) (DLTG) (PIU) (PIU) (DLTU) (DLTU)
                 (PIG) (PIG) (SGG) (SGU) (SGG) (SGU) (PIU) (PIU)
                 (PIG) (PIG) (SGG) (SGU) (SGG) (SGU) (SGG) (SGU)
 The electronic state of the initial guess is 3-SGG.
 Initial guess <Sx>= 0.0000 <Sy>= 0.0000 <Sz>= 1.0000 <S**2>= 2.0000 S= 1.0000
 Leave Link  401 at Sat Apr 17 05:02:23 2021, MaxMem=   104857600 cpu:             146.9 elap:               3.3
 (Enter /s/ls4/users/knvvv/bin/g16sse/l502.exe)
 Keep R1 and R2 ints in memory in symmetry-blocked form, NReq=103080950.
 FoFCou: FMM=F IPFlag=           0 FMFlag=           0 FMFlg1=           0
         NFxFlg=           0 DoJE=F BraDBF=F KetDBF=F FulRan=T
         wScrn=  0.000000 ICntrl=       600 IOpCl=  0 I1Cent=           0 NGrid=           0
         NMat0=    1 NMatS0=   9870 NMatT0=    0 NMatD0=    1 NMtDS0=    0 NMtDT0=    0
 Petite list used in FoFCou.
 CoulSu:  requested number of processors reduced to:  12 ShMem   1 Linda.
 UHF open shell SCF:
 Using DIIS extrapolation, IDIIS=  1040.
 NGot=   104857600 LenX=    92297492 LenY=    92267467
 Requested convergence on RMS density matrix=1.00D-08 within 128 cycles.
 Requested convergence on MAX density matrix=1.00D-06.
 Requested convergence on             energy=1.00D-06.
 No special actions if energy rises.
 Integral accuracy reduced to 1.0D-05 until final iterations.

 Cycle   1  Pass 0  IDiag  1:
 E= -796.367182350380    
 DIIS: error= 5.00D-02 at cycle   1 NSaved=   1.
 NSaved= 1 IEnMin= 1 EnMin= -796.367182350380     IErMin= 1 ErrMin= 5.00D-02
 ErrMax= 5.00D-02  0.00D+00 EMaxC= 1.00D-01 BMatC= 5.10D-01 BMatP= 5.10D-01
 IDIUse=3 WtCom= 5.00D-01 WtEn= 5.00D-01
 Coeff-Com:  0.100D+01
 Coeff-En:   0.100D+01
 Coeff:      0.100D+01
 Gap=     0.320 Goal=   None    Shift=    0.000
 Gap=     0.271 Goal=   None    Shift=    0.000
 GapD=    0.271 DampG=1.000 DampE=0.500 DampFc=0.5000 IDamp=-1.
 Damping current iteration by 5.00D-01
 RMSDP=2.24D-03 MaxDP=1.20D-01              OVMax= 3.57D-02

 Cycle   2  Pass 0  IDiag  1:
 E= -796.374738109277     Delta-E=       -0.007555758897 Rises=F Damp=T
 DIIS: error= 2.48D-02 at cycle   2 NSaved=   2.
 NSaved= 2 IEnMin= 2 EnMin= -796.374738109277     IErMin= 2 ErrMin= 2.48D-02
 ErrMax= 2.48D-02  0.00D+00 EMaxC= 1.00D-01 BMatC= 1.07D-01 BMatP= 5.10D-01
 IDIUse=3 WtCom= 7.52D-01 WtEn= 2.48D-01
 Coeff-Com: -0.755D+00 0.175D+01
 Coeff-En:   0.000D+00 0.100D+01
 Coeff:     -0.568D+00 0.157D+01
 Gap=     0.321 Goal=   None    Shift=    0.000
 Gap=     0.273 Goal=   None    Shift=    0.000
 RMSDP=1.05D-03 MaxDP=5.58D-02 DE=-7.56D-03 OVMax= 1.17D-02

 Cycle   3  Pass 0  IDiag  1:
 E= -796.382323537042     Delta-E=       -0.007585427765 Rises=F Damp=F
 DIIS: error= 9.70D-04 at cycle   3 NSaved=   3.
 NSaved= 3 IEnMin= 3 EnMin= -796.382323537042     IErMin= 3 ErrMin= 9.70D-04
 ErrMax= 9.70D-04  0.00D+00 EMaxC= 1.00D-01 BMatC= 2.07D-04 BMatP= 1.07D-01
 IDIUse=3 WtCom= 9.90D-01 WtEn= 9.70D-03
 Coeff-Com: -0.439D-01 0.805D-01 0.963D+00
 Coeff-En:   0.000D+00 0.000D+00 0.100D+01
 Coeff:     -0.435D-01 0.797D-01 0.964D+00
 Gap=     0.322 Goal=   None    Shift=    0.000
 Gap=     0.274 Goal=   None    Shift=    0.000
 RMSDP=6.45D-05 MaxDP=1.72D-03 DE=-7.59D-03 OVMax= 3.45D-03

 Cycle   4  Pass 0  IDiag  1:
 E= -796.382394322727     Delta-E=       -0.000070785685 Rises=F Damp=F
 DIIS: error= 3.29D-04 at cycle   4 NSaved=   4.
 NSaved= 4 IEnMin= 4 EnMin= -796.382394322727     IErMin= 4 ErrMin= 3.29D-04
 ErrMax= 3.29D-04  0.00D+00 EMaxC= 1.00D-01 BMatC= 1.36D-05 BMatP= 2.07D-04
 IDIUse=3 WtCom= 9.97D-01 WtEn= 3.29D-03
 Coeff-Com:  0.214D-01-0.435D-01-0.187D+00 0.121D+01
 Coeff-En:   0.000D+00 0.000D+00 0.000D+00 0.100D+01
 Coeff:      0.214D-01-0.433D-01-0.187D+00 0.121D+01
 Gap=     0.322 Goal=   None    Shift=    0.000
 Gap=     0.274 Goal=   None    Shift=    0.000
 RMSDP=2.74D-05 MaxDP=1.35D-03 DE=-7.08D-05 OVMax= 1.50D-03

 Cycle   5  Pass 0  IDiag  1:
 E= -796.382400877758     Delta-E=       -0.000006555031 Rises=F Damp=F
 DIIS: error= 7.30D-05 at cycle   5 NSaved=   5.
 NSaved= 5 IEnMin= 5 EnMin= -796.382400877758     IErMin= 5 ErrMin= 7.30D-05
 ErrMax= 7.30D-05  0.00D+00 EMaxC= 1.00D-01 BMatC= 9.22D-07 BMatP= 1.36D-05
 IDIUse=1 WtCom= 1.00D+00 WtEn= 0.00D+00
 Coeff-Com:  0.295D-02-0.582D-02-0.778D-01 0.186D+00 0.895D+00
 Coeff:      0.295D-02-0.582D-02-0.778D-01 0.186D+00 0.895D+00
 Gap=     0.322 Goal=   None    Shift=    0.000
 Gap=     0.274 Goal=   None    Shift=    0.000
 RMSDP=4.80D-06 MaxDP=1.54D-04 DE=-6.56D-06 OVMax= 2.27D-04

 Initial convergence to 1.0D-05 achieved.  Increase integral accuracy.
 Cycle   6  Pass 1  IDiag  1:
 E= -796.382373985671     Delta-E=        0.000026892086 Rises=F Damp=F
 DIIS: error= 2.51D-04 at cycle   1 NSaved=   1.
 NSaved= 1 IEnMin= 1 EnMin= -796.382373985671     IErMin= 1 ErrMin= 2.51D-04
 ErrMax= 2.51D-04  0.00D+00 EMaxC= 1.00D-01 BMatC= 8.32D-06 BMatP= 8.32D-06
 IDIUse=3 WtCom= 9.97D-01 WtEn= 2.51D-03
 Coeff-Com:  0.100D+01
 Coeff-En:   0.100D+01
 Coeff:      0.100D+01
 Gap=     0.322 Goal=   None    Shift=    0.000
 Gap=     0.274 Goal=   None    Shift=    0.000
 RMSDP=4.80D-06 MaxDP=1.54D-04 DE= 2.69D-05 OVMax= 2.45D-04

 Cycle   7  Pass 1  IDiag  1:
 E= -796.382374758670     Delta-E=       -0.000000772999 Rises=F Damp=F
 DIIS: error= 3.02D-05 at cycle   2 NSaved=   2.
 NSaved= 2 IEnMin= 2 EnMin= -796.382374758670     IErMin= 2 ErrMin= 3.02D-05
 ErrMax= 3.02D-05  0.00D+00 EMaxC= 1.00D-01 BMatC= 2.29D-07 BMatP= 8.32D-06
 IDIUse=1 WtCom= 1.00D+00 WtEn= 0.00D+00
 Coeff-Com: -0.140D-01 0.101D+01
 Coeff:     -0.140D-01 0.101D+01
 Gap=     0.322 Goal=   None    Shift=    0.000
 Gap=     0.274 Goal=   None    Shift=    0.000
 RMSDP=2.19D-06 MaxDP=6.62D-05 DE=-7.73D-07 OVMax= 9.85D-05

 Cycle   8  Pass 1  IDiag  1:
 E= -796.382374784014     Delta-E=       -0.000000025344 Rises=F Damp=F
 DIIS: error= 1.92D-05 at cycle   3 NSaved=   3.
 NSaved= 3 IEnMin= 3 EnMin= -796.382374784014     IErMin= 3 ErrMin= 1.92D-05
 ErrMax= 1.92D-05  0.00D+00 EMaxC= 1.00D-01 BMatC= 9.11D-08 BMatP= 2.29D-07
 IDIUse=1 WtCom= 1.00D+00 WtEn= 0.00D+00
 Coeff-Com: -0.293D-01 0.389D+00 0.640D+00
 Coeff:     -0.293D-01 0.389D+00 0.640D+00
 Gap=     0.322 Goal=   None    Shift=    0.000
 Gap=     0.274 Goal=   None    Shift=    0.000
 RMSDP=6.42D-07 MaxDP=1.52D-05 DE=-2.53D-08 OVMax= 4.34D-05

 Cycle   9  Pass 1  IDiag  1:
 E= -796.382374800739     Delta-E=       -0.000000016725 Rises=F Damp=F
 DIIS: error= 3.14D-06 at cycle   4 NSaved=   4.
 NSaved= 4 IEnMin= 4 EnMin= -796.382374800739     IErMin= 4 ErrMin= 3.14D-06
 ErrMax= 3.14D-06  0.00D+00 EMaxC= 1.00D-01 BMatC= 1.45D-09 BMatP= 9.11D-08
 IDIUse=1 WtCom= 1.00D+00 WtEn= 0.00D+00
 Coeff-Com: -0.219D-03-0.440D-01 0.272D-01 0.102D+01
 Coeff:     -0.219D-03-0.440D-01 0.272D-01 0.102D+01
 Gap=     0.322 Goal=   None    Shift=    0.000
 Gap=     0.274 Goal=   None    Shift=    0.000
 RMSDP=1.67D-07 MaxDP=6.84D-06 DE=-1.67D-08 OVMax= 8.49D-06

 Cycle  10  Pass 1  IDiag  1:
 E= -796.382374801199     Delta-E=       -0.000000000460 Rises=F Damp=F
 DIIS: error= 5.66D-07 at cycle   5 NSaved=   5.
 NSaved= 5 IEnMin= 5 EnMin= -796.382374801199     IErMin= 5 ErrMin= 5.66D-07
 ErrMax= 5.66D-07  0.00D+00 EMaxC= 1.00D-01 BMatC= 9.03D-11 BMatP= 1.45D-09
 IDIUse=1 WtCom= 1.00D+00 WtEn= 0.00D+00
 Coeff-Com:  0.122D-02-0.276D-01-0.301D-01 0.140D+00 0.917D+00
 Coeff:      0.122D-02-0.276D-01-0.301D-01 0.140D+00 0.917D+00
 Gap=     0.322 Goal=   None    Shift=    0.000
 Gap=     0.274 Goal=   None    Shift=    0.000
 RMSDP=4.91D-08 MaxDP=1.83D-06 DE=-4.60D-10 OVMax= 3.37D-06

 Cycle  11  Pass 1  IDiag  1:
 E= -796.382374801233     Delta-E=       -0.000000000033 Rises=F Damp=F
 DIIS: error= 1.31D-07 at cycle   6 NSaved=   6.
 NSaved= 6 IEnMin= 6 EnMin= -796.382374801233     IErMin= 6 ErrMin= 1.31D-07
 ErrMax= 1.31D-07  0.00D+00 EMaxC= 1.00D-01 BMatC= 4.16D-12 BMatP= 9.03D-11
 IDIUse=1 WtCom= 1.00D+00 WtEn= 0.00D+00
 Coeff-Com: -0.507D-04 0.386D-02 0.577D-04-0.773D-01-0.549D-01 0.113D+01
 Coeff:     -0.507D-04 0.386D-02 0.577D-04-0.773D-01-0.549D-01 0.113D+01
 Gap=     0.322 Goal=   None    Shift=    0.000
 Gap=     0.274 Goal=   None    Shift=    0.000
 RMSDP=1.72D-08 MaxDP=5.18D-07 DE=-3.34D-11 OVMax= 8.83D-07

 Cycle  12  Pass 1  IDiag  1:
 E= -796.382374801234     Delta-E=       -0.000000000001 Rises=F Damp=F
 DIIS: error= 1.98D-08 at cycle   7 NSaved=   7.
 NSaved= 7 IEnMin= 7 EnMin= -796.382374801234     IErMin= 7 ErrMin= 1.98D-08
 ErrMax= 1.98D-08  0.00D+00 EMaxC= 1.00D-01 BMatC= 8.72D-14 BMatP= 4.16D-12
 IDIUse=1 WtCom= 1.00D+00 WtEn= 0.00D+00
 Coeff-Com: -0.313D-04 0.400D-03 0.871D-03 0.523D-02-0.200D-01-0.133D+00
 Coeff-Com:  0.115D+01
 Coeff:     -0.313D-04 0.400D-03 0.871D-03 0.523D-02-0.200D-01-0.133D+00
 Coeff:      0.115D+01
 Gap=     0.322 Goal=   None    Shift=    0.000
 Gap=     0.274 Goal=   None    Shift=    0.000
 RMSDP=3.69D-09 MaxDP=9.67D-08 DE=-1.48D-12 OVMax= 1.44D-07

 SCF Done:  E(UM062X) =  -796.382374801     A.U. after   12 cycles
            NFock= 12  Conv=0.37D-08     -V/T= 2.0015
 <Sx>= 0.0000 <Sy>= 0.0000 <Sz>= 1.0000 <S**2>= 2.0127 S= 1.0042
 <L.S>= 0.000000000000E+00
 KE= 7.952196988651D+02 PE=-2.036207638587D+03 EE= 3.736053997256D+02
 Annihilation of the first spin contaminant:
 S**2 before annihilation     2.0127,   after     2.0001
 Leave Link  502 at Sat Apr 17 05:05:23 2021, MaxMem=   104857600 cpu:            8451.7 elap:             180.3
 (Enter /s/ls4/users/knvvv/bin/g16sse/l601.exe)
 Copying SCF densities to generalized density rwf, IOpCl= 1 IROHF=0.

 **********************************************************************

            Population analysis using the SCF density.

 **********************************************************************

 Orbital symmetries:
 Alpha Orbitals:
       Occupied  (SGG) (SGU) (SGG) (SGU) (PIU) (PIU) (PIG) (PIG)
                 (SGG) (SGU) (SGG) (SGU) (SGG) (PIU) (PIU) (PIG)
                 (PIG)
       Virtual   (SGU) (SGG) (SGU) (PIU) (PIU) (SGG) (DLTG) (DLTG)
                 (PIG) (PIG) (PIU) (PIU) (DLTU) (DLTU) (SGU) (SGG)
                 (PIG) (PIG) (SGU) (SGG) (PIU) (PIU) (DLTG) (DLTG)
                 (PIU) (PIU) (PHIU) (PHIU) (DLTG) (DLTG) (DLTU)
                 (DLTU) (PIG) (PIG) (SGG) (PIG) (PIG) (PHIG) (PHIG)
                 (SGU) (SGU) (PIU) (PIU) (DLTU) (DLTU) (SGU) (SGG)
                 (PIG) (PIG) (SGG) (SGU) (DLTG) (DLTG) (PIU) (PIU)
                 (DLTU) (DLTU) (SGG) (PIU) (PIU) (DLTG) (DLTG)
                 (PHIU) (PHIU) (PIG) (PIG) (?A) (?A) (?B) (?B)
                 (SGG) (PHIU) (PHIU) (PHIG) (PHIG) (SGU) (DLTG)
                 (DLTG) (PHIG) (PHIG) (DLTU) (DLTU) (SGU) (PIG)
                 (PIG) (PIU) (PIU) (SGU) (SGG) (PIG) (PIG) (DLTU)
                 (DLTU) (PIU) (PIU) (SGG) (PIG) (PIG) (SGU) (SGG)
                 (SGU) (DLTG) (DLTG) (DLTU) (DLTU) (PIU) (PIU)
                 (PIG) (PIG) (SGG) (SGU) (SGG) (SGU) (PIU) (PIU)
                 (PIG) (PIG) (SGG) (SGU) (SGG) (SGU) (SGG) (SGU)
 Beta  Orbitals:
       Occupied  (SGG) (SGU) (SGG) (SGU) (SGG) (SGU) (PIU) (PIU)
                 (PIG) (PIG) (SGG) (SGU) (SGG) (PIU) (PIU)
       Virtual   (PIG) (PIG) (SGU) (SGG) (SGU) (PIU) (PIU) (SGG)
                 (PIG) (PIG) (DLTG) (DLTG) (PIU) (PIU) (DLTU) (DLTU)
                 (SGU) (SGG) (PIG) (PIG) (SGU) (SGG) (PIU) (PIU)
                 (DLTG) (DLTG) (PHIU) (PHIU) (PIU) (PIU) (DLTG)
                 (DLTG) (DLTU) (DLTU) (SGG) (PIG) (PIG) (PIG) (PIG)
                 (PHIG) (PHIG) (SGU) (SGU) (PIU) (PIU) (DLTU) (DLTU)
                 (SGU) (SGG) (PIG) (PIG) (SGG) (SGU) (DLTG) (DLTG)
                 (PIU) (PIU) (SGG) (DLTU) (DLTU) (PIU) (PIU) (DLTG)
                 (DLTG) (PHIU) (PHIU) (PIG) (PIG) (?A) (?A) (?B)
                 (?B) (SGG) (PHIG) (PHIG) (SGU) (PHIU) (PHIU) (DLTG)
                 (DLTG) (PHIG) (PHIG) (DLTU) (DLTU) (SGU) (PIG)
                 (PIG) (PIU) (PIU) (SGG) (SGU) (PIG) (PIG) (DLTU)
                 (DLTU) (PIU) (PIU) (SGG) (PIG) (PIG) (SGU) (SGG)
                 (SGU) (DLTG) (DLTG) (PIU) (PIU) (DLTU) (DLTU)
                 (PIG) (PIG) (SGG) (SGU) (SGG) (SGU) (PIU) (PIU)
                 (PIG) (PIG) (SGG) (SGU) (SGG) (SGU) (SGG) (SGU)
 The electronic state is 3-SGG.
 Alpha  occ. eigenvalues --  -89.96188 -89.96188  -8.31161  -8.31138  -6.23636
 Alpha  occ. eigenvalues --   -6.23636  -6.23631  -6.23631  -6.23191  -6.23121
 Alpha  occ. eigenvalues --   -0.92804  -0.71592  -0.45782  -0.44151  -0.44151
 Alpha  occ. eigenvalues --   -0.30030  -0.30030
 Alpha virt. eigenvalues --    0.02151   0.14730   0.15643   0.16723   0.16723
 Alpha virt. eigenvalues --    0.19523   0.22110   0.22112   0.23485   0.23485
 Alpha virt. eigenvalues --    0.24784   0.24784   0.35201   0.35205   0.38611
 Alpha virt. eigenvalues --    0.46731   0.54401   0.54401   0.62889   0.85642
 Alpha virt. eigenvalues --    0.85941   0.85941   0.91682   0.91685   0.94919
 Alpha virt. eigenvalues --    0.94919   0.97542   0.97542   0.98118   0.98119
 Alpha virt. eigenvalues --    0.99637   0.99638   1.01579   1.01579   1.02562
 Alpha virt. eigenvalues --    1.08772   1.08772   1.12615   1.12615   1.12959
 Alpha virt. eigenvalues --    1.25126   1.30725   1.30725   1.37913   1.37918
 Alpha virt. eigenvalues --    1.40488   1.44470   1.73527   1.73527   1.83169
 Alpha virt. eigenvalues --    2.24837   2.49394   2.49403   2.56217   2.56217
 Alpha virt. eigenvalues --    2.62402   2.62412   2.62573   2.68126   2.68126
 Alpha virt. eigenvalues --    2.70822   2.70823   2.72413   2.72413   2.76650
 Alpha virt. eigenvalues --    2.76650   2.86234   2.86235   2.92538   2.92539
 Alpha virt. eigenvalues --    2.96106   3.03931   3.03931   3.05116   3.05116
 Alpha virt. eigenvalues --    3.11263   3.12267   3.12272   3.16113   3.16113
 Alpha virt. eigenvalues --    3.18462   3.18470   3.34066   3.34335   3.34335
 Alpha virt. eigenvalues --    3.40182   3.40182   3.50926   3.51706   3.54430
 Alpha virt. eigenvalues --    3.54430   3.63185   3.63189   3.64053   3.64053
 Alpha virt. eigenvalues --    4.03968   4.36182   4.36182   5.55716   6.81399
 Alpha virt. eigenvalues --    7.24382   8.58591   8.58591   8.64268   8.64269
 Alpha virt. eigenvalues --    8.65082   8.65082   8.87013   8.87013   9.10836
 Alpha virt. eigenvalues --    9.14831  23.78284  24.30675  28.82333  28.82333
 Alpha virt. eigenvalues --   28.87559  28.87559  28.92932  29.51625  83.54037
 Alpha virt. eigenvalues --   84.04652 448.91836 449.77512
  Beta  occ. eigenvalues --  -89.95150 -89.95150  -8.30829  -8.30799  -6.22888
  Beta  occ. eigenvalues --   -6.22817  -6.22018  -6.22018  -6.22012  -6.22012
  Beta  occ. eigenvalues --   -0.89207  -0.64825  -0.42768  -0.37857  -0.37857
  Beta virt. eigenvalues --   -0.10469  -0.10469   0.02744   0.14037   0.15729
  Beta virt. eigenvalues --    0.15842   0.15842   0.18053   0.21368   0.21368
  Beta virt. eigenvalues --    0.23441   0.23441   0.27420   0.27420   0.37978
  Beta virt. eigenvalues --    0.37979   0.39122   0.47845   0.55284   0.55284
  Beta virt. eigenvalues --    0.62774   0.84539   0.85838   0.85838   0.92339
  Beta virt. eigenvalues --    0.92339   0.97873   0.97873   0.98251   0.98251
  Beta virt. eigenvalues --    0.99401   0.99401   1.01049   1.01049   1.03330
  Beta virt. eigenvalues --    1.04063   1.04063   1.09613   1.09613   1.13367
  Beta virt. eigenvalues --    1.13367   1.13799   1.25390   1.31284   1.31284
  Beta virt. eigenvalues --    1.38165   1.38166   1.40864   1.47802   1.72977
  Beta virt. eigenvalues --    1.72977   1.83384   2.26913   2.53621   2.53622
  Beta virt. eigenvalues --    2.58654   2.58654   2.63879   2.65286   2.65287
  Beta virt. eigenvalues --    2.68855   2.68855   2.71678   2.71679   2.74953
  Beta virt. eigenvalues --    2.74953   2.77869   2.77869   2.90002   2.90005
  Beta virt. eigenvalues --    2.96446   2.96449   2.98368   3.09714   3.09714
  Beta virt. eigenvalues --    3.12557   3.12922   3.12922   3.17717   3.17718
  Beta virt. eigenvalues --    3.23325   3.23325   3.23785   3.23786   3.36954
  Beta virt. eigenvalues --    3.37623   3.37623   3.43633   3.43633   3.52338
  Beta virt. eigenvalues --    3.53262   3.58602   3.58602   3.65454   3.65456
  Beta virt. eigenvalues --    3.67802   3.67802   4.07187   4.37478   4.37478
  Beta virt. eigenvalues --    5.56385   6.85959   7.29843   8.64543   8.64545
  Beta virt. eigenvalues --    8.68503   8.68503   8.70446   8.70448   8.91221
  Beta virt. eigenvalues --    8.91221   9.14060   9.17620  23.85815  24.38646
  Beta virt. eigenvalues --   28.87471  28.87471  28.92717  28.92717  28.94357
  Beta virt. eigenvalues --   29.53277  83.57105  84.07901 448.91019 449.76732
          Condensed to atoms (all electrons):
               1          2
     1  S   15.592443   0.407557
     2  S    0.407557  15.592443
          Atomic-Atomic Spin Densities.
               1          2
     1  S    1.285932  -0.285932
     2  S   -0.285932   1.285932
 Mulliken charges and spin densities:
               1          2
     1  S   -0.000000   1.000000
     2  S   -0.000000   1.000000
 Sum of Mulliken charges =  -0.00000   2.00000
 Mulliken charges and spin densities with hydrogens summed into heavy atoms:
               1          2
     1  S   -0.000000   1.000000
     2  S   -0.000000   1.000000
 Electronic spatial extent (au):  <R**2>=            160.3401
 Charge=             -0.0000 electrons
 Dipole moment (field-independent basis, Debye):
    X=             -0.0000    Y=             -0.0000    Z=              0.0000  Tot=              0.0000
 Quadrupole moment (field-independent basis, Debye-Ang):
   XX=            -25.9300   YY=            -25.9300   ZZ=            -23.9136
   XY=             -0.0000   XZ=              0.0000   YZ=              0.0000
 Traceless Quadrupole moment (field-independent basis, Debye-Ang):
   XX=             -0.6721   YY=             -0.6721   ZZ=              1.3443
   XY=             -0.0000   XZ=              0.0000   YZ=              0.0000
 Octapole moment (field-independent basis, Debye-Ang**2):
  XXX=             -0.0000  YYY=              0.0000  ZZZ=             -0.0000  XYY=             -0.0000
  XXY=             -0.0000  XXZ=              0.0000  XZZ=             -0.0000  YZZ=             -0.0000
  YYZ=             -0.0000  XYZ=             -0.0000
 Hexadecapole moment (field-independent basis, Debye-Ang**3):
 XXXX=            -34.5298 YYYY=            -34.5298 ZZZZ=           -160.0559 XXXY=             -0.0000
 XXXZ=              0.0000 YYYX=             -0.0000 YYYZ=              0.0000 ZZZX=              0.0000
 ZZZY=              0.0000 XXYY=            -11.5099 XXZZ=            -34.6589 YYZZ=            -34.6589
 XXYZ=              0.0000 YYXZ=              0.0000 ZZXY=             -0.0000
 N-N= 7.100016519553D+01 E-N=-2.036207639720D+03  KE= 7.952196988651D+02
                          Isotropic Fermi Contact Couplings
        Atom                 a.u.       MegaHertz       Gauss      10(-4) cm-1
     1  S(33)              0.05880      10.09837       3.60335       3.36846
     2  S(33)              0.05880      10.09837       3.60335       3.36846
 PrsmSu:  requested number of processors reduced to:  21 ShMem   1 Linda.
 --------------------------------------------------------
       Center         ----  Spin Dipole Couplings  ----
                      3XX-RR        3YY-RR        3ZZ-RR
 --------------------------------------------------------
     1   Atom        1.335724      1.335724     -2.671448
     2   Atom        1.335724      1.335724     -2.671448
 --------------------------------------------------------
                        XY            XZ            YZ
 --------------------------------------------------------
     1   Atom        0.000000     -0.000000      0.000000
     2   Atom        0.000000     -0.000000      0.000000
 --------------------------------------------------------


 ---------------------------------------------------------------------------------
              Anisotropic Spin Dipole Couplings in Principal Axis System
 ---------------------------------------------------------------------------------

       Atom             a.u.   MegaHertz   Gauss  10(-4) cm-1        Axes

              Baa    -2.6714  -109.527   -39.082   -36.534  0.0000  0.0000  1.0000
     1 S(33)  Bbb     1.3357    54.763    19.541    18.267  0.0000  1.0000  0.0000
              Bcc     1.3357    54.763    19.541    18.267  1.0000  0.0000  0.0000
 
              Baa    -2.6714  -109.527   -39.082   -36.534  0.0000  0.0000  1.0000
     2 S(33)  Bbb     1.3357    54.763    19.541    18.267  0.0000  1.0000  0.0000
              Bcc     1.3357    54.763    19.541    18.267  1.0000  0.0000  0.0000
 

 ---------------------------------------------------------------------------------

 PrsmSu:  requested number of processors reduced to:  21 ShMem   1 Linda.
 No NMR shielding tensors so no spin-rotation constants.
 Leave Link  601 at Sat Apr 17 05:05:29 2021, MaxMem=   104857600 cpu:             256.7 elap:               5.7
 (Enter /s/ls4/users/knvvv/bin/g16sse/l801.exe)
 DoSCS=F DFT=T ScalE2(SS,OS)=  1.000000  1.000000
 Range of M.O.s used for correlation:     1   140
 NBasis=   140 NAE=    17 NBE=    15 NFC=     0 NFV=     0
 NROrb=    140 NOA=    17 NOB=    15 NVA=   123 NVB=   125

 **** Warning!!: The largest alpha MO coefficient is  0.14658858D+02


 **** Warning!!: The largest beta MO coefficient is  0.14641894D+02

 Leave Link  801 at Sat Apr 17 05:05:29 2021, MaxMem=   104857600 cpu:               4.3 elap:               0.1
 (Enter /s/ls4/users/knvvv/bin/g16sse/l914.exe)
 UHF ground state
 Doing stability rather than CIS.
 Two-electron integrals replicated using symmetry.
 MDV=   104857600 DFT=T DoStab=T Mixed=T DoRPA=F DoScal=F NonHer=F
 Making orbital integer symmetry assigments:
 Orbital symmetries:
 Alpha Orbitals:
       Occupied  (SGG) (SGU) (SGG) (SGU) (PIU) (PIU) (PIG) (PIG)
                 (SGG) (SGU) (SGG) (SGU) (SGG) (PIU) (PIU) (PIG)
                 (PIG)
       Virtual   (SGU) (SGG) (SGU) (PIU) (PIU) (SGG) (DLTG) (DLTG)
                 (PIG) (PIG) (PIU) (PIU) (DLTU) (DLTU) (SGU) (SGG)
                 (PIG) (PIG) (SGU) (SGG) (PIU) (PIU) (DLTG) (DLTG)
                 (PIU) (PIU) (PHIU) (PHIU) (DLTG) (DLTG) (DLTU)
                 (DLTU) (PIG) (PIG) (SGG) (PIG) (PIG) (PHIG) (PHIG)
                 (SGU) (SGU) (PIU) (PIU) (DLTU) (DLTU) (SGU) (SGG)
                 (PIG) (PIG) (SGG) (SGU) (DLTG) (DLTG) (PIU) (PIU)
                 (DLTU) (DLTU) (SGG) (PIU) (PIU) (DLTG) (DLTG)
                 (PHIU) (PHIU) (PIG) (PIG) (?A) (?A) (?B) (?B)
                 (SGG) (PHIU) (PHIU) (PHIG) (PHIG) (SGU) (DLTG)
                 (DLTG) (PHIG) (PHIG) (DLTU) (DLTU) (SGU) (PIG)
                 (PIG) (PIU) (PIU) (SGU) (SGG) (PIG) (PIG) (DLTU)
                 (DLTU) (PIU) (PIU) (SGG) (PIG) (PIG) (SGU) (SGG)
                 (SGU) (DLTG) (DLTG) (DLTU) (DLTU) (PIU) (PIU)
                 (PIG) (PIG) (SGG) (SGU) (SGG) (SGU) (PIU) (PIU)
                 (PIG) (PIG) (SGG) (SGU) (SGG) (SGU) (SGG) (SGU)
 Beta  Orbitals:
       Occupied  (SGG) (SGU) (SGG) (SGU) (SGG) (SGU) (PIU) (PIU)
                 (PIG) (PIG) (SGG) (SGU) (SGG) (PIU) (PIU)
       Virtual   (PIG) (PIG) (SGU) (SGG) (SGU) (PIU) (PIU) (SGG)
                 (PIG) (PIG) (DLTG) (DLTG) (PIU) (PIU) (DLTU) (DLTU)
                 (SGU) (SGG) (PIG) (PIG) (SGU) (SGG) (PIU) (PIU)
                 (DLTG) (DLTG) (PHIU) (PHIU) (PIU) (PIU) (DLTG)
                 (DLTG) (DLTU) (DLTU) (SGG) (PIG) (PIG) (PIG) (PIG)
                 (PHIG) (PHIG) (SGU) (SGU) (PIU) (PIU) (DLTU) (DLTU)
                 (SGU) (SGG) (PIG) (PIG) (SGG) (SGU) (DLTG) (DLTG)
                 (PIU) (PIU) (SGG) (DLTU) (DLTU) (PIU) (PIU) (DLTG)
                 (DLTG) (PHIU) (PHIU) (PIG) (PIG) (?A) (?A) (?B)
                 (?B) (SGG) (PHIG) (PHIG) (SGU) (PHIU) (PHIU) (DLTG)
                 (DLTG) (PHIG) (PHIG) (DLTU) (DLTU) (SGU) (PIG)
                 (PIG) (PIU) (PIU) (SGG) (SGU) (PIG) (PIG) (DLTU)
                 (DLTU) (PIU) (PIU) (SGG) (PIG) (PIG) (SGU) (SGG)
                 (SGU) (DLTG) (DLTG) (PIU) (PIU) (DLTU) (DLTU)
                 (PIG) (PIG) (SGG) (SGU) (SGG) (SGU) (PIU) (PIU)
                 (PIG) (PIG) (SGG) (SGU) (SGG) (SGU) (SGG) (SGU)
    24 initial guesses have been made.
 Convergence on wavefunction:    0.001000000000000
 Davidson Disk Diagonalization:  ConvIn= 1.00D-03 SkipCon=T Conv= 1.00D-03.
 Max sub-space:  2000 roots to seek:    24 dimension of matrix:         3966
 Iteration     1 Dimension    24 NMult     0 NNew     24
 Estimated number of processors is:   20
 CISAX will form     1 AO SS matrices at one time.
 NMat=     1 NSing=     1 JSym2X= 2.
 FoFJK:  IHMeth= 1 ICntrl=       0 DoSepK=F KAlg= 0 I1Cent=           0 FoldK=F
 IRaf= 970000000 NMat=       1 IRICut=       1 DoRegI=T DoRafI=F ISym2E= 2 IDoP0=0 IntGTp=1.
 FoFCou: FMM=F IPFlag=           0 FMFlag=      100000 FMFlg1=           0
         NFxFlg=           0 DoJE=F BraDBF=F KetDBF=F FulRan=T
         wScrn=  0.000000 ICntrl=         0 IOpCl=  1 I1Cent=           0 NGrid=           0
         NMat0=    1 NMatS0=      1 NMatT0=    0 NMatD0=    1 NMtDS0=    0 NMtDT0=    0
 Integrals replicated using symmetry in FoFCou.
 CoulSu:  requested number of processors reduced to:  18 ShMem   1 Linda.
 NMat=     1 NSing=     1 JSym2X= 2.
 CoulSu:  requested number of processors reduced to:  18 ShMem   1 Linda.
 NMat=     1 NSing=     1 JSym2X= 2.
 CoulSu:  requested number of processors reduced to:  18 ShMem   1 Linda.
 NMat=     1 NSing=     1 JSym2X= 2.
 CoulSu:  requested number of processors reduced to:  18 ShMem   1 Linda.
 NMat=     1 NSing=     1 JSym2X= 2.
 CoulSu:  requested number of processors reduced to:  18 ShMem   1 Linda.
 NMat=     1 NSing=     1 JSym2X= 2.
 CoulSu:  requested number of processors reduced to:  18 ShMem   1 Linda.
 NMat=     1 NSing=     1 JSym2X= 2.
 CoulSu:  requested number of processors reduced to:  18 ShMem   1 Linda.
 NMat=     1 NSing=     1 JSym2X= 2.
 CoulSu:  requested number of processors reduced to:  18 ShMem   1 Linda.
 NMat=     1 NSing=     1 JSym2X= 2.
 CoulSu:  requested number of processors reduced to:  18 ShMem   1 Linda.
 NMat=     1 NSing=     1 JSym2X= 2.
 CoulSu:  requested number of processors reduced to:  18 ShMem   1 Linda.
 NMat=     1 NSing=     1 JSym2X= 2.
 CoulSu:  requested number of processors reduced to:  18 ShMem   1 Linda.
 NMat=     1 NSing=     1 JSym2X= 2.
 CoulSu:  requested number of processors reduced to:  18 ShMem   1 Linda.
 NMat=     1 NSing=     1 JSym2X= 2.
 CoulSu:  requested number of processors reduced to:  18 ShMem   1 Linda.
 NMat=     1 NSing=     1 JSym2X= 2.
 CoulSu:  requested number of processors reduced to:  18 ShMem   1 Linda.
 NMat=     1 NSing=     1 JSym2X= 2.
 CoulSu:  requested number of processors reduced to:  18 ShMem   1 Linda.
 NMat=     1 NSing=     1 JSym2X= 2.
 CoulSu:  requested number of processors reduced to:  18 ShMem   1 Linda.
 NMat=     1 NSing=     1 JSym2X= 2.
 CoulSu:  requested number of processors reduced to:  18 ShMem   1 Linda.
 NMat=     1 NSing=     1 JSym2X= 2.
 CoulSu:  requested number of processors reduced to:  18 ShMem   1 Linda.
 NMat=     1 NSing=     1 JSym2X= 2.
 CoulSu:  requested number of processors reduced to:  18 ShMem   1 Linda.
 NMat=     1 NSing=     1 JSym2X= 2.
 CoulSu:  requested number of processors reduced to:  18 ShMem   1 Linda.
 NMat=     1 NSing=     1 JSym2X= 2.
 CoulSu:  requested number of processors reduced to:  18 ShMem   1 Linda.
 NMat=     1 NSing=     1 JSym2X= 2.
 CoulSu:  requested number of processors reduced to:  18 ShMem   1 Linda.
 NMat=     1 NSing=     1 JSym2X= 2.
 CoulSu:  requested number of processors reduced to:  18 ShMem   1 Linda.
 NMat=     1 NSing=     1 JSym2X= 2.
 CoulSu:  requested number of processors reduced to:  18 ShMem   1 Linda.
 New state      1 was old state      2
 Excitation Energies [eV] at current iteration:
 Root      1 :     3.111954906921388
 Root      2 :     3.112177076976732
 Root      3 :     3.998697185719372
 Root      4 :     4.956145553913437
 Root      5 :     4.956145553913636
 Root      6 :     5.165104341862364
 Root      7 :     5.165104341862642
 Root      8 :     6.539575479673656
 Root      9 :     7.736552034239128
 Root     10 :     7.736552034239998
 Root     11 :     8.545577585215044
 Root     12 :     8.568363003709155
 Root     13 :     8.568363003709251
 Root     14 :     9.269235069537235
 Root     15 :     9.269235069537428
 Root     16 :     9.405312788508963
 Root     17 :     9.406508359489502
 Root     18 :     9.600636313806454
 Root     19 :     9.779877977968683
 Root     20 :     9.779877977969420
 Root     21 :    10.044290893196690
 Root     22 :    10.541976512901010
 Root     23 :    10.541976512901440
 Root     24 :    16.527222274402770
 Iteration     2 Dimension    48 NMult    24 NNew     24
 Estimated number of processors is:   20
 CISAX will form     1 AO SS matrices at one time.
 NMat=     1 NSing=     1 JSym2X= 2.
 CoulSu:  requested number of processors reduced to:  18 ShMem   1 Linda.
 NMat=     1 NSing=     1 JSym2X= 2.
 CoulSu:  requested number of processors reduced to:  18 ShMem   1 Linda.
 NMat=     1 NSing=     1 JSym2X= 2.
 CoulSu:  requested number of processors reduced to:  18 ShMem   1 Linda.
 NMat=     1 NSing=     1 JSym2X= 2.
 CoulSu:  requested number of processors reduced to:  18 ShMem   1 Linda.
 NMat=     1 NSing=     1 JSym2X= 2.
 CoulSu:  requested number of processors reduced to:  18 ShMem   1 Linda.
 NMat=     1 NSing=     1 JSym2X= 2.
 CoulSu:  requested number of processors reduced to:  18 ShMem   1 Linda.
 NMat=     1 NSing=     1 JSym2X= 2.
 CoulSu:  requested number of processors reduced to:  18 ShMem   1 Linda.
 NMat=     1 NSing=     1 JSym2X= 2.
 CoulSu:  requested number of processors reduced to:  18 ShMem   1 Linda.
 NMat=     1 NSing=     1 JSym2X= 2.
 CoulSu:  requested number of processors reduced to:  18 ShMem   1 Linda.
 NMat=     1 NSing=     1 JSym2X= 2.
 CoulSu:  requested number of processors reduced to:  18 ShMem   1 Linda.
 NMat=     1 NSing=     1 JSym2X= 2.
 CoulSu:  requested number of processors reduced to:  18 ShMem   1 Linda.
 NMat=     1 NSing=     1 JSym2X= 2.
 CoulSu:  requested number of processors reduced to:  18 ShMem   1 Linda.
 NMat=     1 NSing=     1 JSym2X= 2.
 CoulSu:  requested number of processors reduced to:  18 ShMem   1 Linda.
 NMat=     1 NSing=     1 JSym2X= 2.
 CoulSu:  requested number of processors reduced to:  18 ShMem   1 Linda.
 NMat=     1 NSing=     1 JSym2X= 2.
 CoulSu:  requested number of processors reduced to:  18 ShMem   1 Linda.
 NMat=     1 NSing=     1 JSym2X= 2.
 CoulSu:  requested number of processors reduced to:  18 ShMem   1 Linda.
 NMat=     1 NSing=     1 JSym2X= 2.
 CoulSu:  requested number of processors reduced to:  18 ShMem   1 Linda.
 NMat=     1 NSing=     1 JSym2X= 2.
 CoulSu:  requested number of processors reduced to:  18 ShMem   1 Linda.
 NMat=     1 NSing=     1 JSym2X= 2.
 CoulSu:  requested number of processors reduced to:  18 ShMem   1 Linda.
 NMat=     1 NSing=     1 JSym2X= 2.
 CoulSu:  requested number of processors reduced to:  18 ShMem   1 Linda.
 NMat=     1 NSing=     1 JSym2X= 2.
 CoulSu:  requested number of processors reduced to:  18 ShMem   1 Linda.
 NMat=     1 NSing=     1 JSym2X= 2.
 CoulSu:  requested number of processors reduced to:  18 ShMem   1 Linda.
 NMat=     1 NSing=     1 JSym2X= 2.
 CoulSu:  requested number of processors reduced to:  18 ShMem   1 Linda.
 NMat=     1 NSing=     1 JSym2X= 2.
 CoulSu:  requested number of processors reduced to:  18 ShMem   1 Linda.
 DSYEVD-2 returned Info=          97 IAlg= 4 N=    48 NDim=    48 NE2=     2017536 trying  DSYEV.
 Root      1 not converged, maximum delta is    0.041883361730664
 Excitation Energies [eV] at current iteration:
 Root      1 :     2.847136837583322   Change is   -0.264818069338067
 Root      2 :     2.847497321319640   Change is   -0.264679755657091
 Root      3 :     3.973568634989454   Change is   -0.025128550729918
 Root      4 :     4.434561100791155   Change is   -0.521584453122282
 Root      5 :     4.434561100791255   Change is   -0.521584453122381
 Root      6 :     4.735611691635139   Change is   -1.803963788038516
 Root      7 :     4.824816213900338   Change is   -0.340288127962026
 Root      8 :     4.824816213900642   Change is   -0.340288127961999
 Root      9 :     7.197376951048373   Change is   -0.539175083190755
 Root     10 :     7.197376951048595   Change is   -0.539175083191403
 Root     11 :     7.438806975931935   Change is   -1.106770609283108
 Root     12 :     8.331725670873833   Change is   -0.236637332835321
 Root     13 :     8.331725670873972   Change is   -0.236637332835280
 Root     14 :     8.924212640202043   Change is   -0.345022429335192
 Root     15 :     8.924212640202148   Change is   -0.345022429335282
 Root     16 :     9.188085196712066   Change is   -0.217227591796897
 Root     17 :     9.188589255829458   Change is   -0.217919103660044
 Root     18 :     9.499784202415338   Change is   -0.100852111391117
 Root     19 :     9.534787960186323   Change is   -0.245090017782360
 Root     20 :     9.534787960186877   Change is   -0.245090017782543
 Root     21 :     9.684311507720343   Change is   -0.359979385476347
 Root     22 :    10.266088242872480   Change is   -0.275888270028529
 Root     23 :    10.266088242873130   Change is   -0.275888270028303
 Root     24 :    11.169537257368520   Change is   -5.357685017034249
 Iteration     3 Dimension    51 NMult    48 NNew      3
 Estimated number of processors is:   20
 CISAX will form     1 AO SS matrices at one time.
 NMat=     1 NSing=     1 JSym2X= 2.
 CoulSu:  requested number of processors reduced to:  18 ShMem   1 Linda.
 NMat=     1 NSing=     1 JSym2X= 2.
 CoulSu:  requested number of processors reduced to:  18 ShMem   1 Linda.
 NMat=     1 NSing=     1 JSym2X= 2.
 CoulSu:  requested number of processors reduced to:  18 ShMem   1 Linda.
 Root      1 not converged, maximum delta is    0.010240460267035
 Excitation Energies [eV] at current iteration:
 Root      1 :     2.838163745597909   Change is   -0.008973091985413
 Root      2 :     2.838528085259647   Change is   -0.008969236059994
 Root      3 :     3.973552622271487   Change is   -0.000016012717967
 Iteration     4 Dimension    54 NMult    51 NNew      3
 Estimated number of processors is:   20
 CISAX will form     1 AO SS matrices at one time.
 NMat=     1 NSing=     1 JSym2X= 2.
 CoulSu:  requested number of processors reduced to:  18 ShMem   1 Linda.
 NMat=     1 NSing=     1 JSym2X= 2.
 CoulSu:  requested number of processors reduced to:  18 ShMem   1 Linda.
 NMat=     1 NSing=     1 JSym2X= 2.
 CoulSu:  requested number of processors reduced to:  18 ShMem   1 Linda.
 DSYEVD-2 returned Info=         109 IAlg= 4 N=    54 NDim=    54 NE2=     1793366 trying  DSYEV.
 Root      1 not converged, maximum delta is    0.001520287978232
 Excitation Energies [eV] at current iteration:
 Root      1 :     2.838051300920581   Change is   -0.000112444677328
 Root      2 :     2.838415161132191   Change is   -0.000112924127456
 Root      3 :     3.973552598283434   Change is   -0.000000023988053
 Iteration     5 Dimension    56 NMult    54 NNew      2
 Estimated number of processors is:   20
 CISAX will form     1 AO SS matrices at one time.
 NMat=     1 NSing=     1 JSym2X= 2.
 CoulSu:  requested number of processors reduced to:  18 ShMem   1 Linda.
 NMat=     1 NSing=     1 JSym2X= 2.
 CoulSu:  requested number of processors reduced to:  18 ShMem   1 Linda.
 Root      1 has converged.
 Excitation Energies [eV] at current iteration:
 Root      1 :     2.838049780223048   Change is   -0.000001520697533
 Root      2 :     2.838413627148506   Change is   -0.000001533983685
 Root      3 :     3.973552598283425   Change is   -0.000000000000009
 Convergence achieved on expansion vectors.
 ***********************************************************************
 Stability analysis using <AA,BB:AA,BB> singles matrix:
 ***********************************************************************
 1PDM for each excited state written to RWF  633
 Ground to excited state transition densities written to RWF  633

 Eigenvectors of the stability matrix:
 
 Excited state symmetry could not be determined.
 Eigenvector   1:  3.008-?Sym  Eigenvalue= 0.1042964  <S**2>=2.012
     14B -> 16B        0.63399
     14B -> 17B       -0.30221
     15B -> 16B        0.30221
     15B -> 17B        0.63399
 The wavefunction is stable under the perturbations considered.
 Leave Link  914 at Sat Apr 17 05:07:31 2021, MaxMem=   104857600 cpu:            4723.9 elap:             122.2
 (Enter /s/ls4/users/knvvv/bin/g16sse/l508.exe)
 The wavefunction is already stable.
 Leave Link  508 at Sat Apr 17 05:07:31 2021, MaxMem=   104857600 cpu:               2.2 elap:               0.1
 (Enter /s/ls4/users/knvvv/bin/g16sse/l601.exe)
 Copying SCF densities to generalized density rwf, IOpCl= 1 IROHF=0.

 **********************************************************************

            Population analysis using the SCF density.

 **********************************************************************

 Orbital symmetries:
 Alpha Orbitals:
       Occupied  (SGG) (SGU) (SGG) (SGU) (PIU) (PIU) (PIG) (PIG)
                 (SGG) (SGU) (SGG) (SGU) (SGG) (PIU) (PIU) (PIG)
                 (PIG)
       Virtual   (SGU) (SGG) (SGU) (PIU) (PIU) (SGG) (DLTG) (DLTG)
                 (PIG) (PIG) (PIU) (PIU) (DLTU) (DLTU) (SGU) (SGG)
                 (PIG) (PIG) (SGU) (SGG) (PIU) (PIU) (DLTG) (DLTG)
                 (PIU) (PIU) (PHIU) (PHIU) (DLTG) (DLTG) (DLTU)
                 (DLTU) (PIG) (PIG) (SGG) (PIG) (PIG) (PHIG) (PHIG)
                 (SGU) (SGU) (PIU) (PIU) (DLTU) (DLTU) (SGU) (SGG)
                 (PIG) (PIG) (SGG) (SGU) (DLTG) (DLTG) (PIU) (PIU)
                 (DLTU) (DLTU) (SGG) (PIU) (PIU) (DLTG) (DLTG)
                 (PHIU) (PHIU) (PIG) (PIG) (?A) (?A) (?B) (?B)
                 (SGG) (PHIU) (PHIU) (PHIG) (PHIG) (SGU) (DLTG)
                 (DLTG) (PHIG) (PHIG) (DLTU) (DLTU) (SGU) (PIG)
                 (PIG) (PIU) (PIU) (SGU) (SGG) (PIG) (PIG) (DLTU)
                 (DLTU) (PIU) (PIU) (SGG) (PIG) (PIG) (SGU) (SGG)
                 (SGU) (DLTG) (DLTG) (DLTU) (DLTU) (PIU) (PIU)
                 (PIG) (PIG) (SGG) (SGU) (SGG) (SGU) (PIU) (PIU)
                 (PIG) (PIG) (SGG) (SGU) (SGG) (SGU) (SGG) (SGU)
 Beta  Orbitals:
       Occupied  (SGG) (SGU) (SGG) (SGU) (SGG) (SGU) (PIU) (PIU)
                 (PIG) (PIG) (SGG) (SGU) (SGG) (PIU) (PIU)
       Virtual   (PIG) (PIG) (SGU) (SGG) (SGU) (PIU) (PIU) (SGG)
                 (PIG) (PIG) (DLTG) (DLTG) (PIU) (PIU) (DLTU) (DLTU)
                 (SGU) (SGG) (PIG) (PIG) (SGU) (SGG) (PIU) (PIU)
                 (DLTG) (DLTG) (PHIU) (PHIU) (PIU) (PIU) (DLTG)
                 (DLTG) (DLTU) (DLTU) (SGG) (PIG) (PIG) (PIG) (PIG)
                 (PHIG) (PHIG) (SGU) (SGU) (PIU) (PIU) (DLTU) (DLTU)
                 (SGU) (SGG) (PIG) (PIG) (SGG) (SGU) (DLTG) (DLTG)
                 (PIU) (PIU) (SGG) (DLTU) (DLTU) (PIU) (PIU) (DLTG)
                 (DLTG) (PHIU) (PHIU) (PIG) (PIG) (?A) (?A) (?B)
                 (?B) (SGG) (PHIG) (PHIG) (SGU) (PHIU) (PHIU) (DLTG)
                 (DLTG) (PHIG) (PHIG) (DLTU) (DLTU) (SGU) (PIG)
                 (PIG) (PIU) (PIU) (SGG) (SGU) (PIG) (PIG) (DLTU)
                 (DLTU) (PIU) (PIU) (SGG) (PIG) (PIG) (SGU) (SGG)
                 (SGU) (DLTG) (DLTG) (PIU) (PIU) (DLTU) (DLTU)
                 (PIG) (PIG) (SGG) (SGU) (SGG) (SGU) (PIU) (PIU)
                 (PIG) (PIG) (SGG) (SGU) (SGG) (SGU) (SGG) (SGU)
 The electronic state is 3-SGG.
 Alpha  occ. eigenvalues --  -89.96188 -89.96188  -8.31161  -8.31138  -6.23636
 Alpha  occ. eigenvalues --   -6.23636  -6.23631  -6.23631  -6.23191  -6.23121
 Alpha  occ. eigenvalues --   -0.92804  -0.71592  -0.45782  -0.44151  -0.44151
 Alpha  occ. eigenvalues --   -0.30030  -0.30030
 Alpha virt. eigenvalues --    0.02151   0.14730   0.15643   0.16723   0.16723
 Alpha virt. eigenvalues --    0.19523   0.22110   0.22112   0.23485   0.23485
 Alpha virt. eigenvalues --    0.24784   0.24784   0.35201   0.35205   0.38611
 Alpha virt. eigenvalues --    0.46731   0.54401   0.54401   0.62889   0.85642
 Alpha virt. eigenvalues --    0.85941   0.85941   0.91682   0.91685   0.94919
 Alpha virt. eigenvalues --    0.94919   0.97542   0.97542   0.98118   0.98119
 Alpha virt. eigenvalues --    0.99637   0.99638   1.01579   1.01579   1.02562
 Alpha virt. eigenvalues --    1.08772   1.08772   1.12615   1.12615   1.12959
 Alpha virt. eigenvalues --    1.25126   1.30725   1.30725   1.37913   1.37918
 Alpha virt. eigenvalues --    1.40488   1.44470   1.73527   1.73527   1.83169
 Alpha virt. eigenvalues --    2.24837   2.49394   2.49403   2.56217   2.56217
 Alpha virt. eigenvalues --    2.62402   2.62412   2.62573   2.68126   2.68126
 Alpha virt. eigenvalues --    2.70822   2.70823   2.72413   2.72413   2.76650
 Alpha virt. eigenvalues --    2.76650   2.86234   2.86235   2.92538   2.92539
 Alpha virt. eigenvalues --    2.96106   3.03931   3.03931   3.05116   3.05116
 Alpha virt. eigenvalues --    3.11263   3.12267   3.12272   3.16113   3.16113
 Alpha virt. eigenvalues --    3.18462   3.18470   3.34066   3.34335   3.34335
 Alpha virt. eigenvalues --    3.40182   3.40182   3.50926   3.51706   3.54430
 Alpha virt. eigenvalues --    3.54430   3.63185   3.63189   3.64053   3.64053
 Alpha virt. eigenvalues --    4.03968   4.36182   4.36182   5.55716   6.81399
 Alpha virt. eigenvalues --    7.24382   8.58591   8.58591   8.64268   8.64269
 Alpha virt. eigenvalues --    8.65082   8.65082   8.87013   8.87013   9.10836
 Alpha virt. eigenvalues --    9.14831  23.78284  24.30675  28.82333  28.82333
 Alpha virt. eigenvalues --   28.87559  28.87559  28.92932  29.51625  83.54037
 Alpha virt. eigenvalues --   84.04652 448.91836 449.77512
  Beta  occ. eigenvalues --  -89.95150 -89.95150  -8.30829  -8.30799  -6.22888
  Beta  occ. eigenvalues --   -6.22817  -6.22018  -6.22018  -6.22012  -6.22012
  Beta  occ. eigenvalues --   -0.89207  -0.64825  -0.42768  -0.37857  -0.37857
  Beta virt. eigenvalues --   -0.10469  -0.10469   0.02744   0.14037   0.15729
  Beta virt. eigenvalues --    0.15842   0.15842   0.18053   0.21368   0.21368
  Beta virt. eigenvalues --    0.23441   0.23441   0.27420   0.27420   0.37978
  Beta virt. eigenvalues --    0.37979   0.39122   0.47845   0.55284   0.55284
  Beta virt. eigenvalues --    0.62774   0.84539   0.85838   0.85838   0.92339
  Beta virt. eigenvalues --    0.92339   0.97873   0.97873   0.98251   0.98251
  Beta virt. eigenvalues --    0.99401   0.99401   1.01049   1.01049   1.03330
  Beta virt. eigenvalues --    1.04063   1.04063   1.09613   1.09613   1.13367
  Beta virt. eigenvalues --    1.13367   1.13799   1.25390   1.31284   1.31284
  Beta virt. eigenvalues --    1.38165   1.38166   1.40864   1.47802   1.72977
  Beta virt. eigenvalues --    1.72977   1.83384   2.26913   2.53621   2.53622
  Beta virt. eigenvalues --    2.58654   2.58654   2.63879   2.65286   2.65287
  Beta virt. eigenvalues --    2.68855   2.68855   2.71678   2.71679   2.74953
  Beta virt. eigenvalues --    2.74953   2.77869   2.77869   2.90002   2.90005
  Beta virt. eigenvalues --    2.96446   2.96449   2.98368   3.09714   3.09714
  Beta virt. eigenvalues --    3.12557   3.12922   3.12922   3.17717   3.17718
  Beta virt. eigenvalues --    3.23325   3.23325   3.23785   3.23786   3.36954
  Beta virt. eigenvalues --    3.37623   3.37623   3.43633   3.43633   3.52338
  Beta virt. eigenvalues --    3.53262   3.58602   3.58602   3.65454   3.65456
  Beta virt. eigenvalues --    3.67802   3.67802   4.07187   4.37478   4.37478
  Beta virt. eigenvalues --    5.56385   6.85959   7.29843   8.64543   8.64545
  Beta virt. eigenvalues --    8.68503   8.68503   8.70446   8.70448   8.91221
  Beta virt. eigenvalues --    8.91221   9.14060   9.17620  23.85815  24.38646
  Beta virt. eigenvalues --   28.87471  28.87471  28.92717  28.92717  28.94357
  Beta virt. eigenvalues --   29.53277  83.57105  84.07901 448.91019 449.76732
          Condensed to atoms (all electrons):
               1          2
     1  S   15.592443   0.407557
     2  S    0.407557  15.592443
          Atomic-Atomic Spin Densities.
               1          2
     1  S    1.285932  -0.285932
     2  S   -0.285932   1.285932
 Mulliken charges and spin densities:
               1          2
     1  S   -0.000000   1.000000
     2  S   -0.000000   1.000000
 Sum of Mulliken charges =  -0.00000   2.00000
 Mulliken charges and spin densities with hydrogens summed into heavy atoms:
               1          2
     1  S   -0.000000   1.000000
     2  S   -0.000000   1.000000
 Electronic spatial extent (au):  <R**2>=            160.3401
 Charge=             -0.0000 electrons
 Dipole moment (field-independent basis, Debye):
    X=             -0.0000    Y=             -0.0000    Z=              0.0000  Tot=              0.0000
 Quadrupole moment (field-independent basis, Debye-Ang):
   XX=            -25.9300   YY=            -25.9300   ZZ=            -23.9136
   XY=             -0.0000   XZ=              0.0000   YZ=              0.0000
 Traceless Quadrupole moment (field-independent basis, Debye-Ang):
   XX=             -0.6721   YY=             -0.6721   ZZ=              1.3443
   XY=             -0.0000   XZ=              0.0000   YZ=              0.0000
 Octapole moment (field-independent basis, Debye-Ang**2):
  XXX=             -0.0000  YYY=              0.0000  ZZZ=             -0.0000  XYY=             -0.0000
  XXY=             -0.0000  XXZ=              0.0000  XZZ=             -0.0000  YZZ=             -0.0000
  YYZ=             -0.0000  XYZ=             -0.0000
 Hexadecapole moment (field-independent basis, Debye-Ang**3):
 XXXX=            -34.5298 YYYY=            -34.5298 ZZZZ=           -160.0559 XXXY=             -0.0000
 XXXZ=              0.0000 YYYX=             -0.0000 YYYZ=              0.0000 ZZZX=              0.0000
 ZZZY=              0.0000 XXYY=            -11.5099 XXZZ=            -34.6589 YYZZ=            -34.6589
 XXYZ=              0.0000 YYXZ=              0.0000 ZZXY=             -0.0000
 N-N= 7.100016519553D+01 E-N=-2.036207639720D+03  KE= 7.952196988651D+02
                          Isotropic Fermi Contact Couplings
        Atom                 a.u.       MegaHertz       Gauss      10(-4) cm-1
     1  S(33)              0.05880      10.09837       3.60335       3.36846
     2  S(33)              0.05880      10.09837       3.60335       3.36846
 PrsmSu:  requested number of processors reduced to:  21 ShMem   1 Linda.
 --------------------------------------------------------
       Center         ----  Spin Dipole Couplings  ----
                      3XX-RR        3YY-RR        3ZZ-RR
 --------------------------------------------------------
     1   Atom        1.335724      1.335724     -2.671448
     2   Atom        1.335724      1.335724     -2.671448
 --------------------------------------------------------
                        XY            XZ            YZ
 --------------------------------------------------------
     1   Atom        0.000000     -0.000000      0.000000
     2   Atom        0.000000     -0.000000      0.000000
 --------------------------------------------------------


 ---------------------------------------------------------------------------------
              Anisotropic Spin Dipole Couplings in Principal Axis System
 ---------------------------------------------------------------------------------

       Atom             a.u.   MegaHertz   Gauss  10(-4) cm-1        Axes

              Baa    -2.6714  -109.527   -39.082   -36.534  0.0000  0.0000  1.0000
     1 S(33)  Bbb     1.3357    54.763    19.541    18.267  0.0000  1.0000  0.0000
              Bcc     1.3357    54.763    19.541    18.267  1.0000  0.0000  0.0000
 
              Baa    -2.6714  -109.527   -39.082   -36.534  0.0000  0.0000  1.0000
     2 S(33)  Bbb     1.3357    54.763    19.541    18.267  0.0000  1.0000  0.0000
              Bcc     1.3357    54.763    19.541    18.267  1.0000  0.0000  0.0000
 

 ---------------------------------------------------------------------------------

 PrsmSu:  requested number of processors reduced to:  21 ShMem   1 Linda.
 No NMR shielding tensors so no spin-rotation constants.
 Leave Link  601 at Sat Apr 17 05:07:37 2021, MaxMem=   104857600 cpu:             262.9 elap:               5.9
 (Enter /s/ls4/users/knvvv/bin/g16sse/l9999.exe)

 Test job not archived.
 1\1\GINC-N178\Stability\UM062X\def2QZVP\S2(3)\KNVVV\17-Apr-2021\0\\#P 
 M062X/Def2QZVP Integral=UltraFineGrid SCF=NoSymm Stable=(RExt, Opt) IO
 p(1/33=1)\\Database calculations.\\0,3\S,0,0.,0.,-0.9540074\S,0,0.,0.,
 0.9540074\\Version=ES64L-G16RevA.03\State=3-SGG\HF=-796.3823748\S2=2.0
 12741\S2-1=0.\S2A=2.000076\RMSD=3.686e-09\Dipole=0.,0.,0.\Quadrupole=-
 0.4997149,-0.4997149,0.9994299,0.,0.,0.\PG=D*H [C*(S1.S1)]\\@


 BULLDOZER: SOMEONE WHO SLEEPS THROUGH SPEECHES.
 Job cpu time:       0 days  4 hours  0 minutes  7.0 seconds.
 Elapsed time:       0 days  0 hours  5 minutes 29.6 seconds.
 File lengths (MBytes):  RWF=    124 Int=      0 D2E=      0 Chk=      5 Scr=      1
 Normal termination of Gaussian 16 at Sat Apr 17 05:07:37 2021.
