 Entering Gaussian System, Link 0=/s/ls4/users/knvvv/bin/g16sse/g16
 Input=data/database/M062X--ma-TZVP--CH3_ABDE13.gjf
 Output=data/database/M062X--ma-TZVP--CH3_ABDE13.log
 Initial command:
 /s/ls4/users/knvvv/bin/g16sse/l1.exe "/s/ls4/users/knvvv/bin/scratch/Gau-46865.inp" -scrdir="/s/ls4/users/knvvv/bin/scratch/"
 Entering Link 1 = /s/ls4/users/knvvv/bin/g16sse/l1.exe PID=     46866.
  
 Copyright (c) 1988,1990,1992,1993,1995,1998,2003,2009,2016,
            Gaussian, Inc.  All Rights Reserved.
  
 This is part of the Gaussian(R) 16 program.  It is based on
 the Gaussian(R) 09 system (copyright 2009, Gaussian, Inc.),
 the Gaussian(R) 03 system (copyright 2003, Gaussian, Inc.),
 the Gaussian(R) 98 system (copyright 1998, Gaussian, Inc.),
 the Gaussian(R) 94 system (copyright 1995, Gaussian, Inc.),
 the Gaussian 92(TM) system (copyright 1992, Gaussian, Inc.),
 the Gaussian 90(TM) system (copyright 1990, Gaussian, Inc.),
 the Gaussian 88(TM) system (copyright 1988, Gaussian, Inc.),
 the Gaussian 86(TM) system (copyright 1986, Carnegie Mellon
 University), and the Gaussian 82(TM) system (copyright 1983,
 Carnegie Mellon University). Gaussian is a federally registered
 trademark of Gaussian, Inc.
  
 This software contains proprietary and confidential information,
 including trade secrets, belonging to Gaussian, Inc.
  
 This software is provided under written license and may be
 used, copied, transmitted, or stored only in accord with that
 written license.
  
 The following legend is applicable only to US Government
 contracts under FAR:
  
                    RESTRICTED RIGHTS LEGEND
  
 Use, reproduction and disclosure by the US Government is
 subject to restrictions as set forth in subparagraphs (a)
 and (c) of the Commercial Computer Software - Restricted
 Rights clause in FAR 52.227-19.
  
 Gaussian, Inc.
 340 Quinnipiac St., Bldg. 40, Wallingford CT 06492
  
  
 ---------------------------------------------------------------
 Warning -- This program may not be used in any manner that
 competes with the business of Gaussian, Inc. or will provide
 assistance to any competitor of Gaussian, Inc.  The licensee
 of this program is prohibited from giving any competitor of
 Gaussian, Inc. access to this program.  By using this program,
 the user acknowledges that Gaussian, Inc. is engaged in the
 business of creating and licensing software in the field of
 computational chemistry and represents and warrants to the
 licensee that it is not a competitor of Gaussian, Inc. and that
 it will not use this program in any manner prohibited above.
 ---------------------------------------------------------------
  

 Cite this work as:
 Gaussian 16, Revision A.03,
 M. J. Frisch, G. W. Trucks, H. B. Schlegel, G. E. Scuseria, 
 M. A. Robb, J. R. Cheeseman, G. Scalmani, V. Barone, 
 G. A. Petersson, H. Nakatsuji, X. Li, M. Caricato, A. V. Marenich, 
 J. Bloino, B. G. Janesko, R. Gomperts, B. Mennucci, H. P. Hratchian, 
 J. V. Ortiz, A. F. Izmaylov, J. L. Sonnenberg, D. Williams-Young, 
 F. Ding, F. Lipparini, F. Egidi, J. Goings, B. Peng, A. Petrone, 
 T. Henderson, D. Ranasinghe, V. G. Zakrzewski, J. Gao, N. Rega, 
 G. Zheng, W. Liang, M. Hada, M. Ehara, K. Toyota, R. Fukuda, 
 J. Hasegawa, M. Ishida, T. Nakajima, Y. Honda, O. Kitao, H. Nakai, 
 T. Vreven, K. Throssell, J. A. Montgomery, Jr., J. E. Peralta, 
 F. Ogliaro, M. J. Bearpark, J. J. Heyd, E. N. Brothers, K. N. Kudin, 
 V. N. Staroverov, T. A. Keith, R. Kobayashi, J. Normand, 
 K. Raghavachari, A. P. Rendell, J. C. Burant, S. S. Iyengar, 
 J. Tomasi, M. Cossi, J. M. Millam, M. Klene, C. Adamo, R. Cammi, 
 J. W. Ochterski, R. L. Martin, K. Morokuma, O. Farkas, 
 J. B. Foresman, and D. J. Fox, Gaussian, Inc., Wallingford CT, 2016.
 
 ******************************************
 Gaussian 16:  ES64L-G16RevA.03 25-Dec-2016
                18-Apr-2021 
 ******************************************
 %RWF=temp12_81689,70GB
 %nprocshared=48
 Will use up to   48 processors via shared memory.
 Default route: MaxDisk=80GB
 ----------------------------------------------------------------------
 #P M062X/GEN Integral=UltraFineGrid SCF=NoSymm Stable=(RExt, Opt) IOp(
 1/33=1)
 ----------------------------------------------------------------------
 1/33=1,38=1,172=1/1;
 2/12=2,17=6,18=5,40=1/2;
 3/5=7,11=2,25=1,30=1,74=-55,75=-5/1,2,3;
 4/9=2/1;
 5/5=2,38=5/2;
 6/7=2,8=2,9=2,10=2,28=1/1;
 8/6=1,10=90,11=11/1;
 9/8=-3,42=1,46=1/14;
 5/5=2,8=3,17=40,38=5/8(-2);
 6/7=2,8=2,9=2,10=2,28=1/1;
 99/5=1,9=1/99;
 Leave Link    1 at Sun Apr 18 08:10:17 2021, MaxMem=           0 cpu:               8.6 elap:               0.2
 (Enter /s/ls4/users/knvvv/bin/g16sse/l101.exe)
 ONIOM data not found on unit 2.
 ----------------------
 Database calculations.
 ----------------------
 TstMul:  ICh=     0
 TstMul:  Mul=     2
 TstMul:  ICh=     0
 TstMul:  Mul=     2
 Symbolic Z-matrix:
 Charge =  0 Multiplicity = 2
 C                    -1.27337   0.7422   -0.2175 
 H                    -0.76591  -0.15654   0.09231 
 H                    -0.76589   1.45986  -0.84092 
 H                    -2.28985   0.92108   0.09231 
 
 RdStrC is calling ZToCFu for IStruc=1 NZ=     4.
 PrtBox:  NBox=     1 Levels=  1 BoxLen=    8.00 SMaxX=        3.05
          Shift=            4.327189            0.295814            1.589105
 Box      1 Number                   0 centers from      1 to      4:
 After GenITR:
 ITRead=  0  0  0  0
 MicOpt= -1 -1 -1 -1
 ITRead=  0  0  0  0
 MicOpt= -1 -1 -1 -1
 NAtoms=      4 NQM=        4 NQMF=       0 NMMI=      0 NMMIF=      0
                NMic=       0 NMicF=      0.
                    Isotopes and Nuclear Properties:
 (Nuclear quadrupole moments (NQMom) in fm**2, nuclear magnetic moments (NMagM)
  in nuclear magnetons)

  Atom         1           2           3           4
 IAtWgt=          12           1           1           1
 AtmWgt=  12.0000000   1.0078250   1.0078250   1.0078250
 NucSpn=           0           1           1           1
 AtZEff=  -0.0000000  -0.0000000  -0.0000000  -0.0000000
 NQMom=    0.0000000   0.0000000   0.0000000   0.0000000
 NMagM=    0.0000000   2.7928460   2.7928460   2.7928460
 AtZNuc=   6.0000000   1.0000000   1.0000000   1.0000000
 No MM parameters found.
 Leave Link  101 at Sun Apr 18 08:10:17 2021, MaxMem=   104857600 cpu:               8.4 elap:               0.2
 (Enter /s/ls4/users/knvvv/bin/g16sse/l202.exe)
                          Input orientation:                          
 ---------------------------------------------------------------------
 Center     Atomic      Atomic             Coordinates (Angstroms)
 Number     Number       Type             X           Y           Z
 ---------------------------------------------------------------------
      1          6           0       -1.273369    0.742196   -0.217501
      2          1           0       -0.765914   -0.156538    0.092307
      3          1           0       -0.765894    1.459855   -0.840918
      4          1           0       -2.289850    0.921076    0.092307
 ---------------------------------------------------------------------
                    Distance matrix (angstroms):
                    1          2          3          4
     1  C    0.000000
     2  H    1.077597   0.000000
     3  H    1.077596   1.866450   0.000000
     4  H    1.077596   1.866449   1.866449   0.000000
 Stoichiometry    CH3(2)
 Framework group  C3V[C3(C),3SGV(H)]
 Deg. of freedom     2
 Full point group                 C3V     NOp   6
 Largest Abelian subgroup         CS      NOp   2
 Largest concise Abelian subgroup CS      NOp   2
                         Standard orientation:                         
 ---------------------------------------------------------------------
 Center     Atomic      Atomic             Coordinates (Angstroms)
 Number     Number       Type             X           Y           Z
 ---------------------------------------------------------------------
      1          6           0       -0.000000   -0.000000    0.000517
      2          1           0        0.000000    1.077595   -0.001034
      3          1           0       -0.933225   -0.538798   -0.001034
      4          1           0        0.933225   -0.538798   -0.001034
 ---------------------------------------------------------------------
 Rotational constants (GHZ):         287.8908926         287.8908926         143.9459232
 Leave Link  202 at Sun Apr 18 08:10:17 2021, MaxMem=   104857600 cpu:              13.2 elap:               0.3
 (Enter /s/ls4/users/knvvv/bin/g16sse/l301.exe)
 General basis read from cards:  (5D, 7F)
 Centers:       2      3      4
 S 3 1.00
     Exponent=  3.4061341000D+01 Coefficients=  6.0251978000D-03
     Exponent=  5.1235746000D+00 Coefficients=  4.5021094000D-02
     Exponent=  1.1646626000D+00 Coefficients=  2.0189726000D-01
 S 1 1.00
     Exponent=  3.2723041000D-01 Coefficients=  1.0000000000D+00
 S 1 1.00
     Exponent=  1.0307241000D-01 Coefficients=  1.0000000000D+00
 P 1 1.00
     Exponent=  8.0000000000D-01 Coefficients=  1.0000000000D+00
 ****
 Centers:       1
 S 6 1.00
     Exponent=  1.3575349682D+04 Coefficients=  2.2245814352D-04
     Exponent=  2.0352333680D+03 Coefficients=  1.7232738252D-03
     Exponent=  4.6322562359D+02 Coefficients=  8.9255715314D-03
     Exponent=  1.3120019598D+02 Coefficients=  3.5727984502D-02
     Exponent=  4.2853015891D+01 Coefficients=  1.1076259931D-01
     Exponent=  1.5584185766D+01 Coefficients=  2.4295627626D-01
 S 2 1.00
     Exponent=  6.2067138508D+00 Coefficients=  4.1440263448D-01
     Exponent=  2.5764896527D+00 Coefficients=  2.3744968655D-01
 S 1 1.00
     Exponent=  5.7696339419D-01 Coefficients=  1.0000000000D+00
 S 1 1.00
     Exponent=  2.2972831358D-01 Coefficients=  1.0000000000D+00
 S 1 1.00
     Exponent=  9.5164440028D-02 Coefficients=  1.0000000000D+00
 S 1 1.00
     Exponent=  3.1721480009D-02 Coefficients=  1.0000000000D+00
 P 4 1.00
     Exponent=  3.4697232244D+01 Coefficients=  5.3333657805D-03
     Exponent=  7.9582622826D+00 Coefficients=  3.5864109092D-02
     Exponent=  2.3780826883D+00 Coefficients=  1.4215873329D-01
     Exponent=  8.1433208183D-01 Coefficients=  3.4270471845D-01
 P 1 1.00
     Exponent=  2.8887547253D-01 Coefficients=  1.0000000000D+00
 P 1 1.00
     Exponent=  1.0056823671D-01 Coefficients=  1.0000000000D+00
 P 1 1.00
     Exponent=  3.3522745570D-02 Coefficients=  1.0000000000D+00
 D 1 1.00
     Exponent=  1.0970000000D+00 Coefficients=  1.0000000000D+00
 D 1 1.00
     Exponent=  3.1800000000D-01 Coefficients=  1.0000000000D+00
 F 1 1.00
     Exponent=  7.6100000000D-01 Coefficients=  1.0000000000D+00
 ****
 Ernie: Thresh=  0.10000D-02 Tol=  0.10000D-05 Strict=F.
 There are    39 symmetry adapted cartesian basis functions of A'  symmetry.
 There are    19 symmetry adapted cartesian basis functions of A"  symmetry.
 There are    35 symmetry adapted basis functions of A'  symmetry.
 There are    18 symmetry adapted basis functions of A"  symmetry.
    53 basis functions,    79 primitive gaussians,    58 cartesian basis functions
     5 alpha electrons        4 beta electrons
       nuclear repulsion energy         9.6898539458 Hartrees.
 IExCor= 4336 DFT=T Ex+Corr=M062X ExCW=0 ScaHFX=  0.540000
 ScaDFX=  1.000000  1.000000  1.000000  1.000000 ScalE2=  1.000000  1.000000
 IRadAn=      5 IRanWt=     -1 IRanGd=            0 ICorTp=0 IEmpDi=  4
 NAtoms=    4 NActive=    4 NUniq=    2 SFac= 4.00D+00 NAtFMM=   60 NAOKFM=F Big=F
 Integral buffers will be    131072 words long.
 Raffenetti 2 integral format.
 Two-electron integral symmetry is turned on.
 Leave Link  301 at Sun Apr 18 08:10:17 2021, MaxMem=   104857600 cpu:               6.6 elap:               0.2
 (Enter /s/ls4/users/knvvv/bin/g16sse/l302.exe)
 NPDir=0 NMtPBC=     1 NCelOv=     1 NCel=       1 NClECP=     1 NCelD=      1
         NCelK=      1 NCelE2=     1 NClLst=     1 CellRange=     0.0.
 One-electron integrals computed using PRISM.
 One-electron integral symmetry used in STVInt
 PrsmSu:  requested number of processors reduced to:  13 ShMem   1 Linda.
 NBasis=    53 RedAO= T EigKep=  3.42D-03  NBF=    35    18
 NBsUse=    53 1.00D-06 EigRej= -1.00D+00 NBFU=    35    18
 Precomputing XC quadrature grid using
 IXCGrd= 4 IRadAn=           5 IRanWt=          -1 IRanGd=           0 AccXCQ= 0.00D+00.
 Generated NRdTot=       0 NPtTot=           0 NUsed=           0 NTot=          32
 NSgBfM=    58    58    58    58    58 MxSgAt=     4 MxSgA2=     4.
 Leave Link  302 at Sun Apr 18 08:10:19 2021, MaxMem=   104857600 cpu:              63.1 elap:               1.4
 (Enter /s/ls4/users/knvvv/bin/g16sse/l303.exe)
 DipDrv:  MaxL=1.
 Leave Link  303 at Sun Apr 18 08:10:19 2021, MaxMem=   104857600 cpu:              12.5 elap:               0.3
 (Enter /s/ls4/users/knvvv/bin/g16sse/l401.exe)
 SCF N**3 symmetry information disabled.
 ExpMin= 3.17D-02 ExpMax= 1.36D+04 ExpMxC= 4.63D+02 IAcc=3 IRadAn=         5 AccDes= 0.00D+00
 Harris functional with IExCor= 1009 and IRadAn=       5 diagonalized for initial guess.
 HarFok:  IExCor= 1009 AccDes= 0.00D+00 IRadAn=         5 IDoV= 1 UseB2=F ITyADJ=14
 ICtDFT=  3500011 ScaDFX=  1.000000  1.000000  1.000000  1.000000
 FoFCou: FMM=F IPFlag=           0 FMFlag=      100000 FMFlg1=           0
         NFxFlg=           0 DoJE=T BraDBF=F KetDBF=T FulRan=T
         wScrn=  0.000000 ICntrl=       500 IOpCl=  0 I1Cent=   200000004 NGrid=           0
         NMat0=    1 NMatS0=      1 NMatT0=    0 NMatD0=    1 NMtDS0=    0 NMtDT0=    0
 Petite list used in FoFCou.
 Harris En= -39.8073386494686    
 JPrj=0 DoOrth=F DoCkMO=F.
 Initial guess orbital symmetries:
 Alpha Orbitals:
       Occupied  (A1) (A1) (E) (E) (A1)
       Virtual   (A1) (E) (E) (A1) (E) (E) (A1) (E) (E) (A1) (A1)
                 (E) (E) (A1) (E) (E) (A1) (E) (E) (A1) (A1) (A2)
                 (E) (E) (A1) (E) (E) (A1) (E) (E) (E) (E) (A1)
                 (E) (E) (E) (E) (A1) (E) (E) (E) (E) (A1) (A2)
                 (E) (E) (A1) (A1)
 Beta  Orbitals:
       Occupied  (A1) (A1) (E) (E)
       Virtual   (A1) (A1) (E) (E) (A1) (E) (E) (A1) (E) (E) (A1)
                 (A1) (E) (E) (A1) (E) (E) (A1) (E) (E) (A1) (A1)
                 (A2) (E) (E) (A1) (E) (E) (A1) (E) (E) (E) (E)
                 (A1) (E) (E) (E) (E) (A1) (E) (E) (E) (E) (A1)
                 (A2) (E) (E) (A1) (A1)
 The electronic state of the initial guess is 2-A1.
 Initial guess <Sx>= 0.0000 <Sy>= 0.0000 <Sz>= 0.5000 <S**2>= 0.7500 S= 0.5000
 Leave Link  401 at Sun Apr 18 08:10:21 2021, MaxMem=   104857600 cpu:              99.7 elap:               2.1
 (Enter /s/ls4/users/knvvv/bin/g16sse/l502.exe)
 Keep R1 and R2 ints in memory in symmetry-blocked form, NReq=43307515.
 FoFCou: FMM=F IPFlag=           0 FMFlag=           0 FMFlg1=           0
         NFxFlg=           0 DoJE=F BraDBF=F KetDBF=F FulRan=T
         wScrn=  0.000000 ICntrl=       600 IOpCl=  0 I1Cent=           0 NGrid=           0
         NMat0=    1 NMatS0=   1431 NMatT0=    0 NMatD0=    1 NMtDS0=    0 NMtDT0=    0
 Petite list used in FoFCou.
 UHF open shell SCF:
 Using DIIS extrapolation, IDIIS=  1040.
 NGot=   104857600 LenX=   103803727 LenY=   103799922
 Requested convergence on RMS density matrix=1.00D-08 within 128 cycles.
 Requested convergence on MAX density matrix=1.00D-06.
 Requested convergence on             energy=1.00D-06.
 No special actions if energy rises.

 Cycle   1  Pass 1  IDiag  1:
 E= -39.7769741296709    
 DIIS: error= 4.47D-02 at cycle   1 NSaved=   1.
 NSaved= 1 IEnMin= 1 EnMin= -39.7769741296709     IErMin= 1 ErrMin= 4.47D-02
 ErrMax= 4.47D-02  0.00D+00 EMaxC= 1.00D-01 BMatC= 1.84D-01 BMatP= 1.84D-01
 IDIUse=3 WtCom= 5.53D-01 WtEn= 4.47D-01
 Coeff-Com:  0.100D+01
 Coeff-En:   0.100D+01
 Coeff:      0.100D+01
 Gap=     0.237 Goal=   None    Shift=    0.000
 Gap=     0.499 Goal=   None    Shift=    0.000
 GapD=    0.237 DampG=1.000 DampE=0.500 DampFc=0.5000 IDamp=-1.
 Damping current iteration by 5.00D-01
 RMSDP=4.04D-03 MaxDP=7.93D-02              OVMax= 1.42D-01

 Cycle   2  Pass 1  IDiag  1:
 E= -39.8022567834498     Delta-E=       -0.025282653779 Rises=F Damp=T
 DIIS: error= 9.33D-03 at cycle   2 NSaved=   2.
 NSaved= 2 IEnMin= 2 EnMin= -39.8022567834498     IErMin= 2 ErrMin= 9.33D-03
 ErrMax= 9.33D-03  0.00D+00 EMaxC= 1.00D-01 BMatC= 1.04D-02 BMatP= 1.84D-01
 IDIUse=3 WtCom= 9.07D-01 WtEn= 9.33D-02
 Coeff-Com: -0.165D+00 0.117D+01
 Coeff-En:   0.000D+00 0.100D+01
 Coeff:     -0.150D+00 0.115D+01
 Gap=     0.302 Goal=   None    Shift=    0.000
 Gap=     0.436 Goal=   None    Shift=    0.000
 RMSDP=9.62D-04 MaxDP=1.64D-02 DE=-2.53D-02 OVMax= 6.76D-02

 Cycle   3  Pass 1  IDiag  1:
 E= -39.8239920316699     Delta-E=       -0.021735248220 Rises=F Damp=F
 DIIS: error= 1.49D-03 at cycle   3 NSaved=   3.
 NSaved= 3 IEnMin= 3 EnMin= -39.8239920316699     IErMin= 3 ErrMin= 1.49D-03
 ErrMax= 1.49D-03  0.00D+00 EMaxC= 1.00D-01 BMatC= 1.71D-04 BMatP= 1.04D-02
 IDIUse=3 WtCom= 9.85D-01 WtEn= 1.49D-02
 Coeff-Com: -0.538D-02-0.153D-01 0.102D+01
 Coeff-En:   0.000D+00 0.000D+00 0.100D+01
 Coeff:     -0.530D-02-0.150D-01 0.102D+01
 Gap=     0.304 Goal=   None    Shift=    0.000
 Gap=     0.433 Goal=   None    Shift=    0.000
 RMSDP=1.37D-04 MaxDP=2.38D-03 DE=-2.17D-02 OVMax= 4.36D-03

 Cycle   4  Pass 1  IDiag  1:
 E= -39.8240854540263     Delta-E=       -0.000093422356 Rises=F Damp=F
 DIIS: error= 4.61D-04 at cycle   4 NSaved=   4.
 NSaved= 4 IEnMin= 4 EnMin= -39.8240854540263     IErMin= 4 ErrMin= 4.61D-04
 ErrMax= 4.61D-04  0.00D+00 EMaxC= 1.00D-01 BMatC= 2.50D-05 BMatP= 1.71D-04
 IDIUse=3 WtCom= 9.95D-01 WtEn= 4.61D-03
 Coeff-Com:  0.349D-02-0.115D-01-0.464D+00 0.147D+01
 Coeff-En:   0.000D+00 0.000D+00 0.000D+00 0.100D+01
 Coeff:      0.348D-02-0.115D-01-0.462D+00 0.147D+01
 Gap=     0.305 Goal=   None    Shift=    0.000
 Gap=     0.433 Goal=   None    Shift=    0.000
 RMSDP=8.28D-05 MaxDP=1.33D-03 DE=-9.34D-05 OVMax= 2.27D-03

 Cycle   5  Pass 1  IDiag  1:
 E= -39.8241046485834     Delta-E=       -0.000019194557 Rises=F Damp=F
 DIIS: error= 1.16D-04 at cycle   5 NSaved=   5.
 NSaved= 5 IEnMin= 5 EnMin= -39.8241046485834     IErMin= 5 ErrMin= 1.16D-04
 ErrMax= 1.16D-04  0.00D+00 EMaxC= 1.00D-01 BMatC= 8.87D-07 BMatP= 2.50D-05
 IDIUse=3 WtCom= 9.99D-01 WtEn= 1.16D-03
 Coeff-Com: -0.160D-02 0.514D-02 0.672D-01-0.372D+00 0.130D+01
 Coeff-En:   0.000D+00 0.000D+00 0.000D+00 0.000D+00 0.100D+01
 Coeff:     -0.160D-02 0.514D-02 0.671D-01-0.372D+00 0.130D+01
 Gap=     0.305 Goal=   None    Shift=    0.000
 Gap=     0.433 Goal=   None    Shift=    0.000
 RMSDP=1.86D-05 MaxDP=3.43D-04 DE=-1.92D-05 OVMax= 4.84D-04

 Cycle   6  Pass 1  IDiag  1:
 E= -39.8241052978613     Delta-E=       -0.000000649278 Rises=F Damp=F
 DIIS: error= 1.33D-05 at cycle   6 NSaved=   6.
 NSaved= 6 IEnMin= 6 EnMin= -39.8241052978613     IErMin= 6 ErrMin= 1.33D-05
 ErrMax= 1.33D-05  0.00D+00 EMaxC= 1.00D-01 BMatC= 8.41D-09 BMatP= 8.87D-07
 IDIUse=1 WtCom= 1.00D+00 WtEn= 0.00D+00
 Coeff-Com:  0.793D-04-0.252D-03-0.945D-03 0.233D-01-0.188D+00 0.117D+01
 Coeff:      0.793D-04-0.252D-03-0.945D-03 0.233D-01-0.188D+00 0.117D+01
 Gap=     0.305 Goal=   None    Shift=    0.000
 Gap=     0.433 Goal=   None    Shift=    0.000
 RMSDP=1.79D-06 MaxDP=3.22D-05 DE=-6.49D-07 OVMax= 4.85D-05

 Cycle   7  Pass 1  IDiag  1:
 E= -39.8241053031804     Delta-E=       -0.000000005319 Rises=F Damp=F
 DIIS: error= 1.18D-06 at cycle   7 NSaved=   7.
 NSaved= 7 IEnMin= 7 EnMin= -39.8241053031804     IErMin= 7 ErrMin= 1.18D-06
 ErrMax= 1.18D-06  0.00D+00 EMaxC= 1.00D-01 BMatC= 8.63D-11 BMatP= 8.41D-09
 IDIUse=1 WtCom= 1.00D+00 WtEn= 0.00D+00
 Coeff-Com:  0.117D-04-0.153D-04-0.432D-03 0.597D-04 0.115D-01-0.154D+00
 Coeff-Com:  0.114D+01
 Coeff:      0.117D-04-0.153D-04-0.432D-03 0.597D-04 0.115D-01-0.154D+00
 Coeff:      0.114D+01
 Gap=     0.305 Goal=   None    Shift=    0.000
 Gap=     0.433 Goal=   None    Shift=    0.000
 RMSDP=1.65D-07 MaxDP=2.97D-06 DE=-5.32D-09 OVMax= 6.76D-06

 Cycle   8  Pass 1  IDiag  1:
 E= -39.8241053032362     Delta-E=       -0.000000000056 Rises=F Damp=F
 DIIS: error= 1.78D-07 at cycle   8 NSaved=   8.
 NSaved= 8 IEnMin= 8 EnMin= -39.8241053032362     IErMin= 8 ErrMin= 1.78D-07
 ErrMax= 1.78D-07  0.00D+00 EMaxC= 1.00D-01 BMatC= 3.23D-12 BMatP= 8.63D-11
 IDIUse=1 WtCom= 1.00D+00 WtEn= 0.00D+00
 Coeff-Com: -0.210D-05 0.689D-05-0.141D-04-0.531D-03 0.507D-02-0.410D-01
 Coeff-Com:  0.125D+00 0.912D+00
 Coeff:     -0.210D-05 0.689D-05-0.141D-04-0.531D-03 0.507D-02-0.410D-01
 Coeff:      0.125D+00 0.912D+00
 Gap=     0.305 Goal=   None    Shift=    0.000
 Gap=     0.433 Goal=   None    Shift=    0.000
 RMSDP=2.20D-08 MaxDP=3.63D-07 DE=-5.58D-11 OVMax= 9.47D-07

 Cycle   9  Pass 1  IDiag  1:
 E= -39.8241053032377     Delta-E=       -0.000000000002 Rises=F Damp=F
 DIIS: error= 3.83D-08 at cycle   9 NSaved=   9.
 NSaved= 9 IEnMin= 9 EnMin= -39.8241053032377     IErMin= 9 ErrMin= 3.83D-08
 ErrMax= 3.83D-08  0.00D+00 EMaxC= 1.00D-01 BMatC= 1.51D-13 BMatP= 3.23D-12
 IDIUse=1 WtCom= 1.00D+00 WtEn= 0.00D+00
 Coeff-Com: -0.116D-05 0.183D-05 0.239D-04-0.151D-04-0.591D-03 0.778D-02
 Coeff-Com: -0.540D-01-0.240D-01 0.107D+01
 Coeff:     -0.116D-05 0.183D-05 0.239D-04-0.151D-04-0.591D-03 0.778D-02
 Coeff:     -0.540D-01-0.240D-01 0.107D+01
 Gap=     0.305 Goal=   None    Shift=    0.000
 Gap=     0.433 Goal=   None    Shift=    0.000
 RMSDP=6.53D-09 MaxDP=1.33D-07 DE=-1.55D-12 OVMax= 2.71D-07

 SCF Done:  E(UM062X) =  -39.8241053032     A.U. after    9 cycles
            NFock=  9  Conv=0.65D-08     -V/T= 2.0054
 <Sx>= 0.0000 <Sy>= 0.0000 <Sz>= 0.5000 <S**2>= 0.7547 S= 0.5024
 <L.S>= 0.000000000000E+00
 KE= 3.960971177584D+01 PE=-1.112652678523D+02 EE= 2.214159682743D+01
 Annihilation of the first spin contaminant:
 S**2 before annihilation     0.7547,   after     0.7500
 Leave Link  502 at Sun Apr 18 08:10:43 2021, MaxMem=   104857600 cpu:             995.1 elap:              21.2
 (Enter /s/ls4/users/knvvv/bin/g16sse/l601.exe)
 Copying SCF densities to generalized density rwf, IOpCl= 1 IROHF=0.

 **********************************************************************

            Population analysis using the SCF density.

 **********************************************************************

 Orbital symmetries:
 Alpha Orbitals:
       Occupied  (A1) (A1) (E) (E) (A1)
       Virtual   (A1) (E) (E) (A1) (A1) (E) (E) (A1) (E) (E) (A1)
                 (A1) (E) (E) (E) (E) (A1) (E) (E) (A1) (A1) (A2)
                 (E) (E) (A1) (E) (E) (A1) (E) (E) (E) (E) (A1)
                 (E) (E) (E) (E) (A1) (E) (E) (E) (E) (A1) (A2)
                 (E) (E) (A1) (A1)
 Beta  Orbitals:
       Occupied  (A1) (A1) (E) (E)
       Virtual   (A1) (A1) (E) (E) (A1) (A1) (E) (E) (A1) (E) (E)
                 (A1) (E) (E) (A1) (E) (E) (A1) (E) (E) (A1) (A2)
                 (A1) (E) (E) (A1) (E) (E) (A1) (E) (E) (E) (E)
                 (A1) (E) (E) (E) (E) (E) (E) (A1) (E) (E) (A1)
                 (A2) (E) (E) (A1) (A1)
 The electronic state is 2-A1.
 Alpha  occ. eigenvalues --  -10.54499  -0.77825  -0.49102  -0.49102  -0.28695
 Alpha virt. eigenvalues --    0.01808   0.04102   0.04102   0.05381   0.17303
 Alpha virt. eigenvalues --    0.17550   0.17550   0.31441   0.33466   0.33466
 Alpha virt. eigenvalues --    0.37351   0.53806   0.54263   0.54263   0.65941
 Alpha virt. eigenvalues --    0.65941   0.90582   0.98403   0.98403   1.39101
 Alpha virt. eigenvalues --    1.51076   1.52269   1.57792   1.57792   1.82086
 Alpha virt. eigenvalues --    1.87044   1.87044   2.06366   2.10564   2.10564
 Alpha virt. eigenvalues --    2.37686   2.37686   2.56651   2.61957   2.61957
 Alpha virt. eigenvalues --    2.92529   2.92529   3.12281   3.13596   3.13596
 Alpha virt. eigenvalues --    3.18876   3.18876   3.41980   3.61429   4.06529
 Alpha virt. eigenvalues --    4.06529   4.48858  22.09899
  Beta  occ. eigenvalues --  -10.53809  -0.73022  -0.47829  -0.47829
  Beta virt. eigenvalues --   -0.04502   0.01643   0.04681   0.04681   0.09904
  Beta virt. eigenvalues --    0.16360   0.17187   0.17187   0.27489   0.32184
  Beta virt. eigenvalues --    0.32184   0.36670   0.55785   0.55785   0.56222
  Beta virt. eigenvalues --    0.68735   0.68735   0.91097   0.97492   0.97492
  Beta virt. eigenvalues --    1.41492   1.53454   1.57114   1.59769   1.59769
  Beta virt. eigenvalues --    1.84168   1.88268   1.88268   2.07816   2.12309
  Beta virt. eigenvalues --    2.12309   2.38877   2.38877   2.63177   2.63631
  Beta virt. eigenvalues --    2.63631   3.00699   3.00699   3.18748   3.18748
  Beta virt. eigenvalues --    3.18761   3.25258   3.25258   3.50174   3.66301
  Beta virt. eigenvalues --    4.12264   4.12264   4.57553  22.10968
          Condensed to atoms (all electrons):
               1          2          3          4
     1  C    5.283682   0.396657   0.396657   0.396657
     2  H    0.396657   0.501294  -0.027917  -0.027917
     3  H    0.396657  -0.027917   0.501294  -0.027917
     4  H    0.396657  -0.027917  -0.027917   0.501294
          Atomic-Atomic Spin Densities.
               1          2          3          4
     1  C    1.121260  -0.003994  -0.003994  -0.003994
     2  H   -0.003994  -0.034337   0.000952   0.000952
     3  H   -0.003994   0.000952  -0.034337   0.000952
     4  H   -0.003994   0.000952   0.000952  -0.034337
 Mulliken charges and spin densities:
               1          2
     1  C   -0.473653   1.109278
     2  H    0.157884  -0.036426
     3  H    0.157884  -0.036426
     4  H    0.157884  -0.036426
 Sum of Mulliken charges =  -0.00000   1.00000
 Mulliken charges and spin densities with hydrogens summed into heavy atoms:
               1          2
     1  C   -0.000000   1.000000
 Electronic spatial extent (au):  <R**2>=             30.1033
 Charge=             -0.0000 electrons
 Dipole moment (field-independent basis, Debye):
    X=             -0.0000    Y=              0.0000    Z=             -0.0033  Tot=              0.0033
 Quadrupole moment (field-independent basis, Debye-Ang):
   XX=             -7.2678   YY=             -7.2678   ZZ=             -9.2217
   XY=             -0.0000   XZ=              0.0000   YZ=              0.0000
 Traceless Quadrupole moment (field-independent basis, Debye-Ang):
   XX=              0.6513   YY=              0.6513   ZZ=             -1.3026
   XY=             -0.0000   XZ=              0.0000   YZ=              0.0000
 Octapole moment (field-independent basis, Debye-Ang**2):
  XXX=              0.0000  YYY=              0.9486  ZZZ=             -0.0061  XYY=              0.0000
  XXY=             -0.9486  XXZ=             -0.0035  XZZ=              0.0000  YZZ=              0.0000
  YYZ=             -0.0035  XYZ=             -0.0000
 Hexadecapole moment (field-independent basis, Debye-Ang**3):
 XXXX=            -15.0406 YYYY=            -15.0406 ZZZZ=            -12.3700 XXXY=              0.0000
 XXXZ=              0.0000 YYYX=             -0.0000 YYYZ=             -0.0016 ZZZX=              0.0000
 ZZZY=              0.0000 XXYY=             -5.0135 XXZZ=             -4.9585 YYZZ=             -4.9585
 XXYZ=              0.0016 YYXZ=              0.0000 ZZXY=              0.0000
 N-N= 9.689853945788D+00 E-N=-1.112652675865D+02  KE= 3.960971177584D+01
                          Isotropic Fermi Contact Couplings
        Atom                 a.u.       MegaHertz       Gauss      10(-4) cm-1
     1  C(13)              0.16895     189.92733      67.77079      63.35294
     2  H(1)              -0.01632     -72.95898     -26.03358     -24.33650
     3  H(1)              -0.01632     -72.95898     -26.03358     -24.33650
     4  H(1)              -0.01632     -72.95898     -26.03358     -24.33650
 --------------------------------------------------------
       Center         ----  Spin Dipole Couplings  ----
                      3XX-RR        3YY-RR        3ZZ-RR
 --------------------------------------------------------
     1   Atom       -0.547685     -0.547685      1.095370
     2   Atom       -0.074496      0.078471     -0.003975
     3   Atom        0.040229     -0.036254     -0.003975
     4   Atom        0.040229     -0.036254     -0.003975
 --------------------------------------------------------
                        XY            XZ            YZ
 --------------------------------------------------------
     1   Atom       -0.000000      0.000000      0.000000
     2   Atom        0.000000      0.000000     -0.000168
     3   Atom        0.066236      0.000146      0.000084
     4   Atom       -0.066236     -0.000146      0.000084
 --------------------------------------------------------


 ---------------------------------------------------------------------------------
              Anisotropic Spin Dipole Couplings in Principal Axis System
 ---------------------------------------------------------------------------------

       Atom             a.u.   MegaHertz   Gauss  10(-4) cm-1        Axes

              Baa    -0.5477   -73.494   -26.225   -24.515  0.0650  0.9979 -0.0000
     1 C(13)  Bbb    -0.5477   -73.494   -26.225   -24.515  0.9979 -0.0650 -0.0000
              Bcc     1.0954   146.988    52.449    49.030  0.0000  0.0000  1.0000
 
              Baa    -0.0745   -39.747   -14.183   -13.258  1.0000  0.0000  0.0000
     2 H(1)   Bbb    -0.0040    -2.121    -0.757    -0.708 -0.0000  0.0020  1.0000
              Bcc     0.0785    41.868    14.940    13.966 -0.0000  1.0000 -0.0020
 
              Baa    -0.0745   -39.747   -14.183   -13.258 -0.5000  0.8660  0.0000
     3 H(1)   Bbb    -0.0040    -2.121    -0.757    -0.708 -0.0018 -0.0010  1.0000
              Bcc     0.0785    41.868    14.940    13.966  0.8660  0.5000  0.0020
 
              Baa    -0.0745   -39.747   -14.183   -13.258  0.5000  0.8660  0.0000
     4 H(1)   Bbb    -0.0040    -2.121    -0.757    -0.708  0.0018 -0.0010  1.0000
              Bcc     0.0785    41.868    14.940    13.966  0.8660 -0.5000 -0.0020
 

 ---------------------------------------------------------------------------------

 No NMR shielding tensors so no spin-rotation constants.
 Leave Link  601 at Sun Apr 18 08:10:44 2021, MaxMem=   104857600 cpu:              75.1 elap:               1.6
 (Enter /s/ls4/users/knvvv/bin/g16sse/l801.exe)
 DoSCS=F DFT=T ScalE2(SS,OS)=  1.000000  1.000000
 Range of M.O.s used for correlation:     1    53
 NBasis=    53 NAE=     5 NBE=     4 NFC=     0 NFV=     0
 NROrb=     53 NOA=     5 NOB=     4 NVA=    48 NVB=    49
 Leave Link  801 at Sun Apr 18 08:10:44 2021, MaxMem=   104857600 cpu:               3.3 elap:               0.1
 (Enter /s/ls4/users/knvvv/bin/g16sse/l914.exe)
 UHF ground state
 Doing stability rather than CIS.
 Keep R1 and R2 ints in memory in symmetry-blocked form, NReq=51865535.
 FoFCou: FMM=F IPFlag=           0 FMFlag=           0 FMFlg1=           0
         NFxFlg=           0 DoJE=F BraDBF=F KetDBF=F FulRan=T
         wScrn=  0.000000 ICntrl=       600 IOpCl=  0 I1Cent=           0 NGrid=           0
         NMat0=    1 NMatS0=   1431 NMatT0=    0 NMatD0=    1 NMtDS0=    0 NMtDT0=    0
 Petite list used in FoFCou.
 MDV=   104857600 DFT=T DoStab=T Mixed=T DoRPA=F DoScal=F NonHer=F
 Making orbital integer symmetry assigments:
 Orbital symmetries:
 Alpha Orbitals:
       Occupied  (A1) (A1) (E) (E) (A1)
       Virtual   (A1) (E) (E) (A1) (A1) (E) (E) (A1) (E) (E) (A1)
                 (A1) (E) (E) (E) (E) (A1) (E) (E) (A1) (A1) (A2)
                 (E) (E) (A1) (E) (E) (A1) (E) (E) (E) (E) (A1)
                 (E) (E) (E) (E) (A1) (E) (E) (E) (E) (A1) (A2)
                 (E) (E) (A1) (A1)
 Beta  Orbitals:
       Occupied  (A1) (A1) (E) (E)
       Virtual   (A1) (A1) (E) (E) (A1) (A1) (E) (E) (A1) (E) (E)
                 (A1) (E) (E) (A1) (E) (E) (A1) (E) (E) (A1) (A2)
                 (A1) (E) (E) (A1) (E) (E) (A1) (E) (E) (E) (E)
                 (A1) (E) (E) (E) (E) (E) (E) (A1) (E) (E) (A1)
                 (A2) (E) (E) (A1) (A1)
    12 initial guesses have been made.
 Convergence on wavefunction:    0.001000000000000
 Davidson Disk Diagonalization:  ConvIn= 1.00D-03 SkipCon=T Conv= 1.00D-03.
 Max sub-space:   872 roots to seek:    12 dimension of matrix:          436
 Iteration     1 Dimension    12 NMult     0 NNew     12
 CISAX will form    12 AO SS matrices at one time.
 NMat=    12 NSing=    12 JSym2X= 2.
 Excitation Energies [eV] at current iteration:
 Root      1 :     5.811251969639848
 Root      2 :     6.758876084775664
 Root      3 :     6.769954748443537
 Root      4 :     7.449967695639814
 Root      5 :     7.450210150781682
 Root      6 :     7.552292254418902
 Root      7 :     8.823567368616271
 Root      8 :     8.824826265041386
 Root      9 :     9.273362061830166
 Root     10 :    10.869002287207130
 Root     11 :    10.882524207643650
 Root     12 :    11.384385931607030
 Iteration     2 Dimension    24 NMult    12 NNew     12
 CISAX will form    12 AO SS matrices at one time.
 NMat=    12 NSing=    12 JSym2X= 2.
 Root      1 not converged, maximum delta is    0.152174776033326
 Excitation Energies [eV] at current iteration:
 Root      1 :     5.584215435600651   Change is   -0.227036534039197
 Root      2 :     6.559742037248231   Change is   -0.199134047527432
 Root      3 :     6.565293826591296   Change is   -0.204660921852240
 Root      4 :     6.836140271828350   Change is   -0.613827423811463
 Root      5 :     6.839678937205653   Change is   -0.610531213576030
 Root      6 :     7.213899440500198   Change is   -0.338392813918705
 Root      7 :     8.668080050448822   Change is   -0.605282011381345
 Root      8 :     8.684256847654620   Change is   -0.139310520961651
 Root      9 :     8.685196203425228   Change is   -0.139630061616158
 Root     10 :    10.597146419476710   Change is   -0.271855867730427
 Root     11 :    10.685658137749460   Change is   -0.196866069894195
 Root     12 :    11.212469246872620   Change is   -0.171916684734408
 Iteration     3 Dimension    27 NMult    24 NNew      3
 CISAX will form     3 AO SS matrices at one time.
 NMat=     3 NSing=     3 JSym2X= 2.
 Root      1 not converged, maximum delta is    0.023609380972145
 Excitation Energies [eV] at current iteration:
 Root      1 :     5.565055086564453   Change is   -0.019160349036198
 Root      2 :     6.556551748790213   Change is   -0.003190288458018
 Root      3 :     6.561968999769561   Change is   -0.003324826821736
 Iteration     4 Dimension    30 NMult    27 NNew      3
 CISAX will form     3 AO SS matrices at one time.
 NMat=     3 NSing=     3 JSym2X= 2.
 Root      1 not converged, maximum delta is    0.006148215598501
 Excitation Energies [eV] at current iteration:
 Root      1 :     5.563449537410778   Change is   -0.001605549153674
 Root      2 :     6.556518757962599   Change is   -0.000032990827614
 Root      3 :     6.561935280131721   Change is   -0.000033719637840
 Iteration     5 Dimension    33 NMult    30 NNew      3
 CISAX will form     3 AO SS matrices at one time.
 NMat=     3 NSing=     3 JSym2X= 2.
 Root      1 has converged.
 Excitation Energies [eV] at current iteration:
 Root      1 :     5.563413658651656   Change is   -0.000035878759124
 Root      2 :     6.556518199373177   Change is   -0.000000558589421
 Root      3 :     6.561934700837579   Change is   -0.000000579294142
 Convergence achieved on expansion vectors.
 ***********************************************************************
 Stability analysis using <AA,BB:AA,BB> singles matrix:
 ***********************************************************************
 1PDM for each excited state written to RWF  633
 Ground to excited state transition densities written to RWF  633

 Eigenvectors of the stability matrix:
 
 Eigenvector   1:  2.007-A1   Eigenvalue= 0.2044517  <S**2>=0.757
      5A ->  6A        0.96626
      5A -> 10A       -0.18340
      5A -> 13A        0.14804
 The wavefunction is stable under the perturbations considered.
 Leave Link  914 at Sun Apr 18 08:10:51 2021, MaxMem=   104857600 cpu:             312.8 elap:               6.7
 (Enter /s/ls4/users/knvvv/bin/g16sse/l508.exe)
 The wavefunction is already stable.
 Leave Link  508 at Sun Apr 18 08:10:51 2021, MaxMem=   104857600 cpu:               2.2 elap:               0.1
 (Enter /s/ls4/users/knvvv/bin/g16sse/l601.exe)
 Copying SCF densities to generalized density rwf, IOpCl= 1 IROHF=0.

 **********************************************************************

            Population analysis using the SCF density.

 **********************************************************************

 Orbital symmetries:
 Alpha Orbitals:
       Occupied  (A1) (A1) (E) (E) (A1)
       Virtual   (A1) (E) (E) (A1) (A1) (E) (E) (A1) (E) (E) (A1)
                 (A1) (E) (E) (E) (E) (A1) (E) (E) (A1) (A1) (A2)
                 (E) (E) (A1) (E) (E) (A1) (E) (E) (E) (E) (A1)
                 (E) (E) (E) (E) (A1) (E) (E) (E) (E) (A1) (A2)
                 (E) (E) (A1) (A1)
 Beta  Orbitals:
       Occupied  (A1) (A1) (E) (E)
       Virtual   (A1) (A1) (E) (E) (A1) (A1) (E) (E) (A1) (E) (E)
                 (A1) (E) (E) (A1) (E) (E) (A1) (E) (E) (A1) (A2)
                 (A1) (E) (E) (A1) (E) (E) (A1) (E) (E) (E) (E)
                 (A1) (E) (E) (E) (E) (E) (E) (A1) (E) (E) (A1)
                 (A2) (E) (E) (A1) (A1)
 The electronic state is 2-A1.
 Alpha  occ. eigenvalues --  -10.54499  -0.77825  -0.49102  -0.49102  -0.28695
 Alpha virt. eigenvalues --    0.01808   0.04102   0.04102   0.05381   0.17303
 Alpha virt. eigenvalues --    0.17550   0.17550   0.31441   0.33466   0.33466
 Alpha virt. eigenvalues --    0.37351   0.53806   0.54263   0.54263   0.65941
 Alpha virt. eigenvalues --    0.65941   0.90582   0.98403   0.98403   1.39101
 Alpha virt. eigenvalues --    1.51076   1.52269   1.57792   1.57792   1.82086
 Alpha virt. eigenvalues --    1.87044   1.87044   2.06366   2.10564   2.10564
 Alpha virt. eigenvalues --    2.37686   2.37686   2.56651   2.61957   2.61957
 Alpha virt. eigenvalues --    2.92529   2.92529   3.12281   3.13596   3.13596
 Alpha virt. eigenvalues --    3.18876   3.18876   3.41980   3.61429   4.06529
 Alpha virt. eigenvalues --    4.06529   4.48858  22.09899
  Beta  occ. eigenvalues --  -10.53809  -0.73022  -0.47829  -0.47829
  Beta virt. eigenvalues --   -0.04502   0.01643   0.04681   0.04681   0.09904
  Beta virt. eigenvalues --    0.16360   0.17187   0.17187   0.27489   0.32184
  Beta virt. eigenvalues --    0.32184   0.36670   0.55785   0.55785   0.56222
  Beta virt. eigenvalues --    0.68735   0.68735   0.91097   0.97492   0.97492
  Beta virt. eigenvalues --    1.41492   1.53454   1.57114   1.59769   1.59769
  Beta virt. eigenvalues --    1.84168   1.88268   1.88268   2.07816   2.12309
  Beta virt. eigenvalues --    2.12309   2.38877   2.38877   2.63177   2.63631
  Beta virt. eigenvalues --    2.63631   3.00699   3.00699   3.18748   3.18748
  Beta virt. eigenvalues --    3.18761   3.25258   3.25258   3.50174   3.66301
  Beta virt. eigenvalues --    4.12264   4.12264   4.57553  22.10968
          Condensed to atoms (all electrons):
               1          2          3          4
     1  C    5.283682   0.396657   0.396657   0.396657
     2  H    0.396657   0.501294  -0.027917  -0.027917
     3  H    0.396657  -0.027917   0.501294  -0.027917
     4  H    0.396657  -0.027917  -0.027917   0.501294
          Atomic-Atomic Spin Densities.
               1          2          3          4
     1  C    1.121260  -0.003994  -0.003994  -0.003994
     2  H   -0.003994  -0.034337   0.000952   0.000952
     3  H   -0.003994   0.000952  -0.034337   0.000952
     4  H   -0.003994   0.000952   0.000952  -0.034337
 Mulliken charges and spin densities:
               1          2
     1  C   -0.473653   1.109278
     2  H    0.157884  -0.036426
     3  H    0.157884  -0.036426
     4  H    0.157884  -0.036426
 Sum of Mulliken charges =  -0.00000   1.00000
 Mulliken charges and spin densities with hydrogens summed into heavy atoms:
               1          2
     1  C   -0.000000   1.000000
 Electronic spatial extent (au):  <R**2>=             30.1033
 Charge=             -0.0000 electrons
 Dipole moment (field-independent basis, Debye):
    X=             -0.0000    Y=              0.0000    Z=             -0.0033  Tot=              0.0033
 Quadrupole moment (field-independent basis, Debye-Ang):
   XX=             -7.2678   YY=             -7.2678   ZZ=             -9.2217
   XY=             -0.0000   XZ=              0.0000   YZ=              0.0000
 Traceless Quadrupole moment (field-independent basis, Debye-Ang):
   XX=              0.6513   YY=              0.6513   ZZ=             -1.3026
   XY=             -0.0000   XZ=              0.0000   YZ=              0.0000
 Octapole moment (field-independent basis, Debye-Ang**2):
  XXX=              0.0000  YYY=              0.9486  ZZZ=             -0.0061  XYY=              0.0000
  XXY=             -0.9486  XXZ=             -0.0035  XZZ=              0.0000  YZZ=              0.0000
  YYZ=             -0.0035  XYZ=             -0.0000
 Hexadecapole moment (field-independent basis, Debye-Ang**3):
 XXXX=            -15.0406 YYYY=            -15.0406 ZZZZ=            -12.3700 XXXY=              0.0000
 XXXZ=              0.0000 YYYX=             -0.0000 YYYZ=             -0.0016 ZZZX=              0.0000
 ZZZY=              0.0000 XXYY=             -5.0135 XXZZ=             -4.9585 YYZZ=             -4.9585
 XXYZ=              0.0016 YYXZ=              0.0000 ZZXY=              0.0000
 N-N= 9.689853945788D+00 E-N=-1.112652675865D+02  KE= 3.960971177584D+01
                          Isotropic Fermi Contact Couplings
        Atom                 a.u.       MegaHertz       Gauss      10(-4) cm-1
     1  C(13)              0.16895     189.92733      67.77079      63.35294
     2  H(1)              -0.01632     -72.95898     -26.03358     -24.33650
     3  H(1)              -0.01632     -72.95898     -26.03358     -24.33650
     4  H(1)              -0.01632     -72.95898     -26.03358     -24.33650
 --------------------------------------------------------
       Center         ----  Spin Dipole Couplings  ----
                      3XX-RR        3YY-RR        3ZZ-RR
 --------------------------------------------------------
     1   Atom       -0.547685     -0.547685      1.095370
     2   Atom       -0.074496      0.078471     -0.003975
     3   Atom        0.040229     -0.036254     -0.003975
     4   Atom        0.040229     -0.036254     -0.003975
 --------------------------------------------------------
                        XY            XZ            YZ
 --------------------------------------------------------
     1   Atom       -0.000000      0.000000      0.000000
     2   Atom        0.000000      0.000000     -0.000168
     3   Atom        0.066236      0.000146      0.000084
     4   Atom       -0.066236     -0.000146      0.000084
 --------------------------------------------------------


 ---------------------------------------------------------------------------------
              Anisotropic Spin Dipole Couplings in Principal Axis System
 ---------------------------------------------------------------------------------

       Atom             a.u.   MegaHertz   Gauss  10(-4) cm-1        Axes

              Baa    -0.5477   -73.494   -26.225   -24.515  0.0650  0.9979 -0.0000
     1 C(13)  Bbb    -0.5477   -73.494   -26.225   -24.515  0.9979 -0.0650 -0.0000
              Bcc     1.0954   146.988    52.449    49.030  0.0000  0.0000  1.0000
 
              Baa    -0.0745   -39.747   -14.183   -13.258  1.0000  0.0000  0.0000
     2 H(1)   Bbb    -0.0040    -2.121    -0.757    -0.708 -0.0000  0.0020  1.0000
              Bcc     0.0785    41.868    14.940    13.966 -0.0000  1.0000 -0.0020
 
              Baa    -0.0745   -39.747   -14.183   -13.258 -0.5000  0.8660  0.0000
     3 H(1)   Bbb    -0.0040    -2.121    -0.757    -0.708 -0.0018 -0.0010  1.0000
              Bcc     0.0785    41.868    14.940    13.966  0.8660  0.5000  0.0020
 
              Baa    -0.0745   -39.747   -14.183   -13.258  0.5000  0.8660  0.0000
     4 H(1)   Bbb    -0.0040    -2.121    -0.757    -0.708  0.0018 -0.0010  1.0000
              Bcc     0.0785    41.868    14.940    13.966  0.8660 -0.5000 -0.0020
 

 ---------------------------------------------------------------------------------

 No NMR shielding tensors so no spin-rotation constants.
 Leave Link  601 at Sun Apr 18 08:10:53 2021, MaxMem=   104857600 cpu:              75.4 elap:               1.6
 (Enter /s/ls4/users/knvvv/bin/g16sse/l9999.exe)

 Test job not archived.
 1\1\GINC-N178\Stability\UM062X\Gen\C1H3(2)\KNVVV\18-Apr-2021\0\\#P M06
 2X/GEN Integral=UltraFineGrid SCF=NoSymm Stable=(RExt, Opt) IOp(1/33=1
 )\\Database calculations.\\0,2\C,0,-1.273369,0.742196,-0.217501\H,0,-0
 .765914,-0.156538,0.092307\H,0,-0.765894,1.459855,-0.840918\H,0,-2.289
 85,0.921076,0.092307\\Version=ES64L-G16RevA.03\State=2-A1\HF=-39.82410
 53\S2=0.754727\S2-1=0.\S2A=0.750015\RMSD=6.532e-09\Dipole=-0.0004312,-
 0.0006098,-0.0010562\Quadrupole=0.3228173,0.1614172,-0.4842345,-0.2282
 724,-0.3953829,-0.559141\PG=C03V [C3(C1),3SGV(H1)]\\@


 SILVERMAN'S PARADOX - IF MURPHY'S LAW CAN GO WRONG, IT WILL.
 Job cpu time:       0 days  0 hours 28 minutes  1.4 seconds.
 Elapsed time:       0 days  0 hours  0 minutes 36.1 seconds.
 File lengths (MBytes):  RWF=     12 Int=      0 D2E=      0 Chk=      1 Scr=      1
 Normal termination of Gaussian 16 at Sun Apr 18 08:10:53 2021.
