 Entering Gaussian System, Link 0=/s/ls4/users/knvvv/bin/g16sse/g16
 Input=data/database/M062X--def2-QZVPPD--14a_cyanoacetamide_monC_3B-69.gjf
 Output=data/database/M062X--def2-QZVPPD--14a_cyanoacetamide_monC_3B-69.log
 Initial command:
 /s/ls4/users/knvvv/bin/g16sse/l1.exe "/s/ls4/users/knvvv/bin/scratch/Gau-5731.inp" -scrdir="/s/ls4/users/knvvv/bin/scratch/"
 Entering Link 1 = /s/ls4/users/knvvv/bin/g16sse/l1.exe PID=      5732.
  
 Copyright (c) 1988,1990,1992,1993,1995,1998,2003,2009,2016,
            Gaussian, Inc.  All Rights Reserved.
  
 This is part of the Gaussian(R) 16 program.  It is based on
 the Gaussian(R) 09 system (copyright 2009, Gaussian, Inc.),
 the Gaussian(R) 03 system (copyright 2003, Gaussian, Inc.),
 the Gaussian(R) 98 system (copyright 1998, Gaussian, Inc.),
 the Gaussian(R) 94 system (copyright 1995, Gaussian, Inc.),
 the Gaussian 92(TM) system (copyright 1992, Gaussian, Inc.),
 the Gaussian 90(TM) system (copyright 1990, Gaussian, Inc.),
 the Gaussian 88(TM) system (copyright 1988, Gaussian, Inc.),
 the Gaussian 86(TM) system (copyright 1986, Carnegie Mellon
 University), and the Gaussian 82(TM) system (copyright 1983,
 Carnegie Mellon University). Gaussian is a federally registered
 trademark of Gaussian, Inc.
  
 This software contains proprietary and confidential information,
 including trade secrets, belonging to Gaussian, Inc.
  
 This software is provided under written license and may be
 used, copied, transmitted, or stored only in accord with that
 written license.
  
 The following legend is applicable only to US Government
 contracts under FAR:
  
                    RESTRICTED RIGHTS LEGEND
  
 Use, reproduction and disclosure by the US Government is
 subject to restrictions as set forth in subparagraphs (a)
 and (c) of the Commercial Computer Software - Restricted
 Rights clause in FAR 52.227-19.
  
 Gaussian, Inc.
 340 Quinnipiac St., Bldg. 40, Wallingford CT 06492
  
  
 ---------------------------------------------------------------
 Warning -- This program may not be used in any manner that
 competes with the business of Gaussian, Inc. or will provide
 assistance to any competitor of Gaussian, Inc.  The licensee
 of this program is prohibited from giving any competitor of
 Gaussian, Inc. access to this program.  By using this program,
 the user acknowledges that Gaussian, Inc. is engaged in the
 business of creating and licensing software in the field of
 computational chemistry and represents and warrants to the
 licensee that it is not a competitor of Gaussian, Inc. and that
 it will not use this program in any manner prohibited above.
 ---------------------------------------------------------------
  

 Cite this work as:
 Gaussian 16, Revision A.03,
 M. J. Frisch, G. W. Trucks, H. B. Schlegel, G. E. Scuseria, 
 M. A. Robb, J. R. Cheeseman, G. Scalmani, V. Barone, 
 G. A. Petersson, H. Nakatsuji, X. Li, M. Caricato, A. V. Marenich, 
 J. Bloino, B. G. Janesko, R. Gomperts, B. Mennucci, H. P. Hratchian, 
 J. V. Ortiz, A. F. Izmaylov, J. L. Sonnenberg, D. Williams-Young, 
 F. Ding, F. Lipparini, F. Egidi, J. Goings, B. Peng, A. Petrone, 
 T. Henderson, D. Ranasinghe, V. G. Zakrzewski, J. Gao, N. Rega, 
 G. Zheng, W. Liang, M. Hada, M. Ehara, K. Toyota, R. Fukuda, 
 J. Hasegawa, M. Ishida, T. Nakajima, Y. Honda, O. Kitao, H. Nakai, 
 T. Vreven, K. Throssell, J. A. Montgomery, Jr., J. E. Peralta, 
 F. Ogliaro, M. J. Bearpark, J. J. Heyd, E. N. Brothers, K. N. Kudin, 
 V. N. Staroverov, T. A. Keith, R. Kobayashi, J. Normand, 
 K. Raghavachari, A. P. Rendell, J. C. Burant, S. S. Iyengar, 
 J. Tomasi, M. Cossi, J. M. Millam, M. Klene, C. Adamo, R. Cammi, 
 J. W. Ochterski, R. L. Martin, K. Morokuma, O. Farkas, 
 J. B. Foresman, and D. J. Fox, Gaussian, Inc., Wallingford CT, 2016.
 
 ******************************************
 Gaussian 16:  ES64L-G16RevA.03 25-Dec-2016
                17-Apr-2021 
 ******************************************
 %RWF=temp0_6007,70GB
 %nprocshared=48
 Will use up to   48 processors via shared memory.
 Default route: MaxDisk=80GB
 ----------------------------------------------------------------------
 #P M062X/GEN Integral=UltraFineGrid SCF=NoSymm Stable=(RExt, Opt) IOp(
 1/33=1)
 ----------------------------------------------------------------------
 1/33=1,38=1,172=1/1;
 2/12=2,17=6,18=5,40=1/2;
 3/5=7,11=2,25=1,30=1,74=-55,75=-5/1,2,3;
 4/9=2/1;
 5/5=2,38=5/2;
 6/7=2,8=2,9=2,10=2,28=1/1;
 8/6=1,10=90,11=11/1;
 9/8=-3,42=1,46=1/14;
 5/5=2,8=3,17=40,38=5/8(-2);
 6/7=2,8=2,9=2,10=2,28=1/1;
 99/5=1,9=1/99;
 Leave Link    1 at Sat Apr 17 11:27:06 2021, MaxMem=           0 cpu:               8.2 elap:               0.2
 (Enter /s/ls4/users/knvvv/bin/g16sse/l101.exe)
 ONIOM data not found on unit 2.
 ----------------------
 Database calculations.
 ----------------------
 TstMul:  ICh=     0
 TstMul:  Mul=     1
 TstMul:  ICh=     0
 TstMul:  Mul=     1
 Symbolic Z-matrix:
 Charge =  0 Multiplicity = 1
 C                     5.57802   24.53121   4.1803 
 C                     5.95903   25.68388   4.97137 
 C                     5.52355   27.00179   4.3185 
 H                     7.0334    25.65012   5.14786 
 H                     5.47312   25.6039   5.94732 
 H                     5.74565   29.00713   4.52256 
 H                     6.69441   28.03801   5.64715 
 N                     5.27001   23.61659   3.55591 
 N                     6.09351   28.09711   4.83246 
 O                     4.69911   27.01914   3.40227 
 
 RdStrC is calling ZToCFu for IStruc=1 NZ=    10.
 PrtBox:  NBox=     2 Levels=  1 BoxLen=    8.00 SMaxX=       10.19
          Shift=           -8.880025          -44.628878           -6.429355
 Box      1 Number                   0 centers from      1 to      7:
 Box      2 Number                   2 centers from      8 to     10:
 After GenITR:
 ITRead=  0  0  0  0  0  0  0  0  0  0
 MicOpt= -1 -1 -1 -1 -1 -1 -1 -1 -1 -1
 ITRead=  0  0  0  0  0  0  0  0  0  0
 MicOpt= -1 -1 -1 -1 -1 -1 -1 -1 -1 -1
 NAtoms=     10 NQM=       10 NQMF=       0 NMMI=      0 NMMIF=      0
                NMic=       0 NMicF=      0.
                    Isotopes and Nuclear Properties:
 (Nuclear quadrupole moments (NQMom) in fm**2, nuclear magnetic moments (NMagM)
  in nuclear magnetons)

  Atom         1           2           3           4           5           6           7           8           9          10
 IAtWgt=          12          12          12           1           1           1           1          14          14          16
 AtmWgt=  12.0000000  12.0000000  12.0000000   1.0078250   1.0078250   1.0078250   1.0078250  14.0030740  14.0030740  15.9949146
 NucSpn=           0           0           0           1           1           1           1           2           2           0
 AtZEff=  -0.0000000  -0.0000000  -0.0000000  -0.0000000  -0.0000000  -0.0000000  -0.0000000  -0.0000000  -0.0000000  -0.0000000
 NQMom=    0.0000000   0.0000000   0.0000000   0.0000000   0.0000000   0.0000000   0.0000000   2.0440000   2.0440000   0.0000000
 NMagM=    0.0000000   0.0000000   0.0000000   2.7928460   2.7928460   2.7928460   2.7928460   0.4037610   0.4037610   0.0000000
 AtZNuc=   6.0000000   6.0000000   6.0000000   1.0000000   1.0000000   1.0000000   1.0000000   7.0000000   7.0000000   8.0000000
 No MM parameters found.
 Leave Link  101 at Sat Apr 17 11:27:06 2021, MaxMem=   104857600 cpu:               6.8 elap:               0.2
 (Enter /s/ls4/users/knvvv/bin/g16sse/l202.exe)
                          Input orientation:                          
 ---------------------------------------------------------------------
 Center     Atomic      Atomic             Coordinates (Angstroms)
 Number     Number       Type             X           Y           Z
 ---------------------------------------------------------------------
      1          6           0        5.578016   24.531209    4.180296
      2          6           0        5.959025   25.683875    4.971369
      3          6           0        5.523547   27.001790    4.318499
      4          1           0        7.033398   25.650121    5.147860
      5          1           0        5.473121   25.603895    5.947323
      6          1           0        5.745653   29.007129    4.522561
      7          1           0        6.694405   28.038010    5.647154
      8          7           0        5.270009   23.616585    3.555913
      9          7           0        6.093512   28.097115    4.832460
     10          8           0        4.699107   27.019141    3.402268
 ---------------------------------------------------------------------
                    Distance matrix (angstroms):
                    1          2          3          4          5
     1  C    0.000000
     2  C    1.449001   0.000000
     3  C    2.475043   1.533878   0.000000
     4  H    2.075158   1.089296   2.189634   0.000000
     5  H    2.069793   1.093154   2.147026   1.753779   0.000000
     6  H    4.492116   3.360204   2.027895   3.649492   3.699489
     7  H    3.961774   2.557229   2.051825   2.462971   2.739809
     8  N    1.149461   2.598451   3.479286   3.127156   3.116007
     9  N    3.661521   2.420973   1.337443   2.640197   2.800705
    10  O    2.750930   2.415038   1.232673   3.220283   3.013192
                    6          7          8          9         10
     6  H    0.000000
     7  H    1.761826   0.000000
     8  N    5.497146   5.094231   0.000000
     9  N    1.022335   1.014047   4.731055   0.000000
    10  O    2.510460   3.171564   3.453538   2.269767   0.000000
 Stoichiometry    C3H4N2O
 Framework group  C1[X(C3H4N2O)]
 Deg. of freedom    24
 Full point group                 C1      NOp   1
 Largest Abelian subgroup         C1      NOp   1
 Largest concise Abelian subgroup C1      NOp   1
                         Standard orientation:                         
 ---------------------------------------------------------------------
 Center     Atomic      Atomic             Coordinates (Angstroms)
 Number     Number       Type             X           Y           Z
 ---------------------------------------------------------------------
      1          6           0       -1.582478   -0.251012   -0.012987
      2          6           0       -0.279952   -0.866846    0.141214
      3          6           0        0.859133    0.153142    0.019186
      4          1           0       -0.184762   -1.675056   -0.582871
      5          1           0       -0.232632   -1.321462    1.134225
      6          1           0        2.881135    0.245901   -0.104343
      7          1           0        2.212777   -1.384224   -0.099706
      8          7           0       -2.615951    0.238652   -0.128840
      9          7           0        2.074360   -0.380695   -0.145108
     10          8           0        0.641800    1.364679    0.085731
 ---------------------------------------------------------------------
 Rotational constants (GHZ):           9.7990606           2.3159309           1.9092084
 Leave Link  202 at Sat Apr 17 11:27:06 2021, MaxMem=   104857600 cpu:               5.5 elap:               0.1
 (Enter /s/ls4/users/knvvv/bin/g16sse/l301.exe)
 General basis read from cards:  (5D, 7F)
 Centers:       4      5      6      7
 S 4 1.00
     Exponent=  1.9069169000D+02 Coefficients=  7.0815167000D-04
     Exponent=  2.8605532000D+01 Coefficients=  5.4678827000D-03
     Exponent=  6.5095943000D+00 Coefficients=  2.7966605000D-02
     Exponent=  1.8412455000D+00 Coefficients=  1.0764538000D-01
 S 1 1.00
     Exponent=  5.9853725000D-01 Coefficients=  1.0000000000D+00
 S 1 1.00
     Exponent=  2.1397624000D-01 Coefficients=  1.0000000000D+00
 S 1 1.00
     Exponent=  8.0316286000D-02 Coefficients=  1.0000000000D+00
 P 1 1.00
     Exponent=  2.2920000000D+00 Coefficients=  1.0000000000D+00
 P 1 1.00
     Exponent=  8.3800000000D-01 Coefficients=  1.0000000000D+00
 P 1 1.00
     Exponent=  2.9200000000D-01 Coefficients=  1.0000000000D+00
 P 1 1.00
     Exponent=  8.4063199228D-02 Coefficients=  1.0000000000D+00
 D 1 1.00
     Exponent=  2.0620000000D+00 Coefficients=  1.0000000000D+00
 D 1 1.00
     Exponent=  6.6200000000D-01 Coefficients=  1.0000000000D+00
 F 1 1.00
     Exponent=  1.3970000000D+00 Coefficients=  1.0000000000D+00
 ****
 Centers:       1      2      3
 S 8 1.00
     Exponent=  6.7025071029D+04 Coefficients=  3.8736308501D-05
     Exponent=  1.0039986538D+04 Coefficients=  3.0107917575D-04
     Exponent=  2.2849316911D+03 Coefficients=  1.5787918095D-03
     Exponent=  6.4714122130D+02 Coefficients=  6.6087087195D-03
     Exponent=  2.1109472335D+02 Coefficients=  2.3367123250D-02
     Exponent=  7.6177643862D+01 Coefficients=  7.0420716898D-02
     Exponent=  2.9633839163D+01 Coefficients=  1.7360344953D-01
     Exponent=  1.2187785081D+01 Coefficients=  3.2292305648D-01
 S 2 1.00
     Exponent=  5.3026006299D+01 Coefficients=  7.4897404492D-02
     Exponent=  1.5258502776D+01 Coefficients=  7.6136220983D-01
 S 1 1.00
     Exponent=  5.2403957464D+00 Coefficients=  1.0000000000D+00
 S 1 1.00
     Exponent=  2.2905022379D+00 Coefficients=  1.0000000000D+00
 S 1 1.00
     Exponent=  6.9673283006D-01 Coefficients=  1.0000000000D+00
 S 1 1.00
     Exponent=  2.7599337363D-01 Coefficients=  1.0000000000D+00
 S 1 1.00
     Exponent=  1.0739884389D-01 Coefficients=  1.0000000000D+00
 S 1 1.00
     Exponent=  4.4981404899D-02 Coefficients=  1.0000000000D+00
 P 5 1.00
     Exponent=  1.0512555082D+02 Coefficients=  8.4647553844D-04
     Exponent=  2.4884461066D+01 Coefficients=  6.6274038534D-03
     Exponent=  7.8637230826D+00 Coefficients=  3.0120390419D-02
     Exponent=  2.8407001835D+00 Coefficients=  9.9951435476D-02
     Exponent=  1.1227137335D+00 Coefficients=  2.3826299282D-01
 P 1 1.00
     Exponent=  4.6050725555D-01 Coefficients=  1.0000000000D+00
 P 1 1.00
     Exponent=  1.8937530913D-01 Coefficients=  1.0000000000D+00
 P 1 1.00
     Exponent=  7.5983791611D-02 Coefficients=  1.0000000000D+00
 D 1 1.00
     Exponent=  1.8480000000D+00 Coefficients=  1.0000000000D+00
 D 1 1.00
     Exponent=  6.4900000000D-01 Coefficients=  1.0000000000D+00
 D 1 1.00
     Exponent=  2.2800000000D-01 Coefficients=  1.0000000000D+00
 D 1 1.00
     Exponent=  7.6889830417D-02 Coefficients=  1.0000000000D+00
 F 1 1.00
     Exponent=  1.4190000000D+00 Coefficients=  1.0000000000D+00
 F 1 1.00
     Exponent=  4.8500000000D-01 Coefficients=  1.0000000000D+00
 G 1 1.00
     Exponent=  1.0110000000D+00 Coefficients=  1.0000000000D+00
 ****
 Centers:       8      9
 S 8 1.00
     Exponent=  9.0726889210D+04 Coefficients=  3.9257887368D-05
     Exponent=  1.3590528801D+04 Coefficients=  3.0513316455D-04
     Exponent=  3.0929883781D+03 Coefficients=  1.6000560446D-03
     Exponent=  8.7599876362D+02 Coefficients=  6.6982937306D-03
     Exponent=  2.8574469982D+02 Coefficients=  2.3690078765D-02
     Exponent=  1.0311913417D+02 Coefficients=  7.1455405268D-02
     Exponent=  4.0128556777D+01 Coefficients=  1.7632774876D-01
     Exponent=  1.6528095704D+01 Coefficients=  3.2677592815D-01
 S 2 1.00
     Exponent=  6.9390960983D+01 Coefficients=  8.0052094386D-02
     Exponent=  2.0428200596D+01 Coefficients=  7.8268063538D-01
 S 1 1.00
     Exponent=  7.1292587972D+00 Coefficients=  1.0000000000D+00
 S 1 1.00
     Exponent=  3.1324304893D+00 Coefficients=  1.0000000000D+00
 S 1 1.00
     Exponent=  9.8755778723D-01 Coefficients=  1.0000000000D+00
 S 1 1.00
     Exponent=  3.8765721307D-01 Coefficients=  1.0000000000D+00
 S 1 1.00
     Exponent=  1.4909883075D-01 Coefficients=  1.0000000000D+00
 S 1 1.00
     Exponent=  6.2151630318D-02 Coefficients=  1.0000000000D+00
 P 5 1.00
     Exponent=  1.5005742670D+02 Coefficients= -8.6216165986D-04
     Exponent=  3.5491599483D+01 Coefficients= -6.8571273236D-03
     Exponent=  1.1247864223D+01 Coefficients= -3.1795688855D-02
     Exponent=  4.0900305195D+00 Coefficients= -1.0537396822D-01
     Exponent=  1.6220573146D+00 Coefficients= -2.4519708041D-01
 P 1 1.00
     Exponent=  6.6442261530D-01 Coefficients=  1.0000000000D+00
 P 1 1.00
     Exponent=  2.7099770070D-01 Coefficients=  1.0000000000D+00
 P 1 1.00
     Exponent=  1.0688749984D-01 Coefficients=  1.0000000000D+00
 D 1 1.00
     Exponent=  2.8370000000D+00 Coefficients=  1.0000000000D+00
 D 1 1.00
     Exponent=  9.6800000000D-01 Coefficients=  1.0000000000D+00
 D 1 1.00
     Exponent=  3.3500000000D-01 Coefficients=  1.0000000000D+00
 D 1 1.00
     Exponent=  1.0825280010D-01 Coefficients=  1.0000000000D+00
 F 1 1.00
     Exponent=  2.0270000000D+00 Coefficients=  1.0000000000D+00
 F 1 1.00
     Exponent=  6.8500000000D-01 Coefficients=  1.0000000000D+00
 G 1 1.00
     Exponent=  1.4270000000D+00 Coefficients=  1.0000000000D+00
 ****
 Centers:      10
 S 8 1.00
     Exponent=  1.1650646908D+05 Coefficients=  4.0383857939D-05
     Exponent=  1.7504349724D+04 Coefficients=  3.1255139004D-04
     Exponent=  3.9934513230D+03 Coefficients=  1.6341473495D-03
     Exponent=  1.1330063186D+03 Coefficients=  6.8283224757D-03
     Exponent=  3.6999569594D+02 Coefficients=  2.4124410221D-02
     Exponent=  1.3362074349D+02 Coefficients=  7.2730206154D-02
     Exponent=  5.2035643649D+01 Coefficients=  1.7934429892D-01
     Exponent=  2.1461939313D+01 Coefficients=  3.3059588895D-01
 S 2 1.00
     Exponent=  8.9835051252D+01 Coefficients=  9.6468652996D-02
     Exponent=  2.6428010844D+01 Coefficients=  9.4117481120D-01
 S 1 1.00
     Exponent=  9.2822824649D+00 Coefficients=  1.0000000000D+00
 S 1 1.00
     Exponent=  4.0947728533D+00 Coefficients=  1.0000000000D+00
 S 1 1.00
     Exponent=  1.3255349078D+00 Coefficients=  1.0000000000D+00
 S 1 1.00
     Exponent=  5.1877230787D-01 Coefficients=  1.0000000000D+00
 S 1 1.00
     Exponent=  1.9772676454D-01 Coefficients=  1.0000000000D+00
 S 1 1.00
     Exponent=  6.9638535104D-02 Coefficients=  1.0000000000D+00
 P 5 1.00
     Exponent=  1.9115255810D+02 Coefficients=  2.5115697705D-03
     Exponent=  4.5233356739D+01 Coefficients=  2.0039240864D-02
     Exponent=  1.4353465922D+01 Coefficients=  9.3609064762D-02
     Exponent=  5.2422371832D+00 Coefficients=  3.0618127124D-01
     Exponent=  2.0792418599D+00 Coefficients=  6.7810501439D-01
 P 1 1.00
     Exponent=  8.4282371424D-01 Coefficients=  1.0000000000D+00
 P 1 1.00
     Exponent=  3.3617694891D-01 Coefficients=  1.0000000000D+00
 P 1 1.00
     Exponent=  1.2863997974D-01 Coefficients=  1.0000000000D+00
 P 1 1.00
     Exponent=  4.3598162776D-02 Coefficients=  1.0000000000D+00
 D 1 1.00
     Exponent=  3.7750000000D+00 Coefficients=  1.0000000000D+00
 D 1 1.00
     Exponent=  1.3000000000D+00 Coefficients=  1.0000000000D+00
 D 1 1.00
     Exponent=  4.4400000000D-01 Coefficients=  1.0000000000D+00
 D 1 1.00
     Exponent=  1.2546378695D-01 Coefficients=  1.0000000000D+00
 F 1 1.00
     Exponent=  2.6660000000D+00 Coefficients=  1.0000000000D+00
 F 1 1.00
     Exponent=  8.5900000000D-01 Coefficients=  1.0000000000D+00
 G 1 1.00
     Exponent=  1.8460000000D+00 Coefficients=  1.0000000000D+00
 ****
 Ernie: Thresh=  0.10000D-02 Tol=  0.10000D-05 Strict=F.
 There are   629 symmetry adapted cartesian basis functions of A   symmetry.
 There are   513 symmetry adapted basis functions of A   symmetry.
   513 basis functions,   761 primitive gaussians,   629 cartesian basis functions
    22 alpha electrons       22 beta electrons
       nuclear repulsion energy       206.3186289305 Hartrees.
 IExCor= 4336 DFT=T Ex+Corr=M062X ExCW=0 ScaHFX=  0.540000
 ScaDFX=  1.000000  1.000000  1.000000  1.000000 ScalE2=  1.000000  1.000000
 IRadAn=      5 IRanWt=     -1 IRanGd=            0 ICorTp=0 IEmpDi=  4
 NAtoms=   10 NActive=   10 NUniq=   10 SFac= 1.00D+00 NAtFMM=   60 NAOKFM=F Big=F
 Integral buffers will be    131072 words long.
 Raffenetti 2 integral format.
 Two-electron integral symmetry is turned on.
 Leave Link  301 at Sat Apr 17 11:27:06 2021, MaxMem=   104857600 cpu:               8.0 elap:               0.2
 (Enter /s/ls4/users/knvvv/bin/g16sse/l302.exe)
 NPDir=0 NMtPBC=     1 NCelOv=     1 NCel=       1 NClECP=     1 NCelD=      1
         NCelK=      1 NCelE2=     1 NClLst=     1 CellRange=     0.0.
 One-electron integrals computed using PRISM.
 One-electron integral symmetry used in STVInt
 PrsmSu:  requested number of processors reduced to:   4 ShMem   1 Linda.
 PrsmSu:  requested number of processors reduced to:  20 ShMem   1 Linda.
 NBasis=   513 RedAO= T EigKep=  2.24D-06  NBF=   513
 NBsUse=   512 1.00D-06 EigRej=  5.53D-07 NBFU=   512
 Precomputing XC quadrature grid using
 IXCGrd= 4 IRadAn=           5 IRanWt=          -1 IRanGd=           0 AccXCQ= 0.00D+00.
 Generated NRdTot=       0 NPtTot=           0 NUsed=           0 NTot=          32
 NSgBfM=   627   627   627   627   627 MxSgAt=    10 MxSgA2=    10.
 Leave Link  302 at Sat Apr 17 11:27:16 2021, MaxMem=   104857600 cpu:             450.6 elap:               9.7
 (Enter /s/ls4/users/knvvv/bin/g16sse/l303.exe)
 DipDrv:  MaxL=1.
 Leave Link  303 at Sat Apr 17 11:27:20 2021, MaxMem=   104857600 cpu:             192.1 elap:               4.1
 (Enter /s/ls4/users/knvvv/bin/g16sse/l401.exe)
 SCF N**3 symmetry information disabled.
 ExpMin= 4.36D-02 ExpMax= 1.17D+05 ExpMxC= 1.13D+03 IAcc=3 IRadAn=         5 AccDes= 0.00D+00
 Harris functional with IExCor= 1009 and IRadAn=       5 diagonalized for initial guess.
 HarFok:  IExCor= 1009 AccDes= 0.00D+00 IRadAn=         5 IDoV= 1 UseB2=F ITyADJ=14
 ICtDFT=  3500011 ScaDFX=  1.000000  1.000000  1.000000  1.000000
 FoFCou: FMM=F IPFlag=           0 FMFlag=      100000 FMFlg1=           0
         NFxFlg=           0 DoJE=T BraDBF=F KetDBF=T FulRan=T
         wScrn=  0.000000 ICntrl=       500 IOpCl=  0 I1Cent=   200000004 NGrid=           0
         NMat0=    1 NMatS0=      1 NMatT0=    0 NMatD0=    1 NMtDS0=    0 NMtDT0=    0
 Petite list used in FoFCou.
 CoulSu:  requested number of processors reduced to:  18 ShMem   1 Linda.
 CoulSu:  requested number of processors reduced to:  19 ShMem   1 Linda.
 CoulSu:  requested number of processors reduced to:  21 ShMem   1 Linda.
 CoulSu:  requested number of processors reduced to:  21 ShMem   1 Linda.
 Harris En= -301.335442455772    
 JPrj=0 DoOrth=F DoCkMO=F.
 Leave Link  401 at Sat Apr 17 11:27:25 2021, MaxMem=   104857600 cpu:             244.7 elap:               5.5
 (Enter /s/ls4/users/knvvv/bin/g16sse/l502.exe)
 Integral symmetry usage will be decided dynamically.
 Closed shell SCF:
 Using DIIS extrapolation, IDIIS=  1040.
 NGot=   104857600 LenX=   104031198 LenY=   103634928
 Requested convergence on RMS density matrix=1.00D-08 within 128 cycles.
 Requested convergence on MAX density matrix=1.00D-06.
 Requested convergence on             energy=1.00D-06.
 No special actions if energy rises.
 Fock matrices will be formed incrementally for  20 cycles.

 Cycle   1  Pass 1  IDiag  1:
 FoFJK:  IHMeth= 1 ICntrl=       0 DoSepK=F KAlg= 0 I1Cent=           0 FoldK=F
 IRaf= 940000000 NMat=       1 IRICut=       1 DoRegI=T DoRafI=F ISym2E= 0 IDoP0=0 IntGTp=1.
 FoFCou: FMM=F IPFlag=           0 FMFlag=      100000 FMFlg1=           0
         NFxFlg=           0 DoJE=F BraDBF=F KetDBF=F FulRan=T
         wScrn=  0.000000 ICntrl=         0 IOpCl=  0 I1Cent=           0 NGrid=           0
         NMat0=    1 NMatS0=      1 NMatT0=    0 NMatD0=    1 NMtDS0=    0 NMtDT0=    0
 Symmetry not used in FoFCou.
 CoulSu:  requested number of processors reduced to:  20 ShMem   1 Linda.
 E= -301.285064771534    
 DIIS: error= 2.41D-02 at cycle   1 NSaved=   1.
 NSaved= 1 IEnMin= 1 EnMin= -301.285064771534     IErMin= 1 ErrMin= 2.41D-02
 ErrMax= 2.41D-02  0.00D+00 EMaxC= 1.00D-01 BMatC= 3.77D-01 BMatP= 3.77D-01
 IDIUse=3 WtCom= 7.59D-01 WtEn= 2.41D-01
 Coeff-Com:  0.100D+01
 Coeff-En:   0.100D+01
 Coeff:      0.100D+01
 Gap=     0.359 Goal=   None    Shift=    0.000
 GapD=    0.359 DampG=1.000 DampE=0.500 DampFc=0.5000 IDamp=-1.
 Damping current iteration by 5.00D-01
 RMSDP=1.92D-03 MaxDP=2.34D-01              OVMax= 2.53D-01

 Cycle   2  Pass 1  IDiag  1:
 RMSU=  8.50D-04    CP:  9.05D-01
 CoulSu:  requested number of processors reduced to:  20 ShMem   1 Linda.
 E= -301.359756817291     Delta-E=       -0.074692045756 Rises=F Damp=T
 DIIS: error= 1.37D-02 at cycle   2 NSaved=   2.
 NSaved= 2 IEnMin= 2 EnMin= -301.359756817291     IErMin= 2 ErrMin= 1.37D-02
 ErrMax= 1.37D-02  0.00D+00 EMaxC= 1.00D-01 BMatC= 6.04D-02 BMatP= 3.77D-01
 IDIUse=3 WtCom= 8.63D-01 WtEn= 1.37D-01
 Coeff-Com: -0.103D-01 0.101D+01
 Coeff-En:   0.166D+00 0.834D+00
 Coeff:      0.137D-01 0.986D+00
 Gap=     0.366 Goal=   None    Shift=    0.000
 RMSDP=1.05D-03 MaxDP=1.08D-01 DE=-7.47D-02 OVMax= 1.30D-01

 Cycle   3  Pass 1  IDiag  1:
 RMSU=  8.02D-04    CP:  8.17D-01  1.63D+00
 CoulSu:  requested number of processors reduced to:  20 ShMem   1 Linda.
 E= -301.444612552247     Delta-E=       -0.084855734956 Rises=F Damp=F
 DIIS: error= 7.00D-03 at cycle   3 NSaved=   3.
 NSaved= 3 IEnMin= 3 EnMin= -301.444612552247     IErMin= 3 ErrMin= 7.00D-03
 ErrMax= 7.00D-03  0.00D+00 EMaxC= 1.00D-01 BMatC= 3.75D-02 BMatP= 6.04D-02
 IDIUse=3 WtCom= 9.30D-01 WtEn= 7.00D-02
 Coeff-Com: -0.143D+00 0.503D+00 0.640D+00
 Coeff-En:   0.000D+00 0.000D+00 0.100D+01
 Coeff:     -0.133D+00 0.468D+00 0.665D+00
 Gap=     0.365 Goal=   None    Shift=    0.000
 RMSDP=2.90D-04 MaxDP=1.34D-02 DE=-8.49D-02 OVMax= 6.02D-02

 Cycle   4  Pass 1  IDiag  1:
 RMSU=  2.85D-04    CP:  8.15D-01  1.68D+00  9.61D-01
 CoulSu:  requested number of processors reduced to:  20 ShMem   1 Linda.
 E= -301.468195641465     Delta-E=       -0.023583089218 Rises=F Damp=F
 DIIS: error= 3.02D-03 at cycle   4 NSaved=   4.
 NSaved= 4 IEnMin= 4 EnMin= -301.468195641465     IErMin= 4 ErrMin= 3.02D-03
 ErrMax= 3.02D-03  0.00D+00 EMaxC= 1.00D-01 BMatC= 6.09D-03 BMatP= 3.75D-02
 IDIUse=3 WtCom= 9.70D-01 WtEn= 3.02D-02
 Coeff-Com: -0.574D-01 0.131D+00 0.353D+00 0.573D+00
 Coeff-En:   0.000D+00 0.000D+00 0.145D+00 0.855D+00
 Coeff:     -0.557D-01 0.127D+00 0.347D+00 0.581D+00
 Gap=     0.341 Goal=   None    Shift=    0.000
 RMSDP=1.03D-04 MaxDP=5.37D-03 DE=-2.36D-02 OVMax= 1.91D-02

 Cycle   5  Pass 1  IDiag  1:
 RMSU=  6.47D-05    CP:  8.12D-01  1.68D+00  9.66D-01  7.25D-01
 CoulSu:  requested number of processors reduced to:  20 ShMem   1 Linda.
 E= -301.472897265803     Delta-E=       -0.004701624338 Rises=F Damp=F
 DIIS: error= 9.18D-04 at cycle   5 NSaved=   5.
 NSaved= 5 IEnMin= 5 EnMin= -301.472897265803     IErMin= 5 ErrMin= 9.18D-04
 ErrMax= 9.18D-04  0.00D+00 EMaxC= 1.00D-01 BMatC= 2.47D-04 BMatP= 6.09D-03
 IDIUse=3 WtCom= 9.91D-01 WtEn= 9.18D-03
 Coeff-Com: -0.249D-01 0.519D-01 0.160D+00 0.304D+00 0.509D+00
 Coeff-En:   0.000D+00 0.000D+00 0.000D+00 0.000D+00 0.100D+01
 Coeff:     -0.247D-01 0.514D-01 0.159D+00 0.301D+00 0.514D+00
 Gap=     0.343 Goal=   None    Shift=    0.000
 RMSDP=2.07D-05 MaxDP=1.32D-03 DE=-4.70D-03 OVMax= 5.09D-03

 Cycle   6  Pass 1  IDiag  1:
 RMSU=  2.04D-05    CP:  8.12D-01  1.68D+00  9.67D-01  7.26D-01  9.59D-01
 CoulSu:  requested number of processors reduced to:  20 ShMem   1 Linda.
 E= -301.473073281003     Delta-E=       -0.000176015200 Rises=F Damp=F
 DIIS: error= 2.54D-04 at cycle   6 NSaved=   6.
 NSaved= 6 IEnMin= 6 EnMin= -301.473073281003     IErMin= 6 ErrMin= 2.54D-04
 ErrMax= 2.54D-04  0.00D+00 EMaxC= 1.00D-01 BMatC= 2.16D-05 BMatP= 2.47D-04
 IDIUse=3 WtCom= 9.97D-01 WtEn= 2.54D-03
 Coeff-Com: -0.233D-02 0.360D-02 0.198D-01 0.505D-01 0.243D+00 0.686D+00
 Coeff-En:   0.000D+00 0.000D+00 0.000D+00 0.000D+00 0.000D+00 0.100D+01
 Coeff:     -0.233D-02 0.359D-02 0.197D-01 0.504D-01 0.242D+00 0.687D+00
 Gap=     0.342 Goal=   None    Shift=    0.000
 RMSDP=1.22D-05 MaxDP=1.10D-03 DE=-1.76D-04 OVMax= 2.06D-03

 Cycle   7  Pass 1  IDiag  1:
 RMSU=  8.67D-06    CP:  8.11D-01  1.68D+00  9.67D-01  7.31D-01  1.08D+00
                    CP:  1.13D+00
 CoulSu:  requested number of processors reduced to:  20 ShMem   1 Linda.
 E= -301.473089805063     Delta-E=       -0.000016524060 Rises=F Damp=F
 DIIS: error= 7.92D-05 at cycle   7 NSaved=   7.
 NSaved= 7 IEnMin= 7 EnMin= -301.473089805063     IErMin= 7 ErrMin= 7.92D-05
 ErrMax= 7.92D-05  0.00D+00 EMaxC= 1.00D-01 BMatC= 3.78D-06 BMatP= 2.16D-05
 IDIUse=1 WtCom= 1.00D+00 WtEn= 0.00D+00
 Coeff-Com:  0.334D-02-0.740D-02-0.183D-01-0.308D-01 0.276D-01 0.356D+00
 Coeff-Com:  0.669D+00
 Coeff:      0.334D-02-0.740D-02-0.183D-01-0.308D-01 0.276D-01 0.356D+00
 Coeff:      0.669D+00
 Gap=     0.343 Goal=   None    Shift=    0.000
 RMSDP=5.37D-06 MaxDP=4.32D-04 DE=-1.65D-05 OVMax= 5.54D-04

 Cycle   8  Pass 1  IDiag  1:
 RMSU=  3.77D-06    CP:  8.11D-01  1.68D+00  9.68D-01  7.35D-01  1.13D+00
                    CP:  1.19D+00  1.07D+00
 CoulSu:  requested number of processors reduced to:  20 ShMem   1 Linda.
 E= -301.473093135352     Delta-E=       -0.000003330289 Rises=F Damp=F
 DIIS: error= 2.05D-05 at cycle   8 NSaved=   8.
 NSaved= 8 IEnMin= 8 EnMin= -301.473093135352     IErMin= 8 ErrMin= 2.05D-05
 ErrMax= 2.05D-05  0.00D+00 EMaxC= 1.00D-01 BMatC= 1.60D-07 BMatP= 3.78D-06
 IDIUse=1 WtCom= 1.00D+00 WtEn= 0.00D+00
 Coeff-Com:  0.119D-02-0.251D-02-0.603D-02-0.126D-01-0.136D-01 0.489D-01
 Coeff-Com:  0.158D+00 0.827D+00
 Coeff:      0.119D-02-0.251D-02-0.603D-02-0.126D-01-0.136D-01 0.489D-01
 Coeff:      0.158D+00 0.827D+00
 Gap=     0.343 Goal=   None    Shift=    0.000
 RMSDP=1.58D-06 MaxDP=9.86D-05 DE=-3.33D-06 OVMax= 2.20D-04

 Cycle   9  Pass 1  IDiag  1:
 RMSU=  1.31D-06    CP:  8.11D-01  1.68D+00  9.68D-01  7.36D-01  1.13D+00
                    CP:  1.19D+00  1.10D+00  1.15D+00
 CoulSu:  requested number of processors reduced to:  20 ShMem   1 Linda.
 E= -301.473093328336     Delta-E=       -0.000000192984 Rises=F Damp=F
 DIIS: error= 5.28D-06 at cycle   9 NSaved=   9.
 NSaved= 9 IEnMin= 9 EnMin= -301.473093328336     IErMin= 9 ErrMin= 5.28D-06
 ErrMax= 5.28D-06  0.00D+00 EMaxC= 1.00D-01 BMatC= 2.27D-08 BMatP= 1.60D-07
 IDIUse=1 WtCom= 1.00D+00 WtEn= 0.00D+00
 Coeff-Com: -0.747D-04 0.170D-03 0.759D-03 0.340D-03-0.651D-02-0.230D-01
 Coeff-Com: -0.491D-01 0.206D+00 0.872D+00
 Coeff:     -0.747D-04 0.170D-03 0.759D-03 0.340D-03-0.651D-02-0.230D-01
 Coeff:     -0.491D-01 0.206D+00 0.872D+00
 Gap=     0.343 Goal=   None    Shift=    0.000
 RMSDP=6.37D-07 MaxDP=4.40D-05 DE=-1.93D-07 OVMax= 7.48D-05

 Cycle  10  Pass 1  IDiag  1:
 RMSU=  4.19D-07    CP:  8.11D-01  1.68D+00  9.68D-01  7.35D-01  1.13D+00
                    CP:  1.19D+00  1.11D+00  1.21D+00  1.30D+00
 CoulSu:  requested number of processors reduced to:  20 ShMem   1 Linda.
 E= -301.473093355706     Delta-E=       -0.000000027370 Rises=F Damp=F
 DIIS: error= 1.63D-06 at cycle  10 NSaved=  10.
 NSaved=10 IEnMin=10 EnMin= -301.473093355706     IErMin=10 ErrMin= 1.63D-06
 ErrMax= 1.63D-06  0.00D+00 EMaxC= 1.00D-01 BMatC= 1.41D-09 BMatP= 2.27D-08
 IDIUse=1 WtCom= 1.00D+00 WtEn= 0.00D+00
 Coeff-Com: -0.124D-03 0.262D-03 0.715D-03 0.120D-02 0.808D-04-0.720D-02
 Coeff-Com: -0.264D-01-0.452D-01 0.180D+00 0.897D+00
 Coeff:     -0.124D-03 0.262D-03 0.715D-03 0.120D-02 0.808D-04-0.720D-02
 Coeff:     -0.264D-01-0.452D-01 0.180D+00 0.897D+00
 Gap=     0.343 Goal=   None    Shift=    0.000
 RMSDP=1.80D-07 MaxDP=1.32D-05 DE=-2.74D-08 OVMax= 2.90D-05

 Cycle  11  Pass 1  IDiag  1:
 RMSU=  1.04D-07    CP:  8.11D-01  1.68D+00  9.68D-01  7.35D-01  1.13D+00
                    CP:  1.19D+00  1.11D+00  1.23D+00  1.38D+00  1.03D+00
 CoulSu:  requested number of processors reduced to:  20 ShMem   1 Linda.
 E= -301.473093357809     Delta-E=       -0.000000002103 Rises=F Damp=F
 DIIS: error= 2.84D-07 at cycle  11 NSaved=  11.
 NSaved=11 IEnMin=11 EnMin= -301.473093357809     IErMin=11 ErrMin= 2.84D-07
 ErrMax= 2.84D-07  0.00D+00 EMaxC= 1.00D-01 BMatC= 7.52D-11 BMatP= 1.41D-09
 IDIUse=1 WtCom= 1.00D+00 WtEn= 0.00D+00
 Coeff-Com: -0.183D-04 0.396D-04 0.992D-04 0.187D-03 0.199D-03-0.388D-03
 Coeff-Com: -0.343D-02-0.185D-01-0.999D-02 0.182D+00 0.850D+00
 Coeff:     -0.183D-04 0.396D-04 0.992D-04 0.187D-03 0.199D-03-0.388D-03
 Coeff:     -0.343D-02-0.185D-01-0.999D-02 0.182D+00 0.850D+00
 Gap=     0.343 Goal=   None    Shift=    0.000
 RMSDP=4.05D-08 MaxDP=2.14D-06 DE=-2.10D-09 OVMax= 5.50D-06

 Cycle  12  Pass 1  IDiag  1:
 RMSU=  3.46D-08    CP:  8.11D-01  1.68D+00  9.68D-01  7.35D-01  1.13D+00
                    CP:  1.19D+00  1.11D+00  1.23D+00  1.38D+00  1.05D+00
                    CP:  1.10D+00
 CoulSu:  requested number of processors reduced to:  20 ShMem   1 Linda.
 E= -301.473093357910     Delta-E=       -0.000000000102 Rises=F Damp=F
 DIIS: error= 1.57D-07 at cycle  12 NSaved=  12.
 NSaved=12 IEnMin=12 EnMin= -301.473093357910     IErMin=12 ErrMin= 1.57D-07
 ErrMax= 1.57D-07  0.00D+00 EMaxC= 1.00D-01 BMatC= 9.63D-12 BMatP= 7.52D-11
 IDIUse=1 WtCom= 1.00D+00 WtEn= 0.00D+00
 Coeff-Com:  0.480D-05-0.954D-05-0.157D-04-0.314D-04 0.179D-04 0.456D-03
 Coeff-Com:  0.838D-03-0.369D-03-0.149D-01-0.295D-01 0.122D+00 0.921D+00
 Coeff:      0.480D-05-0.954D-05-0.157D-04-0.314D-04 0.179D-04 0.456D-03
 Coeff:      0.838D-03-0.369D-03-0.149D-01-0.295D-01 0.122D+00 0.921D+00
 Gap=     0.343 Goal=   None    Shift=    0.000
 RMSDP=1.39D-08 MaxDP=1.25D-06 DE=-1.02D-10 OVMax= 1.13D-06

 Cycle  13  Pass 1  IDiag  1:
 RMSU=  7.63D-09    CP:  8.11D-01  1.68D+00  9.68D-01  7.35D-01  1.13D+00
                    CP:  1.19D+00  1.11D+00  1.23D+00  1.38D+00  1.06D+00
                    CP:  1.15D+00  1.18D+00
 CoulSu:  requested number of processors reduced to:  20 ShMem   1 Linda.
 E= -301.473093357910     Delta-E=        0.000000000000 Rises=F Damp=F
 DIIS: error= 3.33D-08 at cycle  13 NSaved=  13.
 NSaved=13 IEnMin=12 EnMin= -301.473093357910     IErMin=13 ErrMin= 3.33D-08
 ErrMax= 3.33D-08  0.00D+00 EMaxC= 1.00D-01 BMatC= 6.45D-13 BMatP= 9.63D-12
 IDIUse=1 WtCom= 1.00D+00 WtEn= 0.00D+00
 Coeff-Com:  0.202D-05-0.417D-05-0.607D-05-0.138D-04-0.773D-05 0.154D-03
 Coeff-Com:  0.343D-03 0.807D-03-0.349D-02-0.179D-01-0.132D-01 0.280D+00
 Coeff-Com:  0.753D+00
 Coeff:      0.202D-05-0.417D-05-0.607D-05-0.138D-04-0.773D-05 0.154D-03
 Coeff:      0.343D-03 0.807D-03-0.349D-02-0.179D-01-0.132D-01 0.280D+00
 Coeff:      0.753D+00
 Gap=     0.343 Goal=   None    Shift=    0.000
 RMSDP=2.98D-09 MaxDP=3.00D-07 DE= 2.27D-13 OVMax= 2.27D-07

 SCF Done:  E(RM062X) =  -301.473093358     A.U. after   13 cycles
            NFock= 13  Conv=0.30D-08     -V/T= 2.0041
 KE= 3.002432994332D+02 PE=-1.117188846566D+03 EE= 3.091538248448D+02
 Leave Link  502 at Sat Apr 17 11:31:21 2021, MaxMem=   104857600 cpu:            6229.6 elap:             235.8
 (Enter /s/ls4/users/knvvv/bin/g16sse/l601.exe)
 Copying SCF densities to generalized density rwf, IOpCl= 0 IROHF=0.

 **********************************************************************

            Population analysis using the SCF density.

 **********************************************************************

 Orbital symmetries:
       Occupied  (A) (A) (A) (A) (A) (A) (A) (A) (A) (A) (A) (A)
                 (A) (A) (A) (A) (A) (A) (A) (A) (A) (A)
       Virtual   (A) (A) (A) (A) (A) (A) (A) (A) (A) (A) (A) (A)
                 (A) (A) (A) (A) (A) (A) (A) (A) (A) (A) (A) (A)
                 (A) (A) (A) (A) (A) (A) (A) (A) (A) (A) (A) (A)
                 (A) (A) (A) (A) (A) (A) (A) (A) (A) (A) (A) (A)
                 (A) (A) (A) (A) (A) (A) (A) (A) (A) (A) (A) (A)
                 (A) (A) (A) (A) (A) (A) (A) (A) (A) (A) (A) (A)
                 (A) (A) (A) (A) (A) (A) (A) (A) (A) (A) (A) (A)
                 (A) (A) (A) (A) (A) (A) (A) (A) (A) (A) (A) (A)
                 (A) (A) (A) (A) (A) (A) (A) (A) (A) (A) (A) (A)
                 (A) (A) (A) (A) (A) (A) (A) (A) (A) (A) (A) (A)
                 (A) (A) (A) (A) (A) (A) (A) (A) (A) (A) (A) (A)
                 (A) (A) (A) (A) (A) (A) (A) (A) (A) (A) (A) (A)
                 (A) (A) (A) (A) (A) (A) (A) (A) (A) (A) (A) (A)
                 (A) (A) (A) (A) (A) (A) (A) (A) (A) (A) (A) (A)
                 (A) (A) (A) (A) (A) (A) (A) (A) (A) (A) (A) (A)
                 (A) (A) (A) (A) (A) (A) (A) (A) (A) (A) (A) (A)
                 (A) (A) (A) (A) (A) (A) (A) (A) (A) (A) (A) (A)
                 (A) (A) (A) (A) (A) (A) (A) (A) (A) (A) (A) (A)
                 (A) (A) (A) (A) (A) (A) (A) (A) (A) (A) (A) (A)
                 (A) (A) (A) (A) (A) (A) (A) (A) (A) (A) (A) (A)
                 (A) (A) (A) (A) (A) (A) (A) (A) (A) (A) (A) (A)
                 (A) (A) (A) (A) (A) (A) (A) (A) (A) (A) (A) (A)
                 (A) (A) (A) (A) (A) (A) (A) (A) (A) (A) (A) (A)
                 (A) (A) (A) (A) (A) (A) (A) (A) (A) (A) (A) (A)
                 (A) (A) (A) (A) (A) (A) (A) (A) (A) (A) (A) (A)
                 (A) (A) (A) (A) (A) (A) (A) (A) (A) (A) (A) (A)
                 (A) (A) (A) (A) (A) (A) (A) (A) (A) (A) (A) (A)
                 (A) (A) (A) (A) (A) (A) (A) (A) (A) (A) (A) (A)
                 (A) (A) (A) (A) (A) (A) (A) (A) (A) (A) (A) (A)
                 (A) (A) (A) (A) (A) (A) (A) (A) (A) (A) (A) (A)
                 (A) (A) (A) (A) (A) (A) (A) (A) (A) (A) (A) (A)
                 (A) (A) (A) (A) (A) (A) (A) (A) (A) (A) (A) (A)
                 (A) (A) (A) (A) (A) (A) (A) (A) (A) (A) (A) (A)
                 (A) (A) (A) (A) (A) (A) (A) (A) (A) (A) (A) (A)
                 (A) (A) (A) (A) (A) (A) (A) (A) (A) (A) (A) (A)
                 (A) (A) (A) (A) (A) (A) (A) (A) (A) (A) (A) (A)
                 (A) (A) (A) (A) (A) (A) (A) (A) (A) (A) (A) (A)
                 (A) (A) (A) (A) (A) (A) (A) (A) (A) (A) (A) (A)
                 (A) (A) (A) (A) (A) (A) (A) (A) (A) (A) (A) (A)
                 (A) (A) (A) (A) (A) (A) (A) (A) (A) (A) (A) (A)
                 (A) (A) (A) (A) (A) (A) (A) (A) (A) (A)
 The electronic state is 1-A.
 Alpha  occ. eigenvalues --  -19.61703 -14.80763 -14.75496 -10.68461 -10.61496
 Alpha  occ. eigenvalues --  -10.58391  -1.18061  -1.05171  -1.02020  -0.90331
 Alpha  occ. eigenvalues --   -0.72204  -0.66069  -0.60181  -0.58717  -0.56649
 Alpha  occ. eigenvalues --   -0.51319  -0.49073  -0.44431  -0.40588  -0.40157
 Alpha  occ. eigenvalues --   -0.36894  -0.36014
 Alpha virt. eigenvalues --   -0.01737   0.01585   0.01766   0.02831   0.04733
 Alpha virt. eigenvalues --    0.05251   0.05984   0.06561   0.06866   0.07487
 Alpha virt. eigenvalues --    0.08915   0.09811   0.10972   0.11465   0.12488
 Alpha virt. eigenvalues --    0.14011   0.14501   0.14738   0.15463   0.16040
 Alpha virt. eigenvalues --    0.18129   0.19065   0.19756   0.20332   0.20878
 Alpha virt. eigenvalues --    0.22356   0.23313   0.23615   0.23835   0.24550
 Alpha virt. eigenvalues --    0.25691   0.26107   0.26327   0.27709   0.28296
 Alpha virt. eigenvalues --    0.29434   0.30173   0.30516   0.31867   0.32873
 Alpha virt. eigenvalues --    0.33208   0.33688   0.33897   0.35466   0.36019
 Alpha virt. eigenvalues --    0.36510   0.37680   0.38169   0.39676   0.40522
 Alpha virt. eigenvalues --    0.41554   0.42512   0.42679   0.43383   0.43933
 Alpha virt. eigenvalues --    0.45393   0.46350   0.46950   0.47730   0.49306
 Alpha virt. eigenvalues --    0.49486   0.50071   0.50424   0.51603   0.51962
 Alpha virt. eigenvalues --    0.53737   0.54258   0.54646   0.55607   0.56073
 Alpha virt. eigenvalues --    0.56729   0.57853   0.58712   0.60558   0.61080
 Alpha virt. eigenvalues --    0.63045   0.63401   0.65395   0.65826   0.67274
 Alpha virt. eigenvalues --    0.68664   0.69812   0.70413   0.72422   0.74570
 Alpha virt. eigenvalues --    0.76001   0.77090   0.78299   0.79280   0.80047
 Alpha virt. eigenvalues --    0.80799   0.83341   0.83921   0.86008   0.86980
 Alpha virt. eigenvalues --    0.88974   0.89584   0.90038   0.91171   0.93355
 Alpha virt. eigenvalues --    0.95203   0.96440   0.98102   0.98761   1.02503
 Alpha virt. eigenvalues --    1.03375   1.04494   1.06044   1.06789   1.08029
 Alpha virt. eigenvalues --    1.09811   1.11299   1.13266   1.15560   1.17776
 Alpha virt. eigenvalues --    1.18528   1.19932   1.20309   1.22516   1.25446
 Alpha virt. eigenvalues --    1.26713   1.28719   1.29495   1.30424   1.31631
 Alpha virt. eigenvalues --    1.34205   1.37304   1.38734   1.39842   1.40803
 Alpha virt. eigenvalues --    1.41427   1.42294   1.46064   1.48835   1.49971
 Alpha virt. eigenvalues --    1.52750   1.54052   1.55320   1.61579   1.64524
 Alpha virt. eigenvalues --    1.67548   1.68465   1.70013   1.71927   1.72879
 Alpha virt. eigenvalues --    1.74892   1.76198   1.76961   1.79177   1.82187
 Alpha virt. eigenvalues --    1.84119   1.86110   1.87021   1.90315   1.91597
 Alpha virt. eigenvalues --    1.93520   1.98062   1.98997   2.00081   2.03892
 Alpha virt. eigenvalues --    2.04756   2.05793   2.06802   2.08314   2.11212
 Alpha virt. eigenvalues --    2.11590   2.14597   2.15555   2.17017   2.17580
 Alpha virt. eigenvalues --    2.21155   2.21971   2.23983   2.25596   2.27397
 Alpha virt. eigenvalues --    2.31492   2.34031   2.35842   2.37977   2.38733
 Alpha virt. eigenvalues --    2.41423   2.42673   2.45741   2.47583   2.48647
 Alpha virt. eigenvalues --    2.50186   2.52879   2.54508   2.56239   2.58397
 Alpha virt. eigenvalues --    2.58550   2.62043   2.62984   2.64733   2.66990
 Alpha virt. eigenvalues --    2.68271   2.68945   2.71514   2.73284   2.74985
 Alpha virt. eigenvalues --    2.75915   2.77347   2.78874   2.82704   2.83555
 Alpha virt. eigenvalues --    2.84824   2.89385   2.89871   2.91425   2.95872
 Alpha virt. eigenvalues --    2.97313   2.98264   3.00383   3.01696   3.04605
 Alpha virt. eigenvalues --    3.06504   3.09863   3.13413   3.13850   3.15443
 Alpha virt. eigenvalues --    3.17878   3.22340   3.23651   3.25412   3.27346
 Alpha virt. eigenvalues --    3.31607   3.32785   3.39376   3.40452   3.41299
 Alpha virt. eigenvalues --    3.44145   3.47704   3.48693   3.51140   3.53853
 Alpha virt. eigenvalues --    3.55240   3.57778   3.58856   3.65536   3.65643
 Alpha virt. eigenvalues --    3.67675   3.73056   3.74683   3.79953   3.82148
 Alpha virt. eigenvalues --    3.84838   3.88668   3.91702   3.93117   3.94460
 Alpha virt. eigenvalues --    3.97816   3.99547   4.02710   4.07395   4.10328
 Alpha virt. eigenvalues --    4.12484   4.16460   4.21362   4.24976   4.27844
 Alpha virt. eigenvalues --    4.36915   4.38005   4.43789   4.48512   4.53079
 Alpha virt. eigenvalues --    4.55910   4.61096   4.69809   4.74953   4.76115
 Alpha virt. eigenvalues --    4.79293   4.81722   4.85414   4.91531   4.97932
 Alpha virt. eigenvalues --    5.01648   5.03548   5.04384   5.07963   5.09174
 Alpha virt. eigenvalues --    5.11667   5.15606   5.17185   5.20689   5.24894
 Alpha virt. eigenvalues --    5.28430   5.32829   5.36007   5.39412   5.43139
 Alpha virt. eigenvalues --    5.45081   5.47661   5.51297   5.57497   5.59809
 Alpha virt. eigenvalues --    5.60950   5.64831   5.68014   5.69479   5.73153
 Alpha virt. eigenvalues --    5.73908   5.75764   5.78180   5.81663   5.85238
 Alpha virt. eigenvalues --    5.87194   5.88141   5.88739   5.90149   5.94259
 Alpha virt. eigenvalues --    5.96171   5.98355   6.01809   6.02478   6.06470
 Alpha virt. eigenvalues --    6.06586   6.08414   6.09559   6.14175   6.18028
 Alpha virt. eigenvalues --    6.20445   6.22580   6.26375   6.30150   6.33499
 Alpha virt. eigenvalues --    6.34702   6.36337   6.41922   6.50201   6.51520
 Alpha virt. eigenvalues --    6.55256   6.56286   6.58196   6.60935   6.62479
 Alpha virt. eigenvalues --    6.64186   6.65721   6.72950   6.75264   6.79225
 Alpha virt. eigenvalues --    6.79495   6.79534   6.80610   6.83322   6.86591
 Alpha virt. eigenvalues --    6.90724   6.98268   7.00704   7.04683   7.05263
 Alpha virt. eigenvalues --    7.07613   7.09967   7.14162   7.21048   7.21319
 Alpha virt. eigenvalues --    7.23559   7.26519   7.28517   7.29191   7.32620
 Alpha virt. eigenvalues --    7.37098   7.40449   7.42848   7.44469   7.46879
 Alpha virt. eigenvalues --    7.50397   7.52501   7.55869   7.60509   7.63425
 Alpha virt. eigenvalues --    7.65034   7.68240   7.71447   7.73190   7.75561
 Alpha virt. eigenvalues --    7.81469   7.83636   7.87457   7.89843   7.91446
 Alpha virt. eigenvalues --    7.96418   7.99031   8.05873   8.08988   8.10509
 Alpha virt. eigenvalues --    8.15089   8.16361   8.16788   8.17669   8.21900
 Alpha virt. eigenvalues --    8.25279   8.28660   8.32250   8.35491   8.37103
 Alpha virt. eigenvalues --    8.37535   8.38425   8.42504   8.45077   8.45713
 Alpha virt. eigenvalues --    8.47653   8.50702   8.54174   8.55876   8.56724
 Alpha virt. eigenvalues --    8.58797   8.62881   8.65910   8.71605   8.73456
 Alpha virt. eigenvalues --    8.75679   8.81342   8.83339   8.84355   8.85817
 Alpha virt. eigenvalues --    8.87840   8.91246   8.92281   8.96035   8.98536
 Alpha virt. eigenvalues --    9.04705   9.06221   9.10731   9.16773   9.22636
 Alpha virt. eigenvalues --    9.35689   9.37604   9.39923   9.46027   9.47423
 Alpha virt. eigenvalues --    9.55300   9.57787   9.61982   9.64911   9.71880
 Alpha virt. eigenvalues --    9.74716   9.79014   9.81557   9.84807   9.90774
 Alpha virt. eigenvalues --    9.92803   9.97706  10.04999  10.08648  10.14370
 Alpha virt. eigenvalues --   10.23579  10.28503  10.39740  10.51720  10.67853
 Alpha virt. eigenvalues --   10.92404  10.94929  11.14982  11.22000  11.24163
 Alpha virt. eigenvalues --   11.32268  11.37952  11.40848  11.50547  11.53794
 Alpha virt. eigenvalues --   11.57233  11.59095  11.68106  11.73709  11.83848
 Alpha virt. eigenvalues --   11.96506  12.03610  12.04941  12.17180  12.31151
 Alpha virt. eigenvalues --   12.79289  12.97588  13.19282  13.38135  14.12909
 Alpha virt. eigenvalues --   14.25230  14.38630  14.80830  28.47969  28.87942
 Alpha virt. eigenvalues --   29.33302  38.09326  38.22255  48.24155 145.91811
 Alpha virt. eigenvalues --  146.41859 146.87913 195.65443 195.81383 251.34137
          Condensed to atoms (all electrons):
               1          2          3          4          5          6
     1  C    5.780866   0.015494  -0.086115  -0.038098  -0.046144  -0.003785
     2  C    0.015494   5.366329   0.254104   0.363737   0.355648   0.000934
     3  C   -0.086115   0.254104   4.515553  -0.019317  -0.062854  -0.012405
     4  H   -0.038098   0.363737  -0.019317   0.429544  -0.004263   0.000451
     5  H   -0.046144   0.355648  -0.062854  -0.004263   0.472895   0.001033
     6  H   -0.003785   0.000934  -0.012405   0.000451   0.001033   0.346289
     7  H   -0.007632   0.021870  -0.046867  -0.007251  -0.009015  -0.029829
     8  N    0.203887   0.048384  -0.010008   0.004515   0.008281   0.000192
     9  N    0.009473  -0.095519   0.558083  -0.012246  -0.008316   0.301371
    10  O    0.003368  -0.058212   0.455421   0.001588   0.000838   0.027240
               7          8          9         10
     1  C   -0.007632   0.203887   0.009473   0.003368
     2  C    0.021870   0.048384  -0.095519  -0.058212
     3  C   -0.046867  -0.010008   0.558083   0.455421
     4  H   -0.007251   0.004515  -0.012246   0.001588
     5  H   -0.009015   0.008281  -0.008316   0.000838
     6  H   -0.029829   0.000192   0.301371   0.027240
     7  H    0.380680   0.000180   0.344182   0.008809
     8  N    0.000180   7.252392  -0.000764  -0.001026
     9  N    0.344182  -0.000764   6.618176  -0.090139
    10  O    0.008809  -0.001026  -0.090139   8.158723
 Mulliken charges:
               1
     1  C    0.168685
     2  C   -0.272769
     3  C    0.454405
     4  H    0.281341
     5  H    0.291897
     6  H    0.368510
     7  H    0.344874
     8  N   -0.506032
     9  N   -0.624301
    10  O   -0.506610
 Sum of Mulliken charges =  -0.00000
 Mulliken charges with hydrogens summed into heavy atoms:
               1
     1  C    0.168685
     2  C    0.300470
     3  C    0.454405
     8  N   -0.506032
     9  N    0.089082
    10  O   -0.506610
 Electronic spatial extent (au):  <R**2>=            595.7166
 Charge=             -0.0000 electrons
 Dipole moment (field-independent basis, Debye):
    X=              5.2828    Y=             -5.0656    Z=              0.4121  Tot=              7.3306
 Quadrupole moment (field-independent basis, Debye-Ang):
   XX=            -37.3486   YY=            -35.2631   ZZ=            -34.6397
   XY=             -0.8133   XZ=             -0.7588   YZ=             -0.4345
 Traceless Quadrupole moment (field-independent basis, Debye-Ang):
   XX=             -1.5981   YY=              0.4874   ZZ=              1.1108
   XY=             -0.8133   XZ=             -0.7588   YZ=             -0.4345
 Octapole moment (field-independent basis, Debye-Ang**2):
  XXX=             70.1937  YYY=            -11.0956  ZZZ=              1.7964  XYY=              5.6123
  XXY=             -5.7733  XXZ=              1.6821  XZZ=              1.1023  YZZ=             -0.5538
  YYZ=             -0.6333  XYZ=             -0.2915
 Hexadecapole moment (field-independent basis, Debye-Ang**3):
 XXXX=           -594.5794 YYYY=           -155.0260 ZZZZ=            -42.4322 XXXY=             10.2880
 XXXZ=             -7.9663 YYYX=            -12.2701 YYYZ=              1.1461 ZZZX=             -0.0411
 ZZZY=             -1.3734 XXYY=           -115.3074 XXZZ=           -110.5251 YYZZ=            -31.4876
 XXYZ=              0.4775 YYXZ=             -1.1340 ZZXY=              1.8264
 N-N= 2.063186289305D+02 E-N=-1.117188852239D+03  KE= 3.002432994332D+02
 PrsmSu:  requested number of processors reduced to:  20 ShMem   1 Linda.
 No NMR shielding tensors so no spin-rotation constants.
 Leave Link  601 at Sat Apr 17 11:31:27 2021, MaxMem=   104857600 cpu:             274.1 elap:               6.0
 (Enter /s/ls4/users/knvvv/bin/g16sse/l801.exe)
 DoSCS=F DFT=T ScalE2(SS,OS)=  1.000000  1.000000
 Range of M.O.s used for correlation:     1   512
 NBasis=   513 NAE=    22 NBE=    22 NFC=     0 NFV=     0
 NROrb=    512 NOA=    22 NOB=    22 NVA=   490 NVB=   490

 **** Warning!!: The largest alpha MO coefficient is  0.10037708D+03

 Leave Link  801 at Sat Apr 17 11:31:27 2021, MaxMem=   104857600 cpu:               3.9 elap:               0.1
 (Enter /s/ls4/users/knvvv/bin/g16sse/l914.exe)
 RHF ground state
 Doing stability rather than CIS.
 Two-electron integrals replicated using symmetry.
 MDV=   104857600 DFT=T DoStab=T Mixed=T DoRPA=F DoScal=F NonHer=F
 Making orbital integer symmetry assigments:
 Orbital symmetries:
       Occupied  (A) (A) (A) (A) (A) (A) (A) (A) (A) (A) (A) (A)
                 (A) (A) (A) (A) (A) (A) (A) (A) (A) (A)
       Virtual   (A) (A) (A) (A) (A) (A) (A) (A) (A) (A) (A) (A)
                 (A) (A) (A) (A) (A) (A) (A) (A) (A) (A) (A) (A)
                 (A) (A) (A) (A) (A) (A) (A) (A) (A) (A) (A) (A)
                 (A) (A) (A) (A) (A) (A) (A) (A) (A) (A) (A) (A)
                 (A) (A) (A) (A) (A) (A) (A) (A) (A) (A) (A) (A)
                 (A) (A) (A) (A) (A) (A) (A) (A) (A) (A) (A) (A)
                 (A) (A) (A) (A) (A) (A) (A) (A) (A) (A) (A) (A)
                 (A) (A) (A) (A) (A) (A) (A) (A) (A) (A) (A) (A)
                 (A) (A) (A) (A) (A) (A) (A) (A) (A) (A) (A) (A)
                 (A) (A) (A) (A) (A) (A) (A) (A) (A) (A) (A) (A)
                 (A) (A) (A) (A) (A) (A) (A) (A) (A) (A) (A) (A)
                 (A) (A) (A) (A) (A) (A) (A) (A) (A) (A) (A) (A)
                 (A) (A) (A) (A) (A) (A) (A) (A) (A) (A) (A) (A)
                 (A) (A) (A) (A) (A) (A) (A) (A) (A) (A) (A) (A)
                 (A) (A) (A) (A) (A) (A) (A) (A) (A) (A) (A) (A)
                 (A) (A) (A) (A) (A) (A) (A) (A) (A) (A) (A) (A)
                 (A) (A) (A) (A) (A) (A) (A) (A) (A) (A) (A) (A)
                 (A) (A) (A) (A) (A) (A) (A) (A) (A) (A) (A) (A)
                 (A) (A) (A) (A) (A) (A) (A) (A) (A) (A) (A) (A)
                 (A) (A) (A) (A) (A) (A) (A) (A) (A) (A) (A) (A)
                 (A) (A) (A) (A) (A) (A) (A) (A) (A) (A) (A) (A)
                 (A) (A) (A) (A) (A) (A) (A) (A) (A) (A) (A) (A)
                 (A) (A) (A) (A) (A) (A) (A) (A) (A) (A) (A) (A)
                 (A) (A) (A) (A) (A) (A) (A) (A) (A) (A) (A) (A)
                 (A) (A) (A) (A) (A) (A) (A) (A) (A) (A) (A) (A)
                 (A) (A) (A) (A) (A) (A) (A) (A) (A) (A) (A) (A)
                 (A) (A) (A) (A) (A) (A) (A) (A) (A) (A) (A) (A)
                 (A) (A) (A) (A) (A) (A) (A) (A) (A) (A) (A) (A)
                 (A) (A) (A) (A) (A) (A) (A) (A) (A) (A) (A) (A)
                 (A) (A) (A) (A) (A) (A) (A) (A) (A) (A) (A) (A)
                 (A) (A) (A) (A) (A) (A) (A) (A) (A) (A) (A) (A)
                 (A) (A) (A) (A) (A) (A) (A) (A) (A) (A) (A) (A)
                 (A) (A) (A) (A) (A) (A) (A) (A) (A) (A) (A) (A)
                 (A) (A) (A) (A) (A) (A) (A) (A) (A) (A) (A) (A)
                 (A) (A) (A) (A) (A) (A) (A) (A) (A) (A) (A) (A)
                 (A) (A) (A) (A) (A) (A) (A) (A) (A) (A) (A) (A)
                 (A) (A) (A) (A) (A) (A) (A) (A) (A) (A) (A) (A)
                 (A) (A) (A) (A) (A) (A) (A) (A) (A) (A) (A) (A)
                 (A) (A) (A) (A) (A) (A) (A) (A) (A) (A) (A) (A)
                 (A) (A) (A) (A) (A) (A) (A) (A) (A) (A) (A) (A)
                 (A) (A) (A) (A) (A) (A) (A) (A) (A) (A)
    24 initial guesses have been made.
 Convergence on wavefunction:    0.001000000000000
 Davidson Disk Diagonalization:  ConvIn= 1.00D-03 SkipCon=T Conv= 1.00D-03.
 Max sub-space:  2000 roots to seek:    24 dimension of matrix:        21560
 Iteration     1 Dimension    24 NMult     0 NNew     24
 Estimated number of processors is:   15
 CISAX will form     1 AO SS matrices at one time.
 NMat=     1 NSing=     1 JSym2X= 0.
 FoFJK:  IHMeth= 1 ICntrl=       0 DoSepK=F KAlg= 0 I1Cent=           0 FoldK=F
 IRaf= 940000000 NMat=       1 IRICut=       1 DoRegI=T DoRafI=F ISym2E= 0 IDoP0=0 IntGTp=1.
 FoFCou: FMM=F IPFlag=           0 FMFlag=      100000 FMFlg1=           0
         NFxFlg=           0 DoJE=F BraDBF=F KetDBF=F FulRan=T
         wScrn=  0.000000 ICntrl=         0 IOpCl=  0 I1Cent=           0 NGrid=           0
         NMat0=    1 NMatS0=      1 NMatT0=    0 NMatD0=    1 NMtDS0=    0 NMtDT0=    0
 Symmetry not used in FoFCou.
 CoulSu:  requested number of processors reduced to:  19 ShMem   1 Linda.
 CalDSu:  requested number of processors reduced to:  45 ShMem   1 Linda.
 NMat=     1 NSing=     1 JSym2X= 0.
 CoulSu:  requested number of processors reduced to:  19 ShMem   1 Linda.
 CalDSu:  requested number of processors reduced to:  45 ShMem   1 Linda.
 NMat=     1 NSing=     1 JSym2X= 0.
 CoulSu:  requested number of processors reduced to:  19 ShMem   1 Linda.
 CalDSu:  requested number of processors reduced to:  45 ShMem   1 Linda.
 NMat=     1 NSing=     1 JSym2X= 0.
 CoulSu:  requested number of processors reduced to:  19 ShMem   1 Linda.
 CalDSu:  requested number of processors reduced to:  45 ShMem   1 Linda.
 NMat=     1 NSing=     1 JSym2X= 0.
 CoulSu:  requested number of processors reduced to:  19 ShMem   1 Linda.
 CalDSu:  requested number of processors reduced to:  45 ShMem   1 Linda.
 NMat=     1 NSing=     1 JSym2X= 0.
 CoulSu:  requested number of processors reduced to:  19 ShMem   1 Linda.
 CalDSu:  requested number of processors reduced to:  45 ShMem   1 Linda.
 NMat=     1 NSing=     1 JSym2X= 0.
 CoulSu:  requested number of processors reduced to:  19 ShMem   1 Linda.
 CalDSu:  requested number of processors reduced to:  45 ShMem   1 Linda.
 NMat=     1 NSing=     1 JSym2X= 0.
 CoulSu:  requested number of processors reduced to:  19 ShMem   1 Linda.
 CalDSu:  requested number of processors reduced to:  45 ShMem   1 Linda.
 NMat=     1 NSing=     1 JSym2X= 0.
 CoulSu:  requested number of processors reduced to:  19 ShMem   1 Linda.
 CalDSu:  requested number of processors reduced to:  45 ShMem   1 Linda.
 NMat=     1 NSing=     1 JSym2X= 0.
 CoulSu:  requested number of processors reduced to:  19 ShMem   1 Linda.
 CalDSu:  requested number of processors reduced to:  45 ShMem   1 Linda.
 NMat=     1 NSing=     1 JSym2X= 0.
 CoulSu:  requested number of processors reduced to:  19 ShMem   1 Linda.
 CalDSu:  requested number of processors reduced to:  45 ShMem   1 Linda.
 NMat=     1 NSing=     1 JSym2X= 0.
 CoulSu:  requested number of processors reduced to:  19 ShMem   1 Linda.
 CalDSu:  requested number of processors reduced to:  45 ShMem   1 Linda.
 NMat=     1 NSing=     0 JSym2X= 0.
 CoulSu:  requested number of processors reduced to:  19 ShMem   1 Linda.
 CalDSu:  requested number of processors reduced to:  45 ShMem   1 Linda.
 NMat=     1 NSing=     0 JSym2X= 0.
 CoulSu:  requested number of processors reduced to:  19 ShMem   1 Linda.
 CalDSu:  requested number of processors reduced to:  45 ShMem   1 Linda.
 NMat=     1 NSing=     0 JSym2X= 0.
 CoulSu:  requested number of processors reduced to:  19 ShMem   1 Linda.
 CalDSu:  requested number of processors reduced to:  45 ShMem   1 Linda.
 NMat=     1 NSing=     0 JSym2X= 0.
 CoulSu:  requested number of processors reduced to:  19 ShMem   1 Linda.
 CalDSu:  requested number of processors reduced to:  45 ShMem   1 Linda.
 NMat=     1 NSing=     0 JSym2X= 0.
 CoulSu:  requested number of processors reduced to:  19 ShMem   1 Linda.
 CalDSu:  requested number of processors reduced to:  45 ShMem   1 Linda.
 NMat=     1 NSing=     0 JSym2X= 0.
 CoulSu:  requested number of processors reduced to:  19 ShMem   1 Linda.
 CalDSu:  requested number of processors reduced to:  45 ShMem   1 Linda.
 NMat=     1 NSing=     0 JSym2X= 0.
 CoulSu:  requested number of processors reduced to:  19 ShMem   1 Linda.
 CalDSu:  requested number of processors reduced to:  45 ShMem   1 Linda.
 NMat=     1 NSing=     0 JSym2X= 0.
 CoulSu:  requested number of processors reduced to:  19 ShMem   1 Linda.
 CalDSu:  requested number of processors reduced to:  45 ShMem   1 Linda.
 NMat=     1 NSing=     0 JSym2X= 0.
 CoulSu:  requested number of processors reduced to:  19 ShMem   1 Linda.
 CalDSu:  requested number of processors reduced to:  45 ShMem   1 Linda.
 NMat=     1 NSing=     0 JSym2X= 0.
 CoulSu:  requested number of processors reduced to:  19 ShMem   1 Linda.
 CalDSu:  requested number of processors reduced to:  45 ShMem   1 Linda.
 NMat=     1 NSing=     0 JSym2X= 0.
 CoulSu:  requested number of processors reduced to:  19 ShMem   1 Linda.
 CalDSu:  requested number of processors reduced to:  45 ShMem   1 Linda.
 NMat=     1 NSing=     0 JSym2X= 0.
 CoulSu:  requested number of processors reduced to:  19 ShMem   1 Linda.
 CalDSu:  requested number of processors reduced to:  45 ShMem   1 Linda.
 New state      1 was old state      8
 Excitation Energies [eV] at current iteration:
 Root      1 :     5.489060432940553
 Root      2 :     6.243197730753689
 Root      3 :     6.549003155427095
 Root      4 :     7.218091294172862
 Root      5 :     7.266976761592480
 Root      6 :     7.332281955322562
 Root      7 :     7.371765521652367
 Root      8 :     8.194856660505117
 Root      9 :     8.228720381951684
 Root     10 :     8.345304742263355
 Root     11 :     8.371809688860136
 Root     12 :     8.422603128918409
 Root     13 :     8.491100827908221
 Root     14 :     8.661494495556200
 Root     15 :     8.675333612548400
 Root     16 :     8.713157047413867
 Root     17 :     8.722747445897712
 Root     18 :     8.762821357465210
 Root     19 :     8.786261776262460
 Root     20 :     8.802435682624170
 Root     21 :     8.843479505039538
 Root     22 :     8.871574178129844
 Root     23 :     9.085114175125589
 Root     24 :    10.535873622343400
 Iteration     2 Dimension    48 NMult    24 NNew     24
 Estimated number of processors is:   15
 CISAX will form     1 AO SS matrices at one time.
 NMat=     1 NSing=     1 JSym2X= 0.
 CoulSu:  requested number of processors reduced to:  19 ShMem   1 Linda.
 CalDSu:  requested number of processors reduced to:  45 ShMem   1 Linda.
 NMat=     1 NSing=     1 JSym2X= 0.
 CoulSu:  requested number of processors reduced to:  19 ShMem   1 Linda.
 CalDSu:  requested number of processors reduced to:  45 ShMem   1 Linda.
 NMat=     1 NSing=     1 JSym2X= 0.
 CoulSu:  requested number of processors reduced to:  19 ShMem   1 Linda.
 CalDSu:  requested number of processors reduced to:  45 ShMem   1 Linda.
 NMat=     1 NSing=     1 JSym2X= 0.
 CoulSu:  requested number of processors reduced to:  19 ShMem   1 Linda.
 CalDSu:  requested number of processors reduced to:  45 ShMem   1 Linda.
 NMat=     1 NSing=     1 JSym2X= 0.
 CoulSu:  requested number of processors reduced to:  19 ShMem   1 Linda.
 CalDSu:  requested number of processors reduced to:  45 ShMem   1 Linda.
 NMat=     1 NSing=     1 JSym2X= 0.
 CoulSu:  requested number of processors reduced to:  19 ShMem   1 Linda.
 CalDSu:  requested number of processors reduced to:  45 ShMem   1 Linda.
 NMat=     1 NSing=     1 JSym2X= 0.
 CoulSu:  requested number of processors reduced to:  19 ShMem   1 Linda.
 CalDSu:  requested number of processors reduced to:  45 ShMem   1 Linda.
 NMat=     1 NSing=     1 JSym2X= 0.
 CoulSu:  requested number of processors reduced to:  19 ShMem   1 Linda.
 CalDSu:  requested number of processors reduced to:  45 ShMem   1 Linda.
 NMat=     1 NSing=     1 JSym2X= 0.
 CoulSu:  requested number of processors reduced to:  19 ShMem   1 Linda.
 CalDSu:  requested number of processors reduced to:  45 ShMem   1 Linda.
 NMat=     1 NSing=     1 JSym2X= 0.
 CoulSu:  requested number of processors reduced to:  19 ShMem   1 Linda.
 CalDSu:  requested number of processors reduced to:  45 ShMem   1 Linda.
 NMat=     1 NSing=     1 JSym2X= 0.
 CoulSu:  requested number of processors reduced to:  19 ShMem   1 Linda.
 CalDSu:  requested number of processors reduced to:  45 ShMem   1 Linda.
 NMat=     1 NSing=     1 JSym2X= 0.
 CoulSu:  requested number of processors reduced to:  19 ShMem   1 Linda.
 CalDSu:  requested number of processors reduced to:  45 ShMem   1 Linda.
 NMat=     1 NSing=     0 JSym2X= 0.
 CoulSu:  requested number of processors reduced to:  19 ShMem   1 Linda.
 CalDSu:  requested number of processors reduced to:  45 ShMem   1 Linda.
 NMat=     1 NSing=     0 JSym2X= 0.
 CoulSu:  requested number of processors reduced to:  19 ShMem   1 Linda.
 CalDSu:  requested number of processors reduced to:  45 ShMem   1 Linda.
 NMat=     1 NSing=     0 JSym2X= 0.
 CoulSu:  requested number of processors reduced to:  19 ShMem   1 Linda.
 CalDSu:  requested number of processors reduced to:  45 ShMem   1 Linda.
 NMat=     1 NSing=     0 JSym2X= 0.
 CoulSu:  requested number of processors reduced to:  19 ShMem   1 Linda.
 CalDSu:  requested number of processors reduced to:  45 ShMem   1 Linda.
 NMat=     1 NSing=     0 JSym2X= 0.
 CoulSu:  requested number of processors reduced to:  19 ShMem   1 Linda.
 CalDSu:  requested number of processors reduced to:  45 ShMem   1 Linda.
 NMat=     1 NSing=     0 JSym2X= 0.
 CoulSu:  requested number of processors reduced to:  19 ShMem   1 Linda.
 CalDSu:  requested number of processors reduced to:  45 ShMem   1 Linda.
 NMat=     1 NSing=     0 JSym2X= 0.
 CoulSu:  requested number of processors reduced to:  19 ShMem   1 Linda.
 CalDSu:  requested number of processors reduced to:  45 ShMem   1 Linda.
 NMat=     1 NSing=     0 JSym2X= 0.
 CoulSu:  requested number of processors reduced to:  19 ShMem   1 Linda.
 CalDSu:  requested number of processors reduced to:  45 ShMem   1 Linda.
 NMat=     1 NSing=     0 JSym2X= 0.
 CoulSu:  requested number of processors reduced to:  19 ShMem   1 Linda.
 CalDSu:  requested number of processors reduced to:  45 ShMem   1 Linda.
 NMat=     1 NSing=     0 JSym2X= 0.
 CoulSu:  requested number of processors reduced to:  19 ShMem   1 Linda.
 CalDSu:  requested number of processors reduced to:  45 ShMem   1 Linda.
 NMat=     1 NSing=     0 JSym2X= 0.
 CoulSu:  requested number of processors reduced to:  19 ShMem   1 Linda.
 CalDSu:  requested number of processors reduced to:  45 ShMem   1 Linda.
 NMat=     1 NSing=     0 JSym2X= 0.
 CoulSu:  requested number of processors reduced to:  19 ShMem   1 Linda.
 CalDSu:  requested number of processors reduced to:  45 ShMem   1 Linda.
 New state      1 was old state      3
 Root      1 not converged, maximum delta is    0.376380067776159
 Excitation Energies [eV] at current iteration:
 Root      1 :     4.267556190883110   Change is   -2.281446964543986
 Root      2 :     4.905785931440549   Change is   -0.583274501500005
 Root      3 :     5.827482562723587   Change is   -0.415715168030102
 Root      4 :     6.890292563679911   Change is   -0.441989391642651
 Root      5 :     7.053639106204969   Change is   -0.164452187967894
 Root      6 :     7.114065602594861   Change is   -0.152911158997620
 Root      7 :     7.227328989198515   Change is   -0.144436532453851
 Root      8 :     7.721166497998174   Change is   -0.473690162506942
 Root      9 :     7.941874012829355   Change is   -0.286846369122329
 Root     10 :     7.999001255326318   Change is   -0.346303486937037
 Root     11 :     8.119169712174056   Change is   -0.303433416744353
 Root     12 :     8.142853196559706   Change is   -0.228956492300431
 Root     13 :     8.264481572560177   Change is   -0.397012922996022
 Root     14 :     8.294573437374700   Change is   -0.577000740755144
 Root     15 :     8.360122445945992   Change is   -0.353034601467877
 Root     16 :     8.369438480043078   Change is   -0.121662347865144
 Root     17 :     8.430441573404588   Change is   -0.292305872493123
 Root     18 :     8.459477564351669   Change is   -0.215856048196730
 Root     19 :     8.464111344391226   Change is   -0.338324338232944
 Root     20 :     8.592584034294289   Change is   -0.170237323170920
 Root     21 :     8.597053180240307   Change is   -0.189208596022154
 Root     22 :     8.702728680547043   Change is   -0.140750824492494
 Root     23 :     8.738533656004432   Change is   -1.797339966338968
 Root     24 :     8.949169333067536   Change is   -0.135944842058054
 Iteration     3 Dimension    54 NMult    48 NNew      6
 Estimated number of processors is:   15
 CISAX will form     1 AO SS matrices at one time.
 NMat=     1 NSing=     1 JSym2X= 0.
 CoulSu:  requested number of processors reduced to:  19 ShMem   1 Linda.
 CalDSu:  requested number of processors reduced to:  45 ShMem   1 Linda.
 NMat=     1 NSing=     1 JSym2X= 0.
 CoulSu:  requested number of processors reduced to:  19 ShMem   1 Linda.
 CalDSu:  requested number of processors reduced to:  45 ShMem   1 Linda.
 NMat=     1 NSing=     1 JSym2X= 0.
 CoulSu:  requested number of processors reduced to:  19 ShMem   1 Linda.
 CalDSu:  requested number of processors reduced to:  45 ShMem   1 Linda.
 NMat=     1 NSing=     0 JSym2X= 0.
 CoulSu:  requested number of processors reduced to:  19 ShMem   1 Linda.
 CalDSu:  requested number of processors reduced to:  45 ShMem   1 Linda.
 NMat=     1 NSing=     0 JSym2X= 0.
 CoulSu:  requested number of processors reduced to:  19 ShMem   1 Linda.
 CalDSu:  requested number of processors reduced to:  45 ShMem   1 Linda.
 NMat=     1 NSing=     0 JSym2X= 0.
 CoulSu:  requested number of processors reduced to:  19 ShMem   1 Linda.
 CalDSu:  requested number of processors reduced to:  45 ShMem   1 Linda.
 Root      1 not converged, maximum delta is    0.034277674362540
 Excitation Energies [eV] at current iteration:
 Root      1 :     4.072174498001105   Change is   -0.195381692882005
 Root      2 :     4.879168714610643   Change is   -0.026617216829906
 Root      3 :     5.755675934171931   Change is   -0.071806628551656
 Root      4 :     6.833569222014303   Change is   -0.056723341665608
 Root      5 :     7.096141681207268   Change is   -0.017923921387593
 Root      6 :     7.207310117706029   Change is   -0.020018871492487
 Iteration     4 Dimension    60 NMult    54 NNew      6
 Estimated number of processors is:   15
 CISAX will form     1 AO SS matrices at one time.
 NMat=     1 NSing=     1 JSym2X= 0.
 CoulSu:  requested number of processors reduced to:  19 ShMem   1 Linda.
 CalDSu:  requested number of processors reduced to:  45 ShMem   1 Linda.
 NMat=     1 NSing=     1 JSym2X= 0.
 CoulSu:  requested number of processors reduced to:  19 ShMem   1 Linda.
 CalDSu:  requested number of processors reduced to:  45 ShMem   1 Linda.
 NMat=     1 NSing=     1 JSym2X= 0.
 CoulSu:  requested number of processors reduced to:  19 ShMem   1 Linda.
 CalDSu:  requested number of processors reduced to:  45 ShMem   1 Linda.
 NMat=     1 NSing=     0 JSym2X= 0.
 CoulSu:  requested number of processors reduced to:  19 ShMem   1 Linda.
 CalDSu:  requested number of processors reduced to:  45 ShMem   1 Linda.
 NMat=     1 NSing=     0 JSym2X= 0.
 CoulSu:  requested number of processors reduced to:  19 ShMem   1 Linda.
 CalDSu:  requested number of processors reduced to:  45 ShMem   1 Linda.
 NMat=     1 NSing=     0 JSym2X= 0.
 CoulSu:  requested number of processors reduced to:  19 ShMem   1 Linda.
 CalDSu:  requested number of processors reduced to:  45 ShMem   1 Linda.
 Root      1 not converged, maximum delta is    0.019594134796923
 Excitation Energies [eV] at current iteration:
 Root      1 :     4.048311389856247   Change is   -0.023863108144858
 Root      2 :     4.877308281514343   Change is   -0.001860433096300
 Root      3 :     5.749698450743806   Change is   -0.005977483428125
 Root      4 :     6.770444675234681   Change is   -0.063124546779621
 Root      5 :     7.093169268693826   Change is   -0.002972412513442
 Root      6 :     7.202211987415465   Change is   -0.005098130290564
 Iteration     5 Dimension    66 NMult    60 NNew      6
 Estimated number of processors is:   15
 CISAX will form     1 AO SS matrices at one time.
 NMat=     1 NSing=     1 JSym2X= 0.
 CoulSu:  requested number of processors reduced to:  19 ShMem   1 Linda.
 CalDSu:  requested number of processors reduced to:  45 ShMem   1 Linda.
 NMat=     1 NSing=     1 JSym2X= 0.
 CoulSu:  requested number of processors reduced to:  19 ShMem   1 Linda.
 CalDSu:  requested number of processors reduced to:  45 ShMem   1 Linda.
 NMat=     1 NSing=     1 JSym2X= 0.
 CoulSu:  requested number of processors reduced to:  19 ShMem   1 Linda.
 CalDSu:  requested number of processors reduced to:  45 ShMem   1 Linda.
 NMat=     1 NSing=     0 JSym2X= 0.
 CoulSu:  requested number of processors reduced to:  19 ShMem   1 Linda.
 CalDSu:  requested number of processors reduced to:  45 ShMem   1 Linda.
 NMat=     1 NSing=     0 JSym2X= 0.
 CoulSu:  requested number of processors reduced to:  19 ShMem   1 Linda.
 CalDSu:  requested number of processors reduced to:  45 ShMem   1 Linda.
 NMat=     1 NSing=     0 JSym2X= 0.
 CoulSu:  requested number of processors reduced to:  19 ShMem   1 Linda.
 CalDSu:  requested number of processors reduced to:  45 ShMem   1 Linda.
 Root      1 not converged, maximum delta is    0.008403438004704
 Excitation Energies [eV] at current iteration:
 Root      1 :     4.043905525033069   Change is   -0.004405864823177
 Root      2 :     4.877160063463240   Change is   -0.000148218051103
 Root      3 :     4.958262133028777   Change is   -1.812182542205904
 Root      4 :     5.748900885360165   Change is   -0.000797565383641
 Root      5 :     7.092664460217367   Change is   -0.000504808476460
 Root      6 :     7.200901138398438   Change is   -0.001310849017027
 Iteration     6 Dimension    72 NMult    66 NNew      6
 Estimated number of processors is:   15
 CISAX will form     1 AO SS matrices at one time.
 NMat=     1 NSing=     1 JSym2X= 0.
 CoulSu:  requested number of processors reduced to:  19 ShMem   1 Linda.
 CalDSu:  requested number of processors reduced to:  45 ShMem   1 Linda.
 NMat=     1 NSing=     1 JSym2X= 0.
 CoulSu:  requested number of processors reduced to:  19 ShMem   1 Linda.
 CalDSu:  requested number of processors reduced to:  45 ShMem   1 Linda.
 NMat=     1 NSing=     1 JSym2X= 0.
 CoulSu:  requested number of processors reduced to:  19 ShMem   1 Linda.
 CalDSu:  requested number of processors reduced to:  45 ShMem   1 Linda.
 NMat=     1 NSing=     0 JSym2X= 0.
 CoulSu:  requested number of processors reduced to:  19 ShMem   1 Linda.
 CalDSu:  requested number of processors reduced to:  45 ShMem   1 Linda.
 NMat=     1 NSing=     0 JSym2X= 0.
 CoulSu:  requested number of processors reduced to:  19 ShMem   1 Linda.
 CalDSu:  requested number of processors reduced to:  45 ShMem   1 Linda.
 NMat=     1 NSing=     0 JSym2X= 0.
 CoulSu:  requested number of processors reduced to:  19 ShMem   1 Linda.
 CalDSu:  requested number of processors reduced to:  45 ShMem   1 Linda.
 Root      1 not converged, maximum delta is    0.003347258350349
 Excitation Energies [eV] at current iteration:
 Root      1 :     4.043263778331673   Change is   -0.000641746701396
 Root      2 :     4.698249378262549   Change is   -0.260012754766227
 Root      3 :     4.877158732947652   Change is   -0.000001330515588
 Root      4 :     5.748779010566886   Change is   -0.000121874793279
 Root      5 :     7.092562050645462   Change is   -0.000102409571904
 Root      6 :     7.200556594022321   Change is   -0.000344544376117
 Iteration     7 Dimension    78 NMult    72 NNew      6
 Estimated number of processors is:   15
 CISAX will form     1 AO SS matrices at one time.
 NMat=     1 NSing=     1 JSym2X= 0.
 CoulSu:  requested number of processors reduced to:  19 ShMem   1 Linda.
 CalDSu:  requested number of processors reduced to:  45 ShMem   1 Linda.
 NMat=     1 NSing=     1 JSym2X= 0.
 CoulSu:  requested number of processors reduced to:  19 ShMem   1 Linda.
 CalDSu:  requested number of processors reduced to:  45 ShMem   1 Linda.
 NMat=     1 NSing=     1 JSym2X= 0.
 CoulSu:  requested number of processors reduced to:  19 ShMem   1 Linda.
 CalDSu:  requested number of processors reduced to:  45 ShMem   1 Linda.
 NMat=     1 NSing=     0 JSym2X= 0.
 CoulSu:  requested number of processors reduced to:  19 ShMem   1 Linda.
 CalDSu:  requested number of processors reduced to:  45 ShMem   1 Linda.
 NMat=     1 NSing=     0 JSym2X= 0.
 CoulSu:  requested number of processors reduced to:  19 ShMem   1 Linda.
 CalDSu:  requested number of processors reduced to:  45 ShMem   1 Linda.
 NMat=     1 NSing=     0 JSym2X= 0.
 CoulSu:  requested number of processors reduced to:  19 ShMem   1 Linda.
 CalDSu:  requested number of processors reduced to:  45 ShMem   1 Linda.
 Root      1 not converged, maximum delta is    0.001685701328076
 Excitation Energies [eV] at current iteration:
 Root      1 :     4.043173092008384   Change is   -0.000090686323288
 Root      2 :     4.638887896321157   Change is   -0.059361481941392
 Root      3 :     4.877154580949792   Change is   -0.000004151997860
 Root      4 :     5.748767217397166   Change is   -0.000011793169720
 Root      5 :     7.092543064997052   Change is   -0.000018985648410
 Root      6 :     7.200445459210213   Change is   -0.000111134812107
 Iteration     8 Dimension    84 NMult    78 NNew      6
 Estimated number of processors is:   15
 CISAX will form     1 AO SS matrices at one time.
 NMat=     1 NSing=     1 JSym2X= 0.
 CoulSu:  requested number of processors reduced to:  19 ShMem   1 Linda.
 CalDSu:  requested number of processors reduced to:  45 ShMem   1 Linda.
 NMat=     1 NSing=     1 JSym2X= 0.
 CoulSu:  requested number of processors reduced to:  19 ShMem   1 Linda.
 CalDSu:  requested number of processors reduced to:  45 ShMem   1 Linda.
 NMat=     1 NSing=     1 JSym2X= 0.
 CoulSu:  requested number of processors reduced to:  19 ShMem   1 Linda.
 CalDSu:  requested number of processors reduced to:  45 ShMem   1 Linda.
 NMat=     1 NSing=     0 JSym2X= 0.
 CoulSu:  requested number of processors reduced to:  19 ShMem   1 Linda.
 CalDSu:  requested number of processors reduced to:  45 ShMem   1 Linda.
 NMat=     1 NSing=     0 JSym2X= 0.
 CoulSu:  requested number of processors reduced to:  19 ShMem   1 Linda.
 CalDSu:  requested number of processors reduced to:  45 ShMem   1 Linda.
 NMat=     1 NSing=     0 JSym2X= 0.
 CoulSu:  requested number of processors reduced to:  19 ShMem   1 Linda.
 CalDSu:  requested number of processors reduced to:  45 ShMem   1 Linda.
 Root      1 has converged.
 Excitation Energies [eV] at current iteration:
 Root      1 :     4.043158936065726   Change is   -0.000014155942659
 Root      2 :     4.625014083273512   Change is   -0.013873813047645
 Root      3 :     4.877153858464942   Change is   -0.000000722484851
 Root      4 :     5.748765639956201   Change is   -0.000001577440966
 Root      5 :     7.092536759297910   Change is   -0.000006305699142
 Root      6 :     7.200410042996150   Change is   -0.000035416214063
 Convergence achieved on expansion vectors.
 ***********************************************************************
 Stability analysis using <AA,BB:AA,BB> singles matrix:
 ***********************************************************************
 1PDM for each excited state written to RWF  633
 Ground to excited state transition densities written to RWF  633

 Eigenvectors of the stability matrix:
 
 Eigenvector   1:      Triplet-A    Eigenvalue= 0.1485834  <S**2>=2.000
      17 -> 25        -0.12215
      21 -> 24        -0.15096
      21 -> 25         0.46083
      21 -> 26        -0.10682
      21 -> 27        -0.16417
      21 -> 28         0.36339
 The wavefunction is stable under the perturbations considered.
 Leave Link  914 at Sat Apr 17 12:24:25 2021, MaxMem=   104857600 cpu:          110581.5 elap:            3177.3
 (Enter /s/ls4/users/knvvv/bin/g16sse/l508.exe)
 The wavefunction is already stable.
 Leave Link  508 at Sat Apr 17 12:24:25 2021, MaxMem=   104857600 cpu:               2.2 elap:               0.1
 (Enter /s/ls4/users/knvvv/bin/g16sse/l601.exe)
 Copying SCF densities to generalized density rwf, IOpCl= 0 IROHF=0.

 **********************************************************************

            Population analysis using the SCF density.

 **********************************************************************

 Orbital symmetries:
       Occupied  (A) (A) (A) (A) (A) (A) (A) (A) (A) (A) (A) (A)
                 (A) (A) (A) (A) (A) (A) (A) (A) (A) (A)
       Virtual   (A) (A) (A) (A) (A) (A) (A) (A) (A) (A) (A) (A)
                 (A) (A) (A) (A) (A) (A) (A) (A) (A) (A) (A) (A)
                 (A) (A) (A) (A) (A) (A) (A) (A) (A) (A) (A) (A)
                 (A) (A) (A) (A) (A) (A) (A) (A) (A) (A) (A) (A)
                 (A) (A) (A) (A) (A) (A) (A) (A) (A) (A) (A) (A)
                 (A) (A) (A) (A) (A) (A) (A) (A) (A) (A) (A) (A)
                 (A) (A) (A) (A) (A) (A) (A) (A) (A) (A) (A) (A)
                 (A) (A) (A) (A) (A) (A) (A) (A) (A) (A) (A) (A)
                 (A) (A) (A) (A) (A) (A) (A) (A) (A) (A) (A) (A)
                 (A) (A) (A) (A) (A) (A) (A) (A) (A) (A) (A) (A)
                 (A) (A) (A) (A) (A) (A) (A) (A) (A) (A) (A) (A)
                 (A) (A) (A) (A) (A) (A) (A) (A) (A) (A) (A) (A)
                 (A) (A) (A) (A) (A) (A) (A) (A) (A) (A) (A) (A)
                 (A) (A) (A) (A) (A) (A) (A) (A) (A) (A) (A) (A)
                 (A) (A) (A) (A) (A) (A) (A) (A) (A) (A) (A) (A)
                 (A) (A) (A) (A) (A) (A) (A) (A) (A) (A) (A) (A)
                 (A) (A) (A) (A) (A) (A) (A) (A) (A) (A) (A) (A)
                 (A) (A) (A) (A) (A) (A) (A) (A) (A) (A) (A) (A)
                 (A) (A) (A) (A) (A) (A) (A) (A) (A) (A) (A) (A)
                 (A) (A) (A) (A) (A) (A) (A) (A) (A) (A) (A) (A)
                 (A) (A) (A) (A) (A) (A) (A) (A) (A) (A) (A) (A)
                 (A) (A) (A) (A) (A) (A) (A) (A) (A) (A) (A) (A)
                 (A) (A) (A) (A) (A) (A) (A) (A) (A) (A) (A) (A)
                 (A) (A) (A) (A) (A) (A) (A) (A) (A) (A) (A) (A)
                 (A) (A) (A) (A) (A) (A) (A) (A) (A) (A) (A) (A)
                 (A) (A) (A) (A) (A) (A) (A) (A) (A) (A) (A) (A)
                 (A) (A) (A) (A) (A) (A) (A) (A) (A) (A) (A) (A)
                 (A) (A) (A) (A) (A) (A) (A) (A) (A) (A) (A) (A)
                 (A) (A) (A) (A) (A) (A) (A) (A) (A) (A) (A) (A)
                 (A) (A) (A) (A) (A) (A) (A) (A) (A) (A) (A) (A)
                 (A) (A) (A) (A) (A) (A) (A) (A) (A) (A) (A) (A)
                 (A) (A) (A) (A) (A) (A) (A) (A) (A) (A) (A) (A)
                 (A) (A) (A) (A) (A) (A) (A) (A) (A) (A) (A) (A)
                 (A) (A) (A) (A) (A) (A) (A) (A) (A) (A) (A) (A)
                 (A) (A) (A) (A) (A) (A) (A) (A) (A) (A) (A) (A)
                 (A) (A) (A) (A) (A) (A) (A) (A) (A) (A) (A) (A)
                 (A) (A) (A) (A) (A) (A) (A) (A) (A) (A) (A) (A)
                 (A) (A) (A) (A) (A) (A) (A) (A) (A) (A) (A) (A)
                 (A) (A) (A) (A) (A) (A) (A) (A) (A) (A) (A) (A)
                 (A) (A) (A) (A) (A) (A) (A) (A) (A) (A) (A) (A)
                 (A) (A) (A) (A) (A) (A) (A) (A) (A) (A)
 The electronic state is 1-A.
 Alpha  occ. eigenvalues --  -19.61703 -14.80763 -14.75496 -10.68461 -10.61496
 Alpha  occ. eigenvalues --  -10.58391  -1.18061  -1.05171  -1.02020  -0.90331
 Alpha  occ. eigenvalues --   -0.72204  -0.66069  -0.60181  -0.58717  -0.56649
 Alpha  occ. eigenvalues --   -0.51319  -0.49073  -0.44431  -0.40588  -0.40157
 Alpha  occ. eigenvalues --   -0.36894  -0.36014
 Alpha virt. eigenvalues --   -0.01737   0.01585   0.01766   0.02831   0.04733
 Alpha virt. eigenvalues --    0.05251   0.05984   0.06561   0.06866   0.07487
 Alpha virt. eigenvalues --    0.08915   0.09811   0.10972   0.11465   0.12488
 Alpha virt. eigenvalues --    0.14011   0.14501   0.14738   0.15463   0.16040
 Alpha virt. eigenvalues --    0.18129   0.19065   0.19756   0.20332   0.20878
 Alpha virt. eigenvalues --    0.22356   0.23313   0.23615   0.23835   0.24550
 Alpha virt. eigenvalues --    0.25691   0.26107   0.26327   0.27709   0.28296
 Alpha virt. eigenvalues --    0.29434   0.30173   0.30516   0.31867   0.32873
 Alpha virt. eigenvalues --    0.33208   0.33688   0.33897   0.35466   0.36019
 Alpha virt. eigenvalues --    0.36510   0.37680   0.38169   0.39676   0.40522
 Alpha virt. eigenvalues --    0.41554   0.42512   0.42679   0.43383   0.43933
 Alpha virt. eigenvalues --    0.45393   0.46350   0.46950   0.47730   0.49306
 Alpha virt. eigenvalues --    0.49486   0.50071   0.50424   0.51603   0.51962
 Alpha virt. eigenvalues --    0.53737   0.54258   0.54646   0.55607   0.56073
 Alpha virt. eigenvalues --    0.56729   0.57853   0.58712   0.60558   0.61080
 Alpha virt. eigenvalues --    0.63045   0.63401   0.65395   0.65826   0.67274
 Alpha virt. eigenvalues --    0.68664   0.69812   0.70413   0.72422   0.74570
 Alpha virt. eigenvalues --    0.76001   0.77090   0.78299   0.79280   0.80047
 Alpha virt. eigenvalues --    0.80799   0.83341   0.83921   0.86008   0.86980
 Alpha virt. eigenvalues --    0.88974   0.89584   0.90038   0.91171   0.93355
 Alpha virt. eigenvalues --    0.95203   0.96440   0.98102   0.98761   1.02503
 Alpha virt. eigenvalues --    1.03375   1.04494   1.06044   1.06789   1.08029
 Alpha virt. eigenvalues --    1.09811   1.11299   1.13266   1.15560   1.17776
 Alpha virt. eigenvalues --    1.18528   1.19932   1.20309   1.22516   1.25446
 Alpha virt. eigenvalues --    1.26713   1.28719   1.29495   1.30424   1.31631
 Alpha virt. eigenvalues --    1.34205   1.37304   1.38734   1.39842   1.40803
 Alpha virt. eigenvalues --    1.41427   1.42294   1.46064   1.48835   1.49971
 Alpha virt. eigenvalues --    1.52750   1.54052   1.55320   1.61579   1.64524
 Alpha virt. eigenvalues --    1.67548   1.68465   1.70013   1.71927   1.72879
 Alpha virt. eigenvalues --    1.74892   1.76198   1.76961   1.79177   1.82187
 Alpha virt. eigenvalues --    1.84119   1.86110   1.87021   1.90315   1.91597
 Alpha virt. eigenvalues --    1.93520   1.98062   1.98997   2.00081   2.03892
 Alpha virt. eigenvalues --    2.04756   2.05793   2.06802   2.08314   2.11212
 Alpha virt. eigenvalues --    2.11590   2.14597   2.15555   2.17017   2.17580
 Alpha virt. eigenvalues --    2.21155   2.21971   2.23983   2.25596   2.27397
 Alpha virt. eigenvalues --    2.31492   2.34031   2.35842   2.37977   2.38733
 Alpha virt. eigenvalues --    2.41423   2.42673   2.45741   2.47583   2.48647
 Alpha virt. eigenvalues --    2.50186   2.52879   2.54508   2.56239   2.58397
 Alpha virt. eigenvalues --    2.58550   2.62043   2.62984   2.64733   2.66990
 Alpha virt. eigenvalues --    2.68271   2.68945   2.71514   2.73284   2.74985
 Alpha virt. eigenvalues --    2.75915   2.77347   2.78874   2.82704   2.83555
 Alpha virt. eigenvalues --    2.84824   2.89385   2.89871   2.91425   2.95872
 Alpha virt. eigenvalues --    2.97313   2.98264   3.00383   3.01696   3.04605
 Alpha virt. eigenvalues --    3.06504   3.09863   3.13413   3.13850   3.15443
 Alpha virt. eigenvalues --    3.17878   3.22340   3.23651   3.25412   3.27346
 Alpha virt. eigenvalues --    3.31607   3.32785   3.39376   3.40452   3.41299
 Alpha virt. eigenvalues --    3.44145   3.47704   3.48693   3.51140   3.53853
 Alpha virt. eigenvalues --    3.55240   3.57778   3.58856   3.65536   3.65643
 Alpha virt. eigenvalues --    3.67675   3.73056   3.74683   3.79953   3.82148
 Alpha virt. eigenvalues --    3.84838   3.88668   3.91702   3.93117   3.94460
 Alpha virt. eigenvalues --    3.97816   3.99547   4.02710   4.07395   4.10328
 Alpha virt. eigenvalues --    4.12484   4.16460   4.21362   4.24976   4.27844
 Alpha virt. eigenvalues --    4.36915   4.38005   4.43789   4.48512   4.53079
 Alpha virt. eigenvalues --    4.55910   4.61096   4.69809   4.74953   4.76115
 Alpha virt. eigenvalues --    4.79293   4.81722   4.85414   4.91531   4.97932
 Alpha virt. eigenvalues --    5.01648   5.03548   5.04384   5.07963   5.09174
 Alpha virt. eigenvalues --    5.11667   5.15606   5.17185   5.20689   5.24894
 Alpha virt. eigenvalues --    5.28430   5.32829   5.36007   5.39412   5.43139
 Alpha virt. eigenvalues --    5.45081   5.47661   5.51297   5.57497   5.59809
 Alpha virt. eigenvalues --    5.60950   5.64831   5.68014   5.69479   5.73153
 Alpha virt. eigenvalues --    5.73908   5.75764   5.78180   5.81663   5.85238
 Alpha virt. eigenvalues --    5.87194   5.88141   5.88739   5.90149   5.94259
 Alpha virt. eigenvalues --    5.96171   5.98355   6.01809   6.02478   6.06470
 Alpha virt. eigenvalues --    6.06586   6.08414   6.09559   6.14175   6.18028
 Alpha virt. eigenvalues --    6.20445   6.22580   6.26375   6.30150   6.33499
 Alpha virt. eigenvalues --    6.34702   6.36337   6.41922   6.50201   6.51520
 Alpha virt. eigenvalues --    6.55256   6.56286   6.58196   6.60935   6.62479
 Alpha virt. eigenvalues --    6.64186   6.65721   6.72950   6.75264   6.79225
 Alpha virt. eigenvalues --    6.79495   6.79534   6.80610   6.83322   6.86591
 Alpha virt. eigenvalues --    6.90724   6.98268   7.00704   7.04683   7.05263
 Alpha virt. eigenvalues --    7.07613   7.09967   7.14162   7.21048   7.21319
 Alpha virt. eigenvalues --    7.23559   7.26519   7.28517   7.29191   7.32620
 Alpha virt. eigenvalues --    7.37098   7.40449   7.42848   7.44469   7.46879
 Alpha virt. eigenvalues --    7.50397   7.52501   7.55869   7.60509   7.63425
 Alpha virt. eigenvalues --    7.65034   7.68240   7.71447   7.73190   7.75561
 Alpha virt. eigenvalues --    7.81469   7.83636   7.87457   7.89843   7.91446
 Alpha virt. eigenvalues --    7.96418   7.99031   8.05873   8.08988   8.10509
 Alpha virt. eigenvalues --    8.15089   8.16361   8.16788   8.17669   8.21900
 Alpha virt. eigenvalues --    8.25279   8.28660   8.32250   8.35491   8.37103
 Alpha virt. eigenvalues --    8.37535   8.38425   8.42504   8.45077   8.45713
 Alpha virt. eigenvalues --    8.47653   8.50702   8.54174   8.55876   8.56724
 Alpha virt. eigenvalues --    8.58797   8.62881   8.65910   8.71605   8.73456
 Alpha virt. eigenvalues --    8.75679   8.81342   8.83339   8.84355   8.85817
 Alpha virt. eigenvalues --    8.87840   8.91246   8.92281   8.96035   8.98536
 Alpha virt. eigenvalues --    9.04705   9.06221   9.10731   9.16773   9.22636
 Alpha virt. eigenvalues --    9.35689   9.37604   9.39923   9.46027   9.47423
 Alpha virt. eigenvalues --    9.55300   9.57787   9.61982   9.64911   9.71880
 Alpha virt. eigenvalues --    9.74716   9.79014   9.81557   9.84807   9.90774
 Alpha virt. eigenvalues --    9.92803   9.97706  10.04999  10.08648  10.14370
 Alpha virt. eigenvalues --   10.23579  10.28503  10.39740  10.51720  10.67853
 Alpha virt. eigenvalues --   10.92404  10.94929  11.14982  11.22000  11.24163
 Alpha virt. eigenvalues --   11.32268  11.37952  11.40848  11.50547  11.53794
 Alpha virt. eigenvalues --   11.57233  11.59095  11.68106  11.73709  11.83848
 Alpha virt. eigenvalues --   11.96506  12.03610  12.04941  12.17180  12.31151
 Alpha virt. eigenvalues --   12.79289  12.97588  13.19282  13.38135  14.12909
 Alpha virt. eigenvalues --   14.25230  14.38630  14.80830  28.47969  28.87942
 Alpha virt. eigenvalues --   29.33302  38.09326  38.22255  48.24155 145.91811
 Alpha virt. eigenvalues --  146.41859 146.87913 195.65443 195.81383 251.34137
          Condensed to atoms (all electrons):
               1          2          3          4          5          6
     1  C    5.780866   0.015494  -0.086115  -0.038098  -0.046144  -0.003785
     2  C    0.015494   5.366329   0.254104   0.363737   0.355648   0.000934
     3  C   -0.086115   0.254104   4.515553  -0.019317  -0.062854  -0.012405
     4  H   -0.038098   0.363737  -0.019317   0.429544  -0.004263   0.000451
     5  H   -0.046144   0.355648  -0.062854  -0.004263   0.472895   0.001033
     6  H   -0.003785   0.000934  -0.012405   0.000451   0.001033   0.346289
     7  H   -0.007632   0.021870  -0.046867  -0.007251  -0.009015  -0.029829
     8  N    0.203887   0.048384  -0.010008   0.004515   0.008281   0.000192
     9  N    0.009473  -0.095519   0.558083  -0.012246  -0.008316   0.301371
    10  O    0.003368  -0.058212   0.455421   0.001588   0.000838   0.027240
               7          8          9         10
     1  C   -0.007632   0.203887   0.009473   0.003368
     2  C    0.021870   0.048384  -0.095519  -0.058212
     3  C   -0.046867  -0.010008   0.558083   0.455421
     4  H   -0.007251   0.004515  -0.012246   0.001588
     5  H   -0.009015   0.008281  -0.008316   0.000838
     6  H   -0.029829   0.000192   0.301371   0.027240
     7  H    0.380680   0.000180   0.344182   0.008809
     8  N    0.000180   7.252392  -0.000764  -0.001026
     9  N    0.344182  -0.000764   6.618176  -0.090139
    10  O    0.008809  -0.001026  -0.090139   8.158723
 Mulliken charges:
               1
     1  C    0.168685
     2  C   -0.272769
     3  C    0.454405
     4  H    0.281341
     5  H    0.291897
     6  H    0.368510
     7  H    0.344874
     8  N   -0.506032
     9  N   -0.624301
    10  O   -0.506610
 Sum of Mulliken charges =  -0.00000
 Mulliken charges with hydrogens summed into heavy atoms:
               1
     1  C    0.168685
     2  C    0.300470
     3  C    0.454405
     8  N   -0.506032
     9  N    0.089082
    10  O   -0.506610
 Electronic spatial extent (au):  <R**2>=            595.7166
 Charge=             -0.0000 electrons
 Dipole moment (field-independent basis, Debye):
    X=              5.2828    Y=             -5.0656    Z=              0.4121  Tot=              7.3306
 Quadrupole moment (field-independent basis, Debye-Ang):
   XX=            -37.3486   YY=            -35.2631   ZZ=            -34.6397
   XY=             -0.8133   XZ=             -0.7588   YZ=             -0.4345
 Traceless Quadrupole moment (field-independent basis, Debye-Ang):
   XX=             -1.5981   YY=              0.4874   ZZ=              1.1108
   XY=             -0.8133   XZ=             -0.7588   YZ=             -0.4345
 Octapole moment (field-independent basis, Debye-Ang**2):
  XXX=             70.1937  YYY=            -11.0956  ZZZ=              1.7964  XYY=              5.6123
  XXY=             -5.7733  XXZ=              1.6821  XZZ=              1.1023  YZZ=             -0.5538
  YYZ=             -0.6333  XYZ=             -0.2915
 Hexadecapole moment (field-independent basis, Debye-Ang**3):
 XXXX=           -594.5794 YYYY=           -155.0260 ZZZZ=            -42.4322 XXXY=             10.2880
 XXXZ=             -7.9663 YYYX=            -12.2701 YYYZ=              1.1461 ZZZX=             -0.0411
 ZZZY=             -1.3734 XXYY=           -115.3074 XXZZ=           -110.5251 YYZZ=            -31.4876
 XXYZ=              0.4775 YYXZ=             -1.1340 ZZXY=              1.8264
 N-N= 2.063186289305D+02 E-N=-1.117188852239D+03  KE= 3.002432994332D+02
 PrsmSu:  requested number of processors reduced to:  20 ShMem   1 Linda.
 No NMR shielding tensors so no spin-rotation constants.
 Leave Link  601 at Sat Apr 17 12:24:32 2021, MaxMem=   104857600 cpu:             325.2 elap:               7.1
 (Enter /s/ls4/users/knvvv/bin/g16sse/l9999.exe)

 Test job not archived.
 1\1\GINC-N146\Stability\RM062X\Gen\C3H4N2O1\KNVVV\17-Apr-2021\0\\#P M0
 62X/GEN Integral=UltraFineGrid SCF=NoSymm Stable=(RExt, Opt) IOp(1/33=
 1)\\Database calculations.\\0,1\C,0,5.578016,24.531209,4.180296\C,0,5.
 959025,25.683875,4.971369\C,0,5.523547,27.00179,4.318499\H,0,7.033398,
 25.650121,5.14786\H,0,5.473121,25.603895,5.947323\H,0,5.745653,29.0071
 29,4.522561\H,0,6.694405,28.03801,5.647154\N,0,5.270009,23.616585,3.55
 5913\N,0,6.093512,28.097115,4.83246\O,0,4.699107,27.019141,3.402268\\V
 ersion=ES64L-G16RevA.03\State=1-A\HF=-301.4730934\RMSD=2.978e-09\Dipol
 e=1.3011282,1.6482145,1.9769621\Quadrupole=0.4657477,-1.3075766,0.8418
 289,0.7069169,-0.1642422,-0.2374343\PG=C01 [X(C3H4N2O1)]\\@


 Make no judgements where you have no compassion.
                               -- Anne McCaffrey
 Job cpu time:       1 days  8 hours 52 minutes 22.2 seconds.
 Elapsed time:       0 days  0 hours 57 minutes 26.7 seconds.
 File lengths (MBytes):  RWF=    548 Int=      0 D2E=      0 Chk=     31 Scr=      1
 Normal termination of Gaussian 16 at Sat Apr 17 12:24:32 2021.
