 Entering Gaussian System, Link 0=/s/ls4/users/knvvv/bin/g16sse/g16
 Input=data/database/M062X--def2-QZVPPD--194_hno_W4-11.gjf
 Output=data/database/M062X--def2-QZVPPD--194_hno_W4-11.log
 Initial command:
 /s/ls4/users/knvvv/bin/g16sse/l1.exe "/s/ls4/users/knvvv/bin/scratch/Gau-29922.inp" -scrdir="/s/ls4/users/knvvv/bin/scratch/"
 Entering Link 1 = /s/ls4/users/knvvv/bin/g16sse/l1.exe PID=     29923.
  
 Copyright (c) 1988,1990,1992,1993,1995,1998,2003,2009,2016,
            Gaussian, Inc.  All Rights Reserved.
  
 This is part of the Gaussian(R) 16 program.  It is based on
 the Gaussian(R) 09 system (copyright 2009, Gaussian, Inc.),
 the Gaussian(R) 03 system (copyright 2003, Gaussian, Inc.),
 the Gaussian(R) 98 system (copyright 1998, Gaussian, Inc.),
 the Gaussian(R) 94 system (copyright 1995, Gaussian, Inc.),
 the Gaussian 92(TM) system (copyright 1992, Gaussian, Inc.),
 the Gaussian 90(TM) system (copyright 1990, Gaussian, Inc.),
 the Gaussian 88(TM) system (copyright 1988, Gaussian, Inc.),
 the Gaussian 86(TM) system (copyright 1986, Carnegie Mellon
 University), and the Gaussian 82(TM) system (copyright 1983,
 Carnegie Mellon University). Gaussian is a federally registered
 trademark of Gaussian, Inc.
  
 This software contains proprietary and confidential information,
 including trade secrets, belonging to Gaussian, Inc.
  
 This software is provided under written license and may be
 used, copied, transmitted, or stored only in accord with that
 written license.
  
 The following legend is applicable only to US Government
 contracts under FAR:
  
                    RESTRICTED RIGHTS LEGEND
  
 Use, reproduction and disclosure by the US Government is
 subject to restrictions as set forth in subparagraphs (a)
 and (c) of the Commercial Computer Software - Restricted
 Rights clause in FAR 52.227-19.
  
 Gaussian, Inc.
 340 Quinnipiac St., Bldg. 40, Wallingford CT 06492
  
  
 ---------------------------------------------------------------
 Warning -- This program may not be used in any manner that
 competes with the business of Gaussian, Inc. or will provide
 assistance to any competitor of Gaussian, Inc.  The licensee
 of this program is prohibited from giving any competitor of
 Gaussian, Inc. access to this program.  By using this program,
 the user acknowledges that Gaussian, Inc. is engaged in the
 business of creating and licensing software in the field of
 computational chemistry and represents and warrants to the
 licensee that it is not a competitor of Gaussian, Inc. and that
 it will not use this program in any manner prohibited above.
 ---------------------------------------------------------------
  

 Cite this work as:
 Gaussian 16, Revision A.03,
 M. J. Frisch, G. W. Trucks, H. B. Schlegel, G. E. Scuseria, 
 M. A. Robb, J. R. Cheeseman, G. Scalmani, V. Barone, 
 G. A. Petersson, H. Nakatsuji, X. Li, M. Caricato, A. V. Marenich, 
 J. Bloino, B. G. Janesko, R. Gomperts, B. Mennucci, H. P. Hratchian, 
 J. V. Ortiz, A. F. Izmaylov, J. L. Sonnenberg, D. Williams-Young, 
 F. Ding, F. Lipparini, F. Egidi, J. Goings, B. Peng, A. Petrone, 
 T. Henderson, D. Ranasinghe, V. G. Zakrzewski, J. Gao, N. Rega, 
 G. Zheng, W. Liang, M. Hada, M. Ehara, K. Toyota, R. Fukuda, 
 J. Hasegawa, M. Ishida, T. Nakajima, Y. Honda, O. Kitao, H. Nakai, 
 T. Vreven, K. Throssell, J. A. Montgomery, Jr., J. E. Peralta, 
 F. Ogliaro, M. J. Bearpark, J. J. Heyd, E. N. Brothers, K. N. Kudin, 
 V. N. Staroverov, T. A. Keith, R. Kobayashi, J. Normand, 
 K. Raghavachari, A. P. Rendell, J. C. Burant, S. S. Iyengar, 
 J. Tomasi, M. Cossi, J. M. Millam, M. Klene, C. Adamo, R. Cammi, 
 J. W. Ochterski, R. L. Martin, K. Morokuma, O. Farkas, 
 J. B. Foresman, and D. J. Fox, Gaussian, Inc., Wallingford CT, 2016.
 
 ******************************************
 Gaussian 16:  ES64L-G16RevA.03 25-Dec-2016
                17-Apr-2021 
 ******************************************
 %RWF=temp10_8272,70GB
 %nprocshared=48
 Will use up to   48 processors via shared memory.
 Default route: MaxDisk=80GB
 ----------------------------------------------------------------------
 #P M062X/GEN Integral=UltraFineGrid SCF=NoSymm Stable=(RExt, Opt) IOp(
 1/33=1)
 ----------------------------------------------------------------------
 1/33=1,38=1,172=1/1;
 2/12=2,17=6,18=5,40=1/2;
 3/5=7,11=2,25=1,30=1,74=-55,75=-5/1,2,3;
 4/9=2/1;
 5/5=2,38=5/2;
 6/7=2,8=2,9=2,10=2,28=1/1;
 8/6=1,10=90,11=11/1;
 9/8=-3,42=1,46=1/14;
 5/5=2,8=3,17=40,38=5/8(-2);
 6/7=2,8=2,9=2,10=2,28=1/1;
 99/5=1,9=1/99;
 Leave Link    1 at Sat Apr 17 13:50:23 2021, MaxMem=           0 cpu:              11.2 elap:               0.3
 (Enter /s/ls4/users/knvvv/bin/g16sse/l101.exe)
 ONIOM data not found on unit 2.
 ----------------------
 Database calculations.
 ----------------------
 TstMul:  ICh=     0
 TstMul:  Mul=     1
 TstMul:  ICh=     0
 TstMul:  Mul=     1
 Symbolic Z-matrix:
 Charge =  0 Multiplicity = 1
 N                     0.        0.        0. 
 H                     0.        0.        1.05353 
 O                     1.15137   0.       -0.37432 
 
 RdStrC is calling ZToCFu for IStruc=1 NZ=     3.
 PrtBox:  NBox=     1 Levels=  1 BoxLen=    8.00 SMaxX=        2.70
          Shift=            0.000000            0.000000            0.707368
 Box      1 Number                   0 centers from      1 to      3:
 After GenITR:
 ITRead=  0  0  0
 MicOpt= -1 -1 -1
 ITRead=  0  0  0
 MicOpt= -1 -1 -1
 NAtoms=      3 NQM=        3 NQMF=       0 NMMI=      0 NMMIF=      0
                NMic=       0 NMicF=      0.
                    Isotopes and Nuclear Properties:
 (Nuclear quadrupole moments (NQMom) in fm**2, nuclear magnetic moments (NMagM)
  in nuclear magnetons)

  Atom         1           2           3
 IAtWgt=          14           1          16
 AtmWgt=  14.0030740   1.0078250  15.9949146
 NucSpn=           2           1           0
 AtZEff=  -0.0000000  -0.0000000  -0.0000000
 NQMom=    2.0440000   0.0000000   0.0000000
 NMagM=    0.4037610   2.7928460   0.0000000
 AtZNuc=   7.0000000   1.0000000   8.0000000
 No MM parameters found.
 Leave Link  101 at Sat Apr 17 13:50:23 2021, MaxMem=   104857600 cpu:               6.5 elap:               0.2
 (Enter /s/ls4/users/knvvv/bin/g16sse/l202.exe)
                          Input orientation:                          
 ---------------------------------------------------------------------
 Center     Atomic      Atomic             Coordinates (Angstroms)
 Number     Number       Type             X           Y           Z
 ---------------------------------------------------------------------
      1          7           0        0.000000    0.000000    0.000000
      2          1           0        0.000000    0.000000    1.053528
      3          8           0        1.151372    0.000000   -0.374323
 ---------------------------------------------------------------------
                    Distance matrix (angstroms):
                    1          2          3
     1  N    0.000000
     2  H    1.053528   0.000000
     3  O    1.210692   1.834234   0.000000
 Stoichiometry    HNO
 Framework group  CS[SG(HNO)]
 Deg. of freedom     3
 Full point group                 CS      NOp   2
 Largest Abelian subgroup         CS      NOp   2
 Largest concise Abelian subgroup C1      NOp   1
                         Standard orientation:                         
 ---------------------------------------------------------------------
 Center     Atomic      Atomic             Coordinates (Angstroms)
 Number     Number       Type             X           Y           Z
 ---------------------------------------------------------------------
      1          7           0        0.062619    0.584988   -0.000000
      2          1           0       -0.939290    0.910719   -0.000000
      3          8           0        0.062619   -0.625704    0.000000
 ---------------------------------------------------------------------
 Rotational constants (GHZ):         563.5992823          42.3051238          39.3513187
 Leave Link  202 at Sat Apr 17 13:50:23 2021, MaxMem=   104857600 cpu:               7.4 elap:               0.2
 (Enter /s/ls4/users/knvvv/bin/g16sse/l301.exe)
 General basis read from cards:  (5D, 7F)
 Centers:       2
 S 4 1.00
     Exponent=  1.9069169000D+02 Coefficients=  7.0815167000D-04
     Exponent=  2.8605532000D+01 Coefficients=  5.4678827000D-03
     Exponent=  6.5095943000D+00 Coefficients=  2.7966605000D-02
     Exponent=  1.8412455000D+00 Coefficients=  1.0764538000D-01
 S 1 1.00
     Exponent=  5.9853725000D-01 Coefficients=  1.0000000000D+00
 S 1 1.00
     Exponent=  2.1397624000D-01 Coefficients=  1.0000000000D+00
 S 1 1.00
     Exponent=  8.0316286000D-02 Coefficients=  1.0000000000D+00
 P 1 1.00
     Exponent=  2.2920000000D+00 Coefficients=  1.0000000000D+00
 P 1 1.00
     Exponent=  8.3800000000D-01 Coefficients=  1.0000000000D+00
 P 1 1.00
     Exponent=  2.9200000000D-01 Coefficients=  1.0000000000D+00
 P 1 1.00
     Exponent=  8.4063199228D-02 Coefficients=  1.0000000000D+00
 D 1 1.00
     Exponent=  2.0620000000D+00 Coefficients=  1.0000000000D+00
 D 1 1.00
     Exponent=  6.6200000000D-01 Coefficients=  1.0000000000D+00
 F 1 1.00
     Exponent=  1.3970000000D+00 Coefficients=  1.0000000000D+00
 ****
 Centers:       1
 S 8 1.00
     Exponent=  9.0726889210D+04 Coefficients=  3.9257887368D-05
     Exponent=  1.3590528801D+04 Coefficients=  3.0513316455D-04
     Exponent=  3.0929883781D+03 Coefficients=  1.6000560446D-03
     Exponent=  8.7599876362D+02 Coefficients=  6.6982937306D-03
     Exponent=  2.8574469982D+02 Coefficients=  2.3690078765D-02
     Exponent=  1.0311913417D+02 Coefficients=  7.1455405268D-02
     Exponent=  4.0128556777D+01 Coefficients=  1.7632774876D-01
     Exponent=  1.6528095704D+01 Coefficients=  3.2677592815D-01
 S 2 1.00
     Exponent=  6.9390960983D+01 Coefficients=  8.0052094386D-02
     Exponent=  2.0428200596D+01 Coefficients=  7.8268063538D-01
 S 1 1.00
     Exponent=  7.1292587972D+00 Coefficients=  1.0000000000D+00
 S 1 1.00
     Exponent=  3.1324304893D+00 Coefficients=  1.0000000000D+00
 S 1 1.00
     Exponent=  9.8755778723D-01 Coefficients=  1.0000000000D+00
 S 1 1.00
     Exponent=  3.8765721307D-01 Coefficients=  1.0000000000D+00
 S 1 1.00
     Exponent=  1.4909883075D-01 Coefficients=  1.0000000000D+00
 S 1 1.00
     Exponent=  6.2151630318D-02 Coefficients=  1.0000000000D+00
 P 5 1.00
     Exponent=  1.5005742670D+02 Coefficients= -8.6216165986D-04
     Exponent=  3.5491599483D+01 Coefficients= -6.8571273236D-03
     Exponent=  1.1247864223D+01 Coefficients= -3.1795688855D-02
     Exponent=  4.0900305195D+00 Coefficients= -1.0537396822D-01
     Exponent=  1.6220573146D+00 Coefficients= -2.4519708041D-01
 P 1 1.00
     Exponent=  6.6442261530D-01 Coefficients=  1.0000000000D+00
 P 1 1.00
     Exponent=  2.7099770070D-01 Coefficients=  1.0000000000D+00
 P 1 1.00
     Exponent=  1.0688749984D-01 Coefficients=  1.0000000000D+00
 D 1 1.00
     Exponent=  2.8370000000D+00 Coefficients=  1.0000000000D+00
 D 1 1.00
     Exponent=  9.6800000000D-01 Coefficients=  1.0000000000D+00
 D 1 1.00
     Exponent=  3.3500000000D-01 Coefficients=  1.0000000000D+00
 D 1 1.00
     Exponent=  1.0825280010D-01 Coefficients=  1.0000000000D+00
 F 1 1.00
     Exponent=  2.0270000000D+00 Coefficients=  1.0000000000D+00
 F 1 1.00
     Exponent=  6.8500000000D-01 Coefficients=  1.0000000000D+00
 G 1 1.00
     Exponent=  1.4270000000D+00 Coefficients=  1.0000000000D+00
 ****
 Centers:       3
 S 8 1.00
     Exponent=  1.1650646908D+05 Coefficients=  4.0383857939D-05
     Exponent=  1.7504349724D+04 Coefficients=  3.1255139004D-04
     Exponent=  3.9934513230D+03 Coefficients=  1.6341473495D-03
     Exponent=  1.1330063186D+03 Coefficients=  6.8283224757D-03
     Exponent=  3.6999569594D+02 Coefficients=  2.4124410221D-02
     Exponent=  1.3362074349D+02 Coefficients=  7.2730206154D-02
     Exponent=  5.2035643649D+01 Coefficients=  1.7934429892D-01
     Exponent=  2.1461939313D+01 Coefficients=  3.3059588895D-01
 S 2 1.00
     Exponent=  8.9835051252D+01 Coefficients=  9.6468652996D-02
     Exponent=  2.6428010844D+01 Coefficients=  9.4117481120D-01
 S 1 1.00
     Exponent=  9.2822824649D+00 Coefficients=  1.0000000000D+00
 S 1 1.00
     Exponent=  4.0947728533D+00 Coefficients=  1.0000000000D+00
 S 1 1.00
     Exponent=  1.3255349078D+00 Coefficients=  1.0000000000D+00
 S 1 1.00
     Exponent=  5.1877230787D-01 Coefficients=  1.0000000000D+00
 S 1 1.00
     Exponent=  1.9772676454D-01 Coefficients=  1.0000000000D+00
 S 1 1.00
     Exponent=  6.9638535104D-02 Coefficients=  1.0000000000D+00
 P 5 1.00
     Exponent=  1.9115255810D+02 Coefficients=  2.5115697705D-03
     Exponent=  4.5233356739D+01 Coefficients=  2.0039240864D-02
     Exponent=  1.4353465922D+01 Coefficients=  9.3609064762D-02
     Exponent=  5.2422371832D+00 Coefficients=  3.0618127124D-01
     Exponent=  2.0792418599D+00 Coefficients=  6.7810501439D-01
 P 1 1.00
     Exponent=  8.4282371424D-01 Coefficients=  1.0000000000D+00
 P 1 1.00
     Exponent=  3.3617694891D-01 Coefficients=  1.0000000000D+00
 P 1 1.00
     Exponent=  1.2863997974D-01 Coefficients=  1.0000000000D+00
 P 1 1.00
     Exponent=  4.3598162776D-02 Coefficients=  1.0000000000D+00
 D 1 1.00
     Exponent=  3.7750000000D+00 Coefficients=  1.0000000000D+00
 D 1 1.00
     Exponent=  1.3000000000D+00 Coefficients=  1.0000000000D+00
 D 1 1.00
     Exponent=  4.4400000000D-01 Coefficients=  1.0000000000D+00
 D 1 1.00
     Exponent=  1.2546378695D-01 Coefficients=  1.0000000000D+00
 F 1 1.00
     Exponent=  2.6660000000D+00 Coefficients=  1.0000000000D+00
 F 1 1.00
     Exponent=  8.5900000000D-01 Coefficients=  1.0000000000D+00
 G 1 1.00
     Exponent=  1.8460000000D+00 Coefficients=  1.0000000000D+00
 ****
 Ernie: Thresh=  0.10000D-02 Tol=  0.10000D-05 Strict=F.
 There are   134 symmetry adapted cartesian basis functions of A'  symmetry.
 There are    65 symmetry adapted cartesian basis functions of A"  symmetry.
 There are   106 symmetry adapted basis functions of A'  symmetry.
 There are    56 symmetry adapted basis functions of A"  symmetry.
   162 basis functions,   242 primitive gaussians,   199 cartesian basis functions
     8 alpha electrons        8 beta electrons
       nuclear repulsion energy        30.3008875251 Hartrees.
 IExCor= 4336 DFT=T Ex+Corr=M062X ExCW=0 ScaHFX=  0.540000
 ScaDFX=  1.000000  1.000000  1.000000  1.000000 ScalE2=  1.000000  1.000000
 IRadAn=      5 IRanWt=     -1 IRanGd=            0 ICorTp=0 IEmpDi=  4
 NAtoms=    3 NActive=    3 NUniq=    3 SFac= 1.00D+00 NAtFMM=   60 NAOKFM=F Big=F
 Integral buffers will be    131072 words long.
 Raffenetti 2 integral format.
 Two-electron integral symmetry is turned on.
 Leave Link  301 at Sat Apr 17 13:50:23 2021, MaxMem=   104857600 cpu:               7.7 elap:               0.2
 (Enter /s/ls4/users/knvvv/bin/g16sse/l302.exe)
 NPDir=0 NMtPBC=     1 NCelOv=     1 NCel=       1 NClECP=     1 NCelD=      1
         NCelK=      1 NCelE2=     1 NClLst=     1 CellRange=     0.0.
 One-electron integrals computed using PRISM.
 One-electron integral symmetry used in STVInt
 PrsmSu:  requested number of processors reduced to:   4 ShMem   1 Linda.
 PrsmSu:  requested number of processors reduced to:  21 ShMem   1 Linda.
 NBasis=   162 RedAO= T EigKep=  7.30D-05  NBF=   106    56
 NBsUse=   162 1.00D-06 EigRej= -1.00D+00 NBFU=   106    56
 Precomputing XC quadrature grid using
 IXCGrd= 4 IRadAn=           5 IRanWt=          -1 IRanGd=           0 AccXCQ= 0.00D+00.
 Generated NRdTot=       0 NPtTot=           0 NUsed=           0 NTot=          32
 NSgBfM=   199   199   199   199   199 MxSgAt=     3 MxSgA2=     3.
 Leave Link  302 at Sat Apr 17 13:50:27 2021, MaxMem=   104857600 cpu:             145.8 elap:               3.2
 (Enter /s/ls4/users/knvvv/bin/g16sse/l303.exe)
 DipDrv:  MaxL=1.
 Leave Link  303 at Sat Apr 17 13:50:27 2021, MaxMem=   104857600 cpu:              31.0 elap:               0.7
 (Enter /s/ls4/users/knvvv/bin/g16sse/l401.exe)
 SCF N**3 symmetry information disabled.
 ExpMin= 4.36D-02 ExpMax= 1.17D+05 ExpMxC= 1.13D+03 IAcc=3 IRadAn=         5 AccDes= 0.00D+00
 Harris functional with IExCor= 1009 and IRadAn=       5 diagonalized for initial guess.
 HarFok:  IExCor= 1009 AccDes= 0.00D+00 IRadAn=         5 IDoV= 1 UseB2=F ITyADJ=14
 ICtDFT=  3500011 ScaDFX=  1.000000  1.000000  1.000000  1.000000
 FoFCou: FMM=F IPFlag=           0 FMFlag=      100000 FMFlg1=           0
         NFxFlg=           0 DoJE=T BraDBF=F KetDBF=T FulRan=T
         wScrn=  0.000000 ICntrl=       500 IOpCl=  0 I1Cent=   200000004 NGrid=           0
         NMat0=    1 NMatS0=      1 NMatT0=    0 NMatD0=    1 NMtDS0=    0 NMtDT0=    0
 Petite list used in FoFCou.
 CoulSu:  requested number of processors reduced to:  21 ShMem   1 Linda.
 CoulSu:  requested number of processors reduced to:  21 ShMem   1 Linda.
 CoulSu:  requested number of processors reduced to:  21 ShMem   1 Linda.
 CoulSu:  requested number of processors reduced to:  21 ShMem   1 Linda.
 Harris En= -130.406334712118    
 JPrj=0 DoOrth=F DoCkMO=F.
 Initial guess orbital symmetries:
       Occupied  (A') (A') (A') (A') (A') (A') (A") (A')
       Virtual   (A") (A') (A') (A") (A') (A') (A') (A") (A') (A')
                 (A") (A') (A') (A') (A") (A') (A") (A') (A') (A")
                 (A') (A") (A') (A') (A') (A') (A") (A') (A") (A')
                 (A') (A') (A") (A") (A') (A') (A') (A') (A') (A")
                 (A") (A') (A") (A') (A') (A') (A') (A") (A') (A")
                 (A') (A') (A") (A') (A') (A") (A') (A') (A") (A")
                 (A') (A') (A") (A') (A') (A") (A') (A") (A') (A')
                 (A') (A") (A') (A') (A") (A") (A') (A') (A") (A")
                 (A') (A') (A') (A') (A') (A") (A') (A") (A') (A")
                 (A') (A") (A') (A") (A') (A') (A') (A") (A') (A')
                 (A') (A") (A") (A') (A') (A") (A') (A") (A') (A")
                 (A') (A") (A') (A') (A") (A") (A') (A") (A') (A')
                 (A') (A") (A') (A") (A") (A') (A') (A") (A') (A')
                 (A') (A") (A") (A') (A') (A') (A") (A') (A") (A')
                 (A") (A') (A') (A") (A') (A") (A') (A') (A') (A')
                 (A') (A') (A') (A')
 The electronic state of the initial guess is 1-A'.
 Leave Link  401 at Sat Apr 17 13:50:28 2021, MaxMem=   104857600 cpu:              19.8 elap:               0.6
 (Enter /s/ls4/users/knvvv/bin/g16sse/l502.exe)
 Integral symmetry usage will be decided dynamically.
 Closed shell SCF:
 Using DIIS extrapolation, IDIIS=  1040.
 NGot=   104857600 LenX=   104766776 LenY=   104726734
 Requested convergence on RMS density matrix=1.00D-08 within 128 cycles.
 Requested convergence on MAX density matrix=1.00D-06.
 Requested convergence on             energy=1.00D-06.
 No special actions if energy rises.
 Fock matrices will be formed incrementally for  20 cycles.

 Cycle   1  Pass 1  IDiag  1:
 FoFJK:  IHMeth= 1 ICntrl=       0 DoSepK=F KAlg= 0 I1Cent=           0 FoldK=F
 IRaf= 990000000 NMat=       1 IRICut=       1 DoRegI=T DoRafI=F ISym2E= 1 IDoP0=0 IntGTp=1.
 FoFCou: FMM=F IPFlag=           0 FMFlag=      100000 FMFlg1=           0
         NFxFlg=           0 DoJE=F BraDBF=F KetDBF=F FulRan=T
         wScrn=  0.000000 ICntrl=         0 IOpCl=  0 I1Cent=           0 NGrid=           0
         NMat0=    1 NMatS0=      1 NMatT0=    0 NMatD0=    1 NMtDS0=    0 NMtDT0=    0
 Petite list used in FoFCou.
 CoulSu:  requested number of processors reduced to:  21 ShMem   1 Linda.
 E= -130.460362095541    
 DIIS: error= 3.74D-02 at cycle   1 NSaved=   1.
 NSaved= 1 IEnMin= 1 EnMin= -130.460362095541     IErMin= 1 ErrMin= 3.74D-02
 ErrMax= 3.74D-02  0.00D+00 EMaxC= 1.00D-01 BMatC= 9.16D-02 BMatP= 9.16D-02
 IDIUse=3 WtCom= 6.26D-01 WtEn= 3.74D-01
 Coeff-Com:  0.100D+01
 Coeff-En:   0.100D+01
 Coeff:      0.100D+01
 Gap=     0.257 Goal=   None    Shift=    0.000
 GapD=    0.257 DampG=1.000 DampE=0.500 DampFc=0.5000 IDamp=-1.
 Damping current iteration by 5.00D-01
 RMSDP=1.17D-03 MaxDP=3.64D-02              OVMax= 1.28D-01

 Cycle   2  Pass 1  IDiag  1:
 RMSU=  5.83D-04    CP:  1.00D+00
 CoulSu:  requested number of processors reduced to:  21 ShMem   1 Linda.
 E= -130.468549197199     Delta-E=       -0.008187101658 Rises=F Damp=T
 DIIS: error= 1.94D-02 at cycle   2 NSaved=   2.
 NSaved= 2 IEnMin= 2 EnMin= -130.468549197199     IErMin= 2 ErrMin= 1.94D-02
 ErrMax= 1.94D-02  0.00D+00 EMaxC= 1.00D-01 BMatC= 2.07D-02 BMatP= 9.16D-02
 IDIUse=3 WtCom= 8.06D-01 WtEn= 1.94D-01
 Coeff-Com: -0.175D+00 0.118D+01
 Coeff-En:   0.214D+00 0.786D+00
 Coeff:     -0.995D-01 0.110D+01
 Gap=     0.281 Goal=   None    Shift=    0.000
 RMSDP=5.21D-04 MaxDP=1.19D-02 DE=-8.19D-03 OVMax= 1.15D-01

 Cycle   3  Pass 1  IDiag  1:
 RMSU=  5.18D-04    CP:  1.01D+00  1.06D+00
 CoulSu:  requested number of processors reduced to:  21 ShMem   1 Linda.
 E= -130.473916851778     Delta-E=       -0.005367654579 Rises=F Damp=F
 DIIS: error= 9.28D-03 at cycle   3 NSaved=   3.
 NSaved= 3 IEnMin= 3 EnMin= -130.473916851778     IErMin= 3 ErrMin= 9.28D-03
 ErrMax= 9.28D-03  0.00D+00 EMaxC= 1.00D-01 BMatC= 1.46D-02 BMatP= 2.07D-02
 IDIUse=3 WtCom= 9.07D-01 WtEn= 9.28D-02
 Coeff-Com: -0.314D+00 0.677D+00 0.637D+00
 Coeff-En:   0.000D+00 0.292D+00 0.708D+00
 Coeff:     -0.285D+00 0.642D+00 0.643D+00
 Gap=     0.271 Goal=   None    Shift=    0.000
 RMSDP=3.35D-04 MaxDP=1.28D-02 DE=-5.37D-03 OVMax= 4.89D-02

 Cycle   4  Pass 1  IDiag  1:
 RMSU=  2.32D-04    CP:  1.00D+00  1.37D+00  7.17D-01
 CoulSu:  requested number of processors reduced to:  21 ShMem   1 Linda.
 E= -130.483601704633     Delta-E=       -0.009684852855 Rises=F Damp=F
 DIIS: error= 1.57D-03 at cycle   4 NSaved=   4.
 NSaved= 4 IEnMin= 4 EnMin= -130.483601704633     IErMin= 4 ErrMin= 1.57D-03
 ErrMax= 1.57D-03  0.00D+00 EMaxC= 1.00D-01 BMatC= 4.31D-04 BMatP= 1.46D-02
 IDIUse=3 WtCom= 9.84D-01 WtEn= 1.57D-02
 Coeff-Com: -0.885D-01 0.182D+00 0.267D+00 0.639D+00
 Coeff-En:   0.000D+00 0.000D+00 0.000D+00 0.100D+01
 Coeff:     -0.871D-01 0.179D+00 0.263D+00 0.645D+00
 Gap=     0.270 Goal=   None    Shift=    0.000
 RMSDP=6.95D-05 MaxDP=2.94D-03 DE=-9.68D-03 OVMax= 6.09D-03

 Cycle   5  Pass 1  IDiag  1:
 RMSU=  2.14D-05    CP:  1.00D+00  1.35D+00  7.46D-01  7.36D-01
 CoulSu:  requested number of processors reduced to:  21 ShMem   1 Linda.
 E= -130.483898412513     Delta-E=       -0.000296707880 Rises=F Damp=F
 DIIS: error= 2.44D-04 at cycle   5 NSaved=   5.
 NSaved= 5 IEnMin= 5 EnMin= -130.483898412513     IErMin= 5 ErrMin= 2.44D-04
 ErrMax= 2.44D-04  0.00D+00 EMaxC= 1.00D-01 BMatC= 4.15D-06 BMatP= 4.31D-04
 IDIUse=3 WtCom= 9.98D-01 WtEn= 2.44D-03
 Coeff-Com: -0.888D-02 0.170D-01 0.438D-01 0.168D+00 0.781D+00
 Coeff-En:   0.000D+00 0.000D+00 0.000D+00 0.000D+00 0.100D+01
 Coeff:     -0.886D-02 0.169D-01 0.437D-01 0.167D+00 0.781D+00
 Gap=     0.271 Goal=   None    Shift=    0.000
 RMSDP=1.14D-05 MaxDP=2.51D-04 DE=-2.97D-04 OVMax= 6.60D-04

 Cycle   6  Pass 1  IDiag  1:
 RMSU=  7.09D-06    CP:  1.00D+00  1.34D+00  7.52D-01  7.71D-01  8.81D-01
 CoulSu:  requested number of processors reduced to:  21 ShMem   1 Linda.
 E= -130.483901535050     Delta-E=       -0.000003122537 Rises=F Damp=F
 DIIS: error= 4.12D-05 at cycle   6 NSaved=   6.
 NSaved= 6 IEnMin= 6 EnMin= -130.483901535050     IErMin= 6 ErrMin= 4.12D-05
 ErrMax= 4.12D-05  0.00D+00 EMaxC= 1.00D-01 BMatC= 2.85D-07 BMatP= 4.15D-06
 IDIUse=1 WtCom= 1.00D+00 WtEn= 0.00D+00
 Coeff-Com:  0.547D-02-0.112D-01-0.141D-01-0.471D-01 0.407D-02 0.106D+01
 Coeff:      0.547D-02-0.112D-01-0.141D-01-0.471D-01 0.407D-02 0.106D+01
 Gap=     0.271 Goal=   None    Shift=    0.000
 RMSDP=2.48D-06 MaxDP=6.10D-05 DE=-3.12D-06 OVMax= 1.70D-04

 Cycle   7  Pass 1  IDiag  1:
 RMSU=  1.11D-06    CP:  1.00D+00  1.34D+00  7.54D-01  7.71D-01  9.26D-01
                    CP:  1.22D+00
 CoulSu:  requested number of processors reduced to:  21 ShMem   1 Linda.
 E= -130.483901823793     Delta-E=       -0.000000288744 Rises=F Damp=F
 DIIS: error= 6.81D-06 at cycle   7 NSaved=   7.
 NSaved= 7 IEnMin= 7 EnMin= -130.483901823793     IErMin= 7 ErrMin= 6.81D-06
 ErrMax= 6.81D-06  0.00D+00 EMaxC= 1.00D-01 BMatC= 8.02D-09 BMatP= 2.85D-07
 IDIUse=1 WtCom= 1.00D+00 WtEn= 0.00D+00
 Coeff-Com: -0.663D-03 0.135D-02 0.169D-02 0.222D-02-0.172D-01-0.166D+00
 Coeff-Com:  0.118D+01
 Coeff:     -0.663D-03 0.135D-02 0.169D-02 0.222D-02-0.172D-01-0.166D+00
 Coeff:      0.118D+01
 Gap=     0.271 Goal=   None    Shift=    0.000
 RMSDP=6.20D-07 MaxDP=2.19D-05 DE=-2.89D-07 OVMax= 4.79D-05

 Cycle   8  Pass 1  IDiag  1:
 RMSU=  2.22D-07    CP:  1.00D+00  1.34D+00  7.54D-01  7.70D-01  9.24D-01
                    CP:  1.27D+00  1.30D+00
 CoulSu:  requested number of processors reduced to:  21 ShMem   1 Linda.
 E= -130.483901833800     Delta-E=       -0.000000010007 Rises=F Damp=F
 DIIS: error= 1.42D-06 at cycle   8 NSaved=   8.
 NSaved= 8 IEnMin= 8 EnMin= -130.483901833800     IErMin= 8 ErrMin= 1.42D-06
 ErrMax= 1.42D-06  0.00D+00 EMaxC= 1.00D-01 BMatC= 3.92D-10 BMatP= 8.02D-09
 IDIUse=1 WtCom= 1.00D+00 WtEn= 0.00D+00
 Coeff-Com: -0.170D-03 0.350D-03 0.551D-03 0.148D-02 0.492D-03-0.490D-01
 Coeff-Com:  0.512D-01 0.995D+00
 Coeff:     -0.170D-03 0.350D-03 0.551D-03 0.148D-02 0.492D-03-0.490D-01
 Coeff:      0.512D-01 0.995D+00
 Gap=     0.271 Goal=   None    Shift=    0.000
 RMSDP=1.56D-07 MaxDP=7.49D-06 DE=-1.00D-08 OVMax= 7.14D-06

 Cycle   9  Pass 1  IDiag  1:
 RMSU=  6.32D-08    CP:  1.00D+00  1.34D+00  7.54D-01  7.69D-01  9.24D-01
                    CP:  1.28D+00  1.36D+00  1.09D+00
 CoulSu:  requested number of processors reduced to:  21 ShMem   1 Linda.
 E= -130.483901834163     Delta-E=       -0.000000000363 Rises=F Damp=F
 DIIS: error= 2.95D-07 at cycle   9 NSaved=   9.
 NSaved= 9 IEnMin= 9 EnMin= -130.483901834163     IErMin= 9 ErrMin= 2.95D-07
 ErrMax= 2.95D-07  0.00D+00 EMaxC= 1.00D-01 BMatC= 1.53D-11 BMatP= 3.92D-10
 IDIUse=1 WtCom= 1.00D+00 WtEn= 0.00D+00
 Coeff-Com:  0.105D-04-0.211D-04 0.104D-04 0.942D-04 0.989D-03-0.386D-03
 Coeff-Com: -0.369D-01 0.924D-01 0.944D+00
 Coeff:      0.105D-04-0.211D-04 0.104D-04 0.942D-04 0.989D-03-0.386D-03
 Coeff:     -0.369D-01 0.924D-01 0.944D+00
 Gap=     0.271 Goal=   None    Shift=    0.000
 RMSDP=3.46D-08 MaxDP=1.55D-06 DE=-3.63D-10 OVMax= 1.08D-06

 Cycle  10  Pass 1  IDiag  1:
 RMSU=  1.04D-08    CP:  1.00D+00  1.34D+00  7.54D-01  7.69D-01  9.25D-01
                    CP:  1.28D+00  1.37D+00  1.11D+00  1.23D+00
 CoulSu:  requested number of processors reduced to:  21 ShMem   1 Linda.
 E= -130.483901834176     Delta-E=       -0.000000000012 Rises=F Damp=F
 DIIS: error= 5.01D-08 at cycle  10 NSaved=  10.
 NSaved=10 IEnMin=10 EnMin= -130.483901834176     IErMin=10 ErrMin= 5.01D-08
 ErrMax= 5.01D-08  0.00D+00 EMaxC= 1.00D-01 BMatC= 3.89D-13 BMatP= 1.53D-11
 IDIUse=1 WtCom= 1.00D+00 WtEn= 0.00D+00
 Coeff-Com:  0.363D-05-0.761D-05-0.787D-05-0.225D-04 0.248D-04 0.120D-02
 Coeff-Com: -0.191D-02-0.341D-01-0.134D-01 0.105D+01
 Coeff:      0.363D-05-0.761D-05-0.787D-05-0.225D-04 0.248D-04 0.120D-02
 Coeff:     -0.191D-02-0.341D-01-0.134D-01 0.105D+01
 Gap=     0.271 Goal=   None    Shift=    0.000
 RMSDP=8.16D-09 MaxDP=3.19D-07 DE=-1.22D-11 OVMax= 3.04D-07

 SCF Done:  E(RM062X) =  -130.483901834     A.U. after   10 cycles
            NFock= 10  Conv=0.82D-08     -V/T= 2.0038
 KE= 1.299942898658D+02 PE=-3.677436943042D+02 EE= 7.696461507916D+01
 Leave Link  502 at Sat Apr 17 13:50:42 2021, MaxMem=   104857600 cpu:             481.3 elap:              13.7
 (Enter /s/ls4/users/knvvv/bin/g16sse/l601.exe)
 Copying SCF densities to generalized density rwf, IOpCl= 0 IROHF=0.

 **********************************************************************

            Population analysis using the SCF density.

 **********************************************************************

 Orbital symmetries:
       Occupied  (A') (A') (A') (A') (A') (A') (A") (A')
       Virtual   (A") (A') (A') (A") (A') (A') (A') (A") (A') (A')
                 (A') (A") (A') (A') (A") (A') (A") (A') (A') (A")
                 (A') (A") (A') (A') (A') (A') (A") (A') (A") (A')
                 (A') (A') (A") (A') (A") (A') (A') (A') (A") (A')
                 (A") (A') (A") (A') (A') (A') (A') (A") (A') (A")
                 (A') (A') (A") (A') (A') (A") (A') (A') (A") (A")
                 (A') (A') (A") (A') (A') (A") (A') (A") (A') (A')
                 (A') (A") (A') (A') (A") (A') (A") (A') (A") (A")
                 (A') (A') (A') (A') (A") (A') (A') (A") (A') (A")
                 (A') (A") (A') (A') (A") (A') (A') (A") (A') (A')
                 (A") (A') (A") (A') (A") (A') (A') (A") (A') (A")
                 (A') (A") (A') (A") (A') (A") (A') (A') (A") (A')
                 (A') (A") (A') (A") (A") (A') (A') (A") (A') (A')
                 (A') (A") (A") (A') (A') (A') (A") (A") (A') (A')
                 (A") (A') (A') (A") (A') (A") (A') (A') (A') (A')
                 (A') (A') (A') (A')
 The electronic state is 1-A'.
 Alpha  occ. eigenvalues --  -19.71898 -14.88747  -1.30314  -0.83545  -0.62465
 Alpha  occ. eigenvalues --   -0.54517  -0.53878  -0.33028
 Alpha virt. eigenvalues --   -0.05958   0.02049   0.04834   0.05700   0.06339
 Alpha virt. eigenvalues --    0.11285   0.12272   0.14913   0.19731   0.23373
 Alpha virt. eigenvalues --    0.26649   0.26776   0.30355   0.33269   0.33445
 Alpha virt. eigenvalues --    0.36817   0.37486   0.38886   0.40468   0.41464
 Alpha virt. eigenvalues --    0.43916   0.44459   0.47767   0.50404   0.58051
 Alpha virt. eigenvalues --    0.60555   0.64778   0.66210   0.71655   0.73437
 Alpha virt. eigenvalues --    0.81658   0.95123   0.99442   1.08433   1.08465
 Alpha virt. eigenvalues --    1.11227   1.12731   1.22460   1.24937   1.25669
 Alpha virt. eigenvalues --    1.37782   1.39985   1.46325   1.47838   1.50679
 Alpha virt. eigenvalues --    1.55454   1.69785   1.77083   1.78111   1.99731
 Alpha virt. eigenvalues --    2.12016   2.25507   2.26679   2.40765   2.43086
 Alpha virt. eigenvalues --    2.46782   2.54399   2.63936   2.72360   2.78446
 Alpha virt. eigenvalues --    2.85099   2.89847   2.90021   2.93986   3.10902
 Alpha virt. eigenvalues --    3.11703   3.14678   3.18716   3.36566   3.46272
 Alpha virt. eigenvalues --    3.52540   3.57859   3.62444   3.74514   3.78508
 Alpha virt. eigenvalues --    3.98928   3.99302   4.03587   4.06198   4.11413
 Alpha virt. eigenvalues --    4.28029   4.33508   4.69591   4.73744   4.82408
 Alpha virt. eigenvalues --    4.83763   4.87616   5.25010   5.32222   5.68643
 Alpha virt. eigenvalues --    5.72960   6.00193   6.13545   6.58604   6.58903
 Alpha virt. eigenvalues --    6.70464   6.81803   6.96556   7.01126   7.15910
 Alpha virt. eigenvalues --    7.24321   7.32913   7.42781   7.55634   7.60727
 Alpha virt. eigenvalues --    7.62562   7.76860   7.92283   7.95411   7.97971
 Alpha virt. eigenvalues --    8.16320   8.35089   8.36786   8.49884   8.50034
 Alpha virt. eigenvalues --    8.54037   8.68597   8.76082   8.77005   8.79072
 Alpha virt. eigenvalues --    8.92470   8.96970   9.11147   9.16642   9.45113
 Alpha virt. eigenvalues --    9.55083   9.56724   9.93937  10.04365  10.26723
 Alpha virt. eigenvalues --   10.56257  10.71849  10.80008  10.80684  10.85668
 Alpha virt. eigenvalues --   10.96702  10.99987  11.09351  11.11192  11.20414
 Alpha virt. eigenvalues --   11.53477  11.70004  11.90310  11.97121  12.04884
 Alpha virt. eigenvalues --   13.14334  13.27005  13.81375  14.15915  14.95277
 Alpha virt. eigenvalues --   37.43932  47.93531 194.88605 250.96435
          Condensed to atoms (all electrons):
               1          2          3
     1  N    6.969979   0.109293   0.097397
     2  H    0.109293   0.585325  -0.038476
     3  O    0.097397  -0.038476   8.108268
 Mulliken charges:
               1
     1  N   -0.176669
     2  H    0.343858
     3  O   -0.167189
 Sum of Mulliken charges =  -0.00000
 Mulliken charges with hydrogens summed into heavy atoms:
               1
     1  N    0.167189
     3  O   -0.167189
 Electronic spatial extent (au):  <R**2>=             51.0770
 Charge=             -0.0000 electrons
 Dipole moment (field-independent basis, Debye):
    X=             -1.4554    Y=              0.9879    Z=             -0.0000  Tot=              1.7590
 Quadrupole moment (field-independent basis, Debye-Ang):
   XX=            -11.0714   YY=            -11.8832   ZZ=            -10.6920
   XY=             -1.5297   XZ=              0.0000   YZ=              0.0000
 Traceless Quadrupole moment (field-independent basis, Debye-Ang):
   XX=              0.1441   YY=             -0.6677   ZZ=              0.5235
   XY=             -1.5297   XZ=              0.0000   YZ=              0.0000
 Octapole moment (field-independent basis, Debye-Ang**2):
  XXX=             -1.6609  YYY=             -1.3238  ZZZ=              0.0000  XYY=             -1.6973
  XXY=              0.2346  XXZ=             -0.0000  XZZ=             -0.1929  YZZ=             -0.5038
  YYZ=             -0.0000  XYZ=              0.0000
 Hexadecapole moment (field-independent basis, Debye-Ang**3):
 XXXX=            -13.2178 YYYY=            -37.1825 ZZZZ=             -8.7243 XXXY=              0.2880
 XXXZ=             -0.0000 YYYX=             -0.4301 YYYZ=              0.0000 ZZZX=             -0.0000
 ZZZY=              0.0000 XXYY=             -8.7492 XXZZ=             -3.8432 YYZZ=             -7.3690
 XXYZ=              0.0000 YYXZ=              0.0000 ZZXY=              0.3026
 N-N= 3.030088752509D+01 E-N=-3.677436950617D+02  KE= 1.299942898658D+02
 PrsmSu:  requested number of processors reduced to:  21 ShMem   1 Linda.
 No NMR shielding tensors so no spin-rotation constants.
 Leave Link  601 at Sat Apr 17 13:50:43 2021, MaxMem=   104857600 cpu:              73.2 elap:               1.7
 (Enter /s/ls4/users/knvvv/bin/g16sse/l801.exe)
 DoSCS=F DFT=T ScalE2(SS,OS)=  1.000000  1.000000
 Range of M.O.s used for correlation:     1   162
 NBasis=   162 NAE=     8 NBE=     8 NFC=     0 NFV=     0
 NROrb=    162 NOA=     8 NOB=     8 NVA=   154 NVB=   154

 **** Warning!!: The largest alpha MO coefficient is  0.28147541D+02

 Leave Link  801 at Sat Apr 17 13:50:43 2021, MaxMem=   104857600 cpu:               3.3 elap:               0.1
 (Enter /s/ls4/users/knvvv/bin/g16sse/l914.exe)
 RHF ground state
 Doing stability rather than CIS.
 Two-electron integrals replicated using symmetry.
 MDV=   104857600 DFT=T DoStab=T Mixed=T DoRPA=F DoScal=F NonHer=F
 Making orbital integer symmetry assigments:
 Orbital symmetries:
       Occupied  (A') (A') (A') (A') (A') (A') (A") (A')
       Virtual   (A") (A') (A') (A") (A') (A') (A') (A") (A') (A')
                 (A') (A") (A') (A') (A") (A') (A") (A') (A') (A")
                 (A') (A") (A') (A') (A') (A') (A") (A') (A") (A')
                 (A') (A') (A") (A') (A") (A') (A') (A') (A") (A')
                 (A") (A') (A") (A') (A') (A') (A') (A") (A') (A")
                 (A') (A') (A") (A') (A') (A") (A') (A') (A") (A")
                 (A') (A') (A") (A') (A') (A") (A') (A") (A') (A')
                 (A') (A") (A') (A') (A") (A') (A") (A') (A") (A")
                 (A') (A') (A') (A') (A") (A') (A') (A") (A') (A")
                 (A') (A") (A') (A') (A") (A') (A') (A") (A') (A')
                 (A") (A') (A") (A') (A") (A') (A') (A") (A') (A")
                 (A') (A") (A') (A") (A') (A") (A') (A') (A") (A')
                 (A') (A") (A') (A") (A") (A') (A') (A") (A') (A')
                 (A') (A") (A") (A') (A') (A') (A") (A") (A') (A')
                 (A") (A') (A') (A") (A') (A") (A') (A') (A') (A')
                 (A') (A') (A') (A')
    24 initial guesses have been made.
 Convergence on wavefunction:    0.001000000000000
 Davidson Disk Diagonalization:  ConvIn= 1.00D-03 SkipCon=T Conv= 1.00D-03.
 Max sub-space:  2000 roots to seek:    24 dimension of matrix:         2464
 Iteration     1 Dimension    24 NMult     0 NNew     24
 Estimated number of processors is:   19
 CISAX will form     1 AO SS matrices at one time.
 NMat=     1 NSing=     1 JSym2X= 2.
 FoFJK:  IHMeth= 1 ICntrl=       0 DoSepK=F KAlg= 0 I1Cent=           0 FoldK=F
 IRaf= 990000000 NMat=       1 IRICut=       1 DoRegI=T DoRafI=F ISym2E= 2 IDoP0=0 IntGTp=1.
 FoFCou: FMM=F IPFlag=           0 FMFlag=      100000 FMFlg1=           0
         NFxFlg=           0 DoJE=F BraDBF=F KetDBF=F FulRan=T
         wScrn=  0.000000 ICntrl=         0 IOpCl=  0 I1Cent=           0 NGrid=           0
         NMat0=    1 NMatS0=      1 NMatT0=    0 NMatD0=    1 NMtDS0=    0 NMtDT0=    0
 Integrals replicated using symmetry in FoFCou.
 CoulSu:  requested number of processors reduced to:  21 ShMem   1 Linda.
 NMat=     1 NSing=     1 JSym2X= 2.
 CoulSu:  requested number of processors reduced to:  21 ShMem   1 Linda.
 NMat=     1 NSing=     1 JSym2X= 2.
 CoulSu:  requested number of processors reduced to:  21 ShMem   1 Linda.
 NMat=     1 NSing=     1 JSym2X= 2.
 CoulSu:  requested number of processors reduced to:  21 ShMem   1 Linda.
 NMat=     1 NSing=     1 JSym2X= 2.
 CoulSu:  requested number of processors reduced to:  21 ShMem   1 Linda.
 NMat=     1 NSing=     1 JSym2X= 2.
 CoulSu:  requested number of processors reduced to:  21 ShMem   1 Linda.
 NMat=     1 NSing=     1 JSym2X= 2.
 CoulSu:  requested number of processors reduced to:  21 ShMem   1 Linda.
 NMat=     1 NSing=     1 JSym2X= 2.
 CoulSu:  requested number of processors reduced to:  21 ShMem   1 Linda.
 NMat=     1 NSing=     1 JSym2X= 2.
 CoulSu:  requested number of processors reduced to:  21 ShMem   1 Linda.
 NMat=     1 NSing=     1 JSym2X= 2.
 CoulSu:  requested number of processors reduced to:  21 ShMem   1 Linda.
 NMat=     1 NSing=     1 JSym2X= 2.
 CoulSu:  requested number of processors reduced to:  21 ShMem   1 Linda.
 NMat=     1 NSing=     1 JSym2X= 2.
 CoulSu:  requested number of processors reduced to:  21 ShMem   1 Linda.
 NMat=     1 NSing=     0 JSym2X= 2.
 CoulSu:  requested number of processors reduced to:  21 ShMem   1 Linda.
 NMat=     1 NSing=     0 JSym2X= 2.
 CoulSu:  requested number of processors reduced to:  21 ShMem   1 Linda.
 NMat=     1 NSing=     0 JSym2X= 2.
 CoulSu:  requested number of processors reduced to:  21 ShMem   1 Linda.
 NMat=     1 NSing=     0 JSym2X= 2.
 CoulSu:  requested number of processors reduced to:  21 ShMem   1 Linda.
 NMat=     1 NSing=     0 JSym2X= 2.
 CoulSu:  requested number of processors reduced to:  21 ShMem   1 Linda.
 NMat=     1 NSing=     0 JSym2X= 2.
 CoulSu:  requested number of processors reduced to:  21 ShMem   1 Linda.
 NMat=     1 NSing=     0 JSym2X= 2.
 CoulSu:  requested number of processors reduced to:  21 ShMem   1 Linda.
 NMat=     1 NSing=     0 JSym2X= 2.
 CoulSu:  requested number of processors reduced to:  21 ShMem   1 Linda.
 NMat=     1 NSing=     0 JSym2X= 2.
 CoulSu:  requested number of processors reduced to:  21 ShMem   1 Linda.
 NMat=     1 NSing=     0 JSym2X= 2.
 CoulSu:  requested number of processors reduced to:  21 ShMem   1 Linda.
 NMat=     1 NSing=     0 JSym2X= 2.
 CoulSu:  requested number of processors reduced to:  21 ShMem   1 Linda.
 NMat=     1 NSing=     0 JSym2X= 2.
 CoulSu:  requested number of processors reduced to:  21 ShMem   1 Linda.
 New state      1 was old state      2
 Excitation Energies [eV] at current iteration:
 Root      1 :     0.602682108791981
 Root      2 :     2.386455275251468
 Root      3 :     4.226952150686620
 Root      4 :     6.269504049003341
 Root      5 :     6.792651705881140
 Root      6 :     6.970852322063125
 Root      7 :     7.809107529826345
 Root      8 :     8.027693497392317
 Root      9 :     8.044967793446514
 Root     10 :     8.091311492524927
 Root     11 :     8.260763080819650
 Root     12 :     8.400598868245407
 Root     13 :     8.530128655151520
 Root     14 :     9.463928981568417
 Root     15 :     9.584083556633445
 Root     16 :     9.635365273992049
 Root     17 :    10.608918116493710
 Root     18 :    10.710984651851110
 Root     19 :    10.824883081531900
 Root     20 :    11.754628041647350
 Root     21 :    11.837365405646560
 Root     22 :    12.436624198435520
 Root     23 :    12.463622987071030
 Root     24 :    21.333484691568280
 Iteration     2 Dimension    48 NMult    24 NNew     24
 Estimated number of processors is:   19
 CISAX will form     1 AO SS matrices at one time.
 NMat=     1 NSing=     1 JSym2X= 2.
 CoulSu:  requested number of processors reduced to:  21 ShMem   1 Linda.
 NMat=     1 NSing=     1 JSym2X= 2.
 CoulSu:  requested number of processors reduced to:  21 ShMem   1 Linda.
 NMat=     1 NSing=     1 JSym2X= 2.
 CoulSu:  requested number of processors reduced to:  21 ShMem   1 Linda.
 NMat=     1 NSing=     1 JSym2X= 2.
 CoulSu:  requested number of processors reduced to:  21 ShMem   1 Linda.
 NMat=     1 NSing=     1 JSym2X= 2.
 CoulSu:  requested number of processors reduced to:  21 ShMem   1 Linda.
 NMat=     1 NSing=     1 JSym2X= 2.
 CoulSu:  requested number of processors reduced to:  21 ShMem   1 Linda.
 NMat=     1 NSing=     1 JSym2X= 2.
 CoulSu:  requested number of processors reduced to:  21 ShMem   1 Linda.
 NMat=     1 NSing=     1 JSym2X= 2.
 CoulSu:  requested number of processors reduced to:  21 ShMem   1 Linda.
 NMat=     1 NSing=     1 JSym2X= 2.
 CoulSu:  requested number of processors reduced to:  21 ShMem   1 Linda.
 NMat=     1 NSing=     1 JSym2X= 2.
 CoulSu:  requested number of processors reduced to:  21 ShMem   1 Linda.
 NMat=     1 NSing=     1 JSym2X= 2.
 CoulSu:  requested number of processors reduced to:  21 ShMem   1 Linda.
 NMat=     1 NSing=     1 JSym2X= 2.
 CoulSu:  requested number of processors reduced to:  21 ShMem   1 Linda.
 NMat=     1 NSing=     0 JSym2X= 2.
 CoulSu:  requested number of processors reduced to:  21 ShMem   1 Linda.
 NMat=     1 NSing=     0 JSym2X= 2.
 CoulSu:  requested number of processors reduced to:  21 ShMem   1 Linda.
 NMat=     1 NSing=     0 JSym2X= 2.
 CoulSu:  requested number of processors reduced to:  21 ShMem   1 Linda.
 NMat=     1 NSing=     0 JSym2X= 2.
 CoulSu:  requested number of processors reduced to:  21 ShMem   1 Linda.
 NMat=     1 NSing=     0 JSym2X= 2.
 CoulSu:  requested number of processors reduced to:  21 ShMem   1 Linda.
 NMat=     1 NSing=     0 JSym2X= 2.
 CoulSu:  requested number of processors reduced to:  21 ShMem   1 Linda.
 NMat=     1 NSing=     0 JSym2X= 2.
 CoulSu:  requested number of processors reduced to:  21 ShMem   1 Linda.
 NMat=     1 NSing=     0 JSym2X= 2.
 CoulSu:  requested number of processors reduced to:  21 ShMem   1 Linda.
 NMat=     1 NSing=     0 JSym2X= 2.
 CoulSu:  requested number of processors reduced to:  21 ShMem   1 Linda.
 NMat=     1 NSing=     0 JSym2X= 2.
 CoulSu:  requested number of processors reduced to:  21 ShMem   1 Linda.
 NMat=     1 NSing=     0 JSym2X= 2.
 CoulSu:  requested number of processors reduced to:  21 ShMem   1 Linda.
 NMat=     1 NSing=     0 JSym2X= 2.
 CoulSu:  requested number of processors reduced to:  21 ShMem   1 Linda.
 Root      1 not converged, maximum delta is    0.041456563727958
 Excitation Energies [eV] at current iteration:
 Root      1 :     0.268160890300117   Change is   -0.334521218491864
 Root      2 :     2.088135337248296   Change is   -0.298319938003172
 Root      3 :     3.571448209175387   Change is   -0.655503941511234
 Root      4 :     5.823002782572333   Change is   -0.446501266431008
 Root      5 :     6.187219016757683   Change is   -0.605432689123457
 Root      6 :     6.766555314494545   Change is   -0.204297007568581
 Root      7 :     7.567529044930516   Change is   -0.241578484895830
 Root      8 :     7.909933678823113   Change is   -0.117759818569204
 Root      9 :     7.948865039042349   Change is   -0.581263616109172
 Root     10 :     7.959755302917313   Change is   -0.085212490529199
 Root     11 :     8.011005811949378   Change is   -0.080305680575548
 Root     12 :     8.085117137802467   Change is   -0.175645943017183
 Root     13 :     8.288549427149761   Change is   -0.112049441095646
 Root     14 :     8.885032380588248   Change is   -0.578896600980171
 Root     15 :     9.285703119433169   Change is   -0.349662154558880
 Root     16 :     9.409313537558553   Change is   -0.174770019074891
 Root     17 :    10.190798137996040   Change is   -0.634084943535851
 Root     18 :    10.448325056033580   Change is   -0.160593060460128
 Root     19 :    10.507847074084130   Change is   -0.203137577766973
 Root     20 :    11.457928819170830   Change is   -0.296699222476521
 Root     21 :    11.618239037553330   Change is   -0.219126368093234
 Root     22 :    12.088315801888650   Change is   -0.348308396546864
 Root     23 :    12.269847560772970   Change is   -0.193775426298058
 Root     24 :    13.717212093619280
 Iteration     3 Dimension    54 NMult    48 NNew      6
 Estimated number of processors is:   19
 CISAX will form     1 AO SS matrices at one time.
 NMat=     1 NSing=     1 JSym2X= 2.
 CoulSu:  requested number of processors reduced to:  21 ShMem   1 Linda.
 NMat=     1 NSing=     1 JSym2X= 2.
 CoulSu:  requested number of processors reduced to:  21 ShMem   1 Linda.
 NMat=     1 NSing=     1 JSym2X= 2.
 CoulSu:  requested number of processors reduced to:  21 ShMem   1 Linda.
 NMat=     1 NSing=     0 JSym2X= 2.
 CoulSu:  requested number of processors reduced to:  21 ShMem   1 Linda.
 NMat=     1 NSing=     0 JSym2X= 2.
 CoulSu:  requested number of processors reduced to:  21 ShMem   1 Linda.
 NMat=     1 NSing=     0 JSym2X= 2.
 CoulSu:  requested number of processors reduced to:  21 ShMem   1 Linda.
 Root      1 not converged, maximum delta is    0.006848985278055
 Excitation Energies [eV] at current iteration:
 Root      1 :     0.262688383519926   Change is   -0.005472506780191
 Root      2 :     2.070083952041766   Change is   -0.018051385206530
 Root      3 :     3.551006228960810   Change is   -0.020441980214576
 Root      4 :     5.817027681720496   Change is   -0.005975100851837
 Root      5 :     6.752121896972198   Change is   -0.014433417522346
 Root      6 :     7.901384303039801   Change is   -0.008549375783312
 Iteration     4 Dimension    60 NMult    54 NNew      6
 Estimated number of processors is:   19
 CISAX will form     1 AO SS matrices at one time.
 NMat=     1 NSing=     1 JSym2X= 2.
 CoulSu:  requested number of processors reduced to:  21 ShMem   1 Linda.
 NMat=     1 NSing=     1 JSym2X= 2.
 CoulSu:  requested number of processors reduced to:  21 ShMem   1 Linda.
 NMat=     1 NSing=     1 JSym2X= 2.
 CoulSu:  requested number of processors reduced to:  21 ShMem   1 Linda.
 NMat=     1 NSing=     0 JSym2X= 2.
 CoulSu:  requested number of processors reduced to:  21 ShMem   1 Linda.
 NMat=     1 NSing=     0 JSym2X= 2.
 CoulSu:  requested number of processors reduced to:  21 ShMem   1 Linda.
 NMat=     1 NSing=     0 JSym2X= 2.
 CoulSu:  requested number of processors reduced to:  21 ShMem   1 Linda.
 Root      1 not converged, maximum delta is    0.002238733899998
 Excitation Energies [eV] at current iteration:
 Root      1 :     0.262458926290566   Change is   -0.000229457229360
 Root      2 :     2.068787338575162   Change is   -0.001296613466604
 Root      3 :     3.549867478804211   Change is   -0.001138750156600
 Root      4 :     5.816802476499263   Change is   -0.000225205221233
 Root      5 :     6.751592789307888   Change is   -0.000529107664310
 Root      6 :     7.900916874724292   Change is   -0.000467428315509
 Iteration     5 Dimension    66 NMult    60 NNew      6
 Estimated number of processors is:   19
 CISAX will form     1 AO SS matrices at one time.
 NMat=     1 NSing=     1 JSym2X= 2.
 CoulSu:  requested number of processors reduced to:  21 ShMem   1 Linda.
 NMat=     1 NSing=     1 JSym2X= 2.
 CoulSu:  requested number of processors reduced to:  21 ShMem   1 Linda.
 NMat=     1 NSing=     1 JSym2X= 2.
 CoulSu:  requested number of processors reduced to:  21 ShMem   1 Linda.
 NMat=     1 NSing=     0 JSym2X= 2.
 CoulSu:  requested number of processors reduced to:  21 ShMem   1 Linda.
 NMat=     1 NSing=     0 JSym2X= 2.
 CoulSu:  requested number of processors reduced to:  21 ShMem   1 Linda.
 NMat=     1 NSing=     0 JSym2X= 2.
 CoulSu:  requested number of processors reduced to:  21 ShMem   1 Linda.
 Root      1 has converged.
 Excitation Energies [eV] at current iteration:
 Root      1 :     0.262448774109296   Change is   -0.000010152181270
 Root      2 :     2.068736907741513   Change is   -0.000050430833649
 Root      3 :     3.549846868758525   Change is   -0.000020610045686
 Root      4 :     5.816793357788724   Change is   -0.000009118710539
 Root      5 :     6.751566739256023   Change is   -0.000026050051865
 Root      6 :     7.900896829133169   Change is   -0.000020045591123
 Convergence achieved on expansion vectors.
 ***********************************************************************
 Stability analysis using <AA,BB:AA,BB> singles matrix:
 ***********************************************************************
 1PDM for each excited state written to RWF  633
 Ground to excited state transition densities written to RWF  633

 Eigenvectors of the stability matrix:
 
 Eigenvector   1:      Triplet-A"   Eigenvalue= 0.0096448  <S**2>=2.000
       8 ->  9         0.69853
 The wavefunction is stable under the perturbations considered.
 Leave Link  914 at Sat Apr 17 13:52:53 2021, MaxMem=   104857600 cpu:            5086.3 elap:             129.4
 (Enter /s/ls4/users/knvvv/bin/g16sse/l508.exe)
 The wavefunction is already stable.
 Leave Link  508 at Sat Apr 17 13:52:53 2021, MaxMem=   104857600 cpu:               2.2 elap:               0.1
 (Enter /s/ls4/users/knvvv/bin/g16sse/l601.exe)
 Copying SCF densities to generalized density rwf, IOpCl= 0 IROHF=0.

 **********************************************************************

            Population analysis using the SCF density.

 **********************************************************************

 Orbital symmetries:
       Occupied  (A') (A') (A') (A') (A') (A') (A") (A')
       Virtual   (A") (A') (A') (A") (A') (A') (A') (A") (A') (A')
                 (A') (A") (A') (A') (A") (A') (A") (A') (A') (A")
                 (A') (A") (A') (A') (A') (A') (A") (A') (A") (A')
                 (A') (A') (A") (A') (A") (A') (A') (A') (A") (A')
                 (A") (A') (A") (A') (A') (A') (A') (A") (A') (A")
                 (A') (A') (A") (A') (A') (A") (A') (A') (A") (A")
                 (A') (A') (A") (A') (A') (A") (A') (A") (A') (A')
                 (A') (A") (A') (A') (A") (A') (A") (A') (A") (A")
                 (A') (A') (A') (A') (A") (A') (A') (A") (A') (A")
                 (A') (A") (A') (A') (A") (A') (A') (A") (A') (A')
                 (A") (A') (A") (A') (A") (A') (A') (A") (A') (A")
                 (A') (A") (A') (A") (A') (A") (A') (A') (A") (A')
                 (A') (A") (A') (A") (A") (A') (A') (A") (A') (A')
                 (A') (A") (A") (A') (A') (A') (A") (A") (A') (A')
                 (A") (A') (A') (A") (A') (A") (A') (A') (A') (A')
                 (A') (A') (A') (A')
 The electronic state is 1-A'.
 Alpha  occ. eigenvalues --  -19.71898 -14.88747  -1.30314  -0.83545  -0.62465
 Alpha  occ. eigenvalues --   -0.54517  -0.53878  -0.33028
 Alpha virt. eigenvalues --   -0.05958   0.02049   0.04834   0.05700   0.06339
 Alpha virt. eigenvalues --    0.11285   0.12272   0.14913   0.19731   0.23373
 Alpha virt. eigenvalues --    0.26649   0.26776   0.30355   0.33269   0.33445
 Alpha virt. eigenvalues --    0.36817   0.37486   0.38886   0.40468   0.41464
 Alpha virt. eigenvalues --    0.43916   0.44459   0.47767   0.50404   0.58051
 Alpha virt. eigenvalues --    0.60555   0.64778   0.66210   0.71655   0.73437
 Alpha virt. eigenvalues --    0.81658   0.95123   0.99442   1.08433   1.08465
 Alpha virt. eigenvalues --    1.11227   1.12731   1.22460   1.24937   1.25669
 Alpha virt. eigenvalues --    1.37782   1.39985   1.46325   1.47838   1.50679
 Alpha virt. eigenvalues --    1.55454   1.69785   1.77083   1.78111   1.99731
 Alpha virt. eigenvalues --    2.12016   2.25507   2.26679   2.40765   2.43086
 Alpha virt. eigenvalues --    2.46782   2.54399   2.63936   2.72360   2.78446
 Alpha virt. eigenvalues --    2.85099   2.89847   2.90021   2.93986   3.10902
 Alpha virt. eigenvalues --    3.11703   3.14678   3.18716   3.36566   3.46272
 Alpha virt. eigenvalues --    3.52540   3.57859   3.62444   3.74514   3.78508
 Alpha virt. eigenvalues --    3.98928   3.99302   4.03587   4.06198   4.11413
 Alpha virt. eigenvalues --    4.28029   4.33508   4.69591   4.73744   4.82408
 Alpha virt. eigenvalues --    4.83763   4.87616   5.25010   5.32222   5.68643
 Alpha virt. eigenvalues --    5.72960   6.00193   6.13545   6.58604   6.58903
 Alpha virt. eigenvalues --    6.70464   6.81803   6.96556   7.01126   7.15910
 Alpha virt. eigenvalues --    7.24321   7.32913   7.42781   7.55634   7.60727
 Alpha virt. eigenvalues --    7.62562   7.76860   7.92283   7.95411   7.97971
 Alpha virt. eigenvalues --    8.16320   8.35089   8.36786   8.49884   8.50034
 Alpha virt. eigenvalues --    8.54037   8.68597   8.76082   8.77005   8.79072
 Alpha virt. eigenvalues --    8.92470   8.96970   9.11147   9.16642   9.45113
 Alpha virt. eigenvalues --    9.55083   9.56724   9.93937  10.04365  10.26723
 Alpha virt. eigenvalues --   10.56257  10.71849  10.80008  10.80684  10.85668
 Alpha virt. eigenvalues --   10.96702  10.99987  11.09351  11.11192  11.20414
 Alpha virt. eigenvalues --   11.53477  11.70004  11.90310  11.97121  12.04884
 Alpha virt. eigenvalues --   13.14334  13.27005  13.81375  14.15915  14.95277
 Alpha virt. eigenvalues --   37.43932  47.93531 194.88605 250.96435
          Condensed to atoms (all electrons):
               1          2          3
     1  N    6.969979   0.109293   0.097397
     2  H    0.109293   0.585325  -0.038476
     3  O    0.097397  -0.038476   8.108268
 Mulliken charges:
               1
     1  N   -0.176669
     2  H    0.343858
     3  O   -0.167189
 Sum of Mulliken charges =  -0.00000
 Mulliken charges with hydrogens summed into heavy atoms:
               1
     1  N    0.167189
     3  O   -0.167189
 Electronic spatial extent (au):  <R**2>=             51.0770
 Charge=             -0.0000 electrons
 Dipole moment (field-independent basis, Debye):
    X=             -1.4554    Y=              0.9879    Z=             -0.0000  Tot=              1.7590
 Quadrupole moment (field-independent basis, Debye-Ang):
   XX=            -11.0714   YY=            -11.8832   ZZ=            -10.6920
   XY=             -1.5297   XZ=              0.0000   YZ=              0.0000
 Traceless Quadrupole moment (field-independent basis, Debye-Ang):
   XX=              0.1441   YY=             -0.6677   ZZ=              0.5235
   XY=             -1.5297   XZ=              0.0000   YZ=              0.0000
 Octapole moment (field-independent basis, Debye-Ang**2):
  XXX=             -1.6609  YYY=             -1.3238  ZZZ=              0.0000  XYY=             -1.6973
  XXY=              0.2346  XXZ=             -0.0000  XZZ=             -0.1929  YZZ=             -0.5038
  YYZ=             -0.0000  XYZ=              0.0000
 Hexadecapole moment (field-independent basis, Debye-Ang**3):
 XXXX=            -13.2178 YYYY=            -37.1825 ZZZZ=             -8.7243 XXXY=              0.2880
 XXXZ=             -0.0000 YYYX=             -0.4301 YYYZ=              0.0000 ZZZX=             -0.0000
 ZZZY=              0.0000 XXYY=             -8.7492 XXZZ=             -3.8432 YYZZ=             -7.3690
 XXYZ=              0.0000 YYXZ=              0.0000 ZZXY=              0.3026
 N-N= 3.030088752509D+01 E-N=-3.677436950617D+02  KE= 1.299942898658D+02
 PrsmSu:  requested number of processors reduced to:  21 ShMem   1 Linda.
 No NMR shielding tensors so no spin-rotation constants.
 Leave Link  601 at Sat Apr 17 13:52:55 2021, MaxMem=   104857600 cpu:              76.5 elap:               1.7
 (Enter /s/ls4/users/knvvv/bin/g16sse/l9999.exe)

 Test job not archived.
 1\1\GINC-N156\Stability\RM062X\Gen\H1N1O1\KNVVV\17-Apr-2021\0\\#P M062
 X/GEN Integral=UltraFineGrid SCF=NoSymm Stable=(RExt, Opt) IOp(1/33=1)
 \\Database calculations.\\0,1\N,0,0.,0.,0.\H,0,0.,0.,1.05352841\O,0,1.
 1513717966,0.,-0.3743228181\\Version=ES64L-G16RevA.03\State=1-A'\HF=-1
 30.4839018\RMSD=8.155e-09\Dipole=-0.1925934,0.,0.6647128\Quadrupole=-1
 .1074783,0.389231,0.7182474,0.,-0.7423778,0.\PG=CS [SG(H1N1O1)]\\@


            THE IRISH PIG
 'TWAS AN EVENING IN NOVEMBER,
 AS I VERY WELL REMEMBER
 I WAS STROLLING DOWN THE STREET IN DRUNKEN PRIDE,
 BUT MY KNEES WERE ALL A'FLUTTER
 SO I LANDED IN THE GUTTER,
 AND A PIG CAME UP AND LAY DOWN BY MY SIDE.

 YES, I LAY THERE IN THE GUTTER
 THINKING THOUGHTS I COULD NOT UTTER
 WHEN A COLLEEN PASSING BY DID SOFTLY SAY,
 'YE CAN TELL A MAN THAT BOOZES
 BY THE COMPANY THAT HE CHOOSES.' -
 AT THAT, THE PIG GOT UP AND WALKED AWAY!
     -- THE ECONOMIST, AUGUST 23, 1986
 Job cpu time:       0 days  1 hours 39 minutes 18.6 seconds.
 Elapsed time:       0 days  0 hours  2 minutes 32.2 seconds.
 File lengths (MBytes):  RWF=     90 Int=      0 D2E=      0 Chk=      4 Scr=      1
 Normal termination of Gaussian 16 at Sat Apr 17 13:52:55 2021.
