 Entering Gaussian System, Link 0=/s/ls4/users/knvvv/bin/g16sse/g16
 Input=data/database/M062X--def2-QZVPPD--233_s2o_W4-11.gjf
 Output=data/database/M062X--def2-QZVPPD--233_s2o_W4-11.log
 Initial command:
 /s/ls4/users/knvvv/bin/g16sse/l1.exe "/s/ls4/users/knvvv/bin/scratch/Gau-25761.inp" -scrdir="/s/ls4/users/knvvv/bin/scratch/"
 Entering Link 1 = /s/ls4/users/knvvv/bin/g16sse/l1.exe PID=     25762.
  
 Copyright (c) 1988,1990,1992,1993,1995,1998,2003,2009,2016,
            Gaussian, Inc.  All Rights Reserved.
  
 This is part of the Gaussian(R) 16 program.  It is based on
 the Gaussian(R) 09 system (copyright 2009, Gaussian, Inc.),
 the Gaussian(R) 03 system (copyright 2003, Gaussian, Inc.),
 the Gaussian(R) 98 system (copyright 1998, Gaussian, Inc.),
 the Gaussian(R) 94 system (copyright 1995, Gaussian, Inc.),
 the Gaussian 92(TM) system (copyright 1992, Gaussian, Inc.),
 the Gaussian 90(TM) system (copyright 1990, Gaussian, Inc.),
 the Gaussian 88(TM) system (copyright 1988, Gaussian, Inc.),
 the Gaussian 86(TM) system (copyright 1986, Carnegie Mellon
 University), and the Gaussian 82(TM) system (copyright 1983,
 Carnegie Mellon University). Gaussian is a federally registered
 trademark of Gaussian, Inc.
  
 This software contains proprietary and confidential information,
 including trade secrets, belonging to Gaussian, Inc.
  
 This software is provided under written license and may be
 used, copied, transmitted, or stored only in accord with that
 written license.
  
 The following legend is applicable only to US Government
 contracts under FAR:
  
                    RESTRICTED RIGHTS LEGEND
  
 Use, reproduction and disclosure by the US Government is
 subject to restrictions as set forth in subparagraphs (a)
 and (c) of the Commercial Computer Software - Restricted
 Rights clause in FAR 52.227-19.
  
 Gaussian, Inc.
 340 Quinnipiac St., Bldg. 40, Wallingford CT 06492
  
  
 ---------------------------------------------------------------
 Warning -- This program may not be used in any manner that
 competes with the business of Gaussian, Inc. or will provide
 assistance to any competitor of Gaussian, Inc.  The licensee
 of this program is prohibited from giving any competitor of
 Gaussian, Inc. access to this program.  By using this program,
 the user acknowledges that Gaussian, Inc. is engaged in the
 business of creating and licensing software in the field of
 computational chemistry and represents and warrants to the
 licensee that it is not a competitor of Gaussian, Inc. and that
 it will not use this program in any manner prohibited above.
 ---------------------------------------------------------------
  

 Cite this work as:
 Gaussian 16, Revision A.03,
 M. J. Frisch, G. W. Trucks, H. B. Schlegel, G. E. Scuseria, 
 M. A. Robb, J. R. Cheeseman, G. Scalmani, V. Barone, 
 G. A. Petersson, H. Nakatsuji, X. Li, M. Caricato, A. V. Marenich, 
 J. Bloino, B. G. Janesko, R. Gomperts, B. Mennucci, H. P. Hratchian, 
 J. V. Ortiz, A. F. Izmaylov, J. L. Sonnenberg, D. Williams-Young, 
 F. Ding, F. Lipparini, F. Egidi, J. Goings, B. Peng, A. Petrone, 
 T. Henderson, D. Ranasinghe, V. G. Zakrzewski, J. Gao, N. Rega, 
 G. Zheng, W. Liang, M. Hada, M. Ehara, K. Toyota, R. Fukuda, 
 J. Hasegawa, M. Ishida, T. Nakajima, Y. Honda, O. Kitao, H. Nakai, 
 T. Vreven, K. Throssell, J. A. Montgomery, Jr., J. E. Peralta, 
 F. Ogliaro, M. J. Bearpark, J. J. Heyd, E. N. Brothers, K. N. Kudin, 
 V. N. Staroverov, T. A. Keith, R. Kobayashi, J. Normand, 
 K. Raghavachari, A. P. Rendell, J. C. Burant, S. S. Iyengar, 
 J. Tomasi, M. Cossi, J. M. Millam, M. Klene, C. Adamo, R. Cammi, 
 J. W. Ochterski, R. L. Martin, K. Morokuma, O. Farkas, 
 J. B. Foresman, and D. J. Fox, Gaussian, Inc., Wallingford CT, 2016.
 
 ******************************************
 Gaussian 16:  ES64L-G16RevA.03 25-Dec-2016
                17-Apr-2021 
 ******************************************
 %RWF=temp5_66939,70GB
 %nprocshared=48
 Will use up to   48 processors via shared memory.
 Default route: MaxDisk=80GB
 ----------------------------------------------------------------------
 #P M062X/GEN Integral=UltraFineGrid SCF=NoSymm Stable=(RExt, Opt) IOp(
 1/33=1)
 ----------------------------------------------------------------------
 1/33=1,38=1,172=1/1;
 2/12=2,17=6,18=5,40=1/2;
 3/5=7,11=2,25=1,30=1,74=-55,75=-5/1,2,3;
 4/9=2/1;
 5/5=2,38=5/2;
 6/7=2,8=2,9=2,10=2,28=1/1;
 8/6=1,10=90,11=11/1;
 9/8=-3,42=1,46=1/14;
 5/5=2,8=3,17=40,38=5/8(-2);
 6/7=2,8=2,9=2,10=2,28=1/1;
 99/5=1,9=1/99;
 Leave Link    1 at Sat Apr 17 20:45:12 2021, MaxMem=           0 cpu:               8.1 elap:               0.2
 (Enter /s/ls4/users/knvvv/bin/g16sse/l101.exe)
 ONIOM data not found on unit 2.
 ----------------------
 Database calculations.
 ----------------------
 TstMul:  ICh=     0
 TstMul:  Mul=     1
 TstMul:  ICh=     0
 TstMul:  Mul=     1
 Symbolic Z-matrix:
 Charge =  0 Multiplicity = 1
 S                     0.        0.        0. 
 S                     0.        0.        1.89147 
 O                     1.28958   0.        2.57584 
 
 RdStrC is calling ZToCFu for IStruc=1 NZ=     3.
 PrtBox:  NBox=     1 Levels=  1 BoxLen=    8.00 SMaxX=        4.87
          Shift=            0.000000            0.000000            0.000000
 Box      1 Number                   0 centers from      1 to      3:
 After GenITR:
 ITRead=  0  0  0
 MicOpt= -1 -1 -1
 ITRead=  0  0  0
 MicOpt= -1 -1 -1
 NAtoms=      3 NQM=        3 NQMF=       0 NMMI=      0 NMMIF=      0
                NMic=       0 NMicF=      0.
                    Isotopes and Nuclear Properties:
 (Nuclear quadrupole moments (NQMom) in fm**2, nuclear magnetic moments (NMagM)
  in nuclear magnetons)

  Atom         1           2           3
 IAtWgt=          32          32          16
 AtmWgt=  31.9720718  31.9720718  15.9949146
 NucSpn=           0           0           0
 AtZEff=  -0.0000000  -0.0000000  -0.0000000
 NQMom=    0.0000000   0.0000000   0.0000000
 NMagM=    0.0000000   0.0000000   0.0000000
 AtZNuc=  16.0000000  16.0000000   8.0000000
 No MM parameters found.
 Leave Link  101 at Sat Apr 17 20:45:12 2021, MaxMem=   104857600 cpu:               6.5 elap:               0.2
 (Enter /s/ls4/users/knvvv/bin/g16sse/l202.exe)
                          Input orientation:                          
 ---------------------------------------------------------------------
 Center     Atomic      Atomic             Coordinates (Angstroms)
 Number     Number       Type             X           Y           Z
 ---------------------------------------------------------------------
      1         16           0        0.000000    0.000000    0.000000
      2         16           0        0.000000    0.000000    1.891474
      3          8           0        1.289577    0.000000    2.575842
 ---------------------------------------------------------------------
                    Distance matrix (angstroms):
                    1          2          3
     1  S    0.000000
     2  S    1.891474   0.000000
     3  O    2.880620   1.459921   0.000000
 Stoichiometry    OS2
 Framework group  CS[SG(OS2)]
 Deg. of freedom     3
 Full point group                 CS      NOp   2
 Largest Abelian subgroup         CS      NOp   2
 Largest concise Abelian subgroup C1      NOp   1
                         Standard orientation:                         
 ---------------------------------------------------------------------
 Center     Atomic      Atomic             Coordinates (Angstroms)
 Number     Number       Type             X           Y           Z
 ---------------------------------------------------------------------
      1         16           0       -0.726771   -1.075032    0.000000
      2         16           0        0.000000    0.671244   -0.000000
      3          8           0        1.453541    0.807576   -0.000000
 ---------------------------------------------------------------------
 Rotational constants (GHZ):          41.6709847           5.0366402           4.4935223
 Leave Link  202 at Sat Apr 17 20:45:13 2021, MaxMem=   104857600 cpu:               5.9 elap:               0.1
 (Enter /s/ls4/users/knvvv/bin/g16sse/l301.exe)
 General basis read from cards:  (5D, 7F)
 Centers:       3
 S 8 1.00
     Exponent=  1.1650646908D+05 Coefficients=  4.0383857939D-05
     Exponent=  1.7504349724D+04 Coefficients=  3.1255139004D-04
     Exponent=  3.9934513230D+03 Coefficients=  1.6341473495D-03
     Exponent=  1.1330063186D+03 Coefficients=  6.8283224757D-03
     Exponent=  3.6999569594D+02 Coefficients=  2.4124410221D-02
     Exponent=  1.3362074349D+02 Coefficients=  7.2730206154D-02
     Exponent=  5.2035643649D+01 Coefficients=  1.7934429892D-01
     Exponent=  2.1461939313D+01 Coefficients=  3.3059588895D-01
 S 2 1.00
     Exponent=  8.9835051252D+01 Coefficients=  9.6468652996D-02
     Exponent=  2.6428010844D+01 Coefficients=  9.4117481120D-01
 S 1 1.00
     Exponent=  9.2822824649D+00 Coefficients=  1.0000000000D+00
 S 1 1.00
     Exponent=  4.0947728533D+00 Coefficients=  1.0000000000D+00
 S 1 1.00
     Exponent=  1.3255349078D+00 Coefficients=  1.0000000000D+00
 S 1 1.00
     Exponent=  5.1877230787D-01 Coefficients=  1.0000000000D+00
 S 1 1.00
     Exponent=  1.9772676454D-01 Coefficients=  1.0000000000D+00
 S 1 1.00
     Exponent=  6.9638535104D-02 Coefficients=  1.0000000000D+00
 P 5 1.00
     Exponent=  1.9115255810D+02 Coefficients=  2.5115697705D-03
     Exponent=  4.5233356739D+01 Coefficients=  2.0039240864D-02
     Exponent=  1.4353465922D+01 Coefficients=  9.3609064762D-02
     Exponent=  5.2422371832D+00 Coefficients=  3.0618127124D-01
     Exponent=  2.0792418599D+00 Coefficients=  6.7810501439D-01
 P 1 1.00
     Exponent=  8.4282371424D-01 Coefficients=  1.0000000000D+00
 P 1 1.00
     Exponent=  3.3617694891D-01 Coefficients=  1.0000000000D+00
 P 1 1.00
     Exponent=  1.2863997974D-01 Coefficients=  1.0000000000D+00
 P 1 1.00
     Exponent=  4.3598162776D-02 Coefficients=  1.0000000000D+00
 D 1 1.00
     Exponent=  3.7750000000D+00 Coefficients=  1.0000000000D+00
 D 1 1.00
     Exponent=  1.3000000000D+00 Coefficients=  1.0000000000D+00
 D 1 1.00
     Exponent=  4.4400000000D-01 Coefficients=  1.0000000000D+00
 D 1 1.00
     Exponent=  1.2546378695D-01 Coefficients=  1.0000000000D+00
 F 1 1.00
     Exponent=  2.6660000000D+00 Coefficients=  1.0000000000D+00
 F 1 1.00
     Exponent=  8.5900000000D-01 Coefficients=  1.0000000000D+00
 G 1 1.00
     Exponent=  1.8460000000D+00 Coefficients=  1.0000000000D+00
 ****
 Centers:       1      2
 S 10 1.00
     Exponent=  1.2734109023D+06 Coefficients=  1.1767088246D-05
     Exponent=  1.9069783007D+05 Coefficients=  9.1478610166D-05
     Exponent=  4.3397885330D+04 Coefficients=  4.8090078640D-04
     Exponent=  1.2291809677D+04 Coefficients=  2.0257193592D-03
     Exponent=  4.0097420824D+03 Coefficients=  7.3190096406D-03
     Exponent=  1.4473531030D+03 Coefficients=  2.3300499900D-02
     Exponent=  5.6430102913D+02 Coefficients=  6.5386213610D-02
     Exponent=  2.3374506243D+02 Coefficients=  1.5614449910D-01
     Exponent=  1.0156402814D+02 Coefficients=  2.9318563787D-01
     Exponent=  4.5805907187D+01 Coefficients=  3.6287914289D-01
 S 3 1.00
     Exponent=  3.9427281503D+02 Coefficients=  1.8753305081D-02
     Exponent=  1.2172249591D+02 Coefficients=  1.6870726663D-01
     Exponent=  4.6754125963D+01 Coefficients=  6.3806830653D-01
 S 1 1.00
     Exponent=  2.0923008254D+01 Coefficients=  1.0000000000D+00
 S 1 1.00
     Exponent=  8.2685567800D+00 Coefficients=  1.0000000000D+00
 S 1 1.00
     Exponent=  3.8629345671D+00 Coefficients=  1.0000000000D+00
 S 1 1.00
     Exponent=  1.7794684781D+00 Coefficients=  1.0000000000D+00
 S 1 1.00
     Exponent=  6.1064260103D-01 Coefficients=  1.0000000000D+00
 S 1 1.00
     Exponent=  2.7412269445D-01 Coefficients=  1.0000000000D+00
 S 1 1.00
     Exponent=  1.1325939107D-01 Coefficients=  1.0000000000D+00
 S 1 1.00
     Exponent=  4.4392624881D-02 Coefficients=  1.0000000000D+00
 P 8 1.00
     Exponent=  2.1898930459D+03 Coefficients=  2.3912552864D-04
     Exponent=  5.1894596592D+02 Coefficients=  2.0772032158D-03
     Exponent=  1.6819560151D+02 Coefficients=  1.1242420571D-02
     Exponent=  6.3745282788D+01 Coefficients=  4.4069933941D-02
     Exponent=  2.6597033077D+01 Coefficients=  1.2918778608D-01
     Exponent=  1.1774251449D+01 Coefficients=  2.6910820167D-01
     Exponent=  5.3534379024D+00 Coefficients=  3.7855928620D-01
     Exponent=  2.4701911802D+00 Coefficients=  2.9692134655D-01
 P 2 1.00
     Exponent=  8.2120288349D+01 Coefficients= -3.9420318847D-02
     Exponent=  4.9523532869D+00 Coefficients=  6.4048403090D-01
 P 1 1.00
     Exponent=  1.0828262029D+00 Coefficients=  1.0000000000D+00
 P 1 1.00
     Exponent=  4.9271277356D-01 Coefficients=  1.0000000000D+00
 P 1 1.00
     Exponent=  2.0483450942D-01 Coefficients=  1.0000000000D+00
 P 1 1.00
     Exponent=  8.0743615716D-02 Coefficients=  1.0000000000D+00
 P 1 1.00
     Exponent=  2.5661157833D-02 Coefficients=  1.0000000000D+00
 D 1 1.00
     Exponent=  4.1590000000D+00 Coefficients=  1.0000000000D+00
 D 1 1.00
     Exponent=  1.0190000000D+00 Coefficients=  1.0000000000D+00
 D 1 1.00
     Exponent=  4.6400000000D-01 Coefficients=  1.0000000000D+00
 D 1 1.00
     Exponent=  1.9400000000D-01 Coefficients=  1.0000000000D+00
 D 1 1.00
     Exponent=  6.7889829366D-02 Coefficients=  1.0000000000D+00
 F 1 1.00
     Exponent=  8.6900000000D-01 Coefficients=  1.0000000000D+00
 F 1 1.00
     Exponent=  3.3500000000D-01 Coefficients=  1.0000000000D+00
 G 1 1.00
     Exponent=  6.8300000000D-01 Coefficients=  1.0000000000D+00
 ****
 Ernie: Thresh=  0.10000D-02 Tol=  0.10000D-05 Strict=F.
 There are   185 symmetry adapted cartesian basis functions of A'  symmetry.
 There are    89 symmetry adapted cartesian basis functions of A"  symmetry.
 There are   147 symmetry adapted basis functions of A'  symmetry.
 There are    77 symmetry adapted basis functions of A"  symmetry.
   224 basis functions,   364 primitive gaussians,   274 cartesian basis functions
    20 alpha electrons       20 beta electrons
       nuclear repulsion energy       141.5311130542 Hartrees.
 IExCor= 4336 DFT=T Ex+Corr=M062X ExCW=0 ScaHFX=  0.540000
 ScaDFX=  1.000000  1.000000  1.000000  1.000000 ScalE2=  1.000000  1.000000
 IRadAn=      5 IRanWt=     -1 IRanGd=            0 ICorTp=0 IEmpDi=  4
 NAtoms=    3 NActive=    3 NUniq=    3 SFac= 1.00D+00 NAtFMM=   60 NAOKFM=F Big=F
 Integral buffers will be    131072 words long.
 Raffenetti 2 integral format.
 Two-electron integral symmetry is turned on.
 Leave Link  301 at Sat Apr 17 20:45:13 2021, MaxMem=   104857600 cpu:               8.0 elap:               0.2
 (Enter /s/ls4/users/knvvv/bin/g16sse/l302.exe)
 NPDir=0 NMtPBC=     1 NCelOv=     1 NCel=       1 NClECP=     1 NCelD=      1
         NCelK=      1 NCelE2=     1 NClLst=     1 CellRange=     0.0.
 One-electron integrals computed using PRISM.
 One-electron integral symmetry used in STVInt
 PrsmSu:  requested number of processors reduced to:   4 ShMem   1 Linda.
 PrsmSu:  requested number of processors reduced to:  21 ShMem   1 Linda.
 NBasis=   224 RedAO= T EigKep=  5.34D-05  NBF=   147    77
 NBsUse=   224 1.00D-06 EigRej= -1.00D+00 NBFU=   147    77
 Precomputing XC quadrature grid using
 IXCGrd= 4 IRadAn=           5 IRanWt=          -1 IRanGd=           0 AccXCQ= 0.00D+00.
 Generated NRdTot=       0 NPtTot=           0 NUsed=           0 NTot=          32
 NSgBfM=   270   270   270   270   270 MxSgAt=     3 MxSgA2=     3.
 Leave Link  302 at Sat Apr 17 20:45:15 2021, MaxMem=   104857600 cpu:              80.5 elap:               1.8
 (Enter /s/ls4/users/knvvv/bin/g16sse/l303.exe)
 DipDrv:  MaxL=1.
 Leave Link  303 at Sat Apr 17 20:45:16 2021, MaxMem=   104857600 cpu:              47.4 elap:               1.0
 (Enter /s/ls4/users/knvvv/bin/g16sse/l401.exe)
 SCF N**3 symmetry information disabled.
 ExpMin= 2.57D-02 ExpMax= 1.27D+06 ExpMxC= 1.45D+03 IAcc=3 IRadAn=         5 AccDes= 0.00D+00
 Harris functional with IExCor= 1009 and IRadAn=       5 diagonalized for initial guess.
 HarFok:  IExCor= 1009 AccDes= 0.00D+00 IRadAn=         5 IDoV= 1 UseB2=F ITyADJ=14
 ICtDFT=  3500011 ScaDFX=  1.000000  1.000000  1.000000  1.000000
 FoFCou: FMM=F IPFlag=           0 FMFlag=      100000 FMFlg1=           0
         NFxFlg=           0 DoJE=T BraDBF=F KetDBF=T FulRan=T
         wScrn=  0.000000 ICntrl=       500 IOpCl=  0 I1Cent=   200000004 NGrid=           0
         NMat0=    1 NMatS0=      1 NMatT0=    0 NMatD0=    1 NMtDS0=    0 NMtDT0=    0
 Petite list used in FoFCou.
 CoulSu:  requested number of processors reduced to:  21 ShMem   1 Linda.
 CoulSu:  requested number of processors reduced to:  21 ShMem   1 Linda.
 CoulSu:  requested number of processors reduced to:  21 ShMem   1 Linda.
 CoulSu:  requested number of processors reduced to:  21 ShMem   1 Linda.
 Harris En= -871.237361690671    
 JPrj=0 DoOrth=F DoCkMO=F.
 Initial guess orbital symmetries:
       Occupied  (A') (A') (A') (A') (A') (A') (A') (A") (A') (A')
                 (A") (A') (A') (A') (A') (A') (A") (A') (A") (A')
       Virtual   (A") (A') (A') (A') (A") (A') (A') (A') (A") (A')
                 (A") (A') (A') (A") (A') (A') (A") (A') (A') (A')
                 (A") (A') (A") (A') (A") (A') (A') (A") (A') (A')
                 (A") (A') (A') (A") (A') (A') (A") (A") (A') (A")
                 (A') (A') (A') (A") (A') (A') (A") (A') (A') (A')
                 (A') (A') (A") (A') (A") (A') (A") (A') (A") (A')
                 (A") (A') (A") (A') (A') (A") (A') (A') (A") (A')
                 (A") (A') (A") (A') (A") (A') (A') (A') (A") (A')
                 (A') (A") (A') (A') (A") (A') (A") (A') (A') (A')
                 (A') (A') (A") (A") (A') (A') (A') (A") (A") (A')
                 (A') (A") (A") (A') (A") (A') (A") (A') (A") (A')
                 (A') (A") (A') (A') (A") (A') (A") (A') (A') (A")
                 (A") (A') (A') (A') (A") (A') (A") (A') (A') (A")
                 (A") (A') (A') (A") (A') (A') (A") (A') (A') (A")
                 (A') (A') (A") (A") (A') (A') (A") (A') (A') (A")
                 (A') (A') (A") (A') (A') (A') (A') (A') (A') (A")
                 (A") (A') (A") (A') (A") (A') (A') (A") (A') (A")
                 (A") (A') (A') (A') (A") (A') (A') (A") (A') (A")
                 (A') (A") (A') (A') (A") (A') (A") (A') (A') (A')
                 (A') (A') (A") (A') (A") (A') (A') (A') (A') (A')
                 (A') (A') (A') (A')
 The electronic state of the initial guess is 1-A'.
 Leave Link  401 at Sat Apr 17 20:45:17 2021, MaxMem=   104857600 cpu:              54.3 elap:               1.4
 (Enter /s/ls4/users/knvvv/bin/g16sse/l502.exe)
 Integral symmetry usage will be decided dynamically.
 Closed shell SCF:
 Using DIIS extrapolation, IDIIS=  1040.
 NGot=   104857600 LenX=   104691537 LenY=   104616020
 Requested convergence on RMS density matrix=1.00D-08 within 128 cycles.
 Requested convergence on MAX density matrix=1.00D-06.
 Requested convergence on             energy=1.00D-06.
 No special actions if energy rises.
 Fock matrices will be formed incrementally for  20 cycles.

 Cycle   1  Pass 1  IDiag  1:
 FoFJK:  IHMeth= 1 ICntrl=       0 DoSepK=F KAlg= 0 I1Cent=           0 FoldK=F
 IRaf= 960000000 NMat=       1 IRICut=       1 DoRegI=T DoRafI=F ISym2E= 1 IDoP0=0 IntGTp=1.
 FoFCou: FMM=F IPFlag=           0 FMFlag=      100000 FMFlg1=           0
         NFxFlg=           0 DoJE=F BraDBF=F KetDBF=F FulRan=T
         wScrn=  0.000000 ICntrl=         0 IOpCl=  0 I1Cent=           0 NGrid=           0
         NMat0=    1 NMatS0=      1 NMatT0=    0 NMatD0=    1 NMtDS0=    0 NMtDT0=    0
 Petite list used in FoFCou.
 CoulSu:  requested number of processors reduced to:  21 ShMem   1 Linda.
 E= -871.483791708717    
 DIIS: error= 3.43D-02 at cycle   1 NSaved=   1.
 NSaved= 1 IEnMin= 1 EnMin= -871.483791708717     IErMin= 1 ErrMin= 3.43D-02
 ErrMax= 3.43D-02  0.00D+00 EMaxC= 1.00D-01 BMatC= 3.15D-01 BMatP= 3.15D-01
 IDIUse=3 WtCom= 6.57D-01 WtEn= 3.43D-01
 Coeff-Com:  0.100D+01
 Coeff-En:   0.100D+01
 Coeff:      0.100D+01
 Gap=     0.226 Goal=   None    Shift=    0.000
 GapD=    0.226 DampG=1.000 DampE=0.500 DampFc=0.5000 IDamp=-1.
 Damping current iteration by 5.00D-01
 RMSDP=2.60D-03 MaxDP=1.20D-01              OVMax= 3.74D-01

 Cycle   2  Pass 1  IDiag  1:
 RMSU=  1.30D-03    CP:  9.99D-01
 CoulSu:  requested number of processors reduced to:  21 ShMem   1 Linda.
 E= -871.471790290025     Delta-E=        0.012001418692 Rises=F Damp=T
 DIIS: error= 1.81D-02 at cycle   2 NSaved=   2.
 NSaved= 2 IEnMin= 1 EnMin= -871.483791708717     IErMin= 2 ErrMin= 1.81D-02
 ErrMax= 1.81D-02  0.00D+00 EMaxC= 1.00D-01 BMatC= 8.17D-02 BMatP= 3.15D-01
 IDIUse=3 WtCom= 8.19D-01 WtEn= 1.81D-01
 Coeff-Com:  0.203D+00 0.797D+00
 Coeff-En:   0.533D+00 0.467D+00
 Coeff:      0.263D+00 0.737D+00
 Gap=     0.274 Goal=   None    Shift=    0.000
 RMSDP=1.31D-03 MaxDP=8.39D-02 DE= 1.20D-02 OVMax= 2.73D-01

 Cycle   3  Pass 1  IDiag  1:
 RMSU=  1.29D-03    CP:  9.87D-01  8.57D-01
 CoulSu:  requested number of processors reduced to:  21 ShMem   1 Linda.
 E= -871.578815727470     Delta-E=       -0.107025437445 Rises=F Damp=F
 DIIS: error= 1.49D-02 at cycle   3 NSaved=   3.
 NSaved= 3 IEnMin= 3 EnMin= -871.578815727470     IErMin= 3 ErrMin= 1.49D-02
 ErrMax= 1.49D-02  0.00D+00 EMaxC= 1.00D-01 BMatC= 3.28D-02 BMatP= 8.17D-02
 IDIUse=3 WtCom= 8.51D-01 WtEn= 1.49D-01
 Coeff-Com: -0.894D-01 0.378D+00 0.711D+00
 Coeff-En:   0.000D+00 0.000D+00 0.100D+01
 Coeff:     -0.761D-01 0.322D+00 0.754D+00
 Gap=     0.247 Goal=   None    Shift=    0.000
 RMSDP=7.67D-04 MaxDP=3.04D-02 DE=-1.07D-01 OVMax= 1.49D-01

 Cycle   4  Pass 1  IDiag  1:
 RMSU=  5.71D-04    CP:  9.88D-01  1.09D+00  6.82D-01
 CoulSu:  requested number of processors reduced to:  21 ShMem   1 Linda.
 E= -871.594248142541     Delta-E=       -0.015432415071 Rises=F Damp=F
 DIIS: error= 1.06D-02 at cycle   4 NSaved=   4.
 NSaved= 4 IEnMin= 4 EnMin= -871.594248142541     IErMin= 4 ErrMin= 1.06D-02
 ErrMax= 1.06D-02  0.00D+00 EMaxC= 1.00D-01 BMatC= 1.42D-02 BMatP= 3.28D-02
 IDIUse=3 WtCom= 8.94D-01 WtEn= 1.06D-01
 Coeff-Com: -0.526D-01 0.135D+00 0.472D+00 0.446D+00
 Coeff-En:   0.000D+00 0.000D+00 0.357D+00 0.643D+00
 Coeff:     -0.470D-01 0.120D+00 0.460D+00 0.466D+00
 Gap=     0.238 Goal=   None    Shift=    0.000
 RMSDP=3.83D-04 MaxDP=1.49D-02 DE=-1.54D-02 OVMax= 6.84D-02

 Cycle   5  Pass 1  IDiag  1:
 RMSU=  1.13D-04    CP:  9.87D-01  1.04D+00  8.24D-01  4.57D-01
 CoulSu:  requested number of processors reduced to:  21 ShMem   1 Linda.
 E= -871.609105085899     Delta-E=       -0.014856943358 Rises=F Damp=F
 DIIS: error= 1.22D-03 at cycle   5 NSaved=   5.
 NSaved= 5 IEnMin= 5 EnMin= -871.609105085899     IErMin= 5 ErrMin= 1.22D-03
 ErrMax= 1.22D-03  0.00D+00 EMaxC= 1.00D-01 BMatC= 2.23D-04 BMatP= 1.42D-02
 IDIUse=3 WtCom= 9.88D-01 WtEn= 1.22D-02
 Coeff-Com: -0.538D-02 0.467D-02 0.883D-01 0.159D+00 0.753D+00
 Coeff-En:   0.000D+00 0.000D+00 0.000D+00 0.000D+00 0.100D+01
 Coeff:     -0.532D-02 0.461D-02 0.873D-01 0.157D+00 0.756D+00
 Gap=     0.229 Goal=   None    Shift=    0.000
 RMSDP=5.31D-05 MaxDP=1.93D-03 DE=-1.49D-02 OVMax= 7.93D-03

 Cycle   6  Pass 1  IDiag  1:
 RMSU=  3.19D-05    CP:  9.87D-01  1.05D+00  8.27D-01  5.30D-01  9.76D-01
 CoulSu:  requested number of processors reduced to:  21 ShMem   1 Linda.
 E= -871.609323591674     Delta-E=       -0.000218505774 Rises=F Damp=F
 DIIS: error= 3.14D-04 at cycle   6 NSaved=   6.
 NSaved= 6 IEnMin= 6 EnMin= -871.609323591674     IErMin= 6 ErrMin= 3.14D-04
 ErrMax= 3.14D-04  0.00D+00 EMaxC= 1.00D-01 BMatC= 1.16D-05 BMatP= 2.23D-04
 IDIUse=3 WtCom= 9.97D-01 WtEn= 3.14D-03
 Coeff-Com:  0.173D-02-0.531D-02-0.427D-02-0.330D-02 0.154D+00 0.857D+00
 Coeff-En:   0.000D+00 0.000D+00 0.000D+00 0.000D+00 0.000D+00 0.100D+01
 Coeff:      0.172D-02-0.530D-02-0.425D-02-0.329D-02 0.154D+00 0.857D+00
 Gap=     0.230 Goal=   None    Shift=    0.000
 RMSDP=1.44D-05 MaxDP=5.94D-04 DE=-2.19D-04 OVMax= 1.70D-03

 Cycle   7  Pass 1  IDiag  1:
 RMSU=  9.52D-06    CP:  9.87D-01  1.05D+00  8.31D-01  5.22D-01  1.04D+00
                    CP:  1.13D+00
 CoulSu:  requested number of processors reduced to:  21 ShMem   1 Linda.
 E= -871.609336871704     Delta-E=       -0.000013280031 Rises=F Damp=F
 DIIS: error= 5.60D-05 at cycle   7 NSaved=   7.
 NSaved= 7 IEnMin= 7 EnMin= -871.609336871704     IErMin= 7 ErrMin= 5.60D-05
 ErrMax= 5.60D-05  0.00D+00 EMaxC= 1.00D-01 BMatC= 5.96D-07 BMatP= 1.16D-05
 IDIUse=1 WtCom= 1.00D+00 WtEn= 0.00D+00
 Coeff-Com:  0.902D-03-0.171D-02-0.769D-02-0.142D-01-0.237D-01 0.155D+00
 Coeff-Com:  0.892D+00
 Coeff:      0.902D-03-0.171D-02-0.769D-02-0.142D-01-0.237D-01 0.155D+00
 Coeff:      0.892D+00
 Gap=     0.230 Goal=   None    Shift=    0.000
 RMSDP=5.97D-06 MaxDP=2.45D-04 DE=-1.33D-05 OVMax= 6.42D-04

 Cycle   8  Pass 1  IDiag  1:
 RMSU=  2.73D-06    CP:  9.87D-01  1.05D+00  8.33D-01  5.20D-01  1.05D+00
                    CP:  1.25D+00  1.25D+00
 CoulSu:  requested number of processors reduced to:  21 ShMem   1 Linda.
 E= -871.609337953509     Delta-E=       -0.000001081805 Rises=F Damp=F
 DIIS: error= 2.27D-05 at cycle   8 NSaved=   8.
 NSaved= 8 IEnMin= 8 EnMin= -871.609337953509     IErMin= 8 ErrMin= 2.27D-05
 ErrMax= 2.27D-05  0.00D+00 EMaxC= 1.00D-01 BMatC= 4.84D-08 BMatP= 5.96D-07
 IDIUse=1 WtCom= 1.00D+00 WtEn= 0.00D+00
 Coeff-Com: -0.141D-03 0.317D-03 0.303D-03 0.339D-03-0.837D-02-0.797D-01
 Coeff-Com:  0.193D-01 0.107D+01
 Coeff:     -0.141D-03 0.317D-03 0.303D-03 0.339D-03-0.837D-02-0.797D-01
 Coeff:      0.193D-01 0.107D+01
 Gap=     0.230 Goal=   None    Shift=    0.000
 RMSDP=2.16D-06 MaxDP=7.07D-05 DE=-1.08D-06 OVMax= 2.54D-04

 Cycle   9  Pass 1  IDiag  1:
 RMSU=  1.09D-06    CP:  9.87D-01  1.05D+00  8.33D-01  5.20D-01  1.06D+00
                    CP:  1.27D+00  1.37D+00  1.32D+00
 CoulSu:  requested number of processors reduced to:  21 ShMem   1 Linda.
 E= -871.609338090918     Delta-E=       -0.000000137409 Rises=F Damp=F
 DIIS: error= 8.24D-06 at cycle   9 NSaved=   9.
 NSaved= 9 IEnMin= 9 EnMin= -871.609338090918     IErMin= 9 ErrMin= 8.24D-06
 ErrMax= 8.24D-06  0.00D+00 EMaxC= 1.00D-01 BMatC= 1.00D-08 BMatP= 4.84D-08
 IDIUse=1 WtCom= 1.00D+00 WtEn= 0.00D+00
 Coeff-Com: -0.372D-04 0.795D-04 0.710D-03 0.108D-02 0.264D-02-0.236D-01
 Coeff-Com: -0.842D-01 0.174D+00 0.929D+00
 Coeff:     -0.372D-04 0.795D-04 0.710D-03 0.108D-02 0.264D-02-0.236D-01
 Coeff:     -0.842D-01 0.174D+00 0.929D+00
 Gap=     0.230 Goal=   None    Shift=    0.000
 RMSDP=6.76D-07 MaxDP=2.20D-05 DE=-1.37D-07 OVMax= 9.20D-05

 Cycle  10  Pass 1  IDiag  1:
 RMSU=  2.38D-07    CP:  9.87D-01  1.05D+00  8.33D-01  5.20D-01  1.06D+00
                    CP:  1.28D+00  1.40D+00  1.47D+00  1.17D+00
 CoulSu:  requested number of processors reduced to:  21 ShMem   1 Linda.
 E= -871.609338107998     Delta-E=       -0.000000017079 Rises=F Damp=F
 DIIS: error= 2.73D-06 at cycle  10 NSaved=  10.
 NSaved=10 IEnMin=10 EnMin= -871.609338107998     IErMin=10 ErrMin= 2.73D-06
 ErrMax= 2.73D-06  0.00D+00 EMaxC= 1.00D-01 BMatC= 1.13D-09 BMatP= 1.00D-08
 IDIUse=1 WtCom= 1.00D+00 WtEn= 0.00D+00
 Coeff-Com:  0.130D-04-0.277D-04 0.215D-03 0.234D-03 0.104D-02 0.330D-03
 Coeff-Com: -0.178D-01-0.613D-01 0.140D+00 0.937D+00
 Coeff:      0.130D-04-0.277D-04 0.215D-03 0.234D-03 0.104D-02 0.330D-03
 Coeff:     -0.178D-01-0.613D-01 0.140D+00 0.937D+00
 Gap=     0.230 Goal=   None    Shift=    0.000
 RMSDP=2.12D-07 MaxDP=6.89D-06 DE=-1.71D-08 OVMax= 2.83D-05

 Cycle  11  Pass 1  IDiag  1:
 RMSU=  8.45D-08    CP:  9.87D-01  1.05D+00  8.33D-01  5.20D-01  1.06D+00
                    CP:  1.28D+00  1.41D+00  1.51D+00  1.27D+00  1.24D+00
 CoulSu:  requested number of processors reduced to:  21 ShMem   1 Linda.
 E= -871.609338109935     Delta-E=       -0.000000001937 Rises=F Damp=F
 DIIS: error= 7.85D-07 at cycle  11 NSaved=  11.
 NSaved=11 IEnMin=11 EnMin= -871.609338109935     IErMin=11 ErrMin= 7.85D-07
 ErrMax= 7.85D-07  0.00D+00 EMaxC= 1.00D-01 BMatC= 1.22D-10 BMatP= 1.13D-09
 IDIUse=1 WtCom= 1.00D+00 WtEn= 0.00D+00
 Coeff-Com:  0.751D-05-0.165D-04 0.343D-05-0.436D-04-0.143D-04 0.203D-02
 Coeff-Com:  0.559D-02-0.229D-01-0.805D-01 0.127D+00 0.969D+00
 Coeff:      0.751D-05-0.165D-04 0.343D-05-0.436D-04-0.143D-04 0.203D-02
 Coeff:      0.559D-02-0.229D-01-0.805D-01 0.127D+00 0.969D+00
 Gap=     0.230 Goal=   None    Shift=    0.000
 RMSDP=6.99D-08 MaxDP=2.43D-06 DE=-1.94D-09 OVMax= 1.13D-05

 Cycle  12  Pass 1  IDiag  1:
 RMSU=  2.96D-08    CP:  9.87D-01  1.05D+00  8.33D-01  5.20D-01  1.06D+00
                    CP:  1.28D+00  1.41D+00  1.52D+00  1.30D+00  1.39D+00
                    CP:  1.32D+00
 CoulSu:  requested number of processors reduced to:  21 ShMem   1 Linda.
 E= -871.609338110164     Delta-E=       -0.000000000229 Rises=F Damp=F
 DIIS: error= 3.45D-07 at cycle  12 NSaved=  12.
 NSaved=12 IEnMin=12 EnMin= -871.609338110164     IErMin=12 ErrMin= 3.45D-07
 ErrMax= 3.45D-07  0.00D+00 EMaxC= 1.00D-01 BMatC= 1.42D-11 BMatP= 1.22D-10
 IDIUse=1 WtCom= 1.00D+00 WtEn= 0.00D+00
 Coeff-Com: -0.156D-05 0.295D-05-0.186D-04-0.344D-04-0.782D-04-0.209D-03
 Coeff-Com:  0.134D-02 0.115D-01-0.180D-01-0.127D+00-0.260D-01 0.116D+01
 Coeff:     -0.156D-05 0.295D-05-0.186D-04-0.344D-04-0.782D-04-0.209D-03
 Coeff:      0.134D-02 0.115D-01-0.180D-01-0.127D+00-0.260D-01 0.116D+01
 Gap=     0.230 Goal=   None    Shift=    0.000
 RMSDP=3.03D-08 MaxDP=9.31D-07 DE=-2.29D-10 OVMax= 4.79D-06

 Cycle  13  Pass 1  IDiag  1:
 RMSU=  9.21D-09    CP:  9.87D-01  1.05D+00  8.33D-01  5.20D-01  1.06D+00
                    CP:  1.28D+00  1.41D+00  1.52D+00  1.30D+00  1.44D+00
                    CP:  1.51D+00  1.45D+00
 CoulSu:  requested number of processors reduced to:  21 ShMem   1 Linda.
 E= -871.609338110204     Delta-E=       -0.000000000040 Rises=F Damp=F
 DIIS: error= 5.80D-08 at cycle  13 NSaved=  13.
 NSaved=13 IEnMin=13 EnMin= -871.609338110204     IErMin=13 ErrMin= 5.80D-08
 ErrMax= 5.80D-08  0.00D+00 EMaxC= 1.00D-01 BMatC= 3.29D-13 BMatP= 1.42D-11
 IDIUse=1 WtCom= 1.00D+00 WtEn= 0.00D+00
 Coeff-Com: -0.856D-06 0.185D-05-0.162D-05-0.225D-05-0.186D-04-0.191D-03
 Coeff-Com: -0.278D-03 0.229D-02 0.338D-02-0.164D-01-0.601D-01 0.692D-01
 Coeff-Com:  0.100D+01
 Coeff:     -0.856D-06 0.185D-05-0.162D-05-0.225D-05-0.186D-04-0.191D-03
 Coeff:     -0.278D-03 0.229D-02 0.338D-02-0.164D-01-0.601D-01 0.692D-01
 Coeff:      0.100D+01
 Gap=     0.230 Goal=   None    Shift=    0.000
 RMSDP=6.09D-09 MaxDP=2.17D-07 DE=-3.98D-11 OVMax= 9.32D-07

 SCF Done:  E(RM062X) =  -871.609338110     A.U. after   13 cycles
            NFock= 13  Conv=0.61D-08     -V/T= 2.0017
 KE= 8.701538494970D+02 PE=-2.354209263484D+03 EE= 4.709149628222D+02
 Leave Link  502 at Sat Apr 17 20:45:47 2021, MaxMem=   104857600 cpu:            1049.7 elap:              30.4
 (Enter /s/ls4/users/knvvv/bin/g16sse/l601.exe)
 Copying SCF densities to generalized density rwf, IOpCl= 0 IROHF=0.

 **********************************************************************

            Population analysis using the SCF density.

 **********************************************************************

 Orbital symmetries:
       Occupied  (A') (A') (A') (A') (A') (A") (A') (A') (A') (A")
                 (A') (A') (A') (A') (A') (A') (A") (A') (A") (A')
       Virtual   (A") (A') (A') (A') (A") (A') (A') (A") (A') (A')
                 (A') (A") (A') (A') (A") (A') (A") (A') (A') (A')
                 (A") (A') (A") (A') (A") (A') (A') (A') (A") (A')
                 (A") (A') (A") (A') (A') (A') (A') (A") (A") (A")
                 (A') (A') (A') (A") (A') (A') (A") (A') (A') (A')
                 (A') (A") (A') (A') (A") (A') (A") (A") (A') (A')
                 (A') (A") (A") (A') (A") (A') (A') (A") (A') (A')
                 (A') (A") (A") (A') (A') (A") (A') (A') (A') (A")
                 (A") (A') (A') (A') (A") (A') (A") (A') (A') (A')
                 (A') (A') (A") (A") (A') (A') (A') (A") (A") (A')
                 (A") (A') (A") (A") (A') (A') (A") (A') (A') (A")
                 (A') (A') (A") (A") (A') (A') (A") (A') (A') (A")
                 (A') (A") (A') (A') (A") (A') (A") (A') (A") (A')
                 (A") (A') (A") (A') (A') (A") (A') (A') (A') (A")
                 (A') (A") (A') (A') (A") (A") (A') (A') (A') (A")
                 (A') (A') (A") (A') (A') (A') (A') (A') (A') (A")
                 (A') (A") (A") (A') (A") (A') (A') (A") (A') (A")
                 (A") (A') (A') (A') (A") (A') (A') (A") (A') (A")
                 (A') (A") (A') (A') (A") (A') (A") (A') (A') (A')
                 (A') (A') (A") (A') (A") (A') (A') (A') (A') (A')
                 (A') (A') (A') (A')
 The electronic state is 1-A'.
 Alpha  occ. eigenvalues --  -90.06851 -89.94413 -19.67778  -8.40963  -8.30013
 Alpha  occ. eigenvalues --   -6.33121  -6.32970  -6.32739  -6.22064  -6.22024
 Alpha  occ. eigenvalues --   -6.21643  -1.21225  -0.91376  -0.69346  -0.53978
 Alpha  occ. eigenvalues --   -0.53698  -0.52969  -0.37914  -0.37026  -0.34490
 Alpha virt. eigenvalues --   -0.11531   0.00572   0.01059   0.01867   0.02073
 Alpha virt. eigenvalues --    0.03175   0.04079   0.04847   0.05913   0.06781
 Alpha virt. eigenvalues --    0.08823   0.09103   0.12132   0.13284   0.13514
 Alpha virt. eigenvalues --    0.14437   0.16124   0.17017   0.19011   0.19962
 Alpha virt. eigenvalues --    0.20320   0.22184   0.22547   0.22694   0.25151
 Alpha virt. eigenvalues --    0.26862   0.28605   0.31713   0.31840   0.34484
 Alpha virt. eigenvalues --    0.36084   0.36241   0.37597   0.38356   0.40085
 Alpha virt. eigenvalues --    0.41571   0.42611   0.42809   0.43650   0.49253
 Alpha virt. eigenvalues --    0.50663   0.52735   0.54463   0.56198   0.59418
 Alpha virt. eigenvalues --    0.60273   0.62133   0.65042   0.66296   0.73099
 Alpha virt. eigenvalues --    0.76727   0.95641   0.96871   0.97198   0.99237
 Alpha virt. eigenvalues --    1.00303   1.01413   1.03963   1.04167   1.06783
 Alpha virt. eigenvalues --    1.08254   1.08361   1.09975   1.10719   1.11075
 Alpha virt. eigenvalues --    1.11758   1.12878   1.16575   1.17868   1.21116
 Alpha virt. eigenvalues --    1.24418   1.24881   1.28987   1.30588   1.35374
 Alpha virt. eigenvalues --    1.36557   1.42709   1.45859   1.51995   1.53385
 Alpha virt. eigenvalues --    1.56476   1.57951   1.63063   1.65771   1.73890
 Alpha virt. eigenvalues --    1.81359   1.85833   1.87546   1.95565   2.04260
 Alpha virt. eigenvalues --    2.24762   2.38806   2.58099   2.59563   2.61561
 Alpha virt. eigenvalues --    2.66934   2.69353   2.69445   2.73933   2.74671
 Alpha virt. eigenvalues --    2.75878   2.77286   2.78007   2.78742   2.80807
 Alpha virt. eigenvalues --    2.82016   2.90948   2.91728   2.94902   2.95129
 Alpha virt. eigenvalues --    2.98024   3.01880   3.02495   3.07805   3.08799
 Alpha virt. eigenvalues --    3.11747   3.13221   3.16846   3.18377   3.21489
 Alpha virt. eigenvalues --    3.23478   3.24433   3.32665   3.36629   3.36690
 Alpha virt. eigenvalues --    3.42433   3.43861   3.45111   3.45821   3.48013
 Alpha virt. eigenvalues --    3.54124   3.57720   3.62026   3.62339   3.63752
 Alpha virt. eigenvalues --    3.67830   3.69044   3.77422   3.93270   4.01466
 Alpha virt. eigenvalues --    4.03153   4.10294   4.11755   4.17228   4.27369
 Alpha virt. eigenvalues --    4.38438   4.39767   4.52920   4.78206   4.84335
 Alpha virt. eigenvalues --    4.94259   5.02909   5.36946   5.45722   5.68674
 Alpha virt. eigenvalues --    6.96149   7.18378   7.54687   8.55270   8.60452
 Alpha virt. eigenvalues --    8.67988   8.68779   8.72172   8.72640   8.75725
 Alpha virt. eigenvalues --    8.75734   8.76514   8.77078   8.86532   8.87213
 Alpha virt. eigenvalues --    8.95232   8.96259   9.00990   9.23056   9.35659
 Alpha virt. eigenvalues --    9.52931   9.87909  10.80302  10.80662  11.03532
 Alpha virt. eigenvalues --   11.05631  11.59478  11.64391  11.67001  11.98246
 Alpha virt. eigenvalues --   12.00763  12.13276  12.21843  12.69247  13.84620
 Alpha virt. eigenvalues --   24.17250  24.53091  28.85043  28.93862  28.94766
 Alpha virt. eigenvalues --   28.97257  29.30961  29.67813  47.87404  83.88521
 Alpha virt. eigenvalues --   84.21490 250.92748 449.47978 450.07225
          Condensed to atoms (all electrons):
               1          2          3
     1  S   15.777099   0.412267  -0.082495
     2  S    0.412267  14.667688   0.400346
     3  O   -0.082495   0.400346   8.094978
 Mulliken charges:
               1
     1  S   -0.106871
     2  S    0.519700
     3  O   -0.412829
 Sum of Mulliken charges =  -0.00000
 Mulliken charges with hydrogens summed into heavy atoms:
               1
     1  S   -0.106871
     2  S    0.519700
     3  O   -0.412829
 Electronic spatial extent (au):  <R**2>=            270.4575
 Charge=             -0.0000 electrons
 Dipole moment (field-independent basis, Debye):
    X=             -1.6311    Y=              0.1426    Z=              0.0000  Tot=              1.6373
 Quadrupole moment (field-independent basis, Debye-Ang):
   XX=            -34.5445   YY=            -29.7317   ZZ=            -29.2172
   XY=             -0.8139   XZ=              0.0000   YZ=              0.0000
 Traceless Quadrupole moment (field-independent basis, Debye-Ang):
   XX=             -3.3800   YY=              1.4327   ZZ=              1.9473
   XY=             -0.8139   XZ=              0.0000   YZ=              0.0000
 Octapole moment (field-independent basis, Debye-Ang**2):
  XXX=              0.8292  YYY=              1.8920  ZZZ=             -0.0000  XYY=             -1.9770
  XXY=             -1.7828  XXZ=              0.0000  XZZ=              1.6858  YZZ=              1.8793
  YYZ=              0.0000  XYZ=              0.0000
 Hexadecapole moment (field-independent basis, Debye-Ang**3):
 XXXX=           -158.8615 YYYY=           -173.5595 ZZZZ=            -34.3454 XXXY=            -52.6205
 XXXZ=              0.0000 YYYX=            -44.7586 YYYZ=              0.0000 ZZZX=              0.0000
 ZZZY=              0.0000 XXYY=            -54.9768 XXZZ=            -30.5246 YYZZ=            -34.0518
 XXYZ=              0.0000 YYXZ=              0.0000 ZZXY=            -15.6771
 N-N= 1.415311130542D+02 E-N=-2.354209265437D+03  KE= 8.701538494970D+02
 PrsmSu:  requested number of processors reduced to:  21 ShMem   1 Linda.
 No NMR shielding tensors so no spin-rotation constants.
 Leave Link  601 at Sat Apr 17 20:45:50 2021, MaxMem=   104857600 cpu:             129.5 elap:               2.9
 (Enter /s/ls4/users/knvvv/bin/g16sse/l801.exe)
 DoSCS=F DFT=T ScalE2(SS,OS)=  1.000000  1.000000
 Range of M.O.s used for correlation:     1   224
 NBasis=   224 NAE=    20 NBE=    20 NFC=     0 NFV=     0
 NROrb=    224 NOA=    20 NOB=    20 NVA=   204 NVB=   204

 **** Warning!!: The largest alpha MO coefficient is  0.30787890D+02

 Leave Link  801 at Sat Apr 17 20:45:50 2021, MaxMem=   104857600 cpu:               3.5 elap:               0.1
 (Enter /s/ls4/users/knvvv/bin/g16sse/l914.exe)
 RHF ground state
 Doing stability rather than CIS.
 Two-electron integrals replicated using symmetry.
 MDV=   104857600 DFT=T DoStab=T Mixed=T DoRPA=F DoScal=F NonHer=F
 Making orbital integer symmetry assigments:
 Orbital symmetries:
       Occupied  (A') (A') (A') (A') (A') (A") (A') (A') (A') (A")
                 (A') (A') (A') (A') (A') (A') (A") (A') (A") (A')
       Virtual   (A") (A') (A') (A') (A") (A') (A') (A") (A') (A')
                 (A') (A") (A') (A') (A") (A') (A") (A') (A') (A')
                 (A") (A') (A") (A') (A") (A') (A') (A') (A") (A')
                 (A") (A') (A") (A') (A') (A') (A') (A") (A") (A")
                 (A') (A') (A') (A") (A') (A') (A") (A') (A') (A')
                 (A') (A") (A') (A') (A") (A') (A") (A") (A') (A')
                 (A') (A") (A") (A') (A") (A') (A') (A") (A') (A')
                 (A') (A") (A") (A') (A') (A") (A') (A') (A') (A")
                 (A") (A') (A') (A') (A") (A') (A") (A') (A') (A')
                 (A') (A') (A") (A") (A') (A') (A') (A") (A") (A')
                 (A") (A') (A") (A") (A') (A') (A") (A') (A') (A")
                 (A') (A') (A") (A") (A') (A') (A") (A') (A') (A")
                 (A') (A") (A') (A') (A") (A') (A") (A') (A") (A')
                 (A") (A') (A") (A') (A') (A") (A') (A') (A') (A")
                 (A') (A") (A') (A') (A") (A") (A') (A') (A') (A")
                 (A') (A') (A") (A') (A') (A') (A') (A') (A') (A")
                 (A') (A") (A") (A') (A") (A') (A') (A") (A') (A")
                 (A") (A') (A') (A') (A") (A') (A') (A") (A') (A")
                 (A') (A") (A') (A') (A") (A') (A") (A') (A') (A')
                 (A') (A') (A") (A') (A") (A') (A') (A') (A') (A')
                 (A') (A') (A') (A')
    24 initial guesses have been made.
 Convergence on wavefunction:    0.001000000000000
 Davidson Disk Diagonalization:  ConvIn= 1.00D-03 SkipCon=T Conv= 1.00D-03.
 Max sub-space:  2000 roots to seek:    24 dimension of matrix:         8160
 Iteration     1 Dimension    24 NMult     0 NNew     24
 Estimated number of processors is:   19
 CISAX will form     1 AO SS matrices at one time.
 NMat=     1 NSing=     1 JSym2X= 2.
 FoFJK:  IHMeth= 1 ICntrl=       0 DoSepK=F KAlg= 0 I1Cent=           0 FoldK=F
 IRaf= 960000000 NMat=       1 IRICut=       1 DoRegI=T DoRafI=F ISym2E= 2 IDoP0=0 IntGTp=1.
 FoFCou: FMM=F IPFlag=           0 FMFlag=      100000 FMFlg1=           0
         NFxFlg=           0 DoJE=F BraDBF=F KetDBF=F FulRan=T
         wScrn=  0.000000 ICntrl=         0 IOpCl=  0 I1Cent=           0 NGrid=           0
         NMat0=    1 NMatS0=      1 NMatT0=    0 NMatD0=    1 NMtDS0=    0 NMtDT0=    0
 Integrals replicated using symmetry in FoFCou.
 CoulSu:  requested number of processors reduced to:  21 ShMem   1 Linda.
 NMat=     1 NSing=     1 JSym2X= 2.
 CoulSu:  requested number of processors reduced to:  21 ShMem   1 Linda.
 NMat=     1 NSing=     1 JSym2X= 2.
 CoulSu:  requested number of processors reduced to:  21 ShMem   1 Linda.
 NMat=     1 NSing=     1 JSym2X= 2.
 CoulSu:  requested number of processors reduced to:  21 ShMem   1 Linda.
 NMat=     1 NSing=     1 JSym2X= 2.
 CoulSu:  requested number of processors reduced to:  21 ShMem   1 Linda.
 NMat=     1 NSing=     1 JSym2X= 2.
 CoulSu:  requested number of processors reduced to:  21 ShMem   1 Linda.
 NMat=     1 NSing=     1 JSym2X= 2.
 CoulSu:  requested number of processors reduced to:  21 ShMem   1 Linda.
 NMat=     1 NSing=     1 JSym2X= 2.
 CoulSu:  requested number of processors reduced to:  21 ShMem   1 Linda.
 NMat=     1 NSing=     1 JSym2X= 2.
 CoulSu:  requested number of processors reduced to:  21 ShMem   1 Linda.
 NMat=     1 NSing=     1 JSym2X= 2.
 CoulSu:  requested number of processors reduced to:  21 ShMem   1 Linda.
 NMat=     1 NSing=     1 JSym2X= 2.
 CoulSu:  requested number of processors reduced to:  21 ShMem   1 Linda.
 NMat=     1 NSing=     1 JSym2X= 2.
 CoulSu:  requested number of processors reduced to:  21 ShMem   1 Linda.
 NMat=     1 NSing=     0 JSym2X= 2.
 CoulSu:  requested number of processors reduced to:  21 ShMem   1 Linda.
 NMat=     1 NSing=     0 JSym2X= 2.
 CoulSu:  requested number of processors reduced to:  21 ShMem   1 Linda.
 NMat=     1 NSing=     0 JSym2X= 2.
 CoulSu:  requested number of processors reduced to:  21 ShMem   1 Linda.
 NMat=     1 NSing=     0 JSym2X= 2.
 CoulSu:  requested number of processors reduced to:  21 ShMem   1 Linda.
 NMat=     1 NSing=     0 JSym2X= 2.
 CoulSu:  requested number of processors reduced to:  21 ShMem   1 Linda.
 NMat=     1 NSing=     0 JSym2X= 2.
 CoulSu:  requested number of processors reduced to:  21 ShMem   1 Linda.
 NMat=     1 NSing=     0 JSym2X= 2.
 CoulSu:  requested number of processors reduced to:  21 ShMem   1 Linda.
 NMat=     1 NSing=     0 JSym2X= 2.
 CoulSu:  requested number of processors reduced to:  21 ShMem   1 Linda.
 NMat=     1 NSing=     0 JSym2X= 2.
 CoulSu:  requested number of processors reduced to:  21 ShMem   1 Linda.
 NMat=     1 NSing=     0 JSym2X= 2.
 CoulSu:  requested number of processors reduced to:  21 ShMem   1 Linda.
 NMat=     1 NSing=     0 JSym2X= 2.
 CoulSu:  requested number of processors reduced to:  21 ShMem   1 Linda.
 NMat=     1 NSing=     0 JSym2X= 2.
 CoulSu:  requested number of processors reduced to:  21 ShMem   1 Linda.
 New state      1 was old state      4
 Excitation Energies [eV] at current iteration:
 Root      1 :     1.346403255419696
 Root      2 :     1.907683159427938
 Root      3 :     2.585684015640369
 Root      4 :     2.890438103884279
 Root      5 :     3.761510602075800
 Root      6 :     6.396288865906000
 Root      7 :     6.407182647982682
 Root      8 :     7.225686089254119
 Root      9 :     7.439577083346454
 Root     10 :     7.656883207992979
 Root     11 :     7.665727831880542
 Root     12 :     7.847299892906517
 Root     13 :     8.028453391803126
 Root     14 :     8.038964067791321
 Root     15 :     8.056592673100544
 Root     16 :     8.069233318641786
 Root     17 :     8.105340270372265
 Root     18 :     8.117987369876392
 Root     19 :     8.233100373923627
 Root     20 :     8.289915615375639
 Root     21 :     8.519157802471494
 Root     22 :     8.586823786621242
 Root     23 :     8.868400081079642
 Root     24 :    13.570586740207310
 Iteration     2 Dimension    48 NMult    24 NNew     24
 Estimated number of processors is:   19
 CISAX will form     1 AO SS matrices at one time.
 NMat=     1 NSing=     1 JSym2X= 2.
 CoulSu:  requested number of processors reduced to:  21 ShMem   1 Linda.
 NMat=     1 NSing=     1 JSym2X= 2.
 CoulSu:  requested number of processors reduced to:  21 ShMem   1 Linda.
 NMat=     1 NSing=     1 JSym2X= 2.
 CoulSu:  requested number of processors reduced to:  21 ShMem   1 Linda.
 NMat=     1 NSing=     1 JSym2X= 2.
 CoulSu:  requested number of processors reduced to:  21 ShMem   1 Linda.
 NMat=     1 NSing=     1 JSym2X= 2.
 CoulSu:  requested number of processors reduced to:  21 ShMem   1 Linda.
 NMat=     1 NSing=     1 JSym2X= 2.
 CoulSu:  requested number of processors reduced to:  21 ShMem   1 Linda.
 NMat=     1 NSing=     1 JSym2X= 2.
 CoulSu:  requested number of processors reduced to:  21 ShMem   1 Linda.
 NMat=     1 NSing=     1 JSym2X= 2.
 CoulSu:  requested number of processors reduced to:  21 ShMem   1 Linda.
 NMat=     1 NSing=     1 JSym2X= 2.
 CoulSu:  requested number of processors reduced to:  21 ShMem   1 Linda.
 NMat=     1 NSing=     1 JSym2X= 2.
 CoulSu:  requested number of processors reduced to:  21 ShMem   1 Linda.
 NMat=     1 NSing=     1 JSym2X= 2.
 CoulSu:  requested number of processors reduced to:  21 ShMem   1 Linda.
 NMat=     1 NSing=     1 JSym2X= 2.
 CoulSu:  requested number of processors reduced to:  21 ShMem   1 Linda.
 NMat=     1 NSing=     0 JSym2X= 2.
 CoulSu:  requested number of processors reduced to:  21 ShMem   1 Linda.
 NMat=     1 NSing=     0 JSym2X= 2.
 CoulSu:  requested number of processors reduced to:  21 ShMem   1 Linda.
 NMat=     1 NSing=     0 JSym2X= 2.
 CoulSu:  requested number of processors reduced to:  21 ShMem   1 Linda.
 NMat=     1 NSing=     0 JSym2X= 2.
 CoulSu:  requested number of processors reduced to:  21 ShMem   1 Linda.
 NMat=     1 NSing=     0 JSym2X= 2.
 CoulSu:  requested number of processors reduced to:  21 ShMem   1 Linda.
 NMat=     1 NSing=     0 JSym2X= 2.
 CoulSu:  requested number of processors reduced to:  21 ShMem   1 Linda.
 NMat=     1 NSing=     0 JSym2X= 2.
 CoulSu:  requested number of processors reduced to:  21 ShMem   1 Linda.
 NMat=     1 NSing=     0 JSym2X= 2.
 CoulSu:  requested number of processors reduced to:  21 ShMem   1 Linda.
 NMat=     1 NSing=     0 JSym2X= 2.
 CoulSu:  requested number of processors reduced to:  21 ShMem   1 Linda.
 NMat=     1 NSing=     0 JSym2X= 2.
 CoulSu:  requested number of processors reduced to:  21 ShMem   1 Linda.
 NMat=     1 NSing=     0 JSym2X= 2.
 CoulSu:  requested number of processors reduced to:  21 ShMem   1 Linda.
 NMat=     1 NSing=     0 JSym2X= 2.
 CoulSu:  requested number of processors reduced to:  21 ShMem   1 Linda.
 Root      1 not converged, maximum delta is    0.043805744838311
 Excitation Energies [eV] at current iteration:
 Root      1 :     0.940019886393221   Change is   -0.406383369026475
 Root      2 :     1.595710692382947   Change is   -0.311972467044991
 Root      3 :     2.213256097912700   Change is   -0.372427917727669
 Root      4 :     2.683606604676491   Change is   -0.206831499207787
 Root      5 :     3.282147971008015   Change is   -0.479362631067786
 Root      6 :     4.633802575551793   Change is   -1.773380072430889
 Root      7 :     5.376441917152706   Change is   -1.019846948753294
 Root      8 :     6.106283566819162   Change is   -1.119402522434958
 Root      9 :     6.348834730971778   Change is   -1.756505539400487
 Root     10 :     6.558498417952030   Change is   -1.288801474954487
 Root     11 :     6.881969328000833   Change is   -0.557607755345621
 Root     12 :     7.308069871897184   Change is   -0.348813336095795
 Root     13 :     7.337709412962145   Change is   -0.328018418918398
 Root     14 :     7.341009732467374   Change is   -0.715582940633170
 Root     15 :     7.401380196564072   Change is   -0.716607173312320
 Root     16 :     7.638811788984873   Change is   -0.400152278806449
 Root     17 :     7.943300686881890   Change is   -0.085152704921236
 Root     18 :     7.970888238493814   Change is   -0.098345080147972
 Root     19 :     7.995688670195492   Change is   -0.237411703728134
 Root     20 :     8.108553834446607   Change is   -0.181361780929032
 Root     21 :     8.310912284909179   Change is   -0.208245517562315
 Root     22 :     8.430291060161375   Change is   -0.156532726459868
 Root     23 :     8.674276025642257   Change is   -0.194124055437385
 Root     24 :     9.069262302550371   Change is   -4.501324437656939
 Iteration     3 Dimension    54 NMult    48 NNew      6
 Estimated number of processors is:   19
 CISAX will form     1 AO SS matrices at one time.
 NMat=     1 NSing=     1 JSym2X= 2.
 CoulSu:  requested number of processors reduced to:  21 ShMem   1 Linda.
 NMat=     1 NSing=     1 JSym2X= 2.
 CoulSu:  requested number of processors reduced to:  21 ShMem   1 Linda.
 NMat=     1 NSing=     1 JSym2X= 2.
 CoulSu:  requested number of processors reduced to:  21 ShMem   1 Linda.
 NMat=     1 NSing=     0 JSym2X= 2.
 CoulSu:  requested number of processors reduced to:  21 ShMem   1 Linda.
 NMat=     1 NSing=     0 JSym2X= 2.
 CoulSu:  requested number of processors reduced to:  21 ShMem   1 Linda.
 NMat=     1 NSing=     0 JSym2X= 2.
 CoulSu:  requested number of processors reduced to:  21 ShMem   1 Linda.
 Root      1 not converged, maximum delta is    0.020204196294704
 Excitation Energies [eV] at current iteration:
 Root      1 :     0.921507596958880   Change is   -0.018512289434341
 Root      2 :     1.587852362631741   Change is   -0.007858329751206
 Root      3 :     2.205926807804387   Change is   -0.007329290108313
 Root      4 :     2.655163416057777   Change is   -0.028443188618714
 Root      5 :     3.245635246788983   Change is   -0.036512724219032
 Root      6 :     4.505743181639373   Change is   -0.128059393912420
 Iteration     4 Dimension    60 NMult    54 NNew      6
 Estimated number of processors is:   19
 CISAX will form     1 AO SS matrices at one time.
 NMat=     1 NSing=     1 JSym2X= 2.
 CoulSu:  requested number of processors reduced to:  21 ShMem   1 Linda.
 NMat=     1 NSing=     1 JSym2X= 2.
 CoulSu:  requested number of processors reduced to:  21 ShMem   1 Linda.
 NMat=     1 NSing=     1 JSym2X= 2.
 CoulSu:  requested number of processors reduced to:  21 ShMem   1 Linda.
 NMat=     1 NSing=     0 JSym2X= 2.
 CoulSu:  requested number of processors reduced to:  21 ShMem   1 Linda.
 NMat=     1 NSing=     0 JSym2X= 2.
 CoulSu:  requested number of processors reduced to:  21 ShMem   1 Linda.
 NMat=     1 NSing=     0 JSym2X= 2.
 CoulSu:  requested number of processors reduced to:  21 ShMem   1 Linda.
 Root      1 not converged, maximum delta is    0.013370894152056
 Excitation Energies [eV] at current iteration:
 Root      1 :     0.918418293853418   Change is   -0.003089303105462
 Root      2 :     1.587224552283594   Change is   -0.000627810348148
 Root      3 :     2.205392962467029   Change is   -0.000533845337357
 Root      4 :     2.653063596909861   Change is   -0.002099819147916
 Root      5 :     3.243293917578320   Change is   -0.002341329210663
 Root      6 :     4.494085147608997   Change is   -0.011658034030376
 Iteration     5 Dimension    66 NMult    60 NNew      6
 Estimated number of processors is:   19
 CISAX will form     1 AO SS matrices at one time.
 NMat=     1 NSing=     1 JSym2X= 2.
 CoulSu:  requested number of processors reduced to:  21 ShMem   1 Linda.
 NMat=     1 NSing=     1 JSym2X= 2.
 CoulSu:  requested number of processors reduced to:  21 ShMem   1 Linda.
 NMat=     1 NSing=     1 JSym2X= 2.
 CoulSu:  requested number of processors reduced to:  21 ShMem   1 Linda.
 NMat=     1 NSing=     0 JSym2X= 2.
 CoulSu:  requested number of processors reduced to:  21 ShMem   1 Linda.
 NMat=     1 NSing=     0 JSym2X= 2.
 CoulSu:  requested number of processors reduced to:  21 ShMem   1 Linda.
 NMat=     1 NSing=     0 JSym2X= 2.
 CoulSu:  requested number of processors reduced to:  21 ShMem   1 Linda.
 Root      1 not converged, maximum delta is    0.001456370355626
 Excitation Energies [eV] at current iteration:
 Root      1 :     0.918254629154017   Change is   -0.000163664699401
 Root      2 :     1.587192354447190   Change is   -0.000032197836403
 Root      3 :     2.205348170131422   Change is   -0.000044792335607
 Root      4 :     2.652975855657015   Change is   -0.000087741252846
 Root      5 :     3.243124209816628   Change is   -0.000169707761691
 Root      6 :     4.493015616974236   Change is   -0.001069530634761
 Iteration     6 Dimension    72 NMult    66 NNew      6
 Estimated number of processors is:   19
 CISAX will form     1 AO SS matrices at one time.
 NMat=     1 NSing=     1 JSym2X= 2.
 CoulSu:  requested number of processors reduced to:  21 ShMem   1 Linda.
 NMat=     1 NSing=     1 JSym2X= 2.
 CoulSu:  requested number of processors reduced to:  21 ShMem   1 Linda.
 NMat=     1 NSing=     1 JSym2X= 2.
 CoulSu:  requested number of processors reduced to:  21 ShMem   1 Linda.
 NMat=     1 NSing=     0 JSym2X= 2.
 CoulSu:  requested number of processors reduced to:  21 ShMem   1 Linda.
 NMat=     1 NSing=     0 JSym2X= 2.
 CoulSu:  requested number of processors reduced to:  21 ShMem   1 Linda.
 NMat=     1 NSing=     0 JSym2X= 2.
 CoulSu:  requested number of processors reduced to:  21 ShMem   1 Linda.
 Root      1 has converged.
 Excitation Energies [eV] at current iteration:
 Root      1 :     0.918250362372323   Change is   -0.000004266781694
 Root      2 :     1.587191529561845   Change is   -0.000000824885345
 Root      3 :     2.205347189411551   Change is   -0.000000980719871
 Root      4 :     2.652968884790868   Change is   -0.000006970866147
 Root      5 :     3.243112501632519   Change is   -0.000011708184110
 Root      6 :     4.492907187692270   Change is   -0.000108429281966
 Convergence achieved on expansion vectors.
 ***********************************************************************
 Stability analysis using <AA,BB:AA,BB> singles matrix:
 ***********************************************************************
 1PDM for each excited state written to RWF  633
 Ground to excited state transition densities written to RWF  633

 Eigenvectors of the stability matrix:
 
 Eigenvector   1:      Triplet-A'   Eigenvalue= 0.0337451  <S**2>=2.000
      19 -> 21         0.69369
 The wavefunction is stable under the perturbations considered.
 Leave Link  914 at Sat Apr 17 20:49:56 2021, MaxMem=   104857600 cpu:            9443.6 elap:             245.7
 (Enter /s/ls4/users/knvvv/bin/g16sse/l508.exe)
 The wavefunction is already stable.
 Leave Link  508 at Sat Apr 17 20:49:56 2021, MaxMem=   104857600 cpu:               2.2 elap:               0.1
 (Enter /s/ls4/users/knvvv/bin/g16sse/l601.exe)
 Copying SCF densities to generalized density rwf, IOpCl= 0 IROHF=0.

 **********************************************************************

            Population analysis using the SCF density.

 **********************************************************************

 Orbital symmetries:
       Occupied  (A') (A') (A') (A') (A') (A") (A') (A') (A') (A")
                 (A') (A') (A') (A') (A') (A') (A") (A') (A") (A')
       Virtual   (A") (A') (A') (A') (A") (A') (A') (A") (A') (A')
                 (A') (A") (A') (A') (A") (A') (A") (A') (A') (A')
                 (A") (A') (A") (A') (A") (A') (A') (A') (A") (A')
                 (A") (A') (A") (A') (A') (A') (A') (A") (A") (A")
                 (A') (A') (A') (A") (A') (A') (A") (A') (A') (A')
                 (A') (A") (A') (A') (A") (A') (A") (A") (A') (A')
                 (A') (A") (A") (A') (A") (A') (A') (A") (A') (A')
                 (A') (A") (A") (A') (A') (A") (A') (A') (A') (A")
                 (A") (A') (A') (A') (A") (A') (A") (A') (A') (A')
                 (A') (A') (A") (A") (A') (A') (A') (A") (A") (A')
                 (A") (A') (A") (A") (A') (A') (A") (A') (A') (A")
                 (A') (A') (A") (A") (A') (A') (A") (A') (A') (A")
                 (A') (A") (A') (A') (A") (A') (A") (A') (A") (A')
                 (A") (A') (A") (A') (A') (A") (A') (A') (A') (A")
                 (A') (A") (A') (A') (A") (A") (A') (A') (A') (A")
                 (A') (A') (A") (A') (A') (A') (A') (A') (A') (A")
                 (A') (A") (A") (A') (A") (A') (A') (A") (A') (A")
                 (A") (A') (A') (A') (A") (A') (A') (A") (A') (A")
                 (A') (A") (A') (A') (A") (A') (A") (A') (A') (A')
                 (A') (A') (A") (A') (A") (A') (A') (A') (A') (A')
                 (A') (A') (A') (A')
 The electronic state is 1-A'.
 Alpha  occ. eigenvalues --  -90.06851 -89.94413 -19.67778  -8.40963  -8.30013
 Alpha  occ. eigenvalues --   -6.33121  -6.32970  -6.32739  -6.22064  -6.22024
 Alpha  occ. eigenvalues --   -6.21643  -1.21225  -0.91376  -0.69346  -0.53978
 Alpha  occ. eigenvalues --   -0.53698  -0.52969  -0.37914  -0.37026  -0.34490
 Alpha virt. eigenvalues --   -0.11531   0.00572   0.01059   0.01867   0.02073
 Alpha virt. eigenvalues --    0.03175   0.04079   0.04847   0.05913   0.06781
 Alpha virt. eigenvalues --    0.08823   0.09103   0.12132   0.13284   0.13514
 Alpha virt. eigenvalues --    0.14437   0.16124   0.17017   0.19011   0.19962
 Alpha virt. eigenvalues --    0.20320   0.22184   0.22547   0.22694   0.25151
 Alpha virt. eigenvalues --    0.26862   0.28605   0.31713   0.31840   0.34484
 Alpha virt. eigenvalues --    0.36084   0.36241   0.37597   0.38356   0.40085
 Alpha virt. eigenvalues --    0.41571   0.42611   0.42809   0.43650   0.49253
 Alpha virt. eigenvalues --    0.50663   0.52735   0.54463   0.56198   0.59418
 Alpha virt. eigenvalues --    0.60273   0.62133   0.65042   0.66296   0.73099
 Alpha virt. eigenvalues --    0.76727   0.95641   0.96871   0.97198   0.99237
 Alpha virt. eigenvalues --    1.00303   1.01413   1.03963   1.04167   1.06783
 Alpha virt. eigenvalues --    1.08254   1.08361   1.09975   1.10719   1.11075
 Alpha virt. eigenvalues --    1.11758   1.12878   1.16575   1.17868   1.21116
 Alpha virt. eigenvalues --    1.24418   1.24881   1.28987   1.30588   1.35374
 Alpha virt. eigenvalues --    1.36557   1.42709   1.45859   1.51995   1.53385
 Alpha virt. eigenvalues --    1.56476   1.57951   1.63063   1.65771   1.73890
 Alpha virt. eigenvalues --    1.81359   1.85833   1.87546   1.95565   2.04260
 Alpha virt. eigenvalues --    2.24762   2.38806   2.58099   2.59563   2.61561
 Alpha virt. eigenvalues --    2.66934   2.69353   2.69445   2.73933   2.74671
 Alpha virt. eigenvalues --    2.75878   2.77286   2.78007   2.78742   2.80807
 Alpha virt. eigenvalues --    2.82016   2.90948   2.91728   2.94902   2.95129
 Alpha virt. eigenvalues --    2.98024   3.01880   3.02495   3.07805   3.08799
 Alpha virt. eigenvalues --    3.11747   3.13221   3.16846   3.18377   3.21489
 Alpha virt. eigenvalues --    3.23478   3.24433   3.32665   3.36629   3.36690
 Alpha virt. eigenvalues --    3.42433   3.43861   3.45111   3.45821   3.48013
 Alpha virt. eigenvalues --    3.54124   3.57720   3.62026   3.62339   3.63752
 Alpha virt. eigenvalues --    3.67830   3.69044   3.77422   3.93270   4.01466
 Alpha virt. eigenvalues --    4.03153   4.10294   4.11755   4.17228   4.27369
 Alpha virt. eigenvalues --    4.38438   4.39767   4.52920   4.78206   4.84335
 Alpha virt. eigenvalues --    4.94259   5.02909   5.36946   5.45722   5.68674
 Alpha virt. eigenvalues --    6.96149   7.18378   7.54687   8.55270   8.60452
 Alpha virt. eigenvalues --    8.67988   8.68779   8.72172   8.72640   8.75725
 Alpha virt. eigenvalues --    8.75734   8.76514   8.77078   8.86532   8.87213
 Alpha virt. eigenvalues --    8.95232   8.96259   9.00990   9.23056   9.35659
 Alpha virt. eigenvalues --    9.52931   9.87909  10.80302  10.80662  11.03532
 Alpha virt. eigenvalues --   11.05631  11.59478  11.64391  11.67001  11.98246
 Alpha virt. eigenvalues --   12.00763  12.13276  12.21843  12.69247  13.84620
 Alpha virt. eigenvalues --   24.17250  24.53091  28.85043  28.93862  28.94766
 Alpha virt. eigenvalues --   28.97257  29.30961  29.67813  47.87404  83.88521
 Alpha virt. eigenvalues --   84.21490 250.92748 449.47978 450.07225
          Condensed to atoms (all electrons):
               1          2          3
     1  S   15.777099   0.412267  -0.082495
     2  S    0.412267  14.667688   0.400346
     3  O   -0.082495   0.400346   8.094978
 Mulliken charges:
               1
     1  S   -0.106871
     2  S    0.519700
     3  O   -0.412829
 Sum of Mulliken charges =  -0.00000
 Mulliken charges with hydrogens summed into heavy atoms:
               1
     1  S   -0.106871
     2  S    0.519700
     3  O   -0.412829
 Electronic spatial extent (au):  <R**2>=            270.4575
 Charge=             -0.0000 electrons
 Dipole moment (field-independent basis, Debye):
    X=             -1.6311    Y=              0.1426    Z=              0.0000  Tot=              1.6373
 Quadrupole moment (field-independent basis, Debye-Ang):
   XX=            -34.5445   YY=            -29.7317   ZZ=            -29.2172
   XY=             -0.8139   XZ=              0.0000   YZ=              0.0000
 Traceless Quadrupole moment (field-independent basis, Debye-Ang):
   XX=             -3.3800   YY=              1.4327   ZZ=              1.9473
   XY=             -0.8139   XZ=              0.0000   YZ=              0.0000
 Octapole moment (field-independent basis, Debye-Ang**2):
  XXX=              0.8292  YYY=              1.8920  ZZZ=             -0.0000  XYY=             -1.9770
  XXY=             -1.7828  XXZ=              0.0000  XZZ=              1.6858  YZZ=              1.8793
  YYZ=              0.0000  XYZ=              0.0000
 Hexadecapole moment (field-independent basis, Debye-Ang**3):
 XXXX=           -158.8615 YYYY=           -173.5595 ZZZZ=            -34.3454 XXXY=            -52.6205
 XXXZ=              0.0000 YYYX=            -44.7586 YYYZ=              0.0000 ZZZX=              0.0000
 ZZZY=              0.0000 XXYY=            -54.9768 XXZZ=            -30.5246 YYZZ=            -34.0518
 XXYZ=              0.0000 YYXZ=              0.0000 ZZXY=            -15.6771
 N-N= 1.415311130542D+02 E-N=-2.354209265437D+03  KE= 8.701538494970D+02
 PrsmSu:  requested number of processors reduced to:  21 ShMem   1 Linda.
 No NMR shielding tensors so no spin-rotation constants.
 Leave Link  601 at Sat Apr 17 20:50:00 2021, MaxMem=   104857600 cpu:             157.3 elap:               3.5
 (Enter /s/ls4/users/knvvv/bin/g16sse/l9999.exe)

 Test job not archived.
 1\1\GINC-N151\Stability\RM062X\Gen\O1S2\KNVVV\17-Apr-2021\0\\#P M062X/
 GEN Integral=UltraFineGrid SCF=NoSymm Stable=(RExt, Opt) IOp(1/33=1)\\
 Database calculations.\\0,1\S,0,0.,0.,0.\S,0,0.,0.,1.89147415\O,0,1.28
 95768128,0.,2.5758424981\\Version=ES64L-G16RevA.03\State=1-A'\HF=-871.
 6093381\RMSD=6.094e-09\Dipole=-0.6140186,0.,-0.1947903\Quadrupole=-1.5
 553866,1.4477678,0.1076189,0.,-1.6957728,0.\PG=CS [SG(O1S2)]\\@


 ERWIN WITH HIS PSI CAN DO
 CALCULATIONS QUITE A FEW.
 BUT ONE THING HAS NOT BEEN SEEN
 JUST WHAT DOES PSI REALLY MEAN.
 -- WALTER HUCKEL, TRANS. BY FELIX BLOCH
 Job cpu time:       0 days  3 hours  3 minutes 24.3 seconds.
 Elapsed time:       0 days  0 hours  4 minutes 47.7 seconds.
 File lengths (MBytes):  RWF=    220 Int=      0 D2E=      0 Chk=      8 Scr=      1
 Normal termination of Gaussian 16 at Sat Apr 17 20:50:00 2021.
