 Entering Gaussian System, Link 0=/s/ls4/users/knvvv/bin/g16sse/g16
 Input=data/database/M062X--def2-QZVP--SIE4x4_h2o2+_1_5.gjf
 Output=data/database/M062X--def2-QZVP--SIE4x4_h2o2+_1_5.log
 Initial command:
 /s/ls4/users/knvvv/bin/g16sse/l1.exe "/s/ls4/users/knvvv/bin/scratch/Gau-45217.inp" -scrdir="/s/ls4/users/knvvv/bin/scratch/"
 Entering Link 1 = /s/ls4/users/knvvv/bin/g16sse/l1.exe PID=     45218.
  
 Copyright (c) 1988,1990,1992,1993,1995,1998,2003,2009,2016,
            Gaussian, Inc.  All Rights Reserved.
  
 This is part of the Gaussian(R) 16 program.  It is based on
 the Gaussian(R) 09 system (copyright 2009, Gaussian, Inc.),
 the Gaussian(R) 03 system (copyright 2003, Gaussian, Inc.),
 the Gaussian(R) 98 system (copyright 1998, Gaussian, Inc.),
 the Gaussian(R) 94 system (copyright 1995, Gaussian, Inc.),
 the Gaussian 92(TM) system (copyright 1992, Gaussian, Inc.),
 the Gaussian 90(TM) system (copyright 1990, Gaussian, Inc.),
 the Gaussian 88(TM) system (copyright 1988, Gaussian, Inc.),
 the Gaussian 86(TM) system (copyright 1986, Carnegie Mellon
 University), and the Gaussian 82(TM) system (copyright 1983,
 Carnegie Mellon University). Gaussian is a federally registered
 trademark of Gaussian, Inc.
  
 This software contains proprietary and confidential information,
 including trade secrets, belonging to Gaussian, Inc.
  
 This software is provided under written license and may be
 used, copied, transmitted, or stored only in accord with that
 written license.
  
 The following legend is applicable only to US Government
 contracts under FAR:
  
                    RESTRICTED RIGHTS LEGEND
  
 Use, reproduction and disclosure by the US Government is
 subject to restrictions as set forth in subparagraphs (a)
 and (c) of the Commercial Computer Software - Restricted
 Rights clause in FAR 52.227-19.
  
 Gaussian, Inc.
 340 Quinnipiac St., Bldg. 40, Wallingford CT 06492
  
  
 ---------------------------------------------------------------
 Warning -- This program may not be used in any manner that
 competes with the business of Gaussian, Inc. or will provide
 assistance to any competitor of Gaussian, Inc.  The licensee
 of this program is prohibited from giving any competitor of
 Gaussian, Inc. access to this program.  By using this program,
 the user acknowledges that Gaussian, Inc. is engaged in the
 business of creating and licensing software in the field of
 computational chemistry and represents and warrants to the
 licensee that it is not a competitor of Gaussian, Inc. and that
 it will not use this program in any manner prohibited above.
 ---------------------------------------------------------------
  

 Cite this work as:
 Gaussian 16, Revision A.03,
 M. J. Frisch, G. W. Trucks, H. B. Schlegel, G. E. Scuseria, 
 M. A. Robb, J. R. Cheeseman, G. Scalmani, V. Barone, 
 G. A. Petersson, H. Nakatsuji, X. Li, M. Caricato, A. V. Marenich, 
 J. Bloino, B. G. Janesko, R. Gomperts, B. Mennucci, H. P. Hratchian, 
 J. V. Ortiz, A. F. Izmaylov, J. L. Sonnenberg, D. Williams-Young, 
 F. Ding, F. Lipparini, F. Egidi, J. Goings, B. Peng, A. Petrone, 
 T. Henderson, D. Ranasinghe, V. G. Zakrzewski, J. Gao, N. Rega, 
 G. Zheng, W. Liang, M. Hada, M. Ehara, K. Toyota, R. Fukuda, 
 J. Hasegawa, M. Ishida, T. Nakajima, Y. Honda, O. Kitao, H. Nakai, 
 T. Vreven, K. Throssell, J. A. Montgomery, Jr., J. E. Peralta, 
 F. Ogliaro, M. J. Bearpark, J. J. Heyd, E. N. Brothers, K. N. Kudin, 
 V. N. Staroverov, T. A. Keith, R. Kobayashi, J. Normand, 
 K. Raghavachari, A. P. Rendell, J. C. Burant, S. S. Iyengar, 
 J. Tomasi, M. Cossi, J. M. Millam, M. Klene, C. Adamo, R. Cammi, 
 J. W. Ochterski, R. L. Martin, K. Morokuma, O. Farkas, 
 J. B. Foresman, and D. J. Fox, Gaussian, Inc., Wallingford CT, 2016.
 
 ******************************************
 Gaussian 16:  ES64L-G16RevA.03 25-Dec-2016
                18-Apr-2021 
 ******************************************
 %RWF=temp23_33633,70GB
 %nprocshared=48
 Will use up to   48 processors via shared memory.
 Default route: MaxDisk=80GB
 ----------------------------------------------------------------------
 #P M062X/Def2QZVP Integral=UltraFineGrid SCF=NoSymm Stable=(RExt, Opt)
  IOp(1/33=1)
 ----------------------------------------------------------------------
 1/33=1,38=1,172=1/1;
 2/12=2,17=6,18=5,40=1/2;
 3/5=45,7=101,11=2,25=1,30=1,74=-55,75=-5/1,2,3;
 4/9=2/1;
 5/5=2,38=5/2;
 6/7=2,8=2,9=2,10=2,28=1/1;
 8/6=1,10=90,11=11/1;
 9/8=-3,42=1,46=1/14;
 5/5=2,8=3,17=40,38=5/8(-2);
 6/7=2,8=2,9=2,10=2,28=1/1;
 99/5=1,9=1/99;
 Leave Link    1 at Sun Apr 18 02:56:58 2021, MaxMem=           0 cpu:               8.3 elap:               0.2
 (Enter /s/ls4/users/knvvv/bin/g16sse/l101.exe)
 ONIOM data not found on unit 2.
 ----------------------
 Database calculations.
 ----------------------
 TstMul:  ICh=     1
 TstMul:  Mul=     2
 TstMul:  ICh=     1
 TstMul:  Mul=     2
 Symbolic Z-matrix:
 Charge =  1 Multiplicity = 2
 O                     1.51618   0.        0.06984 
 O                    -1.51618   0.       -0.06984 
 H                     1.64955   0.77514  -0.50952 
 H                     1.64955  -0.77514  -0.50952 
 H                    -1.64955   0.77514   0.50952 
 H                    -1.64955  -0.77514   0.50952 
 
 RdStrC is calling ZToCFu for IStruc=1 NZ=     6.
 PrtBox:  NBox=     1 Levels=  1 BoxLen=    8.00 SMaxX=        6.23
          Shift=            3.117201            1.464797            0.962855
 Box      1 Number                   0 centers from      1 to      6:
 After GenITR:
 ITRead=  0  0  0  0  0  0
 MicOpt= -1 -1 -1 -1 -1 -1
 ITRead=  0  0  0  0  0  0
 MicOpt= -1 -1 -1 -1 -1 -1
 NAtoms=      6 NQM=        6 NQMF=       0 NMMI=      0 NMMIF=      0
                NMic=       0 NMicF=      0.
                    Isotopes and Nuclear Properties:
 (Nuclear quadrupole moments (NQMom) in fm**2, nuclear magnetic moments (NMagM)
  in nuclear magnetons)

  Atom         1           2           3           4           5           6
 IAtWgt=          16          16           1           1           1           1
 AtmWgt=  15.9949146  15.9949146   1.0078250   1.0078250   1.0078250   1.0078250
 NucSpn=           0           0           1           1           1           1
 AtZEff=  -0.0000000  -0.0000000  -0.0000000  -0.0000000  -0.0000000  -0.0000000
 NQMom=    0.0000000   0.0000000   0.0000000   0.0000000   0.0000000   0.0000000
 NMagM=    0.0000000   0.0000000   2.7928460   2.7928460   2.7928460   2.7928460
 AtZNuc=   8.0000000   8.0000000   1.0000000   1.0000000   1.0000000   1.0000000
 No MM parameters found.
 Leave Link  101 at Sun Apr 18 02:56:58 2021, MaxMem=   104857600 cpu:               7.0 elap:               0.2
 (Enter /s/ls4/users/knvvv/bin/g16sse/l202.exe)
                          Input orientation:                          
 ---------------------------------------------------------------------
 Center     Atomic      Atomic             Coordinates (Angstroms)
 Number     Number       Type             X           Y           Z
 ---------------------------------------------------------------------
      1          8           0        1.516178    0.000000    0.069843
      2          8           0       -1.516178    0.000000   -0.069843
      3          1           0        1.649552    0.775137   -0.509521
      4          1           0        1.649552   -0.775137   -0.509521
      5          1           0       -1.649552    0.775137    0.509522
      6          1           0       -1.649552   -0.775137    0.509522
 ---------------------------------------------------------------------
                    Distance matrix (angstroms):
                    1          2          3          4          5
     1  O    0.000000
     2  O    3.035571   0.000000
     3  H    0.976877   3.288769   0.000000
     4  H    0.976877   3.288769   1.550274   0.000000
     5  H    3.288769   0.976877   3.452902   3.784955   0.000000
     6  H    3.288769   0.976877   3.784955   3.452902   1.550274
                    6
     6  H    0.000000
 Stoichiometry    H4O2(1+,2)
 Framework group  C2H[SGH(O2),X(H4)]
 Deg. of freedom     4
 Full point group                 C2H     NOp   4
 Largest Abelian subgroup         C2H     NOp   4
 Largest concise Abelian subgroup C2H     NOp   4
                         Standard orientation:                         
 ---------------------------------------------------------------------
 Center     Atomic      Atomic             Coordinates (Angstroms)
 Number     Number       Type             X           Y           Z
 ---------------------------------------------------------------------
      1          8           0        0.000000   -1.517786   -0.000000
      2          8           0       -0.000000    1.517786   -0.000000
      3          1           0        0.584887   -1.624358    0.775137
      4          1           0        0.584887   -1.624358   -0.775137
      5          1           0       -0.584887    1.624358    0.775137
      6          1           0       -0.584887    1.624358   -0.775137
 ---------------------------------------------------------------------
 Rotational constants (GHZ):         139.4235597           5.8963872           5.8136666
 Leave Link  202 at Sun Apr 18 02:56:59 2021, MaxMem=   104857600 cpu:               8.3 elap:               0.2
 (Enter /s/ls4/users/knvvv/bin/g16sse/l301.exe)
 Standard basis: def2QZVP (5D, 7F)
 Ernie: Thresh=  0.10000D-02 Tol=  0.10000D-05 Strict=F.
 There are    83 symmetry adapted cartesian basis functions of AG  symmetry.
 There are    59 symmetry adapted cartesian basis functions of BG  symmetry.
 There are    59 symmetry adapted cartesian basis functions of AU  symmetry.
 There are    83 symmetry adapted cartesian basis functions of BU  symmetry.
 There are    67 symmetry adapted basis functions of AG  symmetry.
 There are    50 symmetry adapted basis functions of BG  symmetry.
 There are    50 symmetry adapted basis functions of AU  symmetry.
 There are    67 symmetry adapted basis functions of BU  symmetry.
   234 basis functions,   336 primitive gaussians,   284 cartesian basis functions
    10 alpha electrons        9 beta electrons
       nuclear repulsion energy        34.9090864215 Hartrees.
 IExCor= 4336 DFT=T Ex+Corr=M062X ExCW=0 ScaHFX=  0.540000
 ScaDFX=  1.000000  1.000000  1.000000  1.000000 ScalE2=  1.000000  1.000000
 IRadAn=      5 IRanWt=     -1 IRanGd=            0 ICorTp=0 IEmpDi=  4
 NAtoms=    6 NActive=    6 NUniq=    2 SFac= 4.00D+00 NAtFMM=   60 NAOKFM=F Big=F
 Integral buffers will be    131072 words long.
 Raffenetti 2 integral format.
 Two-electron integral symmetry is turned on.
 Leave Link  301 at Sun Apr 18 02:56:59 2021, MaxMem=   104857600 cpu:               5.6 elap:               0.1
 (Enter /s/ls4/users/knvvv/bin/g16sse/l302.exe)
 NPDir=0 NMtPBC=     1 NCelOv=     1 NCel=       1 NClECP=     1 NCelD=      1
         NCelK=      1 NCelE2=     1 NClLst=     1 CellRange=     0.0.
 One-electron integrals computed using PRISM.
 One-electron integral symmetry used in STVInt
 PrsmSu:  requested number of processors reduced to:   4 ShMem   1 Linda.
 PrsmSu:  requested number of processors reduced to:  21 ShMem   1 Linda.
   4 Symmetry operations used in ECPInt.
 ECPInt:  NShTT=    2775 NPrTT=    6207 LenC2=    2710 LenP2D=    5223.
 LDataN:  DoStor=T MaxTD1= 8 Len=  415
 Number of processors reduced to  29 by ecpmxn.
 NBasis=   234 RedAO= T EigKep=  2.66D-04  NBF=    67    50    50    67
 NBsUse=   234 1.00D-06 EigRej= -1.00D+00 NBFU=    67    50    50    67
 Precomputing XC quadrature grid using
 IXCGrd= 4 IRadAn=           5 IRanWt=          -1 IRanGd=           0 AccXCQ= 0.00D+00.
 Generated NRdTot=       0 NPtTot=           0 NUsed=           0 NTot=          32
 NSgBfM=   281   281   281   281   281 MxSgAt=     6 MxSgA2=     6.
 Leave Link  302 at Sun Apr 18 02:57:13 2021, MaxMem=   104857600 cpu:             646.4 elap:              13.8
 (Enter /s/ls4/users/knvvv/bin/g16sse/l303.exe)
 DipDrv:  MaxL=1.
 Leave Link  303 at Sun Apr 18 02:57:13 2021, MaxMem=   104857600 cpu:              38.4 elap:               0.8
 (Enter /s/ls4/users/knvvv/bin/g16sse/l401.exe)
 SCF N**3 symmetry information disabled.
 ExpMin= 8.03D-02 ExpMax= 1.17D+05 ExpMxC= 1.13D+03 IAcc=3 IRadAn=         5 AccDes= 0.00D+00
 Harris functional with IExCor= 1009 and IRadAn=       5 diagonalized for initial guess.
 HarFok:  IExCor= 1009 AccDes= 0.00D+00 IRadAn=         5 IDoV= 1 UseB2=F ITyADJ=14
 ICtDFT=  3500011 ScaDFX=  1.000000  1.000000  1.000000  1.000000
 FoFCou: FMM=F IPFlag=           0 FMFlag=      100000 FMFlg1=           0
         NFxFlg=           0 DoJE=T BraDBF=F KetDBF=T FulRan=T
         wScrn=  0.000000 ICntrl=       500 IOpCl=  0 I1Cent=   200000004 NGrid=           0
         NMat0=    1 NMatS0=      1 NMatT0=    0 NMatD0=    1 NMtDS0=    0 NMtDT0=    0
 Petite list used in FoFCou.
 CoulSu:  requested number of processors reduced to:  21 ShMem   1 Linda.
 CoulSu:  requested number of processors reduced to:  21 ShMem   1 Linda.
 CoulSu:  requested number of processors reduced to:  21 ShMem   1 Linda.
 CoulSu:  requested number of processors reduced to:  21 ShMem   1 Linda.
 Harris En= -152.468370190282    
 JPrj=0 DoOrth=F DoCkMO=F.
 Initial guess orbital symmetries:
 Alpha Orbitals:
       Occupied  (BU) (AG) (AG) (BU) (AU) (BG) (BU) (AG) (AG) (BU)
       Virtual   (AG) (BU) (AU) (BG) (BU) (AG) (AU) (AG) (BG) (BU)
                 (AG) (BG) (AU) (BU) (BU) (AG) (AU) (AG) (BU) (BG)
                 (AG) (BG) (AU) (BU) (BU) (AG) (BG) (AU) (AU) (BU)
                 (BG) (AG) (BU) (AG) (BG) (AG) (AU) (BU) (BU) (AG)
                 (AU) (BG) (AG) (BU) (BU) (AG) (BU) (AG) (AG) (BG)
                 (AU) (BU) (AU) (BG) (BU) (BG) (AU) (AG) (AU) (BG)
                 (BU) (AU) (AG) (BG) (BU) (AG) (AU) (BG) (AG) (BG)
                 (AU) (BU) (AG) (BU) (AU) (BG) (BU) (AU) (BG) (AG)
                 (AG) (BU) (BU) (AG) (AU) (BG) (BU) (AG) (BU) (AG)
                 (AU) (AG) (BG) (BU) (AG) (BU) (AG) (BU) (AU) (BG)
                 (AU) (BG) (AG) (BU) (AU) (BG) (BU) (AG) (AU) (BG)
                 (AG) (BU) (BU) (AG) (AG) (BU) (AU) (BG) (AU) (BG)
                 (AU) (BG) (AG) (BU) (BG) (AU) (BU) (BG) (AG) (AU)
                 (AU) (BU) (AG) (BG) (BU) (AG) (BG) (AU) (BU) (AG)
                 (AU) (BG) (AG) (BU) (AG) (BU) (AG) (BU) (BG) (AG)
                 (AU) (BU) (BG) (AU) (AU) (BG) (AG) (BU) (BG) (AU)
                 (BU) (AG) (AU) (BG) (BU) (AU) (AG) (BG) (AG) (BU)
                 (AU) (BG) (BU) (AG) (AG) (BU) (AG) (BU) (AU) (BG)
                 (AU) (AG) (BG) (BU) (AU) (BG) (BG) (AU) (BU) (AG)
                 (AG) (BU) (AG) (BU) (BU) (AG) (AG) (BU) (AU) (BG)
                 (BG) (AU) (AG) (BU) (AU) (BG) (AU) (BG) (AG) (BU)
                 (AG) (BU) (AU) (BG) (BU) (AG) (AG) (BU) (BG) (AU)
                 (AG) (BU) (AG) (BU)
 Beta  Orbitals:
       Occupied  (BU) (AG) (AG) (BU) (AU) (BG) (BU) (AG) (AG)
       Virtual   (BU) (AG) (BU) (AU) (BG) (BU) (AG) (AU) (AG) (BG)
                 (BU) (AG) (BG) (AU) (BU) (BU) (AG) (AU) (AG) (BU)
                 (BG) (AG) (BG) (AU) (BU) (BU) (AG) (BG) (AU) (AU)
                 (BU) (BG) (AG) (BU) (AG) (BG) (AG) (AU) (BU) (BU)
                 (AG) (AU) (BG) (AG) (BU) (BU) (AG) (BU) (AG) (AG)
                 (BG) (AU) (BU) (AU) (BG) (BU) (BG) (AU) (AG) (AU)
                 (BG) (BU) (AU) (AG) (BG) (BU) (AG) (AU) (BG) (AG)
                 (BG) (AU) (BU) (AG) (BU) (AU) (BG) (BU) (AU) (BG)
                 (AG) (AG) (BU) (BU) (AG) (AU) (BG) (BU) (AG) (BU)
                 (AG) (AU) (AG) (BG) (BU) (AG) (BU) (AG) (BU) (AU)
                 (BG) (AU) (BG) (AG) (BU) (AU) (BG) (BU) (AG) (AU)
                 (BG) (AG) (BU) (BU) (AG) (AG) (BU) (AU) (BG) (AU)
                 (BG) (AU) (BG) (AG) (BU) (BG) (AU) (BU) (BG) (AG)
                 (AU) (AU) (BU) (AG) (BG) (BU) (AG) (BG) (AU) (BU)
                 (AG) (AU) (BG) (AG) (BU) (AG) (BU) (AG) (BU) (BG)
                 (AG) (AU) (BU) (BG) (AU) (AU) (BG) (AG) (BU) (BG)
                 (AU) (BU) (AG) (AU) (BG) (BU) (AU) (AG) (BG) (AG)
                 (BU) (AU) (BG) (BU) (AG) (AG) (BU) (AG) (BU) (AU)
                 (BG) (AU) (AG) (BG) (BU) (AU) (BG) (BG) (AU) (BU)
                 (AG) (AG) (BU) (AG) (BU) (BU) (AG) (AG) (BU) (AU)
                 (BG) (BG) (AU) (AG) (BU) (AU) (BG) (AU) (BG) (AG)
                 (BU) (AG) (BU) (AU) (BG) (BU) (AG) (AG) (BU) (BG)
                 (AU) (AG) (BU) (AG) (BU)
 The electronic state of the initial guess is 2-BU.
 Initial guess <Sx>= 0.0000 <Sy>= 0.0000 <Sz>= 0.5000 <S**2>= 0.7500 S= 0.5000
 Leave Link  401 at Sun Apr 18 02:57:14 2021, MaxMem=   104857600 cpu:              26.5 elap:               0.7
 (Enter /s/ls4/users/knvvv/bin/g16sse/l502.exe)
 Integral symmetry usage will be decided dynamically.
 UHF open shell SCF:
 Using DIIS extrapolation, IDIIS=  1040.
 NGot=   104857600 LenX=   104678534 LenY=   104597437
 Requested convergence on RMS density matrix=1.00D-08 within 128 cycles.
 Requested convergence on MAX density matrix=1.00D-06.
 Requested convergence on             energy=1.00D-06.
 No special actions if energy rises.
 Fock matrices will be formed incrementally for  20 cycles.
 Integral accuracy reduced to 1.0D-05 until final iterations.

 Cycle   1  Pass 0  IDiag  1:
 FoFJK:  IHMeth= 1 ICntrl=       0 DoSepK=F KAlg= 0 I1Cent=           0 FoldK=F
 IRaf= 950000000 NMat=       1 IRICut=       1 DoRegI=T DoRafI=F ISym2E= 1 IDoP0=0 IntGTp=1.
 FoFCou: FMM=F IPFlag=           0 FMFlag=      100000 FMFlg1=           0
         NFxFlg=           0 DoJE=F BraDBF=F KetDBF=F FulRan=T
         wScrn=  0.000000 ICntrl=         0 IOpCl=  1 I1Cent=           0 NGrid=           0
         NMat0=    1 NMatS0=      1 NMatT0=    0 NMatD0=    1 NMtDS0=    0 NMtDT0=    0
 Petite list used in FoFCou.
 CoulSu:  requested number of processors reduced to:  20 ShMem   1 Linda.
 E= -152.413597943701    
 DIIS: error= 4.32D-02 at cycle   1 NSaved=   1.
 NSaved= 1 IEnMin= 1 EnMin= -152.413597943701     IErMin= 1 ErrMin= 4.32D-02
 ErrMax= 4.32D-02  0.00D+00 EMaxC= 1.00D-01 BMatC= 4.50D-01 BMatP= 4.50D-01
 IDIUse=3 WtCom= 5.68D-01 WtEn= 4.32D-01
 Coeff-Com:  0.100D+01
 Coeff-En:   0.100D+01
 Coeff:      0.100D+01
 Gap=     0.504 Goal=   None    Shift=    0.000
 Gap=     0.127 Goal=   None    Shift=    0.000
 GapD=    0.127 DampG=1.000 DampE=0.500 DampFc=0.5000 IDamp=-1.
 Damping current iteration by 5.00D-01
 RMSDP=8.41D-04 MaxDP=3.78D-02              OVMax= 1.10D-01

 Cycle   2  Pass 0  IDiag  1:
 RMSU=  4.20D-04    CP:  9.96D-01
 CoulSu:  requested number of processors reduced to:  20 ShMem   1 Linda.
 E= -152.430085231988     Delta-E=       -0.016487288287 Rises=F Damp=T
 DIIS: error= 2.19D-02 at cycle   2 NSaved=   2.
 NSaved= 2 IEnMin= 2 EnMin= -152.430085231988     IErMin= 2 ErrMin= 2.19D-02
 ErrMax= 2.19D-02  0.00D+00 EMaxC= 1.00D-01 BMatC= 8.24D-02 BMatP= 4.50D-01
 IDIUse=3 WtCom= 7.81D-01 WtEn= 2.19D-01
 Coeff-Com: -0.336D+00 0.134D+01
 Coeff-En:   0.000D+00 0.100D+01
 Coeff:     -0.262D+00 0.126D+01
 Gap=     0.570 Goal=   None    Shift=    0.000
 Gap=     0.125 Goal=   None    Shift=    0.000
 RMSDP=4.50D-04 MaxDP=1.43D-02 DE=-1.65D-02 OVMax= 4.02D-02

 Cycle   3  Pass 0  IDiag  1:
 RMSU=  3.60D-04    CP:  1.01D+00  1.63D+00
 CoulSu:  requested number of processors reduced to:  20 ShMem   1 Linda.
 E= -152.445726542606     Delta-E=       -0.015641310618 Rises=F Damp=F
 DIIS: error= 6.24D-03 at cycle   3 NSaved=   3.
 NSaved= 3 IEnMin= 3 EnMin= -152.445726542606     IErMin= 3 ErrMin= 6.24D-03
 ErrMax= 6.24D-03  0.00D+00 EMaxC= 1.00D-01 BMatC= 1.24D-02 BMatP= 8.24D-02
 IDIUse=3 WtCom= 9.38D-01 WtEn= 6.24D-02
 Coeff-Com: -0.217D+00 0.435D+00 0.782D+00
 Coeff-En:   0.000D+00 0.000D+00 0.100D+01
 Coeff:     -0.204D+00 0.408D+00 0.795D+00
 Gap=     0.554 Goal=   None    Shift=    0.000
 Gap=     0.127 Goal=   None    Shift=    0.000
 RMSDP=9.18D-05 MaxDP=3.52D-03 DE=-1.56D-02 OVMax= 1.62D-02

 Cycle   4  Pass 0  IDiag  1:
 RMSU=  5.62D-05    CP:  1.00D+00  1.75D+00  8.65D-01
 CoulSu:  requested number of processors reduced to:  20 ShMem   1 Linda.
 E= -152.447686726069     Delta-E=       -0.001960183463 Rises=F Damp=F
 DIIS: error= 7.29D-04 at cycle   4 NSaved=   4.
 NSaved= 4 IEnMin= 4 EnMin= -152.447686726069     IErMin= 4 ErrMin= 7.29D-04
 ErrMax= 7.29D-04  0.00D+00 EMaxC= 1.00D-01 BMatC= 1.36D-04 BMatP= 1.24D-02
 IDIUse=3 WtCom= 9.93D-01 WtEn= 7.29D-03
 Coeff-Com:  0.195D-01-0.408D-01 0.248D-02 0.102D+01
 Coeff-En:   0.000D+00 0.000D+00 0.000D+00 0.100D+01
 Coeff:      0.194D-01-0.405D-01 0.246D-02 0.102D+01
 Gap=     0.556 Goal=   None    Shift=    0.000
 Gap=     0.127 Goal=   None    Shift=    0.000
 RMSDP=2.23D-05 MaxDP=9.63D-04 DE=-1.96D-03 OVMax= 2.46D-03

 Cycle   5  Pass 0  IDiag  1:
 RMSU=  1.17D-05    CP:  1.00D+00  1.75D+00  8.94D-01  1.28D+00
 CoulSu:  requested number of processors reduced to:  20 ShMem   1 Linda.
 E= -152.447726574614     Delta-E=       -0.000039848545 Rises=F Damp=F
 DIIS: error= 1.68D-04 at cycle   5 NSaved=   5.
 NSaved= 5 IEnMin= 5 EnMin= -152.447726574614     IErMin= 5 ErrMin= 1.68D-04
 ErrMax= 1.68D-04  0.00D+00 EMaxC= 1.00D-01 BMatC= 1.02D-05 BMatP= 1.36D-04
 IDIUse=3 WtCom= 9.98D-01 WtEn= 1.68D-03
 Coeff-Com:  0.239D-01-0.474D-01-0.892D-01-0.979D-01 0.121D+01
 Coeff-En:   0.000D+00 0.000D+00 0.000D+00 0.000D+00 0.100D+01
 Coeff:      0.238D-01-0.473D-01-0.890D-01-0.978D-01 0.121D+01
 Gap=     0.556 Goal=   None    Shift=    0.000
 Gap=     0.128 Goal=   None    Shift=    0.000
 RMSDP=1.20D-05 MaxDP=4.72D-04 DE=-3.98D-05 OVMax= 2.45D-03

 Cycle   6  Pass 0  IDiag  1:
 RMSU=  3.65D-06    CP:  1.00D+00  1.76D+00  9.02D-01  1.45D+00  1.44D+00
 CoulSu:  requested number of processors reduced to:  20 ShMem   1 Linda.
 E= -152.447733756295     Delta-E=       -0.000007181682 Rises=F Damp=F
 DIIS: error= 7.26D-05 at cycle   6 NSaved=   6.
 NSaved= 6 IEnMin= 6 EnMin= -152.447733756295     IErMin= 6 ErrMin= 7.26D-05
 ErrMax= 7.26D-05  0.00D+00 EMaxC= 1.00D-01 BMatC= 7.39D-07 BMatP= 1.02D-05
 IDIUse=1 WtCom= 1.00D+00 WtEn= 0.00D+00
 Coeff-Com: -0.678D-02 0.133D-01 0.228D-01-0.110D-01-0.340D+00 0.132D+01
 Coeff:     -0.678D-02 0.133D-01 0.228D-01-0.110D-01-0.340D+00 0.132D+01
 Gap=     0.556 Goal=   None    Shift=    0.000
 Gap=     0.128 Goal=   None    Shift=    0.000
 RMSDP=3.51D-06 MaxDP=1.39D-04 DE=-7.18D-06 OVMax= 1.46D-03

 Initial convergence to 1.0D-05 achieved.  Increase integral accuracy.
 Cycle   7  Pass 1  IDiag  1:
 CoulSu:  requested number of processors reduced to:  20 ShMem   1 Linda.
 E= -152.447745005699     Delta-E=       -0.000011249403 Rises=F Damp=F
 DIIS: error= 1.10D-04 at cycle   1 NSaved=   1.
 NSaved= 1 IEnMin= 1 EnMin= -152.447745005699     IErMin= 1 ErrMin= 1.10D-04
 ErrMax= 1.10D-04  0.00D+00 EMaxC= 1.00D-01 BMatC= 4.59D-06 BMatP= 4.59D-06
 IDIUse=3 WtCom= 9.99D-01 WtEn= 1.10D-03
 Coeff-Com:  0.100D+01
 Coeff-En:   0.100D+01
 Coeff:      0.100D+01
 Gap=     0.556 Goal=   None    Shift=    0.000
 DSYEVD-2 returned Info=       27964 IAlg= 4 N=   234 NDim=   234 NE2=      446996 trying  DSYEV.
 Gap=     0.128 Goal=   None    Shift=    0.000
 RMSDP=3.51D-06 MaxDP=1.39D-04 DE=-1.12D-05 OVMax= 5.62D-04

 Cycle   8  Pass 1  IDiag  1:
 RMSU=  1.81D-05    CP:  1.00D+00
 CoulSu:  requested number of processors reduced to:  20 ShMem   1 Linda.
 E= -152.447745679084     Delta-E=       -0.000000673385 Rises=F Damp=F
 DIIS: error= 2.81D-05 at cycle   2 NSaved=   2.
 NSaved= 2 IEnMin= 2 EnMin= -152.447745679084     IErMin= 2 ErrMin= 2.81D-05
 ErrMax= 2.81D-05  0.00D+00 EMaxC= 1.00D-01 BMatC= 1.09D-07 BMatP= 4.59D-06
 IDIUse=1 WtCom= 1.00D+00 WtEn= 0.00D+00
 Coeff-Com: -0.807D-01 0.108D+01
 Coeff:     -0.807D-01 0.108D+01
 Gap=     0.556 Goal=   None    Shift=    0.000
 Gap=     0.128 Goal=   None    Shift=    0.000
 RMSDP=2.99D-06 MaxDP=1.48D-04 DE=-6.73D-07 OVMax= 4.24D-04

 Cycle   9  Pass 1  IDiag  1:
 RMSU=  1.61D-06    CP:  1.00D+00  1.14D+00
 CoulSu:  requested number of processors reduced to:  20 ShMem   1 Linda.
 E= -152.447745786169     Delta-E=       -0.000000107085 Rises=F Damp=F
 DIIS: error= 1.92D-05 at cycle   3 NSaved=   3.
 NSaved= 3 IEnMin= 3 EnMin= -152.447745786169     IErMin= 3 ErrMin= 1.92D-05
 ErrMax= 1.92D-05  0.00D+00 EMaxC= 1.00D-01 BMatC= 3.53D-08 BMatP= 1.09D-07
 IDIUse=1 WtCom= 1.00D+00 WtEn= 0.00D+00
 Coeff-Com: -0.167D-01 0.877D-01 0.929D+00
 Coeff:     -0.167D-01 0.877D-01 0.929D+00
 Gap=     0.556 Goal=   None    Shift=    0.000
 Gap=     0.128 Goal=   None    Shift=    0.000
 RMSDP=6.41D-07 MaxDP=1.83D-05 DE=-1.07D-07 OVMax= 2.54D-04

 Cycle  10  Pass 1  IDiag  1:
 RMSU=  3.34D-07    CP:  1.00D+00  1.16D+00  1.28D+00
 CoulSu:  requested number of processors reduced to:  20 ShMem   1 Linda.
 E= -152.447745825423     Delta-E=       -0.000000039254 Rises=F Damp=F
 DIIS: error= 1.37D-05 at cycle   4 NSaved=   4.
 NSaved= 4 IEnMin= 4 EnMin= -152.447745825423     IErMin= 4 ErrMin= 1.37D-05
 ErrMax= 1.37D-05  0.00D+00 EMaxC= 1.00D-01 BMatC= 2.01D-08 BMatP= 3.53D-08
 IDIUse=1 WtCom= 1.00D+00 WtEn= 0.00D+00
 Coeff-Com:  0.406D-01-0.594D+00 0.369D+00 0.119D+01
 Coeff:      0.406D-01-0.594D+00 0.369D+00 0.119D+01
 Gap=     0.556 Goal=   None    Shift=    0.000
 Gap=     0.128 Goal=   None    Shift=    0.000
 RMSDP=8.30D-07 MaxDP=2.84D-05 DE=-3.93D-08 OVMax= 3.76D-04

 Cycle  11  Pass 1  IDiag  1:
 RMSU=  2.68D-07    CP:  1.00D+00  1.17D+00  1.68D+00  2.22D+00
 CoulSu:  requested number of processors reduced to:  20 ShMem   1 Linda.
 E= -152.447745859617     Delta-E=       -0.000000034194 Rises=F Damp=F
 DIIS: error= 5.77D-06 at cycle   5 NSaved=   5.
 NSaved= 5 IEnMin= 5 EnMin= -152.447745859617     IErMin= 5 ErrMin= 5.77D-06
 ErrMax= 5.77D-06  0.00D+00 EMaxC= 1.00D-01 BMatC= 2.62D-09 BMatP= 2.01D-08
 IDIUse=1 WtCom= 1.00D+00 WtEn= 0.00D+00
 Coeff-Com:  0.172D-02 0.295D-01-0.278D+00-0.173D+00 0.142D+01
 Coeff:      0.172D-02 0.295D-01-0.278D+00-0.173D+00 0.142D+01
 Gap=     0.556 Goal=   None    Shift=    0.000
 Gap=     0.128 Goal=   None    Shift=    0.000
 RMSDP=4.42D-07 MaxDP=1.62D-05 DE=-3.42D-08 OVMax= 2.23D-04

 Cycle  12  Pass 1  IDiag  1:
 RMSU=  6.75D-08    CP:  1.00D+00  1.16D+00  1.83D+00  3.00D+00  1.62D+00
 CoulSu:  requested number of processors reduced to:  20 ShMem   1 Linda.
 E= -152.447745866168     Delta-E=       -0.000000006551 Rises=F Damp=F
 DIIS: error= 8.85D-07 at cycle   6 NSaved=   6.
 NSaved= 6 IEnMin= 6 EnMin= -152.447745866168     IErMin= 6 ErrMin= 8.85D-07
 ErrMax= 8.85D-07  0.00D+00 EMaxC= 1.00D-01 BMatC= 1.22D-10 BMatP= 2.62D-09
 IDIUse=1 WtCom= 1.00D+00 WtEn= 0.00D+00
 Coeff-Com: -0.346D-02 0.551D-01-0.474D-01-0.114D+00 0.106D+00 0.100D+01
 Coeff:     -0.346D-02 0.551D-01-0.474D-01-0.114D+00 0.106D+00 0.100D+01
 Gap=     0.556 Goal=   None    Shift=    0.000
 Gap=     0.128 Goal=   None    Shift=    0.000
 RMSDP=6.96D-08 MaxDP=2.29D-06 DE=-6.55D-09 OVMax= 2.69D-05

 Cycle  13  Pass 1  IDiag  1:
 RMSU=  2.43D-08    CP:  1.00D+00  1.16D+00  1.83D+00  3.00D+00  1.73D+00
                    CP:  1.67D+00
 CoulSu:  requested number of processors reduced to:  20 ShMem   1 Linda.
 E= -152.447745866335     Delta-E=       -0.000000000167 Rises=F Damp=F
 DIIS: error= 2.85D-07 at cycle   7 NSaved=   7.
 NSaved= 7 IEnMin= 7 EnMin= -152.447745866335     IErMin= 7 ErrMin= 2.85D-07
 ErrMax= 2.85D-07  0.00D+00 EMaxC= 1.00D-01 BMatC= 1.77D-11 BMatP= 1.22D-10
 IDIUse=1 WtCom= 1.00D+00 WtEn= 0.00D+00
 Coeff-Com:  0.667D-03-0.168D-01 0.376D-01 0.416D-01-0.177D+00-0.234D+00
 Coeff-Com:  0.135D+01
 Coeff:      0.667D-03-0.168D-01 0.376D-01 0.416D-01-0.177D+00-0.234D+00
 Coeff:      0.135D+01
 Gap=     0.556 Goal=   None    Shift=    0.000
 Gap=     0.128 Goal=   None    Shift=    0.000
 RMSDP=2.37D-08 MaxDP=8.58D-07 DE=-1.67D-10 OVMax= 1.22D-05

 Cycle  14  Pass 1  IDiag  1:
 RMSU=  4.66D-09    CP:  1.00D+00  1.16D+00  1.83D+00  3.00D+00  1.77D+00
                    CP:  1.93D+00  1.28D+00
 CoulSu:  requested number of processors reduced to:  20 ShMem   1 Linda.
 E= -152.447745866356     Delta-E=       -0.000000000021 Rises=F Damp=F
 DIIS: error= 5.02D-08 at cycle   8 NSaved=   8.
 NSaved= 8 IEnMin= 8 EnMin= -152.447745866356     IErMin= 8 ErrMin= 5.02D-08
 ErrMax= 5.02D-08  0.00D+00 EMaxC= 1.00D-01 BMatC= 6.71D-13 BMatP= 1.77D-11
 IDIUse=1 WtCom= 1.00D+00 WtEn= 0.00D+00
 Coeff-Com:  0.121D-03-0.100D-02-0.214D-02-0.272D-03 0.247D-01-0.272D-01
 Coeff-Com: -0.202D+00 0.121D+01
 Coeff:      0.121D-03-0.100D-02-0.214D-02-0.272D-03 0.247D-01-0.272D-01
 Coeff:     -0.202D+00 0.121D+01
 Gap=     0.556 Goal=   None    Shift=    0.000
 Gap=     0.128 Goal=   None    Shift=    0.000
 RMSDP=3.72D-09 MaxDP=1.74D-07 DE=-2.10D-11 OVMax= 2.93D-07

 SCF Done:  E(UM062X) =  -152.447745866     A.U. after   14 cycles
            NFock= 14  Conv=0.37D-08     -V/T= 2.0035
 <Sx>= 0.0000 <Sy>= 0.0000 <Sz>= 0.5000 <S**2>= 0.7619 S= 0.5059
 <L.S>= 0.000000000000E+00
 KE= 1.519218179624D+02 PE=-4.249523778431D+02 EE= 8.567372759282D+01
 Annihilation of the first spin contaminant:
 S**2 before annihilation     0.7619,   after     0.7500
 Leave Link  502 at Sun Apr 18 02:57:47 2021, MaxMem=   104857600 cpu:            1344.0 elap:              32.8
 (Enter /s/ls4/users/knvvv/bin/g16sse/l601.exe)
 Copying SCF densities to generalized density rwf, IOpCl= 1 IROHF=0.

 **********************************************************************

            Population analysis using the SCF density.

 **********************************************************************

 Orbital symmetries:
 Alpha Orbitals:
       Occupied  (BU) (AG) (AG) (BU) (AU) (BG) (AG) (BU) (AG) (BU)
       Virtual   (AG) (BU) (AU) (BG) (BU) (AG) (AU) (BG) (BU) (AG)
                 (AG) (BG) (AU) (BU) (BU) (AG) (AU) (AG) (BU) (BG)
                 (AG) (BG) (AU) (BU) (BU) (AG) (BG) (AU) (AU) (BG)
                 (BU) (AG) (BU) (AG) (BG) (AG) (AU) (BU) (AG) (BU)
                 (AG) (AU) (BG) (BU) (BU) (AG) (BU) (AG) (AG) (BG)
                 (AU) (BU) (AU) (BG) (BU) (BG) (AU) (AG) (AU) (BG)
                 (BU) (AU) (AG) (BG) (BU) (AG) (AU) (BG) (AG) (BG)
                 (AU) (BU) (AG) (BU) (AU) (BG) (AU) (BG) (BU) (AG)
                 (AG) (BU) (BU) (AG) (AU) (BG) (BU) (AG) (BU) (AG)
                 (AU) (BG) (AG) (BU) (AG) (BU) (AG) (BU) (AU) (BG)
                 (AU) (BG) (AG) (AU) (BG) (BU) (BU) (AG) (AU) (BG)
                 (AG) (BU) (BU) (AG) (AG) (BU) (AU) (BG) (AU) (BG)
                 (AU) (BG) (AG) (BU) (BG) (AU) (BU) (AG) (BG) (AU)
                 (AU) (BU) (AG) (BG) (BU) (AG) (BG) (AU) (BU) (AG)
                 (AU) (BG) (BU) (AG) (BU) (AG) (AG) (BU) (AG) (BG)
                 (AU) (BG) (BU) (AU) (AU) (BG) (AG) (BU) (BG) (AU)
                 (BU) (AG) (AU) (BG) (AU) (BG) (BU) (AG) (AG) (BU)
                 (AU) (BG) (BU) (AG) (AG) (BU) (AG) (BU) (AU) (BG)
                 (AU) (BG) (AG) (BU) (AU) (BG) (BG) (AU) (BU) (AG)
                 (AG) (BU) (AG) (BU) (BU) (AG) (AG) (BU) (AU) (BG)
                 (BG) (AU) (AG) (BU) (AU) (BG) (AU) (BG) (AG) (BU)
                 (AG) (BU) (AU) (BG) (AG) (BU) (AG) (BU) (BG) (AU)
                 (AG) (BU) (AG) (BU)
 Beta  Orbitals:
       Occupied  (AG) (BU) (AG) (BU) (AU) (BG) (BU) (AG) (AG)
       Virtual   (BU) (AG) (BU) (AU) (BG) (BU) (AU) (AG) (BG) (BU)
                 (AG) (AG) (AU) (BG) (BU) (BU) (AG) (AU) (AG) (BU)
                 (BG) (AG) (BG) (AU) (BU) (BU) (AG) (BG) (AU) (AU)
                 (BG) (BU) (AG) (BU) (AG) (BG) (AU) (AG) (BU) (AG)
                 (BU) (AG) (AU) (BG) (BU) (BU) (AG) (BU) (AG) (AG)
                 (AU) (BG) (BU) (AU) (BG) (BU) (BG) (AU) (AG) (AU)
                 (BG) (BU) (AU) (AG) (BG) (BU) (AG) (AU) (BG) (AG)
                 (BG) (AU) (BU) (AG) (BU) (AU) (BG) (AU) (BG) (BU)
                 (AG) (AG) (BU) (BU) (AG) (AU) (BU) (BG) (AG) (BU)
                 (AG) (AU) (BG) (AG) (BU) (AG) (BU) (AG) (BU) (AU)
                 (BG) (AU) (BG) (AG) (AU) (BG) (BU) (BU) (AU) (BG)
                 (AG) (AG) (BU) (BU) (AG) (AG) (BU) (AU) (BG) (AU)
                 (BG) (AU) (BG) (AG) (BU) (BG) (AU) (BU) (AG) (BG)
                 (AU) (AU) (BU) (AG) (BG) (BU) (AG) (BG) (AU) (BU)
                 (AG) (AU) (BG) (BU) (AG) (BU) (AG) (AG) (BU) (AG)
                 (AU) (BG) (BG) (BU) (AU) (AU) (BG) (AG) (BU) (BG)
                 (AU) (BU) (AG) (AU) (BG) (AU) (BG) (BU) (AG) (AG)
                 (BU) (AU) (BG) (BU) (AG) (AG) (BU) (AG) (BU) (AU)
                 (BG) (AU) (BG) (AG) (BU) (AU) (BG) (BG) (AU) (BU)
                 (AG) (AG) (BU) (AG) (BU) (AG) (BU) (AG) (BU) (BG)
                 (AU) (AU) (BG) (AG) (BU) (AU) (BG) (AU) (BG) (AG)
                 (BU) (AG) (BU) (AU) (BG) (AG) (BU) (AG) (BU) (BG)
                 (AU) (AG) (BU) (AG) (BU)
 The electronic state is 2-BU.
 Alpha  occ. eigenvalues --  -19.97610 -19.97610  -1.45873  -1.45620  -0.91086
 Alpha  occ. eigenvalues --   -0.90853  -0.78791  -0.78654  -0.75949  -0.74190
 Alpha virt. eigenvalues --   -0.18593  -0.15089  -0.11692  -0.09194   0.01199
 Alpha virt. eigenvalues --    0.04754   0.05576   0.08269   0.09775   0.09867
 Alpha virt. eigenvalues --    0.11704   0.18859   0.19179   0.21105   0.25543
 Alpha virt. eigenvalues --    0.26762   0.30506   0.32233   0.33759   0.34977
 Alpha virt. eigenvalues --    0.44551   0.56968   0.58153   0.64339   0.68688
 Alpha virt. eigenvalues --    0.70935   0.72270   0.74400   0.77005   0.79451
 Alpha virt. eigenvalues --    0.79997   0.82532   0.98638   1.03151   1.04227
 Alpha virt. eigenvalues --    1.06032   1.06280   1.12064   1.13424   1.13486
 Alpha virt. eigenvalues --    1.16259   1.17943   1.18582   1.18758   1.60558
 Alpha virt. eigenvalues --    1.61226   1.63428   1.66140   1.72330   1.72989
 Alpha virt. eigenvalues --    1.73223   1.77582   1.80903   1.86010   1.98461
 Alpha virt. eigenvalues --    1.99117   2.00744   2.03111   2.05810   2.06094
 Alpha virt. eigenvalues --    2.06475   2.10734   2.16120   2.16521   2.24600
 Alpha virt. eigenvalues --    2.25636   2.27167   2.31477   2.34832   2.36442
 Alpha virt. eigenvalues --    2.38569   2.43963   2.57745   2.59712   2.65226
 Alpha virt. eigenvalues --    2.70346   2.80957   2.82503   2.83429   2.86747
 Alpha virt. eigenvalues --    2.88333   3.03338   3.35726   3.36991   3.48906
 Alpha virt. eigenvalues --    3.52137   3.52233   3.53597   3.54534   3.58820
 Alpha virt. eigenvalues --    3.70658   3.72538   3.75654   3.79381   3.86739
 Alpha virt. eigenvalues --    3.89285   3.93029   3.97965   4.07388   4.10105
 Alpha virt. eigenvalues --    4.23369   4.24300   4.41780   4.43496   4.44172
 Alpha virt. eigenvalues --    4.44977   4.86252   4.94147   4.95807   4.96335
 Alpha virt. eigenvalues --    4.99828   5.01305   5.36291   5.36689   5.49894
 Alpha virt. eigenvalues --    5.50701   5.59245   5.59350   5.65610   5.65951
 Alpha virt. eigenvalues --    5.95492   5.95796   6.13366   6.13618   6.31574
 Alpha virt. eigenvalues --    6.31718   6.64355   6.65082   6.65954   6.66545
 Alpha virt. eigenvalues --    6.72392   6.73961   6.74055   6.77176   6.83352
 Alpha virt. eigenvalues --    6.85207   6.87723   6.88598   6.91310   6.94404
 Alpha virt. eigenvalues --    6.98536   7.01648   7.05394   7.06022   7.26629
 Alpha virt. eigenvalues --    7.27552   7.37088   7.39643   7.40836   7.43380
 Alpha virt. eigenvalues --    7.43401   7.46288   7.46419   7.48458   7.55184
 Alpha virt. eigenvalues --    7.55514   7.68095   7.69755   7.83123   7.83997
 Alpha virt. eigenvalues --    7.97493   7.99246   8.01985   8.06087   8.19156
 Alpha virt. eigenvalues --    8.20557   8.21761   8.23474   8.46494   8.46798
 Alpha virt. eigenvalues --    8.49605   8.54750   9.28967   9.29824   9.33796
 Alpha virt. eigenvalues --    9.34057   9.70964   9.73480   9.77235   9.79010
 Alpha virt. eigenvalues --   10.15785  10.17172  10.17955  10.20337  10.37247
 Alpha virt. eigenvalues --   10.39022  10.47189  10.47317  10.59623  10.64759
 Alpha virt. eigenvalues --   10.81244  10.81298  10.90429  10.91174  11.13266
 Alpha virt. eigenvalues --   11.13808  11.16579  11.18349  11.29928  11.30595
 Alpha virt. eigenvalues --   11.33210  11.33846  11.65910  11.73370  12.15699
 Alpha virt. eigenvalues --   12.16582  12.81907  12.82069  12.97650  12.98501
 Alpha virt. eigenvalues --   12.98982  13.01560  13.40057  13.40110  13.83223
 Alpha virt. eigenvalues --   13.83228  15.84495  15.87450  15.91761  15.94084
 Alpha virt. eigenvalues --   47.82819  47.84271 250.90088 250.90919
  Beta  occ. eigenvalues --  -19.96466 -19.96464  -1.41993  -1.41528  -0.89450
  Beta  occ. eigenvalues --   -0.89184  -0.76455  -0.76356  -0.60355
  Beta virt. eigenvalues --   -0.47578  -0.17498  -0.14408  -0.10878  -0.08665
  Beta virt. eigenvalues --    0.02692   0.06335   0.06898   0.08621   0.10475
  Beta virt. eigenvalues --    0.10637   0.12619   0.19624   0.19700   0.21890
  Beta virt. eigenvalues --    0.26074   0.27153   0.30950   0.32446   0.34301
  Beta virt. eigenvalues --    0.35757   0.45116   0.57731   0.58818   0.64925
  Beta virt. eigenvalues --    0.69490   0.71483   0.73229   0.74594   0.77797
  Beta virt. eigenvalues --    0.80190   0.81296   0.83502   0.99834   1.04352
  Beta virt. eigenvalues --    1.05341   1.07794   1.08002   1.12999   1.14677
  Beta virt. eigenvalues --    1.15385   1.18836   1.19168   1.19425   1.22061
  Beta virt. eigenvalues --    1.60922   1.61535   1.63743   1.66309   1.72584
  Beta virt. eigenvalues --    1.73538   1.73648   1.77830   1.81363   1.86389
  Beta virt. eigenvalues --    1.98943   1.99551   2.01158   2.03758   2.06506
  Beta virt. eigenvalues --    2.06555   2.07086   2.10712   2.16754   2.16890
  Beta virt. eigenvalues --    2.25530   2.26748   2.27527   2.32004   2.35417
  Beta virt. eigenvalues --    2.36821   2.39266   2.44527   2.58057   2.59990
  Beta virt. eigenvalues --    2.65760   2.71101   2.81740   2.83161   2.84184
  Beta virt. eigenvalues --    2.87445   2.90287   3.05144   3.36637   3.37746
  Beta virt. eigenvalues --    3.50489   3.53255   3.53668   3.54132   3.55035
  Beta virt. eigenvalues --    3.59661   3.70860   3.72868   3.77619   3.80934
  Beta virt. eigenvalues --    3.89458   3.89955   3.92066   3.97981   4.08456
  Beta virt. eigenvalues --    4.11100   4.24735   4.25551   4.43482   4.44160
  Beta virt. eigenvalues --    4.44853   4.46815   4.90146   4.96995   4.97447
  Beta virt. eigenvalues --    4.97560   5.01150   5.02129   5.36439   5.36826
  Beta virt. eigenvalues --    5.50349   5.51152   5.59263   5.59370   5.65632
  Beta virt. eigenvalues --    5.65980   5.96183   5.96482   6.14071   6.14334
  Beta virt. eigenvalues --    6.32218   6.32333   6.65041   6.65802   6.66699
  Beta virt. eigenvalues --    6.67263   6.73922   6.74255   6.74397   6.78778
  Beta virt. eigenvalues --    6.84613   6.86244   6.88516   6.89487   6.92648
  Beta virt. eigenvalues --    6.95815   6.98876   7.02034   7.06427   7.07234
  Beta virt. eigenvalues --    7.26869   7.27899   7.38978   7.40500   7.41448
  Beta virt. eigenvalues --    7.43872   7.44035   7.48039   7.48134   7.50387
  Beta virt. eigenvalues --    7.55291   7.55639   7.69249   7.70855   7.84142
  Beta virt. eigenvalues --    7.85014   7.99390   8.01183   8.04223   8.08313
  Beta virt. eigenvalues --    8.20529   8.21837   8.24287   8.26041   8.49214
  Beta virt. eigenvalues --    8.49515   8.50937   8.56157   9.33449   9.34281
  Beta virt. eigenvalues --    9.36046   9.36266   9.75158   9.77699   9.80884
  Beta virt. eigenvalues --    9.82609  10.19236  10.20635  10.22120  10.24001
  Beta virt. eigenvalues --   10.40562  10.42360  10.55567  10.55730  10.64928
  Beta virt. eigenvalues --   10.70051  10.87565  10.87666  10.97372  10.98193
  Beta virt. eigenvalues --   11.22285  11.23496  11.24064  11.24226  11.34040
  Beta virt. eigenvalues --   11.34546  11.36964  11.37556  11.67271  11.74774
  Beta virt. eigenvalues --   12.16176  12.17094  12.82189  12.82379  13.06359
  Beta virt. eigenvalues --   13.07536  13.09159  13.11330  13.48051  13.48077
  Beta virt. eigenvalues --   13.90682  13.90775  15.84971  15.87884  15.94537
  Beta virt. eigenvalues --   15.96786  47.88140  47.89563 250.88319 250.89144
          Condensed to atoms (all electrons):
               1          2          3          4          5          6
     1  O    7.701078   0.032019   0.288978   0.288978  -0.000190  -0.000190
     2  O    0.032019   7.701078  -0.000190  -0.000190   0.288978   0.288978
     3  H    0.288978  -0.000190   0.315560  -0.009597  -0.000009  -0.000078
     4  H    0.288978  -0.000190  -0.009597   0.315560  -0.000078  -0.000009
     5  H   -0.000190   0.288978  -0.000009  -0.000078   0.315560  -0.009597
     6  H   -0.000190   0.288978  -0.000078  -0.000009  -0.009597   0.315560
          Atomic-Atomic Spin Densities.
               1          2          3          4          5          6
     1  O    0.529102  -0.030979   0.010817   0.010817   0.000230   0.000230
     2  O   -0.030979   0.529102   0.000230   0.000230   0.010817   0.010817
     3  H    0.010817   0.000230  -0.021218   0.000016   0.000030   0.000017
     4  H    0.010817   0.000230   0.000016  -0.021218   0.000017   0.000030
     5  H    0.000230   0.010817   0.000030   0.000017  -0.021218   0.000016
     6  H    0.000230   0.010817   0.000017   0.000030   0.000016  -0.021218
 Mulliken charges and spin densities:
               1          2
     1  O   -0.310673   0.520216
     2  O   -0.310673   0.520216
     3  H    0.405336  -0.010108
     4  H    0.405336  -0.010108
     5  H    0.405336  -0.010108
     6  H    0.405336  -0.010108
 Sum of Mulliken charges =   1.00000   1.00000
 Mulliken charges and spin densities with hydrogens summed into heavy atoms:
               1          2
     1  O    0.500000   0.500000
     2  O    0.500000   0.500000
 Electronic spatial extent (au):  <R**2>=            192.4216
 Charge=              1.0000 electrons
 Dipole moment (field-independent basis, Debye):
    X=              0.0000    Y=              0.0000    Z=              0.0000  Tot=              0.0000
 Quadrupole moment (field-independent basis, Debye-Ang):
   XX=             -9.4891   YY=              2.6118   ZZ=             -6.0860
   XY=             -7.8802   XZ=              0.0000   YZ=              0.0000
 Traceless Quadrupole moment (field-independent basis, Debye-Ang):
   XX=             -5.1680   YY=              6.9329   ZZ=             -1.7649
   XY=             -7.8802   XZ=              0.0000   YZ=              0.0000
 Octapole moment (field-independent basis, Debye-Ang**2):
  XXX=             -0.0000  YYY=             -0.0000  ZZZ=             -0.0000  XYY=              0.0000
  XXY=             -0.0000  XXZ=              0.0000  XZZ=             -0.0000  YZZ=             -0.0000
  YYZ=              0.0000  XYZ=              0.0000
 Hexadecapole moment (field-independent basis, Debye-Ang**3):
 XXXX=            -10.9981 YYYY=           -135.8130 ZZZZ=             -8.4578 XXXY=              1.3399
 XXXZ=              0.0000 YYYX=            -16.7091 YYYZ=             -0.0000 ZZZX=              0.0000
 ZZZY=             -0.0000 XXYY=            -24.3148 XXZZ=             -1.7947 YYZZ=            -15.6068
 XXYZ=             -0.0000 YYXZ=              0.0000 ZZXY=             -4.4841
 N-N= 3.490908642147D+01 E-N=-4.249523771362D+02  KE= 1.519218179624D+02
                          Isotropic Fermi Contact Couplings
        Atom                 a.u.       MegaHertz       Gauss      10(-4) cm-1
     1  O(17)              0.07526     -45.62498     -16.28013     -15.21885
     2  O(17)              0.07526     -45.62498     -16.28013     -15.21885
     3  H(1)              -0.00988     -44.17134     -15.76143     -14.73397
     4  H(1)              -0.00988     -44.17134     -15.76143     -14.73397
     5  H(1)              -0.00988     -44.17134     -15.76143     -14.73397
     6  H(1)              -0.00988     -44.17134     -15.76143     -14.73397
 PrsmSu:  requested number of processors reduced to:  21 ShMem   1 Linda.
 --------------------------------------------------------
       Center         ----  Spin Dipole Couplings  ----
                      3XX-RR        3YY-RR        3ZZ-RR
 --------------------------------------------------------
     1   Atom       -1.100206      2.243021     -1.142815
     2   Atom       -1.100206      2.243021     -1.142815
     3   Atom       -0.013516     -0.023288      0.036805
     4   Atom       -0.013516     -0.023288      0.036805
     5   Atom       -0.013516     -0.023288      0.036805
     6   Atom       -0.013516     -0.023288      0.036805
 --------------------------------------------------------
                        XY            XZ            YZ
 --------------------------------------------------------
     1   Atom        0.441085      0.000000     -0.000000
     2   Atom        0.441085     -0.000000      0.000000
     3   Atom       -0.005801      0.080611     -0.015171
     4   Atom       -0.005801     -0.080611      0.015171
     5   Atom       -0.005801     -0.080611      0.015171
     6   Atom       -0.005801      0.080611     -0.015171
 --------------------------------------------------------


 ---------------------------------------------------------------------------------
              Anisotropic Spin Dipole Couplings in Principal Axis System
 ---------------------------------------------------------------------------------

       Atom             a.u.   MegaHertz   Gauss  10(-4) cm-1        Axes

              Baa    -1.1574    83.750    29.884    27.936  0.9917 -0.1286  0.0000
     1 O(17)  Bbb    -1.1428    82.693    29.507    27.584  0.0000  0.0000  1.0000
              Bcc     2.3002  -166.443   -59.391   -55.520  0.1286  0.9917 -0.0000
 
              Baa    -1.1574    83.750    29.884    27.936  0.9917 -0.1286 -0.0000
     2 O(17)  Bbb    -1.1428    82.693    29.507    27.584  0.0000  0.0000  1.0000
              Bcc     2.3002  -166.443   -59.391   -55.520  0.1286  0.9917  0.0000
 
              Baa    -0.0732   -39.049   -13.934   -13.025  0.7975 -0.0887 -0.5967
     3 H(1)   Bbb    -0.0249   -13.299    -4.745    -4.436  0.1474  0.9878  0.0502
              Bcc     0.0981    52.348    18.679    17.461  0.5850 -0.1280  0.8009
 
              Baa    -0.0732   -39.049   -13.934   -13.025  0.7975 -0.0887  0.5967
     4 H(1)   Bbb    -0.0249   -13.299    -4.745    -4.436  0.1474  0.9878 -0.0502
              Bcc     0.0981    52.348    18.679    17.461 -0.5850  0.1280  0.8009
 
              Baa    -0.0732   -39.049   -13.934   -13.025  0.7975 -0.0887  0.5967
     5 H(1)   Bbb    -0.0249   -13.299    -4.745    -4.436  0.1474  0.9878 -0.0502
              Bcc     0.0981    52.348    18.679    17.461 -0.5850  0.1280  0.8009
 
              Baa    -0.0732   -39.049   -13.934   -13.025  0.7975 -0.0887 -0.5967
     6 H(1)   Bbb    -0.0249   -13.299    -4.745    -4.436  0.1474  0.9878  0.0502
              Bcc     0.0981    52.348    18.679    17.461  0.5850 -0.1280  0.8009
 

 ---------------------------------------------------------------------------------

 PrsmSu:  requested number of processors reduced to:  21 ShMem   1 Linda.
 No NMR shielding tensors so no spin-rotation constants.
 Leave Link  601 at Sun Apr 18 02:57:55 2021, MaxMem=   104857600 cpu:             367.8 elap:               8.0
 (Enter /s/ls4/users/knvvv/bin/g16sse/l801.exe)
 DoSCS=F DFT=T ScalE2(SS,OS)=  1.000000  1.000000
 Range of M.O.s used for correlation:     1   234
 NBasis=   234 NAE=    10 NBE=     9 NFC=     0 NFV=     0
 NROrb=    234 NOA=    10 NOB=     9 NVA=   224 NVB=   225

 **** Warning!!: The largest alpha MO coefficient is  0.14881118D+02


 **** Warning!!: The largest beta MO coefficient is  0.14598136D+02

 Leave Link  801 at Sun Apr 18 02:57:55 2021, MaxMem=   104857600 cpu:               4.1 elap:               0.1
 (Enter /s/ls4/users/knvvv/bin/g16sse/l914.exe)
 UHF ground state
 Doing stability rather than CIS.
 Two-electron integrals replicated using symmetry.
 MDV=   104857600 DFT=T DoStab=T Mixed=T DoRPA=F DoScal=F NonHer=F
 Making orbital integer symmetry assigments:
 Orbital symmetries:
 Alpha Orbitals:
       Occupied  (BU) (AG) (AG) (BU) (AU) (BG) (AG) (BU) (AG) (BU)
       Virtual   (AG) (BU) (AU) (BG) (BU) (AG) (AU) (BG) (BU) (AG)
                 (AG) (BG) (AU) (BU) (BU) (AG) (AU) (AG) (BU) (BG)
                 (AG) (BG) (AU) (BU) (BU) (AG) (BG) (AU) (AU) (BG)
                 (BU) (AG) (BU) (AG) (BG) (AG) (AU) (BU) (AG) (BU)
                 (AG) (AU) (BG) (BU) (BU) (AG) (BU) (AG) (AG) (BG)
                 (AU) (BU) (AU) (BG) (BU) (BG) (AU) (AG) (AU) (BG)
                 (BU) (AU) (AG) (BG) (BU) (AG) (AU) (BG) (AG) (BG)
                 (AU) (BU) (AG) (BU) (AU) (BG) (AU) (BG) (BU) (AG)
                 (AG) (BU) (BU) (AG) (AU) (BG) (BU) (AG) (BU) (AG)
                 (AU) (BG) (AG) (BU) (AG) (BU) (AG) (BU) (AU) (BG)
                 (AU) (BG) (AG) (AU) (BG) (BU) (BU) (AG) (AU) (BG)
                 (AG) (BU) (BU) (AG) (AG) (BU) (AU) (BG) (AU) (BG)
                 (AU) (BG) (AG) (BU) (BG) (AU) (BU) (AG) (BG) (AU)
                 (AU) (BU) (AG) (BG) (BU) (AG) (BG) (AU) (BU) (AG)
                 (AU) (BG) (BU) (AG) (BU) (AG) (AG) (BU) (AG) (BG)
                 (AU) (BG) (BU) (AU) (AU) (BG) (AG) (BU) (BG) (AU)
                 (BU) (AG) (AU) (BG) (AU) (BG) (BU) (AG) (AG) (BU)
                 (AU) (BG) (BU) (AG) (AG) (BU) (AG) (BU) (AU) (BG)
                 (AU) (BG) (AG) (BU) (AU) (BG) (BG) (AU) (BU) (AG)
                 (AG) (BU) (AG) (BU) (BU) (AG) (AG) (BU) (AU) (BG)
                 (BG) (AU) (AG) (BU) (AU) (BG) (AU) (BG) (AG) (BU)
                 (AG) (BU) (AU) (BG) (AG) (BU) (AG) (BU) (BG) (AU)
                 (AG) (BU) (AG) (BU)
 Beta  Orbitals:
       Occupied  (AG) (BU) (AG) (BU) (AU) (BG) (BU) (AG) (AG)
       Virtual   (BU) (AG) (BU) (AU) (BG) (BU) (AU) (AG) (BG) (BU)
                 (AG) (AG) (AU) (BG) (BU) (BU) (AG) (AU) (AG) (BU)
                 (BG) (AG) (BG) (AU) (BU) (BU) (AG) (BG) (AU) (AU)
                 (BG) (BU) (AG) (BU) (AG) (BG) (AU) (AG) (BU) (AG)
                 (BU) (AG) (AU) (BG) (BU) (BU) (AG) (BU) (AG) (AG)
                 (AU) (BG) (BU) (AU) (BG) (BU) (BG) (AU) (AG) (AU)
                 (BG) (BU) (AU) (AG) (BG) (BU) (AG) (AU) (BG) (AG)
                 (BG) (AU) (BU) (AG) (BU) (AU) (BG) (AU) (BG) (BU)
                 (AG) (AG) (BU) (BU) (AG) (AU) (BU) (BG) (AG) (BU)
                 (AG) (AU) (BG) (AG) (BU) (AG) (BU) (AG) (BU) (AU)
                 (BG) (AU) (BG) (AG) (AU) (BG) (BU) (BU) (AU) (BG)
                 (AG) (AG) (BU) (BU) (AG) (AG) (BU) (AU) (BG) (AU)
                 (BG) (AU) (BG) (AG) (BU) (BG) (AU) (BU) (AG) (BG)
                 (AU) (AU) (BU) (AG) (BG) (BU) (AG) (BG) (AU) (BU)
                 (AG) (AU) (BG) (BU) (AG) (BU) (AG) (AG) (BU) (AG)
                 (AU) (BG) (BG) (BU) (AU) (AU) (BG) (AG) (BU) (BG)
                 (AU) (BU) (AG) (AU) (BG) (AU) (BG) (BU) (AG) (AG)
                 (BU) (AU) (BG) (BU) (AG) (AG) (BU) (AG) (BU) (AU)
                 (BG) (AU) (BG) (AG) (BU) (AU) (BG) (BG) (AU) (BU)
                 (AG) (AG) (BU) (AG) (BU) (AG) (BU) (AG) (BU) (BG)
                 (AU) (AU) (BG) (AG) (BU) (AU) (BG) (AU) (BG) (AG)
                 (BU) (AG) (BU) (AU) (BG) (AG) (BU) (AG) (BU) (BG)
                 (AU) (AG) (BU) (AG) (BU)
    12 initial guesses have been made.
 Convergence on wavefunction:    0.001000000000000
 Davidson Disk Diagonalization:  ConvIn= 1.00D-03 SkipCon=T Conv= 1.00D-03.
 Max sub-space:  2000 roots to seek:    12 dimension of matrix:         4265
 Iteration     1 Dimension    12 NMult     0 NNew     12
 Estimated number of processors is:   19
 CISAX will form     1 AO SS matrices at one time.
 NMat=     1 NSing=     1 JSym2X= 2.
 FoFJK:  IHMeth= 1 ICntrl=       0 DoSepK=F KAlg= 0 I1Cent=           0 FoldK=F
 IRaf= 950000000 NMat=       1 IRICut=       1 DoRegI=T DoRafI=F ISym2E= 2 IDoP0=0 IntGTp=1.
 FoFCou: FMM=F IPFlag=           0 FMFlag=      100000 FMFlg1=           0
         NFxFlg=           0 DoJE=F BraDBF=F KetDBF=F FulRan=T
         wScrn=  0.000000 ICntrl=         0 IOpCl=  1 I1Cent=           0 NGrid=           0
         NMat0=    1 NMatS0=      1 NMatT0=    0 NMatD0=    1 NMtDS0=    0 NMtDT0=    0
 Integrals replicated using symmetry in FoFCou.
 CoulSu:  requested number of processors reduced to:  15 ShMem   1 Linda.
 NMat=     1 NSing=     1 JSym2X= 2.
 CoulSu:  requested number of processors reduced to:  15 ShMem   1 Linda.
 NMat=     1 NSing=     1 JSym2X= 2.
 CoulSu:  requested number of processors reduced to:  15 ShMem   1 Linda.
 NMat=     1 NSing=     1 JSym2X= 2.
 CoulSu:  requested number of processors reduced to:  15 ShMem   1 Linda.
 NMat=     1 NSing=     1 JSym2X= 2.
 CoulSu:  requested number of processors reduced to:  15 ShMem   1 Linda.
 NMat=     1 NSing=     1 JSym2X= 2.
 CoulSu:  requested number of processors reduced to:  15 ShMem   1 Linda.
 NMat=     1 NSing=     1 JSym2X= 2.
 CoulSu:  requested number of processors reduced to:  15 ShMem   1 Linda.
 NMat=     1 NSing=     1 JSym2X= 2.
 CoulSu:  requested number of processors reduced to:  15 ShMem   1 Linda.
 NMat=     1 NSing=     1 JSym2X= 2.
 CoulSu:  requested number of processors reduced to:  15 ShMem   1 Linda.
 NMat=     1 NSing=     1 JSym2X= 2.
 CoulSu:  requested number of processors reduced to:  15 ShMem   1 Linda.
 NMat=     1 NSing=     1 JSym2X= 2.
 CoulSu:  requested number of processors reduced to:  15 ShMem   1 Linda.
 NMat=     1 NSing=     1 JSym2X= 2.
 CoulSu:  requested number of processors reduced to:  15 ShMem   1 Linda.
 New state      1 was old state      2
 Excitation Energies [eV] at current iteration:
 Root      1 :     2.744203639222380
 Root      2 :     2.827454802042972
 Root      3 :     6.363296701572652
 Root      4 :     6.447360307130285
 Root      5 :     7.801003806738175
 Root      6 :     8.727747904610199
 Root      7 :     9.671668053592828
 Root      8 :    10.779638584539360
 Root      9 :    11.177889957433450
 Root     10 :    12.045550085192260
 Root     11 :    12.566661985916890
 Root     12 :    12.940717674534350
 Iteration     2 Dimension    24 NMult    12 NNew     12
 Estimated number of processors is:   19
 CISAX will form     1 AO SS matrices at one time.
 NMat=     1 NSing=     1 JSym2X= 2.
 CoulSu:  requested number of processors reduced to:  15 ShMem   1 Linda.
 NMat=     1 NSing=     1 JSym2X= 2.
 CoulSu:  requested number of processors reduced to:  15 ShMem   1 Linda.
 NMat=     1 NSing=     1 JSym2X= 2.
 CoulSu:  requested number of processors reduced to:  15 ShMem   1 Linda.
 NMat=     1 NSing=     1 JSym2X= 2.
 CoulSu:  requested number of processors reduced to:  15 ShMem   1 Linda.
 NMat=     1 NSing=     1 JSym2X= 2.
 CoulSu:  requested number of processors reduced to:  15 ShMem   1 Linda.
 NMat=     1 NSing=     1 JSym2X= 2.
 CoulSu:  requested number of processors reduced to:  15 ShMem   1 Linda.
 NMat=     1 NSing=     1 JSym2X= 2.
 CoulSu:  requested number of processors reduced to:  15 ShMem   1 Linda.
 NMat=     1 NSing=     1 JSym2X= 2.
 CoulSu:  requested number of processors reduced to:  15 ShMem   1 Linda.
 NMat=     1 NSing=     1 JSym2X= 2.
 CoulSu:  requested number of processors reduced to:  15 ShMem   1 Linda.
 NMat=     1 NSing=     1 JSym2X= 2.
 CoulSu:  requested number of processors reduced to:  15 ShMem   1 Linda.
 NMat=     1 NSing=     1 JSym2X= 2.
 CoulSu:  requested number of processors reduced to:  15 ShMem   1 Linda.
 NMat=     1 NSing=     1 JSym2X= 2.
 CoulSu:  requested number of processors reduced to:  15 ShMem   1 Linda.
 Root      1 not converged, maximum delta is    0.350959186209397
 Excitation Energies [eV] at current iteration:
 Root      1 :     2.364683775990431   Change is   -0.379519863231949
 Root      2 :     2.540411653505920   Change is   -0.287043148537052
 Root      3 :     2.934188543661776   Change is   -4.866815263076399
 Root      4 :     6.124115063560842   Change is   -0.239181638011810
 Root      5 :     6.219993560302977   Change is   -0.227366746827308
 Root      6 :     8.489371958022220   Change is   -0.238375946587980
 Root      7 :     9.319348445052603   Change is   -0.352319608540225
 Root      8 :    10.603413553776360   Change is   -0.176225030762995
 Root      9 :    10.973946809012350   Change is   -0.203943148421096
 Root     10 :    11.049356913156600   Change is   -0.996193172035668
 Root     11 :    11.250606681510160   Change is   -1.316055304406733
 Root     12 :    12.273881671343990   Change is   -0.666836003190360
 Iteration     3 Dimension    27 NMult    24 NNew      3
 Estimated number of processors is:   19
 CISAX will form     1 AO SS matrices at one time.
 NMat=     1 NSing=     1 JSym2X= 2.
 CoulSu:  requested number of processors reduced to:  15 ShMem   1 Linda.
 NMat=     1 NSing=     1 JSym2X= 2.
 CoulSu:  requested number of processors reduced to:  15 ShMem   1 Linda.
 NMat=     1 NSing=     1 JSym2X= 2.
 CoulSu:  requested number of processors reduced to:  15 ShMem   1 Linda.
 Root      1 not converged, maximum delta is    0.161591633640753
 Excitation Energies [eV] at current iteration:
 Root      1 :     2.289121145417334   Change is   -0.075562630573097
 Root      2 :     2.516651296110087   Change is   -0.023760357395834
 Root      3 :     2.728098470849659   Change is   -0.206090072812117
 Iteration     4 Dimension    30 NMult    27 NNew      3
 Estimated number of processors is:   19
 CISAX will form     1 AO SS matrices at one time.
 NMat=     1 NSing=     1 JSym2X= 2.
 CoulSu:  requested number of processors reduced to:  15 ShMem   1 Linda.
 NMat=     1 NSing=     1 JSym2X= 2.
 CoulSu:  requested number of processors reduced to:  15 ShMem   1 Linda.
 NMat=     1 NSing=     1 JSym2X= 2.
 CoulSu:  requested number of processors reduced to:  15 ShMem   1 Linda.
 Root      1 not converged, maximum delta is    0.011617304918138
 Excitation Energies [eV] at current iteration:
 Root      1 :     2.283362489577917   Change is   -0.005758655839417
 Root      2 :     2.515731856741847   Change is   -0.000919439368240
 Root      3 :     2.717048535778517   Change is   -0.011049935071142
 Iteration     5 Dimension    33 NMult    30 NNew      3
 Estimated number of processors is:   19
 CISAX will form     1 AO SS matrices at one time.
 NMat=     1 NSing=     1 JSym2X= 2.
 CoulSu:  requested number of processors reduced to:  15 ShMem   1 Linda.
 NMat=     1 NSing=     1 JSym2X= 2.
 CoulSu:  requested number of processors reduced to:  15 ShMem   1 Linda.
 NMat=     1 NSing=     1 JSym2X= 2.
 CoulSu:  requested number of processors reduced to:  15 ShMem   1 Linda.
 Root      1 not converged, maximum delta is    0.001251845258424
 Excitation Energies [eV] at current iteration:
 Root      1 :     2.282779590647575   Change is   -0.000582898930341
 Root      2 :     2.515701073321778   Change is   -0.000030783420069
 Root      3 :     2.715963897785556   Change is   -0.001084637992961
 Iteration     6 Dimension    36 NMult    33 NNew      3
 Estimated number of processors is:   19
 CISAX will form     1 AO SS matrices at one time.
 NMat=     1 NSing=     1 JSym2X= 2.
 CoulSu:  requested number of processors reduced to:  15 ShMem   1 Linda.
 NMat=     1 NSing=     1 JSym2X= 2.
 CoulSu:  requested number of processors reduced to:  15 ShMem   1 Linda.
 NMat=     1 NSing=     1 JSym2X= 2.
 CoulSu:  requested number of processors reduced to:  15 ShMem   1 Linda.
 Root      1 has converged.
 Excitation Energies [eV] at current iteration:
 Root      1 :     2.282729234536060   Change is   -0.000050356111516
 Root      2 :     2.515699606224558   Change is   -0.000001467097220
 Root      3 :     2.715869991828497   Change is   -0.000093905957059
 Convergence achieved on expansion vectors.
 ***********************************************************************
 Stability analysis using <AA,BB:AA,BB> singles matrix:
 ***********************************************************************
 1PDM for each excited state written to RWF  633
 Ground to excited state transition densities written to RWF  633

 Eigenvectors of the stability matrix:
 
 Eigenvector   1:  2.022-BU   Eigenvalue= 0.0838888  <S**2>=0.772
      8B -> 10B        0.74229
      9B -> 10B        0.62633
 The wavefunction is stable under the perturbations considered.
 Leave Link  914 at Sun Apr 18 03:00:59 2021, MaxMem=   104857600 cpu:            7148.7 elap:             184.0
 (Enter /s/ls4/users/knvvv/bin/g16sse/l508.exe)
 The wavefunction is already stable.
 Leave Link  508 at Sun Apr 18 03:00:59 2021, MaxMem=   104857600 cpu:               2.2 elap:               0.1
 (Enter /s/ls4/users/knvvv/bin/g16sse/l601.exe)
 Copying SCF densities to generalized density rwf, IOpCl= 1 IROHF=0.

 **********************************************************************

            Population analysis using the SCF density.

 **********************************************************************

 Orbital symmetries:
 Alpha Orbitals:
       Occupied  (BU) (AG) (AG) (BU) (AU) (BG) (AG) (BU) (AG) (BU)
       Virtual   (AG) (BU) (AU) (BG) (BU) (AG) (AU) (BG) (BU) (AG)
                 (AG) (BG) (AU) (BU) (BU) (AG) (AU) (AG) (BU) (BG)
                 (AG) (BG) (AU) (BU) (BU) (AG) (BG) (AU) (AU) (BG)
                 (BU) (AG) (BU) (AG) (BG) (AG) (AU) (BU) (AG) (BU)
                 (AG) (AU) (BG) (BU) (BU) (AG) (BU) (AG) (AG) (BG)
                 (AU) (BU) (AU) (BG) (BU) (BG) (AU) (AG) (AU) (BG)
                 (BU) (AU) (AG) (BG) (BU) (AG) (AU) (BG) (AG) (BG)
                 (AU) (BU) (AG) (BU) (AU) (BG) (AU) (BG) (BU) (AG)
                 (AG) (BU) (BU) (AG) (AU) (BG) (BU) (AG) (BU) (AG)
                 (AU) (BG) (AG) (BU) (AG) (BU) (AG) (BU) (AU) (BG)
                 (AU) (BG) (AG) (AU) (BG) (BU) (BU) (AG) (AU) (BG)
                 (AG) (BU) (BU) (AG) (AG) (BU) (AU) (BG) (AU) (BG)
                 (AU) (BG) (AG) (BU) (BG) (AU) (BU) (AG) (BG) (AU)
                 (AU) (BU) (AG) (BG) (BU) (AG) (BG) (AU) (BU) (AG)
                 (AU) (BG) (BU) (AG) (BU) (AG) (AG) (BU) (AG) (BG)
                 (AU) (BG) (BU) (AU) (AU) (BG) (AG) (BU) (BG) (AU)
                 (BU) (AG) (AU) (BG) (AU) (BG) (BU) (AG) (AG) (BU)
                 (AU) (BG) (BU) (AG) (AG) (BU) (AG) (BU) (AU) (BG)
                 (AU) (BG) (AG) (BU) (AU) (BG) (BG) (AU) (BU) (AG)
                 (AG) (BU) (AG) (BU) (BU) (AG) (AG) (BU) (AU) (BG)
                 (BG) (AU) (AG) (BU) (AU) (BG) (AU) (BG) (AG) (BU)
                 (AG) (BU) (AU) (BG) (AG) (BU) (AG) (BU) (BG) (AU)
                 (AG) (BU) (AG) (BU)
 Beta  Orbitals:
       Occupied  (AG) (BU) (AG) (BU) (AU) (BG) (BU) (AG) (AG)
       Virtual   (BU) (AG) (BU) (AU) (BG) (BU) (AU) (AG) (BG) (BU)
                 (AG) (AG) (AU) (BG) (BU) (BU) (AG) (AU) (AG) (BU)
                 (BG) (AG) (BG) (AU) (BU) (BU) (AG) (BG) (AU) (AU)
                 (BG) (BU) (AG) (BU) (AG) (BG) (AU) (AG) (BU) (AG)
                 (BU) (AG) (AU) (BG) (BU) (BU) (AG) (BU) (AG) (AG)
                 (AU) (BG) (BU) (AU) (BG) (BU) (BG) (AU) (AG) (AU)
                 (BG) (BU) (AU) (AG) (BG) (BU) (AG) (AU) (BG) (AG)
                 (BG) (AU) (BU) (AG) (BU) (AU) (BG) (AU) (BG) (BU)
                 (AG) (AG) (BU) (BU) (AG) (AU) (BU) (BG) (AG) (BU)
                 (AG) (AU) (BG) (AG) (BU) (AG) (BU) (AG) (BU) (AU)
                 (BG) (AU) (BG) (AG) (AU) (BG) (BU) (BU) (AU) (BG)
                 (AG) (AG) (BU) (BU) (AG) (AG) (BU) (AU) (BG) (AU)
                 (BG) (AU) (BG) (AG) (BU) (BG) (AU) (BU) (AG) (BG)
                 (AU) (AU) (BU) (AG) (BG) (BU) (AG) (BG) (AU) (BU)
                 (AG) (AU) (BG) (BU) (AG) (BU) (AG) (AG) (BU) (AG)
                 (AU) (BG) (BG) (BU) (AU) (AU) (BG) (AG) (BU) (BG)
                 (AU) (BU) (AG) (AU) (BG) (AU) (BG) (BU) (AG) (AG)
                 (BU) (AU) (BG) (BU) (AG) (AG) (BU) (AG) (BU) (AU)
                 (BG) (AU) (BG) (AG) (BU) (AU) (BG) (BG) (AU) (BU)
                 (AG) (AG) (BU) (AG) (BU) (AG) (BU) (AG) (BU) (BG)
                 (AU) (AU) (BG) (AG) (BU) (AU) (BG) (AU) (BG) (AG)
                 (BU) (AG) (BU) (AU) (BG) (AG) (BU) (AG) (BU) (BG)
                 (AU) (AG) (BU) (AG) (BU)
 The electronic state is 2-BU.
 Alpha  occ. eigenvalues --  -19.97610 -19.97610  -1.45873  -1.45620  -0.91086
 Alpha  occ. eigenvalues --   -0.90853  -0.78791  -0.78654  -0.75949  -0.74190
 Alpha virt. eigenvalues --   -0.18593  -0.15089  -0.11692  -0.09194   0.01199
 Alpha virt. eigenvalues --    0.04754   0.05576   0.08269   0.09775   0.09867
 Alpha virt. eigenvalues --    0.11704   0.18859   0.19179   0.21105   0.25543
 Alpha virt. eigenvalues --    0.26762   0.30506   0.32233   0.33759   0.34977
 Alpha virt. eigenvalues --    0.44551   0.56968   0.58153   0.64339   0.68688
 Alpha virt. eigenvalues --    0.70935   0.72270   0.74400   0.77005   0.79451
 Alpha virt. eigenvalues --    0.79997   0.82532   0.98638   1.03151   1.04227
 Alpha virt. eigenvalues --    1.06032   1.06280   1.12064   1.13424   1.13486
 Alpha virt. eigenvalues --    1.16259   1.17943   1.18582   1.18758   1.60558
 Alpha virt. eigenvalues --    1.61226   1.63428   1.66140   1.72330   1.72989
 Alpha virt. eigenvalues --    1.73223   1.77582   1.80903   1.86010   1.98461
 Alpha virt. eigenvalues --    1.99117   2.00744   2.03111   2.05810   2.06094
 Alpha virt. eigenvalues --    2.06475   2.10734   2.16120   2.16521   2.24600
 Alpha virt. eigenvalues --    2.25636   2.27167   2.31477   2.34832   2.36442
 Alpha virt. eigenvalues --    2.38569   2.43963   2.57745   2.59712   2.65226
 Alpha virt. eigenvalues --    2.70346   2.80957   2.82503   2.83429   2.86747
 Alpha virt. eigenvalues --    2.88333   3.03338   3.35726   3.36991   3.48906
 Alpha virt. eigenvalues --    3.52137   3.52233   3.53597   3.54534   3.58820
 Alpha virt. eigenvalues --    3.70658   3.72538   3.75654   3.79381   3.86739
 Alpha virt. eigenvalues --    3.89285   3.93029   3.97965   4.07388   4.10105
 Alpha virt. eigenvalues --    4.23369   4.24300   4.41780   4.43496   4.44172
 Alpha virt. eigenvalues --    4.44977   4.86252   4.94147   4.95807   4.96335
 Alpha virt. eigenvalues --    4.99828   5.01305   5.36291   5.36689   5.49894
 Alpha virt. eigenvalues --    5.50701   5.59245   5.59350   5.65610   5.65951
 Alpha virt. eigenvalues --    5.95492   5.95796   6.13366   6.13618   6.31574
 Alpha virt. eigenvalues --    6.31718   6.64355   6.65082   6.65954   6.66545
 Alpha virt. eigenvalues --    6.72392   6.73961   6.74055   6.77176   6.83352
 Alpha virt. eigenvalues --    6.85207   6.87723   6.88598   6.91310   6.94404
 Alpha virt. eigenvalues --    6.98536   7.01648   7.05394   7.06022   7.26629
 Alpha virt. eigenvalues --    7.27552   7.37088   7.39643   7.40836   7.43380
 Alpha virt. eigenvalues --    7.43401   7.46288   7.46419   7.48458   7.55184
 Alpha virt. eigenvalues --    7.55514   7.68095   7.69755   7.83123   7.83997
 Alpha virt. eigenvalues --    7.97493   7.99246   8.01985   8.06087   8.19156
 Alpha virt. eigenvalues --    8.20557   8.21761   8.23474   8.46494   8.46798
 Alpha virt. eigenvalues --    8.49605   8.54750   9.28967   9.29824   9.33796
 Alpha virt. eigenvalues --    9.34057   9.70964   9.73480   9.77235   9.79010
 Alpha virt. eigenvalues --   10.15785  10.17172  10.17955  10.20337  10.37247
 Alpha virt. eigenvalues --   10.39022  10.47189  10.47317  10.59623  10.64759
 Alpha virt. eigenvalues --   10.81244  10.81298  10.90429  10.91174  11.13266
 Alpha virt. eigenvalues --   11.13808  11.16579  11.18349  11.29928  11.30595
 Alpha virt. eigenvalues --   11.33210  11.33846  11.65910  11.73370  12.15699
 Alpha virt. eigenvalues --   12.16582  12.81907  12.82069  12.97650  12.98501
 Alpha virt. eigenvalues --   12.98982  13.01560  13.40057  13.40110  13.83223
 Alpha virt. eigenvalues --   13.83228  15.84495  15.87450  15.91761  15.94084
 Alpha virt. eigenvalues --   47.82819  47.84271 250.90088 250.90919
  Beta  occ. eigenvalues --  -19.96466 -19.96464  -1.41993  -1.41528  -0.89450
  Beta  occ. eigenvalues --   -0.89184  -0.76455  -0.76356  -0.60355
  Beta virt. eigenvalues --   -0.47578  -0.17498  -0.14408  -0.10878  -0.08665
  Beta virt. eigenvalues --    0.02692   0.06335   0.06898   0.08621   0.10475
  Beta virt. eigenvalues --    0.10637   0.12619   0.19624   0.19700   0.21890
  Beta virt. eigenvalues --    0.26074   0.27153   0.30950   0.32446   0.34301
  Beta virt. eigenvalues --    0.35757   0.45116   0.57731   0.58818   0.64925
  Beta virt. eigenvalues --    0.69490   0.71483   0.73229   0.74594   0.77797
  Beta virt. eigenvalues --    0.80190   0.81296   0.83502   0.99834   1.04352
  Beta virt. eigenvalues --    1.05341   1.07794   1.08002   1.12999   1.14677
  Beta virt. eigenvalues --    1.15385   1.18836   1.19168   1.19425   1.22061
  Beta virt. eigenvalues --    1.60922   1.61535   1.63743   1.66309   1.72584
  Beta virt. eigenvalues --    1.73538   1.73648   1.77830   1.81363   1.86389
  Beta virt. eigenvalues --    1.98943   1.99551   2.01158   2.03758   2.06506
  Beta virt. eigenvalues --    2.06555   2.07086   2.10712   2.16754   2.16890
  Beta virt. eigenvalues --    2.25530   2.26748   2.27527   2.32004   2.35417
  Beta virt. eigenvalues --    2.36821   2.39266   2.44527   2.58057   2.59990
  Beta virt. eigenvalues --    2.65760   2.71101   2.81740   2.83161   2.84184
  Beta virt. eigenvalues --    2.87445   2.90287   3.05144   3.36637   3.37746
  Beta virt. eigenvalues --    3.50489   3.53255   3.53668   3.54132   3.55035
  Beta virt. eigenvalues --    3.59661   3.70860   3.72868   3.77619   3.80934
  Beta virt. eigenvalues --    3.89458   3.89955   3.92066   3.97981   4.08456
  Beta virt. eigenvalues --    4.11100   4.24735   4.25551   4.43482   4.44160
  Beta virt. eigenvalues --    4.44853   4.46815   4.90146   4.96995   4.97447
  Beta virt. eigenvalues --    4.97560   5.01150   5.02129   5.36439   5.36826
  Beta virt. eigenvalues --    5.50349   5.51152   5.59263   5.59370   5.65632
  Beta virt. eigenvalues --    5.65980   5.96183   5.96482   6.14071   6.14334
  Beta virt. eigenvalues --    6.32218   6.32333   6.65041   6.65802   6.66699
  Beta virt. eigenvalues --    6.67263   6.73922   6.74255   6.74397   6.78778
  Beta virt. eigenvalues --    6.84613   6.86244   6.88516   6.89487   6.92648
  Beta virt. eigenvalues --    6.95815   6.98876   7.02034   7.06427   7.07234
  Beta virt. eigenvalues --    7.26869   7.27899   7.38978   7.40500   7.41448
  Beta virt. eigenvalues --    7.43872   7.44035   7.48039   7.48134   7.50387
  Beta virt. eigenvalues --    7.55291   7.55639   7.69249   7.70855   7.84142
  Beta virt. eigenvalues --    7.85014   7.99390   8.01183   8.04223   8.08313
  Beta virt. eigenvalues --    8.20529   8.21837   8.24287   8.26041   8.49214
  Beta virt. eigenvalues --    8.49515   8.50937   8.56157   9.33449   9.34281
  Beta virt. eigenvalues --    9.36046   9.36266   9.75158   9.77699   9.80884
  Beta virt. eigenvalues --    9.82609  10.19236  10.20635  10.22120  10.24001
  Beta virt. eigenvalues --   10.40562  10.42360  10.55567  10.55730  10.64928
  Beta virt. eigenvalues --   10.70051  10.87565  10.87666  10.97372  10.98193
  Beta virt. eigenvalues --   11.22285  11.23496  11.24064  11.24226  11.34040
  Beta virt. eigenvalues --   11.34546  11.36964  11.37556  11.67271  11.74774
  Beta virt. eigenvalues --   12.16176  12.17094  12.82189  12.82379  13.06359
  Beta virt. eigenvalues --   13.07536  13.09159  13.11330  13.48051  13.48077
  Beta virt. eigenvalues --   13.90682  13.90775  15.84971  15.87884  15.94537
  Beta virt. eigenvalues --   15.96786  47.88140  47.89563 250.88319 250.89144
          Condensed to atoms (all electrons):
               1          2          3          4          5          6
     1  O    7.701078   0.032019   0.288978   0.288978  -0.000190  -0.000190
     2  O    0.032019   7.701078  -0.000190  -0.000190   0.288978   0.288978
     3  H    0.288978  -0.000190   0.315560  -0.009597  -0.000009  -0.000078
     4  H    0.288978  -0.000190  -0.009597   0.315560  -0.000078  -0.000009
     5  H   -0.000190   0.288978  -0.000009  -0.000078   0.315560  -0.009597
     6  H   -0.000190   0.288978  -0.000078  -0.000009  -0.009597   0.315560
          Atomic-Atomic Spin Densities.
               1          2          3          4          5          6
     1  O    0.529102  -0.030979   0.010817   0.010817   0.000230   0.000230
     2  O   -0.030979   0.529102   0.000230   0.000230   0.010817   0.010817
     3  H    0.010817   0.000230  -0.021218   0.000016   0.000030   0.000017
     4  H    0.010817   0.000230   0.000016  -0.021218   0.000017   0.000030
     5  H    0.000230   0.010817   0.000030   0.000017  -0.021218   0.000016
     6  H    0.000230   0.010817   0.000017   0.000030   0.000016  -0.021218
 Mulliken charges and spin densities:
               1          2
     1  O   -0.310673   0.520216
     2  O   -0.310673   0.520216
     3  H    0.405336  -0.010108
     4  H    0.405336  -0.010108
     5  H    0.405336  -0.010108
     6  H    0.405336  -0.010108
 Sum of Mulliken charges =   1.00000   1.00000
 Mulliken charges and spin densities with hydrogens summed into heavy atoms:
               1          2
     1  O    0.500000   0.500000
     2  O    0.500000   0.500000
 Electronic spatial extent (au):  <R**2>=            192.4216
 Charge=              1.0000 electrons
 Dipole moment (field-independent basis, Debye):
    X=              0.0000    Y=              0.0000    Z=              0.0000  Tot=              0.0000
 Quadrupole moment (field-independent basis, Debye-Ang):
   XX=             -9.4891   YY=              2.6118   ZZ=             -6.0860
   XY=             -7.8802   XZ=              0.0000   YZ=              0.0000
 Traceless Quadrupole moment (field-independent basis, Debye-Ang):
   XX=             -5.1680   YY=              6.9329   ZZ=             -1.7649
   XY=             -7.8802   XZ=              0.0000   YZ=              0.0000
 Octapole moment (field-independent basis, Debye-Ang**2):
  XXX=             -0.0000  YYY=             -0.0000  ZZZ=             -0.0000  XYY=              0.0000
  XXY=             -0.0000  XXZ=              0.0000  XZZ=             -0.0000  YZZ=             -0.0000
  YYZ=              0.0000  XYZ=              0.0000
 Hexadecapole moment (field-independent basis, Debye-Ang**3):
 XXXX=            -10.9981 YYYY=           -135.8130 ZZZZ=             -8.4578 XXXY=              1.3399
 XXXZ=              0.0000 YYYX=            -16.7091 YYYZ=             -0.0000 ZZZX=              0.0000
 ZZZY=             -0.0000 XXYY=            -24.3148 XXZZ=             -1.7947 YYZZ=            -15.6068
 XXYZ=             -0.0000 YYXZ=              0.0000 ZZXY=             -4.4841
 N-N= 3.490908642147D+01 E-N=-4.249523771362D+02  KE= 1.519218179624D+02
                          Isotropic Fermi Contact Couplings
        Atom                 a.u.       MegaHertz       Gauss      10(-4) cm-1
     1  O(17)              0.07526     -45.62498     -16.28013     -15.21885
     2  O(17)              0.07526     -45.62498     -16.28013     -15.21885
     3  H(1)              -0.00988     -44.17134     -15.76143     -14.73397
     4  H(1)              -0.00988     -44.17134     -15.76143     -14.73397
     5  H(1)              -0.00988     -44.17134     -15.76143     -14.73397
     6  H(1)              -0.00988     -44.17134     -15.76143     -14.73397
 PrsmSu:  requested number of processors reduced to:  21 ShMem   1 Linda.
 --------------------------------------------------------
       Center         ----  Spin Dipole Couplings  ----
                      3XX-RR        3YY-RR        3ZZ-RR
 --------------------------------------------------------
     1   Atom       -1.100206      2.243021     -1.142815
     2   Atom       -1.100206      2.243021     -1.142815
     3   Atom       -0.013516     -0.023288      0.036805
     4   Atom       -0.013516     -0.023288      0.036805
     5   Atom       -0.013516     -0.023288      0.036805
     6   Atom       -0.013516     -0.023288      0.036805
 --------------------------------------------------------
                        XY            XZ            YZ
 --------------------------------------------------------
     1   Atom        0.441085      0.000000     -0.000000
     2   Atom        0.441085     -0.000000      0.000000
     3   Atom       -0.005801      0.080611     -0.015171
     4   Atom       -0.005801     -0.080611      0.015171
     5   Atom       -0.005801     -0.080611      0.015171
     6   Atom       -0.005801      0.080611     -0.015171
 --------------------------------------------------------


 ---------------------------------------------------------------------------------
              Anisotropic Spin Dipole Couplings in Principal Axis System
 ---------------------------------------------------------------------------------

       Atom             a.u.   MegaHertz   Gauss  10(-4) cm-1        Axes

              Baa    -1.1574    83.750    29.884    27.936  0.9917 -0.1286  0.0000
     1 O(17)  Bbb    -1.1428    82.693    29.507    27.584  0.0000  0.0000  1.0000
              Bcc     2.3002  -166.443   -59.391   -55.520  0.1286  0.9917 -0.0000
 
              Baa    -1.1574    83.750    29.884    27.936  0.9917 -0.1286 -0.0000
     2 O(17)  Bbb    -1.1428    82.693    29.507    27.584  0.0000  0.0000  1.0000
              Bcc     2.3002  -166.443   -59.391   -55.520  0.1286  0.9917  0.0000
 
              Baa    -0.0732   -39.049   -13.934   -13.025  0.7975 -0.0887 -0.5967
     3 H(1)   Bbb    -0.0249   -13.299    -4.745    -4.436  0.1474  0.9878  0.0502
              Bcc     0.0981    52.348    18.679    17.461  0.5850 -0.1280  0.8009
 
              Baa    -0.0732   -39.049   -13.934   -13.025  0.7975 -0.0887  0.5967
     4 H(1)   Bbb    -0.0249   -13.299    -4.745    -4.436  0.1474  0.9878 -0.0502
              Bcc     0.0981    52.348    18.679    17.461 -0.5850  0.1280  0.8009
 
              Baa    -0.0732   -39.049   -13.934   -13.025  0.7975 -0.0887  0.5967
     5 H(1)   Bbb    -0.0249   -13.299    -4.745    -4.436  0.1474  0.9878 -0.0502
              Bcc     0.0981    52.348    18.679    17.461 -0.5850  0.1280  0.8009
 
              Baa    -0.0732   -39.049   -13.934   -13.025  0.7975 -0.0887 -0.5967
     6 H(1)   Bbb    -0.0249   -13.299    -4.745    -4.436  0.1474  0.9878  0.0502
              Bcc     0.0981    52.348    18.679    17.461  0.5850 -0.1280  0.8009
 

 ---------------------------------------------------------------------------------

 PrsmSu:  requested number of processors reduced to:  21 ShMem   1 Linda.
 No NMR shielding tensors so no spin-rotation constants.
 Leave Link  601 at Sun Apr 18 03:01:07 2021, MaxMem=   104857600 cpu:             380.9 elap:               8.3
 (Enter /s/ls4/users/knvvv/bin/g16sse/l9999.exe)

 Test job not archived.
 1\1\GINC-N305\Stability\UM062X\def2QZVP\H4O2(1+,2)\KNVVV\18-Apr-2021\0
 \\#P M062X/Def2QZVP Integral=UltraFineGrid SCF=NoSymm Stable=(RExt, Op
 t) IOp(1/33=1)\\Database calculations.\\1,2\O,0,1.51617785,0.,0.069842
 8\O,0,-1.51617786,0.,-0.06984291\H,0,1.64955199,0.775137,-0.50952092\H
 ,0,1.64955199,-0.775137,-0.50952092\H,0,-1.64955195,0.775137,0.5095218
 \H,0,-1.64955195,-0.775137,0.5095218\\Version=ES64L-G16RevA.03\State=2
 -BU\HF=-152.4477459\S2=0.761895\S2-1=0.\S2A=0.750042\RMSD=3.724e-09\Di
 pole=0.,0.,0.\Quadrupole=5.6739811,-1.3121365,-4.3618446,0.,-5.4203823
 ,0.\PG=C02H [SGH(O2),X(H4)]\\@


 YOU SHOULDN'T LET PEOPLE DRIVE YOU CRAZY
 WHEN YOU KNOW IT'S WITHIN WALKING DISTANCE.
 Job cpu time:       0 days  2 hours 46 minutes 34.4 seconds.
 Elapsed time:       0 days  0 hours  4 minutes  9.6 seconds.
 File lengths (MBytes):  RWF=    151 Int=      0 D2E=      0 Chk=      8 Scr=      1
 Normal termination of Gaussian 16 at Sun Apr 18 03:01:08 2021.
