 Entering Gaussian System, Link 0=/s/ls4/groups/g0130/bin/g16/g16
 Input=M062X--def2-QZVP--ISOL24_i1e.gjf
 Output=M062X--def2-QZVP--ISOL24_i1e.log
 Initial command:
 /s/ls4/groups/g0130/bin/g16/l1.exe "/dev/shm/scratch_knvvv/Gau-6704.inp" -scrdir="/dev/shm/scratch_knvvv/"
 Entering Link 1 = /s/ls4/groups/g0130/bin/g16/l1.exe PID=      6705.
  
 Copyright (c) 1988,1990,1992,1993,1995,1998,2003,2009,2016,
            Gaussian, Inc.  All Rights Reserved.
  
 This is part of the Gaussian(R) 16 program.  It is based on
 the Gaussian(R) 09 system (copyright 2009, Gaussian, Inc.),
 the Gaussian(R) 03 system (copyright 2003, Gaussian, Inc.),
 the Gaussian(R) 98 system (copyright 1998, Gaussian, Inc.),
 the Gaussian(R) 94 system (copyright 1995, Gaussian, Inc.),
 the Gaussian 92(TM) system (copyright 1992, Gaussian, Inc.),
 the Gaussian 90(TM) system (copyright 1990, Gaussian, Inc.),
 the Gaussian 88(TM) system (copyright 1988, Gaussian, Inc.),
 the Gaussian 86(TM) system (copyright 1986, Carnegie Mellon
 University), and the Gaussian 82(TM) system (copyright 1983,
 Carnegie Mellon University). Gaussian is a federally registered
 trademark of Gaussian, Inc.
  
 This software contains proprietary and confidential information,
 including trade secrets, belonging to Gaussian, Inc.
  
 This software is provided under written license and may be
 used, copied, transmitted, or stored only in accord with that
 written license.
  
 The following legend is applicable only to US Government
 contracts under FAR:
  
                    RESTRICTED RIGHTS LEGEND
  
 Use, reproduction and disclosure by the US Government is
 subject to restrictions as set forth in subparagraphs (a)
 and (c) of the Commercial Computer Software - Restricted
 Rights clause in FAR 52.227-19.
  
 Gaussian, Inc.
 340 Quinnipiac St., Bldg. 40, Wallingford CT 06492
  
  
 ---------------------------------------------------------------
 Warning -- This program may not be used in any manner that
 competes with the business of Gaussian, Inc. or will provide
 assistance to any competitor of Gaussian, Inc.  The licensee
 of this program is prohibited from giving any competitor of
 Gaussian, Inc. access to this program.  By using this program,
 the user acknowledges that Gaussian, Inc. is engaged in the
 business of creating and licensing software in the field of
 computational chemistry and represents and warrants to the
 licensee that it is not a competitor of Gaussian, Inc. and that
 it will not use this program in any manner prohibited above.
 ---------------------------------------------------------------
  

 Cite this work as:
 Gaussian 16, Revision A.03,
 M. J. Frisch, G. W. Trucks, H. B. Schlegel, G. E. Scuseria, 
 M. A. Robb, J. R. Cheeseman, G. Scalmani, V. Barone, 
 G. A. Petersson, H. Nakatsuji, X. Li, M. Caricato, A. V. Marenich, 
 J. Bloino, B. G. Janesko, R. Gomperts, B. Mennucci, H. P. Hratchian, 
 J. V. Ortiz, A. F. Izmaylov, J. L. Sonnenberg, D. Williams-Young, 
 F. Ding, F. Lipparini, F. Egidi, J. Goings, B. Peng, A. Petrone, 
 T. Henderson, D. Ranasinghe, V. G. Zakrzewski, J. Gao, N. Rega, 
 G. Zheng, W. Liang, M. Hada, M. Ehara, K. Toyota, R. Fukuda, 
 J. Hasegawa, M. Ishida, T. Nakajima, Y. Honda, O. Kitao, H. Nakai, 
 T. Vreven, K. Throssell, J. A. Montgomery, Jr., J. E. Peralta, 
 F. Ogliaro, M. J. Bearpark, J. J. Heyd, E. N. Brothers, K. N. Kudin, 
 V. N. Staroverov, T. A. Keith, R. Kobayashi, J. Normand, 
 K. Raghavachari, A. P. Rendell, J. C. Burant, S. S. Iyengar, 
 J. Tomasi, M. Cossi, J. M. Millam, M. Klene, C. Adamo, R. Cammi, 
 J. W. Ochterski, R. L. Martin, K. Morokuma, O. Farkas, 
 J. B. Foresman, and D. J. Fox, Gaussian, Inc., Wallingford CT, 2016.
 
 ******************************************
 Gaussian 16:  ES64L-G16RevA.03 25-Dec-2016
                20-Apr-2021 
 ******************************************
 %nprocshared=48
 Will use up to   48 processors via shared memory.
 %mem=90GB
 ----------------------------------------------------------------------
 #P M062X/Def2QZVP Integral=UltraFineGrid SCF=NoSymm Stable=(RExt, Opt)
  IOp(1/33=1)
 ----------------------------------------------------------------------
 1/33=1,38=1,172=1/1;
 2/12=2,17=6,18=5,40=1/2;
 3/5=45,7=101,11=2,25=1,30=1,74=-55,75=-5/1,2,3;
 4/9=2/1;
 5/5=2,38=5/2;
 6/7=2,8=2,9=2,10=2,28=1/1;
 8/6=1,10=90,11=11/1;
 9/8=-3,42=1,46=1/14;
 5/5=2,8=3,17=40,38=5/8(-2);
 6/7=2,8=2,9=2,10=2,28=1/1;
 99/5=1,9=1/99;
 Leave Link    1 at Tue Apr 20 10:36:07 2021, MaxMem= 12079595520 cpu:               9.1 elap:               0.2
 (Enter /s/ls4/groups/g0130/bin/g16/l101.exe)
 ONIOM data not found on unit 2.
 ----------------------
 Database calculations.
 ----------------------
 TstMul:  ICh=     0
 TstMul:  Mul=     1
 TstMul:  ICh=     0
 TstMul:  Mul=     1
 Symbolic Z-matrix:
 Charge =  0 Multiplicity = 1
 C                    -1.32908  -0.56817   0.22241 
 C                    -0.71916  -0.07963  -0.97212 
 C                     0.71916   0.07963  -0.97212 
 C                     1.32908   0.56817   0.22241 
 C                     0.62035   0.33796   1.42889 
 C                    -0.62035  -0.33796   1.42889 
 C                    -2.55146  -1.57378   0.20796 
 C                    -1.53739   0.62931  -2.13436 
 C                     1.53739  -0.62931  -2.13436 
 C                     2.55146   1.57378   0.20796 
 C                     1.1998    0.67319   2.77826 
 C                    -1.1998   -0.67319   2.77826 
 C                    -2.1289   -2.83436   1.02452 
 C                    -2.84267  -2.14568  -1.20017 
 C                    -3.88497  -1.05205   0.79924 
 O                    -0.35363  -1.49148   3.47873 
 C                    -0.77436   1.95745  -2.43069 
 C                    -1.79235  -0.05292  -3.50213 
 C                    -2.90512   1.1204   -1.58874 
 C                     1.79235   0.05292  -3.50213 
 C                     0.77436  -1.95745  -2.43069 
 C                     2.90512  -1.1204   -1.58874 
 C                     2.84267   2.14568  -1.20017 
 C                     3.88497   1.05205   0.79924 
 C                     2.1289    2.83436   1.02452 
 O                    -2.23756  -0.25503   3.23998 
 C                    -0.7658   -1.80042   4.83007 
 O                     0.35363   1.49148   3.47873 
 C                     0.7658    1.80042   4.83007 
 O                     2.23756   0.25503   3.23998 
 H                    -1.16661  -3.22501   0.67133 
 H                    -2.0564   -2.65519   2.09745 
 H                    -2.89389  -3.60919   0.88572 
 H                    -1.92178  -2.45698  -1.70196 
 H                    -3.48828  -3.02562  -1.0882 
 H                    -3.37911  -1.44993  -1.84127 
 H                    -3.80749  -0.88306   1.87278 
 H                    -4.20761  -0.11664   0.33691 
 H                    -4.66247  -1.80763   0.61615 
 H                    -0.6684    2.54855  -1.51338 
 H                    -1.35472   2.54166  -3.1578 
 H                     0.21783   1.78659  -2.84509 
 H                    -0.87771  -0.17656  -4.08292 
 H                    -2.45907   0.59767  -4.08374 
 H                    -2.26738  -1.03083  -3.41968 
 H                    -2.79312   1.5557   -0.58984 
 H                    -3.66121   0.33939  -1.54371 
 H                    -3.28404   1.89643  -2.26687 
 H                     2.26738   1.03083  -3.41968 
 H                     0.87771   0.17656  -4.08292 
 H                     2.45907  -0.59767  -4.08374 
 H                     0.6684   -2.54855  -1.51338 
 H                     1.35472  -2.54166  -3.1578 
 H                    -0.21783  -1.78659  -2.84509 
 H                     3.66121  -0.33939  -1.54371 
 H                     3.28404  -1.89643  -2.26687 
 H                     2.79312  -1.5557   -0.58984 
 H                     1.92178   2.45698  -1.70196 
 H                     3.37911   1.44993  -1.84127 
 H                     3.48828   3.02562  -1.0882 
 H                     3.80749   0.88306   1.87278 
 H                     4.66247   1.80763   0.61615 
 H                     4.20761   0.11664   0.33691 
 H                     1.16661   3.22501   0.67133 
 H                     2.89389   3.60919   0.88572 
 H                     2.0564    2.65519   2.09745 
 H                     0.05498  -2.38333   5.2549 
 H                    -0.93288  -0.87897   5.39958 
 H                    -1.69515  -2.38349   4.8178 
 H                    -0.05498   2.38333   5.2549 
 H                     1.69515   2.38349   4.8178 
 H                     0.93288   0.87897   5.39958 
 
 RdStrC is calling ZToCFu for IStruc=1 NZ=    72.
 PrtBox:  NBox=    12 Levels=  2 BoxLen=    8.00 SMaxX=       17.92
          Shift=            8.810782            6.820375            7.717158
 Box      1 Number                   0 centers from      1 to     10:
 Box      2 Number                   1 centers from     11 to     23:
 Box      3 Number                   2 centers from     24 to     30:
 Box      4 Number                   4 centers from     31 to     43:
 Box      5 Number                   5 centers from     44 to     47:
 Box      6 Number                   6 centers from     48 to     53:
 Box      7 Number                   7 centers from     54 to     60:
 Box      8 Number                   8 centers from     61 to     63:
 Box      9 Number                  12 centers from     64 to     64:
 Box     10 Number                  14 centers from     65 to     68:
 Box     11 Number                  33 centers from     69 to     69:
 Box     12 Number                  35 centers from     70 to     72:
 After GenITR:
 ITRead=  0  0  0  0  0  0  0  0  0  0  0  0  0  0  0  0  0  0  0  0
 ITRead=  0  0  0  0  0  0  0  0  0  0  0  0  0  0  0  0  0  0  0  0
 ITRead=  0  0  0  0  0  0  0  0  0  0  0  0  0  0  0  0  0  0  0  0
 ITRead=  0  0  0  0  0  0  0  0  0  0  0  0
 MicOpt= -1 -1 -1 -1 -1 -1 -1 -1 -1 -1 -1 -1 -1 -1 -1 -1 -1 -1 -1 -1
 MicOpt= -1 -1 -1 -1 -1 -1 -1 -1 -1 -1 -1 -1 -1 -1 -1 -1 -1 -1 -1 -1
 MicOpt= -1 -1 -1 -1 -1 -1 -1 -1 -1 -1 -1 -1 -1 -1 -1 -1 -1 -1 -1 -1
 MicOpt= -1 -1 -1 -1 -1 -1 -1 -1 -1 -1 -1 -1
 ITRead=  0  0  0  0  0  0  0  0  0  0  0  0  0  0  0  0  0  0  0  0
 ITRead=  0  0  0  0  0  0  0  0  0  0  0  0  0  0  0  0  0  0  0  0
 ITRead=  0  0  0  0  0  0  0  0  0  0  0  0  0  0  0  0  0  0  0  0
 ITRead=  0  0  0  0  0  0  0  0  0  0  0  0
 MicOpt= -1 -1 -1 -1 -1 -1 -1 -1 -1 -1 -1 -1 -1 -1 -1 -1 -1 -1 -1 -1
 MicOpt= -1 -1 -1 -1 -1 -1 -1 -1 -1 -1 -1 -1 -1 -1 -1 -1 -1 -1 -1 -1
 MicOpt= -1 -1 -1 -1 -1 -1 -1 -1 -1 -1 -1 -1 -1 -1 -1 -1 -1 -1 -1 -1
 MicOpt= -1 -1 -1 -1 -1 -1 -1 -1 -1 -1 -1 -1
 NAtoms=     72 NQM=       72 NQMF=       0 NMMI=      0 NMMIF=      0
                NMic=       0 NMicF=      0.
                    Isotopes and Nuclear Properties:
 (Nuclear quadrupole moments (NQMom) in fm**2, nuclear magnetic moments (NMagM)
  in nuclear magnetons)

  Atom         1           2           3           4           5           6           7           8           9          10
 IAtWgt=          12          12          12          12          12          12          12          12          12          12
 AtmWgt=  12.0000000  12.0000000  12.0000000  12.0000000  12.0000000  12.0000000  12.0000000  12.0000000  12.0000000  12.0000000
 NucSpn=           0           0           0           0           0           0           0           0           0           0
 AtZEff=  -0.0000000  -0.0000000  -0.0000000  -0.0000000  -0.0000000  -0.0000000  -0.0000000  -0.0000000  -0.0000000  -0.0000000
 NQMom=    0.0000000   0.0000000   0.0000000   0.0000000   0.0000000   0.0000000   0.0000000   0.0000000   0.0000000   0.0000000
 NMagM=    0.0000000   0.0000000   0.0000000   0.0000000   0.0000000   0.0000000   0.0000000   0.0000000   0.0000000   0.0000000
 AtZNuc=   6.0000000   6.0000000   6.0000000   6.0000000   6.0000000   6.0000000   6.0000000   6.0000000   6.0000000   6.0000000

  Atom        11          12          13          14          15          16          17          18          19          20
 IAtWgt=          12          12          12          12          12          16          12          12          12          12
 AtmWgt=  12.0000000  12.0000000  12.0000000  12.0000000  12.0000000  15.9949146  12.0000000  12.0000000  12.0000000  12.0000000
 NucSpn=           0           0           0           0           0           0           0           0           0           0
 AtZEff=  -0.0000000  -0.0000000  -0.0000000  -0.0000000  -0.0000000  -0.0000000  -0.0000000  -0.0000000  -0.0000000  -0.0000000
 NQMom=    0.0000000   0.0000000   0.0000000   0.0000000   0.0000000   0.0000000   0.0000000   0.0000000   0.0000000   0.0000000
 NMagM=    0.0000000   0.0000000   0.0000000   0.0000000   0.0000000   0.0000000   0.0000000   0.0000000   0.0000000   0.0000000
 AtZNuc=   6.0000000   6.0000000   6.0000000   6.0000000   6.0000000   8.0000000   6.0000000   6.0000000   6.0000000   6.0000000

  Atom        21          22          23          24          25          26          27          28          29          30
 IAtWgt=          12          12          12          12          12          16          12          16          12          16
 AtmWgt=  12.0000000  12.0000000  12.0000000  12.0000000  12.0000000  15.9949146  12.0000000  15.9949146  12.0000000  15.9949146
 NucSpn=           0           0           0           0           0           0           0           0           0           0
 AtZEff=  -0.0000000  -0.0000000  -0.0000000  -0.0000000  -0.0000000  -0.0000000  -0.0000000  -0.0000000  -0.0000000  -0.0000000
 NQMom=    0.0000000   0.0000000   0.0000000   0.0000000   0.0000000   0.0000000   0.0000000   0.0000000   0.0000000   0.0000000
 NMagM=    0.0000000   0.0000000   0.0000000   0.0000000   0.0000000   0.0000000   0.0000000   0.0000000   0.0000000   0.0000000
 AtZNuc=   6.0000000   6.0000000   6.0000000   6.0000000   6.0000000   8.0000000   6.0000000   8.0000000   6.0000000   8.0000000

  Atom        31          32          33          34          35          36          37          38          39          40
 IAtWgt=           1           1           1           1           1           1           1           1           1           1
 AtmWgt=   1.0078250   1.0078250   1.0078250   1.0078250   1.0078250   1.0078250   1.0078250   1.0078250   1.0078250   1.0078250
 NucSpn=           1           1           1           1           1           1           1           1           1           1
 AtZEff=  -0.0000000  -0.0000000  -0.0000000  -0.0000000  -0.0000000  -0.0000000  -0.0000000  -0.0000000  -0.0000000  -0.0000000
 NQMom=    0.0000000   0.0000000   0.0000000   0.0000000   0.0000000   0.0000000   0.0000000   0.0000000   0.0000000   0.0000000
 NMagM=    2.7928460   2.7928460   2.7928460   2.7928460   2.7928460   2.7928460   2.7928460   2.7928460   2.7928460   2.7928460
 AtZNuc=   1.0000000   1.0000000   1.0000000   1.0000000   1.0000000   1.0000000   1.0000000   1.0000000   1.0000000   1.0000000

  Atom        41          42          43          44          45          46          47          48          49          50
 IAtWgt=           1           1           1           1           1           1           1           1           1           1
 AtmWgt=   1.0078250   1.0078250   1.0078250   1.0078250   1.0078250   1.0078250   1.0078250   1.0078250   1.0078250   1.0078250
 NucSpn=           1           1           1           1           1           1           1           1           1           1
 AtZEff=  -0.0000000  -0.0000000  -0.0000000  -0.0000000  -0.0000000  -0.0000000  -0.0000000  -0.0000000  -0.0000000  -0.0000000
 NQMom=    0.0000000   0.0000000   0.0000000   0.0000000   0.0000000   0.0000000   0.0000000   0.0000000   0.0000000   0.0000000
 NMagM=    2.7928460   2.7928460   2.7928460   2.7928460   2.7928460   2.7928460   2.7928460   2.7928460   2.7928460   2.7928460
 AtZNuc=   1.0000000   1.0000000   1.0000000   1.0000000   1.0000000   1.0000000   1.0000000   1.0000000   1.0000000   1.0000000

  Atom        51          52          53          54          55          56          57          58          59          60
 IAtWgt=           1           1           1           1           1           1           1           1           1           1
 AtmWgt=   1.0078250   1.0078250   1.0078250   1.0078250   1.0078250   1.0078250   1.0078250   1.0078250   1.0078250   1.0078250
 NucSpn=           1           1           1           1           1           1           1           1           1           1
 AtZEff=  -0.0000000  -0.0000000  -0.0000000  -0.0000000  -0.0000000  -0.0000000  -0.0000000  -0.0000000  -0.0000000  -0.0000000
 NQMom=    0.0000000   0.0000000   0.0000000   0.0000000   0.0000000   0.0000000   0.0000000   0.0000000   0.0000000   0.0000000
 NMagM=    2.7928460   2.7928460   2.7928460   2.7928460   2.7928460   2.7928460   2.7928460   2.7928460   2.7928460   2.7928460
 AtZNuc=   1.0000000   1.0000000   1.0000000   1.0000000   1.0000000   1.0000000   1.0000000   1.0000000   1.0000000   1.0000000

  Atom        61          62          63          64          65          66          67          68          69          70
 IAtWgt=           1           1           1           1           1           1           1           1           1           1
 AtmWgt=   1.0078250   1.0078250   1.0078250   1.0078250   1.0078250   1.0078250   1.0078250   1.0078250   1.0078250   1.0078250
 NucSpn=           1           1           1           1           1           1           1           1           1           1
 AtZEff=  -0.0000000  -0.0000000  -0.0000000  -0.0000000  -0.0000000  -0.0000000  -0.0000000  -0.0000000  -0.0000000  -0.0000000
 NQMom=    0.0000000   0.0000000   0.0000000   0.0000000   0.0000000   0.0000000   0.0000000   0.0000000   0.0000000   0.0000000
 NMagM=    2.7928460   2.7928460   2.7928460   2.7928460   2.7928460   2.7928460   2.7928460   2.7928460   2.7928460   2.7928460
 AtZNuc=   1.0000000   1.0000000   1.0000000   1.0000000   1.0000000   1.0000000   1.0000000   1.0000000   1.0000000   1.0000000

  Atom        71          72
 IAtWgt=           1           1
 AtmWgt=   1.0078250   1.0078250
 NucSpn=           1           1
 AtZEff=  -0.0000000  -0.0000000
 NQMom=    0.0000000   0.0000000
 NMagM=    2.7928460   2.7928460
 AtZNuc=   1.0000000   1.0000000
 No MM parameters found.
 Leave Link  101 at Tue Apr 20 10:36:08 2021, MaxMem= 12079595520 cpu:              13.2 elap:               0.3
 (Enter /s/ls4/groups/g0130/bin/g16/l202.exe)
 Stoichiometry    C26H42O4
 Framework group  C2[X(C26H42O4)]
 Deg. of freedom   106
 Full point group                 C2      NOp   2
 Largest Abelian subgroup         C2      NOp   2
 Largest concise Abelian subgroup C2      NOp   2
                         Standard orientation:                         
 ---------------------------------------------------------------------
 Center     Atomic      Atomic             Coordinates (Angstroms)
 Number     Number       Type             X           Y           Z
 ---------------------------------------------------------------------
      1          6           0       -0.518043    1.349411   -0.163216
      2          6           0       -0.052664    0.721641   -1.357743
      3          6           0        0.052664   -0.721641   -1.357743
      4          6           0        0.518043   -1.349411   -0.163216
      5          6           0        0.314508   -0.632565    1.043262
      6          6           0       -0.314508    0.632565    1.043262
      7          6           0       -1.477202    2.608562   -0.177659
      8          6           0        0.686401    1.512767   -2.519982
      9          6           0       -0.686401   -1.512767   -2.519982
     10          6           0        1.477202   -2.608562   -0.177659
     11          6           0        0.627821   -1.224147    2.392639
     12          6           0       -0.627821    1.224147    2.392639
     13          6           0       -2.752717    2.233470    0.638895
     14          6           0       -2.037810    2.920967   -1.585797
     15          6           0       -0.905944    3.921613    0.413618
     16          8           0       -1.477202    0.409194    3.093111
     17          6           0        1.985059    0.700575   -2.816315
     18          6           0        0.014184    1.793073   -3.887752
     19          6           0        1.228321    2.861158   -1.974366
     20          6           0       -0.014184   -1.793073   -3.887752
     21          6           0       -1.985059   -0.700575   -2.816315
     22          6           0       -1.228321   -2.861158   -1.974366
     23          6           0        2.037810   -2.920967   -1.585797
     24          6           0        0.905944   -3.921613    0.413618
     25          6           0        2.752717   -2.233470    0.638895
     26          8           0       -0.171120    2.245537    2.854358
     27          6           0       -1.770506    0.832636    4.444451
     28          8           0        1.477202   -0.409194    3.093111
     29          6           0        1.770506   -0.832636    4.444451
     30          8           0        0.171120   -2.245537    2.854358
     31          1           0       -3.179103    1.286470    0.285707
     32          1           0       -2.576377    2.154311    1.711826
     33          1           0       -3.498373    3.026914    0.500094
     34          1           0       -2.383352    2.012372   -2.087587
     35          1           0       -2.892978    3.599053   -1.473828
     36          1           0       -1.322469    3.430995   -2.226890
     37          1           0       -0.739965    3.837864    1.487159
     38          1           0        0.040884    4.209030   -0.048713
     39          1           0       -1.631901    4.726839    0.230524
     40          1           0        2.571774    0.572570   -1.899005
     41          1           0        2.590570    1.258661   -3.543429
     42          1           0        1.777192   -0.284532   -3.230716
     43          1           0       -0.143598    0.883698   -4.468544
     44          1           0        0.689271    2.434980   -4.469368
     45          1           0       -0.945267    2.304367   -3.805307
     46          1           0        1.659124    2.732954   -0.975464
     47          1           0        0.476153    3.645945   -1.929335
     48          1           0        2.017991    3.210774   -2.652492
     49          1           0        0.945267   -2.304367   -3.805307
     50          1           0        0.143598   -0.883698   -4.468544
     51          1           0       -0.689271   -2.434980   -4.469368
     52          1           0       -2.571774   -0.572570   -1.899005
     53          1           0       -2.590570   -1.258661   -3.543429
     54          1           0       -1.777192    0.284532   -3.230716
     55          1           0       -0.476153   -3.645945   -1.929335
     56          1           0       -2.017991   -3.210774   -2.652492
     57          1           0       -1.659124   -2.732954   -0.975464
     58          1           0        2.383352   -2.012372   -2.087587
     59          1           0        1.322469   -3.430995   -2.226890
     60          1           0        2.892978   -3.599053   -1.473828
     61          1           0        0.739965   -3.837864    1.487159
     62          1           0        1.631901   -4.726839    0.230524
     63          1           0       -0.040884   -4.209030   -0.048713
     64          1           0        3.179103   -1.286470    0.285707
     65          1           0        3.498373   -3.026914    0.500094
     66          1           0        2.576377   -2.154311    1.711826
     67          1           0       -2.383716    0.034241    4.869276
     68          1           0       -0.843447    0.965118    5.013953
     69          1           0       -2.318389    1.783150    4.432176
     70          1           0        2.383716   -0.034241    4.869276
     71          1           0        2.318389   -1.783150    4.432176
     72          1           0        0.843447   -0.965118    5.013953
 ---------------------------------------------------------------------
 Rotational constants (GHZ):           0.1935015           0.1636414           0.1126906
 Leave Link  202 at Tue Apr 20 10:36:08 2021, MaxMem= 12079595520 cpu:               7.9 elap:               0.2
 (Enter /s/ls4/groups/g0130/bin/g16/l301.exe)
 Standard basis: def2QZVP (5D, 7F)
 Ernie: Thresh=  0.10000D-02 Tol=  0.10000D-05 Strict=F.
 There are  1815 symmetry adapted cartesian basis functions of A   symmetry.
 There are  1815 symmetry adapted cartesian basis functions of B   symmetry.
 There are  1485 symmetry adapted basis functions of A   symmetry.
 There are  1485 symmetry adapted basis functions of B   symmetry.
  2970 basis functions,  4356 primitive gaussians,  3630 cartesian basis functions
   115 alpha electrons      115 beta electrons
       nuclear repulsion energy      3498.1773933012 Hartrees.
 IExCor= 4336 DFT=T Ex+Corr=M062X ExCW=0 ScaHFX=  0.540000
 ScaDFX=  1.000000  1.000000  1.000000  1.000000 ScalE2=  1.000000  1.000000
 IRadAn=      5 IRanWt=     -1 IRanGd=            0 ICorTp=0 IEmpDi=  4
 NAtoms=   72 NActive=   72 NUniq=   36 SFac= 4.00D+00 NAtFMM=   60 NAOKFM=T Big=F
 Integral buffers will be    131072 words long.
 Raffenetti 2 integral format.
 Two-electron integral symmetry is turned on.
 Leave Link  301 at Tue Apr 20 10:36:08 2021, MaxMem= 12079595520 cpu:               7.6 elap:               0.2
 (Enter /s/ls4/groups/g0130/bin/g16/l302.exe)
 NPDir=0 NMtPBC=     1 NCelOv=     1 NCel=       1 NClECP=     1 NCelD=      1
         NCelK=      1 NCelE2=     1 NClLst=     1 CellRange=     0.0.
 One-electron integrals computed using PRISM.
 One-electron integral symmetry used in STVInt
   2 Symmetry operations used in ECPInt.
 ECPInt:  NShTT=  432915 NPrTT= 1004658 LenC2=  331055 LenP2D=  560996.
 LDataN:  DoStor=T MaxTD1= 8 Len=  415
 Number of processors reduced to  32 by ecpmxn.
 NBasis=  2970 RedAO= T EigKep=  1.32D-06  NBF=  1485  1485
 NBsUse=  2969 1.00D-06 EigRej=  1.27D-07 NBFU=  1485  1484
 Precomputing XC quadrature grid using
 IXCGrd= 4 IRadAn=           5 IRanWt=          -1 IRanGd=           0 AccXCQ= 0.00D+00.
 Generated NRdTot=       0 NPtTot=           0 NUsed=           0 NTot=          32
 NSgBfM=  3568  3568  3568  3568  3568 MxSgAt=    72 MxSgA2=    72.
 Leave Link  302 at Tue Apr 20 10:36:25 2021, MaxMem= 12079595520 cpu:             792.4 elap:              16.7
 (Enter /s/ls4/groups/g0130/bin/g16/l303.exe)
 DipDrv:  MaxL=1.
 Leave Link  303 at Tue Apr 20 10:39:16 2021, MaxMem= 12079595520 cpu:            8041.7 elap:             171.2
 (Enter /s/ls4/groups/g0130/bin/g16/l401.exe)
 SCF N**3 symmetry information disabled.
 ExpMin= 7.60D-02 ExpMax= 1.17D+05 ExpMxC= 1.13D+03 IAcc=3 IRadAn=         5 AccDes= 0.00D+00
 Harris functional with IExCor= 1009 and IRadAn=       5 diagonalized for initial guess.
 HarFok:  IExCor= 1009 AccDes= 0.00D+00 IRadAn=         5 IDoV= 1 UseB2=F ITyADJ=14
 ICtDFT=  3500011 ScaDFX=  1.000000  1.000000  1.000000  1.000000
 FoFCou: FMM=F IPFlag=           0 FMFlag=      100000 FMFlg1=        2000
         NFxFlg=           0 DoJE=T BraDBF=F KetDBF=T FulRan=T
         wScrn=  0.000000 ICntrl=       500 IOpCl=  0 I1Cent=   200000004 NGrid=           0
         NMat0=    1 NMatS0=      1 NMatT0=    0 NMatD0=    1 NMtDS0=    0 NMtDT0=    0
 Petite list used in FoFCou.
 Harris En= -1316.43481020267    
 JPrj=0 DoOrth=F DoCkMO=F.
 Initial guess orbital symmetries:
       Occupied  (B) (A) (A) (B) (B) (A) (B) (A) (B) (A) (B) (A)
                 (B) (A) (B) (A) (A) (B) (A) (B) (B) (A) (A) (B)
                 (A) (B) (B) (A) (A) (B) (A) (B) (A) (B) (A) (B)
                 (A) (B) (A) (A) (B) (B) (A) (B) (A) (A) (B) (A)
                 (B) (B) (A) (A) (B) (A) (B) (B) (A) (B) (A) (A)
                 (A) (B) (B) (A) (B) (A) (B) (A) (A) (B) (A) (B)
                 (A) (A) (B) (B) (A) (B) (B) (A) (B) (A) (B) (A)
                 (B) (A) (B) (A) (A) (B) (A) (B) (A) (B) (A) (B)
                 (A) (B) (A) (B) (B) (A) (B) (A) (A) (B) (B) (A)
                 (B) (A) (A) (B) (B) (A) (B)
       Virtual   (A) (B) (A) (B) (A) (A) (B) (A) (B) (A) (A) (B)
                 (A) (A) (B) (B) (A) (B) (A) (A) (B) (B) (A) (B)
                 (B) (A) (B) (A) (A) (B) (B) (A) (A) (B) (A) (B)
                 (A) (B) (A) (B) (B) (A) (B) (A) (B) (A) (A) (B)
                 (B) (A) (B) (A) (A) (B) (B) (B) (A) (B) (A) (A)
                 (A) (B) (B) (A) (A) (A) (B) (B) (A) (B) (B) (A)
                 (A) (A) (B) (A) (B) (A) (B) (B) (A) (A) (B) (B)
                 (A) (B) (B) (A) (A) (A) (B) (B) (A) (B) (A) (A)
                 (B) (B) (A) (B) (B) (A) (A) (B) (A) (B) (A) (B)
                 (B) (A) (B) (A) (A) (B) (B) (B) (A) (A) (B) (A)
                 (B) (A) (B) (A) (B) (B) (A) (B) (B) (B) (A) (A)
                 (A) (B) (A) (B) (A) (B) (A) (A) (B) (A) (B) (A)
                 (B) (A) (A) (B) (A) (B) (A) (A) (B) (B) (A) (B)
                 (A) (B) (A) (B) (A) (B) (A) (B) (B) (A) (A) (B)
                 (A) (B) (B) (A) (B) (A) (A) (B) (A) (A) (B) (B)
                 (B) (A) (B) (B) (A) (A) (B) (B) (A) (A) (B) (A)
                 (B) (A) (B) (A) (A) (B) (B) (A) (B) (A) (B) (A)
                 (B) (B) (A) (B) (A) (A) (B) (A) (B) (A) (B) (A)
                 (B) (A) (B) (A) (B) (B) (A) (A) (B) (A) (B) (A)
                 (A) (B) (B) (A) (B) (B) (B) (A) (B) (B) (A) (A)
                 (A) (B) (A) (B) (B) (B) (A) (A) (A) (B) (B) (A)
                 (B) (A) (B) (A) (A) (B) (A) (B) (A) (B) (A) (B)
                 (A) (A) (B) (B) (A) (A) (B) (A) (B) (B) (A) (B)
                 (B) (A) (A) (B) (A) (A) (B) (A) (B) (B) (A) (A)
                 (B) (B) (A) (A) (B) (A) (A) (B) (A) (B) (A) (B)
                 (A) (B) (A) (B) (A) (B) (B) (A) (B) (A) (B) (A)
                 (B) (A) (A) (B) (B) (A) (B) (A) (B) (A) (A) (B)
                 (A) (B) (B) (A) (B) (B) (A) (B) (A) (A) (A) (B)
                 (B) (A) (B) (B) (B) (A) (A) (B) (A) (B) (B) (A)
                 (A) (B) (A) (B) (A) (A) (B) (A) (A) (B) (B) (B)
                 (A) (B) (A) (A) (B) (B) (A) (B) (B) (A) (A) (B)
                 (A) (A) (B) (A) (B) (A) (A) (B) (B) (A) (A) (B)
                 (A) (B) (B) (A) (B) (B) (A) (A) (B) (A) (B) (B)
                 (A) (A) (B) (B) (B) (B) (A) (A) (B) (A) (A) (B)
                 (A) (A) (B) (A) (B) (A) (B) (A) (A) (A) (B) (A)
                 (B) (A) (B) (A) (B) (A) (B) (A) (B) (B) (A) (B)
                 (B) (A) (B) (A) (A) (B) (B) (A) (B) (A) (B) (A)
                 (B) (A) (B) (B) (B) (A) (A) (B) (A) (B) (B) (A)
                 (A) (B) (B) (A) (A) (B) (B) (A) (B) (A) (B) (A)
                 (A) (B) (A) (B) (A) (A) (B) (B) (B) (B) (A) (B)
                 (A) (A) (B) (B) (A) (B) (A) (A) (B) (A) (A) (B)
                 (A) (B) (B) (A) (B) (A) (B) (A) (A) (B) (A) (B)
                 (A) (A) (B) (A) (B) (A) (B) (B) (A) (B) (B) (A)
                 (B) (A) (A) (A) (A) (B) (B) (B) (A) (B) (B) (A)
                 (A) (A) (B) (A) (B) (A) (B) (A) (A) (B) (A) (B)
                 (B) (B) (B) (A) (A) (B) (B) (A) (A) (B) (A) (B)
                 (A) (A) (B) (A) (B) (A) (B) (B) (A) (A) (A) (B)
                 (A) (B) (A) (B) (B) (A) (B) (A) (B) (A) (B) (A)
                 (B) (A) (B) (A) (B) (A) (B) (A) (B) (A) (B) (A)
                 (B) (A) (B) (A) (B) (A) (A) (B) (B) (A) (A) (B)
                 (A) (B) (A) (B) (A) (B) (B) (A) (B) (A) (A) (B)
                 (A) (B) (A) (B) (B) (A) (B) (A) (B) (B) (A) (B)
                 (A) (B) (B) (A) (A) (B) (A) (A) (A) (B) (B) (A)
                 (B) (B) (A) (A) (B) (A) (B) (A) (B) (A) (B) (A)
                 (B) (A) (B) (A) (B) (B) (B) (A) (B) (A) (B) (A)
                 (A) (A) (B) (A) (A) (A) (B) (B) (B) (A) (A) (B)
                 (A) (B) (B) (A) (B) (A) (A) (B) (B) (A) (B) (A)
                 (B) (B) (A) (B) (A) (A) (B) (A) (B) (A) (B) (A)
                 (B) (B) (A) (B) (B) (A) (A) (A) (B) (B) (B) (A)
                 (B) (A) (A) (B) (A) (A) (B) (A) (A) (B) (A) (B)
                 (A) (B) (B) (A) (A) (B) (B) (A) (A) (B) (B) (A)
                 (A) (B) (A) (B) (B) (A) (A) (B) (B) (A) (B) (A)
                 (A) (B) (A) (B) (B) (A) (A) (A) (B) (B) (A) (A)
                 (B) (A) (B) (A) (B) (A) (A) (B) (B) (B) (A) (B)
                 (A) (B) (B) (A) (B) (B) (A) (B) (A) (B) (A) (B)
                 (A) (B) (A) (A) (B) (B) (A) (A) (B) (A) (B) (A)
                 (B) (A) (B) (A) (B) (A) (B) (A) (B) (A) (B) (A)
                 (A) (B) (B) (A) (B) (A) (B) (B) (A) (B) (B) (A)
                 (A) (B) (A) (B) (A) (A) (B) (B) (A) (B) (A) (A)
                 (B) (A) (B) (A) (A) (B) (B) (A) (A) (B) (B) (A)
                 (B) (A) (B) (A) (B) (A) (A) (B) (B) (A) (B) (B)
                 (A) (B) (B) (A) (A) (B) (B) (A) (B) (A) (A) (B)
                 (B) (A) (B) (B) (A) (A) (B) (A) (A) (B) (A) (B)
                 (A) (A) (B) (B) (B) (A) (A) (B) (B) (A) (A) (A)
                 (B) (A) (A) (B) (A) (B) (A) (B) (B) (B) (A) (B)
                 (A) (B) (A) (B) (A) (A) (B) (A) (B) (A) (B) (A)
                 (B) (B) (B) (A) (A) (B) (A) (A) (B) (B) (B) (A)
                 (B) (A) (B) (A) (B) (A) (A) (A) (B) (B) (A) (A)
                 (A) (B) (B) (A) (B) (A) (A) (A) (B) (B) (A) (A)
                 (B) (A) (B) (A) (B) (A) (B) (A) (B) (A) (A) (B)
                 (B) (A) (B) (A) (B) (A) (B) (A) (B) (A) (A) (B)
                 (B) (B) (A) (B) (A) (B) (B) (A) (B) (A) (B) (A)
                 (B) (A) (A) (A) (A) (B) (B) (A) (B) (A) (B) (A)
                 (B) (A) (B) (B) (A) (B) (A) (A) (B) (A) (B) (B)
                 (B) (A) (B) (A) (B) (A) (B) (A) (B) (A) (B) (A)
                 (A) (B) (A) (B) (B) (A) (B) (A) (B) (A) (B) (A)
                 (A) (B) (A) (B) (A) (B) (A) (A) (B) (B) (A) (B)
                 (B) (A) (B) (B) (A) (A) (B) (A) (A) (B) (A) (B)
                 (A) (B) (A) (B) (B) (B) (A) (A) (B) (A) (B) (B)
                 (A) (A) (B) (A) (B) (A) (B) (B) (A) (B) (A) (A)
                 (B) (A) (A) (B) (A) (A) (A) (B) (B) (B) (A) (B)
                 (A) (B) (B) (A) (A) (A) (B) (B) (A) (B) (A) (A)
                 (B) (A) (A) (B) (B) (A) (B) (A) (B) (B) (A) (A)
                 (B) (A) (B) (A) (A) (B) (B) (B) (B) (A) (A) (B)
                 (A) (B) (A) (B) (A) (B) (B) (A) (A) (B) (B) (A)
                 (B) (A) (A) (B) (B) (A) (B) (A) (B) (A) (A) (B)
                 (A) (A) (B) (B) (A) (B) (A) (A) (B) (B) (A) (A)
                 (B) (A) (B) (A) (B) (B) (A) (B) (B) (A) (B) (A)
                 (A) (B) (A) (B) (A) (A) (B) (B) (B) (A) (B) (B)
                 (A) (A) (B) (A) (A) (B) (A) (B) (B) (A) (A) (B)
                 (B) (A) (B) (B) (A) (A) (B) (A) (B) (A) (B) (A)
                 (B) (A) (B) (A) (B) (A) (B) (A) (A) (A) (B) (A)
                 (B) (A) (B) (B) (A) (B) (B) (A) (A) (B) (A) (B)
                 (A) (B) (A) (A) (B) (B) (B) (A) (A) (A) (B) (B)
                 (A) (A) (B) (B) (A) (B) (A) (A) (B) (B) (A) (A)
                 (B) (B) (B) (A) (B) (A) (B) (B) (A) (A) (B) (A)
                 (A) (B) (B) (A) (B) (A) (B) (A) (B) (A) (A) (B)
                 (A) (B) (A) (A) (B) (B) (A) (A) (B) (B) (B) (A)
                 (B) (A) (A) (A) (B) (B) (A) (B) (A) (A) (B) (B)
                 (A) (B) (A) (B) (B) (A) (B) (A) (B) (A) (A) (B)
                 (A) (B) (B) (A) (A) (B) (A) (B) (A) (B) (A) (B)
                 (B) (A) (B) (A) (A) (A) (B) (B) (A) (A) (B) (A)
                 (B) (A) (B) (B) (A) (B) (A) (B) (B) (A) (A) (B)
                 (B) (A) (A) (A) (B) (B) (A) (A) (B) (A) (B) (A)
                 (B) (B) (B) (A) (A) (B) (B) (A) (B) (A) (B) (B)
                 (A) (A) (B) (A) (B) (A) (A) (B) (A) (B) (B) (B)
                 (A) (B) (A) (A) (B) (A) (B) (A) (B) (A) (B) (A)
                 (B) (A) (B) (A) (A) (B) (B) (A) (A) (B) (A) (B)
                 (B) (A) (A) (A) (B) (A) (B) (B) (A) (B) (A) (A)
                 (B) (B) (A) (B) (A) (B) (B) (A) (B) (A) (B) (A)
                 (B) (A) (B) (B) (A) (B) (A) (B) (A) (A) (B) (A)
                 (B) (B) (A) (B) (A) (A) (B) (A) (B) (A) (B) (A)
                 (B) (B) (A) (A) (B) (B) (A) (B) (B) (A) (B) (A)
                 (A) (A) (B) (A) (B) (A) (A) (B) (B) (A) (B) (A)
                 (B) (A) (B) (A) (B) (A) (B) (B) (A) (A) (B) (B)
                 (B) (A) (A) (A) (A) (B) (A) (B) (B) (B) (A) (B)
                 (A) (A) (B) (A) (B) (A) (B) (A) (B) (A) (B) (B)
                 (A) (B) (A) (B) (A) (B) (A) (B) (A) (A) (B) (A)
                 (A) (B) (B) (A) (B) (A) (B) (B) (A) (B) (B) (A)
                 (A) (B) (A) (B) (A) (A) (B) (B) (A) (A) (B) (A)
                 (B) (A) (A) (B) (A) (B) (A) (B) (A) (B) (A) (B)
                 (B) (A) (B) (A) (B) (A) (B) (A) (B) (A) (B) (A)
                 (B) (A) (B) (A) (A) (B) (B) (A) (B) (A) (B) (A)
                 (B) (A) (B) (A) (B) (A) (B) (B) (A) (A) (B) (B)
                 (A) (A) (B) (B) (A) (A) (B) (A) (B) (A) (B) (A)
                 (A) (B) (A) (B) (B) (A) (B) (A) (B) (A) (B) (A)
                 (B) (A) (B) (B) (A) (A) (A) (B) (B) (B) (A) (B)
                 (A) (B) (B) (A) (A) (B) (A) (A) (B) (B) (B) (A)
                 (A) (B) (A) (A) (B) (B) (A) (B) (A) (A) (B) (A)
                 (B) (B) (A) (A) (B) (A) (B) (B) (A) (A) (B) (B)
                 (A) (A) (B) (A) (B) (B) (A) (A) (A) (B) (B) (A)
                 (B) (A) (B) (A) (A) (B) (A) (B) (A) (A) (B) (A)
                 (B) (A) (B) (B) (A) (B) (A) (B) (A) (B) (A) (B)
                 (A) (A) (B) (A) (B) (A) (B) (B) (B) (A) (B) (A)
                 (A) (B) (A) (B) (A) (A) (B) (B) (B) (A) (B) (A)
                 (A) (B) (A) (B) (A) (B) (A) (B) (B) (A) (A) (B)
                 (B) (A) (A) (A) (B) (A) (B) (B) (A) (A) (B) (A)
                 (B) (B) (A) (B) (A) (B) (A) (A) (A) (B) (B) (A)
                 (B) (A) (B) (A) (B) (A) (B) (B) (A) (B) (A) (B)
                 (A) (A) (B) (B) (A) (B) (A) (B) (A) (B) (B) (A)
                 (A) (B) (A) (B) (B) (A) (A) (A) (B) (A) (B) (B)
                 (B) (A) (A) (B) (A) (B) (A) (A) (B) (B) (B) (A)
                 (A) (B) (A) (B) (A) (B) (A) (B) (B) (A) (B) (A)
                 (B) (A) (B) (B) (A) (A) (B) (A) (A) (B) (B) (B)
                 (A) (B) (A) (B) (A) (B) (B) (B) (A) (A) (B) (A)
                 (B) (A) (B) (A) (B) (A) (B) (A) (A) (B) (A) (B)
                 (A) (B) (B) (A) (A) (B) (A) (A) (B) (A) (B) (A)
                 (B) (A) (B) (A) (B) (A) (B) (A) (B) (A) (B) (A)
                 (B) (A) (A) (B) (B) (A) (A) (B) (A) (B) (A) (B)
                 (B) (B) (A) (B) (A) (B) (A) (A) (B) (B) (A) (B)
                 (A) (A) (A) (B) (A) (B) (A) (B) (B) (A) (A) (B)
                 (A) (B) (A) (B) (B) (A) (A) (B) (A) (B) (A) (B)
                 (B) (A) (B) (A) (B) (A) (A) (B) (A) (B) (B) (B)
                 (B) (A) (B) (A) (A) (B) (A) (A) (A) (B) (B) (B)
                 (A) (A) (B) (B) (A) (A) (B) (A) (B) (A) (B) (B)
                 (A) (B) (A) (A) (B) (A) (B) (B) (A) (B) (A) (B)
                 (B) (A) (A) (B) (B) (B) (A) (B) (A) (A) (A) (B)
                 (A) (B) (A) (A) (B) (A) (B) (A) (B) (A) (B) (A)
                 (A) (B) (B) (A) (B) (A) (B) (A) (A) (B) (A) (B)
                 (A) (B) (B) (A) (B) (B) (A) (B) (A) (B) (A) (B)
                 (A) (B) (A) (B) (A) (B) (A) (A) (B) (B) (A) (A)
                 (B) (A) (B) (A) (A) (B) (A) (B) (A) (B) (B) (A)
                 (B) (A) (A) (B) (B) (A) (B) (A) (A) (B) (A) (B)
                 (B) (A) (A) (B) (B) (A) (A) (B) (B) (A) (B) (A)
                 (A) (B) (A) (A) (A) (B) (B) (B) (A) (A) (B) (B)
                 (B) (A) (A) (B) (A) (B) (B) (A) (B) (A) (A) (B)
                 (B) (A) (A) (B) (A) (B) (B) (A) (B) (A) (B) (B)
                 (A) (B) (B) (A) (A) (A) (B) (A) (B) (A) (B) (A)
                 (B) (A) (B) (B) (A) (A) (A) (A) (B) (A) (B) (B)
                 (A) (B) (A) (B) (A) (B) (B) (A) (A) (B) (A) (B)
                 (A) (B) (A) (B) (B) (A) (B) (A) (A) (B) (A) (B)
                 (B) (A) (A) (B) (A) (B) (A) (B) (A) (A) (B) (A)
                 (B) (B) (A) (A) (B) (A) (B) (B) (A) (A) (B) (B)
                 (A) (B) (B) (A) (B) (A) (B) (A) (B) (A) (A) (B)
                 (B) (A) (B) (A) (B) (A) (B) (A) (A) (B) (A) (A)
                 (B) (B) (A) (B) (A) (B) (A) (B) (A) (B) (A) (B)
                 (A) (B) (A) (B) (A) (A) (B) (B) (A) (A) (B) (B)
                 (A) (B) (A) (A) (B) (A) (B) (B) (A) (A) (B) (B)
                 (A) (B) (A) (B) (B) (A) (A) (B) (B) (A) (A) (B)
                 (A) (B) (A) (A) (B) (B) (B) (B) (A) (A) (A) (B)
                 (B) (A) (B) (B) (A) (A) (A) (A) (B) (A) (B) (B)
                 (A) (B) (B) (A) (B) (A) (B) (A) (A) (B) (A) (B)
                 (B) (A) (B) (B) (A) (A) (A) (B) (A) (B) (A) (A)
                 (B) (B) (A) (B) (A) (A) (B) (B) (B) (A) (A) (B)
                 (B) (B) (A) (A) (B) (A) (B) (A) (B) (A) (B) (A)
                 (B) (A) (A) (B) (A) (B) (A) (A) (B) (A) (B) (B)
                 (A) (A) (B) (B) (A) (B) (A) (B) (B) (A) (B) (A)
                 (B) (A) (A) (B) (B) (A) (A) (B) (A) (A) (B) (A)
                 (B) (A) (B) (B) (A) (A) (A) (B) (B) (A) (B) (B)
                 (A) (B) (A) (A) (A) (B) (B) (B) (A) (B) (A) (A)
                 (B) (A) (B) (B) (A) (A) (B) (A) (B) (B) (B) (A)
                 (A) (A) (B) (A) (B) (A) (B) (B) (A) (A) (B) (B)
                 (A) (A) (B) (A) (B) (B) (A) (A) (B) (B) (A) (B)
                 (A) (B) (A) (B) (A) (B) (A) (A) (A) (B) (A) (B)
                 (B) (A) (A) (B) (A) (B) (A) (B) (B) (B) (A) (A)
                 (B) (B) (A) (A) (B) (B) (A) (A) (B) (A) (B) (A)
                 (B) (A) (B) (B) (A) (A) (B) (B) (A) (A) (B) (B)
                 (A) (B) (A) (A) (B) (A) (B) (A) (B) (B) (A) (A)
                 (B) (A) (B) (B) (A) (B) (A) (A) (B) (A) (B) (A)
                 (B) (A) (B) (A) (B) (A) (A) (B) (A) (B) (B) (A)
                 (B) (A) (B) (A) (B) (A) (B) (A) (B) (A) (B) (A)
                 (B) (B) (A) (B) (A) (B) (B) (A) (B) (A) (B) (A)
                 (B) (B) (A) (A) (B) (A) (A) (A) (B) (B) (A) (B)
                 (B) (A) (A) (B) (B) (A) (A) (A) (B) (B) (B) (B)
                 (A) (A) (B) (B) (A) (B) (A) (B) (A) (A) (B) (B)
                 (A) (A) (B) (B) (A) (A) (B) (B) (A) (B) (B) (A)
                 (A) (B) (A) (A) (B) (A) (B) (A) (B) (A) (B) (B)
                 (A) (B) (B) (A) (B) (B) (A) (A) (A) (B) (B) (A)
                 (A) (B) (A) (B) (A) (B) (A) (A) (B) (A) (B) (A)
                 (B) (B) (A) (B) (B) (B) (A) (B) (A) (A) (B) (A)
                 (A) (B) (A) (B) (A) (A) (B) (B) (A) (B) (A) (B)
                 (A) (B) (A) (A) (B) (A) (B) (A) (B) (A) (B) (A)
                 (B) (A) (B) (A) (B) (A) (B) (B) (A) (B) (A) (B)
                 (A) (B) (B) (A) (B) (A) (A) (B) (A) (B) (B) (A)
                 (A) (B) (A) (B) (A) (B) (A) (B) (B) (A) (A) (B)
                 (A) (B) (A) (B) (A) (B) (B) (A) (A) (B) (B) (A)
                 (B) (A) (B) (A) (A) (B) (A) (B) (A) (B) (A) (B)
                 (B) (A) (B) (A) (A) (B) (A) (B) (A) (B) (A) (B)
                 (A) (B) (B) (A) (A) (B) (B) (A) (A) (B) (A) (B)
                 (A) (B) (B) (A) (B) (B) (A) (B) (A) (B) (A) (A)
                 (B) (A) (B) (B) (A) (A) (B) (A) (B) (A) (A) (B)
                 (A) (B) (A) (B) (A) (B) (B) (A) (B) (A) (B) (A)
                 (A) (B) (A) (B) (A) (B) (A) (B) (A) (B) (A) (B)
                 (A) (A) (B) (B) (A) (B) (B) (A) (B) (A) (A) (B)
                 (A) (B) (A) (A) (B) (B) (A) (B) (A) (B) (B) (A)
                 (A) (B) (B) (A) (A) (B) (A) (A) (B) (B) (B) (A)
                 (A) (B) (A) (B) (B) (A) (A) (A) (B) (B) (A) (A)
                 (B) (B) (A) (B) (B) (A) (A) (B) (B) (A)
 The electronic state of the initial guess is 1-A.
 Leave Link  401 at Tue Apr 20 10:39:49 2021, MaxMem= 12079595520 cpu:            1579.3 elap:              33.0
 (Enter /s/ls4/groups/g0130/bin/g16/l502.exe)
 Integral symmetry usage will be decided dynamically.
 Closed shell SCF:
 Using DIIS extrapolation, IDIIS=  1040.
 NGot= 12079595520 LenX= 12053031866 LenY= 12039851336
 Requested convergence on RMS density matrix=1.00D-08 within 128 cycles.
 Requested convergence on MAX density matrix=1.00D-06.
 Requested convergence on             energy=1.00D-06.
 No special actions if energy rises.
 Fock matrices will be formed incrementally for  20 cycles.
 Integral accuracy reduced to 1.0D-05 until final iterations.

 Cycle   1  Pass 0  IDiag  1:
 FoFJK:  IHMeth= 1 ICntrl=       0 DoSepK=F KAlg= 0 I1Cent=           0 FoldK=F
 IRaf= 670000000 NMat=       1 IRICut=       1 DoRegI=T DoRafI=F ISym2E= 1 IDoP0=0 IntGTp=1.
 FoFCou: FMM=F IPFlag=           0 FMFlag=      100000 FMFlg1=        2000
         NFxFlg=           0 DoJE=F BraDBF=F KetDBF=F FulRan=T
         wScrn=  0.000000 ICntrl=         0 IOpCl=  0 I1Cent=           0 NGrid=           0
         NMat0=    1 NMatS0=      1 NMatT0=    0 NMatD0=    1 NMtDS0=    0 NMtDT0=    0
 Petite list used in FoFCou.
 E= -1315.85734036148    
 DIIS: error= 1.59D-02 at cycle   1 NSaved=   1.
 NSaved= 1 IEnMin= 1 EnMin= -1315.85734036148     IErMin= 1 ErrMin= 1.59D-02
 ErrMax= 1.59D-02  0.00D+00 EMaxC= 1.00D-01 BMatC= 1.74D+00 BMatP= 1.74D+00
 IDIUse=3 WtCom= 8.41D-01 WtEn= 1.59D-01
 Coeff-Com:  0.100D+01
 Coeff-En:   0.100D+01
 Coeff:      0.100D+01
 Gap=     0.249 Goal=   None    Shift=    0.000
 GapD=    0.249 DampG=1.000 DampE=0.500 DampFc=0.5000 IDamp=-1.
 Damping current iteration by 5.00D-01
 RMSDP=8.35D+01 MaxDP=3.30D+04              OVMax= 9.99D-01

 Problem detected with inexpensive integrals.
 Switching to full accuracy and repeating last cycle.
 Cycle   2  Pass 1  IDiag  1:
 E= -1315.85739644243     Delta-E=       -0.000056080946 Rises=F Damp=F
 DIIS: error= 1.59D-02 at cycle   1 NSaved=   1.
 NSaved= 1 IEnMin= 1 EnMin= -1315.85739644243     IErMin= 1 ErrMin= 1.59D-02
 ErrMax= 1.59D-02  0.00D+00 EMaxC= 1.00D-01 BMatC= 1.74D+00 BMatP= 1.74D+00
 IDIUse=3 WtCom= 8.41D-01 WtEn= 1.59D-01
 Coeff-Com:  0.100D+01
 Coeff-En:   0.100D+01
 Coeff:      0.100D+01
 Gap=     0.249 Goal=   None    Shift=    0.000
 GapD=    0.249 DampG=1.000 DampE=0.500 DampFc=0.5000 IDamp=-1.
 Damping current iteration by 5.00D-01
 RMSDP=1.12D-03 MaxDP=2.88D-01 DE=-5.61D-05 OVMax= 1.83D-01

 Cycle   3  Pass 1  IDiag  1:
 RMSU=  5.16D-04    CP:  8.85D-01
 E= -1316.38028436337     Delta-E=       -0.522887920944 Rises=F Damp=T
 DIIS: error= 8.30D-03 at cycle   2 NSaved=   2.
 NSaved= 2 IEnMin= 2 EnMin= -1316.38028436337     IErMin= 2 ErrMin= 8.30D-03
 ErrMax= 8.30D-03  0.00D+00 EMaxC= 1.00D-01 BMatC= 2.19D-01 BMatP= 1.74D+00
 IDIUse=3 WtCom= 9.17D-01 WtEn= 8.30D-02
 Coeff-Com: -0.153D+00 0.115D+01
 Coeff-En:   0.000D+00 0.100D+01
 Coeff:     -0.140D+00 0.114D+01
 Gap=     0.308 Goal=   None    Shift=    0.000
 GapD=    0.308 DampG=1.000 DampE=1.000 DampFc=1.0000 IDamp=-1.
 RMSDP=7.28D-04 MaxDP=3.04D-01 DE=-5.23D-01 OVMax= 1.18D-01

 Cycle   4  Pass 1  IDiag  1:
 RMSU=  5.93D-04    CP:  7.24D-01  1.54D+00
 E= -1316.82992298053     Delta-E=       -0.449638617156 Rises=F Damp=F
 DIIS: error= 4.80D-03 at cycle   3 NSaved=   3.
 NSaved= 3 IEnMin= 3 EnMin= -1316.82992298053     IErMin= 3 ErrMin= 4.80D-03
 ErrMax= 4.80D-03  0.00D+00 EMaxC= 1.00D-01 BMatC= 1.06D-01 BMatP= 2.19D-01
 IDIUse=3 WtCom= 9.52D-01 WtEn= 4.80D-02
 Coeff-Com: -0.156D+00 0.518D+00 0.637D+00
 Coeff-En:   0.000D+00 0.000D+00 0.100D+01
 Coeff:     -0.148D+00 0.493D+00 0.655D+00
 Gap=     0.256 Goal=   None    Shift=    0.000
 RMSDP=1.41D-04 MaxDP=3.50D-02 DE=-4.50D-01 OVMax= 7.39D-02

 Cycle   5  Pass 1  IDiag  1:
 RMSU=  1.38D-04    CP:  7.12D-01  1.54D+00  9.72D-01
 E= -1316.88090718868     Delta-E=       -0.050984208158 Rises=F Damp=F
 DIIS: error= 2.57D-03 at cycle   4 NSaved=   4.
 NSaved= 4 IEnMin= 4 EnMin= -1316.88090718868     IErMin= 4 ErrMin= 2.57D-03
 ErrMax= 2.57D-03  0.00D+00 EMaxC= 1.00D-01 BMatC= 3.61D-02 BMatP= 1.06D-01
 IDIUse=3 WtCom= 9.74D-01 WtEn= 2.57D-02
 Coeff-Com: -0.659D-01 0.151D+00 0.406D+00 0.508D+00
 Coeff-En:   0.000D+00 0.000D+00 0.283D+00 0.717D+00
 Coeff:     -0.642D-01 0.148D+00 0.403D+00 0.514D+00
 Gap=     0.246 Goal=   None    Shift=    0.000
 RMSDP=6.06D-05 MaxDP=6.80D-03 DE=-5.10D-02 OVMax= 4.07D-02

 Cycle   6  Pass 1  IDiag  1:
 RMSU=  4.44D-05    CP:  7.09D-01  1.55D+00  9.65D-01  7.06D-01
 E= -1316.90893753384     Delta-E=       -0.028030345159 Rises=F Damp=F
 DIIS: error= 4.42D-04 at cycle   5 NSaved=   5.
 NSaved= 5 IEnMin= 5 EnMin= -1316.90893753384     IErMin= 5 ErrMin= 4.42D-04
 ErrMax= 4.42D-04  0.00D+00 EMaxC= 1.00D-01 BMatC= 6.15D-04 BMatP= 3.61D-02
 IDIUse=3 WtCom= 9.96D-01 WtEn= 4.42D-03
 Coeff-Com: -0.207D-01 0.448D-01 0.147D+00 0.225D+00 0.603D+00
 Coeff-En:   0.000D+00 0.000D+00 0.000D+00 0.000D+00 0.100D+01
 Coeff:     -0.206D-01 0.446D-01 0.147D+00 0.224D+00 0.605D+00
 Gap=     0.243 Goal=   None    Shift=    0.000
 RMSDP=1.36D-05 MaxDP=2.83D-03 DE=-2.80D-02 OVMax= 9.50D-03

 Cycle   7  Pass 1  IDiag  1:
 RMSU=  1.27D-05    CP:  7.08D-01  1.54D+00  9.60D-01  7.26D-01  1.00D+00
 E= -1316.90942627784     Delta-E=       -0.000488743999 Rises=F Damp=F
 DIIS: error= 1.64D-04 at cycle   6 NSaved=   6.
 NSaved= 6 IEnMin= 6 EnMin= -1316.90942627784     IErMin= 6 ErrMin= 1.64D-04
 ErrMax= 1.64D-04  0.00D+00 EMaxC= 1.00D-01 BMatC= 9.41D-05 BMatP= 6.15D-04
 IDIUse=3 WtCom= 9.98D-01 WtEn= 1.64D-03
 Coeff-Com: -0.134D-02 0.259D-02 0.207D-01 0.476D-01 0.315D+00 0.615D+00
 Coeff-En:   0.000D+00 0.000D+00 0.000D+00 0.000D+00 0.871D-01 0.913D+00
 Coeff:     -0.134D-02 0.259D-02 0.206D-01 0.476D-01 0.315D+00 0.616D+00
 Gap=     0.243 Goal=   None    Shift=    0.000
 RMSDP=6.26D-06 MaxDP=1.03D-03 DE=-4.89D-04 OVMax= 3.59D-03

 Cycle   8  Pass 1  IDiag  1:
 RMSU=  5.70D-06    CP:  7.08D-01  1.54D+00  9.59D-01  7.25D-01  1.05D+00
                    CP:  1.06D+00
 E= -1316.90951109159     Delta-E=       -0.000084813744 Rises=F Damp=F
 DIIS: error= 4.61D-05 at cycle   7 NSaved=   7.
 NSaved= 7 IEnMin= 7 EnMin= -1316.90951109159     IErMin= 7 ErrMin= 4.61D-05
 ErrMax= 4.61D-05  0.00D+00 EMaxC= 1.00D-01 BMatC= 9.42D-06 BMatP= 9.41D-05
 IDIUse=1 WtCom= 1.00D+00 WtEn= 0.00D+00
 Coeff-Com:  0.162D-02-0.365D-02-0.520D-02-0.648D-03 0.912D-01 0.299D+00
 Coeff-Com:  0.617D+00
 Coeff:      0.162D-02-0.365D-02-0.520D-02-0.648D-03 0.912D-01 0.299D+00
 Coeff:      0.617D+00
 Gap=     0.243 Goal=   None    Shift=    0.000
 RMSDP=1.95D-06 MaxDP=5.45D-04 DE=-8.48D-05 OVMax= 9.14D-04

 Cycle   9  Pass 1  IDiag  1:
 RMSU=  1.34D-06    CP:  7.08D-01  1.54D+00  9.60D-01  7.28D-01  1.07D+00
                    CP:  1.12D+00  9.19D-01
 E= -1316.90951911324     Delta-E=       -0.000008021656 Rises=F Damp=F
 DIIS: error= 1.62D-05 at cycle   8 NSaved=   8.
 NSaved= 8 IEnMin= 8 EnMin= -1316.90951911324     IErMin= 8 ErrMin= 1.62D-05
 ErrMax= 1.62D-05  0.00D+00 EMaxC= 1.00D-01 BMatC= 1.07D-06 BMatP= 9.42D-06
 IDIUse=1 WtCom= 1.00D+00 WtEn= 0.00D+00
 Coeff-Com:  0.895D-03-0.196D-02-0.501D-02-0.774D-02-0.494D-02 0.448D-01
 Coeff-Com:  0.269D+00 0.705D+00
 Coeff:      0.895D-03-0.196D-02-0.501D-02-0.774D-02-0.494D-02 0.448D-01
 Coeff:      0.269D+00 0.705D+00
 Gap=     0.243 Goal=   None    Shift=    0.000
 RMSDP=5.50D-07 MaxDP=8.23D-05 DE=-8.02D-06 OVMax= 2.95D-04

 Cycle  10  Pass 1  IDiag  1:
 RMSU=  4.44D-07    CP:  7.08D-01  1.54D+00  9.60D-01  7.28D-01  1.07D+00
                    CP:  1.12D+00  9.48D-01  1.05D+00
 E= -1316.90952015552     Delta-E=       -0.000001042273 Rises=F Damp=F
 DIIS: error= 4.62D-06 at cycle   9 NSaved=   9.
 NSaved= 9 IEnMin= 9 EnMin= -1316.90952015552     IErMin= 9 ErrMin= 4.62D-06
 ErrMax= 4.62D-06  0.00D+00 EMaxC= 1.00D-01 BMatC= 1.07D-07 BMatP= 1.07D-06
 IDIUse=1 WtCom= 1.00D+00 WtEn= 0.00D+00
 Coeff-Com:  0.167D-03-0.385D-03-0.123D-02-0.282D-02-0.857D-02-0.553D-02
 Coeff-Com:  0.396D-01 0.260D+00 0.718D+00
 Coeff:      0.167D-03-0.385D-03-0.123D-02-0.282D-02-0.857D-02-0.553D-02
 Coeff:      0.396D-01 0.260D+00 0.718D+00
 Gap=     0.243 Goal=   None    Shift=    0.000
 RMSDP=2.70D-07 MaxDP=8.09D-05 DE=-1.04D-06 OVMax= 6.82D-05

 Cycle  11  Pass 1  IDiag  1:
 RMSU=  2.08D-07    CP:  7.08D-01  1.54D+00  9.60D-01  7.28D-01  1.07D+00
                    CP:  1.12D+00  9.45D-01  1.12D+00  1.18D+00
 E= -1316.90952025252     Delta-E=       -0.000000097000 Rises=F Damp=F
 DIIS: error= 1.47D-06 at cycle  10 NSaved=  10.
 NSaved=10 IEnMin=10 EnMin= -1316.90952025252     IErMin=10 ErrMin= 1.47D-06
 ErrMax= 1.47D-06  0.00D+00 EMaxC= 1.00D-01 BMatC= 1.46D-08 BMatP= 1.07D-07
 IDIUse=1 WtCom= 1.00D+00 WtEn= 0.00D+00
 Coeff-Com: -0.105D-03 0.213D-03 0.497D-03 0.364D-03-0.193D-02-0.910D-02
 Coeff-Com: -0.398D-01-0.440D-01 0.260D+00 0.834D+00
 Coeff:     -0.105D-03 0.213D-03 0.497D-03 0.364D-03-0.193D-02-0.910D-02
 Coeff:     -0.398D-01-0.440D-01 0.260D+00 0.834D+00
 Gap=     0.243 Goal=   None    Shift=    0.000
 RMSDP=1.24D-07 MaxDP=4.34D-05 DE=-9.70D-08 OVMax= 4.96D-05

 Cycle  12  Pass 1  IDiag  1:
 RMSU=  8.67D-08    CP:  7.08D-01  1.54D+00  9.60D-01  7.27D-01  1.07D+00
                    CP:  1.11D+00  9.42D-01  1.15D+00  1.30D+00  1.10D+00
 E= -1316.90952027190     Delta-E=       -0.000000019387 Rises=F Damp=F
 DIIS: error= 4.78D-07 at cycle  11 NSaved=  11.
 NSaved=11 IEnMin=11 EnMin= -1316.90952027190     IErMin=11 ErrMin= 4.78D-07
 ErrMax= 4.78D-07  0.00D+00 EMaxC= 1.00D-01 BMatC= 1.30D-09 BMatP= 1.46D-08
 IDIUse=1 WtCom= 1.00D+00 WtEn= 0.00D+00
 Coeff-Com: -0.408D-04 0.892D-04 0.220D-03 0.254D-03-0.196D-03-0.263D-02
 Coeff-Com: -0.155D-01-0.318D-01 0.238D-01 0.284D+00 0.742D+00
 Coeff:     -0.408D-04 0.892D-04 0.220D-03 0.254D-03-0.196D-03-0.263D-02
 Coeff:     -0.155D-01-0.318D-01 0.238D-01 0.284D+00 0.742D+00
 Gap=     0.243 Goal=   None    Shift=    0.000
 RMSDP=3.01D-08 MaxDP=1.20D-05 DE=-1.94D-08 OVMax= 1.01D-05

 Cycle  13  Pass 1  IDiag  1:
 RMSU=  2.40D-08    CP:  7.08D-01  1.54D+00  9.60D-01  7.28D-01  1.07D+00
                    CP:  1.11D+00  9.42D-01  1.16D+00  1.30D+00  1.13D+00
                    CP:  1.05D+00
 E= -1316.90952027348     Delta-E=       -0.000000001575 Rises=F Damp=F
 DIIS: error= 2.61D-07 at cycle  12 NSaved=  12.
 NSaved=12 IEnMin=12 EnMin= -1316.90952027348     IErMin=12 ErrMin= 2.61D-07
 ErrMax= 2.61D-07  0.00D+00 EMaxC= 1.00D-01 BMatC= 2.07D-10 BMatP= 1.30D-09
 IDIUse=1 WtCom= 1.00D+00 WtEn= 0.00D+00
 Coeff-Com:  0.418D-05-0.568D-05 0.430D-06 0.123D-04 0.174D-03 0.508D-03
 Coeff-Com:  0.413D-03-0.337D-02-0.314D-01-0.165D-01 0.266D+00 0.784D+00
 Coeff:      0.418D-05-0.568D-05 0.430D-06 0.123D-04 0.174D-03 0.508D-03
 Coeff:      0.413D-03-0.337D-02-0.314D-01-0.165D-01 0.266D+00 0.784D+00
 Gap=     0.243 Goal=   None    Shift=    0.000
 RMSDP=1.43D-08 MaxDP=5.52D-06 DE=-1.58D-09 OVMax= 5.72D-06

 Cycle  14  Pass 1  IDiag  1:
 RMSU=  1.07D-08    CP:  7.08D-01  1.54D+00  9.60D-01  7.28D-01  1.07D+00
                    CP:  1.11D+00  9.41D-01  1.16D+00  1.30D+00  1.13D+00
                    CP:  1.03D+00  1.20D+00
 E= -1316.90952027379     Delta-E=       -0.000000000310 Rises=F Damp=F
 DIIS: error= 4.39D-08 at cycle  13 NSaved=  13.
 NSaved=13 IEnMin=13 EnMin= -1316.90952027379     IErMin=13 ErrMin= 4.39D-08
 ErrMax= 4.39D-08  0.00D+00 EMaxC= 1.00D-01 BMatC= 1.66D-11 BMatP= 2.07D-10
 IDIUse=1 WtCom= 1.00D+00 WtEn= 0.00D+00
 Coeff-Com:  0.408D-05-0.828D-05-0.113D-04-0.146D-04 0.595D-04 0.380D-03
 Coeff-Com:  0.127D-02 0.222D-02-0.978D-02-0.308D-01-0.225D-01 0.174D+00
 Coeff-Com:  0.885D+00
 Coeff:      0.408D-05-0.828D-05-0.113D-04-0.146D-04 0.595D-04 0.380D-03
 Coeff:      0.127D-02 0.222D-02-0.978D-02-0.308D-01-0.225D-01 0.174D+00
 Coeff:      0.885D+00
 Gap=     0.243 Goal=   None    Shift=    0.000
 RMSDP=4.79D-09 MaxDP=1.47D-06 DE=-3.10D-10 OVMax= 2.46D-06

 Cycle  15  Pass 1  IDiag  1:
 RMSU=  2.75D-09    CP:  7.08D-01  1.54D+00  9.60D-01  7.28D-01  1.07D+00
                    CP:  1.11D+00  9.41D-01  1.16D+00  1.30D+00  1.13D+00
                    CP:  1.04D+00  1.28D+00  1.19D+00
 E= -1316.90952027376     Delta-E=        0.000000000025 Rises=F Damp=F
 DIIS: error= 2.47D-08 at cycle  14 NSaved=  14.
 NSaved=14 IEnMin=13 EnMin= -1316.90952027379     IErMin=14 ErrMin= 2.47D-08
 ErrMax= 2.47D-08  0.00D+00 EMaxC= 1.00D-01 BMatC= 2.58D-12 BMatP= 1.66D-11
 IDIUse=1 WtCom= 1.00D+00 WtEn= 0.00D+00
 Coeff-Com:  0.106D-05-0.242D-05-0.221D-05-0.304D-05 0.205D-04 0.133D-03
 Coeff-Com:  0.440D-03 0.109D-02-0.169D-02-0.112D-01-0.331D-01 0.722D-02
 Coeff-Com:  0.382D+00 0.655D+00
 Coeff:      0.106D-05-0.242D-05-0.221D-05-0.304D-05 0.205D-04 0.133D-03
 Coeff:      0.440D-03 0.109D-02-0.169D-02-0.112D-01-0.331D-01 0.722D-02
 Coeff:      0.382D+00 0.655D+00
 Gap=     0.243 Goal=   None    Shift=    0.000
 RMSDP=1.37D-09 MaxDP=3.24D-07 DE= 2.46D-11 OVMax= 7.74D-07

 SCF Done:  E(RM062X) =  -1316.90952027     A.U. after   15 cycles
            NFock= 15  Conv=0.14D-08     -V/T= 2.0052
 KE= 1.310076148191D+03 PE=-1.005924737551D+04 EE= 3.934084313740D+03
 Leave Link  502 at Tue Apr 20 15:24:29 2021, MaxMem= 12079595520 cpu:          819576.3 elap:           17079.8
 (Enter /s/ls4/groups/g0130/bin/g16/l601.exe)
 Copying SCF densities to generalized density rwf, IOpCl= 0 IROHF=0.

 **********************************************************************

            Population analysis using the SCF density.

 **********************************************************************

 Orbital symmetries:
       Occupied  (B) (A) (B) (A) (B) (A) (B) (A) (B) (A) (A) (B)
                 (A) (B) (B) (A) (A) (B) (B) (A) (A) (B) (B) (A)
                 (B) (A) (B) (A) (B) (A) (A) (B) (B) (A) (A) (B)
                 (A) (B) (A) (A) (B) (B) (A) (B) (A) (A) (B) (B)
                 (A) (A) (B) (B) (A) (A) (B) (A) (B) (B) (A) (A)
                 (A) (B) (A) (B) (A) (B) (A) (B) (B) (B) (A) (A)
                 (A) (B) (A) (B) (A) (B) (A) (B) (B) (A) (B) (A)
                 (B) (A) (B) (A) (B) (A) (A) (B) (B) (A) (A) (B)
                 (B) (A) (B) (A) (B) (A) (B) (A) (B) (B) (B) (A)
                 (A) (A) (B) (A) (B) (A) (B)
       Virtual   (A) (B) (A) (A) (A) (B) (B) (A) (B) (A) (B) (A)
                 (B) (B) (A) (A) (B) (A) (B) (A) (B) (A) (B) (B)
                 (A) (B) (A) (B) (A) (B) (A) (A) (B) (B) (A) (A)
                 (B) (A) (A) (B) (B) (A) (B) (A) (B) (A) (A) (B)
                 (A) (B) (A) (B) (B) (A) (B) (A) (B) (A) (A) (B)
                 (A) (B) (A) (A) (B) (A) (B) (A) (B) (B) (A) (B)
                 (A) (B) (A) (B) (A) (B) (A) (B) (A) (B) (A) (A)
                 (B) (A) (B) (A) (B) (A) (A) (B) (B) (A) (B) (B)
                 (A) (B) (A) (B) (A) (B) (B) (A) (B) (A) (B) (B)
                 (A) (B) (A) (B) (A) (B) (A) (A) (B) (A) (B) (B)
                 (B) (A) (A) (A) (B) (B) (A) (B) (A) (A) (B) (B)
                 (A) (A) (A) (B) (A) (B) (A) (B) (A) (B) (A) (A)
                 (B) (B) (A) (A) (B) (B) (A) (B) (A) (A) (B) (A)
                 (B) (A) (B) (B) (B) (A) (A) (A) (B) (B) (A) (B)
                 (B) (A) (B) (A) (B) (A) (B) (A) (B) (A) (B) (A)
                 (B) (A) (B) (A) (B) (A) (B) (B) (A) (A) (B) (A)
                 (B) (A) (B) (A) (B) (A) (B) (A) (B) (A) (A) (B)
                 (A) (A) (B) (B) (A) (B) (B) (A) (A) (B) (B) (A)
                 (B) (B) (A) (A) (A) (A) (B) (A) (B) (A) (B) (A)
                 (B) (B) (A) (B) (B) (B) (A) (B) (A) (A) (B) (A)
                 (B) (B) (A) (A) (B) (B) (A) (A) (A) (B) (B) (B)
                 (A) (B) (A) (B) (A) (A) (B) (B) (A) (B) (A) (A)
                 (B) (B) (A) (B) (A) (A) (B) (B) (B) (A) (A) (B)
                 (A) (B) (A) (B) (A) (A) (B) (A) (B) (B) (A) (A)
                 (B) (B) (A) (B) (A) (A) (A) (B) (A) (A) (B) (B)
                 (B) (A) (B) (B) (A) (A) (B) (B) (A) (B) (A) (B)
                 (A) (B) (A) (A) (B) (B) (A) (B) (A) (A) (B) (A)
                 (B) (A) (B) (A) (A) (B) (B) (A) (B) (A) (B) (B)
                 (A) (B) (A) (A) (A) (B) (B) (B) (A) (B) (A) (B)
                 (B) (A) (A) (A) (B) (B) (A) (A) (B) (A) (B) (A)
                 (B) (B) (A) (A) (A) (B) (B) (B) (A) (B) (A) (B)
                 (A) (B) (A) (B) (A) (A) (B) (A) (B) (A) (B) (A)
                 (B) (A) (A) (B) (B) (A) (A) (B) (A) (B) (B) (B)
                 (A) (A) (B) (A) (B) (B) (A) (B) (A) (B) (A) (A)
                 (B) (A) (B) (A) (B) (A) (A) (B) (A) (B) (A) (A)
                 (B) (B) (A) (B) (B) (A) (B) (A) (A) (B) (A) (B)
                 (A) (B) (A) (B) (B) (A) (A) (B) (B) (A) (B) (A)
                 (B) (A) (B) (B) (A) (B) (A) (A) (B) (B) (B) (A)
                 (B) (A) (A) (B) (B) (A) (A) (A) (B) (A) (B) (B)
                 (A) (B) (A) (B) (A) (B) (B) (A) (B) (B) (A) (A)
                 (B) (B) (A) (B) (A) (A) (B) (A) (B) (B) (A) (A)
                 (B) (A) (B) (B) (A) (A) (A) (B) (B) (A) (A) (A)
                 (B) (A) (B) (B) (B) (A) (B) (A) (B) (A) (B) (A)
                 (A) (B) (A) (B) (A) (B) (A) (A) (B) (A) (B) (A)
                 (B) (A) (B) (A) (A) (B) (A) (B) (B) (B) (B) (A)
                 (A) (B) (A) (B) (A) (B) (B) (A) (A) (B) (A) (A)
                 (B) (A) (B) (A) (B) (A) (A) (B) (B) (A) (B) (A)
                 (A) (B) (A) (B) (B) (A) (A) (B) (B) (A) (A) (B)
                 (A) (B) (A) (B) (B) (A) (B) (A) (B) (A) (B) (A)
                 (B) (B) (A) (A) (A) (B) (A) (B) (B) (A) (B) (A)
                 (A) (A) (B) (A) (B) (B) (B) (A) (B) (A) (B) (A)
                 (A) (B) (A) (B) (B) (B) (A) (B) (A) (A) (B) (B)
                 (A) (B) (B) (A) (A) (A) (B) (A) (B) (A) (B) (B)
                 (A) (B) (A) (A) (B) (A) (A) (B) (B) (A) (B) (A)
                 (B) (B) (A) (A) (B) (B) (A) (B) (B) (A) (B) (A)
                 (A) (A) (A) (B) (A) (B) (A) (B) (A) (B) (A) (B)
                 (B) (B) (A) (A) (B) (A) (B) (A) (B) (A) (B) (A)
                 (B) (B) (A) (B) (A) (B) (A) (A) (B) (A) (B) (B)
                 (A) (B) (A) (B) (A) (B) (A) (B) (A) (B) (B) (A)
                 (A) (B) (A) (B) (A) (A) (B) (A) (B) (B) (A) (A)
                 (B) (A) (A) (B) (A) (B) (A) (B) (A) (B) (A) (B)
                 (A) (A) (B) (B) (A) (B) (A) (B) (A) (B) (A) (A)
                 (B) (A) (A) (B) (B) (B) (A) (B) (B) (A) (A) (B)
                 (A) (B) (A) (B) (B) (A) (A) (B) (A) (B) (B) (A)
                 (B) (A) (B) (B) (B) (A) (B) (A) (A) (B) (A) (B)
                 (A) (B) (A) (B) (A) (B) (A) (B) (A) (A) (B) (A)
                 (B) (A) (B) (A) (A) (B) (A) (B) (B) (A) (A) (B)
                 (A) (B) (B) (A) (B) (A) (B) (B) (A) (B) (A) (B)
                 (A) (B) (B) (A) (A) (B) (A) (A) (B) (A) (B) (A)
                 (A) (B) (B) (A) (B) (A) (A) (B) (A) (B) (A) (B)
                 (A) (B) (A) (B) (A) (A) (B) (B) (B) (B) (A) (B)
                 (B) (A) (B) (A) (B) (A) (B) (A) (A) (B) (B) (A)
                 (B) (A) (B) (B) (A) (A) (A) (B) (A) (B) (A) (B)
                 (A) (B) (A) (B) (B) (B) (A) (A) (A) (B) (A) (A)
                 (B) (A) (A) (B) (B) (A) (B) (A) (B) (A) (B) (B)
                 (A) (A) (B) (B) (A) (B) (A) (A) (B) (A) (B) (B)
                 (A) (B) (A) (B) (A) (B) (A) (B) (A) (A) (B) (B)
                 (A) (B) (B) (A) (A) (B) (A) (A) (B) (A) (B) (A)
                 (A) (B) (B) (A) (A) (B) (A) (A) (B) (A) (B) (A)
                 (B) (B) (A) (B) (B) (A) (B) (A) (A) (A) (B) (A)
                 (B) (A) (B) (B) (A) (A) (B) (A) (B) (B) (A) (A)
                 (B) (A) (B) (B) (B) (A) (A) (B) (B) (B) (A) (A)
                 (A) (B) (A) (A) (B) (A) (A) (B) (A) (B) (B) (A)
                 (B) (B) (A) (A) (B) (B) (A) (A) (A) (B) (B) (B)
                 (A) (B) (A) (B) (A) (B) (B) (A) (B) (A) (B) (A)
                 (B) (B) (A) (A) (B) (B) (A) (A) (B) (A) (A) (B)
                 (B) (A) (B) (A) (A) (B) (B) (A) (A) (A) (B) (B)
                 (A) (B) (B) (A) (B) (A) (B) (A) (B) (A) (A) (B)
                 (A) (B) (B) (A) (B) (A) (B) (A) (B) (A) (B) (A)
                 (B) (A) (B) (A) (B) (A) (B) (B) (A) (B) (A) (A)
                 (B) (A) (B) (A) (A) (A) (B) (A) (B) (B) (A) (A)
                 (B) (A) (B) (A) (B) (A) (B) (A) (B) (B) (A) (B)
                 (A) (A) (A) (B) (B) (A) (B) (A) (B) (A) (B) (B)
                 (B) (A) (A) (B) (A) (B) (B) (A) (A) (B) (A) (B)
                 (A) (B) (B) (A) (B) (A) (B) (A) (B) (A) (B) (A)
                 (A) (B) (B) (A) (B) (A) (B) (A) (B) (B) (A) (A)
                 (A) (B) (A) (B) (A) (B) (A) (B) (A) (B) (A) (A)
                 (B) (A) (B) (A) (A) (B) (B) (B) (A) (B) (A) (B)
                 (A) (B) (B) (A) (A) (B) (B) (B) (A) (B) (A) (B)
                 (A) (A) (B) (A) (B) (A) (B) (A) (B) (B) (A) (A)
                 (B) (A) (A) (B) (B) (B) (A) (A) (A) (B) (B) (A)
                 (A) (B) (B) (A) (A) (B) (A) (B) (B) (A) (B) (B)
                 (A) (B) (A) (A) (A) (B) (A) (B) (A) (B) (A) (B)
                 (A) (A) (A) (B) (B) (A) (B) (B) (A) (A) (B) (B)
                 (B) (A) (A) (A) (B) (B) (B) (A) (B) (A) (B) (A)
                 (B) (A) (B) (B) (A) (A) (B) (B) (A) (A) (B) (B)
                 (A) (A) (A) (B) (B) (A) (B) (A) (A) (B) (A) (B)
                 (A) (B) (B) (A) (A) (B) (A) (B) (B) (A) (A) (B)
                 (B) (A) (A) (B) (A) (A) (B) (B) (A) (B) (A) (B)
                 (B) (A) (B) (A) (A) (B) (A) (A) (B) (B) (B) (A)
                 (A) (B) (A) (B) (A) (A) (B) (A) (B) (B) (A) (B)
                 (B) (A) (B) (A) (A) (B) (A) (A) (B) (B) (A) (A)
                 (B) (A) (B) (B) (A) (B) (B) (A) (B) (A) (A) (B)
                 (A) (A) (B) (B) (A) (A) (B) (B) (A) (B) (A) (A)
                 (B) (B) (B) (A) (A) (B) (B) (B) (A) (B) (A) (B)
                 (A) (B) (A) (A) (B) (B) (A) (A) (B) (A) (B) (B)
                 (A) (B) (A) (A) (B) (A) (A) (B) (A) (B) (B) (B)
                 (A) (A) (B) (B) (A) (A) (B) (A) (B) (A) (B) (A)
                 (B) (A) (A) (A) (B) (B) (A) (B) (A) (A) (B) (A)
                 (B) (B) (B) (A) (A) (B) (B) (A) (B) (A) (A) (B)
                 (A) (B) (B) (B) (A) (B) (A) (B) (A) (A) (B) (A)
                 (B) (A) (B) (B) (A) (A) (A) (B) (B) (B) (A) (A)
                 (B) (A) (B) (B) (A) (B) (A) (A) (B) (B) (A) (A)
                 (B) (A) (A) (A) (B) (B) (A) (B) (B) (A) (B) (A)
                 (B) (A) (B) (A) (B) (B) (A) (B) (A) (B) (A) (B)
                 (A) (A) (B) (A) (B) (A) (B) (B) (A) (A) (B) (A)
                 (B) (A) (B) (B) (A) (B) (A) (B) (A) (B) (A) (B)
                 (A) (B) (B) (A) (A) (B) (A) (A) (B) (B) (A) (A)
                 (A) (B) (B) (B) (B) (A) (B) (A) (A) (B) (A) (B)
                 (A) (A) (B) (B) (A) (A) (B) (B) (A) (A) (A) (B)
                 (A) (B) (A) (A) (A) (B) (B) (B) (A) (B) (B) (A)
                 (B) (A) (A) (B) (A) (B) (A) (A) (B) (B) (A) (B)
                 (B) (A) (B) (A) (B) (A) (B) (A) (B) (A) (B) (A)
                 (B) (B) (A) (A) (B) (A) (B) (A) (B) (B) (A) (A)
                 (B) (A) (B) (A) (B) (A) (B) (A) (A) (B) (B) (A)
                 (B) (A) (B) (A) (B) (B) (A) (A) (B) (B) (A) (A)
                 (B) (A) (B) (A) (B) (A) (B) (A) (B) (A) (B) (A)
                 (B) (A) (B) (A) (B) (B) (A) (A) (B) (B) (A) (A)
                 (B) (B) (A) (B) (A) (A) (B) (B) (A) (B) (A) (A)
                 (B) (B) (A) (A) (B) (B) (A) (B) (B) (A) (A) (B)
                 (A) (A) (B) (B) (A) (B) (A) (A) (B) (A) (B) (A)
                 (B) (B) (A) (B) (A) (A) (A) (B) (B) (A) (A) (A)
                 (B) (B) (A) (B) (A) (B) (B) (A) (A) (B) (B) (A)
                 (A) (B) (B) (A) (A) (A) (B) (B) (A) (B) (A) (B)
                 (A) (B) (B) (A) (B) (A) (A) (B) (B) (A) (A) (B)
                 (A) (B) (B) (A) (A) (B) (A) (B) (A) (B) (A) (B)
                 (A) (A) (B) (A) (B) (A) (B) (A) (B) (B) (A) (A)
                 (B) (A) (B) (A) (B) (A) (A) (B) (A) (B) (B) (B)
                 (A) (A) (B) (A) (B) (B) (A) (B) (B) (A) (B) (A)
                 (A) (A) (B) (B) (A) (B) (A) (B) (A) (B) (A) (B)
                 (A) (B) (A) (B) (B) (A) (A) (B) (A) (B) (A) (B)
                 (B) (A) (B) (A) (A) (B) (A) (B) (B) (A) (A) (B)
                 (A) (B) (B) (A) (A) (B) (A) (B) (A) (B) (B) (A)
                 (B) (B) (A) (B) (A) (A) (B) (A) (B) (A) (B) (A)
                 (B) (B) (B) (A) (A) (B) (A) (B) (A) (B) (B) (A)
                 (B) (A) (B) (B) (A) (A) (A) (B) (A) (B) (B) (A)
                 (A) (B) (A) (B) (B) (A) (A) (B) (A) (B) (A) (A)
                 (B) (A) (A) (B) (A) (A) (B) (B) (A) (B) (A) (B)
                 (B) (A) (B) (A) (B) (A) (B) (B) (A) (A) (B) (A)
                 (B) (B) (A) (A) (B) (B) (A) (B) (A) (A) (B) (A)
                 (B) (A) (A) (A) (B) (A) (B) (B) (B) (A) (B) (A)
                 (A) (B) (A) (B) (A) (B) (B) (A) (B) (A) (B) (A)
                 (B) (B) (A) (A) (B) (A) (A) (B) (A) (B) (B) (B)
                 (A) (B) (A) (B) (A) (A) (B) (A) (A) (B) (B) (B)
                 (A) (A) (B) (B) (A) (A) (A) (B) (B) (A) (B) (B)
                 (A) (A) (B) (A) (B) (B) (B) (A) (B) (A) (A) (B)
                 (B) (A) (B) (A) (A) (B) (B) (A) (B) (A) (A) (B)
                 (B) (A) (B) (A) (A) (B) (A) (A) (B) (A) (B) (B)
                 (A) (A) (B) (A) (A) (B) (B) (A) (B) (A) (A) (B)
                 (A) (B) (A) (B) (B) (A) (B) (A) (B) (B) (A) (B)
                 (B) (A) (A) (A) (B) (B) (A) (A) (B) (A) (A) (B)
                 (A) (B) (B) (A) (A) (A) (B) (B) (A) (B) (A) (B)
                 (A) (B) (A) (B) (A) (B) (B) (A) (A) (B) (B) (A)
                 (A) (A) (A) (B) (B) (A) (B) (B) (A) (B) (B) (A)
                 (B) (A) (B) (A) (A) (B) (B) (A) (B) (A) (A) (B)
                 (A) (B) (A) (B) (A) (B) (A) (B) (B) (A) (A) (B)
                 (B) (B) (A) (A) (B) (A) (A) (B) (A) (B) (A) (B)
                 (B) (A) (A) (B) (B) (A) (B) (A) (A) (B) (B) (B)
                 (A) (A) (B) (A) (B) (A) (B) (A) (A) (A) (A) (B)
                 (B) (B) (A) (A) (B) (A) (B) (B) (A) (B) (B) (A)
                 (B) (A) (B) (A) (B) (A) (A) (B) (A) (B) (A) (B)
                 (A) (B) (A) (B) (A) (B) (A) (A) (B) (B) (B) (A)
                 (A) (A) (A) (B) (B) (B) (B) (A) (A) (A) (B) (B)
                 (A) (B) (A) (B) (A) (B) (B) (A) (A) (B) (B) (A)
                 (A) (B) (B) (A) (B) (A) (B) (A) (B) (A) (A) (B)
                 (A) (B) (A) (A) (B) (A) (B) (B) (A) (B) (A) (A)
                 (B) (A) (B) (A) (B) (A) (B) (B) (A) (B) (A) (B)
                 (B) (A) (A) (A) (B) (A) (B) (B) (A) (B) (A) (B)
                 (A) (B) (A) (B) (B) (A) (B) (A) (A) (B) (B) (A)
                 (B) (A) (B) (A) (A) (B) (B) (A) (B) (B) (A) (A)
                 (B) (A) (A) (A) (B) (A) (A) (B) (B) (A) (B) (B)
                 (A) (A) (B) (B) (A) (B) (A) (B) (B) (A) (B) (B)
                 (A) (A) (A) (B) (A) (B) (A) (A) (B) (B) (B) (A)
                 (B) (A) (A) (B) (B) (A) (A) (B) (A) (B) (A) (B)
                 (B) (B) (A) (A) (B) (A) (A) (B) (B) (A) (A) (B)
                 (B) (A) (B) (A) (B) (A) (A) (B) (A) (A) (B) (B)
                 (A) (A) (B) (A) (B) (A) (B) (B) (A) (A) (B) (B)
                 (B) (A) (A) (B) (A) (A) (B) (B) (A) (B) (A) (B)
                 (B) (A) (A) (B) (A) (A) (A) (B) (B) (A) (A) (B)
                 (B) (B) (A) (A) (B) (B) (A) (B) (A) (A) (B) (A)
                 (B) (B) (A) (B) (A) (B) (A) (A) (A) (B) (B) (A)
                 (B) (B) (A) (B) (A) (A) (B) (A) (B) (B) (A) (A)
                 (B) (A) (B) (B) (A) (A) (B) (A) (B) (B) (A) (B)
                 (A) (A) (B) (A) (A) (B) (A) (B) (A) (B) (A) (A)
                 (B) (A) (B) (B) (A) (B) (B) (A) (B) (A) (B) (B)
                 (A) (A) (B) (B) (A) (A) (B) (A) (B) (B) (A) (B)
                 (A) (B) (A) (A) (B) (B) (A) (A) (B) (A) (B) (A)
                 (B) (B) (A) (A) (B) (B) (A) (A) (A) (B) (B) (B)
                 (A) (B) (A) (A) (B) (B) (A) (A) (B) (A) (B) (A)
                 (B) (A) (B) (B) (A) (A) (B) (B) (A) (A) (B) (B)
                 (A) (A) (B) (A) (B) (A) (B) (A) (B) (B) (A) (B)
                 (A) (B) (A) (B) (B) (A) (B) (A) (A) (B) (B) (B)
                 (A) (A) (B) (A) (A) (A) (B) (B) (A) (B) (A) (B)
                 (B) (A) (B) (A) (A) (B) (A) (B) (A) (B) (B) (A)
                 (A) (B) (B) (A) (B) (B) (A) (A) (B) (B) (A) (A)
                 (B) (A) (B) (B) (A) (A) (B) (A) (B) (B) (A) (B)
                 (A) (A) (B) (A) (B) (A) (A) (B) (B) (A) (B) (A)
                 (B) (B) (B) (A) (A) (B) (B) (A) (B) (A) (A) (B)
                 (A) (B) (A) (B) (B) (A) (A) (B) (A) (A) (B) (A)
                 (B) (B) (A) (B) (A) (B) (B) (A) (B) (A) (A) (B)
                 (A) (B) (A) (B) (A) (A) (B) (A) (B) (A) (B) (B)
                 (A) (A) (A) (B) (B) (A) (B) (A) (B) (A) (B) (A)
                 (A) (B) (B) (A) (B) (B) (B) (A) (A) (B) (B) (A)
                 (B) (A) (B) (A) (B) (A) (B) (B) (A) (A) (A) (B)
                 (A) (B) (A) (A) (B) (B) (A) (B) (B) (A) (A) (B)
                 (A) (B) (A) (B) (A) (B) (B) (A) (A) (B) (B) (A)
                 (B) (A) (A) (B) (A) (B) (A) (B) (A) (B) (A) (B)
                 (A) (B) (B) (A) (A) (B) (B) (A) (A) (B) (A) (B)
                 (A) (B) (B) (A) (A) (B) (A) (B) (A) (B) (A) (B)
                 (B) (A) (B) (A) (B) (A) (B) (A) (B) (A) (B) (B)
                 (A) (A) (B) (A) (B) (A) (B) (A) (B) (A) (A) (B)
                 (A) (B) (B) (A) (A) (B) (B) (A) (B) (A) (A) (B)
                 (A) (B) (A) (B) (A) (B) (A) (B) (B) (A) (A) (B)
                 (A) (A) (B) (B) (A) (B) (B) (A) (B) (A) (A) (B)
                 (A) (B) (A) (A) (B) (B) (A) (B) (A) (B) (B) (A)
                 (A) (B) (B) (A) (A) (B) (A) (A) (B) (B) (B) (A)
                 (A) (B) (A) (B) (B) (A) (A) (B) (A) (A) (B) (B)
                 (A) (B) (A) (B) (B) (A) (A) (B) (B) (A)
 The electronic state is 1-A.
 Alpha  occ. eigenvalues --  -19.66889 -19.66889 -19.61692 -19.61692 -10.67987
 Alpha  occ. eigenvalues --  -10.67987 -10.59570 -10.59570 -10.57688 -10.57688
 Alpha  occ. eigenvalues --  -10.57286 -10.57227 -10.56945 -10.56945 -10.56788
 Alpha  occ. eigenvalues --  -10.56787 -10.56374 -10.56302 -10.53503 -10.53503
 Alpha  occ. eigenvalues --  -10.53276 -10.53276 -10.52956 -10.52956 -10.52885
 Alpha  occ. eigenvalues --  -10.52885 -10.52738 -10.52738 -10.51637 -10.51637
 Alpha  occ. eigenvalues --   -1.22900  -1.22062  -1.13754  -1.13546  -0.98166
 Alpha  occ. eigenvalues --   -0.93230  -0.92833  -0.90985  -0.90293  -0.85908
 Alpha  occ. eigenvalues --   -0.83951  -0.81244  -0.80402  -0.79054  -0.78772
 Alpha  occ. eigenvalues --   -0.77956  -0.77923  -0.77006  -0.76945  -0.76777
 Alpha  occ. eigenvalues --   -0.76544  -0.72044  -0.71332  -0.66870  -0.66664
 Alpha  occ. eigenvalues --   -0.63839  -0.63303  -0.61609  -0.60607  -0.59797
 Alpha  occ. eigenvalues --   -0.57040  -0.56685  -0.56103  -0.56078  -0.55412
 Alpha  occ. eigenvalues --   -0.54999  -0.53823  -0.53822  -0.53255  -0.52130
 Alpha  occ. eigenvalues --   -0.52106  -0.51580  -0.51203  -0.50423  -0.49713
 Alpha  occ. eigenvalues --   -0.49267  -0.49007  -0.48731  -0.48272  -0.48213
 Alpha  occ. eigenvalues --   -0.47007  -0.46592  -0.46055  -0.45625  -0.45268
 Alpha  occ. eigenvalues --   -0.44588  -0.44330  -0.44288  -0.43904  -0.43703
 Alpha  occ. eigenvalues --   -0.43590  -0.43341  -0.42927  -0.42924  -0.42307
 Alpha  occ. eigenvalues --   -0.42300  -0.42023  -0.41668  -0.40304  -0.40114
 Alpha  occ. eigenvalues --   -0.39591  -0.39530  -0.38681  -0.38171  -0.38119
 Alpha  occ. eigenvalues --   -0.37919  -0.37541  -0.37363  -0.37166  -0.36605
 Alpha  occ. eigenvalues --   -0.36420  -0.34958  -0.34352  -0.27559  -0.26880
 Alpha virt. eigenvalues --   -0.02549   0.00256   0.02693   0.03338   0.03964
 Alpha virt. eigenvalues --    0.04287   0.04697   0.05292   0.05972   0.06034
 Alpha virt. eigenvalues --    0.06074   0.06595   0.06612   0.07287   0.07602
 Alpha virt. eigenvalues --    0.07670   0.07882   0.08634   0.08908   0.08989
 Alpha virt. eigenvalues --    0.09232   0.09398   0.09601   0.10097   0.10166
 Alpha virt. eigenvalues --    0.10947   0.11300   0.11496   0.11602   0.11664
 Alpha virt. eigenvalues --    0.11868   0.12494   0.12875   0.13072   0.13156
 Alpha virt. eigenvalues --    0.13420   0.13744   0.13803   0.14339   0.14350
 Alpha virt. eigenvalues --    0.14715   0.15064   0.15101   0.15934   0.16181
 Alpha virt. eigenvalues --    0.16271   0.17032   0.17531   0.17902   0.18060
 Alpha virt. eigenvalues --    0.18223   0.18875   0.18927   0.18962   0.19352
 Alpha virt. eigenvalues --    0.19631   0.20050   0.20082   0.20441   0.20787
 Alpha virt. eigenvalues --    0.21311   0.21441   0.21634   0.21982   0.22332
 Alpha virt. eigenvalues --    0.22587   0.22597   0.23070   0.23333   0.23655
 Alpha virt. eigenvalues --    0.23846   0.23981   0.24373   0.24442   0.24757
 Alpha virt. eigenvalues --    0.25385   0.25567   0.25678   0.26000   0.26124
 Alpha virt. eigenvalues --    0.26135   0.26320   0.26712   0.26818   0.27228
 Alpha virt. eigenvalues --    0.27443   0.27600   0.27640   0.27685   0.28152
 Alpha virt. eigenvalues --    0.28319   0.28525   0.28865   0.28935   0.28983
 Alpha virt. eigenvalues --    0.29611   0.29937   0.30083   0.30557   0.30675
 Alpha virt. eigenvalues --    0.30755   0.31038   0.31413   0.31531   0.31766
 Alpha virt. eigenvalues --    0.31944   0.32072   0.32756   0.32910   0.33105
 Alpha virt. eigenvalues --    0.33133   0.33265   0.33552   0.33811   0.33876
 Alpha virt. eigenvalues --    0.34091   0.34136   0.34348   0.34388   0.34511
 Alpha virt. eigenvalues --    0.34662   0.34674   0.35091   0.35452   0.35568
 Alpha virt. eigenvalues --    0.35714   0.35777   0.35923   0.36038   0.36398
 Alpha virt. eigenvalues --    0.36575   0.37228   0.37353   0.37437   0.37924
 Alpha virt. eigenvalues --    0.38109   0.38216   0.38282   0.38704   0.38887
 Alpha virt. eigenvalues --    0.39092   0.39284   0.39491   0.39853   0.39953
 Alpha virt. eigenvalues --    0.40326   0.40363   0.40719   0.40822   0.41097
 Alpha virt. eigenvalues --    0.41424   0.41737   0.42003   0.42316   0.42426
 Alpha virt. eigenvalues --    0.42600   0.42630   0.42848   0.43046   0.43493
 Alpha virt. eigenvalues --    0.44092   0.44235   0.44377   0.45009   0.45239
 Alpha virt. eigenvalues --    0.45586   0.45718   0.45891   0.46275   0.46825
 Alpha virt. eigenvalues --    0.46872   0.46980   0.47613   0.47824   0.48086
 Alpha virt. eigenvalues --    0.48279   0.48450   0.48616   0.49160   0.49211
 Alpha virt. eigenvalues --    0.49828   0.49991   0.50356   0.50385   0.50654
 Alpha virt. eigenvalues --    0.51237   0.51419   0.51697   0.52104   0.52606
 Alpha virt. eigenvalues --    0.52617   0.53049   0.53322   0.53691   0.54053
 Alpha virt. eigenvalues --    0.54537   0.54664   0.55018   0.55035   0.55283
 Alpha virt. eigenvalues --    0.55502   0.55783   0.56297   0.56960   0.57352
 Alpha virt. eigenvalues --    0.57544   0.58295   0.58428   0.58438   0.58766
 Alpha virt. eigenvalues --    0.59104   0.59341   0.59801   0.60014   0.60122
 Alpha virt. eigenvalues --    0.60670   0.60827   0.61079   0.61336   0.61391
 Alpha virt. eigenvalues --    0.61663   0.62012   0.62143   0.62248   0.62486
 Alpha virt. eigenvalues --    0.63144   0.63326   0.63759   0.63810   0.63918
 Alpha virt. eigenvalues --    0.64866   0.64906   0.65020   0.65381   0.65448
 Alpha virt. eigenvalues --    0.66396   0.66829   0.67264   0.67298   0.67977
 Alpha virt. eigenvalues --    0.68003   0.68363   0.68433   0.68953   0.68975
 Alpha virt. eigenvalues --    0.69449   0.69897   0.70130   0.70276   0.70284
 Alpha virt. eigenvalues --    0.70701   0.71131   0.71144   0.71549   0.71793
 Alpha virt. eigenvalues --    0.72360   0.72381   0.73209   0.73358   0.73808
 Alpha virt. eigenvalues --    0.73897   0.74096   0.74339   0.74881   0.75014
 Alpha virt. eigenvalues --    0.75764   0.76120   0.76226   0.76392   0.76701
 Alpha virt. eigenvalues --    0.77286   0.77520   0.77864   0.77914   0.78120
 Alpha virt. eigenvalues --    0.78798   0.78956   0.79371   0.79501   0.79620
 Alpha virt. eigenvalues --    0.79736   0.80511   0.80556   0.81145   0.81264
 Alpha virt. eigenvalues --    0.81553   0.81673   0.82391   0.82466   0.82691
 Alpha virt. eigenvalues --    0.82837   0.83120   0.83490   0.83749   0.83940
[...]
 Alpha virt. eigenvalues --    7.43343   7.43749   7.43990   7.44219   7.44493
 Alpha virt. eigenvalues --    7.44934   7.45160   7.45645   7.45862   7.46042
 Alpha virt. eigenvalues --    7.46427   7.46656   7.47034   7.47356   7.47462
 Alpha virt. eigenvalues --    7.48067   7.48462   7.48712   7.49208   7.49270
 Alpha virt. eigenvalues --    7.49498   7.49911   7.50637   7.50951   7.51451
 Alpha virt. eigenvalues --    7.51733   7.51816   7.52197   7.52360   7.52810
 Alpha virt. eigenvalues --    7.52843   7.53068   7.53196   7.53625   7.53700
 Alpha virt. eigenvalues --    7.53997   7.54381   7.54966   7.55039   7.55144
 Alpha virt. eigenvalues --    7.55960   7.56010   7.56286   7.56593   7.56636
 Alpha virt. eigenvalues --    7.57430   7.57700   7.57828   7.57965   7.58163
 Alpha virt. eigenvalues --    7.58198   7.58252   7.58596   7.59293   7.59306
 Alpha virt. eigenvalues --    7.59991   7.60222   7.60509   7.60867   7.60988
 Alpha virt. eigenvalues --    7.60991   7.62097   7.62117   7.62654   7.63034
 Alpha virt. eigenvalues --    7.63255   7.63967   7.64576   7.64602   7.64742
 Alpha virt. eigenvalues --    7.65083   7.66046   7.66136   7.66329   7.66628
 Alpha virt. eigenvalues --    7.66785   7.66959   7.67163   7.67583   7.67886
 Alpha virt. eigenvalues --    7.68334   7.68560   7.68668   7.69541   7.70131
 Alpha virt. eigenvalues --    7.70374   7.70512   7.70581   7.71130   7.71372
 Alpha virt. eigenvalues --    7.71487   7.71953   7.72283   7.72721   7.72983
 Alpha virt. eigenvalues --    7.73306   7.73370   7.73893   7.73926   7.74121
 Alpha virt. eigenvalues --    7.74969   7.75659   7.76009   7.76117   7.76237
 Alpha virt. eigenvalues --    7.76377   7.77288   7.77588   7.77825   7.78045
 Alpha virt. eigenvalues --    7.78175   7.78281   7.78377   7.78815   7.79413
 Alpha virt. eigenvalues --    7.79451   7.79891   7.80384   7.80462   7.80546
 Alpha virt. eigenvalues --    7.81191   7.81382   7.81431   7.81935   7.82614
 Alpha virt. eigenvalues --    7.82888   7.82961   7.83126   7.83407   7.83636
 Alpha virt. eigenvalues --    7.84454   7.84569   7.85389   7.85868   7.85958
 Alpha virt. eigenvalues --    7.86939   7.87215   7.87730   7.88248   7.88738
 Alpha virt. eigenvalues --    7.88760   7.89234   7.89551   7.90912   7.90958
 Alpha virt. eigenvalues --    7.91533   7.91668   7.91857   7.92283   7.92469
 Alpha virt. eigenvalues --    7.92817   7.93579   7.94034   7.94689   7.95897
 Alpha virt. eigenvalues --    7.96432   7.96799   7.96995   7.97556   7.97742
 Alpha virt. eigenvalues --    7.98011   7.98030   7.99611   7.99665   7.99998
 Alpha virt. eigenvalues --    8.00588   8.01275   8.01490   8.01922   8.01956
 Alpha virt. eigenvalues --    8.02220   8.02452   8.03197   8.03319   8.03699
 Alpha virt. eigenvalues --    8.03898   8.04130   8.04352   8.04566   8.05255
 Alpha virt. eigenvalues --    8.05595   8.06288   8.06760   8.06907   8.07447
 Alpha virt. eigenvalues --    8.07467   8.07842   8.08314   8.08922   8.09328
 Alpha virt. eigenvalues --    8.09432   8.10202   8.10300   8.10423   8.10509
 Alpha virt. eigenvalues --    8.10735   8.11207   8.12137   8.12504   8.13329
 Alpha virt. eigenvalues --    8.13660   8.13741   8.13793   8.14743   8.15138
 Alpha virt. eigenvalues --    8.15486   8.15712   8.15969   8.16681   8.17103
 Alpha virt. eigenvalues --    8.17161   8.18001   8.18389   8.18613   8.18792
 Alpha virt. eigenvalues --    8.19105   8.19823   8.20086   8.20915   8.20989
 Alpha virt. eigenvalues --    8.21868   8.22323   8.22379   8.22720   8.23340
 Alpha virt. eigenvalues --    8.23389   8.24295   8.24378   8.24575   8.24801
 Alpha virt. eigenvalues --    8.25197   8.25329   8.26420   8.26811   8.27200
 Alpha virt. eigenvalues --    8.27708   8.27902   8.28633   8.28976   8.28998
 Alpha virt. eigenvalues --    8.29235   8.29454   8.30741   8.30937   8.31384
 Alpha virt. eigenvalues --    8.31729   8.32020   8.32118   8.33829   8.34040
 Alpha virt. eigenvalues --    8.34596   8.34802   8.34895   8.35207   8.35237
 Alpha virt. eigenvalues --    8.35828   8.35954   8.36289   8.36925   8.37445
 Alpha virt. eigenvalues --    8.37486   8.37604   8.38118   8.38629   8.38730
 Alpha virt. eigenvalues --    8.38799   8.38921   8.39145   8.39227   8.40055
 Alpha virt. eigenvalues --    8.40157   8.41217   8.41510   8.41728   8.41974
 Alpha virt. eigenvalues --    8.42246   8.42356   8.42662   8.42664   8.43170
 Alpha virt. eigenvalues --    8.43832   8.44134   8.44302   8.44728   8.45533
 Alpha virt. eigenvalues --    8.45576   8.46358   8.46576   8.47269   8.47731
 Alpha virt. eigenvalues --    8.48037   8.48487   8.48691   8.48723   8.49609
 Alpha virt. eigenvalues --    8.49698   8.49949   8.50642   8.50903   8.51161
 Alpha virt. eigenvalues --    8.51696   8.52083   8.52114   8.52760   8.53237
 Alpha virt. eigenvalues --    8.53361   8.53759   8.54159   8.54206   8.55176
 Alpha virt. eigenvalues --    8.55245   8.55836   8.56014   8.56237   8.56641
 Alpha virt. eigenvalues --    8.56763   8.57186   8.57353   8.57502   8.58500
 Alpha virt. eigenvalues --    8.58504   8.58813   8.58835   8.59028   8.59420
 Alpha virt. eigenvalues --    8.59774   8.60358   8.60509   8.61240   8.61626
 Alpha virt. eigenvalues --    8.62252   8.62567   8.62693   8.62807   8.63369
 Alpha virt. eigenvalues --    8.63383   8.63821   8.64140   8.65165   8.65275
 Alpha virt. eigenvalues --    8.65473   8.65812   8.66150   8.67091   8.67450
 Alpha virt. eigenvalues --    8.68488   8.68661   8.68732   8.69090   8.69253
 Alpha virt. eigenvalues --    8.70327   8.70653   8.70832   8.71318   8.71449
 Alpha virt. eigenvalues --    8.71943   8.73181   8.73417   8.74106   8.74325
 Alpha virt. eigenvalues --    8.75016   8.75343   8.76049   8.76094   8.76788
 Alpha virt. eigenvalues --    8.77298   8.77584   8.77677   8.78574   8.78694
 Alpha virt. eigenvalues --    8.79182   8.79341   8.79708   8.80401   8.80679
 Alpha virt. eigenvalues --    8.81198   8.81630   8.82126   8.82221   8.82838
 Alpha virt. eigenvalues --    8.83034   8.83808   8.83903   8.84212   8.84426
 Alpha virt. eigenvalues --    8.84692   8.85065   8.85286   8.85576   8.86173
 Alpha virt. eigenvalues --    8.86420   8.87001   8.87285   8.87583   8.87854
 Alpha virt. eigenvalues --    8.88081   8.88587   8.88822   8.89062   8.89830
 Alpha virt. eigenvalues --    8.90987   8.91471   8.91726   8.92166   8.93033
 Alpha virt. eigenvalues --    8.93082   8.93894   8.93972   8.94278   8.94800
 Alpha virt. eigenvalues --    8.95132   8.95170   8.95718   8.95760   8.95974
 Alpha virt. eigenvalues --    8.96733   8.96740   8.97566   8.97577   8.97966
 Alpha virt. eigenvalues --    8.99216   8.99240   8.99443   8.99651   8.99900
 Alpha virt. eigenvalues --    8.99949   9.00549   9.00969   9.01327   9.01864
 Alpha virt. eigenvalues --    9.02093   9.02170   9.02612   9.02703   9.03342
 Alpha virt. eigenvalues --    9.04051   9.04393   9.04464   9.05326   9.06057
 Alpha virt. eigenvalues --    9.06360   9.07047   9.09051   9.09326   9.09781
 Alpha virt. eigenvalues --    9.09973   9.11049   9.11062   9.11855   9.11905
 Alpha virt. eigenvalues --    9.12752   9.13435   9.13899   9.14228   9.15593
 Alpha virt. eigenvalues --    9.16430   9.17612   9.17703   9.17966   9.19290
 Alpha virt. eigenvalues --    9.20600   9.21617   9.21929   9.25419   9.27462
 Alpha virt. eigenvalues --    9.30493   9.32744   9.32833   9.33843   9.36888
 Alpha virt. eigenvalues --    9.37123   9.41091   9.41588   9.41807   9.46541
 Alpha virt. eigenvalues --    9.49157   9.50407   9.52397   9.52900   9.53779
 Alpha virt. eigenvalues --    9.54428   9.57137   9.59555   9.60312   9.60390
 Alpha virt. eigenvalues --    9.60399   9.60891   9.60989   9.61184   9.61478
 Alpha virt. eigenvalues --    9.61752   9.62070   9.62209   9.62330   9.63128
 Alpha virt. eigenvalues --    9.63601   9.63736   9.64106   9.64326   9.64781
 Alpha virt. eigenvalues --    9.64816   9.65247   9.65265   9.65789   9.66049
 Alpha virt. eigenvalues --    9.66403   9.66453   9.66985   9.67452   9.68351
 Alpha virt. eigenvalues --    9.68646   9.68698   9.69677   9.69731   9.71331
 Alpha virt. eigenvalues --    9.71596   9.72443   9.72447   9.73318   9.74895
 Alpha virt. eigenvalues --    9.75313   9.75793   9.76158   9.76241   9.76575
 Alpha virt. eigenvalues --    9.77113   9.78213   9.78264   9.78616   9.78620
 Alpha virt. eigenvalues --    9.79468   9.79888   9.80588   9.81066   9.81372
 Alpha virt. eigenvalues --    9.81390   9.82410   9.82816   9.83302   9.83306
 Alpha virt. eigenvalues --    9.83626   9.84297   9.84542   9.85168   9.85642
 Alpha virt. eigenvalues --    9.85724   9.86002   9.86705   9.87056   9.88910
 Alpha virt. eigenvalues --    9.89751   9.89877   9.91029   9.91673   9.91951
 Alpha virt. eigenvalues --    9.92126   9.92539   9.94688   9.95493   9.96764
 Alpha virt. eigenvalues --    9.97337   9.97439   9.98285   9.98575   9.99306
 Alpha virt. eigenvalues --   10.00312  10.00499  10.00953  10.01396  10.02930
 Alpha virt. eigenvalues --   10.02955  10.04230  10.04278  10.04579  10.05274
 Alpha virt. eigenvalues --   10.05687  10.06492  10.07189  10.08252  10.08474
 Alpha virt. eigenvalues --   10.10896  10.11361  10.12839  10.14223  10.14355
 Alpha virt. eigenvalues --   10.15049  10.15438  10.15613  10.16272  10.16731
 Alpha virt. eigenvalues --   10.17025  10.17263  10.17994  10.18188  10.18328
 Alpha virt. eigenvalues --   10.19046  10.19565  10.19868  10.20819  10.20966
 Alpha virt. eigenvalues --   10.21390  10.21453  10.22132  10.23940  10.24098
 Alpha virt. eigenvalues --   10.24108  10.24568  10.24792  10.25680  10.29070
 Alpha virt. eigenvalues --   10.29610  10.31018  10.31389  10.33260  10.33826
 Alpha virt. eigenvalues --   10.36081  10.37581  10.38503  10.39354  10.39975
 Alpha virt. eigenvalues --   10.41719  10.43555  10.43785  10.44284  10.45915
 Alpha virt. eigenvalues --   10.51600  10.52756  10.53121  10.53878  10.54284
 Alpha virt. eigenvalues --   10.54943  10.76993  10.77099  10.86658  10.91560
 Alpha virt. eigenvalues --   10.98127  10.99120  11.09679  11.09920  11.25549
 Alpha virt. eigenvalues --   11.26294  11.30753  11.32574  11.37991  11.38581
 Alpha virt. eigenvalues --   11.56557  11.58951  11.67581  11.71062  11.75489
 Alpha virt. eigenvalues --   11.76851  11.79645  11.81764  11.88257  11.88378
 Alpha virt. eigenvalues --   11.90824  11.94264  11.97773  12.01934  12.06084
 Alpha virt. eigenvalues --   12.06517  12.06997  12.10636  12.16512  12.16867
 Alpha virt. eigenvalues --   12.17666  12.18059  12.20219  12.22873  12.24605
 Alpha virt. eigenvalues --   12.24676  12.25122  12.25853  12.28132  12.28495
 Alpha virt. eigenvalues --   12.30414  12.31299  12.32826  12.33107  12.34060
 Alpha virt. eigenvalues --   12.34981  12.35769  12.36401  12.37766  12.37860
 Alpha virt. eigenvalues --   12.39791  12.41188  12.42125  12.44992  12.45235
 Alpha virt. eigenvalues --   12.47174  12.48368  12.49896  12.51416  12.52167
 Alpha virt. eigenvalues --   12.53487  12.57418  12.58741  12.61847  12.65566
 Alpha virt. eigenvalues --   12.68895  13.03562  13.05525  13.13106  13.14023
 Alpha virt. eigenvalues --   13.16890  13.18498  13.19951  13.22263  13.26150
 Alpha virt. eigenvalues --   13.26280  13.26806  13.26842  13.27507  13.28183
 Alpha virt. eigenvalues --   13.29198  13.30017  13.31547  13.31695  13.39444
 Alpha virt. eigenvalues --   13.40450  13.54378  13.54643  14.30786  14.31193
 Alpha virt. eigenvalues --   14.43696  14.47422  14.63762  14.64089  28.45006
 Alpha virt. eigenvalues --   28.62517  28.66436  28.73045  28.74602  28.84787
 Alpha virt. eigenvalues --   28.86562  28.91430  28.93947  28.94152  28.94543
 Alpha virt. eigenvalues --   28.96816  29.02088  29.05565  29.16999  29.25242
 Alpha virt. eigenvalues --   29.25897  29.27420  29.27722  29.28593  29.29457
 Alpha virt. eigenvalues --   29.30116  29.31456  29.32766  29.35022  29.35952
 Alpha virt. eigenvalues --   48.28764  48.37963  48.43677  48.52516 145.96681
 Alpha virt. eigenvalues --  146.12162 146.16352 146.24077 146.24926 146.35682
 Alpha virt. eigenvalues --  146.39964 146.40467 146.42315 146.44082 146.46833
 Alpha virt. eigenvalues --  146.47004 146.53775 146.55812 146.69802 146.77642
 Alpha virt. eigenvalues --  146.78341 146.78666 146.79125 146.80811 146.80938
 Alpha virt. eigenvalues --  146.82301 146.83378 146.85015 146.87404 146.88034
 Alpha virt. eigenvalues --  251.39572 251.49809 251.56304 251.66927
          Condensed to atoms (all electrons):
 Mulliken charges:
               1
     1  C   -0.071041
     2  C   -0.037860
     3  C   -0.037860
     4  C   -0.071041
     5  C    0.140388
     6  C    0.140388
     7  C   -0.165634
     8  C   -0.060381
     9  C   -0.060381
    10  C   -0.165634
    11  C    0.017263
    12  C    0.017263
    13  C   -0.757548
    14  C   -0.736905
    15  C   -0.733781
    16  O   -0.249094
    17  C   -0.723780
    18  C   -0.761515
    19  C   -0.750739
    20  C   -0.761515
    21  C   -0.723780
    22  C   -0.750739
    23  C   -0.736905
    24  C   -0.733781
    25  C   -0.757548
    26  O   -0.290092
    27  C   -0.416312
    28  O   -0.249094
    29  C   -0.416312
    30  O   -0.290092
    31  H    0.324309
    32  H    0.294493
    33  H    0.215882
    34  H    0.290390
    35  H    0.212156
    36  H    0.313842
    37  H    0.294601
    38  H    0.293999
    39  H    0.217599
    40  H    0.270985
    41  H    0.223745
    42  H    0.328534
    43  H    0.280477
    44  H    0.233312
    45  H    0.315093
    46  H    0.278019
    47  H    0.327610
    48  H    0.213771
    49  H    0.315093
    50  H    0.280477
    51  H    0.233312
    52  H    0.270985
    53  H    0.223745
    54  H    0.328534
    55  H    0.327610
    56  H    0.213771
    57  H    0.278019
    58  H    0.290390
    59  H    0.313842
    60  H    0.212156
    61  H    0.294601
    62  H    0.217599
    63  H    0.293999
    64  H    0.324309
    65  H    0.215882
    66  H    0.294493
    67  H    0.242071
    68  H    0.215620
    69  H    0.210522
    70  H    0.242071
    71  H    0.210522
    72  H    0.215620
 Sum of Mulliken charges =  -0.00000
 Mulliken charges with hydrogens summed into heavy atoms:
               1
     1  C   -0.071041
     2  C   -0.037860
     3  C   -0.037860
     4  C   -0.071041
     5  C    0.140388
     6  C    0.140388
     7  C   -0.165634
     8  C   -0.060381
     9  C   -0.060381
    10  C   -0.165634
    11  C    0.017263
    12  C    0.017263
    13  C    0.077135
    14  C    0.079484
    15  C    0.072418
    16  O   -0.249094
    17  C    0.099484
    18  C    0.067367
    19  C    0.068661
    20  C    0.067367
    21  C    0.099484
    22  C    0.068661
    23  C    0.079484
    24  C    0.072418
    25  C    0.077135
    26  O   -0.290092
    27  C    0.251902
    28  O   -0.249094
    29  C    0.251902
    30  O   -0.290092
 Electronic spatial extent (au):  <R**2>=          10963.5092
 Charge=             -0.0000 electrons
 Dipole moment (field-independent basis, Debye):
    X=              0.0000    Y=             -0.0000    Z=             -1.5845  Tot=              1.5845
 Quadrupole moment (field-independent basis, Debye-Ang):
   XX=           -183.6988   YY=           -194.9700   ZZ=           -173.1835
   XY=             -5.7204   XZ=              0.0000   YZ=             -0.0000
 Traceless Quadrupole moment (field-independent basis, Debye-Ang):
   XX=              0.2520   YY=            -11.0192   ZZ=             10.7673
   XY=             -5.7204   XZ=              0.0000   YZ=             -0.0000
 Octapole moment (field-independent basis, Debye-Ang**2):
  XXX=              0.0000  YYY=              0.0000  ZZZ=            139.4087  XYY=             -0.0000
  XXY=              0.0000  XXZ=             37.2978  XZZ=              0.0000  YZZ=              0.0000
  YYZ=            -25.3079  XYZ=            -20.6922
 Hexadecapole moment (field-independent basis, Debye-Ang**3):
 XXXX=          -2659.1071 YYYY=          -5443.9193 ZZZZ=          -6430.6251 XXXY=            707.7860
 XXXZ=             -0.0000 YYYX=            688.4453 YYYZ=             -0.0000 ZZZX=             -0.0000
 ZZZY=              0.0000 XXYY=          -1279.2765 XXZZ=          -1492.4678 YYZZ=          -2135.9039
 XXYZ=             -0.0000 YYXZ=             -0.0000 ZZXY=            225.1791
 N-N= 3.498177393301D+03 E-N=-1.005924740223D+04  KE= 1.310076148191D+03
 No NMR shielding tensors so no spin-rotation constants.
 Leave Link  601 at Thu Apr 22 04:30:24 2021, MaxMem= 12079595520 cpu:            8653.0 elap:             185.6
 (Enter /s/ls4/groups/g0130/bin/g16/l9999.exe)

 Test job not archived.
 1\1\GINC-N002\Stability\RM062X\def2QZVP\C26H42O4\ROOT\22-Apr-2021\0\\#
 P M062X/Def2QZVP Integral=UltraFineGrid SCF=NoSymm Stable=(RExt, Opt) 
 IOp(1/33=1)\\Database calculations.\\0,1\C,0,-1.329081,-0.5681733,0.22
 2408\C,0,-0.7191646,-0.0796303,-0.9721194\C,0,0.7191646,0.0796303,-0.9
 721194\C,0,1.329081,0.5681733,0.222408\C,0,0.6203534,0.3379579,1.42888
 62\C,0,-0.6203534,-0.3379579,1.4288862\C,0,-2.5514599,-1.5737768,0.207
 9649\C,0,-1.5373921,0.629314,-2.1343583\C,0,1.5373921,-0.629314,-2.134
 3583\C,0,2.5514599,1.5737768,0.2079649\C,0,1.1997975,0.6731876,2.77826
 31\C,0,-1.1997975,-0.6731876,2.7782631\C,0,-2.1289018,-2.834363,1.0245
 193\C,0,-2.8426682,-2.1456826,-1.2001731\C,0,-3.8849669,-1.0520516,0.7
 992414\O,0,-0.3536318,-1.4914788,3.4787345\C,0,-0.7743635,1.9574545,-2
 .4306907\C,0,-1.7923475,-0.0529211,-3.5021285\C,0,-2.9051169,1.1203989
 ,-1.5887424\C,0,1.7923475,0.0529211,-3.5021285\C,0,0.7743635,-1.957454
 5,-2.4306907\C,0,2.9051169,-1.1203989,-1.5887424\C,0,2.8426682,2.14568
 26,-1.2001731\C,0,3.8849669,1.0520516,0.7992414\C,0,2.1289018,2.834363
 ,1.0245193\O,0,-2.2375608,-0.255026,3.239982\C,0,-0.7658027,-1.8004221
 ,4.8300744\O,0,0.3536318,1.4914788,3.4787345\C,0,0.7658027,1.8004221,4
 .8300744\O,0,2.2375608,0.255026,3.239982\H,0,-1.1666101,-3.2250145,0.6
 713307\H,0,-2.0563965,-2.6551851,2.0974496\H,0,-2.8938889,-3.6091871,0
 .8857181\H,0,-1.9217799,-2.4569838,-1.7019636\H,0,-3.4882803,-3.025624
 3,-1.0882044\H,0,-3.3791065,-1.4499271,-1.8412657\H,0,-3.8074872,-0.88
 30554,1.8727824\H,0,-4.2076122,-0.1166417,0.3369113\H,0,-4.6624651,-1.
 8076314,0.6161481\H,0,-0.6684024,2.5485482,-1.5133811\H,0,-1.3547158,2
 .541658,-3.1578049\H,0,0.2178318,1.7865942,-2.8450922\H,0,-0.8777061,-
 0.1765645,-4.0829201\H,0,-2.4590669,0.597674,-4.0837443\H,0,-2.2673827
 ,-1.0308324,-3.4196832\H,0,-2.7931229,1.5556975,-0.5898401\H,0,-3.6612
 092,0.3393917,-1.543711\H,0,-3.284036,1.8964342,-2.2668681\H,0,2.26738
 27,1.0308324,-3.4196832\H,0,0.8777061,0.1765645,-4.0829201\H,0,2.45906
 69,-0.597674,-4.0837443\H,0,0.6684024,-2.5485482,-1.5133811\H,0,1.3547
 158,-2.541658,-3.1578049\H,0,-0.2178318,-1.7865942,-2.8450922\H,0,3.66
 12092,-0.3393917,-1.543711\H,0,3.284036,-1.8964342,-2.2668681\H,0,2.79
 31229,-1.5556975,-0.5898401\H,0,1.9217799,2.4569838,-1.7019636\H,0,3.3
 791065,1.4499271,-1.8412657\H,0,3.4882803,3.0256243,-1.0882044\H,0,3.8
 074872,0.8830554,1.8727824\H,0,4.6624651,1.8076314,0.6161481\H,0,4.207
 6122,0.1166417,0.3369113\H,0,1.1666101,3.2250145,0.6713307\H,0,2.89388
 89,3.6091871,0.8857181\H,0,2.0563965,2.6551851,2.0974496\H,0,0.0549787
 ,-2.3833275,5.2549002\H,0,-0.9328813,-0.8789702,5.3995767\H,0,-1.69514
 91,-2.3834886,4.8178\H,0,-0.0549787,2.3833275,5.2549002\H,0,1.6951491,
 2.3834886,4.8178\H,0,0.9328813,0.8789702,5.3995767\\Version=ES64L-G16R
 evA.03\State=1-A\HF=-1316.9095203\RMSD=1.375e-09\Dipole=0.,0.,-0.62337
 79\Quadrupole=-8.4988526,0.4936576,8.005195,3.927686,0.,0.\PG=C02 [X(C
 26H42O4)]\\@


 A FOOL CAN ASK MORE QUESTIONS THAN
 A WISE MAN CAN ANSWER.
 Job cpu time:      83 days  1 hours 10 minutes 38.0 seconds.
 Elapsed time:       1 days 17 hours 48 minutes 29.7 seconds.
 File lengths (MBytes):  RWF=  15612 Int=      0 D2E=      0 Chk=    982 Scr=      1
 Normal termination of Gaussian 16 at Thu Apr 22 04:30:27 2021.
