 Entering Gaussian System, Link 0=/s/ls4/users/knvvv/bin/g16sse/g16
 Input=data/database/M062X--def2-QZVP--DC13_tmethen.gjf
 Output=data/database/M062X--def2-QZVP--DC13_tmethen.log
 Initial command:
 /s/ls4/users/knvvv/bin/g16sse/l1.exe "/s/ls4/users/knvvv/bin/scratch/Gau-12513.inp" -scrdir="/s/ls4/users/knvvv/bin/scratch/"
 Entering Link 1 = /s/ls4/users/knvvv/bin/g16sse/l1.exe PID=     12514.
  
 Copyright (c) 1988,1990,1992,1993,1995,1998,2003,2009,2016,
            Gaussian, Inc.  All Rights Reserved.
  
 This is part of the Gaussian(R) 16 program.  It is based on
 the Gaussian(R) 09 system (copyright 2009, Gaussian, Inc.),
 the Gaussian(R) 03 system (copyright 2003, Gaussian, Inc.),
 the Gaussian(R) 98 system (copyright 1998, Gaussian, Inc.),
 the Gaussian(R) 94 system (copyright 1995, Gaussian, Inc.),
 the Gaussian 92(TM) system (copyright 1992, Gaussian, Inc.),
 the Gaussian 90(TM) system (copyright 1990, Gaussian, Inc.),
 the Gaussian 88(TM) system (copyright 1988, Gaussian, Inc.),
 the Gaussian 86(TM) system (copyright 1986, Carnegie Mellon
 University), and the Gaussian 82(TM) system (copyright 1983,
 Carnegie Mellon University). Gaussian is a federally registered
 trademark of Gaussian, Inc.
  
 This software contains proprietary and confidential information,
 including trade secrets, belonging to Gaussian, Inc.
  
 This software is provided under written license and may be
 used, copied, transmitted, or stored only in accord with that
 written license.
  
 The following legend is applicable only to US Government
 contracts under FAR:
  
                    RESTRICTED RIGHTS LEGEND
  
 Use, reproduction and disclosure by the US Government is
 subject to restrictions as set forth in subparagraphs (a)
 and (c) of the Commercial Computer Software - Restricted
 Rights clause in FAR 52.227-19.
  
 Gaussian, Inc.
 340 Quinnipiac St., Bldg. 40, Wallingford CT 06492
  
  
 ---------------------------------------------------------------
 Warning -- This program may not be used in any manner that
 competes with the business of Gaussian, Inc. or will provide
 assistance to any competitor of Gaussian, Inc.  The licensee
 of this program is prohibited from giving any competitor of
 Gaussian, Inc. access to this program.  By using this program,
 the user acknowledges that Gaussian, Inc. is engaged in the
 business of creating and licensing software in the field of
 computational chemistry and represents and warrants to the
 licensee that it is not a competitor of Gaussian, Inc. and that
 it will not use this program in any manner prohibited above.
 ---------------------------------------------------------------
  

 Cite this work as:
 Gaussian 16, Revision A.03,
 M. J. Frisch, G. W. Trucks, H. B. Schlegel, G. E. Scuseria, 
 M. A. Robb, J. R. Cheeseman, G. Scalmani, V. Barone, 
 G. A. Petersson, H. Nakatsuji, X. Li, M. Caricato, A. V. Marenich, 
 J. Bloino, B. G. Janesko, R. Gomperts, B. Mennucci, H. P. Hratchian, 
 J. V. Ortiz, A. F. Izmaylov, J. L. Sonnenberg, D. Williams-Young, 
 F. Ding, F. Lipparini, F. Egidi, J. Goings, B. Peng, A. Petrone, 
 T. Henderson, D. Ranasinghe, V. G. Zakrzewski, J. Gao, N. Rega, 
 G. Zheng, W. Liang, M. Hada, M. Ehara, K. Toyota, R. Fukuda, 
 J. Hasegawa, M. Ishida, T. Nakajima, Y. Honda, O. Kitao, H. Nakai, 
 T. Vreven, K. Throssell, J. A. Montgomery, Jr., J. E. Peralta, 
 F. Ogliaro, M. J. Bearpark, J. J. Heyd, E. N. Brothers, K. N. Kudin, 
 V. N. Staroverov, T. A. Keith, R. Kobayashi, J. Normand, 
 K. Raghavachari, A. P. Rendell, J. C. Burant, S. S. Iyengar, 
 J. Tomasi, M. Cossi, J. M. Millam, M. Klene, C. Adamo, R. Cammi, 
 J. W. Ochterski, R. L. Martin, K. Morokuma, O. Farkas, 
 J. B. Foresman, and D. J. Fox, Gaussian, Inc., Wallingford CT, 2016.
 
 ******************************************
 Gaussian 16:  ES64L-G16RevA.03 25-Dec-2016
                16-Apr-2021 
 ******************************************
 %RWF=temp24_18441,70GB
 %nprocshared=48
 Will use up to   48 processors via shared memory.
 Default route: MaxDisk=80GB
 ----------------------------------------------------------------------
 #P M062X/Def2QZVP Integral=UltraFineGrid SCF=NoSymm Stable=(RExt, Opt)
  IOp(1/33=1)
 ----------------------------------------------------------------------
 1/33=1,38=1,172=1/1;
 2/12=2,17=6,18=5,40=1/2;
 3/5=45,7=101,11=2,25=1,30=1,74=-55,75=-5/1,2,3;
 4/9=2/1;
 5/5=2,38=5/2;
 6/7=2,8=2,9=2,10=2,28=1/1;
 8/6=1,10=90,11=11/1;
 9/8=-3,42=1,46=1/14;
 5/5=2,8=3,17=40,38=5/8(-2);
 6/7=2,8=2,9=2,10=2,28=1/1;
 99/5=1,9=1/99;
 Leave Link    1 at Fri Apr 16 22:59:51 2021, MaxMem=           0 cpu:               8.3 elap:               0.2
 (Enter /s/ls4/users/knvvv/bin/g16sse/l101.exe)
 ONIOM data not found on unit 2.
 ----------------------
 Database calculations.
 ----------------------
 TstMul:  ICh=     0
 TstMul:  Mul=     1
 TstMul:  ICh=     0
 TstMul:  Mul=     1
 Symbolic Z-matrix:
 Charge =  0 Multiplicity = 1
 C                     0.        0.       -0.67414 
 C                     0.        0.        0.67414 
 C                     1.25072  -0.02482  -1.52978 
 C                    -1.25072   0.02482  -1.52978 
 C                     1.25072   0.02482   1.52978 
 C                    -1.25072  -0.02482   1.52978 
 H                     2.1705   -0.19936  -0.9723 
 H                     1.35617   0.919    -2.08212 
 H                     1.16375  -0.81637  -2.28568 
 H                    -2.1705    0.19936  -0.9723 
 H                    -1.16375   0.81637  -2.28568 
 H                    -1.35617  -0.919    -2.08212 
 H                     2.1705    0.19936   0.9723 
 H                     1.35617  -0.919     2.08212 
 H                     1.16375   0.81637   2.28568 
 H                    -2.1705   -0.19936   0.9723 
 H                    -1.16375  -0.81637   2.28568 
 H                    -1.35617   0.919     2.08212 
 
 RdStrC is calling ZToCFu for IStruc=1 NZ=    18.
 PrtBox:  NBox=     3 Levels=  1 BoxLen=    8.00 SMaxX=        8.64
          Shift=            4.101653            1.736654            4.319301
 Box      1 Number                   0 centers from      1 to     12:
 Box      2 Number                   1 centers from     13 to     16:
 Box      3 Number                   4 centers from     17 to     18:
 After GenITR:
 ITRead=  0  0  0  0  0  0  0  0  0  0  0  0  0  0  0  0  0  0
 MicOpt= -1 -1 -1 -1 -1 -1 -1 -1 -1 -1 -1 -1 -1 -1 -1 -1 -1 -1
 ITRead=  0  0  0  0  0  0  0  0  0  0  0  0  0  0  0  0  0  0
 MicOpt= -1 -1 -1 -1 -1 -1 -1 -1 -1 -1 -1 -1 -1 -1 -1 -1 -1 -1
 NAtoms=     18 NQM=       18 NQMF=       0 NMMI=      0 NMMIF=      0
                NMic=       0 NMicF=      0.
                    Isotopes and Nuclear Properties:
 (Nuclear quadrupole moments (NQMom) in fm**2, nuclear magnetic moments (NMagM)
  in nuclear magnetons)

  Atom         1           2           3           4           5           6           7           8           9          10
 IAtWgt=          12          12          12          12          12          12           1           1           1           1
 AtmWgt=  12.0000000  12.0000000  12.0000000  12.0000000  12.0000000  12.0000000   1.0078250   1.0078250   1.0078250   1.0078250
 NucSpn=           0           0           0           0           0           0           1           1           1           1
 AtZEff=  -0.0000000  -0.0000000  -0.0000000  -0.0000000  -0.0000000  -0.0000000  -0.0000000  -0.0000000  -0.0000000  -0.0000000
 NQMom=    0.0000000   0.0000000   0.0000000   0.0000000   0.0000000   0.0000000   0.0000000   0.0000000   0.0000000   0.0000000
 NMagM=    0.0000000   0.0000000   0.0000000   0.0000000   0.0000000   0.0000000   2.7928460   2.7928460   2.7928460   2.7928460
 AtZNuc=   6.0000000   6.0000000   6.0000000   6.0000000   6.0000000   6.0000000   1.0000000   1.0000000   1.0000000   1.0000000

  Atom        11          12          13          14          15          16          17          18
 IAtWgt=           1           1           1           1           1           1           1           1
 AtmWgt=   1.0078250   1.0078250   1.0078250   1.0078250   1.0078250   1.0078250   1.0078250   1.0078250
 NucSpn=           1           1           1           1           1           1           1           1
 AtZEff=  -0.0000000  -0.0000000  -0.0000000  -0.0000000  -0.0000000  -0.0000000  -0.0000000  -0.0000000
 NQMom=    0.0000000   0.0000000   0.0000000   0.0000000   0.0000000   0.0000000   0.0000000   0.0000000
 NMagM=    2.7928460   2.7928460   2.7928460   2.7928460   2.7928460   2.7928460   2.7928460   2.7928460
 AtZNuc=   1.0000000   1.0000000   1.0000000   1.0000000   1.0000000   1.0000000   1.0000000   1.0000000
 No MM parameters found.
 Leave Link  101 at Fri Apr 16 22:59:52 2021, MaxMem=   104857600 cpu:               9.3 elap:               0.2
 (Enter /s/ls4/users/knvvv/bin/g16sse/l202.exe)
                          Input orientation:                          
 ---------------------------------------------------------------------
 Center     Atomic      Atomic             Coordinates (Angstroms)
 Number     Number       Type             X           Y           Z
 ---------------------------------------------------------------------
      1          6           0        0.000000    0.000000   -0.674136
      2          6           0        0.000000    0.000000    0.674136
      3          6           0        1.250724   -0.024822   -1.529783
      4          6           0       -1.250724    0.024822   -1.529783
      5          6           0        1.250724    0.024822    1.529783
      6          6           0       -1.250724   -0.024822    1.529783
      7          1           0        2.170501   -0.199359   -0.972300
      8          1           0        1.356174    0.918998   -2.082123
      9          1           0        1.163751   -0.816373   -2.285676
     10          1           0       -2.170501    0.199359   -0.972300
     11          1           0       -1.163751    0.816373   -2.285676
     12          1           0       -1.356174   -0.918998   -2.082123
     13          1           0        2.170501    0.199359    0.972300
     14          1           0        1.356174   -0.918998    2.082123
     15          1           0        1.163751    0.816373    2.285676
     16          1           0       -2.170501   -0.199359    0.972300
     17          1           0       -1.163751   -0.816373    2.285676
     18          1           0       -1.356174    0.918998    2.082123
 ---------------------------------------------------------------------
                    Distance matrix (angstroms):
                    1          2          3          4          5
     1  C    0.000000
     2  C    1.348272   0.000000
     3  C    1.515605   2.534203   0.000000
     4  C    1.515605   2.534203   2.501940   0.000000
     5  C    2.534203   1.515605   3.059969   3.951985   0.000000
     6  C    2.534203   1.515605   3.951985   3.059969   2.501940
     7  H    2.199937   2.731587   1.089606   3.473590   2.675195
     8  H    2.160137   3.206357   1.098633   2.810791   3.722437
     9  H    2.148916   3.283484   1.097948   2.666209   3.908056
    10  H    2.199937   2.731587   3.473590   1.089606   4.242130
    11  H    2.148916   3.283484   2.666209   1.097948   4.584099
    12  H    2.160137   3.206357   2.810791   1.098633   4.553304
    13  H    2.731587   2.199937   2.675195   4.242130   1.089606
    14  H    3.206357   2.160137   3.722437   4.553304   1.098633
    15  H    3.283484   2.148916   3.908056   4.584099   1.097948
    16  H    2.731587   2.199937   4.242130   2.675195   3.473590
    17  H    3.283484   2.148916   4.584099   3.908056   2.666209
    18  H    3.206357   2.160137   4.553304   3.722437   2.810791
                    6          7          8          9         10
     6  C    0.000000
     7  H    4.242130   0.000000
     8  H    4.553304   1.773572   0.000000
     9  H    4.584099   1.766128   1.757832   0.000000
    10  H    2.675195   4.359275   3.766567   3.724769   0.000000
    11  H    3.908056   3.724769   2.530215   2.843084   1.766128
    12  H    3.722437   3.766567   3.276440   2.530215   1.773572
    13  H    3.473590   1.985055   3.241991   3.558042   4.756655
    14  H    2.810791   3.241991   4.551832   4.373239   4.797672
    15  H    2.666209   3.558042   4.373239   4.854185   4.702377
    16  H    1.089606   4.756655   4.797672   4.702377   1.985055
    17  H    1.097948   4.702377   5.332841   5.129767   3.558042
    18  H    1.098633   4.797672   4.969686   5.332841   3.241991
                   11         12         13         14         15
    11  H    0.000000
    12  H    1.757832   0.000000
    13  H    4.702377   4.797672   0.000000
    14  H    5.332841   4.969686   1.773572   0.000000
    15  H    5.129767   5.332841   1.766128   1.757832   0.000000
    16  H    3.558042   3.241991   4.359275   3.766567   3.724769
    17  H    4.854185   4.373239   3.724769   2.530215   2.843084
    18  H    4.373239   4.551832   3.766567   3.276440   2.530215
                   16         17         18
    16  H    0.000000
    17  H    1.766128   0.000000
    18  H    1.773572   1.757832   0.000000
 Stoichiometry    C6H12
 Framework group  D2[C2(C.C),X(C4H12)]
 Deg. of freedom    13
 Full point group                 D2      NOp   4
 Largest Abelian subgroup         D2      NOp   4
 Largest concise Abelian subgroup D2      NOp   4
                         Standard orientation:                         
 ---------------------------------------------------------------------
 Center     Atomic      Atomic             Coordinates (Angstroms)
 Number     Number       Type             X           Y           Z
 ---------------------------------------------------------------------
      1          6           0        0.000000    0.000000    0.674136
      2          6           0        0.000000    0.000000   -0.674136
      3          6           0       -0.024822    1.250724    1.529783
      4          6           0        0.024822   -1.250724    1.529783
      5          6           0        0.024822    1.250724   -1.529783
      6          6           0       -0.024822   -1.250724   -1.529783
      7          1           0       -0.199359    2.170501    0.972300
      8          1           0        0.918998    1.356174    2.082123
      9          1           0       -0.816373    1.163751    2.285676
     10          1           0        0.199359   -2.170501    0.972300
     11          1           0        0.816373   -1.163751    2.285676
     12          1           0       -0.918998   -1.356174    2.082123
     13          1           0        0.199359    2.170501   -0.972300
     14          1           0       -0.918998    1.356174   -2.082123
     15          1           0        0.816373    1.163751   -2.285676
     16          1           0       -0.199359   -2.170501   -0.972300
     17          1           0       -0.816373   -1.163751   -2.285676
     18          1           0        0.918998   -1.356174   -2.082123
 ---------------------------------------------------------------------
 Rotational constants (GHZ):           4.4631433           2.9405061           1.8543327
 Leave Link  202 at Fri Apr 16 22:59:52 2021, MaxMem=   104857600 cpu:               9.2 elap:               0.2
 (Enter /s/ls4/users/knvvv/bin/g16sse/l301.exe)
 Standard basis: def2QZVP (5D, 7F)
 Ernie: Thresh=  0.10000D-02 Tol=  0.10000D-05 Strict=F.
 There are   217 symmetry adapted cartesian basis functions of A   symmetry.
 There are   217 symmetry adapted cartesian basis functions of B1  symmetry.
 There are   209 symmetry adapted cartesian basis functions of B2  symmetry.
 There are   209 symmetry adapted cartesian basis functions of B3  symmetry.
 There are   178 symmetry adapted basis functions of A   symmetry.
 There are   178 symmetry adapted basis functions of B1  symmetry.
 There are   173 symmetry adapted basis functions of B2  symmetry.
 There are   173 symmetry adapted basis functions of B3  symmetry.
   702 basis functions,  1008 primitive gaussians,   852 cartesian basis functions
    24 alpha electrons       24 beta electrons
       nuclear repulsion energy       240.6684529839 Hartrees.
 IExCor= 4336 DFT=T Ex+Corr=M062X ExCW=0 ScaHFX=  0.540000
 ScaDFX=  1.000000  1.000000  1.000000  1.000000 ScalE2=  1.000000  1.000000
 IRadAn=      5 IRanWt=     -1 IRanGd=            0 ICorTp=0 IEmpDi=  4
 NAtoms=   18 NActive=   18 NUniq=    5 SFac= 4.00D+00 NAtFMM=   60 NAOKFM=F Big=F
 Integral buffers will be    131072 words long.
 Raffenetti 2 integral format.
 Two-electron integral symmetry is turned on.
 Leave Link  301 at Fri Apr 16 22:59:52 2021, MaxMem=   104857600 cpu:               6.6 elap:               0.2
 (Enter /s/ls4/users/knvvv/bin/g16sse/l302.exe)
 NPDir=0 NMtPBC=     1 NCelOv=     1 NCel=       1 NClECP=     1 NCelD=      1
         NCelK=      1 NCelE2=     1 NClLst=     1 CellRange=     0.0.
 One-electron integrals computed using PRISM.
 One-electron integral symmetry used in STVInt
 PrsmSu:  requested number of processors reduced to:   4 ShMem   1 Linda.
 PrsmSu:  requested number of processors reduced to:  18 ShMem   1 Linda.
   4 Symmetry operations used in ECPInt.
 ECPInt:  NShTT=   24753 NPrTT=   54921 LenC2=   23788 LenP2D=   44019.
 LDataN:  DoStor=T MaxTD1= 8 Len=  415
 Number of processors reduced to  11 by ecpmxn.
 NBasis=   702 RedAO= T EigKep=  2.45D-05  NBF=   178   178   173   173
 NBsUse=   702 1.00D-06 EigRej= -1.00D+00 NBFU=   178   178   173   173
 Precomputing XC quadrature grid using
 IXCGrd= 4 IRadAn=           5 IRanWt=          -1 IRanGd=           0 AccXCQ= 0.00D+00.
 Generated NRdTot=       0 NPtTot=           0 NUsed=           0 NTot=          32
 NSgBfM=   849   849   849   849   849 MxSgAt=    18 MxSgA2=    18.
 Leave Link  302 at Fri Apr 16 23:00:21 2021, MaxMem=   104857600 cpu:            1372.5 elap:              29.3
 (Enter /s/ls4/users/knvvv/bin/g16sse/l303.exe)
 DipDrv:  MaxL=1.
 Leave Link  303 at Fri Apr 16 23:00:27 2021, MaxMem=   104857600 cpu:             262.1 elap:               5.6
 (Enter /s/ls4/users/knvvv/bin/g16sse/l401.exe)
 SCF N**3 symmetry information disabled.
 ExpMin= 7.60D-02 ExpMax= 6.70D+04 ExpMxC= 6.47D+02 IAcc=3 IRadAn=         5 AccDes= 0.00D+00
 Harris functional with IExCor= 1009 and IRadAn=       5 diagonalized for initial guess.
 HarFok:  IExCor= 1009 AccDes= 0.00D+00 IRadAn=         5 IDoV= 1 UseB2=F ITyADJ=14
 ICtDFT=  3500011 ScaDFX=  1.000000  1.000000  1.000000  1.000000
 FoFCou: FMM=F IPFlag=           0 FMFlag=      100000 FMFlg1=           0
         NFxFlg=           0 DoJE=T BraDBF=F KetDBF=T FulRan=T
         wScrn=  0.000000 ICntrl=       500 IOpCl=  0 I1Cent=   200000004 NGrid=           0
         NMat0=    1 NMatS0=      1 NMatT0=    0 NMatD0=    1 NMtDS0=    0 NMtDT0=    0
 Petite list used in FoFCou.
 CoulSu:  requested number of processors reduced to:  17 ShMem   1 Linda.
 CoulSu:  requested number of processors reduced to:  17 ShMem   1 Linda.
 CoulSu:  requested number of processors reduced to:  21 ShMem   1 Linda.
 CoulSu:  requested number of processors reduced to:  21 ShMem   1 Linda.
 Harris En= -235.836748144783    
 JPrj=0 DoOrth=F DoCkMO=F.
 Initial guess orbital symmetries:
       Occupied  (B1) (A) (B3) (B2) (A) (B1) (A) (B1) (B2) (B3)
                 (A) (B1) (A) (B2) (B3) (B2) (B1) (B1) (A) (B2)
                 (B3) (A) (B3) (B3)
       Virtual   (B2) (A) (B1) (B2) (A) (B2) (B3) (B3) (B2) (A)
                 (B1) (B1) (B3) (A) (B1) (B2) (A) (B1) (B1) (B3)
                 (B2) (A) (B3) (B2) (B2) (B3) (B1) (A) (A) (B1)
                 (B3) (A) (B3) (B2) (B2) (B2) (A) (B1) (B3) (B3)
                 (B2) (A) (B1) (B2) (A) (B1) (B3) (B3) (B1) (B1)
                 (A) (B2) (B3) (B1) (A) (B3) (B1) (B2) (A) (B2)
                 (B1) (B3) (A) (B1) (A) (B2) (B3) (B3) (B1) (A)
                 (B2) (B1) (B3) (B2) (A) (B1) (B1) (A) (B2) (B3)
                 (B2) (B3) (A) (B3) (B2) (B2) (B1) (A) (B3) (B1)
                 (B3) (A) (B2) (A) (B3) (B1) (A) (B2) (A) (B2)
                 (B1) (B3) (B2) (B1) (B3) (A) (B3) (A) (B2) (B2)
                 (B1) (B1) (A) (A) (B2) (B1) (B3) (B1) (B2) (B3)
                 (B1) (A) (B1) (B3) (B2) (B3) (B1) (A) (A) (B2)
                 (B3) (A) (B1) (B3) (A) (B2) (B2) (B3) (B1) (B2)
                 (B1) (B3) (B2) (A) (A) (B1) (B3) (B2) (B1) (B3)
                 (A) (B1) (B3) (B2) (A) (B1) (B2) (B3) (A) (B2)
                 (B3) (B1) (B2) (B1) (B3) (A) (B3) (A) (B2) (B1)
                 (B3) (A) (B2) (B1) (A) (A) (B3) (B1) (B2) (B1)
                 (A) (B3) (B2) (B1) (A) (B2) (B3) (B1) (B3) (B1)
                 (A) (B3) (B2) (A) (B2) (B1) (B2) (B1) (B3) (A)
                 (A) (B2) (B1) (B2) (B3) (B3) (B2) (A) (A) (B2)
                 (B1) (B3) (A) (B1) (A) (B2) (B3) (B1) (B3) (B2)
                 (A) (B2) (B3) (A) (B1) (B2) (B3) (B1) (A) (A)
                 (B3) (B1) (B2) (B3) (B2) (B1) (A) (B3) (B1) (B3)
                 (B1) (B2) (A) (B3) (B2) (A) (B1) (B3) (B2) (A)
                 (B1) (B2) (B3) (A) (B1) (B2) (A) (A) (B3) (B1)
                 (B3) (B2) (B1) (A) (B2) (B2) (B3) (B1) (B3) (A)
                 (B2) (B1) (A) (B3) (B1) (B2) (B1) (B3) (A) (A)
                 (B2) (B3) (B2) (A) (B1) (B3) (B1) (A) (B1) (B2)
                 (B2) (B3) (A) (A) (B3) (B2) (B1) (B3) (B2) (A)
                 (B1) (B3) (B2) (B1) (A) (B1) (B3) (B2) (A) (B1)
                 (B1) (B3) (B2) (B3) (A) (B2) (B3) (B2) (A) (B1)
                 (B3) (B2) (B1) (B3) (A) (A) (B1) (B2) (B1) (B3)
                 (A) (B2) (A) (B2) (B1) (B3) (A) (B1) (B3) (B2)
                 (B3) (B3) (B1) (A) (A) (B1) (B2) (B3) (A) (B1)
                 (B1) (A) (B3) (B2) (B2) (B3) (B2) (A) (B3) (B1)
                 (B2) (B2) (B1) (A) (A) (B1) (A) (B1) (B1) (B2)
                 (A) (B3) (B3) (A) (B1) (A) (B2) (B1) (B2) (B3)
                 (B2) (B1) (B3) (A) (B3) (B2) (B1) (A) (B3) (B1)
                 (A) (B2) (B3) (A) (B1) (B2) (B3) (B1) (B2) (B3)
                 (A) (B1) (A) (B2) (B3) (B2) (B1) (B3) (B2) (A)
                 (B3) (B3) (B1) (B2) (A) (B2) (B1) (B3) (A) (B2)
                 (B3) (B3) (B1) (A) (A) (B2) (B1) (B3) (A) (B2)
                 (B1) (B2) (A) (B1) (B3) (A) (B3) (B2) (A) (B1)
                 (B3) (B2) (B1) (B1) (A) (B2) (A) (B3) (B1) (B1)
                 (B3) (A) (B2) (B2) (B1) (B3) (B2) (B3) (A) (A)
                 (B1) (B3) (B2) (B3) (B1) (A) (B2) (B1) (A) (B2)
                 (B2) (B3) (B1) (A) (A) (B1) (B2) (B3) (A) (B3)
                 (B1) (B3) (B2) (A) (B2) (B3) (B1) (B2) (A) (B1)
                 (B3) (B1) (B2) (A) (B2) (B3) (B1) (A) (A) (B3)
                 (B1) (B1) (A) (B1) (B2) (B3) (B3) (A) (B2) (B1)
                 (B2) (A) (B3) (B2) (B3) (B1) (B1) (A) (B2) (B3)
                 (A) (A) (B2) (B1) (B2) (B3) (A) (B3) (B1) (A)
                 (B1) (B3) (B3) (B2) (B1) (B2) (B1) (A) (B3) (A)
                 (A) (B2) (B2) (B3) (B1) (A) (B3) (B2) (B1) (A)
                 (B3) (B1) (A) (B2) (B3) (B1) (B2) (B2) (B1) (B3)
                 (A) (B2) (A) (B3) (B3) (B1) (B2) (B1) (B2) (B3)
                 (A) (A) (B1) (A) (B3) (B2) (B1) (A) (B2) (B1)
                 (B2) (A) (B3) (B2) (B3) (B2) (A) (B1) (B3) (B3)
                 (A) (B1) (B2) (A) (B3) (B1) (B3) (B2) (B1) (B2)
                 (A) (A) (B1) (B2) (B3) (B1) (B1) (A) (B2) (B2)
                 (A) (B3) (B1) (B1) (A) (B3) (B3) (B1) (B2) (A)
                 (B3) (A) (B2) (B1) (B3) (B1) (B2) (A) (B3) (B2)
                 (B2) (A) (B3) (B1) (A) (A) (B1) (B3) (B2) (B1)
                 (B3) (B3) (B1) (B2) (A) (B2) (B1) (B3) (A) (B2)
                 (B3) (B1) (A) (B1) (B1) (B3) (A) (B2) (A) (B2)
                 (B3) (B1) (A) (B2) (B1) (B3) (A) (B1) (A) (B2)
                 (B3) (B1) (A) (B1) (A) (B2) (B3) (B1)
 The electronic state of the initial guess is 1-A.
 Leave Link  401 at Fri Apr 16 23:00:39 2021, MaxMem=   104857600 cpu:             576.9 elap:              12.5
 (Enter /s/ls4/users/knvvv/bin/g16sse/l502.exe)
 Integral symmetry usage will be decided dynamically.
 Closed shell SCF:
 Using DIIS extrapolation, IDIIS=  1040.
 NGot=   104857600 LenX=   103352802 LenY=   102626046
 Requested convergence on RMS density matrix=1.00D-08 within 128 cycles.
 Requested convergence on MAX density matrix=1.00D-06.
 Requested convergence on             energy=1.00D-06.
 No special actions if energy rises.
 Fock matrices will be formed incrementally for  20 cycles.
 Integral accuracy reduced to 1.0D-05 until final iterations.

 Cycle   1  Pass 0  IDiag  1:
 FoFJK:  IHMeth= 1 ICntrl=       0 DoSepK=F KAlg= 0 I1Cent=           0 FoldK=F
 IRaf= 920000000 NMat=       1 IRICut=       1 DoRegI=T DoRafI=F ISym2E= 1 IDoP0=0 IntGTp=1.
 FoFCou: FMM=F IPFlag=           0 FMFlag=      100000 FMFlg1=           0
         NFxFlg=           0 DoJE=F BraDBF=F KetDBF=F FulRan=T
         wScrn=  0.000000 ICntrl=         0 IOpCl=  0 I1Cent=           0 NGrid=           0
         NMat0=    1 NMatS0=      1 NMatT0=    0 NMatD0=    1 NMtDS0=    0 NMtDT0=    0
 Petite list used in FoFCou.
 CoulSu:  requested number of processors reduced to:  18 ShMem   1 Linda.
 E= -235.548555165008    
 DIIS: error= 3.73D-02 at cycle   1 NSaved=   1.
 NSaved= 1 IEnMin= 1 EnMin= -235.548555165008     IErMin= 1 ErrMin= 3.73D-02
 ErrMax= 3.73D-02  0.00D+00 EMaxC= 1.00D-01 BMatC= 3.93D-01 BMatP= 3.93D-01
 IDIUse=3 WtCom= 6.27D-01 WtEn= 3.73D-01
 Coeff-Com:  0.100D+01
 Coeff-En:   0.100D+01
 Coeff:      0.100D+01
 Gap=     0.346 Goal=   None    Shift=    0.000
 GapD=    0.346 DampG=1.000 DampE=0.500 DampFc=0.5000 IDamp=-1.
 Damping current iteration by 5.00D-01
 RMSDP=1.07D-03 MaxDP=1.06D-01              OVMax= 1.58D-01

 Cycle   2  Pass 0  IDiag  1:
 RMSU=  5.17D-04    CP:  9.53D-01
 CoulSu:  requested number of processors reduced to:  18 ShMem   1 Linda.
 E= -235.698629560362     Delta-E=       -0.150074395353 Rises=F Damp=T
 DIIS: error= 1.30D-02 at cycle   2 NSaved=   2.
 NSaved= 2 IEnMin= 2 EnMin= -235.698629560362     IErMin= 2 ErrMin= 1.30D-02
 ErrMax= 1.30D-02  0.00D+00 EMaxC= 1.00D-01 BMatC= 3.84D-02 BMatP= 3.93D-01
 IDIUse=3 WtCom= 8.70D-01 WtEn= 1.30D-01
 Coeff-Com: -0.189D+00 0.119D+01
 Coeff-En:   0.000D+00 0.100D+01
 Coeff:     -0.165D+00 0.116D+01
 Gap=     0.337 Goal=   None    Shift=    0.000
 RMSDP=6.40D-04 MaxDP=6.77D-02 DE=-1.50D-01 OVMax= 8.39D-02

 Cycle   3  Pass 0  IDiag  1:
 RMSU=  6.40D-04    CP:  9.52D-01  9.65D-01
 CoulSu:  requested number of processors reduced to:  18 ShMem   1 Linda.
 E= -235.834390530680     Delta-E=       -0.135760970318 Rises=F Damp=F
 DIIS: error= 4.78D-03 at cycle   3 NSaved=   3.
 NSaved= 3 IEnMin= 3 EnMin= -235.834390530680     IErMin= 3 ErrMin= 4.78D-03
 ErrMax= 4.78D-03  0.00D+00 EMaxC= 1.00D-01 BMatC= 2.69D-03 BMatP= 3.84D-02
 IDIUse=3 WtCom= 9.52D-01 WtEn= 4.78D-02
 Coeff-Com: -0.855D-01 0.226D+00 0.860D+00
 Coeff-En:   0.000D+00 0.000D+00 0.100D+01
 Coeff:     -0.815D-01 0.215D+00 0.867D+00
 Gap=     0.311 Goal=   None    Shift=    0.000
 RMSDP=9.14D-05 MaxDP=8.63D-03 DE=-1.36D-01 OVMax= 1.55D-02

 Cycle   4  Pass 0  IDiag  1:
 RMSU=  6.69D-05    CP:  9.42D-01  1.04D+00  9.37D-01
 CoulSu:  requested number of processors reduced to:  18 ShMem   1 Linda.
 E= -235.836917393177     Delta-E=       -0.002526862497 Rises=F Damp=F
 DIIS: error= 2.05D-03 at cycle   4 NSaved=   4.
 NSaved= 4 IEnMin= 4 EnMin= -235.836917393177     IErMin= 4 ErrMin= 2.05D-03
 ErrMax= 2.05D-03  0.00D+00 EMaxC= 1.00D-01 BMatC= 3.88D-04 BMatP= 2.69D-03
 IDIUse=3 WtCom= 9.80D-01 WtEn= 2.05D-02
 Coeff-Com: -0.272D-01 0.654D-01 0.358D+00 0.604D+00
 Coeff-En:   0.000D+00 0.000D+00 0.000D+00 0.100D+01
 Coeff:     -0.267D-01 0.641D-01 0.351D+00 0.612D+00
 Gap=     0.317 Goal=   None    Shift=    0.000
 RMSDP=2.58D-05 MaxDP=1.53D-03 DE=-2.53D-03 OVMax= 5.33D-03

 Cycle   5  Pass 0  IDiag  1:
 RMSU=  2.15D-05    CP:  9.42D-01  1.01D+00  9.42D-01  1.04D+00
 CoulSu:  requested number of processors reduced to:  18 ShMem   1 Linda.
 E= -235.837291815517     Delta-E=       -0.000374422341 Rises=F Damp=F
 DIIS: error= 2.30D-04 at cycle   5 NSaved=   5.
 NSaved= 5 IEnMin= 5 EnMin= -235.837291815517     IErMin= 5 ErrMin= 2.30D-04
 ErrMax= 2.30D-04  0.00D+00 EMaxC= 1.00D-01 BMatC= 1.91D-05 BMatP= 3.88D-04
 IDIUse=3 WtCom= 9.98D-01 WtEn= 2.30D-03
 Coeff-Com: -0.484D-03 0.135D-02 0.477D-01 0.207D+00 0.745D+00
 Coeff-En:   0.000D+00 0.000D+00 0.000D+00 0.000D+00 0.100D+01
 Coeff:     -0.483D-03 0.135D-02 0.476D-01 0.206D+00 0.745D+00
 Gap=     0.316 Goal=   None    Shift=    0.000
 RMSDP=8.65D-06 MaxDP=6.64D-04 DE=-3.74D-04 OVMax= 9.27D-04

 Initial convergence to 1.0D-05 achieved.  Increase integral accuracy.
 Cycle   6  Pass 1  IDiag  1:
 CoulSu:  requested number of processors reduced to:  18 ShMem   1 Linda.
 E= -235.837301212571     Delta-E=       -0.000009397054 Rises=F Damp=F
 DIIS: error= 9.95D-05 at cycle   1 NSaved=   1.
 NSaved= 1 IEnMin= 1 EnMin= -235.837301212571     IErMin= 1 ErrMin= 9.95D-05
 ErrMax= 9.95D-05  0.00D+00 EMaxC= 1.00D-01 BMatC= 3.64D-06 BMatP= 3.64D-06
 IDIUse=1 WtCom= 1.00D+00 WtEn= 0.00D+00
 Coeff-Com:  0.100D+01
 Coeff:      0.100D+01
 Gap=     0.316 Goal=   None    Shift=    0.000
 RMSDP=8.65D-06 MaxDP=6.64D-04 DE=-9.40D-06 OVMax= 2.49D-04

 Cycle   7  Pass 1  IDiag  1:
 RMSU=  4.22D-05    CP:  1.00D+00
 CoulSu:  requested number of processors reduced to:  18 ShMem   1 Linda.
 E= -235.837302517560     Delta-E=       -0.000001304989 Rises=F Damp=F
 DIIS: error= 2.30D-05 at cycle   2 NSaved=   2.
 NSaved= 2 IEnMin= 2 EnMin= -235.837302517560     IErMin= 2 ErrMin= 2.30D-05
 ErrMax= 2.30D-05  0.00D+00 EMaxC= 1.00D-01 BMatC= 8.36D-08 BMatP= 3.64D-06
 IDIUse=1 WtCom= 1.00D+00 WtEn= 0.00D+00
 Coeff-Com:  0.277D-01 0.972D+00
 Coeff:      0.277D-01 0.972D+00
 Gap=     0.316 Goal=   None    Shift=    0.000
 RMSDP=1.65D-06 MaxDP=7.78D-05 DE=-1.30D-06 OVMax= 1.04D-04

 Cycle   8  Pass 1  IDiag  1:
 RMSU=  7.83D-07    CP:  1.00D+00  1.03D+00
 CoulSu:  requested number of processors reduced to:  18 ShMem   1 Linda.
 E= -235.837302551027     Delta-E=       -0.000000033467 Rises=F Damp=F
 DIIS: error= 1.93D-05 at cycle   3 NSaved=   3.
 NSaved= 3 IEnMin= 3 EnMin= -235.837302551027     IErMin= 3 ErrMin= 1.93D-05
 ErrMax= 1.93D-05  0.00D+00 EMaxC= 1.00D-01 BMatC= 4.99D-08 BMatP= 8.36D-08
 IDIUse=1 WtCom= 1.00D+00 WtEn= 0.00D+00
 Coeff-Com: -0.110D-01 0.430D+00 0.581D+00
 Coeff:     -0.110D-01 0.430D+00 0.581D+00
 Gap=     0.316 Goal=   None    Shift=    0.000
 RMSDP=2.39D-07 MaxDP=1.44D-05 DE=-3.35D-08 OVMax= 6.43D-05

 Cycle   9  Pass 1  IDiag  1:
 RMSU=  1.97D-07    CP:  1.00D+00  1.04D+00  8.45D-01
 CoulSu:  requested number of processors reduced to:  18 ShMem   1 Linda.
 E= -235.837302598984     Delta-E=       -0.000000047957 Rises=F Damp=F
 DIIS: error= 2.98D-06 at cycle   4 NSaved=   4.
 NSaved= 4 IEnMin= 4 EnMin= -235.837302598984     IErMin= 4 ErrMin= 2.98D-06
 ErrMax= 2.98D-06  0.00D+00 EMaxC= 1.00D-01 BMatC= 1.18D-09 BMatP= 4.99D-08
 IDIUse=1 WtCom= 1.00D+00 WtEn= 0.00D+00
 Coeff-Com: -0.497D-02 0.685D-01 0.165D+00 0.771D+00
 Coeff:     -0.497D-02 0.685D-01 0.165D+00 0.771D+00
 Gap=     0.316 Goal=   None    Shift=    0.000
 RMSDP=4.98D-08 MaxDP=4.06D-06 DE=-4.80D-08 OVMax= 1.06D-05

 Cycle  10  Pass 1  IDiag  1:
 RMSU=  3.61D-08    CP:  1.00D+00  1.04D+00  8.80D-01  1.01D+00
 CoulSu:  requested number of processors reduced to:  18 ShMem   1 Linda.
 E= -235.837302600142     Delta-E=       -0.000000001158 Rises=F Damp=F
 DIIS: error= 7.51D-07 at cycle   5 NSaved=   5.
 NSaved= 5 IEnMin= 5 EnMin= -235.837302600142     IErMin= 5 ErrMin= 7.51D-07
 ErrMax= 7.51D-07  0.00D+00 EMaxC= 1.00D-01 BMatC= 5.53D-11 BMatP= 1.18D-09
 IDIUse=1 WtCom= 1.00D+00 WtEn= 0.00D+00
 Coeff-Com:  0.241D-03-0.324D-01-0.325D-01 0.116D+00 0.948D+00
 Coeff:      0.241D-03-0.324D-01-0.325D-01 0.116D+00 0.948D+00
 Gap=     0.316 Goal=   None    Shift=    0.000
 RMSDP=1.71D-08 MaxDP=9.10D-07 DE=-1.16D-09 OVMax= 2.55D-06

 Cycle  11  Pass 1  IDiag  1:
 RMSU=  1.35D-08    CP:  1.00D+00  1.04D+00  8.87D-01  1.05D+00  1.10D+00
 CoulSu:  requested number of processors reduced to:  18 ShMem   1 Linda.
 E= -235.837302600204     Delta-E=       -0.000000000062 Rises=F Damp=F
 DIIS: error= 6.40D-08 at cycle   6 NSaved=   6.
 NSaved= 6 IEnMin= 6 EnMin= -235.837302600204     IErMin= 6 ErrMin= 6.40D-08
 ErrMax= 6.40D-08  0.00D+00 EMaxC= 1.00D-01 BMatC= 1.04D-12 BMatP= 5.53D-11
 IDIUse=1 WtCom= 1.00D+00 WtEn= 0.00D+00
 Coeff-Com:  0.181D-03-0.693D-02-0.972D-02-0.383D-04 0.153D+00 0.864D+00
 Coeff:      0.181D-03-0.693D-02-0.972D-02-0.383D-04 0.153D+00 0.864D+00
 Gap=     0.316 Goal=   None    Shift=    0.000
 RMSDP=3.17D-09 MaxDP=1.56D-07 DE=-6.17D-11 OVMax= 2.81D-07

 SCF Done:  E(RM062X) =  -235.837302600     A.U. after   11 cycles
            NFock= 11  Conv=0.32D-08     -V/T= 2.0055
 KE= 2.345366544094D+02 PE=-1.026805687948D+03 EE= 3.157632779542D+02
 Leave Link  502 at Fri Apr 16 23:03:05 2021, MaxMem=   104857600 cpu:            4359.7 elap:             145.1
 (Enter /s/ls4/users/knvvv/bin/g16sse/l601.exe)
 Copying SCF densities to generalized density rwf, IOpCl= 0 IROHF=0.

 **********************************************************************

            Population analysis using the SCF density.

 **********************************************************************

 Orbital symmetries:
       Occupied  (A) (B1) (B3) (B2) (B1) (A) (A) (B1) (B2) (B3)
                 (A) (B1) (A) (B3) (B2) (B2) (B1) (B1) (A) (B2)
                 (B3) (A) (B3) (B3)
       Virtual   (A) (B1) (B2) (B2) (A) (B3) (B3) (B2) (B3) (B1)
                 (A) (B2) (B1) (A) (B1) (B2) (A) (B1) (B3) (B1)
                 (B3) (B2) (B3) (B2) (A) (B2) (A) (B1) (A) (B2)
                 (B2) (A) (B1) (B3) (B3) (B1) (A) (B3) (B1) (B2)
                 (A) (B2) (B2) (B3) (A) (B1) (B3) (B1) (B3) (A)
                 (B3) (B2) (B1) (B1) (B1) (A) (B2) (B3) (A) (B2)
                 (B1) (B3) (A) (B2) (B1) (B3) (A) (B3) (B1) (B2)
                 (A) (B3) (B1) (A) (B1) (B2) (B1) (B2) (A) (B3)
                 (B2) (B3) (B2) (A) (B3) (B2) (A) (B3) (B1) (B1)
                 (B3) (A) (A) (B2) (B1) (B3) (B2) (A) (A) (B2)
                 (B1) (B3) (B2) (B1) (B3) (A) (A) (B2) (B3) (B2)
                 (B1) (B1) (B1) (A) (A) (B2) (B3) (B2) (B1) (B3)
                 (B1) (A) (B2) (B3) (B1) (B3) (A) (B1) (A) (B3)
                 (B2) (B1) (A) (B3) (B2) (A) (B1) (B2) (B3) (B2)
                 (B3) (B1) (A) (B2) (A) (B1) (B3) (B2) (B1) (B3)
                 (A) (B3) (B1) (B2) (B1) (A) (B3) (B2) (A) (B3)
                 (B2) (B1) (B2) (B1) (B3) (A) (A) (B3) (B1) (B2)
                 (B3) (A) (B1) (B2) (A) (B3) (A) (B1) (B2) (B1)
                 (A) (B2) (B1) (A) (B3) (B3) (B2) (B1) (A) (B1)
                 (B3) (B2) (B3) (A) (B2) (B1) (B3) (B1) (A) (B2)
                 (A) (B2) (B1) (B2) (B3) (A) (B2) (B3) (A) (B2)
                 (B1) (B3) (A) (B1) (A) (B2) (B3) (B3) (B1) (B2)
                 (A) (B1) (B2) (B3) (A) (B2) (A) (B3) (B1) (A)
                 (B1) (B3) (B3) (B2) (B2) (B1) (A) (B3) (B1) (B1)
                 (B2) (A) (B3) (B2) (B3) (B1) (B3) (A) (B2) (B1)
                 (B2) (A) (A) (B3) (B1) (A) (B2) (B3) (B1) (B2)
                 (B1) (A) (B3) (A) (B2) (B3) (B1) (B2) (B3) (A)
                 (B1) (B2) (A) (B3) (B1) (B2) (A) (B1) (B3) (A)
                 (B2) (B3) (B1) (B2) (A) (B3) (B1) (A) (B2) (B1)
                 (B2) (A) (B3) (A) (B3) (B1) (B3) (B2) (B2) (A)
                 (B1) (B3) (B2) (A) (B1) (B1) (B3) (B2) (B1) (A)
                 (B3) (B1) (B2) (B3) (A) (B2) (B3) (A) (B1) (B2)
                 (B3) (B1) (B3) (B2) (A) (A) (B1) (B2) (B1) (B3)
                 (A) (B2) (A) (B2) (B1) (B3) (B1) (A) (B3) (B2)
                 (B3) (B1) (B3) (A) (A) (B1) (B2) (A) (B1) (B3)
                 (B3) (A) (B1) (B2) (B2) (B3) (B2) (A) (B3) (B1)
                 (B2) (B2) (B1) (A) (A) (A) (B1) (B1) (B1) (B2)
                 (A) (B3) (B3) (B1) (A) (B2) (B1) (A) (B1) (B2)
                 (B3) (A) (B2) (B3) (B3) (B2) (A) (B3) (B1) (B2)
                 (B1) (A) (B1) (A) (B3) (B3) (B2) (B1) (B2) (B3)
                 (A) (B1) (B2) (B3) (A) (B2) (B1) (B2) (B3) (A)
                 (B3) (B2) (B3) (A) (B2) (B1) (B3) (B1) (A) (B2)
                 (B1) (B3) (B3) (A) (A) (B2) (B1) (B3) (A) (B2)
                 (B1) (B2) (A) (B1) (B3) (A) (B3) (B2) (B1) (A)
                 (B3) (B1) (B2) (A) (B1) (A) (B2) (B3) (B1) (B3)
                 (B1) (B2) (A) (B2) (B1) (B3) (B3) (B2) (A) (B3)
                 (A) (B2) (B1) (B3) (B1) (B2) (A) (B1) (A) (B2)
                 (B2) (A) (B3) (B1) (A) (B3) (B1) (A) (B3) (B2)
                 (B1) (B2) (B3) (A) (B2) (B3) (B1) (B2) (A) (B1)
                 (B2) (B1) (B3) (A) (B2) (B1) (A) (B3) (A) (B3)
                 (B1) (B1) (A) (B1) (B3) (B2) (B3) (A) (B2) (B2)
                 (A) (B1) (B3) (B2) (B1) (B3) (A) (B1) (B2) (A)
                 (B3) (B2) (B1) (B3) (A) (B2) (B3) (A) (A) (B1)
                 (B3) (B1) (B2) (B3) (B1) (A) (B2) (B3) (B1) (B2)
                 (B3) (A) (B2) (A) (A) (B2) (B1) (B3) (B1) (B3)
                 (B2) (A) (B2) (B1) (B3) (B1) (A) (A) (B2) (B1)
                 (B3) (B2) (A) (B3) (B1) (B2) (A) (B3) (B1) (A)
                 (B3) (B1) (B2) (A) (B3) (B2) (B1) (A) (B2) (A)
                 (B2) (B1) (B3) (B2) (B3) (B2) (B1) (A) (B3) (B3)
                 (B1) (A) (B2) (B3) (A) (B1) (B3) (B2) (B1) (B2)
                 (A) (A) (B1) (B2) (B3) (B1) (B1) (B2) (A) (B3)
                 (A) (B1) (B2) (B1) (B3) (A) (B3) (B1) (B2) (A)
                 (B3) (A) (B2) (B1) (B3) (B1) (A) (B2) (B2) (B3)
                 (B2) (B3) (A) (B1) (A) (B1) (B3) (A) (B2) (B1)
                 (B3) (B3) (B2) (B1) (A) (B2) (B1) (B3) (A) (B2)
                 (B3) (B1) (A) (B1) (B1) (B3) (A) (B2) (A) (B2)
                 (B3) (B1) (A) (B2) (B1) (B3) (A) (B1) (A) (B2)
                 (B3) (B1) (A) (B1) (A) (B2) (B3) (B1)
 The electronic state is 1-A.
 Alpha  occ. eigenvalues --  -10.54039 -10.53934 -10.52803 -10.52802 -10.52801
 Alpha  occ. eigenvalues --  -10.52801  -0.91684  -0.84206  -0.78784  -0.76031
 Alpha  occ. eigenvalues --   -0.70706  -0.56091  -0.53625  -0.50715  -0.50137
 Alpha  occ. eigenvalues --   -0.48032  -0.44960  -0.44453  -0.43983  -0.43247
 Alpha  occ. eigenvalues --   -0.42434  -0.41010  -0.37229  -0.27730
 Alpha virt. eigenvalues --    0.03913   0.05609   0.05615   0.06282   0.08569
 Alpha virt. eigenvalues --    0.09212   0.09454   0.11746   0.12596   0.12605
 Alpha virt. eigenvalues --    0.12619   0.12998   0.13908   0.14730   0.14743
 Alpha virt. eigenvalues --    0.16207   0.16419   0.16574   0.19008   0.22174
 Alpha virt. eigenvalues --    0.22492   0.23105   0.23755   0.25861   0.27396
 Alpha virt. eigenvalues --    0.28473   0.28745   0.29438   0.30159   0.30566
 Alpha virt. eigenvalues --    0.33051   0.33370   0.33457   0.33501   0.34350
 Alpha virt. eigenvalues --    0.35695   0.35821   0.36131   0.36379   0.36432
 Alpha virt. eigenvalues --    0.37153   0.37171   0.40041   0.40620   0.41921
 Alpha virt. eigenvalues --    0.42159   0.44563   0.47246   0.47703   0.50271
 Alpha virt. eigenvalues --    0.52600   0.52945   0.54875   0.56324   0.56755
 Alpha virt. eigenvalues --    0.57785   0.58241   0.59755   0.60957   0.62599
 Alpha virt. eigenvalues --    0.64164   0.65786   0.66076   0.68853   0.69107
 Alpha virt. eigenvalues --    0.69314   0.70234   0.70605   0.72471   0.72699
 Alpha virt. eigenvalues --    0.72765   0.77552   0.79132   0.79189   0.79764
 Alpha virt. eigenvalues --    0.80666   0.80842   0.82106   0.82742   0.82826
 Alpha virt. eigenvalues --    0.84414   0.86002   0.86040   0.86989   0.87013
 Alpha virt. eigenvalues --    0.88456   0.88556   0.89246   0.89542   0.90245
 Alpha virt. eigenvalues --    0.90982   0.91838   0.93638   0.93743   0.95241
 Alpha virt. eigenvalues --    0.97007   0.97972   0.99389   0.99850   0.99860
 Alpha virt. eigenvalues --    1.01154   1.02123   1.03118   1.04013   1.04243
 Alpha virt. eigenvalues --    1.05398   1.07979   1.08682   1.09388   1.10848
 Alpha virt. eigenvalues --    1.11058   1.12413   1.15621   1.16228   1.17200
 Alpha virt. eigenvalues --    1.17386   1.17453   1.21805   1.23189   1.23438
 Alpha virt. eigenvalues --    1.24632   1.26812   1.30286   1.32290   1.32653
 Alpha virt. eigenvalues --    1.32962   1.33500   1.37478   1.39546   1.41212
 Alpha virt. eigenvalues --    1.41326   1.41435   1.42112   1.42531   1.44162
 Alpha virt. eigenvalues --    1.44917   1.48483   1.48548   1.48837   1.51862
 Alpha virt. eigenvalues --    1.52937   1.53389   1.59564   1.59859   1.61191
 Alpha virt. eigenvalues --    1.61516   1.64082   1.66460   1.70881   1.77285
 Alpha virt. eigenvalues --    1.78804   1.80120   1.80256   1.82672   1.84500
 Alpha virt. eigenvalues --    1.84715   1.85465   1.85920   1.88229   1.88455
 Alpha virt. eigenvalues --    1.88692   1.90818   1.92594   1.93527   1.94258
 Alpha virt. eigenvalues --    1.96732   1.97144   1.97344   1.97581   1.97631
 Alpha virt. eigenvalues --    1.99284   2.00060   2.03055   2.03355   2.04721
 Alpha virt. eigenvalues --    2.05537   2.05696   2.06471   2.07094   2.09737
 Alpha virt. eigenvalues --    2.11609   2.12651   2.13119   2.13571   2.14770
 Alpha virt. eigenvalues --    2.15447   2.16003   2.18058   2.19901   2.20699
 Alpha virt. eigenvalues --    2.21235   2.22037   2.22651   2.23040   2.23708
 Alpha virt. eigenvalues --    2.25824   2.25968   2.27047   2.27311   2.28028
 Alpha virt. eigenvalues --    2.28669   2.29370   2.31143   2.31504   2.32325
 Alpha virt. eigenvalues --    2.36932   2.37281   2.38123   2.38291   2.41562
 Alpha virt. eigenvalues --    2.43216   2.43857   2.45493   2.46234   2.48671
 Alpha virt. eigenvalues --    2.49648   2.50729   2.52142   2.52427   2.54043
 Alpha virt. eigenvalues --    2.54162   2.56320   2.57281   2.58403   2.58496
 Alpha virt. eigenvalues --    2.60316   2.61555   2.62067   2.62299   2.65884
 Alpha virt. eigenvalues --    2.67106   2.67669   2.70577   2.70993   2.71632
 Alpha virt. eigenvalues --    2.71747   2.73104   2.74594   2.77840   2.79450
 Alpha virt. eigenvalues --    2.79569   2.79697   2.79897   2.81654   2.82297
 Alpha virt. eigenvalues --    2.82574   2.82846   2.83133   2.84852   2.86717
 Alpha virt. eigenvalues --    2.87333   2.90495   2.93217   2.93457   2.94315
 Alpha virt. eigenvalues --    2.94323   2.95938   2.98026   2.98096   2.98684
 Alpha virt. eigenvalues --    2.99133   2.99141   3.01158   3.02728   3.05348
 Alpha virt. eigenvalues --    3.07790   3.07862   3.08357   3.10749   3.11196
 Alpha virt. eigenvalues --    3.15197   3.15925   3.18482   3.19015   3.20120
 Alpha virt. eigenvalues --    3.21090   3.21877   3.22215   3.22726   3.26271
 Alpha virt. eigenvalues --    3.27412   3.28622   3.31784   3.32197   3.34734
 Alpha virt. eigenvalues --    3.35010   3.36028   3.37522   3.39156   3.40676
 Alpha virt. eigenvalues --    3.40775   3.42491   3.42502   3.46385   3.47117
 Alpha virt. eigenvalues --    3.47487   3.50494   3.50614   3.54538   3.55378
 Alpha virt. eigenvalues --    3.56700   3.58715   3.59135   3.63550   3.64640
 Alpha virt. eigenvalues --    3.67002   3.67650   3.71657   3.73212   3.73636
 Alpha virt. eigenvalues --    3.76447   3.77012   3.78697   3.84238   3.85445
 Alpha virt. eigenvalues --    3.86639   3.87377   3.88904   3.89138   3.89698
 Alpha virt. eigenvalues --    3.96152   3.96985   3.98747   4.00891   4.02059
 Alpha virt. eigenvalues --    4.08547   4.11849   4.16505   4.17061   4.20002
 Alpha virt. eigenvalues --    4.20980   4.22859   4.30978   4.35949   4.39948
 Alpha virt. eigenvalues --    4.46638   4.51837   4.56529   4.57323   4.67363
 Alpha virt. eigenvalues --    4.83014   4.85050   4.91135   4.94533   5.00493
 Alpha virt. eigenvalues --    5.05457   5.07454   5.13012   5.14054   5.14555
 Alpha virt. eigenvalues --    5.22154   5.22325   5.22713   5.29679   5.31540
 Alpha virt. eigenvalues --    5.35335   5.36181   5.39844   5.41030   5.42951
 Alpha virt. eigenvalues --    5.43104   5.43914   5.45431   5.46087   5.48138
 Alpha virt. eigenvalues --    5.51010   5.51795   5.55333   5.57083   5.57248
 Alpha virt. eigenvalues --    5.60152   5.60589   5.63075   5.67176   5.68402
 Alpha virt. eigenvalues --    5.68625   5.69954   5.71542   5.72216   5.72257
 Alpha virt. eigenvalues --    5.72297   5.74144   5.75287   5.75661   5.78235
 Alpha virt. eigenvalues --    5.79662   5.80952   5.81629   5.81675   5.82614
 Alpha virt. eigenvalues --    5.82691   5.83497   5.85280   5.86826   5.88319
 Alpha virt. eigenvalues --    5.92209   5.93605   5.94070   5.94274   5.94421
 Alpha virt. eigenvalues --    5.95134   5.97402   5.99145   5.99567   5.99892
 Alpha virt. eigenvalues --    6.01114   6.03408   6.03538   6.04268   6.07877
 Alpha virt. eigenvalues --    6.08471   6.09786   6.09955   6.10294   6.12063
 Alpha virt. eigenvalues --    6.12492   6.12595   6.14574   6.15722   6.16220
 Alpha virt. eigenvalues --    6.17322   6.17871   6.20545   6.20571   6.23249
 Alpha virt. eigenvalues --    6.25845   6.26490   6.27328   6.28146   6.28834
 Alpha virt. eigenvalues --    6.30299   6.30540   6.31736   6.34226   6.35539
 Alpha virt. eigenvalues --    6.35696   6.38716   6.39171   6.39397   6.41008
 Alpha virt. eigenvalues --    6.41040   6.43306   6.43553   6.45158   6.45391
 Alpha virt. eigenvalues --    6.48647   6.49812   6.51132   6.54527   6.55745
 Alpha virt. eigenvalues --    6.57786   6.58295   6.58773   6.61177   6.62149
 Alpha virt. eigenvalues --    6.62677   6.65653   6.66829   6.68609   6.71743
 Alpha virt. eigenvalues --    6.73383   6.75057   6.75076   6.78267   6.80590
 Alpha virt. eigenvalues --    6.80782   6.83218   6.85053   6.86544   6.89341
 Alpha virt. eigenvalues --    6.95574   6.98299   6.98520   6.98912   7.00200
 Alpha virt. eigenvalues --    7.02049   7.04194   7.08348   7.08541   7.09793
 Alpha virt. eigenvalues --    7.10098   7.11412   7.12744   7.17095   7.21359
 Alpha virt. eigenvalues --    7.23929   7.24650   7.26087   7.28036   7.30419
 Alpha virt. eigenvalues --    7.33182   7.33528   7.34102   7.34944   7.34967
 Alpha virt. eigenvalues --    7.37685   7.38210   7.38323   7.39048   7.40175
 Alpha virt. eigenvalues --    7.41282   7.43580   7.44136   7.44216   7.44461
 Alpha virt. eigenvalues --    7.46145   7.46401   7.47907   7.50247   7.52467
 Alpha virt. eigenvalues --    7.52537   7.52746   7.54610   7.55985   7.58906
 Alpha virt. eigenvalues --    7.59587   7.60305   7.60840   7.61923   7.63340
 Alpha virt. eigenvalues --    7.63479   7.64953   7.65428   7.66774   7.67334
 Alpha virt. eigenvalues --    7.68094   7.69827   7.70457   7.72616   7.72838
 Alpha virt. eigenvalues --    7.75348   7.75654   7.80503   7.81344   7.82742
 Alpha virt. eigenvalues --    7.85391   7.86115   7.86696   7.87915   7.90280
 Alpha virt. eigenvalues --    7.93544   7.94231   7.94954   7.96085   7.99345
 Alpha virt. eigenvalues --    8.01554   8.03151   8.05609   8.07745   8.12103
 Alpha virt. eigenvalues --    8.14075   8.14235   8.15264   8.16088   8.17278
 Alpha virt. eigenvalues --    8.18296   8.18392   8.20050   8.20333   8.21636
 Alpha virt. eigenvalues --    8.21866   8.22955   8.22988   8.24061   8.25673
 Alpha virt. eigenvalues --    8.28531   8.29840   8.29905   8.30550   8.31005
 Alpha virt. eigenvalues --    8.31555   8.32799   8.34646   8.34697   8.34976
 Alpha virt. eigenvalues --    8.35483   8.39979   8.41848   8.43821   8.46951
 Alpha virt. eigenvalues --    8.47287   8.48380   8.50443   8.55817   8.57041
 Alpha virt. eigenvalues --    8.58114   8.60218   8.62729   8.65559   8.66530
 Alpha virt. eigenvalues --    8.68415   8.69365   8.71506   8.71817   8.72554
 Alpha virt. eigenvalues --    8.73721   8.74242   8.74681   8.77108   8.77678
 Alpha virt. eigenvalues --    8.79304   8.83185   8.83843   8.85871   8.86000
 Alpha virt. eigenvalues --    8.89012   8.95973   8.99076   8.99851   9.02849
 Alpha virt. eigenvalues --    9.06366   9.09257   9.14388   9.32280   9.39428
 Alpha virt. eigenvalues --    9.41132   9.45963   9.51801   9.53489   9.54145
 Alpha virt. eigenvalues --    9.54255   9.56314   9.56552   9.59420   9.61675
 Alpha virt. eigenvalues --    9.62861   9.66977   9.67021   9.67782   9.68666
 Alpha virt. eigenvalues --    9.70214   9.72658   9.73013   9.74687   9.75126
 Alpha virt. eigenvalues --    9.79332   9.85544   9.86765   9.90430   9.91397
 Alpha virt. eigenvalues --    9.93489   9.94790   9.99088   9.99165  10.08033
 Alpha virt. eigenvalues --   10.10418  10.11238  10.15718  10.16447  10.24303
 Alpha virt. eigenvalues --   10.25933  10.30902  10.33125  10.76268  11.59564
 Alpha virt. eigenvalues --   11.65181  11.66604  11.75114  11.91642  12.01042
 Alpha virt. eigenvalues --   12.08212  12.15294  12.99098  13.09963  13.11091
 Alpha virt. eigenvalues --   13.21504  28.20368  28.91585  28.98220  29.08304
 Alpha virt. eigenvalues --   29.22196  29.22816 145.69380 146.39601 146.48705
 Alpha virt. eigenvalues --  146.56432 146.71652 146.73838
          Condensed to atoms (all electrons):
               1          2          3          4          5          6
     1  C    5.015605   0.643245   0.325214   0.325214  -0.047021  -0.047021
     2  C    0.643245   5.015605  -0.047021  -0.047021   0.325214   0.325214
     3  C    0.325214  -0.047021   5.427413  -0.096386  -0.021524   0.007002
     4  C    0.325214  -0.047021  -0.096386   5.427413   0.007002  -0.021524
     5  C   -0.047021   0.325214  -0.021524   0.007002   5.427413  -0.096386
     6  C   -0.047021   0.325214   0.007002  -0.021524  -0.096386   5.427413
     7  H   -0.049610   0.001782   0.371822   0.007589  -0.008495   0.000223
     8  H   -0.055583   0.000654   0.367681  -0.005163   0.000718  -0.000471
     9  H   -0.048762  -0.001282   0.359856  -0.001507   0.001195  -0.000552
    10  H   -0.049610   0.001782   0.007589   0.371822   0.000223  -0.008495
    11  H   -0.048762  -0.001282  -0.001507   0.359856  -0.000552   0.001195
    12  H   -0.055583   0.000654  -0.005163   0.367681  -0.000471   0.000718
    13  H    0.001782  -0.049610  -0.008495   0.000223   0.371822   0.007589
    14  H    0.000654  -0.055583   0.000718  -0.000471   0.367681  -0.005163
    15  H   -0.001282  -0.048762   0.001195  -0.000552   0.359856  -0.001507
    16  H    0.001782  -0.049610   0.000223  -0.008495   0.007589   0.371822
    17  H   -0.001282  -0.048762  -0.000552   0.001195  -0.001507   0.359856
    18  H    0.000654  -0.055583  -0.000471   0.000718  -0.005163   0.367681
               7          8          9         10         11         12
     1  C   -0.049610  -0.055583  -0.048762  -0.049610  -0.048762  -0.055583
     2  C    0.001782   0.000654  -0.001282   0.001782  -0.001282   0.000654
     3  C    0.371822   0.367681   0.359856   0.007589  -0.001507  -0.005163
     4  C    0.007589  -0.005163  -0.001507   0.371822   0.359856   0.367681
     5  C   -0.008495   0.000718   0.001195   0.000223  -0.000552  -0.000471
     6  C    0.000223  -0.000471  -0.000552  -0.008495   0.001195   0.000718
     7  H    0.535143  -0.035825  -0.030872  -0.000534   0.000178  -0.000150
     8  H   -0.035825   0.545826  -0.048871  -0.000150   0.005568  -0.001813
     9  H   -0.030872  -0.048871   0.564797   0.000178  -0.003266   0.005568
    10  H   -0.000534  -0.000150   0.000178   0.535143  -0.030872  -0.035825
    11  H    0.000178   0.005568  -0.003266  -0.030872   0.564797  -0.048871
    12  H   -0.000150  -0.001813   0.005568  -0.035825  -0.048871   0.545826
    13  H   -0.003879   0.000311  -0.000136   0.000003   0.000027  -0.000047
    14  H    0.000311  -0.000574   0.000709  -0.000047  -0.000129   0.000356
    15  H   -0.000136   0.000709  -0.000300   0.000027   0.000211  -0.000129
    16  H    0.000003  -0.000047   0.000027  -0.003879  -0.000136   0.000311
    17  H    0.000027  -0.000129   0.000211  -0.000136  -0.000300   0.000709
    18  H   -0.000047   0.000356  -0.000129   0.000311   0.000709  -0.000574
              13         14         15         16         17         18
     1  C    0.001782   0.000654  -0.001282   0.001782  -0.001282   0.000654
     2  C   -0.049610  -0.055583  -0.048762  -0.049610  -0.048762  -0.055583
     3  C   -0.008495   0.000718   0.001195   0.000223  -0.000552  -0.000471
     4  C    0.000223  -0.000471  -0.000552  -0.008495   0.001195   0.000718
     5  C    0.371822   0.367681   0.359856   0.007589  -0.001507  -0.005163
     6  C    0.007589  -0.005163  -0.001507   0.371822   0.359856   0.367681
     7  H   -0.003879   0.000311  -0.000136   0.000003   0.000027  -0.000047
     8  H    0.000311  -0.000574   0.000709  -0.000047  -0.000129   0.000356
     9  H   -0.000136   0.000709  -0.000300   0.000027   0.000211  -0.000129
    10  H    0.000003  -0.000047   0.000027  -0.003879  -0.000136   0.000311
    11  H    0.000027  -0.000129   0.000211  -0.000136  -0.000300   0.000709
    12  H   -0.000047   0.000356  -0.000129   0.000311   0.000709  -0.000574
    13  H    0.535143  -0.035825  -0.030872  -0.000534   0.000178  -0.000150
    14  H   -0.035825   0.545826  -0.048871  -0.000150   0.005568  -0.001813
    15  H   -0.030872  -0.048871   0.564797   0.000178  -0.003266   0.005568
    16  H   -0.000534  -0.000150   0.000178   0.535143  -0.030872  -0.035825
    17  H    0.000178   0.005568  -0.003266  -0.030872   0.564797  -0.048871
    18  H   -0.000150  -0.001813   0.005568  -0.035825  -0.048871   0.545826
 Mulliken charges:
               1
     1  C    0.090369
     2  C    0.090369
     3  C   -0.687594
     4  C   -0.687594
     5  C   -0.687594
     6  C   -0.687594
     7  H    0.212469
     8  H    0.226804
     9  H    0.203137
    10  H    0.212469
    11  H    0.203137
    12  H    0.226804
    13  H    0.212469
    14  H    0.226804
    15  H    0.203137
    16  H    0.212469
    17  H    0.203137
    18  H    0.226804
 Sum of Mulliken charges =  -0.00000
 Mulliken charges with hydrogens summed into heavy atoms:
               1
     1  C    0.090369
     2  C    0.090369
     3  C   -0.045184
     4  C   -0.045184
     5  C   -0.045184
     6  C   -0.045184
 Electronic spatial extent (au):  <R**2>=            728.5050
 Charge=              0.0000 electrons
 Dipole moment (field-independent basis, Debye):
    X=              0.0000    Y=              0.0000    Z=             -0.0000  Tot=              0.0000
 Quadrupole moment (field-independent basis, Debye-Ang):
   XX=            -41.1514   YY=            -39.7034   ZZ=            -39.1467
   XY=              0.0000   XZ=              0.0000   YZ=              0.0000
 Traceless Quadrupole moment (field-independent basis, Debye-Ang):
   XX=             -1.1509   YY=              0.2971   ZZ=              0.8538
   XY=              0.0000   XZ=              0.0000   YZ=              0.0000
 Octapole moment (field-independent basis, Debye-Ang**2):
  XXX=             -0.0000  YYY=             -0.0000  ZZZ=              0.0000  XYY=              0.0000
  XXY=             -0.0000  XXZ=             -0.0000  XZZ=              0.0000  YZZ=             -0.0000
  YYZ=              0.0000  XYZ=              0.4370
 Hexadecapole moment (field-independent basis, Debye-Ang**3):
 XXXX=            -74.2507 YYYY=           -386.1597 ZZZZ=           -569.7172 XXXY=             -0.0000
 XXXZ=              0.0000 YYYX=             -0.0000 YYYZ=              0.0000 ZZZX=             -0.0000
 ZZZY=              0.0000 XXYY=            -78.9527 XXZZ=            -97.8776 YYZZ=           -166.7335
 XXYZ=             -0.0000 YYXZ=              0.0000 ZZXY=             -0.0000
 N-N= 2.406684529839D+02 E-N=-1.026805689815D+03  KE= 2.345366544094D+02
 PrsmSu:  requested number of processors reduced to:  20 ShMem   1 Linda.
 No NMR shielding tensors so no spin-rotation constants.
 Leave Link  601 at Fri Apr 16 23:03:17 2021, MaxMem=   104857600 cpu:             589.6 elap:              12.8
 (Enter /s/ls4/users/knvvv/bin/g16sse/l801.exe)
 DoSCS=F DFT=T ScalE2(SS,OS)=  1.000000  1.000000
 Range of M.O.s used for correlation:     1   702
 NBasis=   702 NAE=    24 NBE=    24 NFC=     0 NFV=     0
 NROrb=    702 NOA=    24 NOB=    24 NVA=   678 NVB=   678

 **** Warning!!: The largest alpha MO coefficient is  0.40516928D+02

 Leave Link  801 at Fri Apr 16 23:03:18 2021, MaxMem=   104857600 cpu:               4.7 elap:               0.1
 (Enter /s/ls4/users/knvvv/bin/g16sse/l914.exe)
 RHF ground state
 Doing stability rather than CIS.
 Two-electron integrals replicated using symmetry.
 MDV=   104857600 DFT=T DoStab=T Mixed=T DoRPA=F DoScal=F NonHer=F
 Making orbital integer symmetry assigments:
 Orbital symmetries:
       Occupied  (A) (B1) (B3) (B2) (B1) (A) (A) (B1) (B2) (B3)
                 (A) (B1) (A) (B3) (B2) (B2) (B1) (B1) (A) (B2)
                 (B3) (A) (B3) (B3)
       Virtual   (A) (B1) (B2) (B2) (A) (B3) (B3) (B2) (B3) (B1)
                 (A) (B2) (B1) (A) (B1) (B2) (A) (B1) (B3) (B1)
                 (B3) (B2) (B3) (B2) (A) (B2) (A) (B1) (A) (B2)
                 (B2) (A) (B1) (B3) (B3) (B1) (A) (B3) (B1) (B2)
                 (A) (B2) (B2) (B3) (A) (B1) (B3) (B1) (B3) (A)
                 (B3) (B2) (B1) (B1) (B1) (A) (B2) (B3) (A) (B2)
                 (B1) (B3) (A) (B2) (B1) (B3) (A) (B3) (B1) (B2)
                 (A) (B3) (B1) (A) (B1) (B2) (B1) (B2) (A) (B3)
                 (B2) (B3) (B2) (A) (B3) (B2) (A) (B3) (B1) (B1)
                 (B3) (A) (A) (B2) (B1) (B3) (B2) (A) (A) (B2)
                 (B1) (B3) (B2) (B1) (B3) (A) (A) (B2) (B3) (B2)
                 (B1) (B1) (B1) (A) (A) (B2) (B3) (B2) (B1) (B3)
                 (B1) (A) (B2) (B3) (B1) (B3) (A) (B1) (A) (B3)
                 (B2) (B1) (A) (B3) (B2) (A) (B1) (B2) (B3) (B2)
                 (B3) (B1) (A) (B2) (A) (B1) (B3) (B2) (B1) (B3)
                 (A) (B3) (B1) (B2) (B1) (A) (B3) (B2) (A) (B3)
                 (B2) (B1) (B2) (B1) (B3) (A) (A) (B3) (B1) (B2)
                 (B3) (A) (B1) (B2) (A) (B3) (A) (B1) (B2) (B1)
                 (A) (B2) (B1) (A) (B3) (B3) (B2) (B1) (A) (B1)
                 (B3) (B2) (B3) (A) (B2) (B1) (B3) (B1) (A) (B2)
                 (A) (B2) (B1) (B2) (B3) (A) (B2) (B3) (A) (B2)
                 (B1) (B3) (A) (B1) (A) (B2) (B3) (B3) (B1) (B2)
                 (A) (B1) (B2) (B3) (A) (B2) (A) (B3) (B1) (A)
                 (B1) (B3) (B3) (B2) (B2) (B1) (A) (B3) (B1) (B1)
                 (B2) (A) (B3) (B2) (B3) (B1) (B3) (A) (B2) (B1)
                 (B2) (A) (A) (B3) (B1) (A) (B2) (B3) (B1) (B2)
                 (B1) (A) (B3) (A) (B2) (B3) (B1) (B2) (B3) (A)
                 (B1) (B2) (A) (B3) (B1) (B2) (A) (B1) (B3) (A)
                 (B2) (B3) (B1) (B2) (A) (B3) (B1) (A) (B2) (B1)
                 (B2) (A) (B3) (A) (B3) (B1) (B3) (B2) (B2) (A)
                 (B1) (B3) (B2) (A) (B1) (B1) (B3) (B2) (B1) (A)
                 (B3) (B1) (B2) (B3) (A) (B2) (B3) (A) (B1) (B2)
                 (B3) (B1) (B3) (B2) (A) (A) (B1) (B2) (B1) (B3)
                 (A) (B2) (A) (B2) (B1) (B3) (B1) (A) (B3) (B2)
                 (B3) (B1) (B3) (A) (A) (B1) (B2) (A) (B1) (B3)
                 (B3) (A) (B1) (B2) (B2) (B3) (B2) (A) (B3) (B1)
                 (B2) (B2) (B1) (A) (A) (A) (B1) (B1) (B1) (B2)
                 (A) (B3) (B3) (B1) (A) (B2) (B1) (A) (B1) (B2)
                 (B3) (A) (B2) (B3) (B3) (B2) (A) (B3) (B1) (B2)
                 (B1) (A) (B1) (A) (B3) (B3) (B2) (B1) (B2) (B3)
                 (A) (B1) (B2) (B3) (A) (B2) (B1) (B2) (B3) (A)
                 (B3) (B2) (B3) (A) (B2) (B1) (B3) (B1) (A) (B2)
                 (B1) (B3) (B3) (A) (A) (B2) (B1) (B3) (A) (B2)
                 (B1) (B2) (A) (B1) (B3) (A) (B3) (B2) (B1) (A)
                 (B3) (B1) (B2) (A) (B1) (A) (B2) (B3) (B1) (B3)
                 (B1) (B2) (A) (B2) (B1) (B3) (B3) (B2) (A) (B3)
                 (A) (B2) (B1) (B3) (B1) (B2) (A) (B1) (A) (B2)
                 (B2) (A) (B3) (B1) (A) (B3) (B1) (A) (B3) (B2)
                 (B1) (B2) (B3) (A) (B2) (B3) (B1) (B2) (A) (B1)
                 (B2) (B1) (B3) (A) (B2) (B1) (A) (B3) (A) (B3)
                 (B1) (B1) (A) (B1) (B3) (B2) (B3) (A) (B2) (B2)
                 (A) (B1) (B3) (B2) (B1) (B3) (A) (B1) (B2) (A)
                 (B3) (B2) (B1) (B3) (A) (B2) (B3) (A) (A) (B1)
                 (B3) (B1) (B2) (B3) (B1) (A) (B2) (B3) (B1) (B2)
                 (B3) (A) (B2) (A) (A) (B2) (B1) (B3) (B1) (B3)
                 (B2) (A) (B2) (B1) (B3) (B1) (A) (A) (B2) (B1)
                 (B3) (B2) (A) (B3) (B1) (B2) (A) (B3) (B1) (A)
                 (B3) (B1) (B2) (A) (B3) (B2) (B1) (A) (B2) (A)
                 (B2) (B1) (B3) (B2) (B3) (B2) (B1) (A) (B3) (B3)
                 (B1) (A) (B2) (B3) (A) (B1) (B3) (B2) (B1) (B2)
                 (A) (A) (B1) (B2) (B3) (B1) (B1) (B2) (A) (B3)
                 (A) (B1) (B2) (B1) (B3) (A) (B3) (B1) (B2) (A)
                 (B3) (A) (B2) (B1) (B3) (B1) (A) (B2) (B2) (B3)
                 (B2) (B3) (A) (B1) (A) (B1) (B3) (A) (B2) (B1)
                 (B3) (B3) (B2) (B1) (A) (B2) (B1) (B3) (A) (B2)
                 (B3) (B1) (A) (B1) (B1) (B3) (A) (B2) (A) (B2)
                 (B3) (B1) (A) (B2) (B1) (B3) (A) (B1) (A) (B2)
                 (B3) (B1) (A) (B1) (A) (B2) (B3) (B1)
    24 initial guesses have been made.
 Convergence on wavefunction:    0.001000000000000
 Davidson Disk Diagonalization:  ConvIn= 1.00D-03 SkipCon=T Conv= 1.00D-03.
 Max sub-space:  2000 roots to seek:    24 dimension of matrix:        32544
 Iteration     1 Dimension    24 NMult     0 NNew     24
 Estimated number of processors is:   12
 CISAX will form     1 AO SS matrices at one time.
 NMat=     1 NSing=     1 JSym2X= 2.
 FoFJK:  IHMeth= 1 ICntrl=       0 DoSepK=F KAlg= 0 I1Cent=           0 FoldK=F
 IRaf= 920000000 NMat=       1 IRICut=       1 DoRegI=T DoRafI=F ISym2E= 2 IDoP0=0 IntGTp=1.
 FoFCou: FMM=F IPFlag=           0 FMFlag=      100000 FMFlg1=           0
         NFxFlg=           0 DoJE=F BraDBF=F KetDBF=F FulRan=T
         wScrn=  0.000000 ICntrl=         0 IOpCl=  0 I1Cent=           0 NGrid=           0
         NMat0=    1 NMatS0=      1 NMatT0=    0 NMatD0=    1 NMtDS0=    0 NMtDT0=    0
 Integrals replicated using symmetry in FoFCou.
 CoulSu:  requested number of processors reduced to:  15 ShMem   1 Linda.
 CalDSu:  requested number of processors reduced to:  37 ShMem   1 Linda.
 NMat=     1 NSing=     1 JSym2X= 2.
 CoulSu:  requested number of processors reduced to:  15 ShMem   1 Linda.
 CalDSu:  requested number of processors reduced to:  37 ShMem   1 Linda.
 NMat=     1 NSing=     1 JSym2X= 2.
 CoulSu:  requested number of processors reduced to:  15 ShMem   1 Linda.
 CalDSu:  requested number of processors reduced to:  37 ShMem   1 Linda.
 NMat=     1 NSing=     1 JSym2X= 2.
 CoulSu:  requested number of processors reduced to:  15 ShMem   1 Linda.
 CalDSu:  requested number of processors reduced to:  37 ShMem   1 Linda.
 NMat=     1 NSing=     1 JSym2X= 2.
 CoulSu:  requested number of processors reduced to:  15 ShMem   1 Linda.
 CalDSu:  requested number of processors reduced to:  37 ShMem   1 Linda.
 NMat=     1 NSing=     1 JSym2X= 2.
 CoulSu:  requested number of processors reduced to:  15 ShMem   1 Linda.
 CalDSu:  requested number of processors reduced to:  37 ShMem   1 Linda.
 NMat=     1 NSing=     1 JSym2X= 2.
 CoulSu:  requested number of processors reduced to:  15 ShMem   1 Linda.
 CalDSu:  requested number of processors reduced to:  37 ShMem   1 Linda.
 NMat=     1 NSing=     1 JSym2X= 2.
 CoulSu:  requested number of processors reduced to:  15 ShMem   1 Linda.
 CalDSu:  requested number of processors reduced to:  37 ShMem   1 Linda.
 NMat=     1 NSing=     1 JSym2X= 2.
 CoulSu:  requested number of processors reduced to:  15 ShMem   1 Linda.
 CalDSu:  requested number of processors reduced to:  37 ShMem   1 Linda.
 NMat=     1 NSing=     1 JSym2X= 2.
 CoulSu:  requested number of processors reduced to:  15 ShMem   1 Linda.
 CalDSu:  requested number of processors reduced to:  37 ShMem   1 Linda.
 NMat=     1 NSing=     1 JSym2X= 2.
 CoulSu:  requested number of processors reduced to:  15 ShMem   1 Linda.
 CalDSu:  requested number of processors reduced to:  37 ShMem   1 Linda.
 NMat=     1 NSing=     1 JSym2X= 2.
 CoulSu:  requested number of processors reduced to:  15 ShMem   1 Linda.
 CalDSu:  requested number of processors reduced to:  37 ShMem   1 Linda.
 NMat=     1 NSing=     0 JSym2X= 2.
 CoulSu:  requested number of processors reduced to:  15 ShMem   1 Linda.
 CalDSu:  requested number of processors reduced to:  37 ShMem   1 Linda.
 NMat=     1 NSing=     0 JSym2X= 2.
 CoulSu:  requested number of processors reduced to:  15 ShMem   1 Linda.
 CalDSu:  requested number of processors reduced to:  37 ShMem   1 Linda.
 NMat=     1 NSing=     0 JSym2X= 2.
 CoulSu:  requested number of processors reduced to:  15 ShMem   1 Linda.
 CalDSu:  requested number of processors reduced to:  37 ShMem   1 Linda.
 NMat=     1 NSing=     0 JSym2X= 2.
 CoulSu:  requested number of processors reduced to:  15 ShMem   1 Linda.
 CalDSu:  requested number of processors reduced to:  37 ShMem   1 Linda.
 NMat=     1 NSing=     0 JSym2X= 2.
 CoulSu:  requested number of processors reduced to:  15 ShMem   1 Linda.
 CalDSu:  requested number of processors reduced to:  37 ShMem   1 Linda.
 NMat=     1 NSing=     0 JSym2X= 2.
 CoulSu:  requested number of processors reduced to:  15 ShMem   1 Linda.
 CalDSu:  requested number of processors reduced to:  37 ShMem   1 Linda.
 NMat=     1 NSing=     0 JSym2X= 2.
 CoulSu:  requested number of processors reduced to:  15 ShMem   1 Linda.
 CalDSu:  requested number of processors reduced to:  37 ShMem   1 Linda.
 NMat=     1 NSing=     0 JSym2X= 2.
 CoulSu:  requested number of processors reduced to:  15 ShMem   1 Linda.
 CalDSu:  requested number of processors reduced to:  37 ShMem   1 Linda.
 NMat=     1 NSing=     0 JSym2X= 2.
 CoulSu:  requested number of processors reduced to:  15 ShMem   1 Linda.
 CalDSu:  requested number of processors reduced to:  37 ShMem   1 Linda.
 NMat=     1 NSing=     0 JSym2X= 2.
 CoulSu:  requested number of processors reduced to:  15 ShMem   1 Linda.
 CalDSu:  requested number of processors reduced to:  37 ShMem   1 Linda.
 NMat=     1 NSing=     0 JSym2X= 2.
 CoulSu:  requested number of processors reduced to:  15 ShMem   1 Linda.
 CalDSu:  requested number of processors reduced to:  37 ShMem   1 Linda.
 NMat=     1 NSing=     0 JSym2X= 2.
 CoulSu:  requested number of processors reduced to:  15 ShMem   1 Linda.
 CalDSu:  requested number of processors reduced to:  37 ShMem   1 Linda.
 New state      1 was old state      6
 Excitation Energies [eV] at current iteration:
 Root      1 :     4.094017874576151
 Root      2 :     6.367914552438324
 Root      3 :     6.467290106570373
 Root      4 :     7.113881368847248
 Root      5 :     7.199002128547075
 Root      6 :     7.237807374345278
 Root      7 :     7.269299539051047
 Root      8 :     7.622714757816222
 Root      9 :     7.629161850789385
 Root     10 :     8.074473285799531
 Root     11 :     8.188959894010837
 Root     12 :     8.214069012041914
 Root     13 :     8.231799481142755
 Root     14 :     8.248256360237171
 Root     15 :     8.583630487969019
 Root     16 :     8.599324851663440
 Root     17 :     8.844521100076655
 Root     18 :     8.847769678612092
 Root     19 :     8.852636103096073
 Root     20 :     8.854418266504274
 Root     21 :     8.866329695283049
 Root     22 :     8.873060238978157
 Root     23 :     8.901610073409778
 Root     24 :    12.812420664533710
 Iteration     2 Dimension    48 NMult    24 NNew     24
 Estimated number of processors is:   12
 CISAX will form     1 AO SS matrices at one time.
 NMat=     1 NSing=     1 JSym2X= 2.
 CoulSu:  requested number of processors reduced to:  15 ShMem   1 Linda.
 CalDSu:  requested number of processors reduced to:  37 ShMem   1 Linda.
 NMat=     1 NSing=     1 JSym2X= 2.
 CoulSu:  requested number of processors reduced to:  15 ShMem   1 Linda.
 CalDSu:  requested number of processors reduced to:  37 ShMem   1 Linda.
 NMat=     1 NSing=     1 JSym2X= 2.
 CoulSu:  requested number of processors reduced to:  15 ShMem   1 Linda.
 CalDSu:  requested number of processors reduced to:  37 ShMem   1 Linda.
 NMat=     1 NSing=     1 JSym2X= 2.
 CoulSu:  requested number of processors reduced to:  15 ShMem   1 Linda.
 CalDSu:  requested number of processors reduced to:  37 ShMem   1 Linda.
 NMat=     1 NSing=     1 JSym2X= 2.
 CoulSu:  requested number of processors reduced to:  15 ShMem   1 Linda.
 CalDSu:  requested number of processors reduced to:  37 ShMem   1 Linda.
 NMat=     1 NSing=     1 JSym2X= 2.
 CoulSu:  requested number of processors reduced to:  15 ShMem   1 Linda.
 CalDSu:  requested number of processors reduced to:  37 ShMem   1 Linda.
 NMat=     1 NSing=     1 JSym2X= 2.
 CoulSu:  requested number of processors reduced to:  15 ShMem   1 Linda.
 CalDSu:  requested number of processors reduced to:  37 ShMem   1 Linda.
 NMat=     1 NSing=     1 JSym2X= 2.
 CoulSu:  requested number of processors reduced to:  15 ShMem   1 Linda.
 CalDSu:  requested number of processors reduced to:  37 ShMem   1 Linda.
 NMat=     1 NSing=     1 JSym2X= 2.
 CoulSu:  requested number of processors reduced to:  15 ShMem   1 Linda.
 CalDSu:  requested number of processors reduced to:  37 ShMem   1 Linda.
 NMat=     1 NSing=     1 JSym2X= 2.
 CoulSu:  requested number of processors reduced to:  15 ShMem   1 Linda.
 CalDSu:  requested number of processors reduced to:  37 ShMem   1 Linda.
 NMat=     1 NSing=     1 JSym2X= 2.
 CoulSu:  requested number of processors reduced to:  15 ShMem   1 Linda.
 CalDSu:  requested number of processors reduced to:  37 ShMem   1 Linda.
 NMat=     1 NSing=     1 JSym2X= 2.
 CoulSu:  requested number of processors reduced to:  15 ShMem   1 Linda.
 CalDSu:  requested number of processors reduced to:  37 ShMem   1 Linda.
 NMat=     1 NSing=     0 JSym2X= 2.
 CoulSu:  requested number of processors reduced to:  15 ShMem   1 Linda.
 CalDSu:  requested number of processors reduced to:  37 ShMem   1 Linda.
 NMat=     1 NSing=     0 JSym2X= 2.
 CoulSu:  requested number of processors reduced to:  15 ShMem   1 Linda.
 CalDSu:  requested number of processors reduced to:  37 ShMem   1 Linda.
 NMat=     1 NSing=     0 JSym2X= 2.
 CoulSu:  requested number of processors reduced to:  15 ShMem   1 Linda.
 CalDSu:  requested number of processors reduced to:  37 ShMem   1 Linda.
 NMat=     1 NSing=     0 JSym2X= 2.
 CoulSu:  requested number of processors reduced to:  15 ShMem   1 Linda.
 CalDSu:  requested number of processors reduced to:  37 ShMem   1 Linda.
 NMat=     1 NSing=     0 JSym2X= 2.
 CoulSu:  requested number of processors reduced to:  15 ShMem   1 Linda.
 CalDSu:  requested number of processors reduced to:  37 ShMem   1 Linda.
 NMat=     1 NSing=     0 JSym2X= 2.
 CoulSu:  requested number of processors reduced to:  15 ShMem   1 Linda.
 CalDSu:  requested number of processors reduced to:  37 ShMem   1 Linda.
 NMat=     1 NSing=     0 JSym2X= 2.
 CoulSu:  requested number of processors reduced to:  15 ShMem   1 Linda.
 CalDSu:  requested number of processors reduced to:  37 ShMem   1 Linda.
 NMat=     1 NSing=     0 JSym2X= 2.
 CoulSu:  requested number of processors reduced to:  15 ShMem   1 Linda.
 CalDSu:  requested number of processors reduced to:  37 ShMem   1 Linda.
 NMat=     1 NSing=     0 JSym2X= 2.
 CoulSu:  requested number of processors reduced to:  15 ShMem   1 Linda.
 CalDSu:  requested number of processors reduced to:  37 ShMem   1 Linda.
 NMat=     1 NSing=     0 JSym2X= 2.
 CoulSu:  requested number of processors reduced to:  15 ShMem   1 Linda.
 CalDSu:  requested number of processors reduced to:  37 ShMem   1 Linda.
 NMat=     1 NSing=     0 JSym2X= 2.
 CoulSu:  requested number of processors reduced to:  15 ShMem   1 Linda.
 CalDSu:  requested number of processors reduced to:  37 ShMem   1 Linda.
 NMat=     1 NSing=     0 JSym2X= 2.
 CoulSu:  requested number of processors reduced to:  15 ShMem   1 Linda.
 CalDSu:  requested number of processors reduced to:  37 ShMem   1 Linda.
 Root      1 not converged, maximum delta is    0.086603402861986
 Excitation Energies [eV] at current iteration:
 Root      1 :     3.447259687670736   Change is   -0.646758186905415
 Root      2 :     6.254502142566669   Change is   -0.212787964003704
 Root      3 :     6.280377826595508   Change is   -0.087536725842817
 Root      4 :     7.043930840430902   Change is   -0.069950528416346
 Root      5 :     7.060875867729009   Change is   -0.138126260818067
 Root      6 :     7.165911696298162   Change is   -0.103387842752885
 Root      7 :     7.170294221022627   Change is   -0.067513153322651
 Root      8 :     7.445123435450368   Change is   -0.184038415339018
 Root      9 :     7.525294863279898   Change is   -0.097419894536325
 Root     10 :     7.766886006210759   Change is   -0.447183005831155
 Root     11 :     7.965775161424305   Change is   -0.108698124375227
 Root     12 :     8.093260558797832   Change is   -0.154995801439339
 Root     13 :     8.138674123375852   Change is   -0.050285770634985
 Root     14 :     8.156587453509848   Change is   -0.075212027632907
 Root     15 :     8.366268550184401   Change is   -0.217361937784618
 Root     16 :     8.433230906983120   Change is   -0.166093944680320
 Root     17 :     8.616342887166160   Change is   -0.236293215929913
 Root     18 :     8.656024368045014   Change is   -0.217035870933143
 Root     19 :     8.666673837967201   Change is   -0.187744428537072
 Root     20 :     8.687844479481727   Change is   -0.213765593928050
 Root     21 :     8.701853823263614   Change is   -0.164475872019436
 Root     22 :     8.750506165205966   Change is   -0.097263513406128
 Root     23 :     8.753749638047610   Change is   -0.090771462029045
 Root     24 :     9.229706585444930   Change is   -3.582714079088784
 Iteration     3 Dimension    54 NMult    48 NNew      6
 Estimated number of processors is:   12
 CISAX will form     1 AO SS matrices at one time.
 NMat=     1 NSing=     1 JSym2X= 2.
 CoulSu:  requested number of processors reduced to:  15 ShMem   1 Linda.
 CalDSu:  requested number of processors reduced to:  37 ShMem   1 Linda.
 NMat=     1 NSing=     1 JSym2X= 2.
 CoulSu:  requested number of processors reduced to:  15 ShMem   1 Linda.
 CalDSu:  requested number of processors reduced to:  37 ShMem   1 Linda.
 NMat=     1 NSing=     1 JSym2X= 2.
 CoulSu:  requested number of processors reduced to:  15 ShMem   1 Linda.
 CalDSu:  requested number of processors reduced to:  37 ShMem   1 Linda.
 NMat=     1 NSing=     0 JSym2X= 2.
 CoulSu:  requested number of processors reduced to:  15 ShMem   1 Linda.
 CalDSu:  requested number of processors reduced to:  37 ShMem   1 Linda.
 NMat=     1 NSing=     0 JSym2X= 2.
 CoulSu:  requested number of processors reduced to:  15 ShMem   1 Linda.
 CalDSu:  requested number of processors reduced to:  37 ShMem   1 Linda.
 NMat=     1 NSing=     0 JSym2X= 2.
 CoulSu:  requested number of processors reduced to:  15 ShMem   1 Linda.
 CalDSu:  requested number of processors reduced to:  37 ShMem   1 Linda.
 Root      1 not converged, maximum delta is    0.009268848699187
 Excitation Energies [eV] at current iteration:
 Root      1 :     3.415898683189750   Change is   -0.031361004480986
 Root      2 :     6.236255511125806   Change is   -0.018246631440864
 Root      3 :     6.264758612395971   Change is   -0.015619214199538
 Root      4 :     7.039055636461799   Change is   -0.004875203969103
 Root      5 :     7.045029651998517   Change is   -0.015846215730492
 Root      6 :     7.165995193910926   Change is   -0.004299027111701
 Iteration     4 Dimension    60 NMult    54 NNew      6
 Estimated number of processors is:   12
 CISAX will form     1 AO SS matrices at one time.
 NMat=     1 NSing=     1 JSym2X= 2.
 CoulSu:  requested number of processors reduced to:  15 ShMem   1 Linda.
 CalDSu:  requested number of processors reduced to:  37 ShMem   1 Linda.
 NMat=     1 NSing=     1 JSym2X= 2.
 CoulSu:  requested number of processors reduced to:  15 ShMem   1 Linda.
 CalDSu:  requested number of processors reduced to:  37 ShMem   1 Linda.
 NMat=     1 NSing=     1 JSym2X= 2.
 CoulSu:  requested number of processors reduced to:  15 ShMem   1 Linda.
 CalDSu:  requested number of processors reduced to:  37 ShMem   1 Linda.
 NMat=     1 NSing=     0 JSym2X= 2.
 CoulSu:  requested number of processors reduced to:  15 ShMem   1 Linda.
 CalDSu:  requested number of processors reduced to:  37 ShMem   1 Linda.
 NMat=     1 NSing=     0 JSym2X= 2.
 CoulSu:  requested number of processors reduced to:  15 ShMem   1 Linda.
 CalDSu:  requested number of processors reduced to:  37 ShMem   1 Linda.
 NMat=     1 NSing=     0 JSym2X= 2.
 CoulSu:  requested number of processors reduced to:  15 ShMem   1 Linda.
 CalDSu:  requested number of processors reduced to:  37 ShMem   1 Linda.
 Root      1 not converged, maximum delta is    0.003858220833589
 Excitation Energies [eV] at current iteration:
 Root      1 :     3.413590696347424   Change is   -0.002307986842326
 Root      2 :     6.235472422258915   Change is   -0.000783088866890
 Root      3 :     6.263979518512114   Change is   -0.000779093883856
 Root      4 :     7.038072709207423   Change is   -0.000982927254375
 Root      5 :     7.043304367429487   Change is   -0.001725284569030
 Root      6 :     7.165241514641376   Change is   -0.000753679269550
 Iteration     5 Dimension    66 NMult    60 NNew      6
 Estimated number of processors is:   12
 CISAX will form     1 AO SS matrices at one time.
 NMat=     1 NSing=     1 JSym2X= 2.
 CoulSu:  requested number of processors reduced to:  15 ShMem   1 Linda.
 CalDSu:  requested number of processors reduced to:  37 ShMem   1 Linda.
 NMat=     1 NSing=     1 JSym2X= 2.
 CoulSu:  requested number of processors reduced to:  15 ShMem   1 Linda.
 CalDSu:  requested number of processors reduced to:  37 ShMem   1 Linda.
 NMat=     1 NSing=     1 JSym2X= 2.
 CoulSu:  requested number of processors reduced to:  15 ShMem   1 Linda.
 CalDSu:  requested number of processors reduced to:  37 ShMem   1 Linda.
 NMat=     1 NSing=     0 JSym2X= 2.
 CoulSu:  requested number of processors reduced to:  15 ShMem   1 Linda.
 CalDSu:  requested number of processors reduced to:  37 ShMem   1 Linda.
 NMat=     1 NSing=     0 JSym2X= 2.
 CoulSu:  requested number of processors reduced to:  15 ShMem   1 Linda.
 CalDSu:  requested number of processors reduced to:  37 ShMem   1 Linda.
 NMat=     1 NSing=     0 JSym2X= 2.
 CoulSu:  requested number of processors reduced to:  15 ShMem   1 Linda.
 CalDSu:  requested number of processors reduced to:  37 ShMem   1 Linda.
 Root      1 has converged.
 Excitation Energies [eV] at current iteration:
 Root      1 :     3.413494205433978   Change is   -0.000096490913446
 Root      2 :     6.235409156567007   Change is   -0.000063265691908
 Root      3 :     6.263906818174440   Change is   -0.000072700337674
 Root      4 :     7.037922094105287   Change is   -0.000150615102137
 Root      5 :     7.043008941190798   Change is   -0.000295426238689
 Root      6 :     7.165009529007937   Change is   -0.000231985633439
 Convergence achieved on expansion vectors.
 ***********************************************************************
 Stability analysis using <AA,BB:AA,BB> singles matrix:
 ***********************************************************************
 1PDM for each excited state written to RWF  633
 Ground to excited state transition densities written to RWF  633

 Eigenvectors of the stability matrix:
 
 Eigenvector   1:      Triplet-B1   Eigenvalue= 0.1254436  <S**2>=2.000
      24 -> 27         0.62363
      24 -> 32        -0.26405
 The wavefunction is stable under the perturbations considered.
 Leave Link  914 at Sat Apr 17 00:19:51 2021, MaxMem=   104857600 cpu:          127449.0 elap:            4593.8
[...]
                 (A) (A) (B1) (B2) (B3) (B1) (B1) (B2) (A) (B3)
                 (A) (B1) (B2) (B1) (B3) (A) (B3) (B1) (B2) (A)
                 (B3) (A) (B2) (B1) (B3) (B1) (A) (B2) (B2) (B3)
                 (B2) (B3) (A) (B1) (A) (B1) (B3) (A) (B2) (B1)
                 (B3) (B3) (B2) (B1) (A) (B2) (B1) (B3) (A) (B2)
                 (B3) (B1) (A) (B1) (B1) (B3) (A) (B2) (A) (B2)
                 (B3) (B1) (A) (B2) (B1) (B3) (A) (B1) (A) (B2)
                 (B3) (B1) (A) (B1) (A) (B2) (B3) (B1)
 The electronic state is 1-A.
 Alpha  occ. eigenvalues --  -10.54039 -10.53934 -10.52803 -10.52802 -10.52801
 Alpha  occ. eigenvalues --  -10.52801  -0.91684  -0.84206  -0.78784  -0.76031
 Alpha  occ. eigenvalues --   -0.70706  -0.56091  -0.53625  -0.50715  -0.50137
 Alpha  occ. eigenvalues --   -0.48032  -0.44960  -0.44453  -0.43983  -0.43247
 Alpha  occ. eigenvalues --   -0.42434  -0.41010  -0.37229  -0.27730
 Alpha virt. eigenvalues --    0.03913   0.05609   0.05615   0.06282   0.08569
 Alpha virt. eigenvalues --    0.09212   0.09454   0.11746   0.12596   0.12605
 Alpha virt. eigenvalues --    0.12619   0.12998   0.13908   0.14730   0.14743
 Alpha virt. eigenvalues --    0.16207   0.16419   0.16574   0.19008   0.22174
 Alpha virt. eigenvalues --    0.22492   0.23105   0.23755   0.25861   0.27396
 Alpha virt. eigenvalues --    0.28473   0.28745   0.29438   0.30159   0.30566
 Alpha virt. eigenvalues --    0.33051   0.33370   0.33457   0.33501   0.34350
 Alpha virt. eigenvalues --    0.35695   0.35821   0.36131   0.36379   0.36432
 Alpha virt. eigenvalues --    0.37153   0.37171   0.40041   0.40620   0.41921
 Alpha virt. eigenvalues --    0.42159   0.44563   0.47246   0.47703   0.50271
 Alpha virt. eigenvalues --    0.52600   0.52945   0.54875   0.56324   0.56755
 Alpha virt. eigenvalues --    0.57785   0.58241   0.59755   0.60957   0.62599
 Alpha virt. eigenvalues --    0.64164   0.65786   0.66076   0.68853   0.69107
 Alpha virt. eigenvalues --    0.69314   0.70234   0.70605   0.72471   0.72699
 Alpha virt. eigenvalues --    0.72765   0.77552   0.79132   0.79189   0.79764
 Alpha virt. eigenvalues --    0.80666   0.80842   0.82106   0.82742   0.82826
 Alpha virt. eigenvalues --    0.84414   0.86002   0.86040   0.86989   0.87013
 Alpha virt. eigenvalues --    0.88456   0.88556   0.89246   0.89542   0.90245
 Alpha virt. eigenvalues --    0.90982   0.91838   0.93638   0.93743   0.95241
 Alpha virt. eigenvalues --    0.97007   0.97972   0.99389   0.99850   0.99860
 Alpha virt. eigenvalues --    1.01154   1.02123   1.03118   1.04013   1.04243
 Alpha virt. eigenvalues --    1.05398   1.07979   1.08682   1.09388   1.10848
 Alpha virt. eigenvalues --    1.11058   1.12413   1.15621   1.16228   1.17200
 Alpha virt. eigenvalues --    1.17386   1.17453   1.21805   1.23189   1.23438
 Alpha virt. eigenvalues --    1.24632   1.26812   1.30286   1.32290   1.32653
 Alpha virt. eigenvalues --    1.32962   1.33500   1.37478   1.39546   1.41212
 Alpha virt. eigenvalues --    1.41326   1.41435   1.42112   1.42531   1.44162
 Alpha virt. eigenvalues --    1.44917   1.48483   1.48548   1.48837   1.51862
 Alpha virt. eigenvalues --    1.52937   1.53389   1.59564   1.59859   1.61191
 Alpha virt. eigenvalues --    1.61516   1.64082   1.66460   1.70881   1.77285
 Alpha virt. eigenvalues --    1.78804   1.80120   1.80256   1.82672   1.84500
 Alpha virt. eigenvalues --    1.84715   1.85465   1.85920   1.88229   1.88455
 Alpha virt. eigenvalues --    1.88692   1.90818   1.92594   1.93527   1.94258
 Alpha virt. eigenvalues --    1.96732   1.97144   1.97344   1.97581   1.97631
 Alpha virt. eigenvalues --    1.99284   2.00060   2.03055   2.03355   2.04721
 Alpha virt. eigenvalues --    2.05537   2.05696   2.06471   2.07094   2.09737
 Alpha virt. eigenvalues --    2.11609   2.12651   2.13119   2.13571   2.14770
 Alpha virt. eigenvalues --    2.15447   2.16003   2.18058   2.19901   2.20699
 Alpha virt. eigenvalues --    2.21235   2.22037   2.22651   2.23040   2.23708
 Alpha virt. eigenvalues --    2.25824   2.25968   2.27047   2.27311   2.28028
 Alpha virt. eigenvalues --    2.28669   2.29370   2.31143   2.31504   2.32325
 Alpha virt. eigenvalues --    2.36932   2.37281   2.38123   2.38291   2.41562
 Alpha virt. eigenvalues --    2.43216   2.43857   2.45493   2.46234   2.48671
 Alpha virt. eigenvalues --    2.49648   2.50729   2.52142   2.52427   2.54043
 Alpha virt. eigenvalues --    2.54162   2.56320   2.57281   2.58403   2.58496
 Alpha virt. eigenvalues --    2.60316   2.61555   2.62067   2.62299   2.65884
 Alpha virt. eigenvalues --    2.67106   2.67669   2.70577   2.70993   2.71632
 Alpha virt. eigenvalues --    2.71747   2.73104   2.74594   2.77840   2.79450
 Alpha virt. eigenvalues --    2.79569   2.79697   2.79897   2.81654   2.82297
 Alpha virt. eigenvalues --    2.82574   2.82846   2.83133   2.84852   2.86717
 Alpha virt. eigenvalues --    2.87333   2.90495   2.93217   2.93457   2.94315
 Alpha virt. eigenvalues --    2.94323   2.95938   2.98026   2.98096   2.98684
 Alpha virt. eigenvalues --    2.99133   2.99141   3.01158   3.02728   3.05348
 Alpha virt. eigenvalues --    3.07790   3.07862   3.08357   3.10749   3.11196
 Alpha virt. eigenvalues --    3.15197   3.15925   3.18482   3.19015   3.20120
 Alpha virt. eigenvalues --    3.21090   3.21877   3.22215   3.22726   3.26271
 Alpha virt. eigenvalues --    3.27412   3.28622   3.31784   3.32197   3.34734
 Alpha virt. eigenvalues --    3.35010   3.36028   3.37522   3.39156   3.40676
 Alpha virt. eigenvalues --    3.40775   3.42491   3.42502   3.46385   3.47117
 Alpha virt. eigenvalues --    3.47487   3.50494   3.50614   3.54538   3.55378
 Alpha virt. eigenvalues --    3.56700   3.58715   3.59135   3.63550   3.64640
 Alpha virt. eigenvalues --    3.67002   3.67650   3.71657   3.73212   3.73636
 Alpha virt. eigenvalues --    3.76447   3.77012   3.78697   3.84238   3.85445
 Alpha virt. eigenvalues --    3.86639   3.87377   3.88904   3.89138   3.89698
 Alpha virt. eigenvalues --    3.96152   3.96985   3.98747   4.00891   4.02059
 Alpha virt. eigenvalues --    4.08547   4.11849   4.16505   4.17061   4.20002
 Alpha virt. eigenvalues --    4.20980   4.22859   4.30978   4.35949   4.39948
 Alpha virt. eigenvalues --    4.46638   4.51837   4.56529   4.57323   4.67363
 Alpha virt. eigenvalues --    4.83014   4.85050   4.91135   4.94533   5.00493
 Alpha virt. eigenvalues --    5.05457   5.07454   5.13012   5.14054   5.14555
 Alpha virt. eigenvalues --    5.22154   5.22325   5.22713   5.29679   5.31540
 Alpha virt. eigenvalues --    5.35335   5.36181   5.39844   5.41030   5.42951
 Alpha virt. eigenvalues --    5.43104   5.43914   5.45431   5.46087   5.48138
 Alpha virt. eigenvalues --    5.51010   5.51795   5.55333   5.57083   5.57248
 Alpha virt. eigenvalues --    5.60152   5.60589   5.63075   5.67176   5.68402
 Alpha virt. eigenvalues --    5.68625   5.69954   5.71542   5.72216   5.72257
 Alpha virt. eigenvalues --    5.72297   5.74144   5.75287   5.75661   5.78235
 Alpha virt. eigenvalues --    5.79662   5.80952   5.81629   5.81675   5.82614
 Alpha virt. eigenvalues --    5.82691   5.83497   5.85280   5.86826   5.88319
 Alpha virt. eigenvalues --    5.92209   5.93605   5.94070   5.94274   5.94421
 Alpha virt. eigenvalues --    5.95134   5.97402   5.99145   5.99567   5.99892
 Alpha virt. eigenvalues --    6.01114   6.03408   6.03538   6.04268   6.07877
 Alpha virt. eigenvalues --    6.08471   6.09786   6.09955   6.10294   6.12063
 Alpha virt. eigenvalues --    6.12492   6.12595   6.14574   6.15722   6.16220
 Alpha virt. eigenvalues --    6.17322   6.17871   6.20545   6.20571   6.23249
 Alpha virt. eigenvalues --    6.25845   6.26490   6.27328   6.28146   6.28834
 Alpha virt. eigenvalues --    6.30299   6.30540   6.31736   6.34226   6.35539
 Alpha virt. eigenvalues --    6.35696   6.38716   6.39171   6.39397   6.41008
 Alpha virt. eigenvalues --    6.41040   6.43306   6.43553   6.45158   6.45391
 Alpha virt. eigenvalues --    6.48647   6.49812   6.51132   6.54527   6.55745
 Alpha virt. eigenvalues --    6.57786   6.58295   6.58773   6.61177   6.62149
 Alpha virt. eigenvalues --    6.62677   6.65653   6.66829   6.68609   6.71743
 Alpha virt. eigenvalues --    6.73383   6.75057   6.75076   6.78267   6.80590
 Alpha virt. eigenvalues --    6.80782   6.83218   6.85053   6.86544   6.89341
 Alpha virt. eigenvalues --    6.95574   6.98299   6.98520   6.98912   7.00200
 Alpha virt. eigenvalues --    7.02049   7.04194   7.08348   7.08541   7.09793
 Alpha virt. eigenvalues --    7.10098   7.11412   7.12744   7.17095   7.21359
 Alpha virt. eigenvalues --    7.23929   7.24650   7.26087   7.28036   7.30419
 Alpha virt. eigenvalues --    7.33182   7.33528   7.34102   7.34944   7.34967
 Alpha virt. eigenvalues --    7.37685   7.38210   7.38323   7.39048   7.40175
 Alpha virt. eigenvalues --    7.41282   7.43580   7.44136   7.44216   7.44461
 Alpha virt. eigenvalues --    7.46145   7.46401   7.47907   7.50247   7.52467
 Alpha virt. eigenvalues --    7.52537   7.52746   7.54610   7.55985   7.58906
 Alpha virt. eigenvalues --    7.59587   7.60305   7.60840   7.61923   7.63340
 Alpha virt. eigenvalues --    7.63479   7.64953   7.65428   7.66774   7.67334
 Alpha virt. eigenvalues --    7.68094   7.69827   7.70457   7.72616   7.72838
 Alpha virt. eigenvalues --    7.75348   7.75654   7.80503   7.81344   7.82742
 Alpha virt. eigenvalues --    7.85391   7.86115   7.86696   7.87915   7.90280
 Alpha virt. eigenvalues --    7.93544   7.94231   7.94954   7.96085   7.99345
 Alpha virt. eigenvalues --    8.01554   8.03151   8.05609   8.07745   8.12103
 Alpha virt. eigenvalues --    8.14075   8.14235   8.15264   8.16088   8.17278
 Alpha virt. eigenvalues --    8.18296   8.18392   8.20050   8.20333   8.21636
 Alpha virt. eigenvalues --    8.21866   8.22955   8.22988   8.24061   8.25673
 Alpha virt. eigenvalues --    8.28531   8.29840   8.29905   8.30550   8.31005
 Alpha virt. eigenvalues --    8.31555   8.32799   8.34646   8.34697   8.34976
 Alpha virt. eigenvalues --    8.35483   8.39979   8.41848   8.43821   8.46951
 Alpha virt. eigenvalues --    8.47287   8.48380   8.50443   8.55817   8.57041
 Alpha virt. eigenvalues --    8.58114   8.60218   8.62729   8.65559   8.66530
 Alpha virt. eigenvalues --    8.68415   8.69365   8.71506   8.71817   8.72554
 Alpha virt. eigenvalues --    8.73721   8.74242   8.74681   8.77108   8.77678
 Alpha virt. eigenvalues --    8.79304   8.83185   8.83843   8.85871   8.86000
 Alpha virt. eigenvalues --    8.89012   8.95973   8.99076   8.99851   9.02849
 Alpha virt. eigenvalues --    9.06366   9.09257   9.14388   9.32280   9.39428
 Alpha virt. eigenvalues --    9.41132   9.45963   9.51801   9.53489   9.54145
 Alpha virt. eigenvalues --    9.54255   9.56314   9.56552   9.59420   9.61675
 Alpha virt. eigenvalues --    9.62861   9.66977   9.67021   9.67782   9.68666
 Alpha virt. eigenvalues --    9.70214   9.72658   9.73013   9.74687   9.75126
 Alpha virt. eigenvalues --    9.79332   9.85544   9.86765   9.90430   9.91397
 Alpha virt. eigenvalues --    9.93489   9.94790   9.99088   9.99165  10.08033
 Alpha virt. eigenvalues --   10.10418  10.11238  10.15718  10.16447  10.24303
 Alpha virt. eigenvalues --   10.25933  10.30902  10.33125  10.76268  11.59564
 Alpha virt. eigenvalues --   11.65181  11.66604  11.75114  11.91642  12.01042
 Alpha virt. eigenvalues --   12.08212  12.15294  12.99098  13.09963  13.11091
 Alpha virt. eigenvalues --   13.21504  28.20368  28.91585  28.98220  29.08304
 Alpha virt. eigenvalues --   29.22196  29.22816 145.69380 146.39601 146.48705
 Alpha virt. eigenvalues --  146.56432 146.71652 146.73838
          Condensed to atoms (all electrons):
               1          2          3          4          5          6
     1  C    5.015605   0.643245   0.325214   0.325214  -0.047021  -0.047021
     2  C    0.643245   5.015605  -0.047021  -0.047021   0.325214   0.325214
     3  C    0.325214  -0.047021   5.427413  -0.096386  -0.021524   0.007002
     4  C    0.325214  -0.047021  -0.096386   5.427413   0.007002  -0.021524
     5  C   -0.047021   0.325214  -0.021524   0.007002   5.427413  -0.096386
     6  C   -0.047021   0.325214   0.007002  -0.021524  -0.096386   5.427413
     7  H   -0.049610   0.001782   0.371822   0.007589  -0.008495   0.000223
     8  H   -0.055583   0.000654   0.367681  -0.005163   0.000718  -0.000471
     9  H   -0.048762  -0.001282   0.359856  -0.001507   0.001195  -0.000552
    10  H   -0.049610   0.001782   0.007589   0.371822   0.000223  -0.008495
    11  H   -0.048762  -0.001282  -0.001507   0.359856  -0.000552   0.001195
    12  H   -0.055583   0.000654  -0.005163   0.367681  -0.000471   0.000718
    13  H    0.001782  -0.049610  -0.008495   0.000223   0.371822   0.007589
    14  H    0.000654  -0.055583   0.000718  -0.000471   0.367681  -0.005163
    15  H   -0.001282  -0.048762   0.001195  -0.000552   0.359856  -0.001507
    16  H    0.001782  -0.049610   0.000223  -0.008495   0.007589   0.371822
    17  H   -0.001282  -0.048762  -0.000552   0.001195  -0.001507   0.359856
    18  H    0.000654  -0.055583  -0.000471   0.000718  -0.005163   0.367681
               7          8          9         10         11         12
     1  C   -0.049610  -0.055583  -0.048762  -0.049610  -0.048762  -0.055583
     2  C    0.001782   0.000654  -0.001282   0.001782  -0.001282   0.000654
     3  C    0.371822   0.367681   0.359856   0.007589  -0.001507  -0.005163
     4  C    0.007589  -0.005163  -0.001507   0.371822   0.359856   0.367681
     5  C   -0.008495   0.000718   0.001195   0.000223  -0.000552  -0.000471
     6  C    0.000223  -0.000471  -0.000552  -0.008495   0.001195   0.000718
     7  H    0.535143  -0.035825  -0.030872  -0.000534   0.000178  -0.000150
     8  H   -0.035825   0.545826  -0.048871  -0.000150   0.005568  -0.001813
     9  H   -0.030872  -0.048871   0.564797   0.000178  -0.003266   0.005568
    10  H   -0.000534  -0.000150   0.000178   0.535143  -0.030872  -0.035825
    11  H    0.000178   0.005568  -0.003266  -0.030872   0.564797  -0.048871
    12  H   -0.000150  -0.001813   0.005568  -0.035825  -0.048871   0.545826
    13  H   -0.003879   0.000311  -0.000136   0.000003   0.000027  -0.000047
    14  H    0.000311  -0.000574   0.000709  -0.000047  -0.000129   0.000356
    15  H   -0.000136   0.000709  -0.000300   0.000027   0.000211  -0.000129
    16  H    0.000003  -0.000047   0.000027  -0.003879  -0.000136   0.000311
    17  H    0.000027  -0.000129   0.000211  -0.000136  -0.000300   0.000709
    18  H   -0.000047   0.000356  -0.000129   0.000311   0.000709  -0.000574
              13         14         15         16         17         18
     1  C    0.001782   0.000654  -0.001282   0.001782  -0.001282   0.000654
     2  C   -0.049610  -0.055583  -0.048762  -0.049610  -0.048762  -0.055583
     3  C   -0.008495   0.000718   0.001195   0.000223  -0.000552  -0.000471
     4  C    0.000223  -0.000471  -0.000552  -0.008495   0.001195   0.000718
     5  C    0.371822   0.367681   0.359856   0.007589  -0.001507  -0.005163
     6  C    0.007589  -0.005163  -0.001507   0.371822   0.359856   0.367681
     7  H   -0.003879   0.000311  -0.000136   0.000003   0.000027  -0.000047
     8  H    0.000311  -0.000574   0.000709  -0.000047  -0.000129   0.000356
     9  H   -0.000136   0.000709  -0.000300   0.000027   0.000211  -0.000129
    10  H    0.000003  -0.000047   0.000027  -0.003879  -0.000136   0.000311
    11  H    0.000027  -0.000129   0.000211  -0.000136  -0.000300   0.000709
    12  H   -0.000047   0.000356  -0.000129   0.000311   0.000709  -0.000574
    13  H    0.535143  -0.035825  -0.030872  -0.000534   0.000178  -0.000150
    14  H   -0.035825   0.545826  -0.048871  -0.000150   0.005568  -0.001813
    15  H   -0.030872  -0.048871   0.564797   0.000178  -0.003266   0.005568
    16  H   -0.000534  -0.000150   0.000178   0.535143  -0.030872  -0.035825
    17  H    0.000178   0.005568  -0.003266  -0.030872   0.564797  -0.048871
    18  H   -0.000150  -0.001813   0.005568  -0.035825  -0.048871   0.545826
 Mulliken charges:
               1
     1  C    0.090369
     2  C    0.090369
     3  C   -0.687594
     4  C   -0.687594
     5  C   -0.687594
     6  C   -0.687594
     7  H    0.212469
     8  H    0.226804
     9  H    0.203137
    10  H    0.212469
    11  H    0.203137
    12  H    0.226804
    13  H    0.212469
    14  H    0.226804
    15  H    0.203137
    16  H    0.212469
    17  H    0.203137
    18  H    0.226804
 Sum of Mulliken charges =  -0.00000
 Mulliken charges with hydrogens summed into heavy atoms:
               1
     1  C    0.090369
     2  C    0.090369
     3  C   -0.045184
     4  C   -0.045184
     5  C   -0.045184
     6  C   -0.045184
 Electronic spatial extent (au):  <R**2>=            728.5050
 Charge=              0.0000 electrons
 Dipole moment (field-independent basis, Debye):
    X=              0.0000    Y=              0.0000    Z=             -0.0000  Tot=              0.0000
 Quadrupole moment (field-independent basis, Debye-Ang):
   XX=            -41.1514   YY=            -39.7034   ZZ=            -39.1467
   XY=              0.0000   XZ=              0.0000   YZ=              0.0000
 Traceless Quadrupole moment (field-independent basis, Debye-Ang):
   XX=             -1.1509   YY=              0.2971   ZZ=              0.8538
   XY=              0.0000   XZ=              0.0000   YZ=              0.0000
 Octapole moment (field-independent basis, Debye-Ang**2):
  XXX=             -0.0000  YYY=             -0.0000  ZZZ=              0.0000  XYY=              0.0000
  XXY=             -0.0000  XXZ=             -0.0000  XZZ=              0.0000  YZZ=             -0.0000
  YYZ=              0.0000  XYZ=              0.4370
 Hexadecapole moment (field-independent basis, Debye-Ang**3):
 XXXX=            -74.2507 YYYY=           -386.1597 ZZZZ=           -569.7172 XXXY=             -0.0000
 XXXZ=              0.0000 YYYX=             -0.0000 YYYZ=              0.0000 ZZZX=             -0.0000
 ZZZY=              0.0000 XXYY=            -78.9527 XXZZ=            -97.8776 YYZZ=           -166.7335
 XXYZ=             -0.0000 YYXZ=              0.0000 ZZXY=             -0.0000
 N-N= 2.406684529839D+02 E-N=-1.026805689815D+03  KE= 2.345366544094D+02
 PrsmSu:  requested number of processors reduced to:  20 ShMem   1 Linda.
 No NMR shielding tensors so no spin-rotation constants.
 Leave Link  601 at Sat Apr 17 00:20:06 2021, MaxMem=   104857600 cpu:             636.8 elap:              13.9
 (Enter /s/ls4/users/knvvv/bin/g16sse/l9999.exe)

 Test job not archived.
 1\1\GINC-N306\Stability\RM062X\def2QZVP\C6H12\KNVVV\17-Apr-2021\0\\#P 
 M062X/Def2QZVP Integral=UltraFineGrid SCF=NoSymm Stable=(RExt, Opt) IO
 p(1/33=1)\\Database calculations.\\0,1\C,0,0.,0.,-0.6741358\C,0,0.,0.,
 0.6741358\C,0,1.2507238,-0.0248223,-1.5297833\C,0,-1.2507238,0.0248223
 ,-1.5297833\C,0,1.2507238,0.0248223,1.5297833\C,0,-1.2507238,-0.024822
 3,1.5297833\H,0,2.1705012,-0.1993591,-0.9722999\H,0,1.3561741,0.918997
 8,-2.082123\H,0,1.1637508,-0.8163732,-2.2856755\H,0,-2.1705012,0.19935
 91,-0.9722999\H,0,-1.1637508,0.8163732,-2.2856755\H,0,-1.3561741,-0.91
 89978,-2.082123\H,0,2.1705012,0.1993591,0.9722999\H,0,1.3561741,-0.918
 9978,2.082123\H,0,1.1637508,0.8163732,2.2856755\H,0,-2.1705012,-0.1993
 591,0.9722999\H,0,-1.1637508,-0.8163732,2.2856755\H,0,-1.3561741,0.918
 9978,2.082123\\Version=ES64L-G16RevA.03\State=1-A\HF=-235.8373026\RMSD
 =3.174e-09\Dipole=0.,0.,0.\Quadrupole=0.2208871,-0.8557001,0.634813,0.
 ,0.,0.\PG=D02 [C2(C1.C1),X(C4H12)]\\@


 IBM COMPATIBILITY IS LIKE PREGNANCY. YOU ARE OR
 OR YOU ARE NOT. -- ADAM OSBORNE
 Job cpu time:       1 days 13 hours 35 minutes  6.1 seconds.
 Elapsed time:       0 days  1 hours 20 minutes 14.8 seconds.
 File lengths (MBytes):  RWF=    807 Int=      0 D2E=      0 Chk=     55 Scr=      1
 Normal termination of Gaussian 16 at Sat Apr 17 00:20:07 2021.
