 Entering Gaussian System, Link 0=/s/ls4/users/knvvv/bin/g16sse/g16
 Input=data/database/M062X--def2-TZVP--03_Fe_MR-TMD-BE3.gjf
 Output=data/database/M062X--def2-TZVP--03_Fe_MR-TMD-BE3.log
 Initial command:
 /s/ls4/users/knvvv/bin/g16sse/l1.exe "/s/ls4/users/knvvv/bin/scratch/Gau-34240.inp" -scrdir="/s/ls4/users/knvvv/bin/scratch/"
 Entering Link 1 = /s/ls4/users/knvvv/bin/g16sse/l1.exe PID=     34241.
  
 Copyright (c) 1988,1990,1992,1993,1995,1998,2003,2009,2016,
            Gaussian, Inc.  All Rights Reserved.
  
 This is part of the Gaussian(R) 16 program.  It is based on
 the Gaussian(R) 09 system (copyright 2009, Gaussian, Inc.),
 the Gaussian(R) 03 system (copyright 2003, Gaussian, Inc.),
 the Gaussian(R) 98 system (copyright 1998, Gaussian, Inc.),
 the Gaussian(R) 94 system (copyright 1995, Gaussian, Inc.),
 the Gaussian 92(TM) system (copyright 1992, Gaussian, Inc.),
 the Gaussian 90(TM) system (copyright 1990, Gaussian, Inc.),
 the Gaussian 88(TM) system (copyright 1988, Gaussian, Inc.),
 the Gaussian 86(TM) system (copyright 1986, Carnegie Mellon
 University), and the Gaussian 82(TM) system (copyright 1983,
 Carnegie Mellon University). Gaussian is a federally registered
 trademark of Gaussian, Inc.
  
 This software contains proprietary and confidential information,
 including trade secrets, belonging to Gaussian, Inc.
  
 This software is provided under written license and may be
 used, copied, transmitted, or stored only in accord with that
 written license.
  
 The following legend is applicable only to US Government
 contracts under FAR:
  
                    RESTRICTED RIGHTS LEGEND
  
 Use, reproduction and disclosure by the US Government is
 subject to restrictions as set forth in subparagraphs (a)
 and (c) of the Commercial Computer Software - Restricted
 Rights clause in FAR 52.227-19.
  
 Gaussian, Inc.
 340 Quinnipiac St., Bldg. 40, Wallingford CT 06492
  
  
 ---------------------------------------------------------------
 Warning -- This program may not be used in any manner that
 competes with the business of Gaussian, Inc. or will provide
 assistance to any competitor of Gaussian, Inc.  The licensee
 of this program is prohibited from giving any competitor of
 Gaussian, Inc. access to this program.  By using this program,
 the user acknowledges that Gaussian, Inc. is engaged in the
 business of creating and licensing software in the field of
 computational chemistry and represents and warrants to the
 licensee that it is not a competitor of Gaussian, Inc. and that
 it will not use this program in any manner prohibited above.
 ---------------------------------------------------------------
  

 Cite this work as:
 Gaussian 16, Revision A.03,
 M. J. Frisch, G. W. Trucks, H. B. Schlegel, G. E. Scuseria, 
 M. A. Robb, J. R. Cheeseman, G. Scalmani, V. Barone, 
 G. A. Petersson, H. Nakatsuji, X. Li, M. Caricato, A. V. Marenich, 
 J. Bloino, B. G. Janesko, R. Gomperts, B. Mennucci, H. P. Hratchian, 
 J. V. Ortiz, A. F. Izmaylov, J. L. Sonnenberg, D. Williams-Young, 
 F. Ding, F. Lipparini, F. Egidi, J. Goings, B. Peng, A. Petrone, 
 T. Henderson, D. Ranasinghe, V. G. Zakrzewski, J. Gao, N. Rega, 
 G. Zheng, W. Liang, M. Hada, M. Ehara, K. Toyota, R. Fukuda, 
 J. Hasegawa, M. Ishida, T. Nakajima, Y. Honda, O. Kitao, H. Nakai, 
 T. Vreven, K. Throssell, J. A. Montgomery, Jr., J. E. Peralta, 
 F. Ogliaro, M. J. Bearpark, J. J. Heyd, E. N. Brothers, K. N. Kudin, 
 V. N. Staroverov, T. A. Keith, R. Kobayashi, J. Normand, 
 K. Raghavachari, A. P. Rendell, J. C. Burant, S. S. Iyengar, 
 J. Tomasi, M. Cossi, J. M. Millam, M. Klene, C. Adamo, R. Cammi, 
 J. W. Ochterski, R. L. Martin, K. Morokuma, O. Farkas, 
 J. B. Foresman, and D. J. Fox, Gaussian, Inc., Wallingford CT, 2016.
 
 ******************************************
 Gaussian 16:  ES64L-G16RevA.03 25-Dec-2016
                18-Apr-2021 
 ******************************************
 %RWF=temp12_37296,70GB
 %nprocshared=48
 Will use up to   48 processors via shared memory.
 Default route: MaxDisk=80GB
 ----------------------------------------------------------------------
 #P M062X/Def2TZVP Integral=UltraFineGrid SCF=NoSymm Stable=(RExt, Opt)
  IOp(1/33=1)
 ----------------------------------------------------------------------
 1/33=1,38=1,172=1/1;
 2/12=2,17=6,18=5,40=1/2;
 3/5=44,7=101,11=2,25=1,30=1,74=-55,75=-5/1,2,3;
 4/9=2/1;
 5/5=2,38=5/2;
 6/7=2,8=2,9=2,10=2,28=1/1;
 8/6=1,10=90,11=11/1;
 9/8=-3,42=1,46=1/14;
 5/5=2,8=3,17=40,38=5/8(-2);
 6/7=2,8=2,9=2,10=2,28=1/1;
 99/5=1,9=1/99;
 Leave Link    1 at Sun Apr 18 07:32:16 2021, MaxMem=           0 cpu:              10.9 elap:               0.3
 (Enter /s/ls4/users/knvvv/bin/g16sse/l101.exe)
 ONIOM data not found on unit 2.
 ----------------------
 Database calculations.
 ----------------------
 TstMul:  ICh=     0
 TstMul:  Mul=     5
 TstMul:  ICh=     0
 TstMul:  Mul=     5
 Symbolic Z-matrix:
 Charge =  0 Multiplicity = 5
 Fe                    0.        0.        0. 
 
 RdStrC is calling ZToCFu for IStruc=1 NZ=     1.
 PrtBox:  NBox=     1 Levels=  0 BoxLen=    8.00 SMaxX=        0.00
          Shift=            0.000000            0.000000            0.000000
 Box      1 Number                   0 centers from      1 to      1:
 After GenITR:
 ITRead=  0
 MicOpt= -1
 ITRead=  0
 MicOpt= -1
 NAtoms=      1 NQM=        1 NQMF=       0 NMMI=      0 NMMIF=      0
                NMic=       0 NMicF=      0.
                    Isotopes and Nuclear Properties:
 (Nuclear quadrupole moments (NQMom) in fm**2, nuclear magnetic moments (NMagM)
  in nuclear magnetons)

  Atom         1
 IAtWgt=          56
 AtmWgt=  55.9349393
 NucSpn=           0
 AtZEff=  -0.0000000
 NQMom=    0.0000000
 NMagM=    0.0000000
 AtZNuc=  26.0000000
 No MM parameters found.
 Leave Link  101 at Sun Apr 18 07:32:16 2021, MaxMem=   104857600 cpu:               6.8 elap:               0.2
 (Enter /s/ls4/users/knvvv/bin/g16sse/l202.exe)
                          Input orientation:                          
 ---------------------------------------------------------------------
 Center     Atomic      Atomic             Coordinates (Angstroms)
 Number     Number       Type             X           Y           Z
 ---------------------------------------------------------------------
      1         26           0        0.000000    0.000000    0.000000
 ---------------------------------------------------------------------
 Stoichiometry    Fe(5)
 Framework group  OH[O(Fe)]
 Deg. of freedom     0
 Full point group                 OH      NOp  48
 Largest Abelian subgroup         D2H     NOp   8
 Largest concise Abelian subgroup C1      NOp   1
                         Standard orientation:                         
 ---------------------------------------------------------------------
 Center     Atomic      Atomic             Coordinates (Angstroms)
 Number     Number       Type             X           Y           Z
 ---------------------------------------------------------------------
      1         26           0        0.000000    0.000000    0.000000
 ---------------------------------------------------------------------
 Leave Link  202 at Sun Apr 18 07:32:17 2021, MaxMem=   104857600 cpu:              32.4 elap:               0.7
 (Enter /s/ls4/users/knvvv/bin/g16sse/l301.exe)
 Standard basis: def2TZVP (5D, 7F)
 Ernie: Thresh=  0.10000D-02 Tol=  0.10000D-05 Strict=F.
 There are    18 symmetry adapted cartesian basis functions of AG  symmetry.
 There are     4 symmetry adapted cartesian basis functions of B1G symmetry.
 There are     4 symmetry adapted cartesian basis functions of B2G symmetry.
 There are     4 symmetry adapted cartesian basis functions of B3G symmetry.
 There are     1 symmetry adapted cartesian basis functions of AU  symmetry.
 There are     7 symmetry adapted cartesian basis functions of B1U symmetry.
 There are     7 symmetry adapted cartesian basis functions of B2U symmetry.
 There are     7 symmetry adapted cartesian basis functions of B3U symmetry.
 There are    14 symmetry adapted basis functions of AG  symmetry.
 There are     4 symmetry adapted basis functions of B1G symmetry.
 There are     4 symmetry adapted basis functions of B2G symmetry.
 There are     4 symmetry adapted basis functions of B3G symmetry.
 There are     1 symmetry adapted basis functions of AU  symmetry.
 There are     6 symmetry adapted basis functions of B1U symmetry.
 There are     6 symmetry adapted basis functions of B2U symmetry.
 There are     6 symmetry adapted basis functions of B3U symmetry.
    45 basis functions,   102 primitive gaussians,    52 cartesian basis functions
    15 alpha electrons       11 beta electrons
       nuclear repulsion energy         0.0000000000 Hartrees.
 IExCor= 4336 DFT=T Ex+Corr=M062X ExCW=0 ScaHFX=  0.540000
 ScaDFX=  1.000000  1.000000  1.000000  1.000000 ScalE2=  1.000000  1.000000
 IRadAn=      5 IRanWt=     -1 IRanGd=            0 ICorTp=0 IEmpDi=  4
 NAtoms=    1 NActive=    1 NUniq=    1 SFac= 1.00D+00 NAtFMM=   60 NAOKFM=F Big=F
 Integral buffers will be    131072 words long.
 Raffenetti 2 integral format.
 Two-electron integral symmetry is turned on.
 Leave Link  301 at Sun Apr 18 07:32:17 2021, MaxMem=   104857600 cpu:               8.0 elap:               0.2
 (Enter /s/ls4/users/knvvv/bin/g16sse/l302.exe)
 NPDir=0 NMtPBC=     1 NCelOv=     1 NCel=       1 NClECP=     1 NCelD=      1
         NCelK=      1 NCelE2=     1 NClLst=     1 CellRange=     0.0.
 One-electron integrals computed using PRISM.
 One-electron integral symmetry used in STVInt
 PrsmSu:  requested number of processors reduced to:  13 ShMem   1 Linda.
  48 Symmetry operations used in ECPInt.
 ECPInt:  NShTT=     120 NPrTT=     725 LenC2=     121 LenP2D=     725.
 LDataN:  DoStor=T MaxTD1= 6 Len=  172
 NBasis=    45 RedAO= T EigKep=  5.37D-02  NBF=    14     4     4     4     1     6     6     6
 NBsUse=    45 1.00D-06 EigRej= -1.00D+00 NBFU=    14     4     4     4     1     6     6     6
 Precomputing XC quadrature grid using
 IXCGrd= 4 IRadAn=           5 IRanWt=          -1 IRanGd=           0 AccXCQ= 0.00D+00.
 Generated NRdTot=       0 NPtTot=           0 NUsed=           0 NTot=          32
 NSgBfM=    52    52    52    52    52 MxSgAt=     1 MxSgA2=     1.
 Leave Link  302 at Sun Apr 18 07:32:25 2021, MaxMem=   104857600 cpu:             376.8 elap:               8.0
 (Enter /s/ls4/users/knvvv/bin/g16sse/l303.exe)
 DipDrv:  MaxL=1.
 Leave Link  303 at Sun Apr 18 07:32:26 2021, MaxMem=   104857600 cpu:              10.5 elap:               0.2
 (Enter /s/ls4/users/knvvv/bin/g16sse/l401.exe)
 SCF N**3 symmetry information disabled.
 ExpMin= 4.20D-02 ExpMax= 3.01D+05 ExpMxC= 2.91D+03 IAcc=3 IRadAn=         5 AccDes= 0.00D+00
 Harris functional with IExCor= 1009 and IRadAn=       5 diagonalized for initial guess.
 HarFok:  IExCor= 1009 AccDes= 0.00D+00 IRadAn=         5 IDoV= 1 UseB2=F ITyADJ=14
 ICtDFT=  3500011 ScaDFX=  1.000000  1.000000  1.000000  1.000000
 FoFCou: FMM=F IPFlag=           0 FMFlag=      100000 FMFlg1=           0
         NFxFlg=           0 DoJE=T BraDBF=F KetDBF=T FulRan=T
         wScrn=  0.000000 ICntrl=       500 IOpCl=  0 I1Cent=   200000004 NGrid=           0
         NMat0=    1 NMatS0=      1 NMatT0=    0 NMatD0=    1 NMtDS0=    0 NMtDT0=    0
 Petite list used in FoFCou.
 Harris En= -1263.26521633817    
 JPrj=0 DoOrth=F DoCkMO=F.
 Initial guess orbital symmetries:
 Alpha Orbitals:
       Occupied  (A1G) (A1G) (T1U) (T1U) (T1U) (A1G) (T1U) (T1U)
                 (T1U) (T2G) (T2G) (T2G) (EG) (EG) (A1G)
       Virtual   (T1U) (T1U) (T1U) (A1G) (T2G) (T2G) (T2G) (EG)
                 (EG) (T2G) (T2G) (T2G) (EG) (EG) (T1U) (T1U) (T1U)
                 (A1G) (T2G) (T2G) (T2G) (EG) (EG) (T2U) (T2U)
                 (T2U) (A2U) (T1U) (T1U) (T1U)
 Beta  Orbitals:
       Occupied  (A1G) (A1G) (T1U) (T1U) (T1U) (A1G) (T1U) (T1U)
                 (T1U) (T2G) (T2G)
       Virtual   (T2G) (EG) (EG) (A1G) (T1U) (T1U) (T1U) (A1G)
                 (T2G) (T2G) (T2G) (EG) (EG) (T2G) (T2G) (T2G)
                 (EG) (EG) (T1U) (T1U) (T1U) (A1G) (T2G) (T2G)
                 (T2G) (EG) (EG) (T2U) (T2U) (T2U) (A2U) (T1U)
                 (T1U) (T1U)
 Initial guess <Sx>= 0.0000 <Sy>= 0.0000 <Sz>= 2.0000 <S**2>= 6.0000 S= 2.0000
 Leave Link  401 at Sun Apr 18 07:32:30 2021, MaxMem=   104857600 cpu:             225.4 elap:               4.8
 (Enter /s/ls4/users/knvvv/bin/g16sse/l502.exe)
 Keep R1 and R2 ints in memory in symmetry-blocked form, NReq=42597388.
 FoFCou: FMM=F IPFlag=           0 FMFlag=           0 FMFlg1=           0
         NFxFlg=           0 DoJE=F BraDBF=F KetDBF=F FulRan=T
         wScrn=  0.000000 ICntrl=       600 IOpCl=  0 I1Cent=           0 NGrid=           0
         NMat0=    1 NMatS0=   1035 NMatT0=    0 NMatD0=    1 NMtDS0=    0 NMtDT0=    0
 Petite list used in FoFCou.
 UHF open shell SCF:
 Using DIIS extrapolation, IDIIS=  1040.
 NGot=   104857600 LenX=   104698530 LenY=   104695385
 Requested convergence on RMS density matrix=1.00D-08 within 128 cycles.
 Requested convergence on MAX density matrix=1.00D-06.
 Requested convergence on             energy=1.00D-06.
 No special actions if energy rises.

 Cycle   1  Pass 1  IDiag  1:
 Density matrix breaks symmetry, PCut= 1.00D-04
 Density has only Abelian symmetry.
 E= -1263.55321101229    
 DIIS: error= 4.11D-02 at cycle   1 NSaved=   1.
 NSaved= 1 IEnMin= 1 EnMin= -1263.55321101229     IErMin= 1 ErrMin= 4.11D-02
 ErrMax= 4.11D-02  0.00D+00 EMaxC= 1.00D-01 BMatC= 2.52D-01 BMatP= 2.52D-01
 IDIUse=3 WtCom= 5.89D-01 WtEn= 4.11D-01
 Coeff-Com:  0.100D+01
 Coeff-En:   0.100D+01
 Coeff:      0.100D+01
 Gap=     0.295 Goal=   None    Shift=    0.000
 Gap=     0.361 Goal=   None    Shift=    0.000
 GapD=    0.295 DampG=1.000 DampE=0.250 DampFc=0.2500 IDamp=-1.
 Damping current iteration by 2.50D-01
 RMSDP=6.47D-03 MaxDP=2.28D-01              OVMax= 1.48D-01

 Cycle   2  Pass 1  IDiag  1:
 Density matrix breaks symmetry, PCut= 1.00D-04
 Density has only Abelian symmetry.
 E= -1263.56073377855     Delta-E=       -0.007522766254 Rises=F Damp=T
 DIIS: error= 2.98D-02 at cycle   2 NSaved=   2.
 NSaved= 2 IEnMin= 2 EnMin= -1263.56073377855     IErMin= 2 ErrMin= 2.98D-02
 ErrMax= 2.98D-02  0.00D+00 EMaxC= 1.00D-01 BMatC= 1.05D-01 BMatP= 2.52D-01
 IDIUse=3 WtCom= 7.02D-01 WtEn= 2.98D-01
 Coeff-Com: -0.676D+00 0.168D+01
 Coeff-En:   0.000D+00 0.100D+01
 Coeff:     -0.475D+00 0.148D+01
 Gap=     0.295 Goal=   None    Shift=    0.000
 Gap=     0.110 Goal=   None    Shift=    0.000
 RMSDP=3.42D-03 MaxDP=1.44D-01 DE=-7.52D-03 OVMax= 6.42D-02

 Cycle   3  Pass 1  IDiag  1:
 Density matrix breaks symmetry, PCut= 1.00D-04
 Density has only Abelian symmetry.
 E= -1263.57876521407     Delta-E=       -0.018031435521 Rises=F Damp=F
 DIIS: error= 6.63D-03 at cycle   3 NSaved=   3.
 NSaved= 3 IEnMin= 3 EnMin= -1263.57876521407     IErMin= 3 ErrMin= 6.63D-03
 ErrMax= 6.63D-03  0.00D+00 EMaxC= 1.00D-01 BMatC= 2.96D-03 BMatP= 1.05D-01
 IDIUse=3 WtCom= 9.34D-01 WtEn= 6.63D-02
 Coeff-Com: -0.189D+00 0.253D+00 0.936D+00
 Coeff-En:   0.000D+00 0.000D+00 0.100D+01
 Coeff:     -0.177D+00 0.236D+00 0.941D+00
 Gap=     0.294 Goal=   None    Shift=    0.000
 Gap=     0.110 Goal=   None    Shift=    0.000
 RMSDP=1.11D-03 MaxDP=4.41D-02 DE=-1.80D-02 OVMax= 1.99D-02

 Cycle   4  Pass 1  IDiag  1:
 Density matrix breaks symmetry, PCut= 1.00D-04
 Density has only Abelian symmetry.
 E= -1263.57958408163     Delta-E=       -0.000818867563 Rises=F Damp=F
 DIIS: error= 1.93D-03 at cycle   4 NSaved=   4.
 NSaved= 4 IEnMin= 4 EnMin= -1263.57958408163     IErMin= 4 ErrMin= 1.93D-03
 ErrMax= 1.93D-03  0.00D+00 EMaxC= 1.00D-01 BMatC= 2.13D-04 BMatP= 2.96D-03
 IDIUse=3 WtCom= 9.81D-01 WtEn= 1.93D-02
 Coeff-Com:  0.733D-01-0.107D+00-0.528D+00 0.156D+01
 Coeff-En:   0.000D+00 0.000D+00 0.000D+00 0.100D+01
 Coeff:      0.719D-01-0.105D+00-0.517D+00 0.155D+01
 Gap=     0.293 Goal=   None    Shift=    0.000
 Gap=     0.109 Goal=   None    Shift=    0.000
 RMSDP=7.28D-04 MaxDP=2.89D-02 DE=-8.19D-04 OVMax= 1.28D-02

 Cycle   5  Pass 1  IDiag  1:
 Density matrix breaks symmetry, PCut= 1.00D-04
 Density has only Abelian symmetry.
 E= -1263.57973398890     Delta-E=       -0.000149907270 Rises=F Damp=F
 DIIS: error= 4.41D-04 at cycle   5 NSaved=   5.
 NSaved= 5 IEnMin= 5 EnMin= -1263.57973398890     IErMin= 5 ErrMin= 4.41D-04
 ErrMax= 4.41D-04  0.00D+00 EMaxC= 1.00D-01 BMatC= 1.23D-05 BMatP= 2.13D-04
 IDIUse=3 WtCom= 9.96D-01 WtEn= 4.41D-03
 Coeff-Com:  0.126D-01-0.147D-01 0.360D-01-0.208D+00 0.117D+01
 Coeff-En:   0.000D+00 0.000D+00 0.000D+00 0.000D+00 0.100D+01
 Coeff:      0.126D-01-0.146D-01 0.359D-01-0.207D+00 0.117D+01
 Gap=     0.293 Goal=   None    Shift=    0.000
 Gap=     0.108 Goal=   None    Shift=    0.000
 RMSDP=3.88D-05 MaxDP=8.01D-04 DE=-1.50D-04 OVMax= 1.07D-03

 Cycle   6  Pass 1  IDiag  1:
 Density matrix breaks symmetry, PCut= 1.00D-04
 Density has only Abelian symmetry.
 E= -1263.57973690737     Delta-E=       -0.000002918466 Rises=F Damp=F
 DIIS: error= 4.56D-05 at cycle   6 NSaved=   6.
 NSaved= 6 IEnMin= 6 EnMin= -1263.57973690737     IErMin= 6 ErrMin= 4.56D-05
 ErrMax= 4.56D-05  0.00D+00 EMaxC= 1.00D-01 BMatC= 1.33D-07 BMatP= 1.23D-05
 IDIUse=1 WtCom= 1.00D+00 WtEn= 0.00D+00
 Coeff-Com: -0.465D-02 0.583D-02 0.146D-02 0.216D-01-0.238D+00 0.121D+01
 Coeff:     -0.465D-02 0.583D-02 0.146D-02 0.216D-01-0.238D+00 0.121D+01
 Gap=     0.293 Goal=   None    Shift=    0.000
 Gap=     0.108 Goal=   None    Shift=    0.000
 RMSDP=2.25D-05 MaxDP=9.01D-04 DE=-2.92D-06 OVMax= 3.96D-04

 Cycle   7  Pass 1  IDiag  1:
 Density matrix breaks symmetry, PCut= 1.00D-04
 Density has only Abelian symmetry.
 E= -1263.57973701799     Delta-E=       -0.000000110622 Rises=F Damp=F
 DIIS: error= 1.74D-05 at cycle   7 NSaved=   7.
 NSaved= 7 IEnMin= 7 EnMin= -1263.57973701799     IErMin= 7 ErrMin= 1.74D-05
 ErrMax= 1.74D-05  0.00D+00 EMaxC= 1.00D-01 BMatC= 1.91D-08 BMatP= 1.33D-07
 IDIUse=1 WtCom= 1.00D+00 WtEn= 0.00D+00
 Coeff-Com:  0.102D-02-0.129D-02 0.395D-03-0.487D-02 0.191D-01-0.173D+00
 Coeff-Com:  0.116D+01
 Coeff:      0.102D-02-0.129D-02 0.395D-03-0.487D-02 0.191D-01-0.173D+00
 Coeff:      0.116D+01
 Gap=     0.293 Goal=   None    Shift=    0.000
 Gap=     0.108 Goal=   None    Shift=    0.000
 RMSDP=2.87D-06 MaxDP=1.07D-04 DE=-1.11D-07 OVMax= 4.85D-05

 Cycle   8  Pass 1  IDiag  1:
 Density matrix breaks symmetry, PCut= 1.00D-04
 Density has only Abelian symmetry.
 E= -1263.57973702310     Delta-E=       -0.000000005108 Rises=F Damp=F
 DIIS: error= 2.43D-06 at cycle   8 NSaved=   8.
 NSaved= 8 IEnMin= 8 EnMin= -1263.57973702310     IErMin= 8 ErrMin= 2.43D-06
 ErrMax= 2.43D-06  0.00D+00 EMaxC= 1.00D-01 BMatC= 4.00D-10 BMatP= 1.91D-08
 IDIUse=1 WtCom= 1.00D+00 WtEn= 0.00D+00
 Coeff-Com:  0.532D-04-0.729D-04-0.246D-03 0.374D-03 0.244D-02-0.466D-01
 Coeff-Com:  0.446D-01 0.999D+00
 Coeff:      0.532D-04-0.729D-04-0.246D-03 0.374D-03 0.244D-02-0.466D-01
 Coeff:      0.446D-01 0.999D+00
 Gap=     0.293 Goal=   None    Shift=    0.000
 Gap=     0.108 Goal=   None    Shift=    0.000
 RMSDP=7.84D-07 MaxDP=3.04D-05 DE=-5.11D-09 OVMax= 1.32D-05

 Cycle   9  Pass 1  IDiag  1:
 Density matrix breaks symmetry, PCut= 1.00D-04
 Density has only Abelian symmetry.
 E= -1263.57973702327     Delta-E=       -0.000000000171 Rises=F Damp=F
 DIIS: error= 2.66D-07 at cycle   9 NSaved=   9.
 NSaved= 9 IEnMin= 9 EnMin= -1263.57973702327     IErMin= 9 ErrMin= 2.66D-07
 ErrMax= 2.66D-07  0.00D+00 EMaxC= 1.00D-01 BMatC= 9.44D-12 BMatP= 4.00D-10
 IDIUse=1 WtCom= 1.00D+00 WtEn= 0.00D+00
 Coeff-Com:  0.366D-05-0.480D-05 0.198D-04 0.434D-04-0.711D-03 0.804D-02
 Coeff-Com: -0.926D-02-0.164D+00 0.117D+01
 Coeff:      0.366D-05-0.480D-05 0.198D-04 0.434D-04-0.711D-03 0.804D-02
 Coeff:     -0.926D-02-0.164D+00 0.117D+01
 Gap=     0.293 Goal=   None    Shift=    0.000
 Gap=     0.108 Goal=   None    Shift=    0.000
 RMSDP=3.18D-08 MaxDP=1.17D-06 DE=-1.71D-10 OVMax= 5.89D-07

 Cycle  10  Pass 1  IDiag  1:
 Density matrix breaks symmetry, PCut= 1.00D-04
 Density has only Abelian symmetry.
 E= -1263.57973702327     Delta-E=       -0.000000000000 Rises=F Damp=F
 DIIS: error= 4.48D-08 at cycle  10 NSaved=  10.
 NSaved=10 IEnMin=10 EnMin= -1263.57973702327     IErMin=10 ErrMin= 4.48D-08
 ErrMax= 4.48D-08  0.00D+00 EMaxC= 1.00D-01 BMatC= 3.15D-14 BMatP= 9.44D-12
 IDIUse=1 WtCom= 1.00D+00 WtEn= 0.00D+00
 Coeff-Com: -0.881D-06 0.122D-05-0.461D-05-0.156D-04 0.204D-03-0.178D-02
 Coeff-Com:  0.249D-02 0.315D-01-0.343D+00 0.131D+01
 Coeff:     -0.881D-06 0.122D-05-0.461D-05-0.156D-04 0.204D-03-0.178D-02
 Coeff:      0.249D-02 0.315D-01-0.343D+00 0.131D+01
 Gap=     0.293 Goal=   None    Shift=    0.000
 Gap=     0.108 Goal=   None    Shift=    0.000
 RMSDP=2.96D-09 MaxDP=5.66D-08 DE=-4.55D-13 OVMax= 1.52D-07

 Density matrix breaks symmetry, PCut= 1.00D-04
 Density has only Abelian symmetry.
 SCF Done:  E(UM062X) =  -1263.57973702     A.U. after   10 cycles
            NFock= 10  Conv=0.30D-08     -V/T= 2.0014
 <Sx>= 0.0000 <Sy>= 0.0000 <Sz>= 2.0000 <S**2>= 6.0204 S= 2.0041
 <L.S>= 0.000000000000E+00
 KE= 1.261803079220D+03 PE=-3.010389468166D+03 EE= 4.850066519229D+02
 Annihilation of the first spin contaminant:
 S**2 before annihilation     6.0204,   after     6.0001
 Leave Link  502 at Sun Apr 18 07:33:23 2021, MaxMem=   104857600 cpu:            2459.9 elap:              52.3
 (Enter /s/ls4/users/knvvv/bin/g16sse/l601.exe)
 Copying SCF densities to generalized density rwf, IOpCl= 1 IROHF=0.
 SCF density gives NOpUse=  8 NOpAll= 48.
 Marking SCF density as not fully symmetric.

 **********************************************************************

            Population analysis using the SCF density.

 **********************************************************************

 Orbital symmetries:
 Alpha Orbitals:
       Occupied  (A1G) (A1G) (T1U) (T1U) (T1U) (?A) (T1U) (T1U)
                 (T1U) (?B) (?A) (?A) (?B) (?B) (?A)
       Virtual   (T1U) (T1U) (T1U) (?A) (?B) (?A) (?B) (?B) (?A)
                 (?B) (?A) (?A) (?B) (?B) (T1U) (T1U) (T1U) (T2G)
                 (T2G) (T2G) (T2G) (T2G) (T2G) (?C) (?C) (A2U)
                 (?C) (?C) (?C) (?C)
 Beta  Orbitals:
       Occupied  (A1G) (A1G) (T1U) (T1U) (T1U) (A1G) (T1U) (T1U)
                 (T1U) (?A) (?A)
       Virtual   (?B) (?B) (?C) (?C) (?A) (?B) (?C) (?B) (?A) (?A)
                 (?B) (?A) (?B) (?B) (?A) (?B) (?A) (?A) (?C) (?C)
                 (?C) (T2G) (?A) (?A) (?A) (T2G) (T2G) (A2U) (?D)
                 (?D) (?D) (?D) (?D) (?D)
 Unable to determine electronic state:  an orbital has unidentified symmetry.
 Alpha  occ. eigenvalues -- -257.80823 -30.51024 -26.37272 -26.37272 -26.34465
 Alpha  occ. eigenvalues --   -3.61428  -2.39371  -2.39371  -2.33584  -0.36343
 Alpha  occ. eigenvalues --   -0.36343  -0.32555  -0.31030  -0.31030  -0.19599
 Alpha virt. eigenvalues --    0.09724   0.09724   0.10931   0.17666   0.22258
 Alpha virt. eigenvalues --    0.22258   0.22584   0.22584   0.22727   0.95003
 Alpha virt. eigenvalues --    0.95003   0.96472   0.96983   0.96983   1.74440
 Alpha virt. eigenvalues --    1.74440   1.78021   2.63638   3.56137   3.56137
 Alpha virt. eigenvalues --    3.59190   3.60153   3.60153   4.17771   4.17771
 Alpha virt. eigenvalues --    4.22394   4.22394   4.22450   4.22701   4.22701
  Beta  occ. eigenvalues -- -257.80651 -30.43783 -26.30441 -26.30441 -26.29839
  Beta  occ. eigenvalues --   -3.47484  -2.19947  -2.19728  -2.19728  -0.21411
  Beta  occ. eigenvalues --   -0.21411
  Beta virt. eigenvalues --   -0.10603   0.03831   0.06159   0.06159   0.06164
  Beta virt. eigenvalues --    0.06180   0.08346   0.15760   0.17577   0.17577
  Beta virt. eigenvalues --    0.24953   0.26190   0.26194   0.90809   0.91750
  Beta virt. eigenvalues --    0.91762   0.97361   0.97361   1.81697   1.81697
  Beta virt. eigenvalues --    1.83266   2.72494   3.65892   3.65892   3.70356
  Beta virt. eigenvalues --    3.70363   3.73905   4.30335   4.30335   4.32820
  Beta virt. eigenvalues --    4.32820   4.33591   4.33591   4.34545
          Condensed to atoms (all electrons):
               1
     1  Fe  26.000000
          Atomic-Atomic Spin Densities.
               1
     1  Fe   4.000000
 Mulliken charges and spin densities:
               1          2
     1  Fe   0.000000   4.000000
 Sum of Mulliken charges =   0.00000   4.00000
 Mulliken charges and spin densities with hydrogens summed into heavy atoms:
               1          2
     1  Fe   0.000000   4.000000
 Electronic spatial extent (au):  <R**2>=             35.5183
 Charge=              0.0000 electrons
 Dipole moment (field-independent basis, Debye):
    X=              0.0000    Y=             -0.0000    Z=              0.0000  Tot=              0.0000
 Quadrupole moment (field-independent basis, Debye-Ang):
   XX=            -16.5302   YY=            -15.6215   ZZ=            -15.6215
   XY=             -0.0000   XZ=              0.0000   YZ=             -0.0000
 Traceless Quadrupole moment (field-independent basis, Debye-Ang):
   XX=             -0.6058   YY=              0.3029   ZZ=              0.3029
   XY=             -0.0000   XZ=              0.0000   YZ=             -0.0000
 Octapole moment (field-independent basis, Debye-Ang**2):
  XXX=              0.0000  YYY=             -0.0000  ZZZ=              0.0000  XYY=              0.0000
  XXY=             -0.0000  XXZ=              0.0000  XZZ=              0.0000  YZZ=             -0.0000
  YYZ=              0.0000  XYZ=             -0.0000
 Hexadecapole moment (field-independent basis, Debye-Ang**3):
 XXXX=            -32.0408 YYYY=            -30.7388 ZZZZ=            -30.7388 XXXY=              0.0000
 XXXZ=             -0.0000 YYYX=             -0.0000 YYYZ=              0.0000 ZZZX=              0.0000
 ZZZY=             -0.0000 XXYY=            -11.0411 XXZZ=            -11.0411 YYZZ=            -10.2463
 XXYZ=             -0.0000 YYXZ=              0.0000 ZZXY=             -0.0000
 N-N= 0.000000000000D+00 E-N=-3.010389467812D+03  KE= 1.261803079220D+03
                          Isotropic Fermi Contact Couplings
        Atom                 a.u.       MegaHertz       Gauss      10(-4) cm-1
     1  Fe(57)             2.63325      95.48150      34.07017      31.84920
 --------------------------------------------------------
       Center         ----  Spin Dipole Couplings  ----
                      3XX-RR        3YY-RR        3ZZ-RR
 --------------------------------------------------------
     1   Atom       -2.526501      1.263251      1.263251
 --------------------------------------------------------
                        XY            XZ            YZ
 --------------------------------------------------------
     1   Atom        0.000000      0.000000      0.000000
 --------------------------------------------------------


 ---------------------------------------------------------------------------------
              Anisotropic Spin Dipole Couplings in Principal Axis System
 ---------------------------------------------------------------------------------

       Atom             a.u.   MegaHertz   Gauss  10(-4) cm-1        Axes

              Baa    -2.5265   -43.741   -15.608   -14.590  1.0000  0.0000  0.0000
     1 Fe(57) Bbb     1.2633    21.870     7.804     7.295  0.0000  0.0000  1.0000
              Bcc     1.2633    21.870     7.804     7.295 -0.0000  1.0000  0.0000
 

 ---------------------------------------------------------------------------------

 No NMR shielding tensors so no spin-rotation constants.
 Leave Link  601 at Sun Apr 18 07:33:27 2021, MaxMem=   104857600 cpu:             202.1 elap:               4.3
 (Enter /s/ls4/users/knvvv/bin/g16sse/l801.exe)
 DoSCS=F DFT=T ScalE2(SS,OS)=  1.000000  1.000000
 Range of M.O.s used for correlation:     1    45
 NBasis=    45 NAE=    15 NBE=    11 NFC=     0 NFV=     0
 NROrb=     45 NOA=    15 NOB=    11 NVA=    30 NVB=    34
 Leave Link  801 at Sun Apr 18 07:33:27 2021, MaxMem=   104857600 cpu:               4.3 elap:               0.1
 (Enter /s/ls4/users/knvvv/bin/g16sse/l914.exe)
 UHF ground state
 Doing stability rather than CIS.
 Keep R1 and R2 ints in memory in symmetry-blocked form, NReq=59360624.
 FoFCou: FMM=F IPFlag=           0 FMFlag=           0 FMFlg1=           0
         NFxFlg=           0 DoJE=F BraDBF=F KetDBF=F FulRan=T
         wScrn=  0.000000 ICntrl=       600 IOpCl=  0 I1Cent=           0 NGrid=           0
         NMat0=    1 NMatS0=   1035 NMatT0=    0 NMatD0=    1 NMtDS0=    0 NMtDT0=    0
 Petite list used in FoFCou.
 MDV=   104857600 DFT=T DoStab=T Mixed=T DoRPA=F DoScal=F NonHer=F
 Making orbital integer symmetry assigments:
 Orbital symmetries:
 Alpha Orbitals:
       Occupied  (A1G) (A1G) (T1U) (T1U) (T1U) (?A) (T1U) (T1U)
                 (T1U) (?B) (?A) (?A) (?B) (?B) (?A)
       Virtual   (T1U) (T1U) (T1U) (?A) (?B) (?A) (?B) (?B) (?A)
                 (?B) (?A) (?A) (?B) (?B) (T1U) (T1U) (T1U) (T2G)
                 (T2G) (T2G) (T2G) (T2G) (T2G) (?C) (?C) (A2U)
                 (?C) (?C) (?C) (?C)
 Beta  Orbitals:
       Occupied  (A1G) (A1G) (T1U) (T1U) (T1U) (A1G) (T1U) (T1U)
                 (T1U) (?A) (?A)
       Virtual   (?B) (?B) (?C) (?C) (?A) (?B) (?C) (?B) (?A) (?A)
                 (?B) (?A) (?B) (?B) (?A) (?B) (?A) (?A) (?C) (?C)
                 (?C) (T2G) (?A) (?A) (?A) (T2G) (T2G) (A2U) (?D)
                 (?D) (?D) (?D) (?D) (?D)
    24 initial guesses have been made.
 Convergence on wavefunction:    0.001000000000000
 Davidson Disk Diagonalization:  ConvIn= 1.00D-03 SkipCon=T Conv= 1.00D-03.
 Max sub-space:  1648 roots to seek:    24 dimension of matrix:          824
 Iteration     1 Dimension    24 NMult     0 NNew     24
 CISAX will form    24 AO SS matrices at one time.
 NMat=    24 NSing=    24 JSym2X= 2.
 Excitation Energies [eV] at current iteration:
 Root      1 :    -0.873312368776302
 Root      2 :    -0.873312368773064
 Root      3 :     1.131696423871329
 Root      4 :     1.131696423881486
 Root      5 :     2.105563850877201
 Root      6 :     2.105563850892500
 Root      7 :     2.602644348679677
 Root      8 :     2.602644348687169
 Root      9 :     2.669171877500195
 Root     10 :     4.307888335823130
 Root     11 :     4.390022246743025
 Root     12 :     4.598433164540721
 Root     13 :     4.598433164540962
 Root     14 :     4.833004136836891
 Root     15 :     6.720182057090348
 Root     16 :     6.720182057094994
 Root     17 :     7.095009733780373
 Root     18 :     7.222832275269960
 Root     19 :     7.447200946457092
 Root     20 :     7.447200946457364
 Root     21 :     8.074353354380401
 Root     22 :     8.074598406722627
 Root     23 :     8.473715277089177
 Root     24 :    12.661761402065670
 Iteration     2 Dimension    48 NMult    24 NNew     24
 CISAX will form    24 AO SS matrices at one time.
 NMat=    24 NSing=    24 JSym2X= 2.
 Root      1 not converged, maximum delta is    0.071477174007025
 Excitation Energies [eV] at current iteration:
 Root      1 :    -1.125379248086213   Change is   -0.252066879309911
 Root      2 :    -1.125379248082769   Change is   -0.252066879309705
 Root      3 :    -0.793288330295293   Change is   -1.924984754166622
 Root      4 :    -0.793288330294070   Change is   -1.924984754175555
 Root      5 :     0.086198129053613   Change is   -2.516446219626063
 Root      6 :     0.086198129054937   Change is   -2.516446219632232
 Root      7 :     0.852170726039339   Change is   -1.253393124837862
 Root      8 :     0.852170726042855   Change is   -1.253393124849645
 Root      9 :     2.628447404258921   Change is   -0.040724473241275
 Root     10 :     4.135992005672806   Change is   -0.171896330150324
 Root     11 :     4.213162294754376   Change is   -0.176859951988650
 Root     12 :     4.384653429882805   Change is   -0.213779734657915
 Root     13 :     4.384653429883077   Change is   -0.213779734657885
 Root     14 :     4.535181480908793   Change is   -0.297822655928098
 Root     15 :     5.867382989736619   Change is   -2.606332287352558
 Root     16 :     6.032610355391530   Change is   -1.414590591065563
 Root     17 :     6.032610355391765   Change is   -1.414590591065599
 Root     18 :     6.424212502526308   Change is   -0.295969554564039
 Root     19 :     6.424212502530822   Change is   -0.295969554564172
 Root     20 :     6.997269697331842   Change is   -0.097740036448530
 Root     21 :     7.195221070252980   Change is   -0.027611205016981
 Root     22 :     7.748557000194848   Change is   -0.325796354185552
 Root     23 :     7.748848816079493   Change is   -0.325749590643135
 Root     24 :     8.968062950224967   Change is   -3.693698451840703
 Iteration     3 Dimension    51 NMult    48 NNew      3
 CISAX will form     3 AO SS matrices at one time.
 NMat=     3 NSing=     3 JSym2X= 2.
 Root      1 not converged, maximum delta is    0.447350146566553
 Excitation Energies [eV] at current iteration:
 Root      1 :    -1.131479208522607   Change is   -0.006099960436394
 Root      2 :    -1.131479064305112   Change is   -0.006099816222344
 Root      3 :    -0.800790372786773   Change is   -0.007502042491480
 Iteration     4 Dimension    54 NMult    51 NNew      3
 CISAX will form     3 AO SS matrices at one time.
 NMat=     3 NSing=     3 JSym2X= 2.
 Root      1 not converged, maximum delta is    0.001015792176506
 Excitation Energies [eV] at current iteration:
 Root      1 :    -1.131599072955652   Change is   -0.000119864433045
 Root      2 :    -1.131599068715818   Change is   -0.000120004410705
 Root      3 :    -0.800876059574741   Change is   -0.000085686787967
 Cease iterating as an instability has been found.
 ***********************************************************************
 Stability analysis using <AA,BB:AA,BB> singles matrix:
 ***********************************************************************
 1PDM for each excited state written to RWF  633
 Ground to excited state transition densities written to RWF  633

 Eigenvectors of the stability matrix:
 
 Excited state symmetry could not be determined.
 Eigenvector   1:  5.022-?Sym  Eigenvalue=-0.0415855  <S**2>=6.056
     10B -> 12B        0.80922
     10B -> 13B        0.26032
     10B -> 16B        0.30605
     10B -> 17B       -0.12077
     11B -> 12B        0.20199
     11B -> 16B       -0.13218
     11B -> 17B       -0.27962
 
 Excited state symmetry could not be determined.
 Eigenvector   2:  5.022-?Sym  Eigenvalue=-0.0415855  <S**2>=6.056
     10B -> 12B       -0.20199
     10B -> 16B       -0.13218
     10B -> 17B       -0.27962
     11B -> 12B        0.80922
     11B -> 13B        0.26032
     11B -> 16B       -0.30605
     11B -> 17B        0.12077
 
 Excited state symmetry could not be determined.
 Eigenvector   3:  5.008-?Sym  Eigenvalue=-0.0294317  <S**2>=6.019
     10B -> 16B        0.57949
     10B -> 17B        0.25932
     10B -> 23B       -0.25144
     10B -> 24B       -0.11033
     11B -> 16B       -0.25002
     11B -> 17B        0.60104
     11B -> 23B        0.10848
     11B -> 24B       -0.25573
 The wavefunction has an internal instability.
 Leave Link  914 at Sun Apr 18 07:33:34 2021, MaxMem=   104857600 cpu:             335.2 elap:               7.1
 (Enter /s/ls4/users/knvvv/bin/g16sse/l508.exe)
 Keep R1 and R2 ints in memory in symmetry-blocked form, NReq=42597788.
 FoFCou: FMM=F IPFlag=           0 FMFlag=           0 FMFlg1=           0
         NFxFlg=           0 DoJE=F BraDBF=F KetDBF=F FulRan=T
         wScrn=  0.000000 ICntrl=       600 IOpCl=  0 I1Cent=           0 NGrid=           0
         NMat0=    1 NMatS0=   1035 NMatT0=    0 NMatD0=    1 NMtDS0=    0 NMtDT0=    0
 Petite list used in FoFCou.
 Tight linear equation convergence will be used.
 UM062X wavefunction.
 Quadratic Convergence SCF Method.
 Line search only if initial step raises energy.
 Perform preliminary linear searches along instability eigenvector.
     ILin= 1 X=0.000D+00 Y=-1.263579737023D+03 DE= 0.00D+00
     ILin= 2 X=1.000D-01 Y=-1.263580279220D+03 DE=-5.42D-04
     ILin= 3 X=1.414D-01 Y=-1.263580964196D+03 DE=-1.23D-03
     ILin= 4 X=2.000D-01 Y=-1.263582398999D+03 DE=-2.66D-03
     ILin= 5 X=2.828D-01 Y=-1.263584435431D+03 DE=-4.70D-03
     ILin= 6 X=4.000D-01 Y=-1.263585252659D+03 DE=-5.52D-03
     ILin= 7 X=5.657D-01 Y=-1.263582359046D+03 DE=-2.62D-03
     An  expanding polynomial of degree  7 produced  0.3724
 Iteration F X= 3.724D-01 EE=-1.263585332730769D+03
     ILin= 1 X=0.000D+00 Y=-1.263579737023D+03 DE= 0.00D+00
     ILin= 2 X=1.000D-01 Y=-1.263580279220D+03 DE=-5.42D-04
     ILin= 3 X=1.414D-01 Y=-1.263580964196D+03 DE=-1.23D-03
 The two search directions are symmetric.
 Iteration B X= 3.724D-01 EE=-1.263585332730769D+03
 Take forward step, X= 3.724D-01 Step= 3.724D-01
 Iteration   1 EE= -1263.58531805852                                    Grad=6.737D-02 Max rot=    0.9207 deg.
 Gradient too large for Newton-Raphson -- use scaled steepest descent instead.
 Alpha Gap=     0.292 HL deriv= 3.54D-14
  Beta Gap=     0.133 HL deriv= 8.47D-03
     ILin= 1 X=0.000D+00 Y=-1.263585318059D+03 DE= 0.00D+00 F= -7.02D-03
     ILin= 2 X=3.000D-01 Y=-1.263586892860D+03 DE=-1.57D-03 F= -3.49D-03
     ILin= 3 X=6.000D-01 Y=-1.263587419079D+03 DE=-2.10D-03 F= -3.00D-05
     ILin= 4 X=1.100D+00 Y=-1.263586024231D+03 DE=-7.06D-04 F=  5.57D-03
     An  expanding polynomial of degree  4 produced  0.6027
     Minimum is close to point  3 DX=  2.65D-03 DF= -4.02D-08 DXR=  4.40D-03 DFR=  1.91D-05 which will be used.
 Iteration   2 EE= -1263.58741907897     Delta-E=       -0.002101020457 Grad=3.774D-02 Max rot=    0.6631 deg.
 Gradient too large for Newton-Raphson -- use scaled steepest descent instead.
 Alpha Gap=     0.293 HL deriv= 5.29D-15
  Beta Gap=     0.112 HL deriv= 2.76D-02
     ILin= 1 X=0.000D+00 Y=-1.263587419079D+03 DE= 0.00D+00 F= -4.48D-03
     ILin= 2 X=4.000D-01 Y=-1.263588630006D+03 DE=-1.21D-03 F= -1.52D-03
     ILin= 3 X=7.000D-01 Y=-1.263588726439D+03 DE=-1.31D-03 F=  8.97D-04
     Accept linear search using points  2 and  3.
     An  expanding polynomial of degree  3 produced  0.5487
 Iteration   3 EE= -1263.58876831644     Delta-E=       -0.001349237469 Grad=4.066D-02 Max rot=    0.5092 deg.
 Gradient too large for Newton-Raphson -- use scaled steepest descent instead.
 Alpha Gap=     0.293 HL deriv= 2.99D-15
  Beta Gap=     0.139 HL deriv= 9.69D-03
     ILin= 1 X=0.000D+00 Y=-1.263588768316D+03 DE= 0.00D+00 F= -2.78D-03
     ILin= 2 X=6.000D-01 Y=-1.263589831135D+03 DE=-1.06D-03 F= -7.81D-04
     ILin= 3 X=1.100D+00 Y=-1.263589825648D+03 DE=-1.06D-03 F=  7.87D-04
     An  expanding polynomial of degree  3 produced  0.8466
 Iteration   4 EE= -1263.58992640642     Delta-E=       -0.001158089975 Grad=3.950D-02 Max rot=    0.7323 deg.
 Gradient too large for Newton-Raphson -- use scaled steepest descent instead.
 Alpha Gap=     0.293 HL deriv= 6.28D-15
  Beta Gap=     0.127 HL deriv= 2.64D-02
     ILin= 1 X=0.000D+00 Y=-1.263589926406D+03 DE= 0.00D+00 F= -4.74D-03
     ILin= 2 X=7.000D-01 Y=-1.263591090435D+03 DE=-1.16D-03 F=  1.51D-03
     Accept linear search using points  1 and  2.
     An  expanding polynomial of degree  2 produced  0.4650
 Iteration   5 EE= -1263.59119015900     Delta-E=       -0.001263752589 Grad=3.603D-02 Max rot=    0.4679 deg.
 Gradient too large for Newton-Raphson -- use scaled steepest descent instead.
 Alpha Gap=     0.293 HL deriv= 3.01D-15
  Beta Gap=     0.150 HL deriv= 1.12D-02
     ILin= 1 X=0.000D+00 Y=-1.263591190159D+03 DE= 0.00D+00 F= -2.58D-03
     ILin= 2 X=6.000D-01 Y=-1.263592454036D+03 DE=-1.26D-03 F= -1.66D-03
     ILin= 3 X=1.100D+00 Y=-1.263593110038D+03 DE=-1.92D-03 F= -9.81D-04
     ILin= 4 X=2.000D+00 Y=-1.263593505270D+03 DE=-2.32D-03 F=  7.95D-05
     Accept linear search using points  3 and  4.
     An  expanding polynomial of degree  4 produced  1.9075
     Minimum is close to point  4 DX= -9.25D-02 DF= -4.14D-06 DXR=  4.85D-02 DFR=  1.79D-03 which will be used.
 Iteration   6 EE= -1263.59350526997     Delta-E=       -0.002315110969 Grad=9.512D-02 Max rot=    1.5013 deg.
 Gradient too large for Newton-Raphson -- use scaled steepest descent instead.
 Alpha Gap=     0.294 HL deriv= 6.47D-15
  Beta Gap=     0.137 HL deriv= 4.69D-02
     ILin= 1 X=0.000D+00 Y=-1.263593505270D+03 DE= 0.00D+00 F= -2.24D-02
     ILin= 2 X=9.000D-01 Y=-1.263590735930D+03 DE= 2.77D-03 F=  2.90D-02
     Reject lnstep minimum 4.061D-01 FVal=-1.263598607933D+03 Lims=  0.00D+00  9.00D-01
     ILin= 3 X=4.000D-01 Y=-1.263598030392D+03 DE=-4.53D-03 F=  5.45D-05
     A contracting polynomial of degree  3 produced  0.3965
     Minimum is close to point  3 DX= -3.46D-03 DF= -3.44D-07 DXR=  8.72D-03 DFR=  7.61D-05 which will be used.
 Iteration   7 EE= -1263.59803039157     Delta-E=       -0.004525121594 Grad=6.212D-02 Max rot=    0.8279 deg.
 Gradient too large for Newton-Raphson -- use scaled steepest descent instead.
 Alpha Gap=     0.295 HL deriv= 2.34D-15
  Beta Gap=     0.183 HL deriv= 1.41D-02
     ILin= 1 X=0.000D+00 Y=-1.263598030392D+03 DE= 0.00D+00 F= -7.02D-03
     ILin= 2 X=9.000D-01 Y=-1.263602698280D+03 DE=-4.67D-03 F= -3.39D-03
     Reject lnstep minimum 2.708D+00 FVal=-1.263608011514D+03 Lims=  0.00D+00  9.00D-01
     ILin= 3 X=1.400D+00 Y=-1.263603900081D+03 DE=-5.87D-03 F= -1.41D-03
     ILin= 4 X=2.300D+00 Y=-1.263603470433D+03 DE=-5.44D-03 F=  2.44D-03
     An  expanding polynomial of degree  4 produced  1.7368
 Iteration   8 EE= -1263.60414369826     Delta-E=       -0.006113306689 Grad=1.268D-01 Max rot=    2.2399 deg.
 Gradient too large for Newton-Raphson -- use scaled steepest descent instead.
 Alpha Gap=     0.296 HL deriv= 7.23D-16
  Beta Gap=     0.199 HL deriv= 4.45D-02
     ILin= 1 X=0.000D+00 Y=-1.263604143698D+03 DE= 0.00D+00 F= -3.57D-02
     ILin= 2 X=8.000D-01 Y=-1.263607406162D+03 DE=-3.26D-03 F=  2.59D-02
     Accept linear search using points  1 and  2.
     An  expanding polynomial of degree  2 produced  0.4318
 Iteration   9 EE= -1263.61205844749     Delta-E=       -0.007914749234 Grad=7.365D-02 Max rot=    0.9776 deg.
 Gradient too large for Newton-Raphson -- use scaled steepest descent instead.
 Alpha Gap=     0.297 HL deriv= 1.44D-16
  Beta Gap=     0.264 HL deriv= 1.36D-02
     ILin= 1 X=0.000D+00 Y=-1.263612058447D+03 DE= 0.00D+00 F= -9.29D-03
     ILin= 2 X=9.000D-01 Y=-1.263617978378D+03 DE=-5.92D-03 F= -3.75D-03
     Reject lnstep minimum 3.161D+00 FVal=-1.263624542690D+03 Lims=  0.00D+00  9.00D-01
     ILin= 3 X=1.400D+00 Y=-1.263619021293D+03 DE=-6.96D-03 F= -3.82D-04
     ILin= 4 X=2.200D+00 Y=-1.263617012084D+03 DE=-4.95D-03 F=  5.52D-03
     An  expanding polynomial of degree  4 produced  1.4538
     Minimum is close to point  3 DX=  5.38D-02 DF= -1.02D-05 DXR=  3.70D-02 DFR=  1.46D-03 which will be used.
 Iteration  10 EE= -1263.61902129307     Delta-E=       -0.006962845583 Grad=1.013D-01 Max rot=    1.8098 deg.
 Gradient too large for Newton-Raphson -- use scaled steepest descent instead.
 Alpha Gap=     0.298 HL deriv= 2.08D-15
  Beta Gap=     0.300 HL deriv= 2.30D-02
     ILin= 1 X=0.000D+00 Y=-1.263619021293D+03 DE= 0.00D+00 F= -1.71D-02
     ILin= 2 X=8.000D-01 Y=-1.263622880147D+03 DE=-3.86D-03 F=  6.83D-03
     Accept linear search using points  1 and  2.
     An  expanding polynomial of degree  2 produced  0.5135
 Iteration  11 EE= -1263.62368587136     Delta-E=       -0.004664578289 Grad=4.907D-02 Max rot=    0.8783 deg.
 Gradient too large for Newton-Raphson -- use scaled steepest descent instead.
 Alpha Gap=     0.299 HL deriv= 1.61D-15
  Beta Gap=     0.327 HL deriv= 1.07D-02
     ILin= 1 X=0.000D+00 Y=-1.263623685871D+03 DE= 0.00D+00 F= -4.77D-03
     ILin= 2 X=9.000D-01 Y=-1.263626938391D+03 DE=-3.25D-03 F= -2.38D-03
     Reject lnstep minimum 2.920D+00 FVal=-1.263631072600D+03 Lims=  0.00D+00  9.00D-01
     ILin= 3 X=1.400D+00 Y=-1.263627752389D+03 DE=-4.07D-03 F= -8.48D-04
     ILin= 4 X=2.400D+00 Y=-1.263626877213D+03 DE=-3.19D-03 F=  2.71D-03
     An  expanding polynomial of degree  4 produced  1.6553
 Iteration  12 EE= -1263.62786190353     Delta-E=       -0.004176032165 Grad=8.095D-02 Max rot=    1.0885 deg.
 Gradient too large for Newton-Raphson -- use scaled steepest descent instead.
 Alpha Gap=     0.300 HL deriv= 2.76D-15
  Beta Gap=     0.348 HL deriv= 1.18D-02
     ILin= 1 X=0.000D+00 Y=-1.263627861904D+03 DE= 0.00D+00 F= -7.73D-03
     ILin= 2 X=9.000D-01 Y=-1.263629285093D+03 DE=-1.42D-03 F=  4.39D-03
     Accept linear search using points  1 and  2.
     An  expanding polynomial of degree  2 produced  0.5479
 Iteration  13 EE= -1263.63002412158     Delta-E=       -0.002162218055 Grad=2.631D-02 Max rot=    0.5985 deg.
 Gradient too large for Newton-Raphson -- use scaled steepest descent instead.
 Alpha Gap=     0.301 HL deriv= 1.97D-15
  Beta Gap=     0.356 HL deriv= 6.72D-03
     ILin= 1 X=0.000D+00 Y=-1.263630024122D+03 DE= 0.00D+00 F= -1.58D-03
     ILin= 2 X=1.000D+00 Y=-1.263631172889D+03 DE=-1.15D-03 F= -6.95D-04
     Reject lnstep minimum 1.703D+00 FVal=-1.263631420454D+03 Lims=  0.00D+00  1.00D+00
     ILin= 3 X=1.700D+00 Y=-1.263631420382D+03 DE=-1.40D-03 F= -2.54D-06
     Reject lnstep minimum 1.710D+00 FVal=-1.263631420400D+03 Lims=  1.00D+00  1.70D+00
     ILin= 4 X=3.100D+00 Y=-1.263630355767D+03 DE=-3.32D-04 F=  1.57D-03
     An  expanding polynomial of degree  4 produced  1.7020
     Minimum is close to point  3 DX=  1.99D-03 DF= -2.04D-09 DXR=  1.17D-03 DFR=  1.46D-06 which will be used.
 Iteration  14 EE= -1263.63142038196     Delta-E=       -0.001396260373 Grad=4.767D-02 Max rot=    0.6553 deg.
 Gradient too large for Newton-Raphson -- use scaled steepest descent instead.
 Alpha Gap=     0.301 HL deriv= 2.99D-15
  Beta Gap=     0.363 HL deriv= 5.48D-03
     ILin= 1 X=0.000D+00 Y=-1.263631420382D+03 DE= 0.00D+00 F= -2.34D-03
     ILin= 2 X=1.000D+00 Y=-1.263631727618D+03 DE=-3.07D-04 F=  1.70D-03
     Accept linear search using points  1 and  2.
     An  expanding polynomial of degree  2 produced  0.5747
 Iteration  15 EE= -1263.63209020200     Delta-E=       -0.000669820040 Grad=1.411D-02 Max rot=    0.3276 deg.
 Gradient too large for Newton-Raphson -- use scaled steepest descent instead.
 Alpha Gap=     0.301 HL deriv= 1.25D-15
  Beta Gap=     0.364 HL deriv= 3.63D-03
     ILin= 1 X=0.000D+00 Y=-1.263632090202D+03 DE= 0.00D+00 F= -4.45D-04
     ILin= 2 X=1.000D+00 Y=-1.263632399647D+03 DE=-3.09D-04 F= -1.71D-04
     Reject lnstep minimum 1.592D+00 FVal=-1.263632450427D+03 Lims=  0.00D+00  1.00D+00
     ILin= 3 X=2.000D+00 Y=-1.263632425777D+03 DE=-3.36D-04 F=  1.21D-04
     Accept linear search using points  2 and  3.
     An  expanding polynomial of degree  3 produced  1.5917
 Iteration  16 EE= -1263.63245042783     Delta-E=       -0.000360225838 Grad=2.495D-02 Max rot=    0.3391 deg.
 Gradient too large for Newton-Raphson -- use scaled steepest descent instead.
 Alpha Gap=     0.301 HL deriv= 7.26D-16
  Beta Gap=     0.366 HL deriv= 2.68D-03
     ILin= 1 X=0.000D+00 Y=-1.263632450428D+03 DE= 0.00D+00 F= -6.24D-04
     ILin= 2 X=1.000D+00 Y=-1.263632547533D+03 DE=-9.71D-05 F=  4.27D-04
     Accept linear search using points  1 and  2.
     An  expanding polynomial of degree  2 produced  0.5918
 Iteration  17 EE= -1263.63263481398     Delta-E=       -0.000184386151 Grad=7.610D-03 Max rot=    0.1778 deg.
 QCNR:  CnvC1=2.87D-09 CnvC2=2.87D-08
 LinEq1:  Iter=  0 NonCon=     1 RMS=5.39D-04 Max=1.26D-02 NDo=     1
 AX will form     1 AO Fock derivatives at one time.
 LinEq1:  Iter=  1 NonCon=     1 RMS=2.08D-04 Max=1.89D-03 NDo=     1
 LinEq1:  Iter=  2 NonCon=     1 RMS=4.40D-05 Max=7.94D-04 NDo=     1
 LinEq1:  Iter=  3 NonCon=     1 RMS=7.95D-06 Max=1.23D-04 NDo=     1
 LinEq1:  Iter=  4 NonCon=     1 RMS=3.02D-06 Max=6.64D-05 NDo=     1
 LinEq1:  Iter=  5 NonCon=     1 RMS=5.21D-07 Max=6.00D-06 NDo=     1
 LinEq1:  Iter=  6 NonCon=     1 RMS=9.02D-08 Max=1.61D-06 NDo=     1
 LinEq1:  Iter=  7 NonCon=     1 RMS=2.01D-08 Max=1.82D-07 NDo=     1
 LinEq1:  Iter=  8 NonCon=     1 RMS=2.94D-09 Max=3.86D-08 NDo=     1
 LinEq1:  Iter=  9 NonCon=     0 RMS=1.23D-09 Max=2.69D-08 NDo=     1
 Linear equations converged to 2.871D-09 2.871D-08 after     9 iterations.
 Angle between quadratic step and gradient=  63.66 degrees.
     ILin= 1 X=0.000D+00 Y=-1.263632634814D+03 DE= 0.00D+00 F= -4.36D-04
     ILin= 2 X=1.000D+00 Y=-1.263632847383D+03 DE=-2.13D-04 F=  1.60D-05
     Accept linear search using points  1 and  2.
     An  expanding polynomial of degree  2 produced  0.9658
     Minimum is close to point  2 DX= -3.42D-02 DF= -2.73D-07 DXR=  3.54D-02 DFR=  1.28D-03 which will be used.
 Iteration  18 EE= -1263.63284738333     Delta-E=       -0.000212569347 Grad=1.617D-03 Max rot=    0.0266 deg.
 QCNR:  CnvC1=2.87D-09 CnvC2=2.87D-08
 LinEq1:  Iter=  0 NonCon=     1 RMS=4.49D-05 Max=4.14D-04 NDo=     1
 LinEq1:  Iter=  1 NonCon=     1 RMS=2.67D-05 Max=4.71D-04 NDo=     1
 LinEq1:  Iter=  2 NonCon=     1 RMS=7.84D-06 Max=7.67D-05 NDo=     1
 LinEq1:  Iter=  3 NonCon=     1 RMS=1.74D-06 Max=2.25D-05 NDo=     1
 LinEq1:  Iter=  4 NonCon=     1 RMS=4.35D-07 Max=1.01D-05 NDo=     1
 LinEq1:  Iter=  5 NonCon=     1 RMS=1.17D-07 Max=1.35D-06 NDo=     1
 LinEq1:  Iter=  6 NonCon=     1 RMS=2.21D-08 Max=3.56D-07 NDo=     1
 LinEq1:  Iter=  7 NonCon=     1 RMS=6.22D-09 Max=7.92D-08 NDo=     1
 LinEq1:  Iter=  8 NonCon=     0 RMS=7.50D-10 Max=7.30D-09 NDo=     1
 Linear equations converged to 2.871D-09 2.871D-08 after     8 iterations.
 Angle between quadratic step and gradient=  78.40 degrees.
     ILin= 1 X=0.000D+00 Y=-1.263632847383D+03 DE= 0.00D+00 F= -2.00D-06
     ILin= 2 X=1.000D+00 Y=-1.263632848383D+03 DE=-9.99D-07 F=  3.31D-09
     Accept linear search using points  1 and  2.
     An  expanding polynomial of degree  2 produced  0.9983
     Minimum is close to point  2 DX= -1.65D-03 DF= -2.73D-12 DXR=  1.66D-03 DFR=  2.73D-06 which will be used.
 Iteration  19 EE= -1263.63284838254     Delta-E=       -0.000000999212 Grad=1.076D-04 Max rot=    0.0016 deg.
 QCNR:  CnvC1=1.08D-09 CnvC2=1.08D-08
 LinEq1:  Iter=  0 NonCon=     1 RMS=9.53D-07 Max=9.61D-06 NDo=     1
 LinEq1:  Iter=  1 NonCon=     1 RMS=3.78D-07 Max=6.87D-06 NDo=     1
 LinEq1:  Iter=  2 NonCon=     1 RMS=3.14D-07 Max=4.04D-06 NDo=     1
 LinEq1:  Iter=  3 NonCon=     1 RMS=1.05D-07 Max=1.02D-06 NDo=     1
 LinEq1:  Iter=  4 NonCon=     1 RMS=2.52D-08 Max=3.46D-07 NDo=     1
 LinEq1:  Iter=  5 NonCon=     1 RMS=9.19D-09 Max=9.74D-08 NDo=     1
 LinEq1:  Iter=  6 NonCon=     1 RMS=1.61D-09 Max=1.48D-08 NDo=     1
 LinEq1:  Iter=  7 NonCon=     0 RMS=2.95D-10 Max=5.93D-09 NDo=     1
 Linear equations converged to 1.076D-09 1.076D-08 after     7 iterations.
 Angle between quadratic step and gradient=  89.96 degrees.
     ILin= 1 X=0.000D+00 Y=-1.263632848383D+03 DE= 0.00D+00 F= -3.04D-10
     ILin= 2 X=1.000D+00 Y=-1.263632848382D+03 DE= 7.25D-10 F=  1.76D-09
 QCLLim returned failure.
     ILin= 3 X=2.000D+00 Y=-1.263632848379D+03 DE= 3.52D-09 F=  3.84D-09
 QCLLim is confused:  Bigger=T Turned=T
 NLin=  3 IMin12=  1  2 I12=  0  2 IX=  1 XLMin= 0.000D+00 XLMax= 0.000D+00
 X = 0.000D+00 1.000D+00 2.000D+00
 DE= 0.000D+00 7.251D-10 3.525D-09
     An  expanding polynomial of degree  3 produced  0.1506
 Iteration  20 EE= -1263.63284838257     Delta-E=       -0.000000000023 Grad=9.603D-05 Max rot=    0.0015 deg.
 QCNR:  CnvC1=9.60D-10 CnvC2=9.60D-09
 LinEq1:  Iter=  0 NonCon=     1 RMS=8.41D-07 Max=7.52D-06 NDo=     1
 LinEq1:  Iter=  1 NonCon=     1 RMS=3.13D-07 Max=6.69D-06 NDo=     1
 LinEq1:  Iter=  2 NonCon=     1 RMS=2.20D-07 Max=2.42D-06 NDo=     1
 LinEq1:  Iter=  3 NonCon=     1 RMS=9.44D-08 Max=8.30D-07 NDo=     1
 LinEq1:  Iter=  4 NonCon=     1 RMS=2.19D-08 Max=3.18D-07 NDo=     1
 LinEq1:  Iter=  5 NonCon=     1 RMS=7.83D-09 Max=8.43D-08 NDo=     1
 LinEq1:  Iter=  6 NonCon=     1 RMS=1.32D-09 Max=1.36D-08 NDo=     1
 LinEq1:  Iter=  7 NonCon=     0 RMS=1.65D-10 Max=2.70D-09 NDo=     1
 Linear equations converged to 9.603D-10 9.603D-09 after     7 iterations.
 Angle between quadratic step and gradient=  89.43 degrees.
     ILin= 1 X=0.000D+00 Y=-1.263632848383D+03 DE= 0.00D+00 F= -1.54D-09
     ILin= 2 X=1.000D+00 Y=-1.263632848383D+03 DE=-6.27D-10
 Iteration  21 EE= -1263.63284838319     Delta-E=       -0.000000000627 Grad=1.854D-05 Max rot=    0.0003 deg.
 QCNR:  CnvC1=1.85D-10 CnvC2=1.85D-09
 LinEq1:  Iter=  0 NonCon=     1 RMS=3.40D-07 Max=5.56D-06 NDo=     1
 LinEq1:  Iter=  1 NonCon=     1 RMS=1.63D-07 Max=1.85D-06 NDo=     1
 LinEq1:  Iter=  2 NonCon=     1 RMS=1.72D-07 Max=2.13D-06 NDo=     1
 LinEq1:  Iter=  3 NonCon=     1 RMS=5.88D-08 Max=8.31D-07 NDo=     1
 LinEq1:  Iter=  4 NonCon=     1 RMS=1.87D-08 Max=2.74D-07 NDo=     1
 LinEq1:  Iter=  5 NonCon=     1 RMS=2.74D-09 Max=3.00D-08 NDo=     1
 LinEq1:  Iter=  6 NonCon=     1 RMS=3.48D-10 Max=4.37D-09 NDo=     1
 LinEq1:  Iter=  7 NonCon=     0 RMS=1.35D-10 Max=1.68D-09 NDo=     1
 Linear equations converged to 1.854D-10 1.854D-09 after     7 iterations.
 Angle between quadratic step and gradient=  93.15 degrees.
 Incorrect curvature in search direction -- initial direction reversed.
     ILin= 1 X=0.000D+00 Y=-1.263632848383D+03 DE= 0.00D+00 F= -7.65D-10
     ILin= 2 X=1.000D+00 Y=-1.263632848384D+03 DE=-1.13D-09 F= -1.50D-09
     ILin= 3 X=2.000D+00 Y=-1.263632848386D+03 DE=-3.00D-09 F= -2.24D-09
     ILin= 4 X=4.000D+00 Y=-1.263632848392D+03 DE=-8.94D-09 F= -3.71D-09
     ILin= 5 X=8.000D+00 Y=-1.263632848413D+03 DE=-2.97D-08 F= -6.66D-09
     ILin= 6 X=1.600D+01 Y=-1.263632848490D+03 DE=-1.07D-07 F= -1.26D-08
     ILin= 7 X=3.200D+01 Y=-1.263632848785D+03 DE=-4.02D-07 F= -2.44D-08
     ILin= 8 X=6.400D+01 Y=-1.263632849943D+03 DE=-1.56D-06 F= -4.79D-08
     ILin= 9 X=1.280D+02 Y=-1.263632854482D+03 DE=-6.10D-06 F= -9.35D-08
     ILin=10 X=2.560D+02 Y=-1.263632871584D+03 DE=-2.32D-05 F= -1.69D-07
     ILin=11 X=5.120D+02 Y=-1.263632922530D+03 DE=-7.41D-05 F= -1.93D-07
     ILin=12 X=1.024D+03 Y=-1.263632868986D+03 DE=-2.06D-05 F=  6.09D-07
     No minimum found in polynomial.
     ILin=13 X=2.048D+03 Y=-1.263630441016D+03 DE= 2.41D-03 F=  4.19D-06
     No minimum found in polynomial.
     ILin=14 X=4.096D+03 Y=-1.263614862263D+03 DE= 1.80D-02 F=  1.16D-05
     Reject polynomial minimum 3.271D+01 FVal=-1.263632848632D+03 Lims=  2.56D+02  1.02D+03
     Note:  rotation exceeds Pi/2.
     ILin=15 X=8.192D+03 Y=-1.263575212518D+03 DE= 5.76D-02 F=  2.01D-06
     Reject polynomial minimum 3.238D+01 FVal=-1.263632848630D+03 Lims=  2.56D+02  1.02D+03
     Note:  rotation exceeds Pi/2.
     ILin=16 X=1.638D+04 Y=-1.263404208328D+03 DE= 2.29D-01 F=  5.33D-06
     No minimum found in polynomial.
 The polynomial fit failed.  Using point 11.
     An  expanding polynomial of degree 16 produced512.0000
     Minimum is close to point 11 DX=  0.00D+00 DF=  0.00D+00 DXR=  0.00D+00 DFR=  0.00D+00 which will be used.
 Iteration  22 EE= -1263.63292253018     Delta-E=       -0.000074146984 Grad=1.104D-02 Max rot=    0.1945 deg.
 Gradient too large for Newton-Raphson -- use scaled steepest descent instead.
 Alpha Gap=     0.297 HL deriv= 1.57D-16
  Beta Gap=     0.224 HL deriv= 2.32D-03
     ILin= 1 X=0.000D+00 Y=-1.263632922530D+03 DE= 0.00D+00 F= -6.62D-05
     ILin= 2 X=1.000D+00 Y=-1.263632956261D+03 DE=-3.37D-05 F= -1.29D-06
     Reject lnstep minimum 1.020D+00 FVal=-1.263632956274D+03 Lims=  0.00D+00  1.00D+00
     ILin= 3 X=1.900D+00 Y=-1.263632931165D+03 DE=-8.63D-06 F=  5.71D-05
     An  expanding polynomial of degree  3 produced  1.0201
     Minimum is close to point  2 DX=  2.01D-02 DF= -1.31D-08 DXR=  1.97D-02 DFR=  3.87D-04 which will be used.
 Iteration  23 EE= -1263.63295626098     Delta-E=       -0.000033730807 Grad=3.879D-03 Max rot=    0.0589 deg.
 QCNR:  CnvC1=2.87D-09 CnvC2=2.87D-08
 LinEq1:  Iter=  0 NonCon=     1 RMS=1.24D-04 Max=2.02D-03 NDo=     1
 LinEq1:  Iter=  1 NonCon=     1 RMS=1.10D-04 Max=1.18D-03 NDo=     1
 LinEq1:  Iter=  2 NonCon=     1 RMS=3.17D-05 Max=6.21D-04 NDo=     1
 LinEq1:  Iter=  3 NonCon=     1 RMS=1.05D-05 Max=1.36D-04 NDo=     1
 LinEq1:  Iter=  4 NonCon=     1 RMS=1.46D-06 Max=1.60D-05 NDo=     1
 LinEq1:  Iter=  5 NonCon=     1 RMS=3.16D-07 Max=5.16D-06 NDo=     1
 LinEq1:  Iter=  6 NonCon=     1 RMS=9.19D-08 Max=1.11D-06 NDo=     1
 LinEq1:  Iter=  7 NonCon=     1 RMS=1.02D-08 Max=1.17D-07 NDo=     1
 LinEq1:  Iter=  8 NonCon=     0 RMS=1.16D-09 Max=1.21D-08 NDo=     1
 Linear equations converged to 2.871D-09 2.871D-08 after     8 iterations.
 Angle between quadratic step and gradient=  98.31 degrees.
 Incorrect curvature in search direction -- initial direction reversed.
     ILin= 1 X=0.000D+00 Y=-1.263632956261D+03 DE= 0.00D+00 F= -4.70D-04
     ILin= 2 X=1.000D+00 Y=-1.263632870183D+03 DE= 8.61D-05 F=  1.32D-03
     Reject lnstep minimum 5.501D-01 FVal=-1.263633125697D+03 Lims=  0.00D+00  1.00D+00
     ILin= 3 X=6.000D-01 Y=-1.263633150437D+03 DE=-1.94D-04 F=  1.30D-04
     A contracting polynomial of degree  3 produced  0.4580
 Iteration  24 EE= -1263.63314599265     Delta-E=       -0.000189731661 Grad=8.292D-03 Max rot=    0.1330 deg.
 QCNR:  CnvC1=2.87D-09 CnvC2=2.87D-08
 LinEq1:  Iter=  0 NonCon=     1 RMS=2.42D-04 Max=5.18D-03 NDo=     1
 LinEq1:  Iter=  1 NonCon=     1 RMS=1.63D-04 Max=1.86D-03 NDo=     1
 LinEq1:  Iter=  2 NonCon=     1 RMS=6.57D-05 Max=8.45D-04 NDo=     1
 LinEq1:  Iter=  3 NonCon=     1 RMS=1.88D-05 Max=3.97D-04 NDo=     1
 LinEq1:  Iter=  4 NonCon=     1 RMS=5.85D-06 Max=6.56D-05 NDo=     1
 LinEq1:  Iter=  5 NonCon=     1 RMS=5.88D-07 Max=6.06D-06 NDo=     1
 LinEq1:  Iter=  6 NonCon=     1 RMS=1.61D-07 Max=2.97D-06 NDo=     1
 LinEq1:  Iter=  7 NonCon=     1 RMS=3.03D-08 Max=3.09D-07 NDo=     1
 LinEq1:  Iter=  8 NonCon=     1 RMS=4.43D-09 Max=6.39D-08 NDo=     1
 LinEq1:  Iter=  9 NonCon=     0 RMS=7.98D-10 Max=1.25D-08 NDo=     1
 Linear equations converged to 2.871D-09 2.871D-08 after     9 iterations.
 Angle between quadratic step and gradient=  84.64 degrees.
     ILin= 1 X=0.000D+00 Y=-1.263633145993D+03 DE= 0.00D+00 F= -2.35D-04
     ILin= 2 X=1.000D+00 Y=-1.263633267928D+03 DE=-1.22D-04 F= -8.67D-06
     Reject lnstep minimum 1.038D+00 FVal=-1.263633268093D+03 Lims=  0.00D+00  1.00D+00
     ILin= 3 X=1.500D+00 Y=-1.263633241070D+03 DE=-9.51D-05 F=  1.20D-04
     An  expanding polynomial of degree  3 produced  1.0206
     Minimum is close to point  2 DX=  2.06D-02 DF= -4.99D-08 DXR=  2.02D-02 DFR=  4.09D-04 which will be used.
 Iteration  25 EE= -1263.63326792764     Delta-E=       -0.000121934990 Grad=3.872D-03 Max rot=    0.0940 deg.
 QCNR:  CnvC1=2.87D-09 CnvC2=2.87D-08
 LinEq1:  Iter=  0 NonCon=     1 RMS=6.34D-05 Max=7.39D-04 NDo=     1
 LinEq1:  Iter=  1 NonCon=     1 RMS=3.53D-05 Max=4.45D-04 NDo=     1
 LinEq1:  Iter=  2 NonCon=     1 RMS=1.85D-05 Max=3.57D-04 NDo=     1
 LinEq1:  Iter=  3 NonCon=     1 RMS=4.62D-06 Max=4.23D-05 NDo=     1
 LinEq1:  Iter=  4 NonCon=     1 RMS=1.40D-06 Max=3.27D-05 NDo=     1
 LinEq1:  Iter=  5 NonCon=     1 RMS=3.52D-07 Max=4.28D-06 NDo=     1
 LinEq1:  Iter=  6 NonCon=     1 RMS=5.51D-08 Max=6.41D-07 NDo=     1
 LinEq1:  Iter=  7 NonCon=     1 RMS=5.20D-09 Max=6.50D-08 NDo=     1
 LinEq1:  Iter=  8 NonCon=     0 RMS=7.60D-10 Max=1.08D-08 NDo=     1
 Linear equations converged to 2.871D-09 2.871D-08 after     8 iterations.
 Angle between quadratic step and gradient=  84.96 degrees.
     ILin= 1 X=0.000D+00 Y=-1.263633267928D+03 DE= 0.00D+00 F= -1.00D-05
     ILin= 2 X=1.000D+00 Y=-1.263633273002D+03 DE=-5.07D-06 F= -2.00D-07
     Reject lnstep minimum 1.021D+00 FVal=-1.263633273004D+03 Lims=  0.00D+00  1.00D+00
     ILin= 3 X=2.000D+00 Y=-1.263633268465D+03 DE=-5.38D-07 F=  9.21D-06
     An  expanding polynomial of degree  3 produced  1.0280
     Minimum is close to point  2 DX=  2.80D-02 DF= -3.76D-09 DXR=  2.72D-02 DFR=  7.41D-04 which will be used.
 Iteration  26 EE= -1263.63327300237     Delta-E=       -0.000005074736 Grad=5.830D-05 Max rot=    0.0011 deg.
 QCNR:  CnvC1=5.83D-10 CnvC2=5.83D-09
 LinEq1:  Iter=  0 NonCon=     1 RMS=1.02D-06 Max=1.35D-05 NDo=     1
 LinEq1:  Iter=  1 NonCon=     1 RMS=4.75D-07 Max=6.19D-06 NDo=     1
 LinEq1:  Iter=  2 NonCon=     1 RMS=3.40D-07 Max=4.01D-06 NDo=     1
 LinEq1:  Iter=  3 NonCon=     1 RMS=1.41D-07 Max=2.37D-06 NDo=     1
 LinEq1:  Iter=  4 NonCon=     1 RMS=3.89D-08 Max=3.83D-07 NDo=     1
 LinEq1:  Iter=  5 NonCon=     1 RMS=5.63D-09 Max=6.62D-08 NDo=     1
 LinEq1:  Iter=  6 NonCon=     1 RMS=7.81D-10 Max=7.72D-09 NDo=     1
 LinEq1:  Iter=  7 NonCon=     0 RMS=1.69D-10 Max=2.64D-09 NDo=     1
 Linear equations converged to 5.830D-10 5.830D-09 after     7 iterations.
 Angle between quadratic step and gradient=  85.17 degrees.
     ILin= 1 X=0.000D+00 Y=-1.263633273002D+03 DE= 0.00D+00 F= -1.37D-08
     ILin= 2 X=1.000D+00 Y=-1.263633273009D+03 DE=-6.82D-09
 Iteration  27 EE= -1263.63327300919     Delta-E=       -0.000000006822 Grad=5.020D-06 Max rot=    0.0001 deg.
 QCNR:  CnvC1=5.02D-11 CnvC2=5.02D-10
 LinEq1:  Iter=  0 NonCon=     1 RMS=9.53D-08 Max=1.47D-06 NDo=     1
 LinEq1:  Iter=  1 NonCon=     1 RMS=3.48D-08 Max=5.50D-07 NDo=     1
 LinEq1:  Iter=  2 NonCon=     1 RMS=1.01D-08 Max=1.31D-07 NDo=     1
 LinEq1:  Iter=  3 NonCon=     1 RMS=4.08D-09 Max=4.99D-08 NDo=     1
 LinEq1:  Iter=  4 NonCon=     1 RMS=2.84D-09 Max=2.92D-08 NDo=     1
 LinEq1:  Iter=  5 NonCon=     1 RMS=5.29D-10 Max=7.19D-09 NDo=     1
 LinEq1:  Iter=  6 NonCon=     1 RMS=6.44D-11 Max=5.69D-10 NDo=     1
 LinEq1:  Iter=  7 NonCon=     0 RMS=2.23D-11 Max=3.83D-10 NDo=     1
 Linear equations converged to 5.020D-11 5.020D-10 after     7 iterations.
 Angle between quadratic step and gradient=  82.85 degrees.
     ILin= 1 X=0.000D+00 Y=-1.263633273009D+03 DE= 0.00D+00 F= -7.11D-09
     ILin= 2 X=1.000D+00 Y=-1.263633273013D+03 DE=-3.99D-09
 Iteration  28 EE= -1263.63327301318     Delta-E=       -0.000000003985 Grad=2.009D-05 Max rot=    0.0005 deg.
 QCNR:  CnvC1=2.01D-10 CnvC2=2.01D-09
 LinEq1:  Iter=  0 NonCon=     1 RMS=3.76D-07 Max=5.97D-06 NDo=     1
 LinEq1:  Iter=  1 NonCon=     1 RMS=1.54D-07 Max=1.72D-06 NDo=     1
 LinEq1:  Iter=  2 NonCon=     1 RMS=1.26D-07 Max=9.37D-07 NDo=     1
 LinEq1:  Iter=  3 NonCon=     1 RMS=4.59D-08 Max=6.25D-07 NDo=     1
 LinEq1:  Iter=  4 NonCon=     1 RMS=1.19D-08 Max=1.41D-07 NDo=     1
 LinEq1:  Iter=  5 NonCon=     1 RMS=1.98D-09 Max=3.09D-08 NDo=     1
 LinEq1:  Iter=  6 NonCon=     1 RMS=2.44D-10 Max=3.51D-09 NDo=     1
 LinEq1:  Iter=  7 NonCon=     1 RMS=9.95D-11 Max=2.08D-09 NDo=     1
 LinEq1:  Iter=  8 NonCon=     0 RMS=1.37D-11 Max=1.81D-10 NDo=     1
 Linear equations converged to 2.009D-10 2.009D-09 after     8 iterations.
 Angle between quadratic step and gradient=  81.51 degrees.
     ILin= 1 X=0.000D+00 Y=-1.263633273013D+03 DE= 0.00D+00 F= -6.02D-09
     ILin= 2 X=1.000D+00 Y=-1.263633273016D+03 DE=-2.90D-09
 Iteration  29 EE= -1263.63327301608     Delta-E=       -0.000000002900 Grad=1.606D-05 Max rot=    0.0004 deg.
 QCNR:  CnvC1=1.61D-10 CnvC2=1.61D-09
 LinEq1:  Iter=  0 NonCon=     1 RMS=2.17D-07 Max=2.67D-06 NDo=     1
 LinEq1:  Iter=  1 NonCon=     1 RMS=7.12D-08 Max=9.54D-07 NDo=     1
 LinEq1:  Iter=  2 NonCon=     1 RMS=4.98D-08 Max=4.59D-07 NDo=     1
 LinEq1:  Iter=  3 NonCon=     1 RMS=2.77D-08 Max=4.52D-07 NDo=     1
 LinEq1:  Iter=  4 NonCon=     1 RMS=1.01D-08 Max=1.21D-07 NDo=     1
 LinEq1:  Iter=  5 NonCon=     1 RMS=2.01D-09 Max=2.45D-08 NDo=     1
 LinEq1:  Iter=  6 NonCon=     1 RMS=2.79D-10 Max=3.85D-09 NDo=     1
 LinEq1:  Iter=  7 NonCon=     0 RMS=5.24D-11 Max=8.41D-10 NDo=     1
 Linear equations converged to 1.606D-10 1.606D-09 after     7 iterations.
 Angle between quadratic step and gradient=  87.67 degrees.
     ILin= 1 X=0.000D+00 Y=-1.263633273016D+03 DE= 0.00D+00 F= -2.27D-09
     ILin= 2 X=1.000D+00 Y=-1.263633273017D+03 DE=-1.14D-09
 Iteration  30 EE= -1263.63327301722     Delta-E=       -0.000000001136 Grad=1.484D-05 Max rot=    0.0003 deg.
 QCNR:  CnvC1=1.48D-10 CnvC2=1.48D-09
 LinEq1:  Iter=  0 NonCon=     1 RMS=2.58D-07 Max=4.15D-06 NDo=     1
 LinEq1:  Iter=  1 NonCon=     1 RMS=1.18D-07 Max=1.54D-06 NDo=     1
 LinEq1:  Iter=  2 NonCon=     1 RMS=1.08D-07 Max=9.17D-07 NDo=     1
 LinEq1:  Iter=  3 NonCon=     1 RMS=3.92D-08 Max=6.36D-07 NDo=     1
 LinEq1:  Iter=  4 NonCon=     1 RMS=1.01D-08 Max=1.16D-07 NDo=     1
 LinEq1:  Iter=  5 NonCon=     1 RMS=1.58D-09 Max=2.71D-08 NDo=     1
 LinEq1:  Iter=  6 NonCon=     1 RMS=2.09D-10 Max=3.13D-09 NDo=     1
 LinEq1:  Iter=  7 NonCon=     1 RMS=8.76D-11 Max=1.61D-09 NDo=     1
 LinEq1:  Iter=  8 NonCon=     0 RMS=1.44D-11 Max=2.02D-10 NDo=     1
 Linear equations converged to 1.484D-10 1.484D-09 after     8 iterations.
 Angle between quadratic step and gradient=  83.33 degrees.
     ILin= 1 X=0.000D+00 Y=-1.263633273017D+03 DE= 0.00D+00 F= -2.19D-09
     ILin= 2 X=1.000D+00 Y=-1.263633273018D+03 DE=-1.04D-09
 Iteration  31 EE= -1263.63327301826     Delta-E=       -0.000000001040 Grad=1.497D-05 Max rot=    0.0002 deg.
 QCNR:  CnvC1=1.50D-10 CnvC2=1.50D-09
 LinEq1:  Iter=  0 NonCon=     1 RMS=1.84D-07 Max=2.23D-06 NDo=     1
 LinEq1:  Iter=  1 NonCon=     1 RMS=6.50D-08 Max=7.52D-07 NDo=     1
 LinEq1:  Iter=  2 NonCon=     1 RMS=5.15D-08 Max=4.48D-07 NDo=     1
 LinEq1:  Iter=  3 NonCon=     1 RMS=2.61D-08 Max=3.57D-07 NDo=     1
 LinEq1:  Iter=  4 NonCon=     1 RMS=9.61D-09 Max=1.04D-07 NDo=     1
 LinEq1:  Iter=  5 NonCon=     1 RMS=1.27D-09 Max=1.48D-08 NDo=     1
 LinEq1:  Iter=  6 NonCon=     1 RMS=1.52D-10 Max=1.53D-09 NDo=     1
 LinEq1:  Iter=  7 NonCon=     0 RMS=5.69D-11 Max=6.48D-10 NDo=     1
 Linear equations converged to 1.497D-10 1.497D-09 after     7 iterations.
 Angle between quadratic step and gradient=  87.40 degrees.
     ILin= 1 X=0.000D+00 Y=-1.263633273018D+03 DE= 0.00D+00 F= -1.36D-09
     ILin= 2 X=1.000D+00 Y=-1.263633273019D+03 DE=-6.97D-10
 Iteration  32 EE= -1263.63327301895     Delta-E=       -0.000000000697 Grad=1.058D-05 Max rot=    0.0002 deg.
 QCNR:  CnvC1=1.06D-10 CnvC2=1.06D-09
 LinEq1:  Iter=  0 NonCon=     1 RMS=1.82D-07 Max=2.08D-06 NDo=     1
 LinEq1:  Iter=  1 NonCon=     1 RMS=8.85D-08 Max=1.17D-06 NDo=     1
 LinEq1:  Iter=  2 NonCon=     1 RMS=7.74D-08 Max=6.37D-07 NDo=     1
 LinEq1:  Iter=  3 NonCon=     1 RMS=2.34D-08 Max=3.18D-07 NDo=     1
 LinEq1:  Iter=  4 NonCon=     1 RMS=6.31D-09 Max=7.90D-08 NDo=     1
 LinEq1:  Iter=  5 NonCon=     1 RMS=1.05D-09 Max=1.13D-08 NDo=     1
 LinEq1:  Iter=  6 NonCon=     1 RMS=1.49D-10 Max=2.66D-09 NDo=     1
 LinEq1:  Iter=  7 NonCon=     0 RMS=6.15D-11 Max=8.53D-10 NDo=     1
 Linear equations converged to 1.058D-10 1.058D-09 after     7 iterations.
 Angle between quadratic step and gradient=  83.13 degrees.
     ILin= 1 X=0.000D+00 Y=-1.263633273019D+03 DE= 0.00D+00 F= -1.21D-09
     ILin= 2 X=1.000D+00 Y=-1.263633273020D+03 DE=-6.07D-10
 Iteration  33 EE= -1263.63327301956     Delta-E=       -0.000000000607 Grad=1.403D-05 Max rot=    0.0003 deg.
 QCNR:  CnvC1=1.40D-10 CnvC2=1.40D-09
 LinEq1:  Iter=  0 NonCon=     1 RMS=9.42D-08 Max=1.32D-06 NDo=     1
 LinEq1:  Iter=  1 NonCon=     1 RMS=4.61D-08 Max=7.79D-07 NDo=     1
 LinEq1:  Iter=  2 NonCon=     1 RMS=4.08D-08 Max=3.81D-07 NDo=     1
 LinEq1:  Iter=  3 NonCon=     1 RMS=1.44D-08 Max=1.75D-07 NDo=     1
 LinEq1:  Iter=  4 NonCon=     1 RMS=2.67D-09 Max=3.55D-08 NDo=     1
 LinEq1:  Iter=  5 NonCon=     1 RMS=7.91D-10 Max=9.78D-09 NDo=     1
 LinEq1:  Iter=  6 NonCon=     1 RMS=1.32D-10 Max=1.86D-09 NDo=     1
 LinEq1:  Iter=  7 NonCon=     0 RMS=4.12D-11 Max=7.31D-10 NDo=     1
 Linear equations converged to 1.403D-10 1.403D-09 after     7 iterations.
 Angle between quadratic step and gradient=  87.45 degrees.
     ILin= 1 X=0.000D+00 Y=-1.263633273020D+03 DE= 0.00D+00 F= -1.48D-09
     ILin= 2 X=1.000D+00 Y=-1.263633273020D+03 DE=-7.72D-10
 Iteration  34 EE= -1263.63327302033     Delta-E=       -0.000000000772 Grad=5.986D-06 Max rot=    0.0001 deg.
 QCNR:  CnvC1=5.99D-11 CnvC2=5.99D-10
 LinEq1:  Iter=  0 NonCon=     1 RMS=1.46D-07 Max=2.58D-06 NDo=     1
 LinEq1:  Iter=  1 NonCon=     1 RMS=5.92D-08 Max=7.03D-07 NDo=     1
 LinEq1:  Iter=  2 NonCon=     1 RMS=3.44D-08 Max=2.84D-07 NDo=     1
 LinEq1:  Iter=  3 NonCon=     1 RMS=1.11D-08 Max=1.59D-07 NDo=     1
 LinEq1:  Iter=  4 NonCon=     1 RMS=3.05D-09 Max=6.43D-08 NDo=     1
 LinEq1:  Iter=  5 NonCon=     1 RMS=5.97D-10 Max=5.90D-09 NDo=     1
 LinEq1:  Iter=  6 NonCon=     1 RMS=1.17D-10 Max=2.45D-09 NDo=     1
 LinEq1:  Iter=  7 NonCon=     0 RMS=3.69D-11 Max=3.12D-10 NDo=     1
 Linear equations converged to 5.986D-11 5.986D-10 after     7 iterations.
 Angle between quadratic step and gradient=  76.91 degrees.
     ILin= 1 X=0.000D+00 Y=-1.263633273020D+03 DE= 0.00D+00 F= -1.38D-09
     ILin= 2 X=1.000D+00 Y=-1.263633273021D+03 DE=-6.64D-10
 Iteration  35 EE= -1263.63327302100     Delta-E=       -0.000000000664 Grad=2.692D-05 Max rot=    0.0005 deg.
 QCNR:  CnvC1=2.69D-10 CnvC2=2.69D-09
 LinEq1:  Iter=  0 NonCon=     1 RMS=1.53D-07 Max=1.34D-06 NDo=     1
 LinEq1:  Iter=  1 NonCon=     1 RMS=6.70D-08 Max=1.07D-06 NDo=     1
 LinEq1:  Iter=  2 NonCon=     1 RMS=7.24D-08 Max=1.11D-06 NDo=     1
 LinEq1:  Iter=  3 NonCon=     1 RMS=2.11D-08 Max=2.07D-07 NDo=     1
 LinEq1:  Iter=  4 NonCon=     1 RMS=4.40D-09 Max=7.80D-08 NDo=     1
 LinEq1:  Iter=  5 NonCon=     1 RMS=1.23D-09 Max=1.87D-08 NDo=     1
 LinEq1:  Iter=  6 NonCon=     1 RMS=2.29D-10 Max=3.46D-09 NDo=     1
 LinEq1:  Iter=  7 NonCon=     0 RMS=4.24D-11 Max=8.70D-10 NDo=     1
 Linear equations converged to 2.692D-10 2.692D-09 after     7 iterations.
 Angle between quadratic step and gradient=  88.66 degrees.
     ILin= 1 X=0.000D+00 Y=-1.263633273021D+03 DE= 0.00D+00 F= -1.75D-09
     ILin= 2 X=1.000D+00 Y=-1.263633273022D+03 DE=-9.39D-10
 Iteration  36 EE= -1263.63327302194     Delta-E=       -0.000000000939 Grad=6.994D-06 Max rot=    0.0001 deg.
 QCNR:  CnvC1=6.99D-11 CnvC2=6.99D-10
 LinEq1:  Iter=  0 NonCon=     1 RMS=1.46D-07 Max=2.97D-06 NDo=     1
 LinEq1:  Iter=  1 NonCon=     1 RMS=4.26D-08 Max=3.82D-07 NDo=     1
 LinEq1:  Iter=  2 NonCon=     1 RMS=2.39D-08 Max=2.11D-07 NDo=     1
 LinEq1:  Iter=  3 NonCon=     1 RMS=8.47D-09 Max=1.40D-07 NDo=     1
 LinEq1:  Iter=  4 NonCon=     1 RMS=2.35D-09 Max=4.72D-08 NDo=     1
 LinEq1:  Iter=  5 NonCon=     1 RMS=3.90D-10 Max=4.19D-09 NDo=     1
 LinEq1:  Iter=  6 NonCon=     1 RMS=1.07D-10 Max=2.15D-09 NDo=     1
 LinEq1:  Iter=  7 NonCon=     0 RMS=2.77D-11 Max=3.86D-10 NDo=     1
 Linear equations converged to 6.994D-11 6.994D-10 after     7 iterations.
 Angle between quadratic step and gradient=  78.09 degrees.
     ILin= 1 X=0.000D+00 Y=-1.263633273022D+03 DE= 0.00D+00 F= -1.60D-09
     ILin= 2 X=1.000D+00 Y=-1.263633273023D+03 DE=-7.39D-10
 Iteration  37 EE= -1263.63327302268     Delta-E=       -0.000000000739 Grad=1.729D-05 Max rot=    0.0005 deg.
 QCNR:  CnvC1=1.73D-10 CnvC2=1.73D-09
 LinEq1:  Iter=  0 NonCon=     1 RMS=1.78D-07 Max=2.48D-06 NDo=     1
 LinEq1:  Iter=  1 NonCon=     1 RMS=7.80D-08 Max=9.97D-07 NDo=     1
 LinEq1:  Iter=  2 NonCon=     1 RMS=7.80D-08 Max=1.32D-06 NDo=     1
 LinEq1:  Iter=  3 NonCon=     1 RMS=2.76D-08 Max=3.70D-07 NDo=     1
 LinEq1:  Iter=  4 NonCon=     1 RMS=4.64D-09 Max=7.48D-08 NDo=     1
 LinEq1:  Iter=  5 NonCon=     1 RMS=1.24D-09 Max=2.06D-08 NDo=     1
 LinEq1:  Iter=  6 NonCon=     1 RMS=2.29D-10 Max=1.72D-09 NDo=     1
 LinEq1:  Iter=  7 NonCon=     0 RMS=4.59D-11 Max=7.61D-10 NDo=     1
 Linear equations converged to 1.729D-10 1.729D-09 after     7 iterations.
 Angle between quadratic step and gradient=  87.81 degrees.
     ILin= 1 X=0.000D+00 Y=-1.263633273023D+03 DE= 0.00D+00 F= -1.48D-09
     ILin= 2 X=1.000D+00 Y=-1.263633273023D+03 DE=-7.57D-10
 Iteration  38 EE= -1263.63327302343     Delta-E=       -0.000000000757 Grad=1.004D-05 Max rot=    0.0002 deg.
 QCNR:  CnvC1=1.00D-10 CnvC2=1.00D-09
 LinEq1:  Iter=  0 NonCon=     1 RMS=1.44D-07 Max=2.40D-06 NDo=     1
 LinEq1:  Iter=  1 NonCon=     1 RMS=6.09D-08 Max=7.18D-07 NDo=     1
 LinEq1:  Iter=  2 NonCon=     1 RMS=5.60D-08 Max=5.97D-07 NDo=     1
 LinEq1:  Iter=  3 NonCon=     1 RMS=1.67D-08 Max=2.21D-07 NDo=     1
 LinEq1:  Iter=  4 NonCon=     1 RMS=3.39D-09 Max=7.14D-08 NDo=     1
 LinEq1:  Iter=  5 NonCon=     1 RMS=8.96D-10 Max=1.15D-08 NDo=     1
 LinEq1:  Iter=  6 NonCon=     1 RMS=1.62D-10 Max=2.56D-09 NDo=     1
 LinEq1:  Iter=  7 NonCon=     1 RMS=6.65D-11 Max=1.06D-09 NDo=     1
 LinEq1:  Iter=  8 NonCon=     0 RMS=9.25D-12 Max=1.29D-10 NDo=     1
 Linear equations converged to 1.004D-10 1.004D-09 after     8 iterations.
 Angle between quadratic step and gradient=  82.82 degrees.
     ILin= 1 X=0.000D+00 Y=-1.263633273023D+03 DE= 0.00D+00 F= -1.20D-09
     ILin= 2 X=1.000D+00 Y=-1.263633273024D+03 DE=-5.71D-10
 Iteration  39 EE= -1263.63327302400     Delta-E=       -0.000000000571 Grad=4.421D-05 Max rot=    0.0012 deg.
 QCNR:  CnvC1=4.42D-10 CnvC2=4.42D-09
 LinEq1:  Iter=  0 NonCon=     1 RMS=3.93D-07 Max=5.48D-06 NDo=     1
 LinEq1:  Iter=  1 NonCon=     1 RMS=1.14D-07 Max=1.52D-06 NDo=     1
 LinEq1:  Iter=  2 NonCon=     1 RMS=9.08D-08 Max=1.29D-06 NDo=     1
 LinEq1:  Iter=  3 NonCon=     1 RMS=4.55D-08 Max=8.39D-07 NDo=     1
 LinEq1:  Iter=  4 NonCon=     1 RMS=9.70D-09 Max=9.66D-08 NDo=     1
 LinEq1:  Iter=  5 NonCon=     1 RMS=2.24D-09 Max=3.05D-08 NDo=     1
 LinEq1:  Iter=  6 NonCon=     1 RMS=4.15D-10 Max=5.50D-09 NDo=     1
 LinEq1:  Iter=  7 NonCon=     0 RMS=7.03D-11 Max=1.13D-09 NDo=     1
 Linear equations converged to 4.421D-10 4.421D-09 after     7 iterations.
 Angle between quadratic step and gradient=  89.31 degrees.
     ILin= 1 X=0.000D+00 Y=-1.263633273024D+03 DE= 0.00D+00 F= -1.53D-08
     ILin= 2 X=1.000D+00 Y=-1.263633273017D+03 DE= 6.60D-09 F=  2.89D-08
     Reject lnstep minimum 3.521D-01 FVal=-1.263633273027D+03 Lims=  0.00D+00  1.00D+00
     ILin= 3 X=4.000D-01 Y=-1.263633273027D+03 DE=-2.65D-09 F=  2.12D-09
     A contracting polynomial of degree  3 produced  0.3502
 Iteration  40 EE= -1263.63327302670     Delta-E=       -0.000000002699 Grad=1.778D-04 Max rot=    0.0030 deg.
 QCNR:  CnvC1=1.78D-09 CnvC2=1.78D-08
 LinEq1:  Iter=  0 NonCon=     1 RMS=1.27D-06 Max=2.03D-05 NDo=     1
 LinEq1:  Iter=  1 NonCon=     1 RMS=5.68D-07 Max=3.87D-06 NDo=     1
 LinEq1:  Iter=  2 NonCon=     1 RMS=3.83D-07 Max=4.72D-06 NDo=     1
 LinEq1:  Iter=  3 NonCon=     1 RMS=1.10D-07 Max=1.46D-06 NDo=     1
 LinEq1:  Iter=  4 NonCon=     1 RMS=2.76D-08 Max=2.96D-07 NDo=     1
 LinEq1:  Iter=  5 NonCon=     1 RMS=8.37D-09 Max=8.55D-08 NDo=     1
 LinEq1:  Iter=  6 NonCon=     0 RMS=1.27D-09 Max=1.45D-08 NDo=     1
 Linear equations converged to 1.778D-09 1.778D-08 after     6 iterations.
 Angle between quadratic step and gradient=  86.41 degrees.
     ILin= 1 X=0.000D+00 Y=-1.263633273027D+03 DE= 0.00D+00 F= -4.83D-09
     ILin= 2 X=1.000D+00 Y=-1.263633273029D+03 DE=-2.66D-09 F= -4.88D-10
     Reject lnstep minimum 1.113D+00 FVal=-1.263633273029D+03 Lims=  0.00D+00  1.00D+00
     ILin= 3 X=2.000D+00 Y=-1.263633273028D+03 DE=-9.78D-10 F=  3.86D-09
     An  expanding polynomial of degree  3 produced  1.1127
 Iteration  41 EE= -1263.63327302939     Delta-E=       -0.000000002688 Grad=7.220D-05 Max rot=    0.0020 deg.
 QCNR:  CnvC1=7.22D-10 CnvC2=7.22D-09
 LinEq1:  Iter=  0 NonCon=     1 RMS=4.99D-07 Max=6.20D-06 NDo=     1
 LinEq1:  Iter=  1 NonCon=     1 RMS=1.76D-07 Max=2.50D-06 NDo=     1
 LinEq1:  Iter=  2 NonCon=     1 RMS=1.35D-07 Max=1.77D-06 NDo=     1
 LinEq1:  Iter=  3 NonCon=     1 RMS=4.79D-08 Max=7.99D-07 NDo=     1
 LinEq1:  Iter=  4 NonCon=     1 RMS=1.19D-08 Max=1.54D-07 NDo=     1
 LinEq1:  Iter=  5 NonCon=     1 RMS=2.98D-09 Max=4.28D-08 NDo=     1
 LinEq1:  Iter=  6 NonCon=     0 RMS=3.22D-10 Max=3.92D-09 NDo=     1
 Linear equations converged to 7.220D-10 7.220D-09 after     6 iterations.
 Angle between quadratic step and gradient=  89.32 degrees.
     ILin= 1 X=0.000D+00 Y=-1.263633273029D+03 DE= 0.00D+00 F= -2.64D-09
     ILin= 2 X=1.000D+00 Y=-1.263633273027D+03 DE= 2.31D-09 F=  7.27D-09
     Reject lnstep minimum 2.667D-01 FVal=-1.263633273030D+03 Lims=  0.00D+00  1.00D+00
     ILin= 3 X=3.000D-01 Y=-1.263633273030D+03 DE=-3.47D-10 F=  3.31D-10
     A contracting polynomial of degree  3 produced  0.2667
 Iteration  42 EE= -1263.63327302974     Delta-E=       -0.000000000352 Grad=9.361D-05 Max rot=    0.0027 deg.
 QCNR:  CnvC1=9.36D-10 CnvC2=9.36D-09
 LinEq1:  Iter=  0 NonCon=     1 RMS=5.24D-07 Max=9.12D-06 NDo=     1
 LinEq1:  Iter=  1 NonCon=     1 RMS=1.53D-07 Max=2.15D-06 NDo=     1
 LinEq1:  Iter=  2 NonCon=     1 RMS=1.19D-07 Max=1.61D-06 NDo=     1
 LinEq1:  Iter=  3 NonCon=     1 RMS=4.67D-08 Max=9.57D-07 NDo=     1
 LinEq1:  Iter=  4 NonCon=     1 RMS=8.33D-09 Max=9.14D-08 NDo=     1
 LinEq1:  Iter=  5 NonCon=     1 RMS=2.01D-09 Max=3.85D-08 NDo=     1
 LinEq1:  Iter=  6 NonCon=     0 RMS=4.51D-10 Max=4.53D-09 NDo=     1
 Linear equations converged to 9.361D-10 9.361D-09 after     6 iterations.
 Angle between quadratic step and gradient=  89.49 degrees.
     ILin= 1 X=0.000D+00 Y=-1.263633273030D+03 DE= 0.00D+00 F= -1.92D-09
     ILin= 2 X=1.000D+00 Y=-1.263633273029D+03 DE= 2.67D-10 F=  2.46D-09
 QCLLim returned failure.
     ILin= 3 X=2.000D+00 Y=-1.263633273025D+03 DE= 4.92D-09 F=  6.86D-09
 QCLLim is confused:  Bigger=T Turned=T
 NLin=  3 IMin12=  1  2 I12=  0  2 IX=  1 XLMin= 0.000D+00 XLMax= 0.000D+00
 X = 0.000D+00 1.000D+00 2.000D+00
 DE= 0.000D+00 2.667D-10 4.922D-09
     An  expanding polynomial of degree  3 produced  0.4392
 Iteration  43 EE= -1263.63327303016     Delta-E=       -0.000000000423 Grad=5.284D-05 Max rot=    0.0014 deg.
 QCNR:  CnvC1=5.28D-10 CnvC2=5.28D-09
 LinEq1:  Iter=  0 NonCon=     1 RMS=5.18D-07 Max=6.94D-06 NDo=     1
 LinEq1:  Iter=  1 NonCon=     1 RMS=2.43D-07 Max=2.89D-06 NDo=     1
 LinEq1:  Iter=  2 NonCon=     1 RMS=2.14D-07 Max=2.97D-06 NDo=     1
 LinEq1:  Iter=  3 NonCon=     1 RMS=5.50D-08 Max=7.19D-07 NDo=     1
 LinEq1:  Iter=  4 NonCon=     1 RMS=1.41D-08 Max=2.63D-07 NDo=     1
 LinEq1:  Iter=  5 NonCon=     1 RMS=4.79D-09 Max=4.45D-08 NDo=     1
 LinEq1:  Iter=  6 NonCon=     1 RMS=5.79D-10 Max=7.18D-09 NDo=     1
 LinEq1:  Iter=  7 NonCon=     0 RMS=3.00D-11 Max=2.35D-10 NDo=     1
 Linear equations converged to 5.284D-10 5.284D-09 after     7 iterations.
 Angle between quadratic step and gradient=  89.44 degrees.
     ILin= 1 X=0.000D+00 Y=-1.263633273030D+03 DE= 0.00D+00 F= -5.41D-08
     ILin= 2 X=1.000D+00 Y=-1.263633272927D+03 DE= 1.03D-07 F=  3.21D-07
     Reject lnstep minimum 2.253D-01 FVal=-1.263633273037D+03 Lims=  0.00D+00  1.00D+00
     ILin= 3 X=2.000D-01 Y=-1.263633273036D+03 DE=-5.90D-09 F= -4.30D-09
     A contracting polynomial of degree  3 produced  0.1890
 Iteration  44 EE= -1263.63327303600     Delta-E=       -0.000000005835 Grad=2.712D-04 Max rot=    0.0057 deg.
 QCNR:  CnvC1=2.71D-09 CnvC2=2.71D-08
 LinEq1:  Iter=  0 NonCon=     1 RMS=1.14D-06 Max=8.74D-06 NDo=     1
 LinEq1:  Iter=  1 NonCon=     1 RMS=6.07D-07 Max=6.04D-06 NDo=     1
 LinEq1:  Iter=  2 NonCon=     1 RMS=4.08D-07 Max=7.40D-06 NDo=     1
 LinEq1:  Iter=  3 NonCon=     1 RMS=1.20D-07 Max=2.09D-06 NDo=     1
 LinEq1:  Iter=  4 NonCon=     1 RMS=3.27D-08 Max=4.59D-07 NDo=     1
 LinEq1:  Iter=  5 NonCon=     1 RMS=1.03D-08 Max=1.70D-07 NDo=     1
 LinEq1:  Iter=  6 NonCon=     0 RMS=1.14D-09 Max=1.80D-08 NDo=     1
 Linear equations converged to 2.712D-09 2.712D-08 after     6 iterations.
 Angle between quadratic step and gradient=  86.84 degrees.
     ILin= 1 X=0.000D+00 Y=-1.263633273036D+03 DE= 0.00D+00 F= -9.20D-09
     ILin= 2 X=1.000D+00 Y=-1.263633273041D+03 DE=-4.63D-09 F= -5.38D-11
     Reject lnstep minimum 1.006D+00 FVal=-1.263633273041D+03 Lims=  0.00D+00  1.00D+00
     ILin= 3 X=2.000D+00 Y=-1.263633273036D+03 DE=-1.10D-10 F=  9.09D-09
     An  expanding polynomial of degree  3 produced  1.0060
     Minimum is close to point  2 DX=  6.03D-03 DF=  0.00D+00 DXR=  5.99D-03 DFR=  0.00D+00 which will be used.
[...]
 Angle between quadratic step and gradient=  85.80 degrees.
     ILin= 1 X=0.000D+00 Y=-1.263633273075D+03 DE= 0.00D+00 F= -1.11D-11
     ILin= 2 X=1.000D+00 Y=-1.263633273075D+03 DE=-4.77D-12
 Iteration 342 EE= -1263.63327307485     Delta-E=       -0.000000000005 Grad=8.136D-07 Max rot=    0.0000 deg.
 QCNR:  CnvC1=8.14D-12 CnvC2=8.14D-11
 LinEq1:  Iter=  0 NonCon=     1 RMS=9.54D-09 Max=1.14D-07 NDo=     1
 LinEq1:  Iter=  1 NonCon=     1 RMS=5.19D-09 Max=6.66D-08 NDo=     1
 LinEq1:  Iter=  2 NonCon=     1 RMS=2.94D-09 Max=4.27D-08 NDo=     1
 LinEq1:  Iter=  3 NonCon=     1 RMS=1.24D-09 Max=1.63D-08 NDo=     1
 LinEq1:  Iter=  4 NonCon=     1 RMS=3.69D-10 Max=4.52D-09 NDo=     1
 LinEq1:  Iter=  5 NonCon=     1 RMS=2.69D-10 Max=3.28D-09 NDo=     1
 LinEq1:  Iter=  6 NonCon=     1 RMS=1.04D-10 Max=1.31D-09 NDo=     1
 LinEq1:  Iter=  7 NonCon=     1 RMS=3.04D-11 Max=3.35D-10 NDo=     1
 LinEq1:  Iter=  8 NonCon=     1 RMS=1.57D-11 Max=2.16D-10 NDo=     1
 LinEq1:  Iter=  9 NonCon=     0 RMS=7.23D-12 Max=5.43D-11 NDo=     1
 Linear equations converged to 8.136D-12 8.136D-11 after     9 iterations.
 Angle between quadratic step and gradient=  85.95 degrees.
     ILin= 1 X=0.000D+00 Y=-1.263633273075D+03 DE= 0.00D+00 F= -1.38D-11
     ILin= 2 X=1.000D+00 Y=-1.263633273075D+03 DE=-4.09D-12
 Iteration 343 EE= -1263.63327307485     Delta-E=       -0.000000000004 Grad=4.536D-06 Max rot=    0.0001 deg.
 QCNR:  CnvC1=4.54D-11 CnvC2=4.54D-10
 LinEq1:  Iter=  0 NonCon=     1 RMS=3.69D-08 Max=3.08D-07 NDo=     1
 LinEq1:  Iter=  1 NonCon=     1 RMS=1.83D-08 Max=2.49D-07 NDo=     1
 LinEq1:  Iter=  2 NonCon=     1 RMS=1.06D-08 Max=1.39D-07 NDo=     1
 LinEq1:  Iter=  3 NonCon=     1 RMS=4.17D-09 Max=4.65D-08 NDo=     1
 LinEq1:  Iter=  4 NonCon=     1 RMS=2.82D-09 Max=3.20D-08 NDo=     1
 LinEq1:  Iter=  5 NonCon=     1 RMS=1.45D-09 Max=2.21D-08 NDo=     1
 LinEq1:  Iter=  6 NonCon=     1 RMS=3.78D-10 Max=7.69D-09 NDo=     1
 LinEq1:  Iter=  7 NonCon=     1 RMS=1.08D-10 Max=1.03D-09 NDo=     1
 LinEq1:  Iter=  8 NonCon=     1 RMS=4.60D-11 Max=8.37D-10 NDo=     1
 LinEq1:  Iter=  9 NonCon=     0 RMS=2.41D-11 Max=3.48D-10 NDo=     1
 Linear equations converged to 4.536D-11 4.536D-10 after     9 iterations.
 Angle between quadratic step and gradient=  87.76 degrees.
     ILin= 1 X=0.000D+00 Y=-1.263633273075D+03 DE= 0.00D+00 F= -1.70D-11
     ILin= 2 X=1.000D+00 Y=-1.263633273075D+03 DE=-1.05D-11
 Iteration 344 EE= -1263.63327307486     Delta-E=       -0.000000000010 Grad=9.528D-07 Max rot=    0.0000 deg.
 QCNR:  CnvC1=9.53D-12 CnvC2=9.53D-11
 LinEq1:  Iter=  0 NonCon=     1 RMS=1.16D-08 Max=1.71D-07 NDo=     1
 LinEq1:  Iter=  1 NonCon=     1 RMS=6.09D-09 Max=1.02D-07 NDo=     1
 LinEq1:  Iter=  2 NonCon=     1 RMS=2.66D-09 Max=3.25D-08 NDo=     1
 LinEq1:  Iter=  3 NonCon=     1 RMS=1.27D-09 Max=1.86D-08 NDo=     1
 LinEq1:  Iter=  4 NonCon=     1 RMS=7.31D-10 Max=6.73D-09 NDo=     1
 LinEq1:  Iter=  5 NonCon=     1 RMS=3.40D-10 Max=3.76D-09 NDo=     1
 LinEq1:  Iter=  6 NonCon=     1 RMS=7.26D-11 Max=1.35D-09 NDo=     1
 LinEq1:  Iter=  7 NonCon=     1 RMS=2.28D-11 Max=3.17D-10 NDo=     1
 LinEq1:  Iter=  8 NonCon=     1 RMS=1.32D-11 Max=1.67D-10 NDo=     1
 LinEq1:  Iter=  9 NonCon=     0 RMS=3.22D-12 Max=2.67D-11 NDo=     1
 Linear equations converged to 9.528D-12 9.528D-11 after     9 iterations.
 Angle between quadratic step and gradient=  86.67 degrees.
     ILin= 1 X=0.000D+00 Y=-1.263633273075D+03 DE= 0.00D+00 F= -1.53D-11
     ILin= 2 X=1.000D+00 Y=-1.263633273075D+03 DE=-8.87D-12
 Iteration 345 EE= -1263.63327307487     Delta-E=       -0.000000000009 Grad=4.946D-06 Max rot=    0.0001 deg.
 QCNR:  CnvC1=4.95D-11 CnvC2=4.95D-10
 LinEq1:  Iter=  0 NonCon=     1 RMS=2.88D-08 Max=2.56D-07 NDo=     1
 LinEq1:  Iter=  1 NonCon=     1 RMS=1.38D-08 Max=1.87D-07 NDo=     1
 LinEq1:  Iter=  2 NonCon=     1 RMS=1.09D-08 Max=1.35D-07 NDo=     1
 LinEq1:  Iter=  3 NonCon=     1 RMS=5.92D-09 Max=6.49D-08 NDo=     1
 LinEq1:  Iter=  4 NonCon=     1 RMS=3.36D-09 Max=5.04D-08 NDo=     1
 LinEq1:  Iter=  5 NonCon=     1 RMS=9.24D-10 Max=1.37D-08 NDo=     1
 LinEq1:  Iter=  6 NonCon=     1 RMS=2.69D-10 Max=2.52D-09 NDo=     1
 LinEq1:  Iter=  7 NonCon=     1 RMS=1.06D-10 Max=1.32D-09 NDo=     1
 LinEq1:  Iter=  8 NonCon=     1 RMS=6.08D-11 Max=7.73D-10 NDo=     1
 LinEq1:  Iter=  9 NonCon=     0 RMS=1.66D-11 Max=2.82D-10 NDo=     1
 Linear equations converged to 4.946D-11 4.946D-10 after     9 iterations.
 Angle between quadratic step and gradient=  88.17 degrees.
     ILin= 1 X=0.000D+00 Y=-1.263633273075D+03 DE= 0.00D+00 F= -1.51D-11
     ILin= 2 X=1.000D+00 Y=-1.263633273075D+03 DE=-5.23D-12
 Iteration 346 EE= -1263.63327307488     Delta-E=       -0.000000000005 Grad=2.462D-07 Max rot=    0.0000 deg.
 Rotation gradient small -- convergence achieved.
 Density matrix breaks symmetry, PCut= 1.00D-04
 Density matrix has no symmetry -- integrals replicated.
 Density matrix is not symmetric, so final MOs not symmetrized.
 SCF Done:  E(UM062X) =  -1263.63327307     a.u. after  346 cycles
            Convg  =    0.2462D-06                  2923 Fock formations.
              S**2 =  6.0075                  -V/T =  2.0013
 <Sx>= 0.0000 <Sy>= 0.0000 <Sz>= 2.0000 <S**2>= 6.0075 S= 2.0015
 <L.S>= 0.000000000000E+00
 Annihilation of the first spin contaminant:
 S**2 before annihilation     6.0075,   after     6.0000
 Leave Link  508 at Sun Apr 18 07:39:56 2021, MaxMem=   104857600 cpu:           17641.1 elap:             381.7
 (Enter /s/ls4/users/knvvv/bin/g16sse/l801.exe)
 DoSCS=F DFT=T ScalE2(SS,OS)=  1.000000  1.000000
 Range of M.O.s used for correlation:     1    45
 NBasis=    45 NAE=    15 NBE=    11 NFC=     0 NFV=     0
 NROrb=     45 NOA=    15 NOB=    11 NVA=    30 NVB=    34
 Leave Link  801 at Sun Apr 18 07:39:56 2021, MaxMem=   104857600 cpu:               3.7 elap:               0.1
 (Enter /s/ls4/users/knvvv/bin/g16sse/l914.exe)
 UHF ground state
 Doing stability rather than CIS.
 Keep R1 and R2 ints in memory in symmetry-blocked form, NReq=59360624.
 FoFCou: FMM=F IPFlag=           0 FMFlag=           0 FMFlg1=           0
         NFxFlg=           0 DoJE=F BraDBF=F KetDBF=F FulRan=T
         wScrn=  0.000000 ICntrl=       600 IOpCl=  0 I1Cent=           0 NGrid=           0
         NMat0=    1 NMatS0=   1035 NMatT0=    0 NMatD0=    1 NMtDS0=    0 NMtDT0=    0
 Petite list used in FoFCou.
 MDV=   104857600 DFT=T DoStab=T Mixed=T DoRPA=F DoScal=F NonHer=F
 Making orbital integer symmetry assigments:
 Orbital symmetries:
 Alpha Orbitals:
       Occupied  (A1G) (A1G) (T1U) (T1U) (T1U) (?A) (T1U) (T1U)
                 (T1U) (?A) (?A) (?A) (?A) (?A) (?A)
       Virtual   (T1U) (T1U) (T1U) (?A) (?A) (?A) (?A) (?A) (?A)
                 (?A) (?A) (?A) (?A) (?A) (T1U) (T1U) (T1U) (?B)
                 (?B) (?B) (?B) (?B) (?B) (?C) (?C) (?C) (?C) (?C)
                 (?C) (?C)
 Beta  Orbitals:
       Occupied  (A1G) (A1G) (T1U) (T1U) (T1U) (A1G) (T1U) (T1U)
                 (T1U) (?A) (?A)
       Virtual   (?A) (?A) (?A) (?A) (T1U) (T1U) (T1U) (?A) (?A)
                 (?A) (?A) (?A) (?A) (?A) (?A) (?A) (?A) (?A) (T1U)
                 (T1U) (T1U) (?A) (?A) (?A) (?A) (?A) (?A) (?B)
                 (?B) (?B) (?B) (?B) (?B) (?B)
    24 initial guesses have been made.
 Convergence on wavefunction:    0.001000000000000
 Davidson Disk Diagonalization:  ConvIn= 1.00D-03 SkipCon=T Conv= 1.00D-03.
 Max sub-space:  1648 roots to seek:    24 dimension of matrix:          824
 Iteration     1 Dimension    24 NMult     0 NNew     24
 CISAX will form    24 AO SS matrices at one time.
 NMat=    24 NSing=    24 JSym2X= 2.
 New state      1 was old state     11
 Excitation Energies [eV] at current iteration:
 Root      1 :     0.835509712848551
 Root      2 :     0.835553378031242
 Root      3 :     0.907970447146398
 Root      4 :     0.908372592110053
 Root      5 :     1.768664022738056
 Root      6 :     1.768802845878967
 Root      7 :     1.774174026443643
 Root      8 :     1.918834424466826
 Root      9 :     1.918877111071662
 Root     10 :     1.962739664884846
 Root     11 :     1.962812779370753
 Root     12 :     6.309640921802494
 Root     13 :     6.309757767617911
 Root     14 :     6.882061994460755
 Root     15 :     8.048121532255255
 Root     16 :     9.379788642057573
 Root     17 :     9.400311059409146
 Root     18 :     9.400311200706403
 Root     19 :     9.660952684258985
 Root     20 :     9.660967062685422
 Root     21 :     9.878179848735680
 Root     22 :    10.012124512619200
 Root     23 :    10.012198559133850
 Root     24 :    10.055754963362500
 Iteration     2 Dimension    48 NMult    24 NNew     24
 CISAX will form    24 AO SS matrices at one time.
 NMat=    24 NSing=    24 JSym2X= 2.
 New state      1 was old state      3
 Root      1 not converged, maximum delta is    0.219610805611577
 Excitation Energies [eV] at current iteration:
 Root      1 :     0.005109613215160   Change is   -0.902860833931238
 Root      2 :     0.005637062485315   Change is   -0.902735529624739
 Root      3 :     0.091369520306333   Change is   -0.744140192542218
 Root      4 :     0.091440177213416   Change is   -0.744113200817825
 Root      5 :     1.550766047101704   Change is   -0.223407979341940
 Root      6 :     1.656050123397703   Change is   -0.262784301069123
 Root      7 :     1.656069985874630   Change is   -0.262807125197032
 Root      8 :     1.698360255548411   Change is   -0.070303767189645
 Root      9 :     1.698514791693621   Change is   -0.070288054185346
 Root     10 :     1.831148346988009   Change is   -0.131591317896837
 Root     11 :     1.831225181833190   Change is   -0.131587597537563
 Root     12 :     6.239864140802345   Change is   -0.069776781000149
 Root     13 :     6.239991621871964   Change is   -0.069766145745947
 Root     14 :     6.334166418618670   Change is   -3.721588544743835
 Root     15 :     6.839428664055920   Change is   -0.042633330404835
 Root     16 :     7.779753218953172   Change is   -0.268368313302082
 Root     17 :     8.144445395106226   Change is   -1.516507289152758
 Root     18 :     8.144454596596130   Change is   -1.516512466089293
 Root     19 :     8.339502865808779   Change is   -1.672621646810415
 Root     20 :     8.339589302439945   Change is   -1.672609256693901
 Root     21 :     8.372946930285881   Change is   -1.027364129123265
 Root     22 :     8.372951724303769   Change is   -1.027359476402633
 Root     23 :     8.967137061308085   Change is   -0.412651580749488
 Root     24 :     9.435618729503226
 Iteration     3 Dimension    51 NMult    48 NNew      3
 CISAX will form     3 AO SS matrices at one time.
 NMat=     3 NSing=     3 JSym2X= 2.
 Root      1 not converged, maximum delta is    0.004620282008867
 Excitation Energies [eV] at current iteration:
 Root      1 :     0.000148597973235   Change is   -0.004961015241925
 Root      2 :     0.000676037805395   Change is   -0.004961024679919
 Root      3 :     0.084459885997679   Change is   -0.006909634308653
 Iteration     4 Dimension    54 NMult    51 NNew      3
 CISAX will form     3 AO SS matrices at one time.
 NMat=     3 NSing=     3 JSym2X= 2.
 Root      1 has converged.
 Excitation Energies [eV] at current iteration:
 Root      1 :     0.000115805243012   Change is   -0.000032792730222
 Root      2 :     0.000643247778669   Change is   -0.000032790026727
 Root      3 :     0.084435189256385   Change is   -0.000024696741294
 Convergence achieved on expansion vectors.
 ***********************************************************************
 Stability analysis using <AA,BB:AA,BB> singles matrix:
 ***********************************************************************
 1PDM for each excited state written to RWF  633
 Ground to excited state transition densities written to RWF  633

 Eigenvectors of the stability matrix:
 
 Excited state symmetry could not be determined.
 Eigenvector   1:  5.003-?Sym  Eigenvalue= 0.0000043  <S**2>=6.008
     10B -> 14B        0.83643
     10B -> 15B       -0.48088
     10B -> 23B       -0.22205
     10B -> 24B        0.10053
 The wavefunction is stable under the perturbations considered.
 Leave Link  914 at Sun Apr 18 07:40:04 2021, MaxMem=   104857600 cpu:             359.4 elap:               7.7
 (Enter /s/ls4/users/knvvv/bin/g16sse/l508.exe)
 The wavefunction is already stable.
 Leave Link  508 at Sun Apr 18 07:40:04 2021, MaxMem=   104857600 cpu:               2.2 elap:               0.1
 (Enter /s/ls4/users/knvvv/bin/g16sse/l601.exe)
 Copying SCF densities to generalized density rwf, IOpCl= 1 IROHF=0.
 SCF density gives NOpUse=  1 NOpAll= 48.
 Marking SCF density as not fully symmetric.

 **********************************************************************

            Population analysis using the SCF density.

 **********************************************************************

 Orbital symmetries:
 Alpha Orbitals:
       Occupied  (A1G) (A1G) (T1U) (T1U) (T1U) (?A) (T1U) (T1U)
                 (T1U) (?A) (?A) (?A) (?A) (?A) (?A)
       Virtual   (T1U) (T1U) (T1U) (?A) (?A) (?A) (?A) (?A) (?A)
                 (?A) (?A) (?A) (?A) (?A) (T1U) (T1U) (T1U) (?B)
                 (?B) (?B) (?B) (?B) (?B) (?C) (?C) (?C) (?C) (?C)
                 (?C) (?C)
 Beta  Orbitals:
       Occupied  (A1G) (A1G) (T1U) (T1U) (T1U) (A1G) (T1U) (T1U)
                 (T1U) (?A) (?A)
       Virtual   (?A) (?A) (?A) (?A) (T1U) (T1U) (T1U) (?A) (?A)
                 (?A) (?A) (?A) (?A) (?A) (?A) (?A) (?A) (?A) (T1U)
                 (T1U) (T1U) (?A) (?A) (?A) (?A) (?A) (?A) (?B)
                 (?B) (?B) (?B) (?B) (?B) (?B)
 Unable to determine electronic state:  an orbital has unidentified symmetry.
 Alpha  occ. eigenvalues -- -257.97592 -30.71665 -26.57488 -26.57488 -26.54358
 Alpha  occ. eigenvalues --   -3.82325  -2.60308  -2.60308  -2.54000  -0.55171
 Alpha  occ. eigenvalues --   -0.55171  -0.52099  -0.52099  -0.48225  -0.23135
 Alpha virt. eigenvalues --    0.06661   0.06661   0.07881   0.12581   0.18980
 Alpha virt. eigenvalues --    0.18980   0.19290   0.19290   0.19417   0.86640
 Alpha virt. eigenvalues --    0.86640   0.87819   0.87819   0.89054   1.61738
 Alpha virt. eigenvalues --    1.61738   1.65514   2.49654   3.40847   3.40847
 Alpha virt. eigenvalues --    3.43192   3.43192   3.46135   4.00991   4.00991
 Alpha virt. eigenvalues --    4.02551   4.02551   4.05646   4.05647   4.06907
  Beta  occ. eigenvalues -- -257.97525 -30.61634 -26.48096 -26.48096 -26.47532
  Beta  occ. eigenvalues --   -3.62924  -2.33615  -2.33615  -2.33502  -0.36099
  Beta  occ. eigenvalues --   -0.22969
  Beta virt. eigenvalues --   -0.00502  -0.00502   0.01409   0.01409   0.06187
  Beta virt. eigenvalues --    0.06187   0.07405   0.13547   0.20070   0.21763
  Beta virt. eigenvalues --    0.21763   0.22208   0.22208   0.90676   0.92625
  Beta virt. eigenvalues --    0.92625   0.93418   0.93418   1.70124   1.70124
  Beta virt. eigenvalues --    1.71371   2.60026   3.52063   3.55902   3.55902
  Beta virt. eigenvalues --    3.59219   3.59219   4.17073   4.17073   4.17788
  Beta virt. eigenvalues --    4.17788   4.17818   4.20150   4.20150
          Condensed to atoms (all electrons):
               1
     1  Fe  26.000000
          Atomic-Atomic Spin Densities.
               1
     1  Fe   4.000000
 Mulliken charges and spin densities:
               1          2
     1  Fe   0.000000   4.000000
 Sum of Mulliken charges =   0.00000   4.00000
 Mulliken charges and spin densities with hydrogens summed into heavy atoms:
               1          2
     1  Fe   0.000000   4.000000
 Electronic spatial extent (au):  <R**2>=             40.1401
 Charge=              0.0000 electrons
 Dipole moment (field-independent basis, Debye):
    X=              0.0000    Y=              0.0000    Z=              0.0000  Tot=              0.0000
 Quadrupole moment (field-independent basis, Debye-Ang):
   XX=            -18.0250   YY=            -18.0024   ZZ=            -17.9624
   XY=             -0.1290   XZ=             -0.1049   YZ=             -0.0961
 Traceless Quadrupole moment (field-independent basis, Debye-Ang):
   XX=             -0.0284   YY=             -0.0058   ZZ=              0.0342
   XY=             -0.1290   XZ=             -0.1049   YZ=             -0.0961
 Octapole moment (field-independent basis, Debye-Ang**2):
  XXX=              0.0000  YYY=              0.0000  ZZZ=              0.0000  XYY=              0.0000
  XXY=              0.0000  XXZ=              0.0000  XZZ=              0.0000  YZZ=              0.0000
  YYZ=              0.0000  XYZ=             -0.0000
 Hexadecapole moment (field-independent basis, Debye-Ang**3):
 XXXX=            -38.9039 YYYY=            -38.9700 ZZZZ=            -39.1125 XXXY=              0.1727
 XXXZ=              0.1403 YYYX=              0.2031 YYYZ=              0.1513 ZZZX=              0.2089
 ZZZY=              0.1915 XXYY=            -13.0938 XXZZ=            -13.0725 YYZZ=            -13.0752
 XXYZ=             -0.0512 YYXZ=             -0.0312 ZZXY=              0.0155
 N-N= 0.000000000000D+00 E-N=-3.006352342071D+03  KE= 1.262045438922D+03
                          Isotropic Fermi Contact Couplings
        Atom                 a.u.       MegaHertz       Gauss      10(-4) cm-1
     1  Fe(57)             0.11271       4.08678       1.45827       1.36320
 --------------------------------------------------------
       Center         ----  Spin Dipole Couplings  ----
                      3XX-RR        3YY-RR        3ZZ-RR
 --------------------------------------------------------
     1   Atom       -0.329244     -0.066906      0.396150
 --------------------------------------------------------
                        XY            XZ            YZ
 --------------------------------------------------------
     1   Atom       -1.493627     -1.214466     -1.112848
 --------------------------------------------------------


 ---------------------------------------------------------------------------------
              Anisotropic Spin Dipole Couplings in Principal Axis System
 ---------------------------------------------------------------------------------

       Atom             a.u.   MegaHertz   Gauss  10(-4) cm-1        Axes

              Baa    -2.6024   -45.054   -16.076   -15.028  0.6463  0.5920  0.4815
     1 Fe(57) Bbb     1.3009    22.523     8.037     7.513 -0.6526  0.1018  0.7508
              Bcc     1.3014    22.532     8.040     7.516 -0.3955  0.7994 -0.4522
 

 ---------------------------------------------------------------------------------

 No NMR shielding tensors so no spin-rotation constants.
 Leave Link  601 at Sun Apr 18 07:40:08 2021, MaxMem=   104857600 cpu:             207.4 elap:               4.4
 (Enter /s/ls4/users/knvvv/bin/g16sse/l9999.exe)

 Test job not archived.
 1\1\GINC-N178\Stability\UM062X\def2TZVP\Fe1(5)\KNVVV\18-Apr-2021\0\\#P
  M062X/Def2TZVP Integral=UltraFineGrid SCF=NoSymm Stable=(RExt, Opt) I
 Op(1/33=1)\\Database calculations.\\0,5\Fe,0,0.,0.,0.\\Version=ES64L-G
 16RevA.03\HF=-1263.6332731\S2=6.007453\S2-1=0.\S2A=6.000005\RMSD=8.576
 e-09\Dipole=0.0000001,0.,-0.0000002\Quadrupole=0.025452,-0.0043121,-0.
 02114,-0.0714588,0.0780154,0.0959111\PG=OH [O(Fe1)]\\@


 PENOTUS DIED A HUNDRED YEARS OLD WANTING BUT TWO...
 AND HE USED TO SAY BEFORE HE DIED, HAVING SPENT HIS
 WHOLE LIFE IN VAINLY SEARCHING AFTER THE PHILOSOPHER'S
 STONE, THAT IF HE HAD A MORTAL ENEMY HE DID NOT DARE
 TO ENCOUNTER OPENLY, HE WOULD ADVISE HIM ABOVE ALL
 THINGS TO GIVE HIMSELF UP TO THE STUDY AND PRACTICE
 OF ALCHEMY.  --  NICOLAS LEMERY, M.D.
 "A COURSE OF CHYMISTRY", WALTER KETTILBY, LONDON, 1686
 Job cpu time:       0 days  6 hours  4 minutes 53.3 seconds.
 Elapsed time:       0 days  0 hours  7 minutes 52.5 seconds.
 File lengths (MBytes):  RWF=     35 Int=      0 D2E=      0 Chk=      2 Scr=      1
 Normal termination of Gaussian 16 at Sun Apr 18 07:40:09 2021.
