 Entering Gaussian System, Link 0=/s/ls4/users/knvvv/bin/g16sse/g16
 Input=data/database/M062X--MG3S--12_SB-10H_pTC13.gjf
 Output=data/database/M062X--MG3S--12_SB-10H_pTC13.log
 Initial command:
 /s/ls4/users/knvvv/bin/g16sse/l1.exe "/s/ls4/users/knvvv/bin/scratch/Gau-8026.inp" -scrdir="/s/ls4/users/knvvv/bin/scratch/"
 Entering Link 1 = /s/ls4/users/knvvv/bin/g16sse/l1.exe PID=      8027.
  
 Copyright (c) 1988,1990,1992,1993,1995,1998,2003,2009,2016,
            Gaussian, Inc.  All Rights Reserved.
  
 This is part of the Gaussian(R) 16 program.  It is based on
 the Gaussian(R) 09 system (copyright 2009, Gaussian, Inc.),
 the Gaussian(R) 03 system (copyright 2003, Gaussian, Inc.),
 the Gaussian(R) 98 system (copyright 1998, Gaussian, Inc.),
 the Gaussian(R) 94 system (copyright 1995, Gaussian, Inc.),
 the Gaussian 92(TM) system (copyright 1992, Gaussian, Inc.),
 the Gaussian 90(TM) system (copyright 1990, Gaussian, Inc.),
 the Gaussian 88(TM) system (copyright 1988, Gaussian, Inc.),
 the Gaussian 86(TM) system (copyright 1986, Carnegie Mellon
 University), and the Gaussian 82(TM) system (copyright 1983,
 Carnegie Mellon University). Gaussian is a federally registered
 trademark of Gaussian, Inc.
  
 This software contains proprietary and confidential information,
 including trade secrets, belonging to Gaussian, Inc.
  
 This software is provided under written license and may be
 used, copied, transmitted, or stored only in accord with that
 written license.
  
 The following legend is applicable only to US Government
 contracts under FAR:
  
                    RESTRICTED RIGHTS LEGEND
  
 Use, reproduction and disclosure by the US Government is
 subject to restrictions as set forth in subparagraphs (a)
 and (c) of the Commercial Computer Software - Restricted
 Rights clause in FAR 52.227-19.
  
 Gaussian, Inc.
 340 Quinnipiac St., Bldg. 40, Wallingford CT 06492
  
  
 ---------------------------------------------------------------
 Warning -- This program may not be used in any manner that
 competes with the business of Gaussian, Inc. or will provide
 assistance to any competitor of Gaussian, Inc.  The licensee
 of this program is prohibited from giving any competitor of
 Gaussian, Inc. access to this program.  By using this program,
 the user acknowledges that Gaussian, Inc. is engaged in the
 business of creating and licensing software in the field of
 computational chemistry and represents and warrants to the
 licensee that it is not a competitor of Gaussian, Inc. and that
 it will not use this program in any manner prohibited above.
 ---------------------------------------------------------------
  

 Cite this work as:
 Gaussian 16, Revision A.03,
 M. J. Frisch, G. W. Trucks, H. B. Schlegel, G. E. Scuseria, 
 M. A. Robb, J. R. Cheeseman, G. Scalmani, V. Barone, 
 G. A. Petersson, H. Nakatsuji, X. Li, M. Caricato, A. V. Marenich, 
 J. Bloino, B. G. Janesko, R. Gomperts, B. Mennucci, H. P. Hratchian, 
 J. V. Ortiz, A. F. Izmaylov, J. L. Sonnenberg, D. Williams-Young, 
 F. Ding, F. Lipparini, F. Egidi, J. Goings, B. Peng, A. Petrone, 
 T. Henderson, D. Ranasinghe, V. G. Zakrzewski, J. Gao, N. Rega, 
 G. Zheng, W. Liang, M. Hada, M. Ehara, K. Toyota, R. Fukuda, 
 J. Hasegawa, M. Ishida, T. Nakajima, Y. Honda, O. Kitao, H. Nakai, 
 T. Vreven, K. Throssell, J. A. Montgomery, Jr., J. E. Peralta, 
 F. Ogliaro, M. J. Bearpark, J. J. Heyd, E. N. Brothers, K. N. Kudin, 
 V. N. Staroverov, T. A. Keith, R. Kobayashi, J. Normand, 
 K. Raghavachari, A. P. Rendell, J. C. Burant, S. S. Iyengar, 
 J. Tomasi, M. Cossi, J. M. Millam, M. Klene, C. Adamo, R. Cammi, 
 J. W. Ochterski, R. L. Martin, K. Morokuma, O. Farkas, 
 J. B. Foresman, and D. J. Fox, Gaussian, Inc., Wallingford CT, 2016.
 
 ******************************************
 Gaussian 16:  ES64L-G16RevA.03 25-Dec-2016
                18-Apr-2021 
 ******************************************
 %RWF=temp12_24415,70GB
 %nprocshared=48
 Will use up to   48 processors via shared memory.
 Default route: MaxDisk=80GB
 ----------------------------------------------------------------------
 #P M062X/GEN Integral=UltraFineGrid SCF=NoSymm Stable=(RExt, Opt) IOp(
 1/33=1)
 ----------------------------------------------------------------------
 1/33=1,38=1,172=1/1;
 2/12=2,17=6,18=5,40=1/2;
 3/5=7,11=2,25=1,30=1,74=-55,75=-5/1,2,3;
 4/9=2/1;
 5/5=2,38=5/2;
 6/7=2,8=2,9=2,10=2,28=1/1;
 8/6=1,10=90,11=11/1;
 9/8=-3,42=1,46=1/14;
 5/5=2,8=3,17=40,38=5/8(-2);
 6/7=2,8=2,9=2,10=2,28=1/1;
 99/5=1,9=1/99;
 Leave Link    1 at Sun Apr 18 08:44:35 2021, MaxMem=           0 cpu:              11.6 elap:               0.3
 (Enter /s/ls4/users/knvvv/bin/g16sse/l101.exe)
 ONIOM data not found on unit 2.
 ----------------------
 Database calculations.
 ----------------------
 TstMul:  ICh=     1
 TstMul:  Mul=     1
 TstMul:  ICh=     1
 TstMul:  Mul=     1
 Symbolic Z-matrix:
 Charge =  1 Multiplicity = 1
 N                     5.40296  -0.01494  -0.00514 
 C                     4.15531  -0.45786  -0.0022 
 C                     3.01912   0.35418  -0.00074 
 C                     1.76133  -0.22748  -0.00353 
 C                     0.54653   0.48336  -0.00624 
 C                    -0.66482  -0.1768    0.02044 
 C                    -1.9298    0.4659    0.02019 
 C                    -3.09821  -0.25056  -0.00047 
 C                    -4.40894   0.34106  -0.00839 
 C                    -5.53326  -0.41235  -0.01084 
 H                     6.18472  -0.65355  -0.00396 
 H                     5.61424   0.97385  -0.00719 
 H                     4.04387  -1.53705  -0.00021 
 H                     3.12648   1.43325  -0.00293 
 H                     1.70194  -1.3146    0.00251 
 H                     0.56787   1.56831  -0.01874 
 H                    -0.65669  -1.26537   0.03146 
 H                    -1.96521   1.55095   0.02193 
 H                    -3.04231  -1.3373   -0.00531 
 H                    -4.4812    1.42324  -0.00825 
 H                    -6.51454   0.04039  -0.0126 
 H                    -5.48337  -1.49412  -0.01006 
 
 RdStrC is calling ZToCFu for IStruc=1 NZ=    22.
 PrtBox:  NBox=     3 Levels=  3 BoxLen=    8.00 SMaxX=       24.00
          Shift=           12.310696            2.904604            0.035413
 Box      1 Number                   0 centers from      1 to      7:
 Box      2 Number                   4 centers from      8 to     15:
 Box      3 Number                  32 centers from     16 to     22:
 After GenITR:
 ITRead=  0  0  0  0  0  0  0  0  0  0  0  0  0  0  0  0  0  0  0  0
 ITRead=  0  0
 MicOpt= -1 -1 -1 -1 -1 -1 -1 -1 -1 -1 -1 -1 -1 -1 -1 -1 -1 -1 -1 -1
 MicOpt= -1 -1
 ITRead=  0  0  0  0  0  0  0  0  0  0  0  0  0  0  0  0  0  0  0  0
 ITRead=  0  0
 MicOpt= -1 -1 -1 -1 -1 -1 -1 -1 -1 -1 -1 -1 -1 -1 -1 -1 -1 -1 -1 -1
 MicOpt= -1 -1
 NAtoms=     22 NQM=       22 NQMF=       0 NMMI=      0 NMMIF=      0
                NMic=       0 NMicF=      0.
                    Isotopes and Nuclear Properties:
 (Nuclear quadrupole moments (NQMom) in fm**2, nuclear magnetic moments (NMagM)
  in nuclear magnetons)

  Atom         1           2           3           4           5           6           7           8           9          10
 IAtWgt=          14          12          12          12          12          12          12          12          12          12
 AtmWgt=  14.0030740  12.0000000  12.0000000  12.0000000  12.0000000  12.0000000  12.0000000  12.0000000  12.0000000  12.0000000
 NucSpn=           2           0           0           0           0           0           0           0           0           0
 AtZEff=  -0.0000000  -0.0000000  -0.0000000  -0.0000000  -0.0000000  -0.0000000  -0.0000000  -0.0000000  -0.0000000  -0.0000000
 NQMom=    2.0440000   0.0000000   0.0000000   0.0000000   0.0000000   0.0000000   0.0000000   0.0000000   0.0000000   0.0000000
 NMagM=    0.4037610   0.0000000   0.0000000   0.0000000   0.0000000   0.0000000   0.0000000   0.0000000   0.0000000   0.0000000
 AtZNuc=   7.0000000   6.0000000   6.0000000   6.0000000   6.0000000   6.0000000   6.0000000   6.0000000   6.0000000   6.0000000

  Atom        11          12          13          14          15          16          17          18          19          20
 IAtWgt=           1           1           1           1           1           1           1           1           1           1
 AtmWgt=   1.0078250   1.0078250   1.0078250   1.0078250   1.0078250   1.0078250   1.0078250   1.0078250   1.0078250   1.0078250
 NucSpn=           1           1           1           1           1           1           1           1           1           1
 AtZEff=  -0.0000000  -0.0000000  -0.0000000  -0.0000000  -0.0000000  -0.0000000  -0.0000000  -0.0000000  -0.0000000  -0.0000000
 NQMom=    0.0000000   0.0000000   0.0000000   0.0000000   0.0000000   0.0000000   0.0000000   0.0000000   0.0000000   0.0000000
 NMagM=    2.7928460   2.7928460   2.7928460   2.7928460   2.7928460   2.7928460   2.7928460   2.7928460   2.7928460   2.7928460
 AtZNuc=   1.0000000   1.0000000   1.0000000   1.0000000   1.0000000   1.0000000   1.0000000   1.0000000   1.0000000   1.0000000

  Atom        21          22
 IAtWgt=           1           1
 AtmWgt=   1.0078250   1.0078250
 NucSpn=           1           1
 AtZEff=  -0.0000000  -0.0000000
 NQMom=    0.0000000   0.0000000
 NMagM=    2.7928460   2.7928460
 AtZNuc=   1.0000000   1.0000000
 No MM parameters found.
 Leave Link  101 at Sun Apr 18 08:44:35 2021, MaxMem=   104857600 cpu:               7.6 elap:               0.2
 (Enter /s/ls4/users/knvvv/bin/g16sse/l202.exe)
                          Input orientation:                          
 ---------------------------------------------------------------------
 Center     Atomic      Atomic             Coordinates (Angstroms)
 Number     Number       Type             X           Y           Z
 ---------------------------------------------------------------------
      1          7           0        5.402960   -0.014940   -0.005140
      2          6           0        4.155310   -0.457860   -0.002200
      3          6           0        3.019120    0.354180   -0.000740
      4          6           0        1.761330   -0.227480   -0.003530
      5          6           0        0.546530    0.483360   -0.006240
      6          6           0       -0.664820   -0.176800    0.020440
      7          6           0       -1.929800    0.465900    0.020190
      8          6           0       -3.098210   -0.250560   -0.000470
      9          6           0       -4.408940    0.341060   -0.008390
     10          6           0       -5.533260   -0.412350   -0.010840
     11          1           0        6.184720   -0.653550   -0.003960
     12          1           0        5.614240    0.973850   -0.007190
     13          1           0        4.043870   -1.537050   -0.000210
     14          1           0        3.126480    1.433250   -0.002930
     15          1           0        1.701940   -1.314600    0.002510
     16          1           0        0.567870    1.568310   -0.018740
     17          1           0       -0.656690   -1.265370    0.031460
     18          1           0       -1.965210    1.550950    0.021930
     19          1           0       -3.042310   -1.337300   -0.005310
     20          1           0       -4.481200    1.423240   -0.008250
     21          1           0       -6.514540    0.040390   -0.012600
     22          1           0       -5.483370   -1.494120   -0.010060
 ---------------------------------------------------------------------
                    Distance matrix (angstroms):
                    1          2          3          4          5
     1  N    0.000000
     2  C    1.323940   0.000000
     3  C    2.412252   1.396545   0.000000
     4  C    3.647827   2.405040   1.385775   0.000000
     5  C    4.881928   3.729505   2.475968   1.407494   0.000000
     6  C    6.069992   4.828370   3.722070   2.426798   1.379816
     7  C    7.348552   6.154868   4.950225   3.755766   2.476533
     8  C    8.504436   7.256482   6.147149   4.859596   3.717903
     9  C    9.818357   8.601435   7.428076   6.196410   4.957513
    10  C   10.943440   9.688681   8.586668   7.296936   6.145418
    11  H    1.009442   2.038824   3.322131   4.443863   5.751674
    12  H    1.011113   2.044088   2.668086   4.035855   5.091391
    13  H    2.040581   1.084930   2.151015   2.631534   4.038995
    14  H    2.698077   2.152856   1.084400   2.149804   2.749262
    15  H    3.922591   2.598663   2.125982   1.088758   2.137220
    16  H    5.087726   4.120117   2.735519   2.156256   1.085232
    17  H    6.187429   4.879401   4.016909   2.631589   2.123021
    18  H    7.532773   6.441791   5.126043   4.129233   2.729355
    19  H    8.548171   7.251149   6.293017   4.930179   4.024249
    20  H    9.988243   8.838998   7.576130   6.457095   5.114826
    21  H   11.917631  10.681482   9.538830   8.280209   7.074954
    22  H   10.986363   9.694228   8.701071   7.354597   6.345875
                    6          7          8          9         10
     6  C    0.000000
     7  C    1.418886   0.000000
     8  C    2.434597   1.370738   0.000000
     9  C    3.779874   2.482446   1.438086   0.000000
    10  C    4.874235   3.709071   2.440441   1.353413   0.000000
    11  H    6.866155   8.191409   9.291674  10.640249  11.720464
    12  H    6.383679   7.561171   8.798069  10.043135  11.233357
    13  H    4.901272   6.300552   7.257022   8.658947   9.642950
    14  H    4.119073   5.148035   6.448410   7.614162   8.854231
    15  H    2.626112   4.044753   4.916669   6.331207   7.291252
    16  H    2.136930   2.730417   4.092525   5.125904   6.414582
    17  H    1.088656   2.149007   2.644216   4.081861   4.950795
    18  H    2.162438   1.085629   2.128293   2.727007   4.072665
    19  H    2.645729   2.118929   1.088188   2.164389   2.657140
    20  H    4.138322   2.725243   2.171250   1.084590   2.115710
    21  H    5.853844   4.604560   3.428718   2.126963   1.080688
    22  H    4.995467   4.058381   2.689893   2.126567   1.082920
                   11         12         13         14         15
    11  H    0.000000
    12  H    1.724497   0.000000
    13  H    2.315993   2.961542   0.000000
    14  H    3.702373   2.529825   3.108745   0.000000
    15  H    4.531263   4.532459   2.352473   3.095161   0.000000
    16  H    6.040355   5.081276   4.661135   2.562221   3.098021
    17  H    6.868804   6.658841   4.708511   4.647161   2.359321
    18  H    8.442858   7.601444   6.756129   5.093111   4.654003
    19  H    9.252329   8.959759   7.088997   6.762390   4.744311
    20  H   10.866229  10.105437   9.024422   7.607688   6.762182
    21  H   12.718209  12.164649  10.675603   9.741120   8.327471
    22  H   11.698330  11.368722   9.527342   9.093903   7.187563
                   16         17         18         19         20
    16  H    0.000000
    17  H    3.087363   0.000000
    18  H    2.533466   3.105475   0.000000
    19  H    4.634237   2.386987   3.082673   0.000000
    20  H    5.051165   4.675155   2.519410   3.113036   0.000000
    21  H    7.245351   6.001779   4.793682   3.735567   2.459017
    22  H    6.782039   4.832276   4.653055   2.446097   3.084694
                   21         22
    21  H    0.000000
    22  H    1.848794   0.000000
 Stoichiometry    C9H12N(1+)
 Framework group  C1[X(C9H12N)]
 Deg. of freedom    60
 Full point group                 C1      NOp   1
 Largest Abelian subgroup         C1      NOp   1
 Largest concise Abelian subgroup C1      NOp   1
                         Standard orientation:                         
 ---------------------------------------------------------------------
 Center     Atomic      Atomic             Coordinates (Angstroms)
 Number     Number       Type             X           Y           Z
 ---------------------------------------------------------------------
      1          7           0        5.402959   -0.014941   -0.005140
      2          6           0        4.155309   -0.457861   -0.002200
      3          6           0        3.019119    0.354179   -0.000740
      4          6           0        1.761329   -0.227481   -0.003530
      5          6           0        0.546529    0.483358   -0.006240
      6          6           0       -0.664821   -0.176802    0.020440
      7          6           0       -1.929801    0.465898    0.020190
      8          6           0       -3.098211   -0.250562   -0.000470
      9          6           0       -4.408941    0.341058   -0.008390
     10          6           0       -5.533261   -0.412352   -0.010840
     11          1           0        6.184719   -0.653551   -0.003960
     12          1           0        5.614239    0.973849   -0.007190
     13          1           0        4.043869   -1.537051   -0.000210
     14          1           0        3.126479    1.433249   -0.002930
     15          1           0        1.701939   -1.314601    0.002510
     16          1           0        0.567869    1.568308   -0.018740
     17          1           0       -0.656691   -1.265372    0.031460
     18          1           0       -1.965211    1.550948    0.021930
     19          1           0       -3.042311   -1.337302   -0.005310
     20          1           0       -4.481201    1.423238   -0.008250
     21          1           0       -6.514541    0.040388   -0.012600
     22          1           0       -5.483371   -1.494122   -0.010060
 ---------------------------------------------------------------------
 Rotational constants (GHZ):          14.5138284           0.2906332           0.2849326
 Leave Link  202 at Sun Apr 18 08:44:36 2021, MaxMem=   104857600 cpu:               4.2 elap:               0.1
 (Enter /s/ls4/users/knvvv/bin/g16sse/l301.exe)
 General basis read from cards:  (5D, 7F)
 Centers:      11     12     13     14     15     16     17     18     19     20
 Centers:      21     22
 S 3 1.00
     Exponent=  3.3865000000D+01 Coefficients=  2.5493800000D-02
     Exponent=  5.0947900000D+00 Coefficients=  1.9037300000D-01
     Exponent=  1.1587900000D+00 Coefficients=  8.5216100000D-01
 S 1 1.00
     Exponent=  3.2584000000D-01 Coefficients=  1.0000000000D+00
 S 1 1.00
     Exponent=  1.0274100000D-01 Coefficients=  1.0000000000D+00
 P 1 1.00
     Exponent=  1.5000000000D+00 Coefficients=  1.0000000000D+00
 P 1 1.00
     Exponent=  3.7500000000D-01 Coefficients=  1.0000000000D+00
 ****
 Centers:       2      3      4      5      6      7      8      9     10
 S 6 1.00
     Exponent=  4.5632400000D+03 Coefficients=  1.9666500000D-03
     Exponent=  6.8202400000D+02 Coefficients=  1.5230600000D-02
     Exponent=  1.5497300000D+02 Coefficients=  7.6126900000D-02
     Exponent=  4.4455300000D+01 Coefficients=  2.6080100000D-01
     Exponent=  1.3029000000D+01 Coefficients=  6.1646200000D-01
     Exponent=  1.8277300000D+00 Coefficients=  2.2100600000D-01
 S 3 1.00
     Exponent=  2.0964200000D+01 Coefficients=  1.1466000000D-01
     Exponent=  4.8033100000D+00 Coefficients=  9.1999900000D-01
     Exponent=  1.4593300000D+00 Coefficients= -3.0306800000D-03
 S 1 1.00
     Exponent=  4.8345600000D-01 Coefficients=  1.0000000000D+00
 S 1 1.00
     Exponent=  1.4558500000D-01 Coefficients=  1.0000000000D+00
 S 1 1.00
     Exponent=  4.3800000000D-02 Coefficients=  1.0000000000D+00
 P 3 1.00
     Exponent=  2.0964200000D+01 Coefficients=  4.0248700000D-02
     Exponent=  4.8033100000D+00 Coefficients=  2.3759400000D-01
     Exponent=  1.4593300000D+00 Coefficients=  8.1585400000D-01
 P 1 1.00
     Exponent=  4.8345600000D-01 Coefficients=  1.0000000000D+00
 P 1 1.00
     Exponent=  1.4558500000D-01 Coefficients=  1.0000000000D+00
 P 1 1.00
     Exponent=  4.3800000000D-02 Coefficients=  1.0000000000D+00
 D 1 1.00
     Exponent=  1.2520000000D+00 Coefficients=  1.0000000000D+00
 D 1 1.00
     Exponent=  3.1300000000D-01 Coefficients=  1.0000000000D+00
 F 1 1.00
     Exponent=  8.0000000000D-01 Coefficients=  1.0000000000D+00
 ****
 Centers:       1
 S 6 1.00
     Exponent=  6.2934800000D+03 Coefficients=  1.9697900000D-03
     Exponent=  9.4904400000D+02 Coefficients=  1.4961300000D-02
     Exponent=  2.1877600000D+02 Coefficients=  7.3500600000D-02
     Exponent=  6.3691600000D+01 Coefficients=  2.4893700000D-01
     Exponent=  1.8828200000D+01 Coefficients=  6.0246000000D-01
     Exponent=  2.7202300000D+00 Coefficients=  2.5620200000D-01
 S 3 1.00
     Exponent=  3.0633100000D+01 Coefficients=  1.1190600000D-01
     Exponent=  7.0261400000D+00 Coefficients=  9.2166600000D-01
     Exponent=  2.1120500000D+00 Coefficients= -2.5691900000D-03
 S 1 1.00
     Exponent=  6.8400900000D-01 Coefficients=  1.0000000000D+00
 S 1 1.00
     Exponent=  2.0087800000D-01 Coefficients=  1.0000000000D+00
 S 1 1.00
     Exponent=  6.3900000000D-02 Coefficients=  1.0000000000D+00
 P 3 1.00
     Exponent=  3.0633100000D+01 Coefficients=  3.8311900000D-02
     Exponent=  7.0261400000D+00 Coefficients=  2.3740300000D-01
     Exponent=  2.1120500000D+00 Coefficients=  8.1759200000D-01
 P 1 1.00
     Exponent=  6.8400900000D-01 Coefficients=  1.0000000000D+00
 P 1 1.00
     Exponent=  2.0087800000D-01 Coefficients=  1.0000000000D+00
 P 1 1.00
     Exponent=  6.3900000000D-02 Coefficients=  1.0000000000D+00
 D 1 1.00
     Exponent=  1.8260000000D+00 Coefficients=  1.0000000000D+00
 D 1 1.00
     Exponent=  4.5650000000D-01 Coefficients=  1.0000000000D+00
 F 1 1.00
     Exponent=  1.0000000000D+00 Coefficients=  1.0000000000D+00
 ****
 Ernie: Thresh=  0.10000D-02 Tol=  0.10000D-05 Strict=F.
 There are   498 symmetry adapted cartesian basis functions of A   symmetry.
 There are   448 symmetry adapted basis functions of A   symmetry.
   448 basis functions,   652 primitive gaussians,   498 cartesian basis functions
    36 alpha electrons       36 beta electrons
       nuclear repulsion energy       424.1121105442 Hartrees.
 IExCor= 4336 DFT=T Ex+Corr=M062X ExCW=0 ScaHFX=  0.540000
 ScaDFX=  1.000000  1.000000  1.000000  1.000000 ScalE2=  1.000000  1.000000
 IRadAn=      5 IRanWt=     -1 IRanGd=            0 ICorTp=0 IEmpDi=  4
 NAtoms=   22 NActive=   22 NUniq=   22 SFac= 1.00D+00 NAtFMM=   60 NAOKFM=F Big=F
 Integral buffers will be    131072 words long.
 Raffenetti 2 integral format.
 Two-electron integral symmetry is turned on.
 Leave Link  301 at Sun Apr 18 08:44:36 2021, MaxMem=   104857600 cpu:               9.6 elap:               0.2
 (Enter /s/ls4/users/knvvv/bin/g16sse/l302.exe)
 NPDir=0 NMtPBC=     1 NCelOv=     1 NCel=       1 NClECP=     1 NCelD=      1
         NCelK=      1 NCelE2=     1 NClLst=     1 CellRange=     0.0.
 One-electron integrals computed using PRISM.
 One-electron integral symmetry used in STVInt
 PrsmSu:  requested number of processors reduced to:  12 ShMem   1 Linda.
 PrsmSu:  requested number of processors reduced to:  43 ShMem   1 Linda.
 NBasis=   448 RedAO= T EigKep=  1.98D-06  NBF=   448
 NBsUse=   448 1.00D-06 EigRej= -1.00D+00 NBFU=   448
 Precomputing XC quadrature grid using
 IXCGrd= 4 IRadAn=           5 IRanWt=          -1 IRanGd=           0 AccXCQ= 0.00D+00.
 Generated NRdTot=       0 NPtTot=           0 NUsed=           0 NTot=          32
 NSgBfM=   489   489   489   489   489 MxSgAt=    22 MxSgA2=    22.
 Leave Link  302 at Sun Apr 18 08:44:40 2021, MaxMem=   104857600 cpu:             216.4 elap:               4.6
 (Enter /s/ls4/users/knvvv/bin/g16sse/l303.exe)
 DipDrv:  MaxL=1.
 Leave Link  303 at Sun Apr 18 08:44:41 2021, MaxMem=   104857600 cpu:              12.0 elap:               0.3
 (Enter /s/ls4/users/knvvv/bin/g16sse/l401.exe)
 SCF N**3 symmetry information disabled.
 ExpMin= 4.38D-02 ExpMax= 6.29D+03 ExpMxC= 9.49D+02 IAcc=3 IRadAn=         5 AccDes= 0.00D+00
 Harris functional with IExCor= 1009 and IRadAn=       5 diagonalized for initial guess.
 HarFok:  IExCor= 1009 AccDes= 0.00D+00 IRadAn=         5 IDoV= 1 UseB2=F ITyADJ=14
 ICtDFT=  3500011 ScaDFX=  1.000000  1.000000  1.000000  1.000000
 FoFCou: FMM=F IPFlag=           0 FMFlag=      100000 FMFlg1=           0
         NFxFlg=           0 DoJE=T BraDBF=F KetDBF=T FulRan=T
         wScrn=  0.000000 ICntrl=       500 IOpCl=  0 I1Cent=   200000004 NGrid=           0
         NMat0=    1 NMatS0=      1 NMatT0=    0 NMatD0=    1 NMtDS0=    0 NMtDT0=    0
 Petite list used in FoFCou.
 CoulSu:  requested number of processors reduced to:  41 ShMem   1 Linda.
 CoulSu:  requested number of processors reduced to:  41 ShMem   1 Linda.
 Harris En= -404.457150112885    
 JPrj=0 DoOrth=F DoCkMO=F.
 Leave Link  401 at Sun Apr 18 08:44:44 2021, MaxMem=   104857600 cpu:             164.6 elap:               3.6
 (Enter /s/ls4/users/knvvv/bin/g16sse/l502.exe)
 Integral symmetry usage will be decided dynamically.
 Closed shell SCF:
 Using DIIS extrapolation, IDIIS=  1040.
 NGot=   104857600 LenX=   104333262 LenY=   104084760
 Requested convergence on RMS density matrix=1.00D-08 within 128 cycles.
 Requested convergence on MAX density matrix=1.00D-06.
 Requested convergence on             energy=1.00D-06.
 No special actions if energy rises.
 Fock matrices will be formed incrementally for  20 cycles.

 Cycle   1  Pass 1  IDiag  1:
 FoFJK:  IHMeth= 1 ICntrl=       0 DoSepK=F KAlg= 0 I1Cent=           0 FoldK=F
 IRaf= 810000000 NMat=       1 IRICut=       1 DoRegI=T DoRafI=F ISym2E= 0 IDoP0=0 IntGTp=1.
 FoFCou: FMM=F IPFlag=           0 FMFlag=      100000 FMFlg1=           0
         NFxFlg=           0 DoJE=F BraDBF=F KetDBF=F FulRan=T
         wScrn=  0.000000 ICntrl=         0 IOpCl=  0 I1Cent=           0 NGrid=           0
         NMat0=    1 NMatS0=      1 NMatT0=    0 NMatD0=    1 NMtDS0=    0 NMtDT0=    0
 Symmetry not used in FoFCou.
 CoulSu:  requested number of processors reduced to:  43 ShMem   1 Linda.
 E= -404.342377125623    
 DIIS: error= 3.39D-02 at cycle   1 NSaved=   1.
 NSaved= 1 IEnMin= 1 EnMin= -404.342377125623     IErMin= 1 ErrMin= 3.39D-02
 ErrMax= 3.39D-02  0.00D+00 EMaxC= 1.00D-01 BMatC= 2.81D-01 BMatP= 2.81D-01
 IDIUse=3 WtCom= 6.61D-01 WtEn= 3.39D-01
 Coeff-Com:  0.100D+01
 Coeff-En:   0.100D+01
 Coeff:      0.100D+01
 Gap=     0.164 Goal=   None    Shift=    0.000
 GapD=    0.164 DampG=1.000 DampE=0.500 DampFc=0.5000 IDamp=-1.
 Damping current iteration by 5.00D-01
 RMSDP=5.63D-03 MaxDP=5.85D-01              OVMax= 3.00D-01

 Cycle   2  Pass 1  IDiag  1:
 RMSU=  2.47D-03    CP:  1.11D+00
 CoulSu:  requested number of processors reduced to:  43 ShMem   1 Linda.
 E= -404.467454270064     Delta-E=       -0.125077144441 Rises=F Damp=T
 DIIS: error= 8.19D-03 at cycle   2 NSaved=   2.
 NSaved= 2 IEnMin= 2 EnMin= -404.467454270064     IErMin= 2 ErrMin= 8.19D-03
 ErrMax= 8.19D-03  0.00D+00 EMaxC= 1.00D-01 BMatC= 2.66D-02 BMatP= 2.81D-01
 IDIUse=3 WtCom= 9.18D-01 WtEn= 8.19D-02
 Coeff-Com: -0.227D+00 0.123D+01
 Coeff-En:   0.000D+00 0.100D+01
 Coeff:     -0.209D+00 0.121D+01
 Gap=     0.192 Goal=   None    Shift=    0.000
 RMSDP=3.49D-03 MaxDP=2.80D-01 DE=-1.25D-01 OVMax= 2.39D-01

 Cycle   3  Pass 1  IDiag  1:
 RMSU=  2.13D-03    CP:  1.22D+00  1.96D+00
 CoulSu:  requested number of processors reduced to:  43 ShMem   1 Linda.
 E= -404.574929753856     Delta-E=       -0.107475483792 Rises=F Damp=F
 DIIS: error= 8.63D-03 at cycle   3 NSaved=   3.
 NSaved= 3 IEnMin= 3 EnMin= -404.574929753856     IErMin= 2 ErrMin= 8.19D-03
 ErrMax= 8.63D-03  0.00D+00 EMaxC= 1.00D-01 BMatC= 8.42D-03 BMatP= 2.66D-02
 IDIUse=3 WtCom= 9.14D-01 WtEn= 8.63D-02
 Coeff-Com: -0.138D+00 0.500D+00 0.638D+00
 Coeff-En:   0.000D+00 0.000D+00 0.100D+01
 Coeff:     -0.126D+00 0.457D+00 0.669D+00
 Gap=     0.163 Goal=   None    Shift=    0.000
 RMSDP=5.30D-04 MaxDP=4.54D-02 DE=-1.07D-01 OVMax= 7.92D-02

 Cycle   4  Pass 1  IDiag  1:
 RMSU=  4.24D-04    CP:  1.21D+00  1.97D+00  8.68D-01
 CoulSu:  requested number of processors reduced to:  43 ShMem   1 Linda.
 E= -404.583010792555     Delta-E=       -0.008081038699 Rises=F Damp=F
 DIIS: error= 3.50D-03 at cycle   4 NSaved=   4.
 NSaved= 4 IEnMin= 4 EnMin= -404.583010792555     IErMin= 4 ErrMin= 3.50D-03
 ErrMax= 3.50D-03  0.00D+00 EMaxC= 1.00D-01 BMatC= 2.09D-03 BMatP= 8.42D-03
 IDIUse=3 WtCom= 9.65D-01 WtEn= 3.50D-02
 Coeff-Com: -0.456D-01 0.104D+00 0.358D+00 0.583D+00
 Coeff-En:   0.000D+00 0.000D+00 0.146D+00 0.854D+00
 Coeff:     -0.440D-01 0.101D+00 0.351D+00 0.593D+00
 Gap=     0.163 Goal=   None    Shift=    0.000
 RMSDP=2.78D-04 MaxDP=1.64D-02 DE=-8.08D-03 OVMax= 2.71D-02

 Cycle   5  Pass 1  IDiag  1:
 RMSU=  1.78D-04    CP:  1.21D+00  1.96D+00  9.10D-01  5.55D-01
 CoulSu:  requested number of processors reduced to:  43 ShMem   1 Linda.
 E= -404.585209165073     Delta-E=       -0.002198372518 Rises=F Damp=F
 DIIS: error= 8.07D-04 at cycle   5 NSaved=   5.
 NSaved= 5 IEnMin= 5 EnMin= -404.585209165073     IErMin= 5 ErrMin= 8.07D-04
 ErrMax= 8.07D-04  0.00D+00 EMaxC= 1.00D-01 BMatC= 4.73D-05 BMatP= 2.09D-03
 IDIUse=3 WtCom= 9.92D-01 WtEn= 8.07D-03
 Coeff-Com: -0.998D-02 0.173D-01 0.920D-01 0.197D+00 0.704D+00
 Coeff-En:   0.000D+00 0.000D+00 0.000D+00 0.000D+00 0.100D+01
 Coeff:     -0.990D-02 0.172D-01 0.912D-01 0.195D+00 0.706D+00
 Gap=     0.164 Goal=   None    Shift=    0.000
 RMSDP=5.64D-05 MaxDP=6.29D-03 DE=-2.20D-03 OVMax= 7.86D-03

 Cycle   6  Pass 1  IDiag  1:
 RMSU=  3.81D-05    CP:  1.21D+00  1.95D+00  9.01D-01  5.54D-01  1.08D+00
 CoulSu:  requested number of processors reduced to:  43 ShMem   1 Linda.
 E= -404.585273929798     Delta-E=       -0.000064764726 Rises=F Damp=F
 DIIS: error= 3.55D-04 at cycle   6 NSaved=   6.
 NSaved= 6 IEnMin= 6 EnMin= -404.585273929798     IErMin= 6 ErrMin= 3.55D-04
 ErrMax= 3.55D-04  0.00D+00 EMaxC= 1.00D-01 BMatC= 1.72D-05 BMatP= 4.73D-05
 IDIUse=3 WtCom= 9.96D-01 WtEn= 3.55D-03
 Coeff-Com:  0.547D-02-0.134D-01-0.413D-01-0.591D-01 0.349D+00 0.759D+00
 Coeff-En:   0.000D+00 0.000D+00 0.000D+00 0.000D+00 0.000D+00 0.100D+01
 Coeff:      0.545D-02-0.134D-01-0.412D-01-0.589D-01 0.348D+00 0.760D+00
 Gap=     0.165 Goal=   None    Shift=    0.000
 RMSDP=4.34D-05 MaxDP=3.49D-03 DE=-6.48D-05 OVMax= 3.47D-03

 Cycle   7  Pass 1  IDiag  1:
 RMSU=  1.44D-05    CP:  1.21D+00  1.94D+00  9.02D-01  5.18D-01  1.28D+00
                    CP:  1.10D+00
 CoulSu:  requested number of processors reduced to:  43 ShMem   1 Linda.
 E= -404.585297656308     Delta-E=       -0.000023726510 Rises=F Damp=F
 DIIS: error= 7.19D-05 at cycle   7 NSaved=   7.
 NSaved= 7 IEnMin= 7 EnMin= -404.585297656308     IErMin= 7 ErrMin= 7.19D-05
 ErrMax= 7.19D-05  0.00D+00 EMaxC= 1.00D-01 BMatC= 1.35D-06 BMatP= 1.72D-05
 IDIUse=1 WtCom= 1.00D+00 WtEn= 0.00D+00
 Coeff-Com:  0.384D-02-0.871D-02-0.311D-01-0.555D-01 0.713D-01 0.293D+00
 Coeff-Com:  0.728D+00
 Coeff:      0.384D-02-0.871D-02-0.311D-01-0.555D-01 0.713D-01 0.293D+00
 Coeff:      0.728D+00
 Gap=     0.165 Goal=   None    Shift=    0.000
 RMSDP=1.19D-05 MaxDP=8.45D-04 DE=-2.37D-05 OVMax= 8.85D-04

 Cycle   8  Pass 1  IDiag  1:
 RMSU=  6.51D-06    CP:  1.21D+00  1.94D+00  9.03D-01  5.17D-01  1.33D+00
                    CP:  1.19D+00  1.13D+00
 CoulSu:  requested number of processors reduced to:  43 ShMem   1 Linda.
 E= -404.585299266732     Delta-E=       -0.000001610424 Rises=F Damp=F
 DIIS: error= 4.27D-05 at cycle   8 NSaved=   8.
 NSaved= 8 IEnMin= 8 EnMin= -404.585299266732     IErMin= 8 ErrMin= 4.27D-05
 ErrMax= 4.27D-05  0.00D+00 EMaxC= 1.00D-01 BMatC= 2.09D-07 BMatP= 1.35D-06
 IDIUse=1 WtCom= 1.00D+00 WtEn= 0.00D+00
 Coeff-Com:  0.428D-03-0.787D-03-0.392D-02-0.107D-01-0.150D-01-0.180D-02
 Coeff-Com:  0.317D+00 0.714D+00
 Coeff:      0.428D-03-0.787D-03-0.392D-02-0.107D-01-0.150D-01-0.180D-02
 Coeff:      0.317D+00 0.714D+00
 Gap=     0.165 Goal=   None    Shift=    0.000
 RMSDP=4.58D-06 MaxDP=5.18D-04 DE=-1.61D-06 OVMax= 2.39D-04

 Cycle   9  Pass 1  IDiag  1:
 RMSU=  2.34D-06    CP:  1.21D+00  1.94D+00  9.04D-01  5.20D-01  1.32D+00
                    CP:  1.18D+00  1.16D+00  1.14D+00
 CoulSu:  requested number of processors reduced to:  43 ShMem   1 Linda.
 E= -404.585299515132     Delta-E=       -0.000000248400 Rises=F Damp=F
 DIIS: error= 4.68D-06 at cycle   9 NSaved=   9.
 NSaved= 9 IEnMin= 9 EnMin= -404.585299515132     IErMin= 9 ErrMin= 4.68D-06
 ErrMax= 4.68D-06  0.00D+00 EMaxC= 1.00D-01 BMatC= 9.15D-09 BMatP= 2.09D-07
 IDIUse=1 WtCom= 1.00D+00 WtEn= 0.00D+00
 Coeff-Com: -0.144D-03 0.361D-03 0.108D-02 0.792D-03-0.744D-02-0.237D-01
 Coeff-Com:  0.168D-01 0.166D+00 0.847D+00
 Coeff:     -0.144D-03 0.361D-03 0.108D-02 0.792D-03-0.744D-02-0.237D-01
 Coeff:      0.168D-01 0.166D+00 0.847D+00
 Gap=     0.165 Goal=   None    Shift=    0.000
 RMSDP=1.38D-06 MaxDP=1.59D-04 DE=-2.48D-07 OVMax= 5.09D-05

 Cycle  10  Pass 1  IDiag  1:
 RMSU=  4.76D-07    CP:  1.21D+00  1.94D+00  9.04D-01  5.20D-01  1.32D+00
                    CP:  1.18D+00  1.17D+00  1.24D+00  1.09D+00
 CoulSu:  requested number of processors reduced to:  43 ShMem   1 Linda.
 E= -404.585299524127     Delta-E=       -0.000000008994 Rises=F Damp=F
 DIIS: error= 3.27D-06 at cycle  10 NSaved=  10.
 NSaved=10 IEnMin=10 EnMin= -404.585299524127     IErMin=10 ErrMin= 3.27D-06
 ErrMax= 3.27D-06  0.00D+00 EMaxC= 1.00D-01 BMatC= 1.90D-09 BMatP= 9.15D-09
 IDIUse=1 WtCom= 1.00D+00 WtEn= 0.00D+00
 Coeff-Com: -0.107D-03 0.242D-03 0.910D-03 0.140D-02-0.164D-02-0.116D-01
 Coeff-Com: -0.222D-01 0.947D-02 0.392D+00 0.632D+00
 Coeff:     -0.107D-03 0.242D-03 0.910D-03 0.140D-02-0.164D-02-0.116D-01
 Coeff:     -0.222D-01 0.947D-02 0.392D+00 0.632D+00
 Gap=     0.165 Goal=   None    Shift=    0.000
 RMSDP=2.13D-07 MaxDP=2.31D-05 DE=-8.99D-09 OVMax= 1.49D-05

 Cycle  11  Pass 1  IDiag  1:
 RMSU=  1.45D-07    CP:  1.21D+00  1.94D+00  9.04D-01  5.20D-01  1.32D+00
                    CP:  1.17D+00  1.17D+00  1.25D+00  1.10D+00  1.08D+00
 CoulSu:  requested number of processors reduced to:  43 ShMem   1 Linda.
 E= -404.585299526002     Delta-E=       -0.000000001876 Rises=F Damp=F
 DIIS: error= 7.37D-07 at cycle  11 NSaved=  11.
 NSaved=11 IEnMin=11 EnMin= -404.585299526002     IErMin=11 ErrMin= 7.37D-07
 ErrMax= 7.37D-07  0.00D+00 EMaxC= 1.00D-01 BMatC= 1.57D-10 BMatP= 1.90D-09
 IDIUse=1 WtCom= 1.00D+00 WtEn= 0.00D+00
 Coeff-Com: -0.245D-04 0.535D-04 0.245D-03 0.437D-03 0.399D-03-0.182D-02
 Coeff-Com: -0.937D-02-0.143D-01 0.577D-01 0.252D+00 0.714D+00
 Coeff:     -0.245D-04 0.535D-04 0.245D-03 0.437D-03 0.399D-03-0.182D-02
 Coeff:     -0.937D-02-0.143D-01 0.577D-01 0.252D+00 0.714D+00
 Gap=     0.165 Goal=   None    Shift=    0.000
 RMSDP=1.19D-07 MaxDP=1.03D-05 DE=-1.88D-09 OVMax= 4.34D-06

 Cycle  12  Pass 1  IDiag  1:
 RMSU=  7.04D-08    CP:  1.21D+00  1.94D+00  9.04D-01  5.20D-01  1.32D+00
                    CP:  1.17D+00  1.17D+00  1.24D+00  1.11D+00  1.11D+00
                    CP:  1.03D+00
 CoulSu:  requested number of processors reduced to:  43 ShMem   1 Linda.
 E= -404.585299526134     Delta-E=       -0.000000000132 Rises=F Damp=F
 DIIS: error= 1.94D-07 at cycle  12 NSaved=  12.
 NSaved=12 IEnMin=12 EnMin= -404.585299526134     IErMin=12 ErrMin= 1.94D-07
 ErrMax= 1.94D-07  0.00D+00 EMaxC= 1.00D-01 BMatC= 1.18D-11 BMatP= 1.57D-10
 IDIUse=1 WtCom= 1.00D+00 WtEn= 0.00D+00
 Coeff-Com: -0.397D-06 0.324D-06 0.258D-04 0.421D-04 0.159D-03-0.207D-04
 Coeff-Com: -0.149D-02-0.556D-02-0.690D-02 0.395D-01 0.242D+00 0.732D+00
 Coeff:     -0.397D-06 0.324D-06 0.258D-04 0.421D-04 0.159D-03-0.207D-04
 Coeff:     -0.149D-02-0.556D-02-0.690D-02 0.395D-01 0.242D+00 0.732D+00
 Gap=     0.165 Goal=   None    Shift=    0.000
 RMSDP=4.03D-08 MaxDP=5.01D-06 DE=-1.32D-10 OVMax= 1.87D-06

 Cycle  13  Pass 1  IDiag  1:
 RMSU=  1.29D-08    CP:  1.21D+00  1.94D+00  9.04D-01  5.20D-01  1.32D+00
                    CP:  1.17D+00  1.17D+00  1.24D+00  1.11D+00  1.13D+00
                    CP:  1.10D+00  1.16D+00
 CoulSu:  requested number of processors reduced to:  43 ShMem   1 Linda.
 E= -404.585299526155     Delta-E=       -0.000000000021 Rises=F Damp=F
 DIIS: error= 5.46D-08 at cycle  13 NSaved=  13.
 NSaved=13 IEnMin=13 EnMin= -404.585299526155     IErMin=13 ErrMin= 5.46D-08
 ErrMax= 5.46D-08  0.00D+00 EMaxC= 1.00D-01 BMatC= 2.09D-12 BMatP= 1.18D-11
 IDIUse=1 WtCom= 1.00D+00 WtEn= 0.00D+00
 Coeff-Com:  0.287D-05-0.643D-05-0.174D-04-0.402D-04 0.219D-04 0.225D-03
 Coeff-Com:  0.805D-03-0.338D-03-0.948D-02-0.199D-01-0.136D-01 0.294D+00
 Coeff-Com:  0.749D+00
 Coeff:      0.287D-05-0.643D-05-0.174D-04-0.402D-04 0.219D-04 0.225D-03
 Coeff:      0.805D-03-0.338D-03-0.948D-02-0.199D-01-0.136D-01 0.294D+00
 Coeff:      0.749D+00
 Gap=     0.165 Goal=   None    Shift=    0.000
 RMSDP=1.65D-08 MaxDP=1.55D-06 DE=-2.10D-11 OVMax= 4.69D-07

 Cycle  14  Pass 1  IDiag  1:
 RMSU=  6.64D-09    CP:  1.21D+00  1.94D+00  9.04D-01  5.20D-01  1.32D+00
                    CP:  1.17D+00  1.17D+00  1.24D+00  1.10D+00  1.14D+00
                    CP:  1.12D+00  1.23D+00  9.82D-01
 CoulSu:  requested number of processors reduced to:  43 ShMem   1 Linda.
 E= -404.585299526166     Delta-E=       -0.000000000011 Rises=F Damp=F
 DIIS: error= 1.32D-08 at cycle  14 NSaved=  14.
 NSaved=14 IEnMin=14 EnMin= -404.585299526166     IErMin=14 ErrMin= 1.32D-08
 ErrMax= 1.32D-08  0.00D+00 EMaxC= 1.00D-01 BMatC= 6.46D-14 BMatP= 2.09D-12
 IDIUse=1 WtCom= 1.00D+00 WtEn= 0.00D+00
 Coeff-Com:  0.127D-06-0.358D-06-0.157D-05-0.509D-05-0.993D-05-0.484D-05
 Coeff-Com:  0.181D-03 0.197D-03-0.248D-04-0.426D-02-0.203D-01-0.161D-01
 Coeff-Com:  0.448D-01 0.995D+00
 Coeff:      0.127D-06-0.358D-06-0.157D-05-0.509D-05-0.993D-05-0.484D-05
 Coeff:      0.181D-03 0.197D-03-0.248D-04-0.426D-02-0.203D-01-0.161D-01
 Coeff:      0.448D-01 0.995D+00
 Gap=     0.165 Goal=   None    Shift=    0.000
 RMSDP=3.13D-09 MaxDP=2.70D-07 DE=-1.09D-11 OVMax= 1.57D-07

 SCF Done:  E(RM062X) =  -404.585299526     A.U. after   14 cycles
            NFock= 14  Conv=0.31D-08     -V/T= 2.0047
 KE= 4.027038833988D+02 PE=-1.775614563278D+03 EE= 5.442132698093D+02
 Leave Link  502 at Sun Apr 18 08:46:24 2021, MaxMem=   104857600 cpu:            4510.0 elap:              99.3
 (Enter /s/ls4/users/knvvv/bin/g16sse/l601.exe)
 Copying SCF densities to generalized density rwf, IOpCl= 0 IROHF=0.

 **********************************************************************

            Population analysis using the SCF density.

 **********************************************************************

 Orbital symmetries:
       Occupied  (A) (A) (A) (A) (A) (A) (A) (A) (A) (A) (A) (A)
                 (A) (A) (A) (A) (A) (A) (A) (A) (A) (A) (A) (A)
                 (A) (A) (A) (A) (A) (A) (A) (A) (A) (A) (A) (A)
       Virtual   (A) (A) (A) (A) (A) (A) (A) (A) (A) (A) (A) (A)
                 (A) (A) (A) (A) (A) (A) (A) (A) (A) (A) (A) (A)
                 (A) (A) (A) (A) (A) (A) (A) (A) (A) (A) (A) (A)
                 (A) (A) (A) (A) (A) (A) (A) (A) (A) (A) (A) (A)
                 (A) (A) (A) (A) (A) (A) (A) (A) (A) (A) (A) (A)
                 (A) (A) (A) (A) (A) (A) (A) (A) (A) (A) (A) (A)
                 (A) (A) (A) (A) (A) (A) (A) (A) (A) (A) (A) (A)
                 (A) (A) (A) (A) (A) (A) (A) (A) (A) (A) (A) (A)
                 (A) (A) (A) (A) (A) (A) (A) (A) (A) (A) (A) (A)
                 (A) (A) (A) (A) (A) (A) (A) (A) (A) (A) (A) (A)
                 (A) (A) (A) (A) (A) (A) (A) (A) (A) (A) (A) (A)
                 (A) (A) (A) (A) (A) (A) (A) (A) (A) (A) (A) (A)
                 (A) (A) (A) (A) (A) (A) (A) (A) (A) (A) (A) (A)
                 (A) (A) (A) (A) (A) (A) (A) (A) (A) (A) (A) (A)
                 (A) (A) (A) (A) (A) (A) (A) (A) (A) (A) (A) (A)
                 (A) (A) (A) (A) (A) (A) (A) (A) (A) (A) (A) (A)
                 (A) (A) (A) (A) (A) (A) (A) (A) (A) (A) (A) (A)
                 (A) (A) (A) (A) (A) (A) (A) (A) (A) (A) (A) (A)
                 (A) (A) (A) (A) (A) (A) (A) (A) (A) (A) (A) (A)
                 (A) (A) (A) (A) (A) (A) (A) (A) (A) (A) (A) (A)
                 (A) (A) (A) (A) (A) (A) (A) (A) (A) (A) (A) (A)
                 (A) (A) (A) (A) (A) (A) (A) (A) (A) (A) (A) (A)
                 (A) (A) (A) (A) (A) (A) (A) (A) (A) (A) (A) (A)
                 (A) (A) (A) (A) (A) (A) (A) (A) (A) (A) (A) (A)
                 (A) (A) (A) (A) (A) (A) (A) (A) (A) (A) (A) (A)
                 (A) (A) (A) (A) (A) (A) (A) (A) (A) (A) (A) (A)
                 (A) (A) (A) (A) (A) (A) (A) (A) (A) (A) (A) (A)
                 (A) (A) (A) (A) (A) (A) (A) (A) (A) (A) (A) (A)
                 (A) (A) (A) (A) (A) (A) (A) (A) (A) (A) (A) (A)
                 (A) (A) (A) (A) (A) (A) (A) (A) (A) (A) (A) (A)
                 (A) (A) (A) (A) (A) (A) (A) (A) (A) (A) (A) (A)
                 (A) (A) (A) (A) (A) (A) (A) (A) (A) (A) (A) (A)
                 (A) (A) (A) (A) (A) (A) (A) (A) (A) (A) (A) (A)
                 (A) (A) (A) (A) (A) (A) (A) (A) (A) (A) (A) (A)
                 (A) (A) (A) (A)
 The electronic state is 1-A.
 Alpha  occ. eigenvalues --  -14.95808 -10.78187 -10.72874 -10.71407 -10.69951
 Alpha  occ. eigenvalues --  -10.69790 -10.68666 -10.67848 -10.67029 -10.66749
 Alpha  occ. eigenvalues --   -1.22701  -1.08587  -1.05610  -1.01747  -0.96842
 Alpha  occ. eigenvalues --   -0.91154  -0.85602  -0.82387  -0.78978  -0.77768
 Alpha  occ. eigenvalues --   -0.76513  -0.73918  -0.68790  -0.68218  -0.64623
 Alpha  occ. eigenvalues --   -0.62990  -0.62106  -0.61155  -0.58867  -0.57551
 Alpha  occ. eigenvalues --   -0.56737  -0.56132  -0.54249  -0.52086  -0.46395
 Alpha  occ. eigenvalues --   -0.39152
 Alpha virt. eigenvalues --   -0.22678  -0.13566  -0.11297  -0.10185  -0.08423
 Alpha virt. eigenvalues --   -0.08381  -0.07739  -0.06841  -0.06571  -0.05596
 Alpha virt. eigenvalues --   -0.05193  -0.05159  -0.05100  -0.03699  -0.03270
 Alpha virt. eigenvalues --   -0.02995  -0.01995  -0.01308  -0.00857  -0.00776
 Alpha virt. eigenvalues --    0.00858   0.01476   0.01788   0.01990   0.03008
 Alpha virt. eigenvalues --    0.03400   0.04314   0.04687   0.05120   0.05655
 Alpha virt. eigenvalues --    0.05829   0.06099   0.06226   0.06569   0.07895
 Alpha virt. eigenvalues --    0.08373   0.08788   0.09426   0.10066   0.10187
 Alpha virt. eigenvalues --    0.10839   0.11073   0.11210   0.11725   0.12145
 Alpha virt. eigenvalues --    0.12922   0.13575   0.14591   0.15096   0.15910
 Alpha virt. eigenvalues --    0.16697   0.16799   0.17268   0.18839   0.21082
 Alpha virt. eigenvalues --    0.21780   0.22629   0.24398   0.24526   0.27581
 Alpha virt. eigenvalues --    0.28250   0.30055   0.30447   0.31606   0.32352
 Alpha virt. eigenvalues --    0.32984   0.35624   0.37383   0.38462   0.39105
 Alpha virt. eigenvalues --    0.39900   0.40404   0.40754   0.40972   0.41966
 Alpha virt. eigenvalues --    0.42325   0.43024   0.43209   0.43781   0.44496
 Alpha virt. eigenvalues --    0.45387   0.45549   0.45933   0.46687   0.48633
 Alpha virt. eigenvalues --    0.48797   0.48871   0.49146   0.49895   0.50772
 Alpha virt. eigenvalues --    0.52084   0.52196   0.53341   0.54790   0.55315
 Alpha virt. eigenvalues --    0.55753   0.56100   0.56969   0.57913   0.58292
 Alpha virt. eigenvalues --    0.58837   0.58914   0.59807   0.60264   0.60736
 Alpha virt. eigenvalues --    0.62404   0.62604   0.63163   0.63650   0.64309
 Alpha virt. eigenvalues --    0.64591   0.65633   0.65663   0.66371   0.67281
 Alpha virt. eigenvalues --    0.68844   0.69277   0.69866   0.70399   0.71807
 Alpha virt. eigenvalues --    0.73498   0.74484   0.75086   0.76174   0.77067
 Alpha virt. eigenvalues --    0.80796   0.81752   0.84433   0.86573   0.87460
 Alpha virt. eigenvalues --    0.88641   0.89240   0.89794   0.90680   0.91054
 Alpha virt. eigenvalues --    0.91490   0.92115   0.92280   0.92801   0.93603
 Alpha virt. eigenvalues --    0.93872   0.96182   0.98489   1.00140   1.00594
 Alpha virt. eigenvalues --    1.00675   1.01641   1.01900   1.05367   1.05936
 Alpha virt. eigenvalues --    1.07464   1.11532   1.11774   1.12873   1.13460
 Alpha virt. eigenvalues --    1.13886   1.15515   1.16260   1.17319   1.18574
 Alpha virt. eigenvalues --    1.21099   1.22530   1.23764   1.24442   1.26931
 Alpha virt. eigenvalues --    1.28171   1.31561   1.32881   1.34361   1.34957
 Alpha virt. eigenvalues --    1.35385   1.35698   1.36691   1.37016   1.38040
 Alpha virt. eigenvalues --    1.38906   1.39581   1.40155   1.41553   1.41829
 Alpha virt. eigenvalues --    1.43352   1.44029   1.44324   1.46049   1.46797
 Alpha virt. eigenvalues --    1.55137   1.56624   1.57241   1.59313   1.60376
 Alpha virt. eigenvalues --    1.62372   1.63699   1.64259   1.65967   1.68641
 Alpha virt. eigenvalues --    1.70182   1.71130   1.77680   1.83660   1.88430
 Alpha virt. eigenvalues --    1.92174   1.97025   1.99087   2.04036   2.35063
 Alpha virt. eigenvalues --    2.42176   2.42484   2.43629   2.44815   2.46278
 Alpha virt. eigenvalues --    2.47281   2.48684   2.48909   2.49980   2.50262
 Alpha virt. eigenvalues --    2.50792   2.52723   2.53770   2.55571   2.56619
 Alpha virt. eigenvalues --    2.58170   2.58326   2.58720   2.60775   2.60990
 Alpha virt. eigenvalues --    2.61426   2.63718   2.64414   2.65978   2.67468
 Alpha virt. eigenvalues --    2.69530   2.70773   2.71128   2.71447   2.72619
 Alpha virt. eigenvalues --    2.73598   2.75029   2.75709   2.76414   2.76458
 Alpha virt. eigenvalues --    2.78892   2.80077   2.81098   2.82216   2.83683
 Alpha virt. eigenvalues --    2.86390   2.86426   2.86934   2.88381   2.91405
 Alpha virt. eigenvalues --    2.92086   2.93176   2.93472   2.94803   2.96486
 Alpha virt. eigenvalues --    2.99519   3.00265   3.03144   3.03493   3.03959
 Alpha virt. eigenvalues --    3.05275   3.08161   3.08444   3.11106   3.12220
 Alpha virt. eigenvalues --    3.13092   3.13814   3.13996   3.14133   3.15098
 Alpha virt. eigenvalues --    3.15139   3.16309   3.17092   3.17503   3.19033
 Alpha virt. eigenvalues --    3.19692   3.20067   3.21146   3.22342   3.22783
 Alpha virt. eigenvalues --    3.23176   3.24104   3.25776   3.27049   3.27761
 Alpha virt. eigenvalues --    3.28009   3.29247   3.30391   3.32392   3.32830
 Alpha virt. eigenvalues --    3.34066   3.34701   3.35280   3.35496   3.38140
 Alpha virt. eigenvalues --    3.40902   3.41679   3.43080   3.46574   3.47734
 Alpha virt. eigenvalues --    3.50072   3.50611   3.51953   3.54285   3.56764
 Alpha virt. eigenvalues --    3.60291   3.60612   3.60875   3.63496   3.63807
 Alpha virt. eigenvalues --    3.64978   3.66045   3.68483   3.69759   3.70511
 Alpha virt. eigenvalues --    3.71697   3.73878   3.75137   3.76424   3.78036
 Alpha virt. eigenvalues --    3.79590   3.80875   3.81853   3.82480   3.84283
 Alpha virt. eigenvalues --    3.85370   3.89152   3.92035   3.93412   3.98056
 Alpha virt. eigenvalues --    3.98455   3.99640   4.01299   4.02333   4.02970
 Alpha virt. eigenvalues --    4.03328   4.04800   4.05539   4.07778   4.08313
 Alpha virt. eigenvalues --    4.09686   4.11192   4.11617   4.11765   4.14254
 Alpha virt. eigenvalues --    4.15787   4.16180   4.18707   4.24299   4.27384
 Alpha virt. eigenvalues --    4.28723   4.32657   4.35981   4.36650   4.36980
 Alpha virt. eigenvalues --    4.38435   4.40226   4.40820   4.42406   4.46431
 Alpha virt. eigenvalues --    4.48268   4.49650   4.49747   4.51479   4.52339
 Alpha virt. eigenvalues --    4.54585   4.55590   4.56000   4.58196   4.63737
 Alpha virt. eigenvalues --    4.71673   4.79363   4.82836   4.82987   4.87396
 Alpha virt. eigenvalues --    4.89863   4.92568   4.95927   5.03594   5.07440
 Alpha virt. eigenvalues --    5.11801   5.13208   5.17671   5.20109   5.31612
 Alpha virt. eigenvalues --    5.35689   5.40688   5.45419   5.46230   5.51256
 Alpha virt. eigenvalues --    5.53528   5.60159   5.64950   5.69105   5.74315
 Alpha virt. eigenvalues --    5.75265   5.78956   5.80895   5.82542   5.85055
 Alpha virt. eigenvalues --    6.19668   6.40363  24.09832  24.18610  24.23425
 Alpha virt. eigenvalues --   24.24068  24.38886  24.55249  24.66629  24.78243
 Alpha virt. eigenvalues --   24.88663  35.79143
          Condensed to atoms (all electrons):
               1          2          3          4          5          6
     1  N    6.213723   0.278236  -0.010146  -0.015473  -0.003686   0.018704
     2  C    0.278236   5.785581   0.240576   0.149638  -0.134924  -0.457136
     3  C   -0.010146   0.240576   6.528074  -0.648628   0.491555  -0.230692
     4  C   -0.015473   0.149638  -0.648628   7.396609  -0.411343   0.024579
     5  C   -0.003686  -0.134924   0.491555  -0.411343   7.292187  -1.099125
     6  C    0.018704  -0.457136  -0.230692   0.024579  -1.099125   8.994649
     7  C    0.000483  -0.025915  -0.306856  -0.424243   0.200747  -1.065605
     8  C    0.000563  -0.028612  -0.047841  -0.742507  -0.274345  -0.127698
     9  C    0.000007  -0.001724  -0.007034  -0.017205  -0.183699  -0.029831
    10  C    0.000002  -0.000205  -0.002804  -0.032479  -0.028074  -0.401058
    11  H    0.392854  -0.042122   0.014332   0.001282   0.001601   0.000019
    12  H    0.393999  -0.056280   0.023980  -0.000710   0.008168   0.000691
    13  H   -0.039266   0.398669   0.066742  -0.049619  -0.001842  -0.007421
    14  H   -0.009930   0.002670   0.302448   0.059032   0.005979   0.008130
    15  H    0.000089  -0.030097   0.060213   0.202553   0.152617  -0.039281
    16  H    0.000046   0.001218  -0.029105   0.084052   0.227123   0.100982
    17  H    0.000004   0.000794   0.003455  -0.049392   0.103754   0.199077
    18  H    0.000001   0.000090   0.003769   0.001083  -0.004205   0.090146
    19  H    0.000000   0.000064   0.000406   0.007062   0.023552  -0.009840
    20  H    0.000000  -0.000000   0.000008  -0.000064  -0.000974   0.006785
    21  H   -0.000000   0.000000   0.000001   0.000078   0.000274   0.007513
    22  H    0.000000  -0.000000   0.000008   0.000134   0.000636   0.006481
               7          8          9         10         11         12
     1  N    0.000483   0.000563   0.000007   0.000002   0.392854   0.393999
     2  C   -0.025915  -0.028612  -0.001724  -0.000205  -0.042122  -0.056280
     3  C   -0.306856  -0.047841  -0.007034  -0.002804   0.014332   0.023980
     4  C   -0.424243  -0.742507  -0.017205  -0.032479   0.001282  -0.000710
     5  C    0.200747  -0.274345  -0.183699  -0.028074   0.001601   0.008168
     6  C   -1.065605  -0.127698  -0.029831  -0.401058   0.000019   0.000691
     7  C    7.338489  -0.257691   0.512854  -0.157792   0.000019   0.000061
     8  C   -0.257691   7.199568  -0.524701   0.405255  -0.000000   0.000002
     9  C    0.512854  -0.524701   5.790935   0.179972  -0.000000   0.000000
    10  C   -0.157792   0.405255   0.179972   5.660337   0.000000  -0.000000
    11  H    0.000019  -0.000000  -0.000000   0.000000   0.399474  -0.023529
    12  H    0.000061   0.000002   0.000000  -0.000000  -0.023529   0.415132
    13  H   -0.001789  -0.000083  -0.000005  -0.000001  -0.001520   0.002891
    14  H    0.003156   0.000146   0.000019  -0.000000  -0.000034   0.004845
    15  H    0.007347   0.004413  -0.000130   0.000019   0.000001   0.000076
    16  H   -0.017740  -0.001771   0.001254  -0.000090   0.000001   0.000003
    17  H    0.120543  -0.025173   0.003952   0.000966   0.000000   0.000000
    18  H    0.209797   0.097453  -0.032809  -0.000438   0.000000   0.000000
    19  H    0.127474   0.200872   0.050802  -0.042132   0.000000  -0.000000
    20  H   -0.040113   0.026788   0.348141   0.027201   0.000000   0.000000
    21  H   -0.001458   0.069484  -0.070107   0.381880  -0.000000   0.000000
    22  H    0.033168  -0.039130   0.055324   0.319181   0.000000   0.000000
              13         14         15         16         17         18
     1  N   -0.039266  -0.009930   0.000089   0.000046   0.000004   0.000001
     2  C    0.398669   0.002670  -0.030097   0.001218   0.000794   0.000090
     3  C    0.066742   0.302448   0.060213  -0.029105   0.003455   0.003769
     4  C   -0.049619   0.059032   0.202553   0.084052  -0.049392   0.001083
     5  C   -0.001842   0.005979   0.152617   0.227123   0.103754  -0.004205
     6  C   -0.007421   0.008130  -0.039281   0.100982   0.199077   0.090146
     7  C   -0.001789   0.003156   0.007347  -0.017740   0.120543   0.209797
     8  C   -0.000083   0.000146   0.004413  -0.001771  -0.025173   0.097453
     9  C   -0.000005   0.000019  -0.000130   0.001254   0.003952  -0.032809
    10  C   -0.000001  -0.000000   0.000019  -0.000090   0.000966  -0.000438
    11  H   -0.001520  -0.000034   0.000001   0.000001   0.000000   0.000000
    12  H    0.002891   0.004845   0.000076   0.000003   0.000000   0.000000
    13  H    0.450127   0.001918   0.003942   0.000050   0.000011   0.000000
    14  H    0.001918   0.446716   0.002542   0.002850   0.000043  -0.000001
    15  H    0.003942   0.002542   0.452189   0.002465   0.004659   0.000035
    16  H    0.000050   0.002850   0.002465   0.442865   0.002650   0.003277
    17  H    0.000011   0.000043   0.004659   0.002650   0.450525   0.002460
    18  H    0.000000  -0.000001   0.000035   0.003277   0.002460   0.443437
    19  H    0.000000  -0.000000  -0.000002   0.000044   0.004478   0.002752
    20  H    0.000000   0.000000  -0.000000   0.000000   0.000039   0.003441
    21  H    0.000000   0.000000   0.000000   0.000000   0.000000  -0.000014
    22  H    0.000000   0.000000  -0.000000   0.000000   0.000003   0.000043
              19         20         21         22
     1  N    0.000000   0.000000  -0.000000   0.000000
     2  C    0.000064  -0.000000   0.000000  -0.000000
     3  C    0.000406   0.000008   0.000001   0.000008
     4  C    0.007062  -0.000064   0.000078   0.000134
     5  C    0.023552  -0.000974   0.000274   0.000636
     6  C   -0.009840   0.006785   0.007513   0.006481
     7  C    0.127474  -0.040113  -0.001458   0.033168
     8  C    0.200872   0.026788   0.069484  -0.039130
     9  C    0.050802   0.348141  -0.070107   0.055324
    10  C   -0.042132   0.027201   0.381880   0.319181
    11  H    0.000000   0.000000  -0.000000   0.000000
    12  H   -0.000000   0.000000   0.000000   0.000000
    13  H    0.000000   0.000000   0.000000   0.000000
    14  H   -0.000000   0.000000   0.000000   0.000000
    15  H   -0.000002  -0.000000   0.000000  -0.000000
    16  H    0.000044   0.000000   0.000000   0.000000
    17  H    0.004478   0.000039   0.000000   0.000003
    18  H    0.002752   0.003441  -0.000014   0.000043
    19  H    0.453227   0.002387   0.000071   0.002972
    20  H    0.002387   0.456774  -0.005989   0.003076
    21  H    0.000071  -0.005989   0.464922  -0.018194
    22  H    0.002972   0.003076  -0.018194   0.484754
 Mulliken charges:
               1
     1  N   -0.220211
     2  C   -0.080521
     3  C   -0.452460
     4  C    0.465562
     5  C   -0.365976
     6  C    0.009930
     7  C   -0.254935
     8  C    0.065009
     9  C   -0.076016
    10  C   -0.309739
    11  H    0.257621
    12  H    0.230670
    13  H    0.177195
    14  H    0.169470
    15  H    0.176350
    16  H    0.179823
    17  H    0.177152
    18  H    0.179681
    19  H    0.175810
    20  H    0.172501
    21  H    0.171539
    22  H    0.151545
 Sum of Mulliken charges =   1.00000
 Mulliken charges with hydrogens summed into heavy atoms:
               1
     1  N    0.268080
     2  C    0.096674
     3  C   -0.282990
     4  C    0.641912
     5  C   -0.186152
     6  C    0.187082
     7  C   -0.075254
     8  C    0.240819
     9  C    0.096484
    10  C    0.013345
 Electronic spatial extent (au):  <R**2>=           3614.7079
 Charge=              1.0000 electrons
 Dipole moment (field-independent basis, Debye):
    X=              7.2326    Y=             -0.9118    Z=             -0.0077  Tot=              7.2898
 Quadrupole moment (field-independent basis, Debye-Ang):
   XX=             47.2380   YY=            -47.3730   ZZ=            -65.4312
   XY=             -0.3426   XZ=             -0.0141   YZ=             -0.0415
 Traceless Quadrupole moment (field-independent basis, Debye-Ang):
   XX=             69.0934   YY=            -25.5176   ZZ=            -43.5758
   XY=             -0.3426   XZ=             -0.0141   YZ=             -0.0415
 Octapole moment (field-independent basis, Debye-Ang**2):
  XXX=            251.9598  YYY=             -0.6250  ZZZ=             -0.0134  XYY=             17.4499
  XXY=            -18.1101  XXZ=             -0.7640  XZZ=              8.2523  YZZ=             -0.8246
  YYZ=             -0.0231  XYZ=             -0.1157
 Hexadecapole moment (field-independent basis, Debye-Ang**3):
 XXXX=          -1014.7266 YYYY=           -145.6142 ZZZZ=            -73.1469 XXXY=            -10.3542
 XXXZ=              0.4735 YYYX=              2.5902 YYYZ=             -0.1168 ZZZX=             -0.1091
 ZZZY=             -0.0378 XXYY=           -617.7983 XXZZ=           -866.9410 YYZZ=            -44.0260
 XXYZ=             -0.1577 YYXZ=             -0.1057 ZZXY=             -0.6550
 N-N= 4.241121105442D+02 E-N=-1.775614562799D+03  KE= 4.027038833988D+02
 PrsmSu:  requested number of processors reduced to:  45 ShMem   1 Linda.
 No NMR shielding tensors so no spin-rotation constants.
 Leave Link  601 at Sun Apr 18 08:46:26 2021, MaxMem=   104857600 cpu:              92.4 elap:               2.0
 (Enter /s/ls4/users/knvvv/bin/g16sse/l801.exe)
 DoSCS=F DFT=T ScalE2(SS,OS)=  1.000000  1.000000
 Range of M.O.s used for correlation:     1   448
 NBasis=   448 NAE=    36 NBE=    36 NFC=     0 NFV=     0
 NROrb=    448 NOA=    36 NOB=    36 NVA=   412 NVB=   412

 **** Warning!!: The largest alpha MO coefficient is  0.17961193D+03

 Leave Link  801 at Sun Apr 18 08:46:26 2021, MaxMem=   104857600 cpu:               3.8 elap:               0.1
 (Enter /s/ls4/users/knvvv/bin/g16sse/l914.exe)
 RHF ground state
 Doing stability rather than CIS.
 Two-electron integrals replicated using symmetry.
 MDV=   104857600 DFT=T DoStab=T Mixed=T DoRPA=F DoScal=F NonHer=F
 Making orbital integer symmetry assigments:
 Orbital symmetries:
       Occupied  (A) (A) (A) (A) (A) (A) (A) (A) (A) (A) (A) (A)
                 (A) (A) (A) (A) (A) (A) (A) (A) (A) (A) (A) (A)
                 (A) (A) (A) (A) (A) (A) (A) (A) (A) (A) (A) (A)
       Virtual   (A) (A) (A) (A) (A) (A) (A) (A) (A) (A) (A) (A)
                 (A) (A) (A) (A) (A) (A) (A) (A) (A) (A) (A) (A)
                 (A) (A) (A) (A) (A) (A) (A) (A) (A) (A) (A) (A)
                 (A) (A) (A) (A) (A) (A) (A) (A) (A) (A) (A) (A)
                 (A) (A) (A) (A) (A) (A) (A) (A) (A) (A) (A) (A)
                 (A) (A) (A) (A) (A) (A) (A) (A) (A) (A) (A) (A)
                 (A) (A) (A) (A) (A) (A) (A) (A) (A) (A) (A) (A)
                 (A) (A) (A) (A) (A) (A) (A) (A) (A) (A) (A) (A)
                 (A) (A) (A) (A) (A) (A) (A) (A) (A) (A) (A) (A)
                 (A) (A) (A) (A) (A) (A) (A) (A) (A) (A) (A) (A)
                 (A) (A) (A) (A) (A) (A) (A) (A) (A) (A) (A) (A)
                 (A) (A) (A) (A) (A) (A) (A) (A) (A) (A) (A) (A)
                 (A) (A) (A) (A) (A) (A) (A) (A) (A) (A) (A) (A)
                 (A) (A) (A) (A) (A) (A) (A) (A) (A) (A) (A) (A)
                 (A) (A) (A) (A) (A) (A) (A) (A) (A) (A) (A) (A)
                 (A) (A) (A) (A) (A) (A) (A) (A) (A) (A) (A) (A)
                 (A) (A) (A) (A) (A) (A) (A) (A) (A) (A) (A) (A)
                 (A) (A) (A) (A) (A) (A) (A) (A) (A) (A) (A) (A)
                 (A) (A) (A) (A) (A) (A) (A) (A) (A) (A) (A) (A)
                 (A) (A) (A) (A) (A) (A) (A) (A) (A) (A) (A) (A)
                 (A) (A) (A) (A) (A) (A) (A) (A) (A) (A) (A) (A)
                 (A) (A) (A) (A) (A) (A) (A) (A) (A) (A) (A) (A)
                 (A) (A) (A) (A) (A) (A) (A) (A) (A) (A) (A) (A)
                 (A) (A) (A) (A) (A) (A) (A) (A) (A) (A) (A) (A)
                 (A) (A) (A) (A) (A) (A) (A) (A) (A) (A) (A) (A)
                 (A) (A) (A) (A) (A) (A) (A) (A) (A) (A) (A) (A)
                 (A) (A) (A) (A) (A) (A) (A) (A) (A) (A) (A) (A)
                 (A) (A) (A) (A) (A) (A) (A) (A) (A) (A) (A) (A)
                 (A) (A) (A) (A) (A) (A) (A) (A) (A) (A) (A) (A)
                 (A) (A) (A) (A) (A) (A) (A) (A) (A) (A) (A) (A)
                 (A) (A) (A) (A) (A) (A) (A) (A) (A) (A) (A) (A)
                 (A) (A) (A) (A) (A) (A) (A) (A) (A) (A) (A) (A)
                 (A) (A) (A) (A) (A) (A) (A) (A) (A) (A) (A) (A)
                 (A) (A) (A) (A) (A) (A) (A) (A) (A) (A) (A) (A)
                 (A) (A) (A) (A)
    24 initial guesses have been made.
 Convergence on wavefunction:    0.001000000000000
 Davidson Disk Diagonalization:  ConvIn= 1.00D-03 SkipCon=T Conv= 1.00D-03.
 Max sub-space:  2000 roots to seek:    24 dimension of matrix:        29664
 Iteration     1 Dimension    24 NMult     0 NNew     24
 Estimated number of processors is:   31
 CISAX will form     1 AO SS matrices at one time.
 NMat=     1 NSing=     1 JSym2X= 0.
 FoFJK:  IHMeth= 1 ICntrl=       0 DoSepK=F KAlg= 0 I1Cent=           0 FoldK=F
 IRaf= 810000000 NMat=       1 IRICut=       1 DoRegI=T DoRafI=F ISym2E= 0 IDoP0=0 IntGTp=1.
 FoFCou: FMM=F IPFlag=           0 FMFlag=      100000 FMFlg1=           0
         NFxFlg=           0 DoJE=F BraDBF=F KetDBF=F FulRan=T
         wScrn=  0.000000 ICntrl=         0 IOpCl=  0 I1Cent=           0 NGrid=           0
         NMat0=    1 NMatS0=      1 NMatT0=    0 NMatD0=    1 NMtDS0=    0 NMtDT0=    0
 Symmetry not used in FoFCou.
 CoulSu:  requested number of processors reduced to:  42 ShMem   1 Linda.
 NMat=     1 NSing=     1 JSym2X= 0.
 CoulSu:  requested number of processors reduced to:  42 ShMem   1 Linda.
 NMat=     1 NSing=     1 JSym2X= 0.
 CoulSu:  requested number of processors reduced to:  42 ShMem   1 Linda.
 NMat=     1 NSing=     1 JSym2X= 0.
 CoulSu:  requested number of processors reduced to:  42 ShMem   1 Linda.
 NMat=     1 NSing=     1 JSym2X= 0.
 CoulSu:  requested number of processors reduced to:  42 ShMem   1 Linda.
 NMat=     1 NSing=     1 JSym2X= 0.
 CoulSu:  requested number of processors reduced to:  42 ShMem   1 Linda.
 NMat=     1 NSing=     1 JSym2X= 0.
 CoulSu:  requested number of processors reduced to:  42 ShMem   1 Linda.
 NMat=     1 NSing=     1 JSym2X= 0.
 CoulSu:  requested number of processors reduced to:  42 ShMem   1 Linda.
 NMat=     1 NSing=     1 JSym2X= 0.
 CoulSu:  requested number of processors reduced to:  42 ShMem   1 Linda.
 NMat=     1 NSing=     1 JSym2X= 0.
 CoulSu:  requested number of processors reduced to:  42 ShMem   1 Linda.
 NMat=     1 NSing=     1 JSym2X= 0.
 CoulSu:  requested number of processors reduced to:  42 ShMem   1 Linda.
 NMat=     1 NSing=     1 JSym2X= 0.
 CoulSu:  requested number of processors reduced to:  42 ShMem   1 Linda.
 NMat=     1 NSing=     0 JSym2X= 0.
 CoulSu:  requested number of processors reduced to:  42 ShMem   1 Linda.
 NMat=     1 NSing=     0 JSym2X= 0.
 CoulSu:  requested number of processors reduced to:  42 ShMem   1 Linda.
 NMat=     1 NSing=     0 JSym2X= 0.
 CoulSu:  requested number of processors reduced to:  42 ShMem   1 Linda.
 NMat=     1 NSing=     0 JSym2X= 0.
 CoulSu:  requested number of processors reduced to:  42 ShMem   1 Linda.
 NMat=     1 NSing=     0 JSym2X= 0.
 CoulSu:  requested number of processors reduced to:  42 ShMem   1 Linda.
 NMat=     1 NSing=     0 JSym2X= 0.
 CoulSu:  requested number of processors reduced to:  42 ShMem   1 Linda.
 NMat=     1 NSing=     0 JSym2X= 0.
 CoulSu:  requested number of processors reduced to:  42 ShMem   1 Linda.
 NMat=     1 NSing=     0 JSym2X= 0.
 CoulSu:  requested number of processors reduced to:  42 ShMem   1 Linda.
 NMat=     1 NSing=     0 JSym2X= 0.
 CoulSu:  requested number of processors reduced to:  42 ShMem   1 Linda.
 NMat=     1 NSing=     0 JSym2X= 0.
 CoulSu:  requested number of processors reduced to:  42 ShMem   1 Linda.
 NMat=     1 NSing=     0 JSym2X= 0.
 CoulSu:  requested number of processors reduced to:  42 ShMem   1 Linda.
 NMat=     1 NSing=     0 JSym2X= 0.
 CoulSu:  requested number of processors reduced to:  42 ShMem   1 Linda.
 New state      1 was old state      2
 Excitation Energies [eV] at current iteration:
 Root      1 :     1.112160500268453
 Root      2 :     2.698034857076049
 Root      3 :     4.244707312509601
 Root      4 :     4.811320794081190
 Root      5 :     5.112610451362583
 Root      6 :     5.930453544385567
 Root      7 :     6.174893994915746
 Root      8 :     6.182323632232541
 Root      9 :     6.262868877366497
 Root     10 :     6.284413795837883
 Root     11 :     6.318402801999925
 Root     12 :     6.414782620301838
 Root     13 :     6.441022358893116
 Root     14 :     6.573585225355263
 Root     15 :     6.691046973842017
 Root     16 :     6.693946032700864
 Root     17 :     6.877240250562394
 Root     18 :     6.892061597949101
 Root     19 :     6.991436175767563
 Root     20 :     7.195418880253742
 Root     21 :     7.246021470645908
 Root     22 :     7.247655205927138
 Root     23 :     9.799855580621106
 Root     24 :    10.616160418157520
 Iteration     2 Dimension    48 NMult    24 NNew     24
 Estimated number of processors is:   31
 CISAX will form     1 AO SS matrices at one time.
 NMat=     1 NSing=     1 JSym2X= 0.
 CoulSu:  requested number of processors reduced to:  42 ShMem   1 Linda.
 NMat=     1 NSing=     1 JSym2X= 0.
 CoulSu:  requested number of processors reduced to:  42 ShMem   1 Linda.
 NMat=     1 NSing=     1 JSym2X= 0.
 CoulSu:  requested number of processors reduced to:  42 ShMem   1 Linda.
 NMat=     1 NSing=     1 JSym2X= 0.
 CoulSu:  requested number of processors reduced to:  42 ShMem   1 Linda.
 NMat=     1 NSing=     1 JSym2X= 0.
 CoulSu:  requested number of processors reduced to:  42 ShMem   1 Linda.
 NMat=     1 NSing=     1 JSym2X= 0.
 CoulSu:  requested number of processors reduced to:  42 ShMem   1 Linda.
 NMat=     1 NSing=     1 JSym2X= 0.
 CoulSu:  requested number of processors reduced to:  42 ShMem   1 Linda.
 NMat=     1 NSing=     1 JSym2X= 0.
 CoulSu:  requested number of processors reduced to:  42 ShMem   1 Linda.
 NMat=     1 NSing=     1 JSym2X= 0.
 CoulSu:  requested number of processors reduced to:  42 ShMem   1 Linda.
 NMat=     1 NSing=     1 JSym2X= 0.
 CoulSu:  requested number of processors reduced to:  42 ShMem   1 Linda.
 NMat=     1 NSing=     1 JSym2X= 0.
 CoulSu:  requested number of processors reduced to:  42 ShMem   1 Linda.
 NMat=     1 NSing=     1 JSym2X= 0.
 CoulSu:  requested number of processors reduced to:  42 ShMem   1 Linda.
 NMat=     1 NSing=     0 JSym2X= 0.
 CoulSu:  requested number of processors reduced to:  42 ShMem   1 Linda.
 NMat=     1 NSing=     0 JSym2X= 0.
 CoulSu:  requested number of processors reduced to:  42 ShMem   1 Linda.
 NMat=     1 NSing=     0 JSym2X= 0.
 CoulSu:  requested number of processors reduced to:  42 ShMem   1 Linda.
 NMat=     1 NSing=     0 JSym2X= 0.
 CoulSu:  requested number of processors reduced to:  42 ShMem   1 Linda.
 NMat=     1 NSing=     0 JSym2X= 0.
 CoulSu:  requested number of processors reduced to:  42 ShMem   1 Linda.
 NMat=     1 NSing=     0 JSym2X= 0.
 CoulSu:  requested number of processors reduced to:  42 ShMem   1 Linda.
 NMat=     1 NSing=     0 JSym2X= 0.
 CoulSu:  requested number of processors reduced to:  42 ShMem   1 Linda.
 NMat=     1 NSing=     0 JSym2X= 0.
 CoulSu:  requested number of processors reduced to:  42 ShMem   1 Linda.
 NMat=     1 NSing=     0 JSym2X= 0.
 CoulSu:  requested number of processors reduced to:  42 ShMem   1 Linda.
 NMat=     1 NSing=     0 JSym2X= 0.
 CoulSu:  requested number of processors reduced to:  42 ShMem   1 Linda.
 NMat=     1 NSing=     0 JSym2X= 0.
 CoulSu:  requested number of processors reduced to:  42 ShMem   1 Linda.
 NMat=     1 NSing=     0 JSym2X= 0.
 CoulSu:  requested number of processors reduced to:  42 ShMem   1 Linda.
 Root      1 not converged, maximum delta is    0.142823133807613
 Excitation Energies [eV] at current iteration:
 Root      1 :     0.660469317859089   Change is   -0.451691182409364
 Root      2 :     2.260284707647753   Change is   -0.437750149428296
 Root      3 :     3.463285380141846   Change is   -0.781421932367755
 Root      4 :     3.669423693982718   Change is   -1.141897100098471
 Root      5 :     4.163457469057061   Change is   -0.949152982305522
 Root      6 :     4.967451315093865   Change is   -0.963002229291702
 Root      7 :     5.052167846046245   Change is   -1.266234955953680
 Root      8 :     5.727542048528865   Change is   -0.713480310364252
 Root      9 :     5.859230284587856   Change is   -0.555552335713983
 Root     10 :     5.979428765941884   Change is   -0.195465228973862
 Root     11 :     6.035930265082748   Change is   -0.146393367149793
 Root     12 :     6.094911256045322   Change is   -0.167957621321175
 Root     13 :     6.128901441086031   Change is   -0.155512354751851
 Root     14 :     6.199553014652721   Change is   -0.374032210702542
 Root     15 :     6.376338024004867   Change is   -0.615098151762697
 Root     16 :     6.532710980216407   Change is   -0.158335993625611
 Root     17 :     6.558464730839114   Change is   -0.135481301861750
 Root     18 :     6.701535699653799   Change is   -0.175704550908595
 Root     19 :     6.732878483304012   Change is   -0.159183114645088
 Root     20 :     6.796185034373601   Change is   -0.399233845880141
 Root     21 :     6.955805308970980
 Root     22 :     7.069634423180182   Change is   -0.178020782746956
 Root     23 :     7.897493190500485   Change is   -1.902362390120621
 Root     24 :     8.442491379885194
 Iteration     3 Dimension    54 NMult    48 NNew      6
 Estimated number of processors is:   31
 CISAX will form     1 AO SS matrices at one time.
 NMat=     1 NSing=     1 JSym2X= 0.
 CoulSu:  requested number of processors reduced to:  42 ShMem   1 Linda.
 NMat=     1 NSing=     1 JSym2X= 0.
 CoulSu:  requested number of processors reduced to:  42 ShMem   1 Linda.
 NMat=     1 NSing=     1 JSym2X= 0.
 CoulSu:  requested number of processors reduced to:  42 ShMem   1 Linda.
 NMat=     1 NSing=     0 JSym2X= 0.
 CoulSu:  requested number of processors reduced to:  42 ShMem   1 Linda.
 NMat=     1 NSing=     0 JSym2X= 0.
 CoulSu:  requested number of processors reduced to:  42 ShMem   1 Linda.
 NMat=     1 NSing=     0 JSym2X= 0.
 CoulSu:  requested number of processors reduced to:  42 ShMem   1 Linda.
 Root      1 not converged, maximum delta is    0.008030669525972
 Excitation Energies [eV] at current iteration:
 Root      1 :     0.646734653463778   Change is   -0.013734664395310
 Root      2 :     2.225670480620547   Change is   -0.034614227027206
 Root      3 :     3.412876454685842   Change is   -0.050408925456005
 Root      4 :     3.995163652348033   Change is   -0.168293816709028
 Root      5 :     4.939943808653557   Change is   -0.112224037392688
 Root      6 :     6.028458056869535   Change is   -0.007472208213213
 Iteration     4 Dimension    60 NMult    54 NNew      6
 Estimated number of processors is:   31
 CISAX will form     1 AO SS matrices at one time.
 NMat=     1 NSing=     1 JSym2X= 0.
 CoulSu:  requested number of processors reduced to:  42 ShMem   1 Linda.
 NMat=     1 NSing=     1 JSym2X= 0.
 CoulSu:  requested number of processors reduced to:  42 ShMem   1 Linda.
 NMat=     1 NSing=     1 JSym2X= 0.
 CoulSu:  requested number of processors reduced to:  42 ShMem   1 Linda.
 NMat=     1 NSing=     0 JSym2X= 0.
 CoulSu:  requested number of processors reduced to:  42 ShMem   1 Linda.
 NMat=     1 NSing=     0 JSym2X= 0.
 CoulSu:  requested number of processors reduced to:  42 ShMem   1 Linda.
 NMat=     1 NSing=     0 JSym2X= 0.
 CoulSu:  requested number of processors reduced to:  42 ShMem   1 Linda.
 Root      1 not converged, maximum delta is    0.001936082447145
 Excitation Energies [eV] at current iteration:
 Root      1 :     0.646104490543162   Change is   -0.000630162920617
 Root      2 :     2.220866174153789   Change is   -0.004804306466759
 Root      3 :     3.410552628533933   Change is   -0.002323826151909
 Root      4 :     3.978498841969445   Change is   -0.016664810378588
 Root      5 :     4.929720659032345   Change is   -0.010223149621212
 Root      6 :     6.027108805342055   Change is   -0.001349251527480
 Iteration     5 Dimension    66 NMult    60 NNew      6
 Estimated number of processors is:   31
 CISAX will form     1 AO SS matrices at one time.
 NMat=     1 NSing=     1 JSym2X= 0.
 CoulSu:  requested number of processors reduced to:  42 ShMem   1 Linda.
 NMat=     1 NSing=     1 JSym2X= 0.
 CoulSu:  requested number of processors reduced to:  42 ShMem   1 Linda.
 NMat=     1 NSing=     1 JSym2X= 0.
 CoulSu:  requested number of processors reduced to:  42 ShMem   1 Linda.
 NMat=     1 NSing=     0 JSym2X= 0.
 CoulSu:  requested number of processors reduced to:  42 ShMem   1 Linda.
 NMat=     1 NSing=     0 JSym2X= 0.
 CoulSu:  requested number of processors reduced to:  42 ShMem   1 Linda.
 NMat=     1 NSing=     0 JSym2X= 0.
 CoulSu:  requested number of processors reduced to:  42 ShMem   1 Linda.
 Root      1 has converged.
 Excitation Energies [eV] at current iteration:
 Root      1 :     0.646069162012320   Change is   -0.000035328530842
 Root      2 :     2.220372650327597   Change is   -0.000493523826191
 Root      3 :     3.410198101030541   Change is   -0.000354527503392
 Root      4 :     3.975015139610456   Change is   -0.003483702358990
 Root      5 :     4.927744403990277   Change is   -0.001976255042068
 Root      6 :     6.026856190181442   Change is   -0.000252615160613
 Convergence achieved on expansion vectors.
 ***********************************************************************
 Stability analysis using <AA,BB:AA,BB> singles matrix:
 ***********************************************************************
 1PDM for each excited state written to RWF  633
 Ground to excited state transition densities written to RWF  633

 Eigenvectors of the stability matrix:
 
 Eigenvector   1:      Triplet-A    Eigenvalue= 0.0237426  <S**2>=2.000
      35 -> 38        -0.14185
      36 -> 37         0.66574
 The wavefunction is stable under the perturbations considered.
 Leave Link  914 at Sun Apr 18 09:03:26 2021, MaxMem=   104857600 cpu:           47432.3 elap:            1020.5
 (Enter /s/ls4/users/knvvv/bin/g16sse/l508.exe)
 The wavefunction is already stable.
 Leave Link  508 at Sun Apr 18 09:03:26 2021, MaxMem=   104857600 cpu:               2.2 elap:               0.1
 (Enter /s/ls4/users/knvvv/bin/g16sse/l601.exe)
 Copying SCF densities to generalized density rwf, IOpCl= 0 IROHF=0.

 **********************************************************************

            Population analysis using the SCF density.

 **********************************************************************

 Orbital symmetries:
       Occupied  (A) (A) (A) (A) (A) (A) (A) (A) (A) (A) (A) (A)
                 (A) (A) (A) (A) (A) (A) (A) (A) (A) (A) (A) (A)
                 (A) (A) (A) (A) (A) (A) (A) (A) (A) (A) (A) (A)
       Virtual   (A) (A) (A) (A) (A) (A) (A) (A) (A) (A) (A) (A)
                 (A) (A) (A) (A) (A) (A) (A) (A) (A) (A) (A) (A)
                 (A) (A) (A) (A) (A) (A) (A) (A) (A) (A) (A) (A)
                 (A) (A) (A) (A) (A) (A) (A) (A) (A) (A) (A) (A)
                 (A) (A) (A) (A) (A) (A) (A) (A) (A) (A) (A) (A)
                 (A) (A) (A) (A) (A) (A) (A) (A) (A) (A) (A) (A)
                 (A) (A) (A) (A) (A) (A) (A) (A) (A) (A) (A) (A)
                 (A) (A) (A) (A) (A) (A) (A) (A) (A) (A) (A) (A)
                 (A) (A) (A) (A) (A) (A) (A) (A) (A) (A) (A) (A)
                 (A) (A) (A) (A) (A) (A) (A) (A) (A) (A) (A) (A)
                 (A) (A) (A) (A) (A) (A) (A) (A) (A) (A) (A) (A)
                 (A) (A) (A) (A) (A) (A) (A) (A) (A) (A) (A) (A)
                 (A) (A) (A) (A) (A) (A) (A) (A) (A) (A) (A) (A)
                 (A) (A) (A) (A) (A) (A) (A) (A) (A) (A) (A) (A)
                 (A) (A) (A) (A) (A) (A) (A) (A) (A) (A) (A) (A)
                 (A) (A) (A) (A) (A) (A) (A) (A) (A) (A) (A) (A)
                 (A) (A) (A) (A) (A) (A) (A) (A) (A) (A) (A) (A)
                 (A) (A) (A) (A) (A) (A) (A) (A) (A) (A) (A) (A)
                 (A) (A) (A) (A) (A) (A) (A) (A) (A) (A) (A) (A)
                 (A) (A) (A) (A) (A) (A) (A) (A) (A) (A) (A) (A)
                 (A) (A) (A) (A) (A) (A) (A) (A) (A) (A) (A) (A)
                 (A) (A) (A) (A) (A) (A) (A) (A) (A) (A) (A) (A)
                 (A) (A) (A) (A) (A) (A) (A) (A) (A) (A) (A) (A)
                 (A) (A) (A) (A) (A) (A) (A) (A) (A) (A) (A) (A)
                 (A) (A) (A) (A) (A) (A) (A) (A) (A) (A) (A) (A)
                 (A) (A) (A) (A) (A) (A) (A) (A) (A) (A) (A) (A)
                 (A) (A) (A) (A) (A) (A) (A) (A) (A) (A) (A) (A)
                 (A) (A) (A) (A) (A) (A) (A) (A) (A) (A) (A) (A)
                 (A) (A) (A) (A) (A) (A) (A) (A) (A) (A) (A) (A)
                 (A) (A) (A) (A) (A) (A) (A) (A) (A) (A) (A) (A)
                 (A) (A) (A) (A) (A) (A) (A) (A) (A) (A) (A) (A)
                 (A) (A) (A) (A) (A) (A) (A) (A) (A) (A) (A) (A)
                 (A) (A) (A) (A) (A) (A) (A) (A) (A) (A) (A) (A)
                 (A) (A) (A) (A) (A) (A) (A) (A) (A) (A) (A) (A)
                 (A) (A) (A) (A)
 The electronic state is 1-A.
 Alpha  occ. eigenvalues --  -14.95808 -10.78187 -10.72874 -10.71407 -10.69951
 Alpha  occ. eigenvalues --  -10.69790 -10.68666 -10.67848 -10.67029 -10.66749
 Alpha  occ. eigenvalues --   -1.22701  -1.08587  -1.05610  -1.01747  -0.96842
 Alpha  occ. eigenvalues --   -0.91154  -0.85602  -0.82387  -0.78978  -0.77768
 Alpha  occ. eigenvalues --   -0.76513  -0.73918  -0.68790  -0.68218  -0.64623
 Alpha  occ. eigenvalues --   -0.62990  -0.62106  -0.61155  -0.58867  -0.57551
 Alpha  occ. eigenvalues --   -0.56737  -0.56132  -0.54249  -0.52086  -0.46395
 Alpha  occ. eigenvalues --   -0.39152
 Alpha virt. eigenvalues --   -0.22678  -0.13566  -0.11297  -0.10185  -0.08423
 Alpha virt. eigenvalues --   -0.08381  -0.07739  -0.06841  -0.06571  -0.05596
 Alpha virt. eigenvalues --   -0.05193  -0.05159  -0.05100  -0.03699  -0.03270
 Alpha virt. eigenvalues --   -0.02995  -0.01995  -0.01308  -0.00857  -0.00776
 Alpha virt. eigenvalues --    0.00858   0.01476   0.01788   0.01990   0.03008
 Alpha virt. eigenvalues --    0.03400   0.04314   0.04687   0.05120   0.05655
 Alpha virt. eigenvalues --    0.05829   0.06099   0.06226   0.06569   0.07895
 Alpha virt. eigenvalues --    0.08373   0.08788   0.09426   0.10066   0.10187
 Alpha virt. eigenvalues --    0.10839   0.11073   0.11210   0.11725   0.12145
 Alpha virt. eigenvalues --    0.12922   0.13575   0.14591   0.15096   0.15910
 Alpha virt. eigenvalues --    0.16697   0.16799   0.17268   0.18839   0.21082
 Alpha virt. eigenvalues --    0.21780   0.22629   0.24398   0.24526   0.27581
 Alpha virt. eigenvalues --    0.28250   0.30055   0.30447   0.31606   0.32352
 Alpha virt. eigenvalues --    0.32984   0.35624   0.37383   0.38462   0.39105
 Alpha virt. eigenvalues --    0.39900   0.40404   0.40754   0.40972   0.41966
 Alpha virt. eigenvalues --    0.42325   0.43024   0.43209   0.43781   0.44496
 Alpha virt. eigenvalues --    0.45387   0.45549   0.45933   0.46687   0.48633
 Alpha virt. eigenvalues --    0.48797   0.48871   0.49146   0.49895   0.50772
 Alpha virt. eigenvalues --    0.52084   0.52196   0.53341   0.54790   0.55315
 Alpha virt. eigenvalues --    0.55753   0.56100   0.56969   0.57913   0.58292
 Alpha virt. eigenvalues --    0.58837   0.58914   0.59807   0.60264   0.60736
 Alpha virt. eigenvalues --    0.62404   0.62604   0.63163   0.63650   0.64309
 Alpha virt. eigenvalues --    0.64591   0.65633   0.65663   0.66371   0.67281
 Alpha virt. eigenvalues --    0.68844   0.69277   0.69866   0.70399   0.71807
 Alpha virt. eigenvalues --    0.73498   0.74484   0.75086   0.76174   0.77067
 Alpha virt. eigenvalues --    0.80796   0.81752   0.84433   0.86573   0.87460
 Alpha virt. eigenvalues --    0.88641   0.89240   0.89794   0.90680   0.91054
 Alpha virt. eigenvalues --    0.91490   0.92115   0.92280   0.92801   0.93603
 Alpha virt. eigenvalues --    0.93872   0.96182   0.98489   1.00140   1.00594
 Alpha virt. eigenvalues --    1.00675   1.01641   1.01900   1.05367   1.05936
 Alpha virt. eigenvalues --    1.07464   1.11532   1.11774   1.12873   1.13460
 Alpha virt. eigenvalues --    1.13886   1.15515   1.16260   1.17319   1.18574
 Alpha virt. eigenvalues --    1.21099   1.22530   1.23764   1.24442   1.26931
 Alpha virt. eigenvalues --    1.28171   1.31561   1.32881   1.34361   1.34957
 Alpha virt. eigenvalues --    1.35385   1.35698   1.36691   1.37016   1.38040
 Alpha virt. eigenvalues --    1.38906   1.39581   1.40155   1.41553   1.41829
 Alpha virt. eigenvalues --    1.43352   1.44029   1.44324   1.46049   1.46797
 Alpha virt. eigenvalues --    1.55137   1.56624   1.57241   1.59313   1.60376
 Alpha virt. eigenvalues --    1.62372   1.63699   1.64259   1.65967   1.68641
 Alpha virt. eigenvalues --    1.70182   1.71130   1.77680   1.83660   1.88430
 Alpha virt. eigenvalues --    1.92174   1.97025   1.99087   2.04036   2.35063
 Alpha virt. eigenvalues --    2.42176   2.42484   2.43629   2.44815   2.46278
 Alpha virt. eigenvalues --    2.47281   2.48684   2.48909   2.49980   2.50262
 Alpha virt. eigenvalues --    2.50792   2.52723   2.53770   2.55571   2.56619
 Alpha virt. eigenvalues --    2.58170   2.58326   2.58720   2.60775   2.60990
 Alpha virt. eigenvalues --    2.61426   2.63718   2.64414   2.65978   2.67468
 Alpha virt. eigenvalues --    2.69530   2.70773   2.71128   2.71447   2.72619
 Alpha virt. eigenvalues --    2.73598   2.75029   2.75709   2.76414   2.76458
 Alpha virt. eigenvalues --    2.78892   2.80077   2.81098   2.82216   2.83683
 Alpha virt. eigenvalues --    2.86390   2.86426   2.86934   2.88381   2.91405
 Alpha virt. eigenvalues --    2.92086   2.93176   2.93472   2.94803   2.96486
 Alpha virt. eigenvalues --    2.99519   3.00265   3.03144   3.03493   3.03959
 Alpha virt. eigenvalues --    3.05275   3.08161   3.08444   3.11106   3.12220
 Alpha virt. eigenvalues --    3.13092   3.13814   3.13996   3.14133   3.15098
 Alpha virt. eigenvalues --    3.15139   3.16309   3.17092   3.17503   3.19033
 Alpha virt. eigenvalues --    3.19692   3.20067   3.21146   3.22342   3.22783
 Alpha virt. eigenvalues --    3.23176   3.24104   3.25776   3.27049   3.27761
 Alpha virt. eigenvalues --    3.28009   3.29247   3.30391   3.32392   3.32830
 Alpha virt. eigenvalues --    3.34066   3.34701   3.35280   3.35496   3.38140
 Alpha virt. eigenvalues --    3.40902   3.41679   3.43080   3.46574   3.47734
 Alpha virt. eigenvalues --    3.50072   3.50611   3.51953   3.54285   3.56764
 Alpha virt. eigenvalues --    3.60291   3.60612   3.60875   3.63496   3.63807
 Alpha virt. eigenvalues --    3.64978   3.66045   3.68483   3.69759   3.70511
 Alpha virt. eigenvalues --    3.71697   3.73878   3.75137   3.76424   3.78036
 Alpha virt. eigenvalues --    3.79590   3.80875   3.81853   3.82480   3.84283
 Alpha virt. eigenvalues --    3.85370   3.89152   3.92035   3.93412   3.98056
 Alpha virt. eigenvalues --    3.98455   3.99640   4.01299   4.02333   4.02970
 Alpha virt. eigenvalues --    4.03328   4.04800   4.05539   4.07778   4.08313
 Alpha virt. eigenvalues --    4.09686   4.11192   4.11617   4.11765   4.14254
 Alpha virt. eigenvalues --    4.15787   4.16180   4.18707   4.24299   4.27384
 Alpha virt. eigenvalues --    4.28723   4.32657   4.35981   4.36650   4.36980
 Alpha virt. eigenvalues --    4.38435   4.40226   4.40820   4.42406   4.46431
 Alpha virt. eigenvalues --    4.48268   4.49650   4.49747   4.51479   4.52339
 Alpha virt. eigenvalues --    4.54585   4.55590   4.56000   4.58196   4.63737
 Alpha virt. eigenvalues --    4.71673   4.79363   4.82836   4.82987   4.87396
 Alpha virt. eigenvalues --    4.89863   4.92568   4.95927   5.03594   5.07440
 Alpha virt. eigenvalues --    5.11801   5.13208   5.17671   5.20109   5.31612
 Alpha virt. eigenvalues --    5.35689   5.40688   5.45419   5.46230   5.51256
 Alpha virt. eigenvalues --    5.53528   5.60159   5.64950   5.69105   5.74315
 Alpha virt. eigenvalues --    5.75265   5.78956   5.80895   5.82542   5.85055
 Alpha virt. eigenvalues --    6.19668   6.40363  24.09832  24.18610  24.23425
 Alpha virt. eigenvalues --   24.24068  24.38886  24.55249  24.66629  24.78243
 Alpha virt. eigenvalues --   24.88663  35.79143
          Condensed to atoms (all electrons):
               1          2          3          4          5          6
     1  N    6.213723   0.278236  -0.010146  -0.015473  -0.003686   0.018704
     2  C    0.278236   5.785581   0.240576   0.149638  -0.134924  -0.457136
     3  C   -0.010146   0.240576   6.528074  -0.648628   0.491555  -0.230692
     4  C   -0.015473   0.149638  -0.648628   7.396609  -0.411343   0.024579
     5  C   -0.003686  -0.134924   0.491555  -0.411343   7.292187  -1.099125
     6  C    0.018704  -0.457136  -0.230692   0.024579  -1.099125   8.994649
     7  C    0.000483  -0.025915  -0.306856  -0.424243   0.200747  -1.065605
     8  C    0.000563  -0.028612  -0.047841  -0.742507  -0.274345  -0.127698
     9  C    0.000007  -0.001724  -0.007034  -0.017205  -0.183699  -0.029831
    10  C    0.000002  -0.000205  -0.002804  -0.032479  -0.028074  -0.401058
    11  H    0.392854  -0.042122   0.014332   0.001282   0.001601   0.000019
    12  H    0.393999  -0.056280   0.023980  -0.000710   0.008168   0.000691
    13  H   -0.039266   0.398669   0.066742  -0.049619  -0.001842  -0.007421
    14  H   -0.009930   0.002670   0.302448   0.059032   0.005979   0.008130
    15  H    0.000089  -0.030097   0.060213   0.202553   0.152617  -0.039281
    16  H    0.000046   0.001218  -0.029105   0.084052   0.227123   0.100982
    17  H    0.000004   0.000794   0.003455  -0.049392   0.103754   0.199077
    18  H    0.000001   0.000090   0.003769   0.001083  -0.004205   0.090146
    19  H    0.000000   0.000064   0.000406   0.007062   0.023552  -0.009840
    20  H    0.000000  -0.000000   0.000008  -0.000064  -0.000974   0.006785
    21  H   -0.000000   0.000000   0.000001   0.000078   0.000274   0.007513
    22  H    0.000000  -0.000000   0.000008   0.000134   0.000636   0.006481
               7          8          9         10         11         12
     1  N    0.000483   0.000563   0.000007   0.000002   0.392854   0.393999
     2  C   -0.025915  -0.028612  -0.001724  -0.000205  -0.042122  -0.056280
     3  C   -0.306856  -0.047841  -0.007034  -0.002804   0.014332   0.023980
     4  C   -0.424243  -0.742507  -0.017205  -0.032479   0.001282  -0.000710
     5  C    0.200747  -0.274345  -0.183699  -0.028074   0.001601   0.008168
     6  C   -1.065605  -0.127698  -0.029831  -0.401058   0.000019   0.000691
     7  C    7.338489  -0.257691   0.512854  -0.157792   0.000019   0.000061
     8  C   -0.257691   7.199568  -0.524701   0.405255  -0.000000   0.000002
     9  C    0.512854  -0.524701   5.790935   0.179972  -0.000000   0.000000
    10  C   -0.157792   0.405255   0.179972   5.660337   0.000000  -0.000000
    11  H    0.000019  -0.000000  -0.000000   0.000000   0.399474  -0.023529
    12  H    0.000061   0.000002   0.000000  -0.000000  -0.023529   0.415132
    13  H   -0.001789  -0.000083  -0.000005  -0.000001  -0.001520   0.002891
    14  H    0.003156   0.000146   0.000019  -0.000000  -0.000034   0.004845
    15  H    0.007347   0.004413  -0.000130   0.000019   0.000001   0.000076
    16  H   -0.017740  -0.001771   0.001254  -0.000090   0.000001   0.000003
    17  H    0.120543  -0.025173   0.003952   0.000966   0.000000   0.000000
    18  H    0.209797   0.097453  -0.032809  -0.000438   0.000000   0.000000
    19  H    0.127474   0.200872   0.050802  -0.042132   0.000000  -0.000000
    20  H   -0.040113   0.026788   0.348141   0.027201   0.000000   0.000000
    21  H   -0.001458   0.069484  -0.070107   0.381880  -0.000000   0.000000
    22  H    0.033168  -0.039130   0.055324   0.319181   0.000000   0.000000
              13         14         15         16         17         18
     1  N   -0.039266  -0.009930   0.000089   0.000046   0.000004   0.000001
     2  C    0.398669   0.002670  -0.030097   0.001218   0.000794   0.000090
     3  C    0.066742   0.302448   0.060213  -0.029105   0.003455   0.003769
     4  C   -0.049619   0.059032   0.202553   0.084052  -0.049392   0.001083
     5  C   -0.001842   0.005979   0.152617   0.227123   0.103754  -0.004205
     6  C   -0.007421   0.008130  -0.039281   0.100982   0.199077   0.090146
     7  C   -0.001789   0.003156   0.007347  -0.017740   0.120543   0.209797
     8  C   -0.000083   0.000146   0.004413  -0.001771  -0.025173   0.097453
     9  C   -0.000005   0.000019  -0.000130   0.001254   0.003952  -0.032809
    10  C   -0.000001  -0.000000   0.000019  -0.000090   0.000966  -0.000438
    11  H   -0.001520  -0.000034   0.000001   0.000001   0.000000   0.000000
    12  H    0.002891   0.004845   0.000076   0.000003   0.000000   0.000000
    13  H    0.450127   0.001918   0.003942   0.000050   0.000011   0.000000
    14  H    0.001918   0.446716   0.002542   0.002850   0.000043  -0.000001
    15  H    0.003942   0.002542   0.452189   0.002465   0.004659   0.000035
    16  H    0.000050   0.002850   0.002465   0.442865   0.002650   0.003277
    17  H    0.000011   0.000043   0.004659   0.002650   0.450525   0.002460
    18  H    0.000000  -0.000001   0.000035   0.003277   0.002460   0.443437
    19  H    0.000000  -0.000000  -0.000002   0.000044   0.004478   0.002752
    20  H    0.000000   0.000000  -0.000000   0.000000   0.000039   0.003441
    21  H    0.000000   0.000000   0.000000   0.000000   0.000000  -0.000014
    22  H    0.000000   0.000000  -0.000000   0.000000   0.000003   0.000043
              19         20         21         22
     1  N    0.000000   0.000000  -0.000000   0.000000
     2  C    0.000064  -0.000000   0.000000  -0.000000
     3  C    0.000406   0.000008   0.000001   0.000008
     4  C    0.007062  -0.000064   0.000078   0.000134
     5  C    0.023552  -0.000974   0.000274   0.000636
     6  C   -0.009840   0.006785   0.007513   0.006481
     7  C    0.127474  -0.040113  -0.001458   0.033168
     8  C    0.200872   0.026788   0.069484  -0.039130
     9  C    0.050802   0.348141  -0.070107   0.055324
    10  C   -0.042132   0.027201   0.381880   0.319181
    11  H    0.000000   0.000000  -0.000000   0.000000
    12  H   -0.000000   0.000000   0.000000   0.000000
    13  H    0.000000   0.000000   0.000000   0.000000
    14  H   -0.000000   0.000000   0.000000   0.000000
    15  H   -0.000002  -0.000000   0.000000  -0.000000
    16  H    0.000044   0.000000   0.000000   0.000000
    17  H    0.004478   0.000039   0.000000   0.000003
    18  H    0.002752   0.003441  -0.000014   0.000043
    19  H    0.453227   0.002387   0.000071   0.002972
    20  H    0.002387   0.456774  -0.005989   0.003076
    21  H    0.000071  -0.005989   0.464922  -0.018194
    22  H    0.002972   0.003076  -0.018194   0.484754
 Mulliken charges:
               1
     1  N   -0.220211
     2  C   -0.080521
     3  C   -0.452460
     4  C    0.465562
     5  C   -0.365976
     6  C    0.009930
     7  C   -0.254935
     8  C    0.065009
     9  C   -0.076016
    10  C   -0.309739
    11  H    0.257621
    12  H    0.230670
    13  H    0.177195
    14  H    0.169470
    15  H    0.176350
    16  H    0.179823
    17  H    0.177152
    18  H    0.179681
    19  H    0.175810
    20  H    0.172501
    21  H    0.171539
    22  H    0.151545
 Sum of Mulliken charges =   1.00000
 Mulliken charges with hydrogens summed into heavy atoms:
               1
     1  N    0.268080
     2  C    0.096674
     3  C   -0.282990
     4  C    0.641912
     5  C   -0.186152
     6  C    0.187082
     7  C   -0.075254
     8  C    0.240819
     9  C    0.096484
    10  C    0.013345
 Electronic spatial extent (au):  <R**2>=           3614.7079
 Charge=              1.0000 electrons
 Dipole moment (field-independent basis, Debye):
    X=              7.2326    Y=             -0.9118    Z=             -0.0077  Tot=              7.2898
 Quadrupole moment (field-independent basis, Debye-Ang):
   XX=             47.2380   YY=            -47.3730   ZZ=            -65.4312
   XY=             -0.3426   XZ=             -0.0141   YZ=             -0.0415
 Traceless Quadrupole moment (field-independent basis, Debye-Ang):
   XX=             69.0934   YY=            -25.5176   ZZ=            -43.5758
   XY=             -0.3426   XZ=             -0.0141   YZ=             -0.0415
 Octapole moment (field-independent basis, Debye-Ang**2):
  XXX=            251.9598  YYY=             -0.6250  ZZZ=             -0.0134  XYY=             17.4499
  XXY=            -18.1101  XXZ=             -0.7640  XZZ=              8.2523  YZZ=             -0.8246
  YYZ=             -0.0231  XYZ=             -0.1157
 Hexadecapole moment (field-independent basis, Debye-Ang**3):
 XXXX=          -1014.7266 YYYY=           -145.6142 ZZZZ=            -73.1469 XXXY=            -10.3542
 XXXZ=              0.4735 YYYX=              2.5902 YYYZ=             -0.1168 ZZZX=             -0.1091
 ZZZY=             -0.0378 XXYY=           -617.7983 XXZZ=           -866.9410 YYZZ=            -44.0260
 XXYZ=             -0.1577 YYXZ=             -0.1057 ZZXY=             -0.6550
 N-N= 4.241121105442D+02 E-N=-1.775614562799D+03  KE= 4.027038833988D+02
 PrsmSu:  requested number of processors reduced to:  45 ShMem   1 Linda.
 No NMR shielding tensors so no spin-rotation constants.
 Leave Link  601 at Sun Apr 18 09:03:28 2021, MaxMem=   104857600 cpu:              66.8 elap:               1.5
 (Enter /s/ls4/users/knvvv/bin/g16sse/l9999.exe)

 Test job not archived.
 1\1\GINC-N178\Stability\RM062X\Gen\C9H12N1(1+)\KNVVV\18-Apr-2021\0\\#P
  M062X/GEN Integral=UltraFineGrid SCF=NoSymm Stable=(RExt, Opt) IOp(1/
 33=1)\\Database calculations.\\1,1\N,0,5.40296,-0.01494,-0.00514\C,0,4
 .15531,-0.45786,-0.0022\C,0,3.01912,0.35418,-0.00074\C,0,1.76133,-0.22
 748,-0.00353\C,0,0.54653,0.48336,-0.00624\C,0,-0.66482,-0.1768,0.02044
 \C,0,-1.9298,0.4659,0.02019\C,0,-3.09821,-0.25056,-0.00047\C,0,-4.4089
 4,0.34106,-0.00839\C,0,-5.53326,-0.41235,-0.01084\H,0,6.18472,-0.65355
 ,-0.00396\H,0,5.61424,0.97385,-0.00719\H,0,4.04387,-1.53705,-0.00021\H
 ,0,3.12648,1.43325,-0.00293\H,0,1.70194,-1.3146,0.00251\H,0,0.56787,1.
 56831,-0.01874\H,0,-0.65669,-1.26537,0.03146\H,0,-1.96521,1.55095,0.02
 193\H,0,-3.04231,-1.3373,-0.00531\H,0,-4.4812,1.42324,-0.00825\H,0,-6.
 51454,0.04039,-0.0126\H,0,-5.48337,-1.49412,-0.01006\\Version=ES64L-G1
 6RevA.03\State=1-A\HF=-404.5852995\RMSD=3.133e-09\Dipole=2.8455056,-0.
 3587217,-0.0030485\Quadrupole=51.369247,-18.9717318,-32.3975152,-0.254
 6955,-0.0105011,-0.0308702\PG=C01 [X(C9H12N1)]\\@


 At the touch of love, everyone becomves a poet.
                                -- Plato
 Job cpu time:       0 days 14 hours 35 minutes 41.4 seconds.
 Elapsed time:       0 days  0 hours 18 minutes 53.0 seconds.
 File lengths (MBytes):  RWF=    713 Int=      0 D2E=      0 Chk=     29 Scr=      1
 Normal termination of Gaussian 16 at Sun Apr 18 09:03:28 2021.
