 Entering Gaussian System, Link 0=/s/ls4/users/knvvv/bin/g16sse/g16
 Input=data/database/M062X--def2-QZVPPD--132_Cysteine_xac_YMPJ519.gjf
 Output=data/database/M062X--def2-QZVPPD--132_Cysteine_xac_YMPJ519.log
 Initial command:
 /s/ls4/users/knvvv/bin/g16sse/l1.exe "/s/ls4/users/knvvv/bin/scratch/Gau-21266.inp" -scrdir="/s/ls4/users/knvvv/bin/scratch/"
 Entering Link 1 = /s/ls4/users/knvvv/bin/g16sse/l1.exe PID=     21267.
  
 Copyright (c) 1988,1990,1992,1993,1995,1998,2003,2009,2016,
            Gaussian, Inc.  All Rights Reserved.
  
 This is part of the Gaussian(R) 16 program.  It is based on
 the Gaussian(R) 09 system (copyright 2009, Gaussian, Inc.),
 the Gaussian(R) 03 system (copyright 2003, Gaussian, Inc.),
 the Gaussian(R) 98 system (copyright 1998, Gaussian, Inc.),
 the Gaussian(R) 94 system (copyright 1995, Gaussian, Inc.),
 the Gaussian 92(TM) system (copyright 1992, Gaussian, Inc.),
 the Gaussian 90(TM) system (copyright 1990, Gaussian, Inc.),
 the Gaussian 88(TM) system (copyright 1988, Gaussian, Inc.),
 the Gaussian 86(TM) system (copyright 1986, Carnegie Mellon
 University), and the Gaussian 82(TM) system (copyright 1983,
 Carnegie Mellon University). Gaussian is a federally registered
 trademark of Gaussian, Inc.
  
 This software contains proprietary and confidential information,
 including trade secrets, belonging to Gaussian, Inc.
  
 This software is provided under written license and may be
 used, copied, transmitted, or stored only in accord with that
 written license.
  
 The following legend is applicable only to US Government
 contracts under FAR:
  
                    RESTRICTED RIGHTS LEGEND
  
 Use, reproduction and disclosure by the US Government is
 subject to restrictions as set forth in subparagraphs (a)
 and (c) of the Commercial Computer Software - Restricted
 Rights clause in FAR 52.227-19.
  
 Gaussian, Inc.
 340 Quinnipiac St., Bldg. 40, Wallingford CT 06492
  
  
 ---------------------------------------------------------------
 Warning -- This program may not be used in any manner that
 competes with the business of Gaussian, Inc. or will provide
 assistance to any competitor of Gaussian, Inc.  The licensee
 of this program is prohibited from giving any competitor of
 Gaussian, Inc. access to this program.  By using this program,
 the user acknowledges that Gaussian, Inc. is engaged in the
 business of creating and licensing software in the field of
 computational chemistry and represents and warrants to the
 licensee that it is not a competitor of Gaussian, Inc. and that
 it will not use this program in any manner prohibited above.
 ---------------------------------------------------------------
  

 Cite this work as:
 Gaussian 16, Revision A.03,
 M. J. Frisch, G. W. Trucks, H. B. Schlegel, G. E. Scuseria, 
 M. A. Robb, J. R. Cheeseman, G. Scalmani, V. Barone, 
 G. A. Petersson, H. Nakatsuji, X. Li, M. Caricato, A. V. Marenich, 
 J. Bloino, B. G. Janesko, R. Gomperts, B. Mennucci, H. P. Hratchian, 
 J. V. Ortiz, A. F. Izmaylov, J. L. Sonnenberg, D. Williams-Young, 
 F. Ding, F. Lipparini, F. Egidi, J. Goings, B. Peng, A. Petrone, 
 T. Henderson, D. Ranasinghe, V. G. Zakrzewski, J. Gao, N. Rega, 
 G. Zheng, W. Liang, M. Hada, M. Ehara, K. Toyota, R. Fukuda, 
 J. Hasegawa, M. Ishida, T. Nakajima, Y. Honda, O. Kitao, H. Nakai, 
 T. Vreven, K. Throssell, J. A. Montgomery, Jr., J. E. Peralta, 
 F. Ogliaro, M. J. Bearpark, J. J. Heyd, E. N. Brothers, K. N. Kudin, 
 V. N. Staroverov, T. A. Keith, R. Kobayashi, J. Normand, 
 K. Raghavachari, A. P. Rendell, J. C. Burant, S. S. Iyengar, 
 J. Tomasi, M. Cossi, J. M. Millam, M. Klene, C. Adamo, R. Cammi, 
 J. W. Ochterski, R. L. Martin, K. Morokuma, O. Farkas, 
 J. B. Foresman, and D. J. Fox, Gaussian, Inc., Wallingford CT, 2016.
 
 ******************************************
 Gaussian 16:  ES64L-G16RevA.03 25-Dec-2016
                17-Apr-2021 
 ******************************************
 %RWF=temp19_33196,70GB
 %nprocshared=48
 Will use up to   48 processors via shared memory.
 Default route: MaxDisk=80GB
 ----------------------------------------------------------------------
 #P M062X/GEN Integral=UltraFineGrid SCF=NoSymm Stable=(RExt, Opt) IOp(
 1/33=1)
 ----------------------------------------------------------------------
 1/33=1,38=1,172=1/1;
 2/12=2,17=6,18=5,40=1/2;
 3/5=7,11=2,25=1,30=1,74=-55,75=-5/1,2,3;
 4/9=2/1;
 5/5=2,38=5/2;
 6/7=2,8=2,9=2,10=2,28=1/1;
 8/6=1,10=90,11=11/1;
 9/8=-3,42=1,46=1/14;
 5/5=2,8=3,17=40,38=5/8(-2);
 6/7=2,8=2,9=2,10=2,28=1/1;
 99/5=1,9=1/99;
 Leave Link    1 at Sat Apr 17 05:43:28 2021, MaxMem=           0 cpu:              10.7 elap:               0.2
 (Enter /s/ls4/users/knvvv/bin/g16sse/l101.exe)
 ONIOM data not found on unit 2.
 ----------------------
 Database calculations.
 ----------------------
 TstMul:  ICh=     0
 TstMul:  Mul=     1
 TstMul:  ICh=     0
 TstMul:  Mul=     1
 Symbolic Z-matrix:
 Charge =  0 Multiplicity = 1
 N                     0.91607  -0.40856  -0.23363 
 C                    -0.04012   0.13571   0.70365 
 C                    -1.47386  -0.3132    0.41385 
 O                    -2.42786   0.31825   0.85184 
 C                     0.01473   1.65593   0.78279 
 S                    -0.26507   2.44813  -0.83593 
 H                     0.84507  -0.07241  -1.18243 
 H                     0.23485  -0.27135   1.67929 
 H                    -0.78628   2.00192   1.42977 
 H                     0.9692    1.98478   1.18511 
 C                     2.13711  -0.87512   0.19322 
 O                     2.39764  -1.0562    1.37203 
 N                    -1.58215  -1.44609  -0.31543 
 C                    -2.86354  -2.05624  -0.59345 
 H                    -3.6296   -1.319    -0.37473 
 H                    -2.92672  -2.34449  -1.63992 
 H                    -3.03312  -2.93346   0.0297 
 H                    -0.72735  -1.90472  -0.57908 
 C                     3.12409  -1.17098  -0.90983 
 H                     3.94627  -0.46171  -0.83736 
 H                     2.68654  -1.11099  -1.90337 
 H                     3.53342  -2.16499  -0.75167 
 H                     1.01953   2.50043  -1.20208 
 
 RdStrC is calling ZToCFu for IStruc=1 NZ=    23.
 PrtBox:  NBox=     4 Levels=  2 BoxLen=    8.00 SMaxX=       14.32
          Shift=            6.858950            5.543429            3.596845
 Box      1 Number                   0 centers from      1 to     10:
 Box      2 Number                   2 centers from     11 to     13:
 Box      3 Number                   4 centers from     14 to     21:
 Box      4 Number                   6 centers from     22 to     23:
 After GenITR:
 ITRead=  0  0  0  0  0  0  0  0  0  0  0  0  0  0  0  0  0  0  0  0
 ITRead=  0  0  0
 MicOpt= -1 -1 -1 -1 -1 -1 -1 -1 -1 -1 -1 -1 -1 -1 -1 -1 -1 -1 -1 -1
 MicOpt= -1 -1 -1
 ITRead=  0  0  0  0  0  0  0  0  0  0  0  0  0  0  0  0  0  0  0  0
 ITRead=  0  0  0
 MicOpt= -1 -1 -1 -1 -1 -1 -1 -1 -1 -1 -1 -1 -1 -1 -1 -1 -1 -1 -1 -1
 MicOpt= -1 -1 -1
 NAtoms=     23 NQM=       23 NQMF=       0 NMMI=      0 NMMIF=      0
                NMic=       0 NMicF=      0.
                    Isotopes and Nuclear Properties:
 (Nuclear quadrupole moments (NQMom) in fm**2, nuclear magnetic moments (NMagM)
  in nuclear magnetons)

  Atom         1           2           3           4           5           6           7           8           9          10
 IAtWgt=          14          12          12          16          12          32           1           1           1           1
 AtmWgt=  14.0030740  12.0000000  12.0000000  15.9949146  12.0000000  31.9720718   1.0078250   1.0078250   1.0078250   1.0078250
 NucSpn=           2           0           0           0           0           0           1           1           1           1
 AtZEff=  -0.0000000  -0.0000000  -0.0000000  -0.0000000  -0.0000000  -0.0000000  -0.0000000  -0.0000000  -0.0000000  -0.0000000
 NQMom=    2.0440000   0.0000000   0.0000000   0.0000000   0.0000000   0.0000000   0.0000000   0.0000000   0.0000000   0.0000000
 NMagM=    0.4037610   0.0000000   0.0000000   0.0000000   0.0000000   0.0000000   2.7928460   2.7928460   2.7928460   2.7928460
 AtZNuc=   7.0000000   6.0000000   6.0000000   8.0000000   6.0000000  16.0000000   1.0000000   1.0000000   1.0000000   1.0000000

  Atom        11          12          13          14          15          16          17          18          19          20
 IAtWgt=          12          16          14          12           1           1           1           1          12           1
 AtmWgt=  12.0000000  15.9949146  14.0030740  12.0000000   1.0078250   1.0078250   1.0078250   1.0078250  12.0000000   1.0078250
 NucSpn=           0           0           2           0           1           1           1           1           0           1
 AtZEff=  -0.0000000  -0.0000000  -0.0000000  -0.0000000  -0.0000000  -0.0000000  -0.0000000  -0.0000000  -0.0000000  -0.0000000
 NQMom=    0.0000000   0.0000000   2.0440000   0.0000000   0.0000000   0.0000000   0.0000000   0.0000000   0.0000000   0.0000000
 NMagM=    0.0000000   0.0000000   0.4037610   0.0000000   2.7928460   2.7928460   2.7928460   2.7928460   0.0000000   2.7928460
 AtZNuc=   6.0000000   8.0000000   7.0000000   6.0000000   1.0000000   1.0000000   1.0000000   1.0000000   6.0000000   1.0000000

  Atom        21          22          23
 IAtWgt=           1           1           1
 AtmWgt=   1.0078250   1.0078250   1.0078250
 NucSpn=           1           1           1
 AtZEff=  -0.0000000  -0.0000000  -0.0000000
 NQMom=    0.0000000   0.0000000   0.0000000
 NMagM=    2.7928460   2.7928460   2.7928460
 AtZNuc=   1.0000000   1.0000000   1.0000000
 No MM parameters found.
 Leave Link  101 at Sat Apr 17 05:43:28 2021, MaxMem=   104857600 cpu:               7.4 elap:               0.2
 (Enter /s/ls4/users/knvvv/bin/g16sse/l202.exe)
                          Input orientation:                          
 ---------------------------------------------------------------------
 Center     Atomic      Atomic             Coordinates (Angstroms)
 Number     Number       Type             X           Y           Z
 ---------------------------------------------------------------------
      1          7           0        0.916069   -0.408561   -0.233631
      2          6           0       -0.040125    0.135709    0.703650
      3          6           0       -1.473857   -0.313201    0.413848
      4          8           0       -2.427863    0.318247    0.851835
      5          6           0        0.014732    1.655933    0.782791
      6         16           0       -0.265074    2.448129   -0.835930
      7          1           0        0.845073   -0.072413   -1.182426
      8          1           0        0.234847   -0.271345    1.679289
      9          1           0       -0.786285    2.001924    1.429772
     10          1           0        0.969201    1.984775    1.185107
     11          6           0        2.137111   -0.875119    0.193222
     12          8           0        2.397637   -1.056202    1.372027
     13          7           0       -1.582154   -1.446090   -0.315426
     14          6           0       -2.863545   -2.056236   -0.593448
     15          1           0       -3.629600   -1.319000   -0.374726
     16          1           0       -2.926723   -2.344489   -1.639918
     17          1           0       -3.033118   -2.933456    0.029701
     18          1           0       -0.727352   -1.904722   -0.579078
     19          6           0        3.124091   -1.170981   -0.909831
     20          1           0        3.946270   -0.461712   -0.837362
     21          1           0        2.686539   -1.110987   -1.903368
     22          1           0        3.533418   -2.164994   -0.751671
     23          1           0        1.019531    2.500427   -1.202081
 ---------------------------------------------------------------------
                    Distance matrix (angstroms):
                    1          2          3          4          5
     1  N    0.000000
     2  C    1.445348   0.000000
     3  C    2.477916   1.530063   0.000000
     4  O    3.590037   2.399286   1.225025   0.000000
     5  C    2.471368   1.523271   2.495898   2.785757   0.000000
     6  S    3.149372   2.787148   3.263135   3.473126   1.823766
     7  H    1.009083   2.093841   2.825510   3.873363   2.745673
     8  H    2.035228   1.092325   2.126679   2.849969   2.136952
     9  H    3.387530   2.137000   2.620050   2.421478   1.086243
    10  H    2.782750   2.160922   3.441521   3.798477   1.086740
    11  C    1.375072   2.454112   3.661082   4.764125   3.355341
    12  O    2.278732   2.794649   4.056923   5.044320   3.658020
    13  N    2.706339   2.432788   1.351668   2.278291   3.657687
    14  C    4.138814   3.802471   2.446231   2.813687   4.894764
    15  H    4.638094   4.020374   2.506134   2.372594   4.844712
    16  H    4.526865   4.469468   3.233405   3.680742   5.524949
    17  H    4.694733   4.339584   3.073207   3.408198   5.560489
    18  H    2.249147   2.506198   2.018938   3.143381   3.883767
    19  C    2.431849   3.784576   4.860971   6.012109   4.530400
    20  H    3.090216   4.315434   5.564653   6.640128   4.750400
    21  H    2.532981   3.973096   4.828545   5.982555   4.691466
    22  H    3.194360   4.492371   5.464465   6.653916   5.416199
    23  H    3.067705   3.216609   4.092031   4.567823   2.379602
                    6          7          8          9         10
     6  S    0.000000
     7  H    2.775900   0.000000
     8  H    3.737886   2.932808   0.000000
     9  H    2.367312   3.713190   2.504540   0.000000
    10  H    2.413031   3.138891   2.423545   1.772536   0.000000
    11  C    4.227721   2.050879   2.488283   4.284003   3.244510
    12  O    4.923966   3.146986   2.321222   4.415068   3.364954
    13  N    4.143738   2.920635   2.942857   3.945621   4.531208
    14  C    5.205781   4.246916   4.236886   4.987694   5.846620
    15  H    5.071884   4.714771   4.500057   4.729608   5.873413
    16  H    5.540755   4.426971   5.030963   5.735484   6.473138
    17  H    6.113334   4.969425   4.526320   5.600575   6.445348
    18  H    4.384859   2.488756   2.948554   4.393272   4.595523
    19  C    4.958816   2.544618   3.982539   5.552667   4.357880
    20  H    5.118847   3.144526   4.488255   5.797109   4.351853
    21  H    4.745393   2.233695   4.421677   5.732412   4.698050
    22  H    5.976332   3.433896   4.513983   6.386058   5.248515
    23  H    1.336792   2.578823   4.074402   3.230500   2.442764
                   11         12         13         14         15
    11  C    0.000000
    12  O    1.220757   0.000000
    13  N    3.797060   4.340305   0.000000
    14  C    5.198120   5.704665   1.446215   0.000000
    15  H    5.811588   6.280748   2.052244   1.085448   0.000000
    16  H    5.582281   6.251424   2.090279   1.087281   1.773803
    17  H    5.567294   5.900765   2.106340   1.089305   1.767999
    18  H    3.140331   3.780523   1.005257   2.141607   2.967806
    19  C    1.509433   2.397453   4.751604   6.060986   6.776473
    20  H    2.122749   2.762803   5.639582   6.998255   7.638245
    21  H    2.180182   3.288568   4.566793   5.780382   6.501818
    22  H    2.122798   2.651323   5.184227   6.399844   7.222647
    23  H    3.819708   4.601611   4.809357   6.017632   6.073464
                   16         17         18         19         20
    16  H    0.000000
    17  H    1.773649   0.000000
    18  H    2.481130   2.597203   0.000000
    19  C    6.206649   6.473041   3.934639   0.000000
    20  H    7.171260   7.454742   4.898136   1.088253   0.000000
    21  H    5.753229   6.306554   3.746787   1.087275   1.773372
    22  H    6.523390   6.657362   4.272200   1.086566   1.754697
    23  H    6.264011   6.889727   4.779652   4.241912   4.180082
                   21         22         23
    21  H    0.000000
    22  H    1.776102   0.000000
    23  H    4.038940   5.318708   0.000000
 Stoichiometry    C6H12N2O2S
 Framework group  C1[X(C6H12N2O2S)]
 Deg. of freedom    63
 Full point group                 C1      NOp   1
 Largest Abelian subgroup         C1      NOp   1
 Largest concise Abelian subgroup C1      NOp   1
                         Standard orientation:                         
 ---------------------------------------------------------------------
 Center     Atomic      Atomic             Coordinates (Angstroms)
 Number     Number       Type             X           Y           Z
 ---------------------------------------------------------------------
      1          7           0        0.951372   -0.332484   -0.252113
      2          6           0       -0.027763    0.119754    0.710075
      3          6           0       -1.437572   -0.389661    0.403435
      4          8           0       -2.421107    0.171628    0.870662
      5          6           0       -0.051220    1.635825    0.856141
      6         16           0       -0.378332    2.482891   -0.725504
      7          1           0        0.859149    0.040942   -1.185010
      8          1           0        0.271938   -0.315024    1.666276
      9          1           0       -0.866349    1.911052    1.519269
     10          1           0        0.886643    1.995668    1.270786
     11          6           0        2.196662   -0.753468    0.151432
     12          8           0        2.471104   -0.972483    1.320603
     13          7           0       -1.490207   -1.493464   -0.374931
     14          6           0       -2.739498   -2.156367   -0.677206
     15          1           0       -3.541715   -1.470152   -0.424714
     16          1           0       -2.792049   -2.401199   -1.735259
     17          1           0       -2.860911   -3.067756   -0.093069
     18          1           0       -0.613949   -1.895146   -0.660177
     19          6           0        3.193014   -0.948986   -0.965458
     20          1           0        3.977731   -0.201941   -0.863297
     21          1           0        2.748814   -0.868102   -1.954555
     22          1           0        3.653822   -1.926446   -0.852100
     23          1           0        0.900318    2.617737   -1.091404
 ---------------------------------------------------------------------
 Rotational constants (GHZ):           1.0029631           0.7054645           0.5064160
 Leave Link  202 at Sat Apr 17 05:43:29 2021, MaxMem=   104857600 cpu:               5.7 elap:               0.1
 (Enter /s/ls4/users/knvvv/bin/g16sse/l301.exe)
 General basis read from cards:  (5D, 7F)
 Centers:       7      8      9     10     15     16     17     18     20     21
 Centers:      22     23
 S 4 1.00
     Exponent=  1.9069169000D+02 Coefficients=  7.0815167000D-04
     Exponent=  2.8605532000D+01 Coefficients=  5.4678827000D-03
     Exponent=  6.5095943000D+00 Coefficients=  2.7966605000D-02
     Exponent=  1.8412455000D+00 Coefficients=  1.0764538000D-01
 S 1 1.00
     Exponent=  5.9853725000D-01 Coefficients=  1.0000000000D+00
 S 1 1.00
     Exponent=  2.1397624000D-01 Coefficients=  1.0000000000D+00
 S 1 1.00
     Exponent=  8.0316286000D-02 Coefficients=  1.0000000000D+00
 P 1 1.00
     Exponent=  2.2920000000D+00 Coefficients=  1.0000000000D+00
 P 1 1.00
     Exponent=  8.3800000000D-01 Coefficients=  1.0000000000D+00
 P 1 1.00
     Exponent=  2.9200000000D-01 Coefficients=  1.0000000000D+00
 P 1 1.00
     Exponent=  8.4063199228D-02 Coefficients=  1.0000000000D+00
 D 1 1.00
     Exponent=  2.0620000000D+00 Coefficients=  1.0000000000D+00
 D 1 1.00
     Exponent=  6.6200000000D-01 Coefficients=  1.0000000000D+00
 F 1 1.00
     Exponent=  1.3970000000D+00 Coefficients=  1.0000000000D+00
 ****
 Centers:       2      3      5     11     14     19
 S 8 1.00
     Exponent=  6.7025071029D+04 Coefficients=  3.8736308501D-05
     Exponent=  1.0039986538D+04 Coefficients=  3.0107917575D-04
     Exponent=  2.2849316911D+03 Coefficients=  1.5787918095D-03
     Exponent=  6.4714122130D+02 Coefficients=  6.6087087195D-03
     Exponent=  2.1109472335D+02 Coefficients=  2.3367123250D-02
     Exponent=  7.6177643862D+01 Coefficients=  7.0420716898D-02
     Exponent=  2.9633839163D+01 Coefficients=  1.7360344953D-01
     Exponent=  1.2187785081D+01 Coefficients=  3.2292305648D-01
 S 2 1.00
     Exponent=  5.3026006299D+01 Coefficients=  7.4897404492D-02
     Exponent=  1.5258502776D+01 Coefficients=  7.6136220983D-01
 S 1 1.00
     Exponent=  5.2403957464D+00 Coefficients=  1.0000000000D+00
 S 1 1.00
     Exponent=  2.2905022379D+00 Coefficients=  1.0000000000D+00
 S 1 1.00
     Exponent=  6.9673283006D-01 Coefficients=  1.0000000000D+00
 S 1 1.00
     Exponent=  2.7599337363D-01 Coefficients=  1.0000000000D+00
 S 1 1.00
     Exponent=  1.0739884389D-01 Coefficients=  1.0000000000D+00
 S 1 1.00
     Exponent=  4.4981404899D-02 Coefficients=  1.0000000000D+00
 P 5 1.00
     Exponent=  1.0512555082D+02 Coefficients=  8.4647553844D-04
     Exponent=  2.4884461066D+01 Coefficients=  6.6274038534D-03
     Exponent=  7.8637230826D+00 Coefficients=  3.0120390419D-02
     Exponent=  2.8407001835D+00 Coefficients=  9.9951435476D-02
     Exponent=  1.1227137335D+00 Coefficients=  2.3826299282D-01
 P 1 1.00
     Exponent=  4.6050725555D-01 Coefficients=  1.0000000000D+00
 P 1 1.00
     Exponent=  1.8937530913D-01 Coefficients=  1.0000000000D+00
 P 1 1.00
     Exponent=  7.5983791611D-02 Coefficients=  1.0000000000D+00
 D 1 1.00
     Exponent=  1.8480000000D+00 Coefficients=  1.0000000000D+00
 D 1 1.00
     Exponent=  6.4900000000D-01 Coefficients=  1.0000000000D+00
 D 1 1.00
     Exponent=  2.2800000000D-01 Coefficients=  1.0000000000D+00
 D 1 1.00
     Exponent=  7.6889830417D-02 Coefficients=  1.0000000000D+00
 F 1 1.00
     Exponent=  1.4190000000D+00 Coefficients=  1.0000000000D+00
 F 1 1.00
     Exponent=  4.8500000000D-01 Coefficients=  1.0000000000D+00
 G 1 1.00
     Exponent=  1.0110000000D+00 Coefficients=  1.0000000000D+00
 ****
 Centers:       1     13
 S 8 1.00
     Exponent=  9.0726889210D+04 Coefficients=  3.9257887368D-05
     Exponent=  1.3590528801D+04 Coefficients=  3.0513316455D-04
     Exponent=  3.0929883781D+03 Coefficients=  1.6000560446D-03
     Exponent=  8.7599876362D+02 Coefficients=  6.6982937306D-03
     Exponent=  2.8574469982D+02 Coefficients=  2.3690078765D-02
     Exponent=  1.0311913417D+02 Coefficients=  7.1455405268D-02
     Exponent=  4.0128556777D+01 Coefficients=  1.7632774876D-01
     Exponent=  1.6528095704D+01 Coefficients=  3.2677592815D-01
 S 2 1.00
     Exponent=  6.9390960983D+01 Coefficients=  8.0052094386D-02
     Exponent=  2.0428200596D+01 Coefficients=  7.8268063538D-01
 S 1 1.00
     Exponent=  7.1292587972D+00 Coefficients=  1.0000000000D+00
 S 1 1.00
     Exponent=  3.1324304893D+00 Coefficients=  1.0000000000D+00
 S 1 1.00
     Exponent=  9.8755778723D-01 Coefficients=  1.0000000000D+00
 S 1 1.00
     Exponent=  3.8765721307D-01 Coefficients=  1.0000000000D+00
 S 1 1.00
     Exponent=  1.4909883075D-01 Coefficients=  1.0000000000D+00
 S 1 1.00
     Exponent=  6.2151630318D-02 Coefficients=  1.0000000000D+00
 P 5 1.00
     Exponent=  1.5005742670D+02 Coefficients= -8.6216165986D-04
     Exponent=  3.5491599483D+01 Coefficients= -6.8571273236D-03
     Exponent=  1.1247864223D+01 Coefficients= -3.1795688855D-02
     Exponent=  4.0900305195D+00 Coefficients= -1.0537396822D-01
     Exponent=  1.6220573146D+00 Coefficients= -2.4519708041D-01
 P 1 1.00
     Exponent=  6.6442261530D-01 Coefficients=  1.0000000000D+00
 P 1 1.00
     Exponent=  2.7099770070D-01 Coefficients=  1.0000000000D+00
 P 1 1.00
     Exponent=  1.0688749984D-01 Coefficients=  1.0000000000D+00
 D 1 1.00
     Exponent=  2.8370000000D+00 Coefficients=  1.0000000000D+00
 D 1 1.00
     Exponent=  9.6800000000D-01 Coefficients=  1.0000000000D+00
 D 1 1.00
     Exponent=  3.3500000000D-01 Coefficients=  1.0000000000D+00
 D 1 1.00
     Exponent=  1.0825280010D-01 Coefficients=  1.0000000000D+00
 F 1 1.00
     Exponent=  2.0270000000D+00 Coefficients=  1.0000000000D+00
 F 1 1.00
     Exponent=  6.8500000000D-01 Coefficients=  1.0000000000D+00
 G 1 1.00
     Exponent=  1.4270000000D+00 Coefficients=  1.0000000000D+00
 ****
 Centers:       4     12
 S 8 1.00
     Exponent=  1.1650646908D+05 Coefficients=  4.0383857939D-05
     Exponent=  1.7504349724D+04 Coefficients=  3.1255139004D-04
     Exponent=  3.9934513230D+03 Coefficients=  1.6341473495D-03
     Exponent=  1.1330063186D+03 Coefficients=  6.8283224757D-03
     Exponent=  3.6999569594D+02 Coefficients=  2.4124410221D-02
     Exponent=  1.3362074349D+02 Coefficients=  7.2730206154D-02
     Exponent=  5.2035643649D+01 Coefficients=  1.7934429892D-01
     Exponent=  2.1461939313D+01 Coefficients=  3.3059588895D-01
 S 2 1.00
     Exponent=  8.9835051252D+01 Coefficients=  9.6468652996D-02
     Exponent=  2.6428010844D+01 Coefficients=  9.4117481120D-01
 S 1 1.00
     Exponent=  9.2822824649D+00 Coefficients=  1.0000000000D+00
 S 1 1.00
     Exponent=  4.0947728533D+00 Coefficients=  1.0000000000D+00
 S 1 1.00
     Exponent=  1.3255349078D+00 Coefficients=  1.0000000000D+00
 S 1 1.00
     Exponent=  5.1877230787D-01 Coefficients=  1.0000000000D+00
 S 1 1.00
     Exponent=  1.9772676454D-01 Coefficients=  1.0000000000D+00
 S 1 1.00
     Exponent=  6.9638535104D-02 Coefficients=  1.0000000000D+00
 P 5 1.00
     Exponent=  1.9115255810D+02 Coefficients=  2.5115697705D-03
     Exponent=  4.5233356739D+01 Coefficients=  2.0039240864D-02
     Exponent=  1.4353465922D+01 Coefficients=  9.3609064762D-02
     Exponent=  5.2422371832D+00 Coefficients=  3.0618127124D-01
     Exponent=  2.0792418599D+00 Coefficients=  6.7810501439D-01
 P 1 1.00
     Exponent=  8.4282371424D-01 Coefficients=  1.0000000000D+00
 P 1 1.00
     Exponent=  3.3617694891D-01 Coefficients=  1.0000000000D+00
 P 1 1.00
     Exponent=  1.2863997974D-01 Coefficients=  1.0000000000D+00
 P 1 1.00
     Exponent=  4.3598162776D-02 Coefficients=  1.0000000000D+00
 D 1 1.00
     Exponent=  3.7750000000D+00 Coefficients=  1.0000000000D+00
 D 1 1.00
     Exponent=  1.3000000000D+00 Coefficients=  1.0000000000D+00
 D 1 1.00
     Exponent=  4.4400000000D-01 Coefficients=  1.0000000000D+00
 D 1 1.00
     Exponent=  1.2546378695D-01 Coefficients=  1.0000000000D+00
 F 1 1.00
     Exponent=  2.6660000000D+00 Coefficients=  1.0000000000D+00
 F 1 1.00
     Exponent=  8.5900000000D-01 Coefficients=  1.0000000000D+00
 G 1 1.00
     Exponent=  1.8460000000D+00 Coefficients=  1.0000000000D+00
 ****
 Centers:       6
 S 10 1.00
     Exponent=  1.2734109023D+06 Coefficients=  1.1767088246D-05
     Exponent=  1.9069783007D+05 Coefficients=  9.1478610166D-05
     Exponent=  4.3397885330D+04 Coefficients=  4.8090078640D-04
     Exponent=  1.2291809677D+04 Coefficients=  2.0257193592D-03
     Exponent=  4.0097420824D+03 Coefficients=  7.3190096406D-03
     Exponent=  1.4473531030D+03 Coefficients=  2.3300499900D-02
     Exponent=  5.6430102913D+02 Coefficients=  6.5386213610D-02
     Exponent=  2.3374506243D+02 Coefficients=  1.5614449910D-01
     Exponent=  1.0156402814D+02 Coefficients=  2.9318563787D-01
     Exponent=  4.5805907187D+01 Coefficients=  3.6287914289D-01
 S 3 1.00
     Exponent=  3.9427281503D+02 Coefficients=  1.8753305081D-02
     Exponent=  1.2172249591D+02 Coefficients=  1.6870726663D-01
     Exponent=  4.6754125963D+01 Coefficients=  6.3806830653D-01
 S 1 1.00
     Exponent=  2.0923008254D+01 Coefficients=  1.0000000000D+00
 S 1 1.00
     Exponent=  8.2685567800D+00 Coefficients=  1.0000000000D+00
 S 1 1.00
     Exponent=  3.8629345671D+00 Coefficients=  1.0000000000D+00
 S 1 1.00
     Exponent=  1.7794684781D+00 Coefficients=  1.0000000000D+00
 S 1 1.00
     Exponent=  6.1064260103D-01 Coefficients=  1.0000000000D+00
 S 1 1.00
     Exponent=  2.7412269445D-01 Coefficients=  1.0000000000D+00
 S 1 1.00
     Exponent=  1.1325939107D-01 Coefficients=  1.0000000000D+00
 S 1 1.00
     Exponent=  4.4392624881D-02 Coefficients=  1.0000000000D+00
 P 8 1.00
     Exponent=  2.1898930459D+03 Coefficients=  2.3912552864D-04
     Exponent=  5.1894596592D+02 Coefficients=  2.0772032158D-03
     Exponent=  1.6819560151D+02 Coefficients=  1.1242420571D-02
     Exponent=  6.3745282788D+01 Coefficients=  4.4069933941D-02
     Exponent=  2.6597033077D+01 Coefficients=  1.2918778608D-01
     Exponent=  1.1774251449D+01 Coefficients=  2.6910820167D-01
     Exponent=  5.3534379024D+00 Coefficients=  3.7855928620D-01
     Exponent=  2.4701911802D+00 Coefficients=  2.9692134655D-01
 P 2 1.00
     Exponent=  8.2120288349D+01 Coefficients= -3.9420318847D-02
     Exponent=  4.9523532869D+00 Coefficients=  6.4048403090D-01
 P 1 1.00
     Exponent=  1.0828262029D+00 Coefficients=  1.0000000000D+00
 P 1 1.00
     Exponent=  4.9271277356D-01 Coefficients=  1.0000000000D+00
 P 1 1.00
     Exponent=  2.0483450942D-01 Coefficients=  1.0000000000D+00
 P 1 1.00
     Exponent=  8.0743615716D-02 Coefficients=  1.0000000000D+00
 P 1 1.00
     Exponent=  2.5661157833D-02 Coefficients=  1.0000000000D+00
 D 1 1.00
     Exponent=  4.1590000000D+00 Coefficients=  1.0000000000D+00
 D 1 1.00
     Exponent=  1.0190000000D+00 Coefficients=  1.0000000000D+00
 D 1 1.00
     Exponent=  4.6400000000D-01 Coefficients=  1.0000000000D+00
 D 1 1.00
     Exponent=  1.9400000000D-01 Coefficients=  1.0000000000D+00
 D 1 1.00
     Exponent=  6.7889829366D-02 Coefficients=  1.0000000000D+00
 F 1 1.00
     Exponent=  8.6900000000D-01 Coefficients=  1.0000000000D+00
 F 1 1.00
     Exponent=  3.3500000000D-01 Coefficients=  1.0000000000D+00
 G 1 1.00
     Exponent=  6.8300000000D-01 Coefficients=  1.0000000000D+00
 ****
 Ernie: Thresh=  0.10000D-02 Tol=  0.10000D-05 Strict=F.
 There are  1348 symmetry adapted cartesian basis functions of A   symmetry.
 There are  1111 symmetry adapted basis functions of A   symmetry.
  1111 basis functions,  1619 primitive gaussians,  1348 cartesian basis functions
    47 alpha electrons       47 beta electrons
       nuclear repulsion energy       740.5827197911 Hartrees.
 IExCor= 4336 DFT=T Ex+Corr=M062X ExCW=0 ScaHFX=  0.540000
 ScaDFX=  1.000000  1.000000  1.000000  1.000000 ScalE2=  1.000000  1.000000
 IRadAn=      5 IRanWt=     -1 IRanGd=            0 ICorTp=0 IEmpDi=  4
 NAtoms=   23 NActive=   23 NUniq=   23 SFac= 1.00D+00 NAtFMM=   60 NAOKFM=F Big=F
 Integral buffers will be    131072 words long.
 Raffenetti 2 integral format.
 Two-electron integral symmetry is turned on.
 Leave Link  301 at Sat Apr 17 05:43:29 2021, MaxMem=   104857600 cpu:              15.2 elap:               0.3
 (Enter /s/ls4/users/knvvv/bin/g16sse/l302.exe)
 NPDir=0 NMtPBC=     1 NCelOv=     1 NCel=       1 NClECP=     1 NCelD=      1
         NCelK=      1 NCelE2=     1 NClLst=     1 CellRange=     0.0.
 One-electron integrals computed using PRISM.
 One-electron integral symmetry used in STVInt
 PrsmSu:  requested number of processors reduced to:   3 ShMem   1 Linda.
 PrsmSu:  requested number of processors reduced to:  15 ShMem   1 Linda.
 NBasis=  1111 RedAO= T EigKep=  1.12D-06  NBF=  1111
 NBsUse=  1103 1.00D-06 EigRej=  9.12D-07 NBFU=  1103
 Precomputing XC quadrature grid using
 IXCGrd= 4 IRadAn=           5 IRanWt=          -1 IRanGd=           0 AccXCQ= 0.00D+00.
 Generated NRdTot=       0 NPtTot=           0 NUsed=           0 NTot=          32
 NSgBfM=  1341  1341  1341  1341  1341 MxSgAt=    23 MxSgA2=    23.
 Leave Link  302 at Sat Apr 17 05:43:57 2021, MaxMem=   104857600 cpu:            1333.3 elap:              28.5
 (Enter /s/ls4/users/knvvv/bin/g16sse/l303.exe)
 DipDrv:  MaxL=1.
 Leave Link  303 at Sat Apr 17 05:44:13 2021, MaxMem=   104857600 cpu:             719.3 elap:              15.4
 (Enter /s/ls4/users/knvvv/bin/g16sse/l401.exe)
 SCF N**3 symmetry information disabled.
 ExpMin= 2.57D-02 ExpMax= 1.27D+06 ExpMxC= 1.45D+03 IAcc=3 IRadAn=         5 AccDes= 0.00D+00
 Harris functional with IExCor= 1009 and IRadAn=       5 diagonalized for initial guess.
 HarFok:  IExCor= 1009 AccDes= 0.00D+00 IRadAn=         5 IDoV= 1 UseB2=F ITyADJ=14
 ICtDFT=  3500011 ScaDFX=  1.000000  1.000000  1.000000  1.000000
 CalDSu:  requested number of processors reduced to:  33 ShMem   1 Linda.
 FoFCou: FMM=F IPFlag=           0 FMFlag=      100000 FMFlg1=           0
         NFxFlg=           0 DoJE=T BraDBF=F KetDBF=T FulRan=T
         wScrn=  0.000000 ICntrl=       500 IOpCl=  0 I1Cent=   200000004 NGrid=           0
         NMat0=    1 NMatS0=      1 NMatT0=    0 NMatD0=    1 NMtDS0=    0 NMtDT0=    0
 Petite list used in FoFCou.
 CoulSu:  requested number of processors reduced to:  13 ShMem   1 Linda.
 CoulSu:  requested number of processors reduced to:  14 ShMem   1 Linda.
 CoulSu:  requested number of processors reduced to:  20 ShMem   1 Linda.
 CoulSu:  requested number of processors reduced to:  20 ShMem   1 Linda.
 Harris En= -893.676155510184    
 JPrj=0 DoOrth=F DoCkMO=F.
 Leave Link  401 at Sat Apr 17 05:44:32 2021, MaxMem=   104857600 cpu:             798.7 elap:              19.5
 (Enter /s/ls4/users/knvvv/bin/g16sse/l502.exe)
 Integral symmetry usage will be decided dynamically.
 Closed shell SCF:
 Using DIIS extrapolation, IDIIS=  1040.
 NGot=   104857600 LenX=   101148255 LenY=    99329803
 Requested convergence on RMS density matrix=1.00D-08 within 128 cycles.
 Requested convergence on MAX density matrix=1.00D-06.
 Requested convergence on             energy=1.00D-06.
 No special actions if energy rises.
 Fock matrices will be formed incrementally for  20 cycles.

 Cycle   1  Pass 1  IDiag  1:
 FoFJK:  IHMeth= 1 ICntrl=       0 DoSepK=F KAlg= 0 I1Cent=           0 FoldK=F
 IRaf= 860000000 NMat=       1 IRICut=       1 DoRegI=T DoRafI=F ISym2E= 0 IDoP0=0 IntGTp=1.
 FoFCou: FMM=F IPFlag=           0 FMFlag=      100000 FMFlg1=           0
         NFxFlg=           0 DoJE=F BraDBF=F KetDBF=F FulRan=T
         wScrn=  0.000000 ICntrl=         0 IOpCl=  0 I1Cent=           0 NGrid=           0
         NMat0=    1 NMatS0=      1 NMatT0=    0 NMatD0=    1 NMtDS0=    0 NMtDT0=    0
 Symmetry not used in FoFCou.
 CoulSu:  requested number of processors reduced to:  15 ShMem   1 Linda.
 CalDSu:  requested number of processors reduced to:  33 ShMem   1 Linda.
 E= -893.732257290519    
 DIIS: error= 1.78D-02 at cycle   1 NSaved=   1.
 NSaved= 1 IEnMin= 1 EnMin= -893.732257290519     IErMin= 1 ErrMin= 1.78D-02
 ErrMax= 1.78D-02  0.00D+00 EMaxC= 1.00D-01 BMatC= 7.09D-01 BMatP= 7.09D-01
 IDIUse=3 WtCom= 8.22D-01 WtEn= 1.78D-01
 Coeff-Com:  0.100D+01
 Coeff-En:   0.100D+01
 Coeff:      0.100D+01
 Gap=     0.417 Goal=   None    Shift=    0.000
 GapD=    0.417 DampG=2.000 DampE=0.500 DampFc=1.0000 IDamp=-1.
 RMSDP=2.48D-03 MaxDP=2.41D-01              OVMax= 2.27D-01

 Cycle   2  Pass 1  IDiag  1:
 RMSU=  2.06D-03    CP:  6.66D-01
 CoulSu:  requested number of processors reduced to:  15 ShMem   1 Linda.
 CalDSu:  requested number of processors reduced to:  33 ShMem   1 Linda.
 E= -893.684284748480     Delta-E=        0.047972542039 Rises=F Damp=F
 DIIS: error= 1.19D-02 at cycle   2 NSaved=   2.
 NSaved= 2 IEnMin= 1 EnMin= -893.732257290519     IErMin= 2 ErrMin= 1.19D-02
 ErrMax= 1.19D-02  0.00D+00 EMaxC= 1.00D-01 BMatC= 5.41D-01 BMatP= 7.09D-01
 IDIUse=3 WtCom= 8.81D-01 WtEn= 1.19D-01
 Coeff-Com:  0.460D+00 0.540D+00
 Coeff-En:   0.534D+00 0.466D+00
 Coeff:      0.468D+00 0.532D+00
 Gap=     0.363 Goal=   None    Shift=    0.000
 RMSDP=8.32D-04 MaxDP=9.55D-02 DE= 4.80D-02 OVMax= 1.17D-01

 Cycle   3  Pass 1  IDiag  1:
 RMSU=  8.05D-04    CP:  6.46D-01  9.06D-01
 CoulSu:  requested number of processors reduced to:  15 ShMem   1 Linda.
 CalDSu:  requested number of processors reduced to:  33 ShMem   1 Linda.
 E= -894.036728611674     Delta-E=       -0.352443863194 Rises=F Damp=F
 DIIS: error= 5.10D-03 at cycle   3 NSaved=   3.
 NSaved= 3 IEnMin= 3 EnMin= -894.036728611674     IErMin= 3 ErrMin= 5.10D-03
 ErrMax= 5.10D-03  0.00D+00 EMaxC= 1.00D-01 BMatC= 6.55D-02 BMatP= 5.41D-01
 IDIUse=3 WtCom= 9.49D-01 WtEn= 5.10D-02
 Coeff-Com:  0.903D-01 0.266D+00 0.644D+00
 Coeff-En:   0.000D+00 0.395D-01 0.961D+00
 Coeff:      0.857D-01 0.255D+00 0.660D+00
 Gap=     0.296 Goal=   None    Shift=    0.000
 RMSDP=2.78D-04 MaxDP=3.93D-02 DE=-3.52D-01 OVMax= 6.56D-02

 Cycle   4  Pass 1  IDiag  1:
 RMSU=  2.70D-04    CP:  6.47D-01  9.37D-01  9.76D-01
 CoulSu:  requested number of processors reduced to:  15 ShMem   1 Linda.
 CalDSu:  requested number of processors reduced to:  33 ShMem   1 Linda.
 E= -894.074656279934     Delta-E=       -0.037927668260 Rises=F Damp=F
 DIIS: error= 1.71D-03 at cycle   4 NSaved=   4.
 NSaved= 4 IEnMin= 4 EnMin= -894.074656279934     IErMin= 4 ErrMin= 1.71D-03
 ErrMax= 1.71D-03  0.00D+00 EMaxC= 1.00D-01 BMatC= 9.46D-03 BMatP= 6.55D-02
 IDIUse=3 WtCom= 9.83D-01 WtEn= 1.71D-02
 Coeff-Com: -0.198D-02 0.765D-01 0.347D+00 0.578D+00
 Coeff-En:   0.000D+00 0.000D+00 0.111D+00 0.889D+00
 Coeff:     -0.195D-02 0.752D-01 0.343D+00 0.584D+00
 Gap=     0.296 Goal=   None    Shift=    0.000
 RMSDP=1.04D-04 MaxDP=1.23D-02 DE=-3.79D-02 OVMax= 1.69D-02

 Cycle   5  Pass 1  IDiag  1:
 RMSU=  9.08D-05    CP:  6.46D-01  9.43D-01  9.51D-01  8.37D-01
 CoulSu:  requested number of processors reduced to:  15 ShMem   1 Linda.
 CalDSu:  requested number of processors reduced to:  33 ShMem   1 Linda.
 E= -894.082029252055     Delta-E=       -0.007372972121 Rises=F Damp=F
 DIIS: error= 2.96D-04 at cycle   5 NSaved=   5.
 NSaved= 5 IEnMin= 5 EnMin= -894.082029252055     IErMin= 5 ErrMin= 2.96D-04
 ErrMax= 2.96D-04  0.00D+00 EMaxC= 1.00D-01 BMatC= 2.11D-04 BMatP= 9.46D-03
 IDIUse=3 WtCom= 9.97D-01 WtEn= 2.96D-03
 Coeff-Com: -0.389D-02 0.162D-01 0.892D-01 0.214D+00 0.685D+00
 Coeff-En:   0.000D+00 0.000D+00 0.000D+00 0.000D+00 0.100D+01
 Coeff:     -0.388D-02 0.162D-01 0.889D-01 0.213D+00 0.686D+00
 Gap=     0.295 Goal=   None    Shift=    0.000
 RMSDP=2.53D-05 MaxDP=4.13D-03 DE=-7.37D-03 OVMax= 3.60D-03

 Cycle   6  Pass 1  IDiag  1:
 RMSU=  2.15D-05    CP:  6.46D-01  9.45D-01  9.46D-01  8.80D-01  1.05D+00
 CoulSu:  requested number of processors reduced to:  15 ShMem   1 Linda.
 CalDSu:  requested number of processors reduced to:  33 ShMem   1 Linda.
 E= -894.082197615459     Delta-E=       -0.000168363404 Rises=F Damp=F
 DIIS: error= 1.09D-04 at cycle   6 NSaved=   6.
 NSaved= 6 IEnMin= 6 EnMin= -894.082197615459     IErMin= 6 ErrMin= 1.09D-04
 ErrMax= 1.09D-04  0.00D+00 EMaxC= 1.00D-01 BMatC= 2.35D-05 BMatP= 2.11D-04
 IDIUse=3 WtCom= 9.99D-01 WtEn= 1.09D-03
 Coeff-Com: -0.123D-02-0.193D-02-0.295D-02 0.191D-01 0.279D+00 0.708D+00
 Coeff-En:   0.000D+00 0.000D+00 0.000D+00 0.000D+00 0.000D+00 0.100D+01
 Coeff:     -0.123D-02-0.193D-02-0.294D-02 0.191D-01 0.279D+00 0.708D+00
 Gap=     0.294 Goal=   None    Shift=    0.000
 RMSDP=8.07D-06 MaxDP=1.49D-03 DE=-1.68D-04 OVMax= 8.31D-04

 Cycle   7  Pass 1  IDiag  1:
 RMSU=  5.61D-06    CP:  6.46D-01  9.45D-01  9.45D-01  8.88D-01  1.10D+00
                    CP:  1.08D+00
 CoulSu:  requested number of processors reduced to:  15 ShMem   1 Linda.
 CalDSu:  requested number of processors reduced to:  33 ShMem   1 Linda.
 E= -894.082217862979     Delta-E=       -0.000020247520 Rises=F Damp=F
 DIIS: error= 2.08D-05 at cycle   7 NSaved=   7.
 NSaved= 7 IEnMin= 7 EnMin= -894.082217862979     IErMin= 7 ErrMin= 2.08D-05
 ErrMax= 2.08D-05  0.00D+00 EMaxC= 1.00D-01 BMatC= 1.12D-06 BMatP= 2.35D-05
 IDIUse=1 WtCom= 1.00D+00 WtEn= 0.00D+00
 Coeff-Com: -0.439D-04-0.158D-02-0.500D-02-0.969D-02 0.308D-01 0.154D+00
 Coeff-Com:  0.832D+00
 Coeff:     -0.439D-04-0.158D-02-0.500D-02-0.969D-02 0.308D-01 0.154D+00
 Coeff:      0.832D+00
 Gap=     0.294 Goal=   None    Shift=    0.000
 RMSDP=2.71D-06 MaxDP=3.68D-04 DE=-2.02D-05 OVMax= 3.18D-04

 Cycle   8  Pass 1  IDiag  1:
 RMSU=  2.28D-06    CP:  6.46D-01  9.45D-01  9.45D-01  8.91D-01  1.11D+00
                    CP:  1.10D+00  1.15D+00
 CoulSu:  requested number of processors reduced to:  15 ShMem   1 Linda.
 CalDSu:  requested number of processors reduced to:  33 ShMem   1 Linda.
 E= -894.082219026362     Delta-E=       -0.000001163384 Rises=F Damp=F
 DIIS: error= 8.53D-06 at cycle   8 NSaved=   8.
 NSaved= 8 IEnMin= 8 EnMin= -894.082219026362     IErMin= 8 ErrMin= 8.53D-06
 ErrMax= 8.53D-06  0.00D+00 EMaxC= 1.00D-01 BMatC= 2.36D-07 BMatP= 1.12D-06
 IDIUse=1 WtCom= 1.00D+00 WtEn= 0.00D+00
 Coeff-Com:  0.963D-04-0.516D-03-0.142D-02-0.590D-02-0.109D-01-0.119D-01
 Coeff-Com:  0.288D+00 0.743D+00
 Coeff:      0.963D-04-0.516D-03-0.142D-02-0.590D-02-0.109D-01-0.119D-01
 Coeff:      0.288D+00 0.743D+00
 Gap=     0.294 Goal=   None    Shift=    0.000
 RMSDP=1.11D-06 MaxDP=8.02D-05 DE=-1.16D-06 OVMax= 1.22D-04

 Cycle   9  Pass 1  IDiag  1:
 RMSU=  8.47D-07    CP:  6.46D-01  9.45D-01  9.45D-01  8.91D-01  1.11D+00
                    CP:  1.11D+00  1.23D+00  1.19D+00
 CoulSu:  requested number of processors reduced to:  15 ShMem   1 Linda.
 CalDSu:  requested number of processors reduced to:  33 ShMem   1 Linda.
 E= -894.082219254286     Delta-E=       -0.000000227924 Rises=F Damp=F
 DIIS: error= 3.53D-06 at cycle   9 NSaved=   9.
 NSaved= 9 IEnMin= 9 EnMin= -894.082219254286     IErMin= 9 ErrMin= 3.53D-06
 ErrMax= 3.53D-06  0.00D+00 EMaxC= 1.00D-01 BMatC= 3.97D-08 BMatP= 2.36D-07
 IDIUse=1 WtCom= 1.00D+00 WtEn= 0.00D+00
 Coeff-Com:  0.413D-04 0.532D-04 0.438D-03-0.655D-03-0.850D-02-0.334D-01
 Coeff-Com: -0.432D-01 0.287D+00 0.798D+00
 Coeff:      0.413D-04 0.532D-04 0.438D-03-0.655D-03-0.850D-02-0.334D-01
 Coeff:     -0.432D-01 0.287D+00 0.798D+00
 Gap=     0.294 Goal=   None    Shift=    0.000
 RMSDP=5.00D-07 MaxDP=3.24D-05 DE=-2.28D-07 OVMax= 7.49D-05

 Cycle  10  Pass 1  IDiag  1:
 RMSU=  2.59D-07    CP:  6.46D-01  9.45D-01  9.45D-01  8.91D-01  1.11D+00
                    CP:  1.11D+00  1.26D+00  1.33D+00  1.26D+00
 CoulSu:  requested number of processors reduced to:  15 ShMem   1 Linda.
 CalDSu:  requested number of processors reduced to:  33 ShMem   1 Linda.
 E= -894.082219295567     Delta-E=       -0.000000041281 Rises=F Damp=F
 DIIS: error= 1.53D-06 at cycle  10 NSaved=  10.
 NSaved=10 IEnMin=10 EnMin= -894.082219295567     IErMin=10 ErrMin= 1.53D-06
 ErrMax= 1.53D-06  0.00D+00 EMaxC= 1.00D-01 BMatC= 5.47D-09 BMatP= 3.97D-08
 IDIUse=1 WtCom= 1.00D+00 WtEn= 0.00D+00
 Coeff-Com:  0.373D-05 0.819D-04 0.375D-03 0.408D-03-0.216D-02-0.126D-01
 Coeff-Com: -0.530D-01 0.237D-01 0.347D+00 0.696D+00
 Coeff:      0.373D-05 0.819D-04 0.375D-03 0.408D-03-0.216D-02-0.126D-01
 Coeff:     -0.530D-01 0.237D-01 0.347D+00 0.696D+00
 Gap=     0.294 Goal=   None    Shift=    0.000
 RMSDP=1.57D-07 MaxDP=1.35D-05 DE=-4.13D-08 OVMax= 3.00D-05

 Cycle  11  Pass 1  IDiag  1:
 RMSU=  9.03D-08    CP:  6.46D-01  9.45D-01  9.45D-01  8.91D-01  1.11D+00
                    CP:  1.11D+00  1.27D+00  1.37D+00  1.35D+00  1.07D+00
 CoulSu:  requested number of processors reduced to:  15 ShMem   1 Linda.
 CalDSu:  requested number of processors reduced to:  33 ShMem   1 Linda.
 E= -894.082219299627     Delta-E=       -0.000000004060 Rises=F Damp=F
 DIIS: error= 6.31D-07 at cycle  11 NSaved=  11.
 NSaved=11 IEnMin=11 EnMin= -894.082219299627     IErMin=11 ErrMin= 6.31D-07
 ErrMax= 6.31D-07  0.00D+00 EMaxC= 1.00D-01 BMatC= 8.75D-10 BMatP= 5.47D-09
 IDIUse=1 WtCom= 1.00D+00 WtEn= 0.00D+00
 Coeff-Com: -0.169D-05 0.348D-04 0.150D-03 0.226D-03-0.436D-03-0.381D-02
 Coeff-Com: -0.239D-01-0.115D-01 0.117D+00 0.368D+00 0.554D+00
 Coeff:     -0.169D-05 0.348D-04 0.150D-03 0.226D-03-0.436D-03-0.381D-02
 Coeff:     -0.239D-01-0.115D-01 0.117D+00 0.368D+00 0.554D+00
 Gap=     0.294 Goal=   None    Shift=    0.000
 RMSDP=4.42D-08 MaxDP=3.98D-06 DE=-4.06D-09 OVMax= 7.87D-06

 Cycle  12  Pass 1  IDiag  1:
 RMSU=  3.38D-08    CP:  6.46D-01  9.45D-01  9.45D-01  8.91D-01  1.11D+00
                    CP:  1.11D+00  1.27D+00  1.37D+00  1.38D+00  1.10D+00
                    CP:  1.06D+00
 CoulSu:  requested number of processors reduced to:  15 ShMem   1 Linda.
 CalDSu:  requested number of processors reduced to:  33 ShMem   1 Linda.
 E= -894.082219300299     Delta-E=       -0.000000000672 Rises=F Damp=F
 DIIS: error= 1.56D-07 at cycle  12 NSaved=  12.
 NSaved=12 IEnMin=12 EnMin= -894.082219300299     IErMin=12 ErrMin= 1.56D-07
 ErrMax= 1.56D-07  0.00D+00 EMaxC= 1.00D-01 BMatC= 4.75D-11 BMatP= 8.75D-10
 IDIUse=1 WtCom= 1.00D+00 WtEn= 0.00D+00
 Coeff-Com: -0.120D-05-0.152D-05-0.516D-05-0.252D-05 0.192D-03 0.633D-03
 Coeff-Com:  0.182D-03-0.680D-02-0.147D-01 0.765D-02 0.167D+00 0.846D+00
 Coeff:     -0.120D-05-0.152D-05-0.516D-05-0.252D-05 0.192D-03 0.633D-03
 Coeff:      0.182D-03-0.680D-02-0.147D-01 0.765D-02 0.167D+00 0.846D+00
 Gap=     0.294 Goal=   None    Shift=    0.000
 RMSDP=2.08D-08 MaxDP=1.17D-06 DE=-6.72D-10 OVMax= 2.43D-06

 Cycle  13  Pass 1  IDiag  1:
 RMSU=  1.11D-08    CP:  6.46D-01  9.45D-01  9.45D-01  8.91D-01  1.11D+00
                    CP:  1.11D+00  1.27D+00  1.37D+00  1.38D+00  1.14D+00
                    CP:  1.18D+00  1.14D+00
 CoulSu:  requested number of processors reduced to:  15 ShMem   1 Linda.
 CalDSu:  requested number of processors reduced to:  33 ShMem   1 Linda.
 E= -894.082219300277     Delta-E=        0.000000000022 Rises=F Damp=F
 DIIS: error= 4.98D-08 at cycle  13 NSaved=  13.
 NSaved=13 IEnMin=12 EnMin= -894.082219300299     IErMin=13 ErrMin= 4.98D-08
 ErrMax= 4.98D-08  0.00D+00 EMaxC= 1.00D-01 BMatC= 5.67D-12 BMatP= 4.75D-11
 IDIUse=1 WtCom= 1.00D+00 WtEn= 0.00D+00
 Coeff-Com: -0.288D-06-0.279D-05-0.901D-05-0.166D-04 0.102D-03 0.503D-03
 Coeff-Com:  0.192D-02-0.119D-02-0.149D-01-0.289D-01 0.890D-02 0.298D+00
 Coeff-Com:  0.735D+00
 Coeff:     -0.288D-06-0.279D-05-0.901D-05-0.166D-04 0.102D-03 0.503D-03
 Coeff:      0.192D-02-0.119D-02-0.149D-01-0.289D-01 0.890D-02 0.298D+00
 Coeff:      0.735D+00
 Gap=     0.294 Goal=   None    Shift=    0.000
 RMSDP=5.03D-09 MaxDP=8.49D-07 DE= 2.21D-11 OVMax= 5.57D-07

 SCF Done:  E(RM062X) =  -894.082219300     A.U. after   13 cycles
            NFock= 13  Conv=0.50D-08     -V/T= 2.0029
 KE= 8.915037856483D+02 PE=-3.586252701277D+03 EE= 1.060083976537D+03
 Leave Link  502 at Sat Apr 17 06:39:30 2021, MaxMem=   104857600 cpu:           60996.6 elap:            3298.0
 (Enter /s/ls4/users/knvvv/bin/g16sse/l601.exe)
 Copying SCF densities to generalized density rwf, IOpCl= 0 IROHF=0.

 **********************************************************************

            Population analysis using the SCF density.

 **********************************************************************

 Orbital symmetries:
       Occupied  (A) (A) (A) (A) (A) (A) (A) (A) (A) (A) (A) (A)
                 (A) (A) (A) (A) (A) (A) (A) (A) (A) (A) (A) (A)
                 (A) (A) (A) (A) (A) (A) (A) (A) (A) (A) (A) (A)
                 (A) (A) (A) (A) (A) (A) (A) (A) (A) (A) (A)
       Virtual   (A) (A) (A) (A) (A) (A) (A) (A) (A) (A) (A) (A)
                 (A) (A) (A) (A) (A) (A) (A) (A) (A) (A) (A) (A)
                 (A) (A) (A) (A) (A) (A) (A) (A) (A) (A) (A) (A)
                 (A) (A) (A) (A) (A) (A) (A) (A) (A) (A) (A) (A)
                 (A) (A) (A) (A) (A) (A) (A) (A) (A) (A) (A) (A)
                 (A) (A) (A) (A) (A) (A) (A) (A) (A) (A) (A) (A)
                 (A) (A) (A) (A) (A) (A) (A) (A) (A) (A) (A) (A)
                 (A) (A) (A) (A) (A) (A) (A) (A) (A) (A) (A) (A)
                 (A) (A) (A) (A) (A) (A) (A) (A) (A) (A) (A) (A)
                 (A) (A) (A) (A) (A) (A) (A) (A) (A) (A) (A) (A)
                 (A) (A) (A) (A) (A) (A) (A) (A) (A) (A) (A) (A)
                 (A) (A) (A) (A) (A) (A) (A) (A) (A) (A) (A) (A)
                 (A) (A) (A) (A) (A) (A) (A) (A) (A) (A) (A) (A)
                 (A) (A) (A) (A) (A) (A) (A) (A) (A) (A) (A) (A)
                 (A) (A) (A) (A) (A) (A) (A) (A) (A) (A) (A) (A)
                 (A) (A) (A) (A) (A) (A) (A) (A) (A) (A) (A) (A)
                 (A) (A) (A) (A) (A) (A) (A) (A) (A) (A) (A) (A)
                 (A) (A) (A) (A) (A) (A) (A) (A) (A) (A) (A) (A)
                 (A) (A) (A) (A) (A) (A) (A) (A) (A) (A) (A) (A)
                 (A) (A) (A) (A) (A) (A) (A) (A) (A) (A) (A) (A)
                 (A) (A) (A) (A) (A) (A) (A) (A) (A) (A) (A) (A)
                 (A) (A) (A) (A) (A) (A) (A) (A) (A) (A) (A) (A)
                 (A) (A) (A) (A) (A) (A) (A) (A) (A) (A) (A) (A)
                 (A) (A) (A) (A) (A) (A) (A) (A) (A) (A) (A) (A)
                 (A) (A) (A) (A) (A) (A) (A) (A) (A) (A) (A) (A)
                 (A) (A) (A) (A) (A) (A) (A) (A) (A) (A) (A) (A)
                 (A) (A) (A) (A) (A) (A) (A) (A) (A) (A) (A) (A)
                 (A) (A) (A) (A) (A) (A) (A) (A) (A) (A) (A) (A)
                 (A) (A) (A) (A) (A) (A) (A) (A) (A) (A) (A) (A)
                 (A) (A) (A) (A) (A) (A) (A) (A) (A) (A) (A) (A)
                 (A) (A) (A) (A) (A) (A) (A) (A) (A) (A) (A) (A)
                 (A) (A) (A) (A) (A) (A) (A) (A) (A) (A) (A) (A)
                 (A) (A) (A) (A) (A) (A) (A) (A) (A) (A) (A) (A)
                 (A) (A) (A) (A) (A) (A) (A) (A) (A) (A) (A) (A)
                 (A) (A) (A) (A) (A) (A) (A) (A) (A) (A) (A) (A)
                 (A) (A) (A) (A) (A) (A) (A) (A) (A) (A) (A) (A)
                 (A) (A) (A) (A) (A) (A) (A) (A) (A) (A) (A) (A)
                 (A) (A) (A) (A) (A) (A) (A) (A) (A) (A) (A) (A)
                 (A) (A) (A) (A) (A) (A) (A) (A) (A) (A) (A) (A)
                 (A) (A) (A) (A) (A) (A) (A) (A) (A) (A) (A) (A)
                 (A) (A) (A) (A) (A) (A) (A) (A) (A) (A) (A) (A)
                 (A) (A) (A) (A) (A) (A) (A) (A) (A) (A) (A) (A)
                 (A) (A) (A) (A) (A) (A) (A) (A) (A) (A) (A) (A)
                 (A) (A) (A) (A) (A) (A) (A) (A) (A) (A) (A) (A)
                 (A) (A) (A) (A) (A) (A) (A) (A) (A) (A) (A) (A)
                 (A) (A) (A) (A) (A) (A) (A) (A) (A) (A) (A) (A)
                 (A) (A) (A) (A) (A) (A) (A) (A) (A) (A) (A) (A)
                 (A) (A) (A) (A) (A) (A) (A) (A) (A) (A) (A) (A)
                 (A) (A) (A) (A) (A) (A) (A) (A) (A) (A) (A) (A)
                 (A) (A) (A) (A) (A) (A) (A) (A) (A) (A) (A) (A)
                 (A) (A) (A) (A) (A) (A) (A) (A) (A) (A) (A) (A)
                 (A) (A) (A) (A) (A) (A) (A) (A) (A) (A) (A) (A)
                 (A) (A) (A) (A) (A) (A) (A) (A) (A) (A) (A) (A)
                 (A) (A) (A) (A) (A) (A) (A) (A) (A) (A) (A) (A)
                 (A) (A) (A) (A) (A) (A) (A) (A) (A) (A) (A) (A)
                 (A) (A) (A) (A) (A) (A) (A) (A) (A) (A) (A) (A)
                 (A) (A) (A) (A) (A) (A) (A) (A) (A) (A) (A) (A)
                 (A) (A) (A) (A) (A) (A) (A) (A) (A) (A) (A) (A)
                 (A) (A) (A) (A) (A) (A) (A) (A) (A) (A) (A) (A)
                 (A) (A) (A) (A) (A) (A) (A) (A) (A) (A) (A) (A)
                 (A) (A) (A) (A) (A) (A) (A) (A) (A) (A) (A) (A)
                 (A) (A) (A) (A) (A) (A) (A) (A) (A) (A) (A) (A)
                 (A) (A) (A) (A) (A) (A) (A) (A) (A) (A) (A) (A)
                 (A) (A) (A) (A) (A) (A) (A) (A) (A) (A) (A) (A)
                 (A) (A) (A) (A) (A) (A) (A) (A) (A) (A) (A) (A)
                 (A) (A) (A) (A) (A) (A) (A) (A) (A) (A) (A) (A)
                 (A) (A) (A) (A) (A) (A) (A) (A) (A) (A) (A) (A)
                 (A) (A) (A) (A) (A) (A) (A) (A) (A) (A) (A) (A)
                 (A) (A) (A) (A) (A) (A) (A) (A) (A) (A) (A) (A)
                 (A) (A) (A) (A) (A) (A) (A) (A) (A) (A) (A) (A)
                 (A) (A) (A) (A) (A) (A) (A) (A) (A) (A) (A) (A)
                 (A) (A) (A) (A) (A) (A) (A) (A) (A) (A) (A) (A)
                 (A) (A) (A) (A) (A) (A) (A) (A) (A) (A) (A) (A)
                 (A) (A) (A) (A) (A) (A) (A) (A) (A) (A) (A) (A)
                 (A) (A) (A) (A) (A) (A) (A) (A) (A) (A) (A) (A)
                 (A) (A) (A) (A) (A) (A) (A) (A) (A) (A) (A) (A)
                 (A) (A) (A) (A) (A) (A) (A) (A) (A) (A) (A) (A)
                 (A) (A) (A) (A) (A) (A) (A) (A) (A) (A) (A) (A)
                 (A) (A) (A) (A) (A) (A) (A) (A) (A) (A) (A) (A)
                 (A) (A) (A) (A) (A) (A) (A) (A) (A) (A) (A) (A)
                 (A) (A) (A) (A) (A) (A) (A) (A) (A) (A) (A) (A)
                 (A) (A) (A) (A) (A) (A) (A) (A) (A) (A) (A) (A)
                 (A) (A) (A) (A) (A) (A) (A) (A) (A) (A) (A) (A)
                 (A) (A) (A) (A) (A) (A) (A) (A) (A) (A) (A) (A)
                 (A) (A) (A) (A) (A) (A) (A) (A) (A) (A) (A) (A)
                 (A) (A) (A) (A) (A) (A) (A) (A) (A) (A) (A) (A)
                 (A) (A) (A) (A) (A) (A) (A) (A) (A) (A) (A) (A)
                 (A) (A) (A) (A) (A) (A) (A) (A) (A) (A) (A) (A)
 The electronic state is 1-A.
 Alpha  occ. eigenvalues --  -89.90945 -19.60820 -19.59746 -14.79289 -14.78422
 Alpha  occ. eigenvalues --  -10.66603 -10.65316 -10.60177 -10.58062 -10.57580
 Alpha  occ. eigenvalues --  -10.56006  -8.26546  -6.18738  -6.18550  -6.18244
 Alpha  occ. eigenvalues --   -1.17762  -1.16602  -1.06239  -1.03704  -0.91263
 Alpha  occ. eigenvalues --   -0.86000  -0.82895  -0.79338  -0.71778  -0.68683
 Alpha  occ. eigenvalues --   -0.67123  -0.63380  -0.57895  -0.57067  -0.55295
 Alpha  occ. eigenvalues --   -0.54182  -0.52956  -0.52437  -0.50894  -0.49674
 Alpha  occ. eigenvalues --   -0.48213  -0.47077  -0.46595  -0.45646  -0.44679
 Alpha  occ. eigenvalues --   -0.43511  -0.39288  -0.36312  -0.35100  -0.33289
 Alpha  occ. eigenvalues --   -0.32720  -0.30818
 Alpha virt. eigenvalues --   -0.01374   0.00449   0.01006   0.01386   0.02877
 Alpha virt. eigenvalues --    0.03178   0.03494   0.03899   0.04049   0.04638
 Alpha virt. eigenvalues --    0.05026   0.05700   0.06578   0.07225   0.07448
 Alpha virt. eigenvalues --    0.07823   0.08034   0.08301   0.08566   0.09600
 Alpha virt. eigenvalues --    0.09647   0.11309   0.11602   0.12260   0.12595
 Alpha virt. eigenvalues --    0.12879   0.13343   0.13982   0.14509   0.15166
 Alpha virt. eigenvalues --    0.15398   0.15624   0.16550   0.16724   0.16996
 Alpha virt. eigenvalues --    0.17642   0.17787   0.17893   0.18430   0.19395
 Alpha virt. eigenvalues --    0.19819   0.19975   0.20425   0.20559   0.20988
 Alpha virt. eigenvalues --    0.21560   0.21853   0.22338   0.22416   0.22942
 Alpha virt. eigenvalues --    0.23293   0.23701   0.24232   0.24535   0.25451
 Alpha virt. eigenvalues --    0.25741   0.25877   0.26180   0.26409   0.26612
 Alpha virt. eigenvalues --    0.27243   0.27787   0.27848   0.27996   0.28392
 Alpha virt. eigenvalues --    0.29074   0.29182   0.29585   0.29932   0.30090
 Alpha virt. eigenvalues --    0.30518   0.30932   0.31073   0.31514   0.31885
 Alpha virt. eigenvalues --    0.31996   0.32336   0.32909   0.33036   0.33648
 Alpha virt. eigenvalues --    0.33864   0.34268   0.34891   0.35004   0.35421
 Alpha virt. eigenvalues --    0.35730   0.36300   0.36519   0.36885   0.37335
 Alpha virt. eigenvalues --    0.37380   0.37814   0.38491   0.39226   0.39364
 Alpha virt. eigenvalues --    0.39452   0.39982   0.40355   0.40638   0.41399
 Alpha virt. eigenvalues --    0.41838   0.42233   0.42553   0.42800   0.43179
 Alpha virt. eigenvalues --    0.43810   0.44513   0.44642   0.45039   0.45470
 Alpha virt. eigenvalues --    0.46125   0.46428   0.46759   0.47187   0.47878
 Alpha virt. eigenvalues --    0.47968   0.48876   0.49206   0.49670   0.49892
 Alpha virt. eigenvalues --    0.50445   0.51143   0.51499   0.51776   0.52074
 Alpha virt. eigenvalues --    0.52441   0.52987   0.53611   0.54165   0.54243
 Alpha virt. eigenvalues --    0.54981   0.55666   0.56465   0.56537   0.57010
 Alpha virt. eigenvalues --    0.57393   0.57967   0.58634   0.58844   0.59781
 Alpha virt. eigenvalues --    0.60072   0.60566   0.61140   0.61456   0.61864
 Alpha virt. eigenvalues --    0.62239   0.62407   0.62928   0.63212   0.63948
 Alpha virt. eigenvalues --    0.64199   0.64563   0.65462   0.66006   0.66302
 Alpha virt. eigenvalues --    0.66718   0.67714   0.67765   0.67862   0.69024
 Alpha virt. eigenvalues --    0.70140   0.70461   0.70903   0.71081   0.71798
 Alpha virt. eigenvalues --    0.72760   0.73713   0.74095   0.74273   0.75335
 Alpha virt. eigenvalues --    0.75908   0.76955   0.77214   0.78001   0.78876
 Alpha virt. eigenvalues --    0.79407   0.80438   0.80675   0.81239   0.81767
 Alpha virt. eigenvalues --    0.82065   0.82327   0.82984   0.83682   0.84530
 Alpha virt. eigenvalues --    0.84732   0.85417   0.86474   0.86938   0.87872
 Alpha virt. eigenvalues --    0.87985   0.88586   0.89132   0.89784   0.90201
 Alpha virt. eigenvalues --    0.91198   0.92400   0.92757   0.93209   0.93632
 Alpha virt. eigenvalues --    0.95017   0.95653   0.96388   0.97193   0.98038
 Alpha virt. eigenvalues --    0.98452   0.99762   1.00025   1.00374   1.01036
 Alpha virt. eigenvalues --    1.02320   1.02928   1.03691   1.04288   1.04920
 Alpha virt. eigenvalues --    1.05452   1.06018   1.07099   1.07255   1.08455
 Alpha virt. eigenvalues --    1.09204   1.09366   1.10102   1.11185   1.11705
 Alpha virt. eigenvalues --    1.12171   1.13096   1.14049   1.14802   1.14877
 Alpha virt. eigenvalues --    1.15460   1.16281   1.17494   1.17636   1.18375
 Alpha virt. eigenvalues --    1.18896   1.19100   1.20333   1.21128   1.21815
 Alpha virt. eigenvalues --    1.22243   1.22913   1.23589   1.23721   1.24850
 Alpha virt. eigenvalues --    1.25123   1.25863   1.26457   1.27550   1.27798
 Alpha virt. eigenvalues --    1.28640   1.29252   1.29361   1.29685   1.31513
 Alpha virt. eigenvalues --    1.32281   1.32908   1.33549   1.33716   1.34450
 Alpha virt. eigenvalues --    1.36043   1.37706   1.38056   1.38317   1.39099
 Alpha virt. eigenvalues --    1.40443   1.41125   1.41798   1.42028   1.42518
 Alpha virt. eigenvalues --    1.43505   1.43695   1.44488   1.45246   1.45949
 Alpha virt. eigenvalues --    1.47015   1.47642   1.47864   1.49564   1.50955
 Alpha virt. eigenvalues --    1.51752   1.52536   1.53406   1.53896   1.54335
 Alpha virt. eigenvalues --    1.55696   1.56641   1.56748   1.58748   1.60347
 Alpha virt. eigenvalues --    1.61111   1.62101   1.62721   1.63918   1.64211
 Alpha virt. eigenvalues --    1.65468   1.65873   1.67757   1.68635   1.70135
 Alpha virt. eigenvalues --    1.70415   1.70981   1.73161   1.73452   1.74667
 Alpha virt. eigenvalues --    1.75776   1.76689   1.78428   1.79022   1.80131
 Alpha virt. eigenvalues --    1.80934   1.81114   1.83357   1.84624   1.85377
 Alpha virt. eigenvalues --    1.86142   1.86755   1.87614   1.88327   1.89095
 Alpha virt. eigenvalues --    1.92008   1.93175   1.93706   1.94383   1.96432
 Alpha virt. eigenvalues --    1.97100   1.97520   1.99479   1.99808   2.00505
 Alpha virt. eigenvalues --    2.01342   2.02334   2.02946   2.04536   2.05194
 Alpha virt. eigenvalues --    2.05670   2.06579   2.07448   2.08685   2.09688
 Alpha virt. eigenvalues --    2.10461   2.10799   2.10981   2.12414   2.13034
 Alpha virt. eigenvalues --    2.14664   2.15240   2.16911   2.17602   2.18163
 Alpha virt. eigenvalues --    2.19120   2.19372   2.20104   2.21263   2.22142
 Alpha virt. eigenvalues --    2.23227   2.23994   2.24699   2.25684   2.26117
 Alpha virt. eigenvalues --    2.27055   2.28342   2.28453   2.28904   2.29638
 Alpha virt. eigenvalues --    2.30049   2.30620   2.31531   2.32243   2.33871
 Alpha virt. eigenvalues --    2.34272   2.34955   2.35181   2.35353   2.36345
 Alpha virt. eigenvalues --    2.37577   2.38460   2.39333   2.40224   2.41268
 Alpha virt. eigenvalues --    2.41797   2.42778   2.43218   2.44530   2.45336
 Alpha virt. eigenvalues --    2.45619   2.47614   2.49162   2.49938   2.50435
 Alpha virt. eigenvalues --    2.50863   2.52301   2.52865   2.54140   2.54771
 Alpha virt. eigenvalues --    2.55649   2.57124   2.57900   2.58496   2.60355
 Alpha virt. eigenvalues --    2.60695   2.61671   2.62872   2.64533   2.65080
 Alpha virt. eigenvalues --    2.66051   2.66610   2.67207   2.67246   2.68455
 Alpha virt. eigenvalues --    2.70156   2.70266   2.70577   2.71689   2.72103
 Alpha virt. eigenvalues --    2.72932   2.74481   2.74814   2.75884   2.77199
 Alpha virt. eigenvalues --    2.77510   2.77917   2.78569   2.80576   2.81231
 Alpha virt. eigenvalues --    2.81771   2.82830   2.83887   2.84628   2.85929
 Alpha virt. eigenvalues --    2.86078   2.87161   2.87659   2.88507   2.89931
 Alpha virt. eigenvalues --    2.90196   2.91173   2.92181   2.92620   2.93128
 Alpha virt. eigenvalues --    2.93624   2.94537   2.94683   2.95896   2.96580
 Alpha virt. eigenvalues --    2.97434   2.98026   2.98624   2.99145   3.00156
 Alpha virt. eigenvalues --    3.01150   3.02729   3.03170   3.03938   3.04567
 Alpha virt. eigenvalues --    3.05639   3.06052   3.07036   3.08705   3.09067
 Alpha virt. eigenvalues --    3.10509   3.11654   3.11886   3.12676   3.13187
 Alpha virt. eigenvalues --    3.14611   3.15081   3.16965   3.17407   3.18593
 Alpha virt. eigenvalues --    3.20326   3.21107   3.21583   3.22382   3.23845
 Alpha virt. eigenvalues --    3.24762   3.25186   3.26017   3.27588   3.29251
 Alpha virt. eigenvalues --    3.30169   3.30623   3.32000   3.32549   3.33887
 Alpha virt. eigenvalues --    3.34224   3.34407   3.35591   3.36467   3.37795
 Alpha virt. eigenvalues --    3.38940   3.40384   3.41310   3.42022   3.42561
 Alpha virt. eigenvalues --    3.43911   3.45358   3.46469   3.47110   3.49242
 Alpha virt. eigenvalues --    3.49785   3.50155   3.52068   3.52601   3.54036
 Alpha virt. eigenvalues --    3.54415   3.54579   3.55245   3.56915   3.57697
 Alpha virt. eigenvalues --    3.58634   3.60872   3.61996   3.62684   3.64537
 Alpha virt. eigenvalues --    3.64882   3.65308   3.67033   3.67738   3.68745
 Alpha virt. eigenvalues --    3.69553   3.70857   3.73213   3.74245   3.75304
 Alpha virt. eigenvalues --    3.76675   3.77911   3.79011   3.81107   3.82042
 Alpha virt. eigenvalues --    3.82630   3.83542   3.86509   3.87608   3.88291
 Alpha virt. eigenvalues --    3.88569   3.89392   3.90205   3.91025   3.92512
 Alpha virt. eigenvalues --    3.92618   3.93294   3.94848   3.95441   3.96704
 Alpha virt. eigenvalues --    3.98280   3.99938   4.02199   4.03305   4.05279
 Alpha virt. eigenvalues --    4.06177   4.07792   4.08049   4.09739   4.11800
 Alpha virt. eigenvalues --    4.13337   4.15594   4.18923   4.19675   4.20751
 Alpha virt. eigenvalues --    4.23713   4.25221   4.25684   4.27966   4.29226
 Alpha virt. eigenvalues --    4.31451   4.32610   4.33395   4.35451   4.37291
 Alpha virt. eigenvalues --    4.38977   4.39862   4.42871   4.44352   4.44993
 Alpha virt. eigenvalues --    4.46849   4.52296   4.54407   4.55821   4.57338
 Alpha virt. eigenvalues --    4.59355   4.60826   4.65084   4.66520   4.69176
 Alpha virt. eigenvalues --    4.70091   4.73186   4.74923   4.77294   4.80549
 Alpha virt. eigenvalues --    4.81275   4.85602   4.87515   4.88617   4.92367
 Alpha virt. eigenvalues --    4.92513   5.01046   5.03452   5.05426   5.09057
 Alpha virt. eigenvalues --    5.09778   5.11226   5.15513   5.17622   5.18731
 Alpha virt. eigenvalues --    5.20953   5.21849   5.25340   5.28113   5.29478
 Alpha virt. eigenvalues --    5.32795   5.33697   5.35437   5.37375   5.38223
 Alpha virt. eigenvalues --    5.39056   5.41194   5.43374   5.45873   5.48413
 Alpha virt. eigenvalues --    5.49080   5.50596   5.52083   5.53991   5.55338
 Alpha virt. eigenvalues --    5.56398   5.58369   5.59517   5.59976   5.60299
 Alpha virt. eigenvalues --    5.63470   5.66832   5.67183   5.67722   5.69588
 Alpha virt. eigenvalues --    5.70235   5.70688   5.71307   5.73379   5.73492
 Alpha virt. eigenvalues --    5.75025   5.75543   5.76389   5.77650   5.78109
 Alpha virt. eigenvalues --    5.79185   5.79534   5.80666   5.81492   5.82560
 Alpha virt. eigenvalues --    5.83664   5.84552   5.85005   5.85882   5.86489
 Alpha virt. eigenvalues --    5.87613   5.89281   5.90152   5.91387   5.92145
 Alpha virt. eigenvalues --    5.94850   5.97688   5.98307   5.98813   6.00465
 Alpha virt. eigenvalues --    6.01142   6.02960   6.03955   6.04496   6.05334
 Alpha virt. eigenvalues --    6.05695   6.06762   6.09265   6.09464   6.10614
 Alpha virt. eigenvalues --    6.11538   6.13095   6.13606   6.15726   6.16048
 Alpha virt. eigenvalues --    6.16612   6.17393   6.18483   6.19009   6.20515
 Alpha virt. eigenvalues --    6.21975   6.22904   6.23352   6.24794   6.25727
 Alpha virt. eigenvalues --    6.26941   6.27504   6.28495   6.30057   6.31212
 Alpha virt. eigenvalues --    6.32336   6.32753   6.34691   6.35894   6.36688
 Alpha virt. eigenvalues --    6.37959   6.38849   6.41237   6.42395   6.43804
 Alpha virt. eigenvalues --    6.44383   6.45303   6.45661   6.47633   6.49732
 Alpha virt. eigenvalues --    6.50259   6.51009   6.52547   6.53802   6.55673
 Alpha virt. eigenvalues --    6.56107   6.56602   6.57849   6.59367   6.60446
 Alpha virt. eigenvalues --    6.61925   6.62531   6.63736   6.66342   6.67560
 Alpha virt. eigenvalues --    6.68423   6.70482   6.71111   6.73317   6.73697
 Alpha virt. eigenvalues --    6.76084   6.76959   6.79073   6.79791   6.81392
 Alpha virt. eigenvalues --    6.82230   6.85087   6.85978   6.86803   6.89223
 Alpha virt. eigenvalues --    6.89976   6.90827   6.92468   6.94978   6.95438
 Alpha virt. eigenvalues --    6.97653   6.99739   7.00807   7.03530   7.04452
 Alpha virt. eigenvalues --    7.05149   7.05795   7.05971   7.08530   7.09243
 Alpha virt. eigenvalues --    7.11254   7.13790   7.15425   7.17880   7.21363
 Alpha virt. eigenvalues --    7.22076   7.23536   7.24482   7.26183   7.27181
 Alpha virt. eigenvalues --    7.27948   7.28737   7.29867   7.31328   7.32083
 Alpha virt. eigenvalues --    7.32768   7.34620   7.36067   7.37586   7.37856
 Alpha virt. eigenvalues --    7.39549   7.40745   7.41624   7.43614   7.44502
 Alpha virt. eigenvalues --    7.45151   7.46109   7.47702   7.47909   7.48369
 Alpha virt. eigenvalues --    7.50364   7.51089   7.51985   7.52673   7.54748
 Alpha virt. eigenvalues --    7.56702   7.58664   7.59000   7.59759   7.61054
 Alpha virt. eigenvalues --    7.62634   7.63416   7.64421   7.65068   7.65897
 Alpha virt. eigenvalues --    7.68040   7.70462   7.70880   7.72085   7.73130
 Alpha virt. eigenvalues --    7.74643   7.74893   7.75729   7.77072   7.78171
 Alpha virt. eigenvalues --    7.78767   7.79184   7.80767   7.81799   7.82739
 Alpha virt. eigenvalues --    7.83716   7.84303   7.85356   7.86681   7.87358
 Alpha virt. eigenvalues --    7.88953   7.90024   7.93182   7.93568   7.93990
 Alpha virt. eigenvalues --    7.96275   7.97674   7.99445   8.02551   8.02846
 Alpha virt. eigenvalues --    8.05254   8.07350   8.08477   8.09685   8.10594
 Alpha virt. eigenvalues --    8.12029   8.13486   8.14548   8.15410   8.16817
 Alpha virt. eigenvalues --    8.17103   8.17748   8.18299   8.19363   8.20204
 Alpha virt. eigenvalues --    8.22601   8.22832   8.23298   8.24202   8.25685
 Alpha virt. eigenvalues --    8.26152   8.26930   8.28822   8.29222   8.30512
 Alpha virt. eigenvalues --    8.31496   8.32118   8.33016   8.33982   8.34517
 Alpha virt. eigenvalues --    8.36192   8.36995   8.37615   8.39161   8.39707
 Alpha virt. eigenvalues --    8.42130   8.42641   8.43874   8.45440   8.47236
 Alpha virt. eigenvalues --    8.48579   8.51048   8.52596   8.52757   8.56116
 Alpha virt. eigenvalues --    8.57165   8.58478   8.61013   8.61928   8.64361
 Alpha virt. eigenvalues --    8.67471   8.68648   8.70745   8.71695   8.72933
 Alpha virt. eigenvalues --    8.73469   8.75849   8.75891   8.77038   8.77927
 Alpha virt. eigenvalues --    8.78801   8.79314   8.82289   8.82598   8.83289
 Alpha virt. eigenvalues --    8.84249   8.85351   8.85898   8.86787   8.87046
 Alpha virt. eigenvalues --    8.88092   8.90305   8.91685   8.94894   8.96360
 Alpha virt. eigenvalues --    8.97755   8.99519   9.00095   9.01218   9.02678
 Alpha virt. eigenvalues --    9.03870   9.05552   9.07804   9.10238   9.13153
 Alpha virt. eigenvalues --    9.16887   9.18197   9.20294   9.21904   9.26873
 Alpha virt. eigenvalues --    9.28070   9.28944   9.31427   9.33956   9.35917
 Alpha virt. eigenvalues --    9.40412   9.43576   9.46735   9.48674   9.48884
 Alpha virt. eigenvalues --    9.56160   9.58321   9.59195   9.59848   9.60679
 Alpha virt. eigenvalues --    9.62093   9.62711   9.63203   9.64599   9.65906
 Alpha virt. eigenvalues --    9.66729   9.68215   9.68574   9.70825   9.72814
 Alpha virt. eigenvalues --    9.73555   9.74608   9.78610   9.79381   9.80772
 Alpha virt. eigenvalues --    9.82781   9.85468   9.86987   9.88389   9.90445
 Alpha virt. eigenvalues --    9.91696   9.92956   9.93285   9.95728   9.96519
 Alpha virt. eigenvalues --    9.99222  10.01354  10.05081  10.06758  10.08490
 Alpha virt. eigenvalues --   10.15950  10.17961  10.21201  10.25338  10.27968
 Alpha virt. eigenvalues --   10.29174  10.29951  10.32137  10.36781  10.40982
 Alpha virt. eigenvalues --   10.44086  10.55838  10.61496  10.65866  10.70819
 Alpha virt. eigenvalues --   10.73470  10.83015  10.88570  10.97473  10.99816
 Alpha virt. eigenvalues --   11.03800  11.05730  11.20702  11.28889  11.32660
 Alpha virt. eigenvalues --   11.35820  11.44089  11.46261  11.49092  11.52576
 Alpha virt. eigenvalues --   11.58628  11.60743  11.75687  11.78407  11.80538
 Alpha virt. eigenvalues --   11.85899  11.86238  11.89812  11.92311  11.94562
 Alpha virt. eigenvalues --   11.95124  11.98814  12.04803  12.09504  12.12538
 Alpha virt. eigenvalues --   12.18339  12.22810  12.27720  12.34681  12.40267
 Alpha virt. eigenvalues --   12.44589  12.81339  12.88111  13.05079  13.05360
 Alpha virt. eigenvalues --   13.17440  13.27285  13.39687  13.42377  14.26207
 Alpha virt. eigenvalues --   14.27630  14.41893  14.43144  14.89607  14.90489
 Alpha virt. eigenvalues --   24.80238  28.52228  28.63190  28.97661  29.04359
 Alpha virt. eigenvalues --   29.12782  29.13688  29.17375  29.48619  29.63455
 Alpha virt. eigenvalues --   38.19256  38.29137  48.36124  48.36833  84.47619
 Alpha virt. eigenvalues --  145.96572 146.08706 146.58076 146.59907 146.62552
 Alpha virt. eigenvalues --  146.64901 195.81396 195.93882 251.48135 251.48905
 Alpha virt. eigenvalues --  450.43168
          Condensed to atoms (all electrons):
               1          2          3          4          5          6
     1  N    7.605975  -0.273706  -0.108652  -0.001675  -0.088789  -0.093030
     2  C   -0.273706   6.638749   0.140297   0.018042  -0.030706   0.109844
     3  C   -0.108652   0.140297   4.773644   0.436712  -0.099353  -0.036396
     4  O   -0.001675   0.018042   0.436712   8.185181  -0.026630  -0.012245
     5  C   -0.088789  -0.030706  -0.099353  -0.026630   6.199950   0.177277
     6  S   -0.093030   0.109844  -0.036396  -0.012245   0.177277  15.800278
     7  H    0.140247   0.066684  -0.062513  -0.001865   0.015647   0.028025
     8  H   -0.109623   0.217474  -0.049353  -0.007452  -0.010176  -0.005515
     9  H   -0.018254  -0.165950   0.011744  -0.000746   0.324021  -0.058223
    10  H   -0.012506  -0.171719   0.021601   0.003736   0.326673  -0.068865
    11  C    0.515269  -0.118312   0.005161  -0.002450  -0.071793  -0.008813
    12  O   -0.105073   0.059817  -0.004795  -0.000473  -0.003388   0.000979
    13  N    0.007959  -0.094879   0.554455  -0.059699   0.000780   0.013060
    14  C   -0.002047  -0.030413  -0.203447  -0.016202   0.001989  -0.001846
    15  H    0.000289  -0.002898  -0.033790  -0.000840   0.001224  -0.001574
    16  H    0.001364  -0.002164  -0.019716  -0.004953   0.002129  -0.001453
    17  H    0.000893   0.000160  -0.013308   0.006538  -0.000849   0.000023
    18  H    0.032923   0.035392   0.003950   0.025967  -0.014132   0.012242
    19  C   -0.109241  -0.008709   0.007331   0.000026  -0.007443  -0.000787
    20  H    0.015105  -0.003254   0.001360   0.000021  -0.000652   0.000014
    21  H    0.024089  -0.010573  -0.000276  -0.000029  -0.001686  -0.000801
    22  H   -0.013145   0.003555   0.001761   0.000022   0.000218   0.000062
    23  H    0.006803  -0.015105   0.004779  -0.001206  -0.014441   0.345237
               7          8          9         10         11         12
     1  N    0.140247  -0.109623  -0.018254  -0.012506   0.515269  -0.105073
     2  C    0.066684   0.217474  -0.165950  -0.171719  -0.118312   0.059817
     3  C   -0.062513  -0.049353   0.011744   0.021601   0.005161  -0.004795
     4  O   -0.001865  -0.007452  -0.000746   0.003736  -0.002450  -0.000473
     5  C    0.015647  -0.010176   0.324021   0.326673  -0.071793  -0.003388
     6  S    0.028025  -0.005515  -0.058223  -0.068865  -0.008813   0.000979
     7  H    0.470569  -0.011270   0.004981   0.009213  -0.102184   0.029345
     8  H   -0.011270   0.513666   0.042328   0.046070  -0.031412   0.016453
     9  H    0.004981   0.042328   0.516197   0.061279  -0.011811   0.002014
    10  H    0.009213   0.046070   0.061279   0.585649  -0.033759   0.002734
    11  C   -0.102184  -0.031412  -0.011811  -0.033759   4.700708   0.516077
    12  O    0.029345   0.016453   0.002014   0.002734   0.516077   8.070564
    13  N   -0.031969   0.015625   0.005908   0.003925  -0.007012   0.004587
    14  C   -0.003518   0.001451   0.000214   0.000130  -0.001073   0.000521
    15  H    0.000360  -0.000594  -0.000125  -0.000154  -0.000305   0.000036
    16  H    0.003375   0.000978   0.000364   0.000107  -0.000860   0.000033
    17  H   -0.001754  -0.000706  -0.000231  -0.000105   0.000639   0.000002
    18  H    0.007559  -0.009286   0.001980   0.001012  -0.013074   0.000636
    19  C   -0.028132  -0.001556  -0.001380  -0.006360   0.304710  -0.057231
    20  H   -0.025131  -0.000225  -0.000397  -0.002347  -0.095430  -0.032655
    21  H    0.015457  -0.001074  -0.000251  -0.001380  -0.046400  -0.003190
    22  H   -0.015247   0.001199   0.000031   0.000134  -0.062635  -0.011356
    23  H    0.000015  -0.001251  -0.004374  -0.023877  -0.002814   0.000136
              13         14         15         16         17         18
     1  N    0.007959  -0.002047   0.000289   0.001364   0.000893   0.032923
     2  C   -0.094879  -0.030413  -0.002898  -0.002164   0.000160   0.035392
     3  C    0.554455  -0.203447  -0.033790  -0.019716  -0.013308   0.003950
     4  O   -0.059699  -0.016202  -0.000840  -0.004953   0.006538   0.025967
     5  C    0.000780   0.001989   0.001224   0.002129  -0.000849  -0.014132
     6  S    0.013060  -0.001846  -0.001574  -0.001453   0.000023   0.012242
     7  H   -0.031969  -0.003518   0.000360   0.003375  -0.001754   0.007559
     8  H    0.015625   0.001451  -0.000594   0.000978  -0.000706  -0.009286
     9  H    0.005908   0.000214  -0.000125   0.000364  -0.000231   0.001980
    10  H    0.003925   0.000130  -0.000154   0.000107  -0.000105   0.001012
    11  C   -0.007012  -0.001073  -0.000305  -0.000860   0.000639  -0.013074
    12  O    0.004587   0.000521   0.000036   0.000033   0.000002   0.000636
    13  N    6.684006   0.287964  -0.038110  -0.098492  -0.031946   0.220079
    14  C    0.287964   5.668850   0.409136   0.394581   0.388561  -0.118814
    15  H   -0.038110   0.409136   0.436662  -0.000107  -0.028746  -0.010298
    16  H   -0.098492   0.394581  -0.000107   0.558464  -0.042094  -0.010791
    17  H   -0.031946   0.388561  -0.028746  -0.042094   0.450992  -0.000267
    18  H    0.220079  -0.118814  -0.010298  -0.010791  -0.000267   0.453930
    19  C    0.009128  -0.000261  -0.000093  -0.000560   0.000289  -0.000787
    20  H    0.001104  -0.000053  -0.000004  -0.000048   0.000019  -0.000318
    21  H    0.000609   0.000143   0.000007  -0.000033   0.000028  -0.001256
    22  H    0.000959   0.000111  -0.000001  -0.000038   0.000021  -0.000543
    23  H   -0.000178   0.000148   0.000010  -0.000002   0.000003   0.001114
              19         20         21         22         23
     1  N   -0.109241   0.015105   0.024089  -0.013145   0.006803
     2  C   -0.008709  -0.003254  -0.010573   0.003555  -0.015105
     3  C    0.007331   0.001360  -0.000276   0.001761   0.004779
     4  O    0.000026   0.000021  -0.000029   0.000022  -0.001206
     5  C   -0.007443  -0.000652  -0.001686   0.000218  -0.014441
     6  S   -0.000787   0.000014  -0.000801   0.000062   0.345237
     7  H   -0.028132  -0.025131   0.015457  -0.015247   0.000015
     8  H   -0.001556  -0.000225  -0.001074   0.001199  -0.001251
     9  H   -0.001380  -0.000397  -0.000251   0.000031  -0.004374
    10  H   -0.006360  -0.002347  -0.001380   0.000134  -0.023877
    11  C    0.304710  -0.095430  -0.046400  -0.062635  -0.002814
    12  O   -0.057231  -0.032655  -0.003190  -0.011356   0.000136
    13  N    0.009128   0.001104   0.000609   0.000959  -0.000178
    14  C   -0.000261  -0.000053   0.000143   0.000111   0.000148
    15  H   -0.000093  -0.000004   0.000007  -0.000001   0.000010
    16  H   -0.000560  -0.000048  -0.000033  -0.000038  -0.000002
    17  H    0.000289   0.000019   0.000028   0.000021   0.000003
    18  H   -0.000787  -0.000318  -0.001256  -0.000543   0.001114
    19  C    5.846738   0.310690   0.362419   0.346334  -0.001079
    20  H    0.310690   0.535447  -0.034777   0.012233  -0.000557
    21  H    0.362419  -0.034777   0.456201  -0.034894   0.000420
    22  H    0.346334   0.012233  -0.034894   0.457317  -0.000021
    23  H   -0.001079  -0.000557   0.000420  -0.000021   0.556182
 Mulliken charges:
               1
     1  N   -0.415176
     2  C   -0.361628
     3  C    0.668803
     4  O   -0.539781
     5  C   -0.679870
     6  S   -0.197491
     7  H    0.492105
     8  H    0.384244
     9  H    0.290683
    10  H    0.258809
    11  C    0.567574
    12  O   -0.485774
    13  N   -0.447863
    14  C   -0.776123
    15  H    0.269914
    16  H    0.219916
    17  H    0.271838
    18  H    0.382783
    19  C   -0.964046
    20  H    0.319855
    21  H    0.277246
    22  H    0.313923
    23  H    0.150057
 Sum of Mulliken charges =  -0.00000
 Mulliken charges with hydrogens summed into heavy atoms:
               1
     1  N    0.076929
     2  C    0.022616
     3  C    0.668803
     4  O   -0.539781
     5  C   -0.130378
     6  S   -0.047434
    11  C    0.567574
    12  O   -0.485774
    13  N   -0.065080
    14  C   -0.014455
    19  C   -0.053021
 Electronic spatial extent (au):  <R**2>=           2375.3650
 Charge=             -0.0000 electrons
 Dipole moment (field-independent basis, Debye):
    X=              1.9301    Y=             -1.6626    Z=             -3.7662  Tot=              4.5468
 Quadrupole moment (field-independent basis, Debye-Ang):
   XX=            -79.5994   YY=            -72.1159   ZZ=            -75.5290
   XY=              9.0755   XZ=             -5.1333   YZ=              5.6807
 Traceless Quadrupole moment (field-independent basis, Debye-Ang):
   XX=             -3.8513   YY=              3.6322   ZZ=              0.2191
   XY=              9.0755   XZ=             -5.1333   YZ=              5.6807
 Octapole moment (field-independent basis, Debye-Ang**2):
  XXX=             13.7316  YYY=            -28.2477  ZZZ=             -3.2382  XYY=             -2.5740
  XXY=             -9.1980  XXZ=            -35.4019  XZZ=             -4.3093  YZZ=              3.0982
  YYZ=             -3.1586  XYZ=              4.0325
 Hexadecapole moment (field-independent basis, Debye-Ang**3):
 XXXX=          -1641.7447 YYYY=          -1149.3613 ZZZZ=           -374.6933 XXXY=             43.4224
 XXXZ=            -24.3186 YYYX=             31.6065 YYYZ=             11.3987 ZZZX=             -9.5555
 ZZZY=              7.4063 XXYY=           -428.0946 XXZZ=           -371.4753 YYZZ=           -239.2558
 XXYZ=             27.8793 YYXZ=            -11.5098 ZZXY=             16.1815
 N-N= 7.405827197911D+02 E-N=-3.586252712026D+03  KE= 8.915037856483D+02
 PrsmSu:  requested number of processors reduced to:  18 ShMem   1 Linda.
 No NMR shielding tensors so no spin-rotation constants.
 Leave Link  601 at Sat Apr 17 06:39:52 2021, MaxMem=   104857600 cpu:             978.9 elap:              21.3
 (Enter /s/ls4/users/knvvv/bin/g16sse/l801.exe)
 DoSCS=F DFT=T ScalE2(SS,OS)=  1.000000  1.000000
 Range of M.O.s used for correlation:     1  1103
[...]
 Alpha virt. eigenvalues --    3.98280   3.99938   4.02199   4.03305   4.05279
 Alpha virt. eigenvalues --    4.06177   4.07792   4.08049   4.09739   4.11800
 Alpha virt. eigenvalues --    4.13337   4.15594   4.18923   4.19675   4.20751
 Alpha virt. eigenvalues --    4.23713   4.25221   4.25684   4.27966   4.29226
 Alpha virt. eigenvalues --    4.31451   4.32610   4.33395   4.35451   4.37291
 Alpha virt. eigenvalues --    4.38977   4.39862   4.42871   4.44352   4.44993
 Alpha virt. eigenvalues --    4.46849   4.52296   4.54407   4.55821   4.57338
 Alpha virt. eigenvalues --    4.59355   4.60826   4.65084   4.66520   4.69176
 Alpha virt. eigenvalues --    4.70091   4.73186   4.74923   4.77294   4.80549
 Alpha virt. eigenvalues --    4.81275   4.85602   4.87515   4.88617   4.92367
 Alpha virt. eigenvalues --    4.92513   5.01046   5.03452   5.05426   5.09057
 Alpha virt. eigenvalues --    5.09778   5.11226   5.15513   5.17622   5.18731
 Alpha virt. eigenvalues --    5.20953   5.21849   5.25340   5.28113   5.29478
 Alpha virt. eigenvalues --    5.32795   5.33697   5.35437   5.37375   5.38223
 Alpha virt. eigenvalues --    5.39056   5.41194   5.43374   5.45873   5.48413
 Alpha virt. eigenvalues --    5.49080   5.50596   5.52083   5.53991   5.55338
 Alpha virt. eigenvalues --    5.56398   5.58369   5.59517   5.59976   5.60299
 Alpha virt. eigenvalues --    5.63470   5.66832   5.67183   5.67722   5.69588
 Alpha virt. eigenvalues --    5.70235   5.70688   5.71307   5.73379   5.73492
 Alpha virt. eigenvalues --    5.75025   5.75543   5.76389   5.77650   5.78109
 Alpha virt. eigenvalues --    5.79185   5.79534   5.80666   5.81492   5.82560
 Alpha virt. eigenvalues --    5.83664   5.84552   5.85005   5.85882   5.86489
 Alpha virt. eigenvalues --    5.87613   5.89281   5.90152   5.91387   5.92145
 Alpha virt. eigenvalues --    5.94850   5.97688   5.98307   5.98813   6.00465
 Alpha virt. eigenvalues --    6.01142   6.02960   6.03955   6.04496   6.05334
 Alpha virt. eigenvalues --    6.05695   6.06762   6.09265   6.09464   6.10614
 Alpha virt. eigenvalues --    6.11538   6.13095   6.13606   6.15726   6.16048
 Alpha virt. eigenvalues --    6.16612   6.17393   6.18483   6.19009   6.20515
 Alpha virt. eigenvalues --    6.21975   6.22904   6.23352   6.24794   6.25727
 Alpha virt. eigenvalues --    6.26941   6.27504   6.28495   6.30057   6.31212
 Alpha virt. eigenvalues --    6.32336   6.32753   6.34691   6.35894   6.36688
 Alpha virt. eigenvalues --    6.37959   6.38849   6.41237   6.42395   6.43804
 Alpha virt. eigenvalues --    6.44383   6.45303   6.45661   6.47633   6.49732
 Alpha virt. eigenvalues --    6.50259   6.51009   6.52547   6.53802   6.55673
 Alpha virt. eigenvalues --    6.56107   6.56602   6.57849   6.59367   6.60446
 Alpha virt. eigenvalues --    6.61925   6.62531   6.63736   6.66342   6.67560
 Alpha virt. eigenvalues --    6.68423   6.70482   6.71111   6.73317   6.73697
 Alpha virt. eigenvalues --    6.76084   6.76959   6.79073   6.79791   6.81392
 Alpha virt. eigenvalues --    6.82230   6.85087   6.85978   6.86803   6.89223
 Alpha virt. eigenvalues --    6.89976   6.90827   6.92468   6.94978   6.95438
 Alpha virt. eigenvalues --    6.97653   6.99739   7.00807   7.03530   7.04452
 Alpha virt. eigenvalues --    7.05149   7.05795   7.05971   7.08530   7.09243
 Alpha virt. eigenvalues --    7.11254   7.13790   7.15425   7.17880   7.21363
 Alpha virt. eigenvalues --    7.22076   7.23536   7.24482   7.26183   7.27181
 Alpha virt. eigenvalues --    7.27948   7.28737   7.29867   7.31328   7.32083
 Alpha virt. eigenvalues --    7.32768   7.34620   7.36067   7.37586   7.37856
 Alpha virt. eigenvalues --    7.39549   7.40745   7.41624   7.43614   7.44502
 Alpha virt. eigenvalues --    7.45151   7.46109   7.47702   7.47909   7.48369
 Alpha virt. eigenvalues --    7.50364   7.51089   7.51985   7.52673   7.54748
 Alpha virt. eigenvalues --    7.56702   7.58664   7.59000   7.59759   7.61054
 Alpha virt. eigenvalues --    7.62634   7.63416   7.64421   7.65068   7.65897
 Alpha virt. eigenvalues --    7.68040   7.70462   7.70880   7.72085   7.73130
 Alpha virt. eigenvalues --    7.74643   7.74893   7.75729   7.77072   7.78171
 Alpha virt. eigenvalues --    7.78767   7.79184   7.80767   7.81799   7.82739
 Alpha virt. eigenvalues --    7.83716   7.84303   7.85356   7.86681   7.87358
 Alpha virt. eigenvalues --    7.88953   7.90024   7.93182   7.93568   7.93990
 Alpha virt. eigenvalues --    7.96275   7.97674   7.99445   8.02551   8.02846
 Alpha virt. eigenvalues --    8.05254   8.07350   8.08477   8.09685   8.10594
 Alpha virt. eigenvalues --    8.12029   8.13486   8.14548   8.15410   8.16817
 Alpha virt. eigenvalues --    8.17103   8.17748   8.18299   8.19363   8.20204
 Alpha virt. eigenvalues --    8.22601   8.22832   8.23298   8.24202   8.25685
 Alpha virt. eigenvalues --    8.26152   8.26930   8.28822   8.29222   8.30512
 Alpha virt. eigenvalues --    8.31496   8.32118   8.33016   8.33982   8.34517
 Alpha virt. eigenvalues --    8.36192   8.36995   8.37615   8.39161   8.39707
 Alpha virt. eigenvalues --    8.42130   8.42641   8.43874   8.45440   8.47236
 Alpha virt. eigenvalues --    8.48579   8.51048   8.52596   8.52757   8.56116
 Alpha virt. eigenvalues --    8.57165   8.58478   8.61013   8.61928   8.64361
 Alpha virt. eigenvalues --    8.67471   8.68648   8.70745   8.71695   8.72933
 Alpha virt. eigenvalues --    8.73469   8.75849   8.75891   8.77038   8.77927
 Alpha virt. eigenvalues --    8.78801   8.79314   8.82289   8.82598   8.83289
 Alpha virt. eigenvalues --    8.84249   8.85351   8.85898   8.86787   8.87046
 Alpha virt. eigenvalues --    8.88092   8.90305   8.91685   8.94894   8.96360
 Alpha virt. eigenvalues --    8.97755   8.99519   9.00095   9.01218   9.02678
 Alpha virt. eigenvalues --    9.03870   9.05552   9.07804   9.10238   9.13153
 Alpha virt. eigenvalues --    9.16887   9.18197   9.20294   9.21904   9.26873
 Alpha virt. eigenvalues --    9.28070   9.28944   9.31427   9.33956   9.35917
 Alpha virt. eigenvalues --    9.40412   9.43576   9.46735   9.48674   9.48884
 Alpha virt. eigenvalues --    9.56160   9.58321   9.59195   9.59848   9.60679
 Alpha virt. eigenvalues --    9.62093   9.62711   9.63203   9.64599   9.65906
 Alpha virt. eigenvalues --    9.66729   9.68215   9.68574   9.70825   9.72814
 Alpha virt. eigenvalues --    9.73555   9.74608   9.78610   9.79381   9.80772
 Alpha virt. eigenvalues --    9.82781   9.85468   9.86987   9.88389   9.90445
 Alpha virt. eigenvalues --    9.91696   9.92956   9.93285   9.95728   9.96519
 Alpha virt. eigenvalues --    9.99222  10.01354  10.05081  10.06758  10.08490
 Alpha virt. eigenvalues --   10.15950  10.17961  10.21201  10.25338  10.27968
 Alpha virt. eigenvalues --   10.29174  10.29951  10.32137  10.36781  10.40982
 Alpha virt. eigenvalues --   10.44086  10.55838  10.61496  10.65866  10.70819
 Alpha virt. eigenvalues --   10.73470  10.83015  10.88570  10.97473  10.99816
 Alpha virt. eigenvalues --   11.03800  11.05730  11.20702  11.28889  11.32660
 Alpha virt. eigenvalues --   11.35820  11.44089  11.46261  11.49092  11.52576
 Alpha virt. eigenvalues --   11.58628  11.60743  11.75687  11.78407  11.80538
 Alpha virt. eigenvalues --   11.85899  11.86238  11.89812  11.92311  11.94562
 Alpha virt. eigenvalues --   11.95124  11.98814  12.04803  12.09504  12.12538
 Alpha virt. eigenvalues --   12.18339  12.22810  12.27720  12.34681  12.40267
 Alpha virt. eigenvalues --   12.44589  12.81339  12.88111  13.05079  13.05360
 Alpha virt. eigenvalues --   13.17440  13.27285  13.39687  13.42377  14.26207
 Alpha virt. eigenvalues --   14.27630  14.41893  14.43144  14.89607  14.90489
 Alpha virt. eigenvalues --   24.80238  28.52228  28.63190  28.97661  29.04359
 Alpha virt. eigenvalues --   29.12782  29.13688  29.17375  29.48619  29.63455
 Alpha virt. eigenvalues --   38.19256  38.29137  48.36124  48.36833  84.47619
 Alpha virt. eigenvalues --  145.96572 146.08706 146.58076 146.59907 146.62552
 Alpha virt. eigenvalues --  146.64901 195.81396 195.93882 251.48135 251.48905
 Alpha virt. eigenvalues --  450.43168
          Condensed to atoms (all electrons):
               1          2          3          4          5          6
     1  N    7.605975  -0.273706  -0.108652  -0.001675  -0.088789  -0.093030
     2  C   -0.273706   6.638749   0.140297   0.018042  -0.030706   0.109844
     3  C   -0.108652   0.140297   4.773644   0.436712  -0.099353  -0.036396
     4  O   -0.001675   0.018042   0.436712   8.185181  -0.026630  -0.012245
     5  C   -0.088789  -0.030706  -0.099353  -0.026630   6.199950   0.177277
     6  S   -0.093030   0.109844  -0.036396  -0.012245   0.177277  15.800278
     7  H    0.140247   0.066684  -0.062513  -0.001865   0.015647   0.028025
     8  H   -0.109623   0.217474  -0.049353  -0.007452  -0.010176  -0.005515
     9  H   -0.018254  -0.165950   0.011744  -0.000746   0.324021  -0.058223
    10  H   -0.012506  -0.171719   0.021601   0.003736   0.326673  -0.068865
    11  C    0.515269  -0.118312   0.005161  -0.002450  -0.071793  -0.008813
    12  O   -0.105073   0.059817  -0.004795  -0.000473  -0.003388   0.000979
    13  N    0.007959  -0.094879   0.554455  -0.059699   0.000780   0.013060
    14  C   -0.002047  -0.030413  -0.203447  -0.016202   0.001989  -0.001846
    15  H    0.000289  -0.002898  -0.033790  -0.000840   0.001224  -0.001574
    16  H    0.001364  -0.002164  -0.019716  -0.004953   0.002129  -0.001453
    17  H    0.000893   0.000160  -0.013308   0.006538  -0.000849   0.000023
    18  H    0.032923   0.035392   0.003950   0.025967  -0.014132   0.012242
    19  C   -0.109241  -0.008709   0.007331   0.000026  -0.007443  -0.000787
    20  H    0.015105  -0.003254   0.001360   0.000021  -0.000652   0.000014
    21  H    0.024089  -0.010573  -0.000276  -0.000029  -0.001686  -0.000801
    22  H   -0.013145   0.003555   0.001761   0.000022   0.000218   0.000062
    23  H    0.006803  -0.015105   0.004779  -0.001206  -0.014441   0.345237
               7          8          9         10         11         12
     1  N    0.140247  -0.109623  -0.018254  -0.012506   0.515269  -0.105073
     2  C    0.066684   0.217474  -0.165950  -0.171719  -0.118312   0.059817
     3  C   -0.062513  -0.049353   0.011744   0.021601   0.005161  -0.004795
     4  O   -0.001865  -0.007452  -0.000746   0.003736  -0.002450  -0.000473
     5  C    0.015647  -0.010176   0.324021   0.326673  -0.071793  -0.003388
     6  S    0.028025  -0.005515  -0.058223  -0.068865  -0.008813   0.000979
     7  H    0.470569  -0.011270   0.004981   0.009213  -0.102184   0.029345
     8  H   -0.011270   0.513666   0.042328   0.046070  -0.031412   0.016453
     9  H    0.004981   0.042328   0.516197   0.061279  -0.011811   0.002014
    10  H    0.009213   0.046070   0.061279   0.585649  -0.033759   0.002734
    11  C   -0.102184  -0.031412  -0.011811  -0.033759   4.700708   0.516077
    12  O    0.029345   0.016453   0.002014   0.002734   0.516077   8.070564
    13  N   -0.031969   0.015625   0.005908   0.003925  -0.007012   0.004587
    14  C   -0.003518   0.001451   0.000214   0.000130  -0.001073   0.000521
    15  H    0.000360  -0.000594  -0.000125  -0.000154  -0.000305   0.000036
    16  H    0.003375   0.000978   0.000364   0.000107  -0.000860   0.000033
    17  H   -0.001754  -0.000706  -0.000231  -0.000105   0.000639   0.000002
    18  H    0.007559  -0.009286   0.001980   0.001012  -0.013074   0.000636
    19  C   -0.028132  -0.001556  -0.001380  -0.006360   0.304710  -0.057231
    20  H   -0.025131  -0.000225  -0.000397  -0.002347  -0.095430  -0.032655
    21  H    0.015457  -0.001074  -0.000251  -0.001380  -0.046400  -0.003190
    22  H   -0.015247   0.001199   0.000031   0.000134  -0.062635  -0.011356
    23  H    0.000015  -0.001251  -0.004374  -0.023877  -0.002814   0.000136
              13         14         15         16         17         18
     1  N    0.007959  -0.002047   0.000289   0.001364   0.000893   0.032923
     2  C   -0.094879  -0.030413  -0.002898  -0.002164   0.000160   0.035392
     3  C    0.554455  -0.203447  -0.033790  -0.019716  -0.013308   0.003950
     4  O   -0.059699  -0.016202  -0.000840  -0.004953   0.006538   0.025967
     5  C    0.000780   0.001989   0.001224   0.002129  -0.000849  -0.014132
     6  S    0.013060  -0.001846  -0.001574  -0.001453   0.000023   0.012242
     7  H   -0.031969  -0.003518   0.000360   0.003375  -0.001754   0.007559
     8  H    0.015625   0.001451  -0.000594   0.000978  -0.000706  -0.009286
     9  H    0.005908   0.000214  -0.000125   0.000364  -0.000231   0.001980
    10  H    0.003925   0.000130  -0.000154   0.000107  -0.000105   0.001012
    11  C   -0.007012  -0.001073  -0.000305  -0.000860   0.000639  -0.013074
    12  O    0.004587   0.000521   0.000036   0.000033   0.000002   0.000636
    13  N    6.684006   0.287964  -0.038110  -0.098492  -0.031946   0.220079
    14  C    0.287964   5.668850   0.409136   0.394581   0.388561  -0.118814
    15  H   -0.038110   0.409136   0.436662  -0.000107  -0.028746  -0.010298
    16  H   -0.098492   0.394581  -0.000107   0.558464  -0.042094  -0.010791
    17  H   -0.031946   0.388561  -0.028746  -0.042094   0.450992  -0.000267
    18  H    0.220079  -0.118814  -0.010298  -0.010791  -0.000267   0.453930
    19  C    0.009128  -0.000261  -0.000093  -0.000560   0.000289  -0.000787
    20  H    0.001104  -0.000053  -0.000004  -0.000048   0.000019  -0.000318
    21  H    0.000609   0.000143   0.000007  -0.000033   0.000028  -0.001256
    22  H    0.000959   0.000111  -0.000001  -0.000038   0.000021  -0.000543
    23  H   -0.000178   0.000148   0.000010  -0.000002   0.000003   0.001114
              19         20         21         22         23
     1  N   -0.109241   0.015105   0.024089  -0.013145   0.006803
     2  C   -0.008709  -0.003254  -0.010573   0.003555  -0.015105
     3  C    0.007331   0.001360  -0.000276   0.001761   0.004779
     4  O    0.000026   0.000021  -0.000029   0.000022  -0.001206
     5  C   -0.007443  -0.000652  -0.001686   0.000218  -0.014441
     6  S   -0.000787   0.000014  -0.000801   0.000062   0.345237
     7  H   -0.028132  -0.025131   0.015457  -0.015247   0.000015
     8  H   -0.001556  -0.000225  -0.001074   0.001199  -0.001251
     9  H   -0.001380  -0.000397  -0.000251   0.000031  -0.004374
    10  H   -0.006360  -0.002347  -0.001380   0.000134  -0.023877
    11  C    0.304710  -0.095430  -0.046400  -0.062635  -0.002814
    12  O   -0.057231  -0.032655  -0.003190  -0.011356   0.000136
    13  N    0.009128   0.001104   0.000609   0.000959  -0.000178
    14  C   -0.000261  -0.000053   0.000143   0.000111   0.000148
    15  H   -0.000093  -0.000004   0.000007  -0.000001   0.000010
    16  H   -0.000560  -0.000048  -0.000033  -0.000038  -0.000002
    17  H    0.000289   0.000019   0.000028   0.000021   0.000003
    18  H   -0.000787  -0.000318  -0.001256  -0.000543   0.001114
    19  C    5.846738   0.310690   0.362419   0.346334  -0.001079
    20  H    0.310690   0.535447  -0.034777   0.012233  -0.000557
    21  H    0.362419  -0.034777   0.456201  -0.034894   0.000420
    22  H    0.346334   0.012233  -0.034894   0.457317  -0.000021
    23  H   -0.001079  -0.000557   0.000420  -0.000021   0.556182
 Mulliken charges:
               1
     1  N   -0.415176
     2  C   -0.361628
     3  C    0.668803
     4  O   -0.539781
     5  C   -0.679870
     6  S   -0.197491
     7  H    0.492105
     8  H    0.384244
     9  H    0.290683
    10  H    0.258809
    11  C    0.567574
    12  O   -0.485774
    13  N   -0.447863
    14  C   -0.776123
    15  H    0.269914
    16  H    0.219916
    17  H    0.271838
    18  H    0.382783
    19  C   -0.964046
    20  H    0.319855
    21  H    0.277246
    22  H    0.313923
    23  H    0.150057
 Sum of Mulliken charges =  -0.00000
 Mulliken charges with hydrogens summed into heavy atoms:
               1
     1  N    0.076929
     2  C    0.022616
     3  C    0.668803
     4  O   -0.539781
     5  C   -0.130378
     6  S   -0.047434
    11  C    0.567574
    12  O   -0.485774
    13  N   -0.065080
    14  C   -0.014455
    19  C   -0.053021
 Electronic spatial extent (au):  <R**2>=           2375.3650
 Charge=             -0.0000 electrons
 Dipole moment (field-independent basis, Debye):
    X=              1.9301    Y=             -1.6626    Z=             -3.7662  Tot=              4.5468
 Quadrupole moment (field-independent basis, Debye-Ang):
   XX=            -79.5994   YY=            -72.1159   ZZ=            -75.5290
   XY=              9.0755   XZ=             -5.1333   YZ=              5.6807
 Traceless Quadrupole moment (field-independent basis, Debye-Ang):
   XX=             -3.8513   YY=              3.6322   ZZ=              0.2191
   XY=              9.0755   XZ=             -5.1333   YZ=              5.6807
 Octapole moment (field-independent basis, Debye-Ang**2):
  XXX=             13.7316  YYY=            -28.2477  ZZZ=             -3.2382  XYY=             -2.5740
  XXY=             -9.1980  XXZ=            -35.4019  XZZ=             -4.3093  YZZ=              3.0982
  YYZ=             -3.1586  XYZ=              4.0325
 Hexadecapole moment (field-independent basis, Debye-Ang**3):
 XXXX=          -1641.7447 YYYY=          -1149.3613 ZZZZ=           -374.6933 XXXY=             43.4224
 XXXZ=            -24.3186 YYYX=             31.6065 YYYZ=             11.3987 ZZZX=             -9.5555
 ZZZY=              7.4063 XXYY=           -428.0946 XXZZ=           -371.4753 YYZZ=           -239.2558
 XXYZ=             27.8793 YYXZ=            -11.5098 ZZXY=             16.1815
 N-N= 7.405827197911D+02 E-N=-3.586252712026D+03  KE= 8.915037856483D+02
 PrsmSu:  requested number of processors reduced to:  18 ShMem   1 Linda.
 No NMR shielding tensors so no spin-rotation constants.
 Leave Link  601 at Sat Apr 17 16:16:30 2021, MaxMem=   104857600 cpu:             972.1 elap:              21.3
 (Enter /s/ls4/users/knvvv/bin/g16sse/l9999.exe)

 Test job not archived.
 1\1\GINC-N185\Stability\RM062X\Gen\C6H12N2O2S1\KNVVV\17-Apr-2021\0\\#P
  M062X/GEN Integral=UltraFineGrid SCF=NoSymm Stable=(RExt, Opt) IOp(1/
 33=1)\\Database calculations.\\0,1\N,0,0.9160688977,-0.4085614188,-0.2
 336305602\C,0,-0.0401245916,0.135708838,0.7036498167\C,0,-1.4738569893
 ,-0.313200899,0.4138479766\O,0,-2.4278629351,0.3182473222,0.8518353988
 \C,0,0.0147324274,1.6559334701,0.7827907567\S,0,-0.2650736905,2.448129
 4122,-0.8359298496\H,0,0.8450731992,-0.0724127813,-1.1824255749\H,0,0.
 23484686,-0.2713452928,1.6792893213\H,0,-0.7862848401,2.0019238702,1.4
 297724696\H,0,0.9692005359,1.9847753053,1.185106749\C,0,2.1371112267,-
 0.8751191678,0.1932215605\O,0,2.3976372568,-1.0562020618,1.3720269157\
 N,0,-1.5821537588,-1.4460897623,-0.3154260216\C,0,-2.8635449209,-2.056
 2355066,-0.5934482735\H,0,-3.6296002207,-1.3189999104,-0.3747256036\H,
 0,-2.9267227705,-2.3444891973,-1.6399179023\H,0,-3.0331178855,-2.93345
 61727,0.0297009597\H,0,-0.7273520877,-1.9047220978,-0.5790779661\C,0,3
 .12409072,-1.1709814378,-0.9098307077\H,0,3.9462699637,-0.4617118847,-
 0.8373620313\H,0,2.6865392583,-1.1109874981,-1.9033682167\H,0,3.533417
 966,-2.1649942689,-0.7516710912\H,0,1.0195313789,2.5004271401,-1.20208
 11259\\Version=ES64L-G16RevA.03\State=1-A\HF=-894.0822193\RMSD=5.035e-
 09\Dipole=0.7272144,-0.7572686,-1.448339\Quadrupole=-2.1365956,2.37423
 26,-0.237637,6.8251756,-3.9019016,4.330385\PG=C01 [X(C6H12N2O2S1)]\\@


 THE MOST BEAUTIFUL EXPERIENCE WE CAN HAVE IS THE MYSTERIOUS.
 IT IS THE FUNDAMENTAL EMOTION WHICH STANDS AT AT THE CRADLE 
 OF TRUE ART AND TRUE SCIENCE.

                                    -- ALBERT EINSTEIN
 Job cpu time:       7 days 17 hours  9 minutes  4.4 seconds.
 Elapsed time:       0 days 10 hours 33 minutes  4.8 seconds.
 File lengths (MBytes):  RWF=   2412 Int=      0 D2E=      0 Chk=    141 Scr=      1
 Normal termination of Gaussian 16 at Sat Apr 17 16:16:34 2021.
