 Entering Gaussian System, Link 0=/s/ls4/users/knvvv/bin/g16sse/g16
 Input=data/database/M062X--def2-QZVP--RG18_kr.gjf
 Output=data/database/M062X--def2-QZVP--RG18_kr.log
 Initial command:
 /s/ls4/users/knvvv/bin/g16sse/l1.exe "/s/ls4/users/knvvv/bin/scratch/Gau-43853.inp" -scrdir="/s/ls4/users/knvvv/bin/scratch/"
 Entering Link 1 = /s/ls4/users/knvvv/bin/g16sse/l1.exe PID=     43854.
  
 Copyright (c) 1988,1990,1992,1993,1995,1998,2003,2009,2016,
            Gaussian, Inc.  All Rights Reserved.
  
 This is part of the Gaussian(R) 16 program.  It is based on
 the Gaussian(R) 09 system (copyright 2009, Gaussian, Inc.),
 the Gaussian(R) 03 system (copyright 2003, Gaussian, Inc.),
 the Gaussian(R) 98 system (copyright 1998, Gaussian, Inc.),
 the Gaussian(R) 94 system (copyright 1995, Gaussian, Inc.),
 the Gaussian 92(TM) system (copyright 1992, Gaussian, Inc.),
 the Gaussian 90(TM) system (copyright 1990, Gaussian, Inc.),
 the Gaussian 88(TM) system (copyright 1988, Gaussian, Inc.),
 the Gaussian 86(TM) system (copyright 1986, Carnegie Mellon
 University), and the Gaussian 82(TM) system (copyright 1983,
 Carnegie Mellon University). Gaussian is a federally registered
 trademark of Gaussian, Inc.
  
 This software contains proprietary and confidential information,
 including trade secrets, belonging to Gaussian, Inc.
  
 This software is provided under written license and may be
 used, copied, transmitted, or stored only in accord with that
 written license.
  
 The following legend is applicable only to US Government
 contracts under FAR:
  
                    RESTRICTED RIGHTS LEGEND
  
 Use, reproduction and disclosure by the US Government is
 subject to restrictions as set forth in subparagraphs (a)
 and (c) of the Commercial Computer Software - Restricted
 Rights clause in FAR 52.227-19.
  
 Gaussian, Inc.
 340 Quinnipiac St., Bldg. 40, Wallingford CT 06492
  
  
 ---------------------------------------------------------------
 Warning -- This program may not be used in any manner that
 competes with the business of Gaussian, Inc. or will provide
 assistance to any competitor of Gaussian, Inc.  The licensee
 of this program is prohibited from giving any competitor of
 Gaussian, Inc. access to this program.  By using this program,
 the user acknowledges that Gaussian, Inc. is engaged in the
 business of creating and licensing software in the field of
 computational chemistry and represents and warrants to the
 licensee that it is not a competitor of Gaussian, Inc. and that
 it will not use this program in any manner prohibited above.
 ---------------------------------------------------------------
  

 Cite this work as:
 Gaussian 16, Revision A.03,
 M. J. Frisch, G. W. Trucks, H. B. Schlegel, G. E. Scuseria, 
 M. A. Robb, J. R. Cheeseman, G. Scalmani, V. Barone, 
 G. A. Petersson, H. Nakatsuji, X. Li, M. Caricato, A. V. Marenich, 
 J. Bloino, B. G. Janesko, R. Gomperts, B. Mennucci, H. P. Hratchian, 
 J. V. Ortiz, A. F. Izmaylov, J. L. Sonnenberg, D. Williams-Young, 
 F. Ding, F. Lipparini, F. Egidi, J. Goings, B. Peng, A. Petrone, 
 T. Henderson, D. Ranasinghe, V. G. Zakrzewski, J. Gao, N. Rega, 
 G. Zheng, W. Liang, M. Hada, M. Ehara, K. Toyota, R. Fukuda, 
 J. Hasegawa, M. Ishida, T. Nakajima, Y. Honda, O. Kitao, H. Nakai, 
 T. Vreven, K. Throssell, J. A. Montgomery, Jr., J. E. Peralta, 
 F. Ogliaro, M. J. Bearpark, J. J. Heyd, E. N. Brothers, K. N. Kudin, 
 V. N. Staroverov, T. A. Keith, R. Kobayashi, J. Normand, 
 K. Raghavachari, A. P. Rendell, J. C. Burant, S. S. Iyengar, 
 J. Tomasi, M. Cossi, J. M. Millam, M. Klene, C. Adamo, R. Cammi, 
 J. W. Ochterski, R. L. Martin, K. Morokuma, O. Farkas, 
 J. B. Foresman, and D. J. Fox, Gaussian, Inc., Wallingford CT, 2016.
 
 ******************************************
 Gaussian 16:  ES64L-G16RevA.03 25-Dec-2016
                18-Apr-2021 
 ******************************************
 %RWF=temp23_90457,70GB
 %nprocshared=48
 Will use up to   48 processors via shared memory.
 Default route: MaxDisk=80GB
 ----------------------------------------------------------------------
 #P M062X/Def2QZVP Integral=UltraFineGrid SCF=NoSymm Stable=(RExt, Opt)
  IOp(1/33=1)
 ----------------------------------------------------------------------
 1/33=1,38=1,172=1/1;
 2/12=2,17=6,18=5,40=1/2;
 3/5=45,7=101,11=2,25=1,30=1,74=-55,75=-5/1,2,3;
 4/9=2/1;
 5/5=2,38=5/2;
 6/7=2,8=2,9=2,10=2,28=1/1;
 8/6=1,10=90,11=11/1;
 9/8=-3,42=1,46=1/14;
 5/5=2,8=3,17=40,38=5/8(-2);
 6/7=2,8=2,9=2,10=2,28=1/1;
 99/5=1,9=1/99;
 Leave Link    1 at Sun Apr 18 02:49:52 2021, MaxMem=           0 cpu:              10.9 elap:               0.2
 (Enter /s/ls4/users/knvvv/bin/g16sse/l101.exe)
 ONIOM data not found on unit 2.
 ----------------------
 Database calculations.
 ----------------------
 TstMul:  ICh=     0
 TstMul:  Mul=     1
 TstMul:  ICh=     0
 TstMul:  Mul=     1
 Symbolic Z-matrix:
 Charge =  0 Multiplicity = 1
 KR                    0.        0.        0. 
 
 RdStrC is calling ZToCFu for IStruc=1 NZ=     1.
 PrtBox:  NBox=     1 Levels=  0 BoxLen=    8.00 SMaxX=        0.00
          Shift=            0.000000            0.000000            0.000000
 Box      1 Number                   0 centers from      1 to      1:
 After GenITR:
 ITRead=  0
 MicOpt= -1
 ITRead=  0
 MicOpt= -1
 NAtoms=      1 NQM=        1 NQMF=       0 NMMI=      0 NMMIF=      0
                NMic=       0 NMicF=      0.
                    Isotopes and Nuclear Properties:
 (Nuclear quadrupole moments (NQMom) in fm**2, nuclear magnetic moments (NMagM)
  in nuclear magnetons)

  Atom         1
 IAtWgt=          84
 AtmWgt=  83.9115064
 NucSpn=           0
 AtZEff=  -0.0000000
 NQMom=    0.0000000
 NMagM=    0.0000000
 AtZNuc=  36.0000000
 No MM parameters found.
 Leave Link  101 at Sun Apr 18 02:49:52 2021, MaxMem=   104857600 cpu:               6.8 elap:               0.2
 (Enter /s/ls4/users/knvvv/bin/g16sse/l202.exe)
                          Input orientation:                          
 ---------------------------------------------------------------------
 Center     Atomic      Atomic             Coordinates (Angstroms)
 Number     Number       Type             X           Y           Z
 ---------------------------------------------------------------------
      1         36           0        0.000000    0.000000    0.000000
 ---------------------------------------------------------------------
 Stoichiometry    Kr
 Framework group  OH[O(Kr)]
 Deg. of freedom     0
 Full point group                 OH      NOp  48
 Largest Abelian subgroup         D2H     NOp   8
 Largest concise Abelian subgroup C1      NOp   1
                         Standard orientation:                         
 ---------------------------------------------------------------------
 Center     Atomic      Atomic             Coordinates (Angstroms)
 Number     Number       Type             X           Y           Z
 ---------------------------------------------------------------------
      1         36           0        0.000000    0.000000    0.000000
 ---------------------------------------------------------------------
 Leave Link  202 at Sun Apr 18 02:49:53 2021, MaxMem=   104857600 cpu:              36.4 elap:               0.8
 (Enter /s/ls4/users/knvvv/bin/g16sse/l301.exe)
 Standard basis: def2QZVP (5D, 7F)
 Ernie: Thresh=  0.10000D-02 Tol=  0.10000D-05 Strict=F.
 There are    29 symmetry adapted cartesian basis functions of AG  symmetry.
 There are     7 symmetry adapted cartesian basis functions of B1G symmetry.
 There are     7 symmetry adapted cartesian basis functions of B2G symmetry.
 There are     7 symmetry adapted cartesian basis functions of B3G symmetry.
 There are     2 symmetry adapted cartesian basis functions of AU  symmetry.
 There are    13 symmetry adapted cartesian basis functions of B1U symmetry.
 There are    13 symmetry adapted cartesian basis functions of B2U symmetry.
 There are    13 symmetry adapted cartesian basis functions of B3U symmetry.
 There are    22 symmetry adapted basis functions of AG  symmetry.
 There are     6 symmetry adapted basis functions of B1G symmetry.
 There are     6 symmetry adapted basis functions of B2G symmetry.
 There are     6 symmetry adapted basis functions of B3G symmetry.
 There are     2 symmetry adapted basis functions of AU  symmetry.
 There are    11 symmetry adapted basis functions of B1U symmetry.
 There are    11 symmetry adapted basis functions of B2U symmetry.
 There are    11 symmetry adapted basis functions of B3U symmetry.
    75 basis functions,   179 primitive gaussians,    91 cartesian basis functions
    18 alpha electrons       18 beta electrons
       nuclear repulsion energy         0.0000000000 Hartrees.
 IExCor= 4336 DFT=T Ex+Corr=M062X ExCW=0 ScaHFX=  0.540000
 ScaDFX=  1.000000  1.000000  1.000000  1.000000 ScalE2=  1.000000  1.000000
 IRadAn=      5 IRanWt=     -1 IRanGd=            0 ICorTp=0 IEmpDi=  4
 NAtoms=    1 NActive=    1 NUniq=    1 SFac= 1.00D+00 NAtFMM=   60 NAOKFM=F Big=F
 Integral buffers will be    131072 words long.
 Raffenetti 2 integral format.
 Two-electron integral symmetry is turned on.
 Leave Link  301 at Sun Apr 18 02:49:53 2021, MaxMem=   104857600 cpu:               9.0 elap:               0.2
 (Enter /s/ls4/users/knvvv/bin/g16sse/l302.exe)
 NPDir=0 NMtPBC=     1 NCelOv=     1 NCel=       1 NClECP=     1 NCelD=      1
         NCelK=      1 NCelE2=     1 NClLst=     1 CellRange=     0.0.
 One-electron integrals computed using PRISM.
 One-electron integral symmetry used in STVInt
 PrsmSu:  requested number of processors reduced to:   4 ShMem   1 Linda.
 PrsmSu:  requested number of processors reduced to:  21 ShMem   1 Linda.
  48 Symmetry operations used in ECPInt.
 ECPInt:  NShTT=     325 NPrTT=    1790 LenC2=     326 LenP2D=    1790.
 LDataN:  DoStor=T MaxTD1= 8 Len=  415
 Number of processors reduced to  44 by ecpmxn.
 NBasis=    75 RedAO= T EigKep=  7.00D-04  NBF=    22     6     6     6     2    11    11    11
 NBsUse=    75 1.00D-06 EigRej= -1.00D+00 NBFU=    22     6     6     6     2    11    11    11
 Precomputing XC quadrature grid using
 IXCGrd= 4 IRadAn=           5 IRanWt=          -1 IRanGd=           0 AccXCQ= 0.00D+00.
 Generated NRdTot=       0 NPtTot=           0 NUsed=           0 NTot=          32
 NSgBfM=    91    91    91    91    91 MxSgAt=     1 MxSgA2=     1.
 Leave Link  302 at Sun Apr 18 02:50:12 2021, MaxMem=   104857600 cpu:             901.3 elap:              19.3
 (Enter /s/ls4/users/knvvv/bin/g16sse/l303.exe)
 DipDrv:  MaxL=1.
 Leave Link  303 at Sun Apr 18 02:50:13 2021, MaxMem=   104857600 cpu:              14.4 elap:               0.3
 (Enter /s/ls4/users/knvvv/bin/g16sse/l401.exe)
 SCF N**3 symmetry information disabled.
 ExpMin= 9.68D-02 ExpMax= 1.17D+07 ExpMxC= 1.34D+04 IAcc=3 IRadAn=         5 AccDes= 0.00D+00
 Harris functional with IExCor= 1009 and IRadAn=       5 diagonalized for initial guess.
 HarFok:  IExCor= 1009 AccDes= 0.00D+00 IRadAn=         5 IDoV= 1 UseB2=F ITyADJ=14
 ICtDFT=  3500011 ScaDFX=  1.000000  1.000000  1.000000  1.000000
 FoFCou: FMM=F IPFlag=           0 FMFlag=      100000 FMFlg1=           0
         NFxFlg=           0 DoJE=T BraDBF=F KetDBF=T FulRan=T
         wScrn=  0.000000 ICntrl=       500 IOpCl=  0 I1Cent=   200000004 NGrid=           0
         NMat0=    1 NMatS0=      1 NMatT0=    0 NMatD0=    1 NMtDS0=    0 NMtDT0=    0
 Petite list used in FoFCou.
 CoulSu:  requested number of processors reduced to:  21 ShMem   1 Linda.
 CoulSu:  requested number of processors reduced to:  21 ShMem   1 Linda.
 CoulSu:  requested number of processors reduced to:  21 ShMem   1 Linda.
 CoulSu:  requested number of processors reduced to:  21 ShMem   1 Linda.
 DSYEVD-2 returned Info=         116 IAlg= 4 N=    75 NDim=    75 NE2=     1397849 trying  DSYEV.
 Harris En= -2753.37869626389    
 JPrj=0 DoOrth=F DoCkMO=F.
 Initial guess orbital symmetries:
       Occupied  (A1G) (A1G) (T1U) (T1U) (T1U) (A1G) (T1U) (T1U)
                 (T1U) (T2G) (T2G) (T2G) (EG) (EG) (A1G) (T1U)
                 (T1U) (T1U)
       Virtual   (A1G) (T1U) (T1U) (T1U) (T2G) (T2G) (T2G) (EG)
                 (EG) (T2U) (T2U) (T2U) (A2U) (T1U) (T1U) (T1U)
                 (T1U) (T1U) (T1U) (T2G) (T2G) (T2G) (EG) (EG)
                 (A1G) (T1G) (T1G) (T1G) (T2G) (T2G) (T2G) (EG)
                 (EG) (A1G) (T2U) (T2U) (T2U) (A2U) (T1U) (T1U)
                 (T1U) (T1U) (T1U) (T1U) (T2G) (T2G) (T2G) (EG)
                 (EG) (A1G) (T1U) (T1U) (T1U) (A1G) (A1G) (A1G)
                 (A1G)
 The electronic state of the initial guess is 1-A1G.
 Leave Link  401 at Sun Apr 18 02:50:24 2021, MaxMem=   104857600 cpu:             526.0 elap:              11.4
 (Enter /s/ls4/users/knvvv/bin/g16sse/l502.exe)
 Keep R1 ints in memory in symmetry-blocked form, NReq=58332308.
 FoFCou: FMM=F IPFlag=           0 FMFlag=           0 FMFlg1=           0
         NFxFlg=           0 DoJE=F BraDBF=F KetDBF=F FulRan=T
         wScrn=  0.000000 ICntrl=       600 IOpCl=  0 I1Cent=           0 NGrid=           0
         NMat0=    1 NMatS0=   2850 NMatT0=    0 NMatD0=    1 NMtDS0=    0 NMtDT0=    0
 Petite list used in FoFCou.
 CoulSu:  requested number of processors reduced to:  22 ShMem   1 Linda.
 Closed shell SCF:
 Using DIIS extrapolation, IDIIS=  1040.
 NGot=   104857600 LenX=   104287138 LenY=   104278416
 Requested convergence on RMS density matrix=1.00D-08 within 128 cycles.
 Requested convergence on MAX density matrix=1.00D-06.
 Requested convergence on             energy=1.00D-06.
 No special actions if energy rises.
 Integral accuracy reduced to 1.0D-05 until final iterations.

 Cycle   1  Pass 0  IDiag  1:
 E= -2753.81360994715    
 DIIS: error= 1.60D-01 at cycle   1 NSaved=   1.
 NSaved= 1 IEnMin= 1 EnMin= -2753.81360994715     IErMin= 1 ErrMin= 1.60D-01
 ErrMax= 1.60D-01  0.00D+00 EMaxC= 1.00D-01 BMatC= 1.38D+00 BMatP= 1.38D+00
 IDIUse=3 WtCom= 0.00D+00 WtEn= 1.00D+00
 Coeff-Com:  0.100D+01
 Coeff-En:   0.100D+01
 Coeff:      0.100D+01
 Gap=     0.734 Goal=   None    Shift=    0.000
 GapD=    0.734 DampG=2.000 DampE=0.250 DampFc=0.5000 IDamp=-1.
 Damping current iteration by 5.00D-01
 RMSDP=4.90D-03 MaxDP=1.01D-01              OVMax= 4.73D-02

 Cycle   2  Pass 0  IDiag  1:
 E= -2753.84837754990     Delta-E=       -0.034767602757 Rises=F Damp=T
 DIIS: error= 6.58D-02 at cycle   2 NSaved=   2.
 NSaved= 2 IEnMin= 2 EnMin= -2753.84837754990     IErMin= 2 ErrMin= 6.58D-02
 ErrMax= 6.58D-02  0.00D+00 EMaxC= 1.00D-01 BMatC= 2.20D-01 BMatP= 1.38D+00
 IDIUse=3 WtCom= 3.42D-01 WtEn= 6.58D-01
 Coeff-Com: -0.494D+00 0.149D+01
 Coeff-En:   0.000D+00 0.100D+01
 Coeff:     -0.169D+00 0.117D+01
 Gap=     0.672 Goal=   None    Shift=    0.000
 RMSDP=1.76D-03 MaxDP=4.76D-02 DE=-3.48D-02 OVMax= 2.44D-02

 Cycle   3  Pass 0  IDiag  1:
 E= -2753.87814010935     Delta-E=       -0.029762559451 Rises=F Damp=F
 DIIS: error= 1.92D-03 at cycle   3 NSaved=   3.
 NSaved= 3 IEnMin= 3 EnMin= -2753.87814010935     IErMin= 3 ErrMin= 1.92D-03
 ErrMax= 1.92D-03  0.00D+00 EMaxC= 1.00D-01 BMatC= 2.07D-04 BMatP= 2.20D-01
 IDIUse=3 WtCom= 9.81D-01 WtEn= 1.92D-02
 Coeff-Com: -0.225D-01 0.576D-01 0.965D+00
 Coeff-En:   0.000D+00 0.000D+00 0.100D+01
 Coeff:     -0.220D-01 0.565D-01 0.965D+00
 Gap=     0.677 Goal=   None    Shift=    0.000
 RMSDP=1.24D-04 MaxDP=2.67D-03 DE=-2.98D-02 OVMax= 2.03D-03

 Cycle   4  Pass 0  IDiag  1:
 E= -2753.87818754461     Delta-E=       -0.000047435253 Rises=F Damp=F
 DIIS: error= 5.68D-04 at cycle   4 NSaved=   4.
 NSaved= 4 IEnMin= 4 EnMin= -2753.87818754461     IErMin= 4 ErrMin= 5.68D-04
 ErrMax= 5.68D-04  0.00D+00 EMaxC= 1.00D-01 BMatC= 1.33D-05 BMatP= 2.07D-04
 IDIUse=3 WtCom= 9.94D-01 WtEn= 5.68D-03
 Coeff-Com:  0.556D-02-0.113D-01 0.663D-01 0.939D+00
 Coeff-En:   0.000D+00 0.000D+00 0.000D+00 0.100D+01
 Coeff:      0.553D-02-0.113D-01 0.659D-01 0.940D+00
 Gap=     0.676 Goal=   None    Shift=    0.000
 RMSDP=3.03D-05 MaxDP=6.37D-04 DE=-4.74D-05 OVMax= 5.41D-04

 Cycle   5  Pass 0  IDiag  1:
 E= -2753.87819135597     Delta-E=       -0.000003811365 Rises=F Damp=F
 DIIS: error= 5.16D-05 at cycle   5 NSaved=   5.
 NSaved= 5 IEnMin= 5 EnMin= -2753.87819135597     IErMin= 5 ErrMin= 5.16D-05
 ErrMax= 5.16D-05  0.00D+00 EMaxC= 1.00D-01 BMatC= 1.64D-07 BMatP= 1.33D-05
 IDIUse=1 WtCom= 1.00D+00 WtEn= 0.00D+00
 Coeff-Com:  0.714D-03-0.165D-02-0.750D-02 0.144D+00 0.864D+00
 Coeff:      0.714D-03-0.165D-02-0.750D-02 0.144D+00 0.864D+00
 Gap=     0.676 Goal=   None    Shift=    0.000
 RMSDP=4.62D-06 MaxDP=9.62D-05 DE=-3.81D-06 OVMax= 9.43D-05

 Initial convergence to 1.0D-05 achieved.  Increase integral accuracy.
 Cycle   6  Pass 1  IDiag  1:
 E= -2753.87813084791     Delta-E=        0.000060508060 Rises=F Damp=F
 DIIS: error= 1.32D-04 at cycle   1 NSaved=   1.
 NSaved= 1 IEnMin= 1 EnMin= -2753.87813084791     IErMin= 1 ErrMin= 1.32D-04
 ErrMax= 1.32D-04  0.00D+00 EMaxC= 1.00D-01 BMatC= 5.99D-07 BMatP= 5.99D-07
 IDIUse=3 WtCom= 9.99D-01 WtEn= 1.32D-03
 Coeff-Com:  0.100D+01
 Coeff-En:   0.100D+01
 Coeff:      0.100D+01
 Gap=     0.676 Goal=   None    Shift=    0.000
 RMSDP=4.62D-06 MaxDP=9.62D-05 DE= 6.05D-05 OVMax= 4.40D-05

 Cycle   7  Pass 1  IDiag  1:
 E= -2753.87813087516     Delta-E=       -0.000000027252 Rises=F Damp=F
 DIIS: error= 1.69D-05 at cycle   2 NSaved=   2.
 NSaved= 2 IEnMin= 2 EnMin= -2753.87813087516     IErMin= 2 ErrMin= 1.69D-05
 ErrMax= 1.69D-05  0.00D+00 EMaxC= 1.00D-01 BMatC= 1.41D-08 BMatP= 5.99D-07
 IDIUse=1 WtCom= 1.00D+00 WtEn= 0.00D+00
 Coeff-Com:  0.575D-01 0.943D+00
 Coeff:      0.575D-01 0.943D+00
 Gap=     0.676 Goal=   None    Shift=    0.000
 RMSDP=1.00D-06 MaxDP=2.02D-05 DE=-2.73D-08 OVMax= 1.98D-05

 Cycle   8  Pass 1  IDiag  1:
 E= -2753.87813087727     Delta-E=       -0.000000002105 Rises=F Damp=F
 DIIS: error= 1.35D-05 at cycle   3 NSaved=   3.
 NSaved= 3 IEnMin= 3 EnMin= -2753.87813087727     IErMin= 3 ErrMin= 1.35D-05
 ErrMax= 1.35D-05  0.00D+00 EMaxC= 1.00D-01 BMatC= 7.90D-09 BMatP= 1.41D-08
 IDIUse=1 WtCom= 1.00D+00 WtEn= 0.00D+00
 Coeff-Com:  0.268D-04 0.426D+00 0.574D+00
 Coeff:      0.268D-04 0.426D+00 0.574D+00
 Gap=     0.676 Goal=   None    Shift=    0.000
 RMSDP=3.32D-07 MaxDP=6.18D-06 DE=-2.10D-09 OVMax= 5.71D-06

 Cycle   9  Pass 1  IDiag  1:
 E= -2753.87813087867     Delta-E=       -0.000000001404 Rises=F Damp=F
 DIIS: error= 4.90D-07 at cycle   4 NSaved=   4.
 NSaved= 4 IEnMin= 4 EnMin= -2753.87813087867     IErMin= 4 ErrMin= 4.90D-07
 ErrMax= 4.90D-07  0.00D+00 EMaxC= 1.00D-01 BMatC= 9.72D-12 BMatP= 7.90D-09
 IDIUse=1 WtCom= 1.00D+00 WtEn= 0.00D+00
 Coeff-Com: -0.261D-03 0.335D-02-0.212D-01 0.102D+01
 Coeff:     -0.261D-03 0.335D-02-0.212D-01 0.102D+01
 Gap=     0.676 Goal=   None    Shift=    0.000
 RMSDP=5.27D-08 MaxDP=1.23D-06 DE=-1.40D-09 OVMax= 8.26D-07

 Cycle  10  Pass 1  IDiag  1:
 E= -2753.87813087868     Delta-E=       -0.000000000005 Rises=F Damp=F
 DIIS: error= 1.16D-07 at cycle   5 NSaved=   5.
 NSaved= 5 IEnMin= 5 EnMin= -2753.87813087868     IErMin= 5 ErrMin= 1.16D-07
 ErrMax= 1.16D-07  0.00D+00 EMaxC= 1.00D-01 BMatC= 8.21D-13 BMatP= 9.72D-12
 IDIUse=1 WtCom= 1.00D+00 WtEn= 0.00D+00
 Coeff-Com: -0.952D-04-0.101D-01-0.106D-01 0.173D+00 0.847D+00
 Coeff:     -0.952D-04-0.101D-01-0.106D-01 0.173D+00 0.847D+00
 Gap=     0.676 Goal=   None    Shift=    0.000
 DSYEVD-2 returned Info=        2963 IAlg= 4 N=    75 NDim=    75 NE2=     1390377 trying  DSYEV.
 RMSDP=1.02D-08 MaxDP=2.04D-07 DE=-4.55D-12 OVMax= 2.07D-07

 Cycle  11  Pass 1  IDiag  1:
 E= -2753.87813087867     Delta-E=        0.000000000004 Rises=F Damp=F
 DIIS: error= 4.31D-09 at cycle   6 NSaved=   6.
 NSaved= 6 IEnMin= 5 EnMin= -2753.87813087868     IErMin= 6 ErrMin= 4.31D-09
 ErrMax= 4.31D-09  0.00D+00 EMaxC= 1.00D-01 BMatC= 5.99D-16 BMatP= 8.21D-13
 IDIUse=1 WtCom= 1.00D+00 WtEn= 0.00D+00
 Coeff-Com:  0.554D-05-0.133D-04-0.346D-03-0.406D-02-0.235D-01 0.103D+01
 Coeff:      0.554D-05-0.133D-04-0.346D-03-0.406D-02-0.235D-01 0.103D+01
 Gap=     0.676 Goal=   None    Shift=    0.000
 RMSDP=2.83D-10 MaxDP=5.80D-09 DE= 3.64D-12 OVMax= 4.46D-09

 SCF Done:  E(RM062X) =  -2753.87813088     A.U. after   11 cycles
            NFock= 11  Conv=0.28D-09     -V/T= 2.0020
 KE= 2.748422007677D+03 PE=-6.578932266615D+03 EE= 1.076632128060D+03
 Leave Link  502 at Sun Apr 18 02:53:17 2021, MaxMem=   104857600 cpu:            8072.1 elap:             172.6
 (Enter /s/ls4/users/knvvv/bin/g16sse/l601.exe)
 Copying SCF densities to generalized density rwf, IOpCl= 0 IROHF=0.

 **********************************************************************

            Population analysis using the SCF density.

 **********************************************************************

 Orbital symmetries:
       Occupied  (A1G) (A1G) (T1U) (T1U) (T1U) (A1G) (T1U) (T1U)
                 (T1U) (T2G) (T2G) (T2G) (EG) (EG) (A1G) (T1U)
                 (T1U) (T1U)
       Virtual   (T1U) (T1U) (T1U) (A1G) (T2G) (T2G) (T2G) (EG)
                 (EG) (?A) (?A) (?A) (?A) (?A) (?A) (?A) (T1U)
                 (T1U) (T1U) (T2G) (T2G) (T2G) (EG) (EG) (A1G)
                 (T1G) (T1G) (T1G) (?B) (?B) (?B) (?B) (?B) (A1G)
                 (?C) (?C) (?C) (?C) (?C) (?C) (?C) (T1U) (T1U)
                 (T1U) (T2G) (T2G) (T2G) (EG) (EG) (A1G) (T1U)
                 (T1U) (T1U) (A1G) (A1G) (A1G) (A1G)
 The electronic state is 1-A1G.
 Alpha  occ. eigenvalues -- -515.39100 -68.01894 -61.60363 -61.60363 -61.60363
 Alpha  occ. eigenvalues --   -9.98752  -7.68806  -7.68806  -7.68806  -3.48323
 Alpha  occ. eigenvalues --   -3.48323  -3.48323  -3.48323  -3.48323  -0.98158
 Alpha  occ. eigenvalues --   -0.44531  -0.44531  -0.44531
 Alpha virt. eigenvalues --    0.23067   0.23067   0.23067   0.26948   0.38393
 Alpha virt. eigenvalues --    0.38393   0.38393   0.38393   0.38393   1.19405
 Alpha virt. eigenvalues --    1.19405   1.19405   1.19405   1.19405   1.19405
 Alpha virt. eigenvalues --    1.19405   1.20508   1.20508   1.20508   1.63001
 Alpha virt. eigenvalues --    1.63001   1.63001   1.63001   1.63001   1.88666
 Alpha virt. eigenvalues --    3.01741   3.01741   3.01741   3.01741   3.01741
 Alpha virt. eigenvalues --    3.01741   3.01741   3.01741   3.01741   3.12415
 Alpha virt. eigenvalues --    3.12415   3.12415   3.12415   3.12415   3.12415
 Alpha virt. eigenvalues --    3.12415   4.44033   4.44033   4.44033   5.61900
 Alpha virt. eigenvalues --    5.61900   5.61900   5.61900   5.61900   8.52678
 Alpha virt. eigenvalues --   15.06948  15.06948  15.06948  31.92324 103.58145
 Alpha virt. eigenvalues --  352.497041975.70620
          Condensed to atoms (all electrons):
               1
     1  Kr  36.000000
 Mulliken charges:
               1
     1  Kr  -0.000000
 Sum of Mulliken charges =  -0.00000
 Mulliken charges with hydrogens summed into heavy atoms:
               1
     1  Kr  -0.000000
 Electronic spatial extent (au):  <R**2>=             39.5249
 Charge=             -0.0000 electrons
 Dipole moment (field-independent basis, Debye):
    X=              0.0000    Y=              0.0000    Z=              0.0000  Tot=              0.0000
 Quadrupole moment (field-independent basis, Debye-Ang):
   XX=            -17.7208   YY=            -17.7208   ZZ=            -17.7208
   XY=              0.0000   XZ=              0.0000   YZ=              0.0000
 Traceless Quadrupole moment (field-independent basis, Debye-Ang):
   XX=              0.0000   YY=              0.0000   ZZ=              0.0000
   XY=              0.0000   XZ=              0.0000   YZ=              0.0000
 Octapole moment (field-independent basis, Debye-Ang**2):
  XXX=              0.0000  YYY=             -0.0000  ZZZ=              0.0000  XYY=              0.0000
  XXY=              0.0000  XXZ=              0.0000  XZZ=              0.0000  YZZ=             -0.0000
  YYZ=              0.0000  XYZ=              0.0000
 Hexadecapole moment (field-independent basis, Debye-Ang**3):
 XXXX=            -18.5557 YYYY=            -18.5557 ZZZZ=            -18.5557 XXXY=              0.0000
 XXXZ=             -0.0000 YYYX=             -0.0000 YYYZ=              0.0000 ZZZX=              0.0000
 ZZZY=             -0.0000 XXYY=             -6.1852 XXZZ=             -6.1852 YYZZ=             -6.1852
 XXYZ=             -0.0000 YYXZ=              0.0000 ZZXY=             -0.0000
 N-N= 0.000000000000D+00 E-N=-6.578932266401D+03  KE= 2.748422007677D+03
 PrsmSu:  requested number of processors reduced to:  21 ShMem   1 Linda.
 No NMR shielding tensors so no spin-rotation constants.
 Leave Link  601 at Sun Apr 18 02:53:22 2021, MaxMem=   104857600 cpu:             240.9 elap:               5.2
 (Enter /s/ls4/users/knvvv/bin/g16sse/l801.exe)
 DoSCS=F DFT=T ScalE2(SS,OS)=  1.000000  1.000000
 Range of M.O.s used for correlation:     1    75
 NBasis=    75 NAE=    18 NBE=    18 NFC=     0 NFV=     0
 NROrb=     75 NOA=    18 NOB=    18 NVA=    57 NVB=    57

 **** Warning!!: The largest alpha MO coefficient is  0.14777443D+02

 Leave Link  801 at Sun Apr 18 02:53:22 2021, MaxMem=   104857600 cpu:               4.6 elap:               0.1
 (Enter /s/ls4/users/knvvv/bin/g16sse/l914.exe)
 RHF ground state
 Doing stability rather than CIS.
 Two-electron integrals replicated using symmetry.
 MDV=   104857600 DFT=T DoStab=T Mixed=T DoRPA=F DoScal=F NonHer=F
 Making orbital integer symmetry assigments:
 Orbital symmetries:
       Occupied  (A1G) (A1G) (T1U) (T1U) (T1U) (A1G) (T1U) (T1U)
                 (T1U) (T2G) (T2G) (T2G) (EG) (EG) (A1G) (T1U)
                 (T1U) (T1U)
       Virtual   (T1U) (T1U) (T1U) (A1G) (T2G) (T2G) (T2G) (EG)
                 (EG) (?A) (?A) (?A) (?A) (?A) (?A) (?A) (T1U)
                 (T1U) (T1U) (T2G) (T2G) (T2G) (EG) (EG) (A1G)
                 (T1G) (T1G) (T1G) (?B) (?B) (?B) (?B) (?B) (A1G)
                 (?C) (?C) (?C) (?C) (?C) (?C) (?C) (T1U) (T1U)
                 (T1U) (T2G) (T2G) (T2G) (EG) (EG) (A1G) (T1U)
                 (T1U) (T1U) (A1G) (A1G) (A1G) (A1G)
    48 initial guesses have been made.
 Convergence on wavefunction:    0.001000000000000
 Davidson Disk Diagonalization:  ConvIn= 1.00D-03 SkipCon=T Conv= 1.00D-03.
 Max sub-space:  2000 roots to seek:    48 dimension of matrix:         2052
 Iteration     1 Dimension    48 NMult     0 NNew     48
 Estimated number of processors is:   20
 CISAX will form     1 AO SS matrices at one time.
 NMat=     1 NSing=     1 JSym2X= 2.
 FoFJK:  IHMeth= 1 ICntrl=       0 DoSepK=F KAlg= 0 I1Cent=           0 FoldK=F
 IRaf= 990000000 NMat=       1 IRICut=       1 DoRegI=T DoRafI=F ISym2E= 2 IDoP0=0 IntGTp=1.
 FoFCou: FMM=F IPFlag=           0 FMFlag=      100000 FMFlg1=           0
         NFxFlg=           0 DoJE=F BraDBF=F KetDBF=F FulRan=T
         wScrn=  0.000000 ICntrl=         0 IOpCl=  0 I1Cent=           0 NGrid=           0
         NMat0=    1 NMatS0=      1 NMatT0=    0 NMatD0=    1 NMtDS0=    0 NMtDT0=    0
 Integrals replicated using symmetry in FoFCou.
 CoulSu:  requested number of processors reduced to:  21 ShMem   1 Linda.
 NMat=     1 NSing=     1 JSym2X= 2.
 CoulSu:  requested number of processors reduced to:  21 ShMem   1 Linda.
 NMat=     1 NSing=     1 JSym2X= 2.
 CoulSu:  requested number of processors reduced to:  21 ShMem   1 Linda.
 NMat=     1 NSing=     1 JSym2X= 2.
 CoulSu:  requested number of processors reduced to:  21 ShMem   1 Linda.
 NMat=     1 NSing=     1 JSym2X= 2.
 CoulSu:  requested number of processors reduced to:  21 ShMem   1 Linda.
 NMat=     1 NSing=     1 JSym2X= 2.
 CoulSu:  requested number of processors reduced to:  21 ShMem   1 Linda.
 NMat=     1 NSing=     1 JSym2X= 2.
 CoulSu:  requested number of processors reduced to:  21 ShMem   1 Linda.
 NMat=     1 NSing=     1 JSym2X= 2.
 CoulSu:  requested number of processors reduced to:  21 ShMem   1 Linda.
 NMat=     1 NSing=     1 JSym2X= 2.
 CoulSu:  requested number of processors reduced to:  21 ShMem   1 Linda.
 NMat=     1 NSing=     1 JSym2X= 2.
 CoulSu:  requested number of processors reduced to:  21 ShMem   1 Linda.
 NMat=     1 NSing=     1 JSym2X= 2.
 CoulSu:  requested number of processors reduced to:  21 ShMem   1 Linda.
 NMat=     1 NSing=     1 JSym2X= 2.
 CoulSu:  requested number of processors reduced to:  21 ShMem   1 Linda.
 NMat=     1 NSing=     1 JSym2X= 2.
 CoulSu:  requested number of processors reduced to:  21 ShMem   1 Linda.
 NMat=     1 NSing=     1 JSym2X= 2.
 CoulSu:  requested number of processors reduced to:  21 ShMem   1 Linda.
 NMat=     1 NSing=     1 JSym2X= 2.
 CoulSu:  requested number of processors reduced to:  21 ShMem   1 Linda.
 NMat=     1 NSing=     1 JSym2X= 2.
 CoulSu:  requested number of processors reduced to:  21 ShMem   1 Linda.
 NMat=     1 NSing=     1 JSym2X= 2.
 CoulSu:  requested number of processors reduced to:  21 ShMem   1 Linda.
 NMat=     1 NSing=     1 JSym2X= 2.
 CoulSu:  requested number of processors reduced to:  21 ShMem   1 Linda.
 NMat=     1 NSing=     1 JSym2X= 2.
 CoulSu:  requested number of processors reduced to:  21 ShMem   1 Linda.
 NMat=     1 NSing=     1 JSym2X= 2.
 CoulSu:  requested number of processors reduced to:  21 ShMem   1 Linda.
 NMat=     1 NSing=     1 JSym2X= 2.
 CoulSu:  requested number of processors reduced to:  21 ShMem   1 Linda.
 NMat=     1 NSing=     1 JSym2X= 2.
 CoulSu:  requested number of processors reduced to:  21 ShMem   1 Linda.
 NMat=     1 NSing=     1 JSym2X= 2.
 CoulSu:  requested number of processors reduced to:  21 ShMem   1 Linda.
 NMat=     1 NSing=     1 JSym2X= 2.
 CoulSu:  requested number of processors reduced to:  21 ShMem   1 Linda.
 NMat=     1 NSing=     0 JSym2X= 2.
 CoulSu:  requested number of processors reduced to:  21 ShMem   1 Linda.
 NMat=     1 NSing=     0 JSym2X= 2.
 CoulSu:  requested number of processors reduced to:  21 ShMem   1 Linda.
 NMat=     1 NSing=     0 JSym2X= 2.
 CoulSu:  requested number of processors reduced to:  21 ShMem   1 Linda.
 NMat=     1 NSing=     0 JSym2X= 2.
 CoulSu:  requested number of processors reduced to:  21 ShMem   1 Linda.
 NMat=     1 NSing=     0 JSym2X= 2.
 CoulSu:  requested number of processors reduced to:  21 ShMem   1 Linda.
 NMat=     1 NSing=     0 JSym2X= 2.
 CoulSu:  requested number of processors reduced to:  21 ShMem   1 Linda.
 NMat=     1 NSing=     0 JSym2X= 2.
 CoulSu:  requested number of processors reduced to:  21 ShMem   1 Linda.
 NMat=     1 NSing=     0 JSym2X= 2.
 CoulSu:  requested number of processors reduced to:  21 ShMem   1 Linda.
 NMat=     1 NSing=     0 JSym2X= 2.
 CoulSu:  requested number of processors reduced to:  21 ShMem   1 Linda.
 NMat=     1 NSing=     0 JSym2X= 2.
 CoulSu:  requested number of processors reduced to:  21 ShMem   1 Linda.
 NMat=     1 NSing=     0 JSym2X= 2.
 CoulSu:  requested number of processors reduced to:  21 ShMem   1 Linda.
 NMat=     1 NSing=     0 JSym2X= 2.
 CoulSu:  requested number of processors reduced to:  21 ShMem   1 Linda.
 NMat=     1 NSing=     0 JSym2X= 2.
 CoulSu:  requested number of processors reduced to:  21 ShMem   1 Linda.
 NMat=     1 NSing=     0 JSym2X= 2.
 CoulSu:  requested number of processors reduced to:  21 ShMem   1 Linda.
 NMat=     1 NSing=     0 JSym2X= 2.
 CoulSu:  requested number of processors reduced to:  21 ShMem   1 Linda.
 NMat=     1 NSing=     0 JSym2X= 2.
 CoulSu:  requested number of processors reduced to:  21 ShMem   1 Linda.
 NMat=     1 NSing=     0 JSym2X= 2.
 CoulSu:  requested number of processors reduced to:  21 ShMem   1 Linda.
 NMat=     1 NSing=     0 JSym2X= 2.
 CoulSu:  requested number of processors reduced to:  21 ShMem   1 Linda.
 NMat=     1 NSing=     0 JSym2X= 2.
 CoulSu:  requested number of processors reduced to:  21 ShMem   1 Linda.
 NMat=     1 NSing=     0 JSym2X= 2.
 CoulSu:  requested number of processors reduced to:  21 ShMem   1 Linda.
 NMat=     1 NSing=     0 JSym2X= 2.
 CoulSu:  requested number of processors reduced to:  21 ShMem   1 Linda.
 NMat=     1 NSing=     0 JSym2X= 2.
 CoulSu:  requested number of processors reduced to:  21 ShMem   1 Linda.
 NMat=     1 NSing=     0 JSym2X= 2.
 CoulSu:  requested number of processors reduced to:  21 ShMem   1 Linda.
 NMat=     1 NSing=     0 JSym2X= 2.
 CoulSu:  requested number of processors reduced to:  21 ShMem   1 Linda.
 New state      1 was old state     24
 Excitation Energies [eV] at current iteration:
 Root      1 :    14.248382199989760
 Root      2 :    14.276050841470760
 Root      3 :    14.279727597304920
 Root      4 :    14.580251421532980
 Root      5 :    14.580251421533390
 Root      6 :    14.580251421533780
 Root      7 :    14.580251421571760
 Root      8 :    14.580251421573140
 Root      9 :    14.613389430082180
 Root     10 :    14.613389430085300
 Root     11 :    14.613389430139460
 Root     12 :    14.613389430140040
 Root     13 :    14.613389430141010
 Root     14 :    14.944621985171540
 Root     15 :    14.944621985171610
 Root     16 :    14.944621985172000
 Root     17 :    14.944621985172000
 Root     18 :    14.944621985172040
 Root     19 :    14.944621985172540
 Root     20 :    15.457582493963160
 Root     21 :    15.712792848718650
 Root     22 :    15.713483967825270
 Root     23 :    15.713654785740900
 Root     24 :    15.966579737675450
 Root     25 :    16.097284009201190
 Root     26 :    16.110916602820620
 Root     27 :    16.434566593090790
 Root     28 :    16.434566593494380
 Root     29 :    16.434566593496810
 Root     30 :    16.434566593518840
 Root     31 :    16.886536805515330
 Root     32 :    17.352979853973240
 Root     33 :    17.445067018142110
 Root     34 :    17.749098470343990
 Root     35 :    17.749098470344010
 Root     36 :    17.749098470344150
 Root     37 :    17.749098470344160
 Root     38 :    17.899604779562900
 Root     39 :    17.937274134369200
 Root     40 :    18.095495277090230
 Root     41 :    18.275071851628690
 Root     42 :    18.275071851985700
 Root     43 :    18.275071851998180
 Root     44 :    18.275071852108470
 Root     45 :    20.926573616215730
 Root     46 :    28.248953446193840
 Root     47 :    28.792529003678260
 Root     48 :    31.953733125955640
 Iteration     2 Dimension    96 NMult    48 NNew     48
 Estimated number of processors is:   20
 CISAX will form     1 AO SS matrices at one time.
 NMat=     1 NSing=     1 JSym2X= 2.
 CoulSu:  requested number of processors reduced to:  21 ShMem   1 Linda.
 NMat=     1 NSing=     1 JSym2X= 2.
 CoulSu:  requested number of processors reduced to:  21 ShMem   1 Linda.
 NMat=     1 NSing=     1 JSym2X= 2.
 CoulSu:  requested number of processors reduced to:  21 ShMem   1 Linda.
 NMat=     1 NSing=     1 JSym2X= 2.
 CoulSu:  requested number of processors reduced to:  21 ShMem   1 Linda.
 NMat=     1 NSing=     1 JSym2X= 2.
 CoulSu:  requested number of processors reduced to:  21 ShMem   1 Linda.
 NMat=     1 NSing=     1 JSym2X= 2.
 CoulSu:  requested number of processors reduced to:  21 ShMem   1 Linda.
 NMat=     1 NSing=     1 JSym2X= 2.
 CoulSu:  requested number of processors reduced to:  21 ShMem   1 Linda.
 NMat=     1 NSing=     1 JSym2X= 2.
 CoulSu:  requested number of processors reduced to:  21 ShMem   1 Linda.
 NMat=     1 NSing=     1 JSym2X= 2.
 CoulSu:  requested number of processors reduced to:  21 ShMem   1 Linda.
 NMat=     1 NSing=     1 JSym2X= 2.
 CoulSu:  requested number of processors reduced to:  21 ShMem   1 Linda.
 NMat=     1 NSing=     1 JSym2X= 2.
 CoulSu:  requested number of processors reduced to:  21 ShMem   1 Linda.
 NMat=     1 NSing=     1 JSym2X= 2.
 CoulSu:  requested number of processors reduced to:  21 ShMem   1 Linda.
 NMat=     1 NSing=     1 JSym2X= 2.
 CoulSu:  requested number of processors reduced to:  21 ShMem   1 Linda.
 NMat=     1 NSing=     1 JSym2X= 2.
 CoulSu:  requested number of processors reduced to:  21 ShMem   1 Linda.
 NMat=     1 NSing=     1 JSym2X= 2.
 CoulSu:  requested number of processors reduced to:  21 ShMem   1 Linda.
 NMat=     1 NSing=     1 JSym2X= 2.
 CoulSu:  requested number of processors reduced to:  21 ShMem   1 Linda.
 NMat=     1 NSing=     1 JSym2X= 2.
 CoulSu:  requested number of processors reduced to:  21 ShMem   1 Linda.
 NMat=     1 NSing=     1 JSym2X= 2.
 CoulSu:  requested number of processors reduced to:  21 ShMem   1 Linda.
 NMat=     1 NSing=     1 JSym2X= 2.
 CoulSu:  requested number of processors reduced to:  21 ShMem   1 Linda.
 NMat=     1 NSing=     1 JSym2X= 2.
 CoulSu:  requested number of processors reduced to:  21 ShMem   1 Linda.
 NMat=     1 NSing=     1 JSym2X= 2.
 CoulSu:  requested number of processors reduced to:  21 ShMem   1 Linda.
 NMat=     1 NSing=     1 JSym2X= 2.
 CoulSu:  requested number of processors reduced to:  21 ShMem   1 Linda.
 NMat=     1 NSing=     1 JSym2X= 2.
 CoulSu:  requested number of processors reduced to:  21 ShMem   1 Linda.
 NMat=     1 NSing=     1 JSym2X= 2.
 CoulSu:  requested number of processors reduced to:  21 ShMem   1 Linda.
 NMat=     1 NSing=     0 JSym2X= 2.
 CoulSu:  requested number of processors reduced to:  21 ShMem   1 Linda.
 NMat=     1 NSing=     0 JSym2X= 2.
 CoulSu:  requested number of processors reduced to:  21 ShMem   1 Linda.
 NMat=     1 NSing=     0 JSym2X= 2.
 CoulSu:  requested number of processors reduced to:  21 ShMem   1 Linda.
 NMat=     1 NSing=     0 JSym2X= 2.
 CoulSu:  requested number of processors reduced to:  21 ShMem   1 Linda.
 NMat=     1 NSing=     0 JSym2X= 2.
 CoulSu:  requested number of processors reduced to:  21 ShMem   1 Linda.
 NMat=     1 NSing=     0 JSym2X= 2.
 CoulSu:  requested number of processors reduced to:  21 ShMem   1 Linda.
 NMat=     1 NSing=     0 JSym2X= 2.
 CoulSu:  requested number of processors reduced to:  21 ShMem   1 Linda.
 NMat=     1 NSing=     0 JSym2X= 2.
 CoulSu:  requested number of processors reduced to:  21 ShMem   1 Linda.
 NMat=     1 NSing=     0 JSym2X= 2.
 CoulSu:  requested number of processors reduced to:  21 ShMem   1 Linda.
 NMat=     1 NSing=     0 JSym2X= 2.
 CoulSu:  requested number of processors reduced to:  21 ShMem   1 Linda.
 NMat=     1 NSing=     0 JSym2X= 2.
 CoulSu:  requested number of processors reduced to:  21 ShMem   1 Linda.
 NMat=     1 NSing=     0 JSym2X= 2.
 CoulSu:  requested number of processors reduced to:  21 ShMem   1 Linda.
 NMat=     1 NSing=     0 JSym2X= 2.
 CoulSu:  requested number of processors reduced to:  21 ShMem   1 Linda.
 NMat=     1 NSing=     0 JSym2X= 2.
 CoulSu:  requested number of processors reduced to:  21 ShMem   1 Linda.
 NMat=     1 NSing=     0 JSym2X= 2.
 CoulSu:  requested number of processors reduced to:  21 ShMem   1 Linda.
 NMat=     1 NSing=     0 JSym2X= 2.
 CoulSu:  requested number of processors reduced to:  21 ShMem   1 Linda.
 NMat=     1 NSing=     0 JSym2X= 2.
 CoulSu:  requested number of processors reduced to:  21 ShMem   1 Linda.
 NMat=     1 NSing=     0 JSym2X= 2.
 CoulSu:  requested number of processors reduced to:  21 ShMem   1 Linda.
 NMat=     1 NSing=     0 JSym2X= 2.
 CoulSu:  requested number of processors reduced to:  21 ShMem   1 Linda.
 NMat=     1 NSing=     0 JSym2X= 2.
 CoulSu:  requested number of processors reduced to:  21 ShMem   1 Linda.
 NMat=     1 NSing=     0 JSym2X= 2.
 CoulSu:  requested number of processors reduced to:  21 ShMem   1 Linda.
 NMat=     1 NSing=     0 JSym2X= 2.
 CoulSu:  requested number of processors reduced to:  21 ShMem   1 Linda.
 NMat=     1 NSing=     0 JSym2X= 2.
 CoulSu:  requested number of processors reduced to:  21 ShMem   1 Linda.
 NMat=     1 NSing=     0 JSym2X= 2.
 CoulSu:  requested number of processors reduced to:  21 ShMem   1 Linda.
 Root      1 not converged, maximum delta is    0.046849695236738
 Excitation Energies [eV] at current iteration:
 Root      1 :    14.062699019591620   Change is   -0.185683180398141
 Root      2 :    14.063968025882510   Change is   -0.212082815588249
 Root      3 :    14.064261743884850   Change is   -0.215465853420076
 Root      4 :    14.357512876244430   Change is   -0.255876553840865
 Root      5 :    14.357512917153210   Change is   -0.255876512928961
 Root      6 :    14.357513054866740   Change is   -0.255876375274265
 Root      7 :    14.357513103050060   Change is   -0.255876327089394
 Root      8 :    14.357513134210820   Change is   -0.255876295929220
 Root      9 :    14.495091566639090   Change is   -0.085159854894696
 Root     10 :    14.495091841498860   Change is   -0.085159580034126
 Root     11 :    14.495091940450890   Change is   -0.085159481082508
 Root     12 :    14.495092058927050   Change is   -0.085159362646093
 Root     13 :    14.495092314818890   Change is   -0.085159106752871
 Root     14 :    14.682368734942470   Change is   -0.775213759020691
 Root     15 :    14.926886883734590   Change is   -0.017735101437953
 Root     16 :    14.926886884023160   Change is   -0.017735101148840
 Root     17 :    14.926886890239550   Change is   -0.017735094932053
 Root     18 :    14.926886891030280   Change is   -0.017735094141261
 Root     19 :    14.926886899466510   Change is   -0.017735085705531
 Root     20 :    14.926886900975670   Change is   -0.017735084196331
 Root     21 :    15.651783320751090   Change is   -0.061009527967558
 Root     22 :    15.652657691835500   Change is   -0.060826275989764
 Root     23 :    15.652760214986980   Change is   -0.060894570753923
 Root     24 :    15.750189723545380   Change is   -0.216390014130075
 Root     25 :    15.834675786431800   Change is   -0.262608222769393
 Root     26 :    15.851985319253980   Change is   -0.258931283566647
 Root     27 :    16.351236009544670   Change is   -0.083330583952141
 Root     28 :    16.351236019979910   Change is   -0.083330573514466
 Root     29 :    16.351236080322930   Change is   -0.083330513195915
 Root     30 :    16.351236155727340   Change is   -0.083330437363451
 Root     31 :    16.569720695493680   Change is   -0.316816110021646
 Root     32 :    16.738155484405580   Change is   -0.614824369567662
 Root     33 :    16.822128018154000   Change is   -0.622938999988117
 Root     34 :    17.730581023313420   Change is   -0.018517447030591
 Root     35 :    17.730581023760990   Change is   -0.018517446583161
 Root     36 :    17.730581027995140   Change is   -0.018517442349022
 Root     37 :    17.730581029326590   Change is   -0.018517441017392
 Root     38 :    17.821709199644550   Change is   -0.077895579918352
 Root     39 :    17.853678822425880   Change is   -0.083595311943317
 Root     40 :    18.003373923622920   Change is   -0.092121353467305
 Root     41 :    18.185617988767310   Change is   -0.089453862861381
 Root     42 :    18.185618018191630   Change is   -0.089453833794069
 Root     43 :    18.185618038864660   Change is   -0.089453813133526
 Root     44 :    18.185618054545980   Change is   -0.089453797562493
 Root     45 :    19.166082116851340   Change is   -1.760491499364397
 Root     46 :    20.550810571773500   Change is   -7.698142874420344
 Root     47 :    21.484603814766090   Change is   -7.307925188912166
 Root     48 :    27.218495685033370   Change is   -4.735237440922263
 Iteration     3 Dimension   102 NMult    96 NNew      6
 Estimated number of processors is:   20
 CISAX will form     1 AO SS matrices at one time.
 NMat=     1 NSing=     1 JSym2X= 2.
 CoulSu:  requested number of processors reduced to:  21 ShMem   1 Linda.
 NMat=     1 NSing=     1 JSym2X= 2.
 CoulSu:  requested number of processors reduced to:  21 ShMem   1 Linda.
 NMat=     1 NSing=     1 JSym2X= 2.
 CoulSu:  requested number of processors reduced to:  21 ShMem   1 Linda.
 NMat=     1 NSing=     0 JSym2X= 2.
 CoulSu:  requested number of processors reduced to:  21 ShMem   1 Linda.
 NMat=     1 NSing=     0 JSym2X= 2.
 CoulSu:  requested number of processors reduced to:  21 ShMem   1 Linda.
 NMat=     1 NSing=     0 JSym2X= 2.
 CoulSu:  requested number of processors reduced to:  21 ShMem   1 Linda.
 Root      1 not converged, maximum delta is    0.003460102871970
 Excitation Energies [eV] at current iteration:
 Root      1 :    14.061192133386530   Change is   -0.001506886205095
 Root      2 :    14.061233462041430   Change is   -0.002734563841080
 Root      3 :    14.061248801532050   Change is   -0.003012942352797
 Root      4 :    14.493064507244200   Change is   -0.002027433206684
 Root      5 :    14.493064519047640   Change is   -0.002027047591448
 Root      6 :    14.493064527842890   Change is   -0.002027313655971
 Iteration     4 Dimension   108 NMult   102 NNew      6
 Estimated number of processors is:   20
 CISAX will form     1 AO SS matrices at one time.
 NMat=     1 NSing=     1 JSym2X= 2.
 CoulSu:  requested number of processors reduced to:  21 ShMem   1 Linda.
 NMat=     1 NSing=     1 JSym2X= 2.
 CoulSu:  requested number of processors reduced to:  21 ShMem   1 Linda.
 NMat=     1 NSing=     1 JSym2X= 2.
 CoulSu:  requested number of processors reduced to:  21 ShMem   1 Linda.
 NMat=     1 NSing=     0 JSym2X= 2.
 CoulSu:  requested number of processors reduced to:  21 ShMem   1 Linda.
 NMat=     1 NSing=     0 JSym2X= 2.
 CoulSu:  requested number of processors reduced to:  21 ShMem   1 Linda.
 NMat=     1 NSing=     0 JSym2X= 2.
 CoulSu:  requested number of processors reduced to:  21 ShMem   1 Linda.
 Root      1 not converged, maximum delta is    0.232987581789035
 Excitation Energies [eV] at current iteration:
 Root      1 :    14.061183420153090   Change is   -0.000008713233437
 Root      2 :    14.061183518557180   Change is   -0.000049943484252
 Root      3 :    14.061183594358610   Change is   -0.000065207173443
 Root      4 :    14.493062978275120   Change is   -0.000001528969085
 Root      5 :    14.493062993085190   Change is   -0.000001525962446
 Root      6 :    14.493063002869370   Change is   -0.000001524973514
 Iteration     5 Dimension   114 NMult   108 NNew      6
 Estimated number of processors is:   20
 CISAX will form     1 AO SS matrices at one time.
 NMat=     1 NSing=     1 JSym2X= 2.
 CoulSu:  requested number of processors reduced to:  21 ShMem   1 Linda.
 NMat=     1 NSing=     1 JSym2X= 2.
 CoulSu:  requested number of processors reduced to:  21 ShMem   1 Linda.
 NMat=     1 NSing=     1 JSym2X= 2.
 CoulSu:  requested number of processors reduced to:  21 ShMem   1 Linda.
 NMat=     1 NSing=     0 JSym2X= 2.
 CoulSu:  requested number of processors reduced to:  21 ShMem   1 Linda.
 NMat=     1 NSing=     0 JSym2X= 2.
 CoulSu:  requested number of processors reduced to:  21 ShMem   1 Linda.
 NMat=     1 NSing=     0 JSym2X= 2.
 CoulSu:  requested number of processors reduced to:  21 ShMem   1 Linda.
 Vector  17 SDiff=8.17D-01 TDiff=1.25D-04 assumed to be triplet.
 Root      1 not converged, maximum delta is    0.152150106841245
 Excitation Energies [eV] at current iteration:
 Root      1 :    14.061183118867780   Change is   -0.000000301285307
 Root      2 :    14.061183134029560   Change is   -0.000000384527618
 Root      3 :    14.061183153344140   Change is   -0.000000441014469
 Root      4 :    14.493062971643920   Change is   -0.000000006631193
 Root      5 :    14.493062989286190   Change is   -0.000000003798999
 Root      6 :    14.493063001769170   Change is   -0.000000001100201
 Iteration     6 Dimension   117 NMult   114 NNew      3
 Estimated number of processors is:   20
 CISAX will form     1 AO SS matrices at one time.
 NMat=     1 NSing=     0 JSym2X= 2.
 CoulSu:  requested number of processors reduced to:  21 ShMem   1 Linda.
 NMat=     1 NSing=     0 JSym2X= 2.
 CoulSu:  requested number of processors reduced to:  21 ShMem   1 Linda.
 NMat=     1 NSing=     0 JSym2X= 2.
 CoulSu:  requested number of processors reduced to:  21 ShMem   1 Linda.
 Root      1 not converged, maximum delta is    0.100293246908518
 Excitation Energies [eV] at current iteration:
 Root      1 :    14.061183113934500   Change is   -0.000000004933284
 Root      2 :    14.061183123390730   Change is   -0.000000010638830
 Root      3 :    14.061183146831250   Change is   -0.000000006512884
 Root      4 :    14.493062971643920   Change is   -0.000000000000003
 Root      5 :    14.493062989286210   Change is    0.000000000000012
 Root      6 :    14.493063001769180   Change is    0.000000000000012
 Iteration     7 Dimension   118 NMult   117 NNew      1
 Estimated number of processors is:   20
 CISAX will form     1 AO SS matrices at one time.
 NMat=     1 NSing=     0 JSym2X= 2.
 CoulSu:  requested number of processors reduced to:  21 ShMem   1 Linda.
 Vector  15 SDiff=8.30D-01 TDiff=3.76D-04 assumed to be triplet.
 Vector  16 SDiff=4.52D-04 TDiff=7.30D-01 assumed to be singlet.
 Vector  17 SDiff=8.17D-01 TDiff=1.41D-04 assumed to be triplet.
 Root      1 not converged, maximum delta is    0.024482867189679
 Excitation Energies [eV] at current iteration:
 Root      1 :    14.061183112687920   Change is   -0.000000001246572
 Root      2 :    14.061183123259810   Change is   -0.000000000130921
 Root      3 :    14.061183146742660   Change is   -0.000000000088596
 Root      4 :    14.493062971643920   Change is    0.000000000000003
 Root      5 :    14.493062989286190   Change is   -0.000000000000012
 Root      6 :    14.493063001769180   Change is   -0.000000000000003
 Convergence achieved on expansion vectors.
 ***********************************************************************
 Stability analysis using <AA,BB:AA,BB> singles matrix:
 ***********************************************************************
 1PDM for each excited state written to RWF  633
 Ground to excited state transition densities written to RWF  633

 Eigenvectors of the stability matrix:
 
 Eigenvector   1:      Triplet-T1U  Eigenvalue= 0.5167390  <S**2>=2.000
      16 -> 22         0.67057
      17 -> 22         0.17730
 
 Eigenvector   2:      Triplet-T1U  Eigenvalue= 0.5167390  <S**2>=2.000
      16 -> 22        -0.18315
      17 -> 22         0.65053
      18 -> 22         0.16269
 
 Eigenvector   3:      Triplet-T1U  Eigenvalue= 0.5167390  <S**2>=2.000
      17 -> 22        -0.16905
      18 -> 22         0.67426
 
 Excited state symmetry could not be determined.
 Eigenvector   4:      Singlet-?Sym  Eigenvalue= 0.5326103  <S**2>=0.000
      16 -> 19        -0.15600
      16 -> 20        -0.18187
      16 -> 21         0.12988
      17 -> 19        -0.19508
      17 -> 20         0.19281
      17 -> 21        -0.24048
      18 -> 19         0.40554
      18 -> 20        -0.15879
      18 -> 21        -0.31870
 
 Excited state symmetry could not be determined.
 Eigenvector   5:      Singlet-?Sym  Eigenvalue= 0.5326103  <S**2>=0.000
      16 -> 19         0.20596
      16 -> 20         0.12409
      16 -> 21         0.16642
      17 -> 19         0.28898
      17 -> 20         0.25475
      17 -> 21        -0.30590
      18 -> 19         0.20524
      18 -> 21         0.35889
 
 Excited state symmetry could not be determined.
 Eigenvector   6:      Singlet-?Sym  Eigenvalue= 0.5326103  <S**2>=0.000
      16 -> 19         0.20235
      16 -> 20         0.35517
      16 -> 21         0.19785
      17 -> 19        -0.35363
      17 -> 20         0.22063
      18 -> 19        -0.21718
      18 -> 20         0.18510
      18 -> 21        -0.16713
 The wavefunction is stable under the perturbations considered.
 Leave Link  914 at Sun Apr 18 02:56:39 2021, MaxMem=   104857600 cpu:            6429.4 elap:             197.1
 (Enter /s/ls4/users/knvvv/bin/g16sse/l508.exe)
 The wavefunction is already stable.
 Leave Link  508 at Sun Apr 18 02:56:39 2021, MaxMem=   104857600 cpu:               2.2 elap:               0.1
 (Enter /s/ls4/users/knvvv/bin/g16sse/l601.exe)
 Copying SCF densities to generalized density rwf, IOpCl= 0 IROHF=0.

 **********************************************************************

            Population analysis using the SCF density.

 **********************************************************************

 Orbital symmetries:
       Occupied  (A1G) (A1G) (T1U) (T1U) (T1U) (A1G) (T1U) (T1U)
                 (T1U) (T2G) (T2G) (T2G) (EG) (EG) (A1G) (T1U)
                 (T1U) (T1U)
       Virtual   (T1U) (T1U) (T1U) (A1G) (T2G) (T2G) (T2G) (EG)
                 (EG) (?A) (?A) (?A) (?A) (?A) (?A) (?A) (T1U)
                 (T1U) (T1U) (T2G) (T2G) (T2G) (EG) (EG) (A1G)
                 (T1G) (T1G) (T1G) (?B) (?B) (?B) (?B) (?B) (A1G)
                 (?C) (?C) (?C) (?C) (?C) (?C) (?C) (T1U) (T1U)
                 (T1U) (T2G) (T2G) (T2G) (EG) (EG) (A1G) (T1U)
                 (T1U) (T1U) (A1G) (A1G) (A1G) (A1G)
 The electronic state is 1-A1G.
 Alpha  occ. eigenvalues -- -515.39100 -68.01894 -61.60363 -61.60363 -61.60363
 Alpha  occ. eigenvalues --   -9.98752  -7.68806  -7.68806  -7.68806  -3.48323
 Alpha  occ. eigenvalues --   -3.48323  -3.48323  -3.48323  -3.48323  -0.98158
 Alpha  occ. eigenvalues --   -0.44531  -0.44531  -0.44531
 Alpha virt. eigenvalues --    0.23067   0.23067   0.23067   0.26948   0.38393
 Alpha virt. eigenvalues --    0.38393   0.38393   0.38393   0.38393   1.19405
 Alpha virt. eigenvalues --    1.19405   1.19405   1.19405   1.19405   1.19405
 Alpha virt. eigenvalues --    1.19405   1.20508   1.20508   1.20508   1.63001
 Alpha virt. eigenvalues --    1.63001   1.63001   1.63001   1.63001   1.88666
 Alpha virt. eigenvalues --    3.01741   3.01741   3.01741   3.01741   3.01741
 Alpha virt. eigenvalues --    3.01741   3.01741   3.01741   3.01741   3.12415
 Alpha virt. eigenvalues --    3.12415   3.12415   3.12415   3.12415   3.12415
 Alpha virt. eigenvalues --    3.12415   4.44033   4.44033   4.44033   5.61900
 Alpha virt. eigenvalues --    5.61900   5.61900   5.61900   5.61900   8.52678
 Alpha virt. eigenvalues --   15.06948  15.06948  15.06948  31.92324 103.58145
 Alpha virt. eigenvalues --  352.497041975.70620
          Condensed to atoms (all electrons):
               1
     1  Kr  36.000000
 Mulliken charges:
               1
     1  Kr  -0.000000
 Sum of Mulliken charges =  -0.00000
 Mulliken charges with hydrogens summed into heavy atoms:
               1
     1  Kr  -0.000000
 Electronic spatial extent (au):  <R**2>=             39.5249
 Charge=             -0.0000 electrons
 Dipole moment (field-independent basis, Debye):
    X=              0.0000    Y=              0.0000    Z=              0.0000  Tot=              0.0000
 Quadrupole moment (field-independent basis, Debye-Ang):
   XX=            -17.7208   YY=            -17.7208   ZZ=            -17.7208
   XY=              0.0000   XZ=              0.0000   YZ=              0.0000
 Traceless Quadrupole moment (field-independent basis, Debye-Ang):
   XX=              0.0000   YY=              0.0000   ZZ=              0.0000
   XY=              0.0000   XZ=              0.0000   YZ=              0.0000
 Octapole moment (field-independent basis, Debye-Ang**2):
  XXX=              0.0000  YYY=             -0.0000  ZZZ=              0.0000  XYY=              0.0000
  XXY=              0.0000  XXZ=              0.0000  XZZ=              0.0000  YZZ=             -0.0000
  YYZ=              0.0000  XYZ=              0.0000
 Hexadecapole moment (field-independent basis, Debye-Ang**3):
 XXXX=            -18.5557 YYYY=            -18.5557 ZZZZ=            -18.5557 XXXY=              0.0000
 XXXZ=             -0.0000 YYYX=             -0.0000 YYYZ=              0.0000 ZZZX=              0.0000
 ZZZY=             -0.0000 XXYY=             -6.1852 XXZZ=             -6.1852 YYZZ=             -6.1852
 XXYZ=             -0.0000 YYXZ=              0.0000 ZZXY=             -0.0000
 N-N= 0.000000000000D+00 E-N=-6.578932266401D+03  KE= 2.748422007677D+03
 PrsmSu:  requested number of processors reduced to:  21 ShMem   1 Linda.
 No NMR shielding tensors so no spin-rotation constants.
 Leave Link  601 at Sun Apr 18 02:56:45 2021, MaxMem=   104857600 cpu:             250.6 elap:               5.4
 (Enter /s/ls4/users/knvvv/bin/g16sse/l9999.exe)

 Test job not archived.
 1\1\GINC-N305\Stability\RM062X\def2QZVP\Kr1\KNVVV\18-Apr-2021\0\\#P M0
 62X/Def2QZVP Integral=UltraFineGrid SCF=NoSymm Stable=(RExt, Opt) IOp(
 1/33=1)\\Database calculations.\\0,1\Kr,0,0.,0.,0.\\Version=ES64L-G16R
 evA.03\State=1-A1G\HF=-2753.8781309\RMSD=2.834e-10\Dipole=0.,0.,0.\Qua
 drupole=0.,0.,0.,0.,0.,0.\PG=OH [O(Kr1)]\\@


 SUCCESS IS NEVER CERTAIN,
 FAILURE IS NEVER FINAL.
 Job cpu time:       0 days  4 hours 35 minutes 12.8 seconds.
 Elapsed time:       0 days  0 hours  6 minutes 53.2 seconds.
 File lengths (MBytes):  RWF=     93 Int=      0 D2E=      0 Chk=      4 Scr=      1
 Normal termination of Gaussian 16 at Sun Apr 18 02:56:45 2021.
