 Entering Gaussian System, Link 0=/s/ls4/users/knvvv/bin/g16sse/g16
 Input=data/database/M062X--def2-QZVPPD--12_BCl3PMe3_NBPRC.gjf
 Output=data/database/M062X--def2-QZVPPD--12_BCl3PMe3_NBPRC.log
 Initial command:
 /s/ls4/users/knvvv/bin/g16sse/l1.exe "/s/ls4/users/knvvv/bin/scratch/Gau-11452.inp" -scrdir="/s/ls4/users/knvvv/bin/scratch/"
 Entering Link 1 = /s/ls4/users/knvvv/bin/g16sse/l1.exe PID=     11453.
  
 Copyright (c) 1988,1990,1992,1993,1995,1998,2003,2009,2016,
            Gaussian, Inc.  All Rights Reserved.
  
 This is part of the Gaussian(R) 16 program.  It is based on
 the Gaussian(R) 09 system (copyright 2009, Gaussian, Inc.),
 the Gaussian(R) 03 system (copyright 2003, Gaussian, Inc.),
 the Gaussian(R) 98 system (copyright 1998, Gaussian, Inc.),
 the Gaussian(R) 94 system (copyright 1995, Gaussian, Inc.),
 the Gaussian 92(TM) system (copyright 1992, Gaussian, Inc.),
 the Gaussian 90(TM) system (copyright 1990, Gaussian, Inc.),
 the Gaussian 88(TM) system (copyright 1988, Gaussian, Inc.),
 the Gaussian 86(TM) system (copyright 1986, Carnegie Mellon
 University), and the Gaussian 82(TM) system (copyright 1983,
 Carnegie Mellon University). Gaussian is a federally registered
 trademark of Gaussian, Inc.
  
 This software contains proprietary and confidential information,
 including trade secrets, belonging to Gaussian, Inc.
  
 This software is provided under written license and may be
 used, copied, transmitted, or stored only in accord with that
 written license.
  
 The following legend is applicable only to US Government
 contracts under FAR:
  
                    RESTRICTED RIGHTS LEGEND
  
 Use, reproduction and disclosure by the US Government is
 subject to restrictions as set forth in subparagraphs (a)
 and (c) of the Commercial Computer Software - Restricted
 Rights clause in FAR 52.227-19.
  
 Gaussian, Inc.
 340 Quinnipiac St., Bldg. 40, Wallingford CT 06492
  
  
 ---------------------------------------------------------------
 Warning -- This program may not be used in any manner that
 competes with the business of Gaussian, Inc. or will provide
 assistance to any competitor of Gaussian, Inc.  The licensee
 of this program is prohibited from giving any competitor of
 Gaussian, Inc. access to this program.  By using this program,
 the user acknowledges that Gaussian, Inc. is engaged in the
 business of creating and licensing software in the field of
 computational chemistry and represents and warrants to the
 licensee that it is not a competitor of Gaussian, Inc. and that
 it will not use this program in any manner prohibited above.
 ---------------------------------------------------------------
  

 Cite this work as:
 Gaussian 16, Revision A.03,
 M. J. Frisch, G. W. Trucks, H. B. Schlegel, G. E. Scuseria, 
 M. A. Robb, J. R. Cheeseman, G. Scalmani, V. Barone, 
 G. A. Petersson, H. Nakatsuji, X. Li, M. Caricato, A. V. Marenich, 
 J. Bloino, B. G. Janesko, R. Gomperts, B. Mennucci, H. P. Hratchian, 
 J. V. Ortiz, A. F. Izmaylov, J. L. Sonnenberg, D. Williams-Young, 
 F. Ding, F. Lipparini, F. Egidi, J. Goings, B. Peng, A. Petrone, 
 T. Henderson, D. Ranasinghe, V. G. Zakrzewski, J. Gao, N. Rega, 
 G. Zheng, W. Liang, M. Hada, M. Ehara, K. Toyota, R. Fukuda, 
 J. Hasegawa, M. Ishida, T. Nakajima, Y. Honda, O. Kitao, H. Nakai, 
 T. Vreven, K. Throssell, J. A. Montgomery, Jr., J. E. Peralta, 
 F. Ogliaro, M. J. Bearpark, J. J. Heyd, E. N. Brothers, K. N. Kudin, 
 V. N. Staroverov, T. A. Keith, R. Kobayashi, J. Normand, 
 K. Raghavachari, A. P. Rendell, J. C. Burant, S. S. Iyengar, 
 J. Tomasi, M. Cossi, J. M. Millam, M. Klene, C. Adamo, R. Cammi, 
 J. W. Ochterski, R. L. Martin, K. Morokuma, O. Farkas, 
 J. B. Foresman, and D. J. Fox, Gaussian, Inc., Wallingford CT, 2016.
 
 ******************************************
 Gaussian 16:  ES64L-G16RevA.03 25-Dec-2016
                17-Apr-2021 
 ******************************************
 %RWF=temp10_55262,70GB
 %nprocshared=48
 Will use up to   48 processors via shared memory.
 Default route: MaxDisk=80GB
 ----------------------------------------------------------------------
 #P M062X/GEN Integral=UltraFineGrid SCF=NoSymm Stable=(RExt, Opt) IOp(
 1/33=1)
 ----------------------------------------------------------------------
 1/33=1,38=1,172=1/1;
 2/12=2,17=6,18=5,40=1/2;
 3/5=7,11=2,25=1,30=1,74=-55,75=-5/1,2,3;
 4/9=2/1;
 5/5=2,38=5/2;
 6/7=2,8=2,9=2,10=2,28=1/1;
 8/6=1,10=90,11=11/1;
 9/8=-3,42=1,46=1/14;
 5/5=2,8=3,17=40,38=5/8(-2);
 6/7=2,8=2,9=2,10=2,28=1/1;
 99/5=1,9=1/99;
 Leave Link    1 at Sat Apr 17 06:25:05 2021, MaxMem=           0 cpu:              10.7 elap:               0.2
 (Enter /s/ls4/users/knvvv/bin/g16sse/l101.exe)
 ONIOM data not found on unit 2.
 ----------------------
 Database calculations.
 ----------------------
 TstMul:  ICh=     0
 TstMul:  Mul=     1
 TstMul:  ICh=     0
 TstMul:  Mul=     1
 Symbolic Z-matrix:
 Charge =  0 Multiplicity = 1
 B                     0.        0.        1.95087 
 P                     0.        0.       -0.02907 
 C                     0.8519   -1.47554  -0.68967 
 C                     0.8519    1.47554  -0.68967 
 C                    -1.7038    0.       -0.68967 
 Cl                   -0.8969    1.55348   2.46346 
 Cl                    1.79381   0.        2.46346 
 Cl                   -0.8969   -1.55348   2.46346 
 H                    -2.21834  -0.88668  -0.31637 
 H                    -2.21834   0.88668  -0.31637 
 H                    -1.69842   0.       -1.78166 
 H                     0.34128   2.36448  -0.31637 
 H                     1.87706   1.4778   -0.31637 
 H                     0.84921   1.47087  -1.78166 
 H                     0.84921  -1.47087  -1.78166 
 H                     1.87706  -1.4778   -0.31637 
 H                     0.34128  -2.36448  -0.31637 
 
 RdStrC is calling ZToCFu for IStruc=1 NZ=    17.
 PrtBox:  NBox=     3 Levels=  1 BoxLen=    8.00 SMaxX=        8.94
          Shift=            4.192058            4.468221            3.366846
 Box      1 Number                   0 centers from      1 to     13:
 Box      2 Number                   1 centers from     14 to     16:
 Box      3 Number                   2 centers from     17 to     17:
 After GenITR:
 ITRead=  0  0  0  0  0  0  0  0  0  0  0  0  0  0  0  0  0
 MicOpt= -1 -1 -1 -1 -1 -1 -1 -1 -1 -1 -1 -1 -1 -1 -1 -1 -1
 ITRead=  0  0  0  0  0  0  0  0  0  0  0  0  0  0  0  0  0
 MicOpt= -1 -1 -1 -1 -1 -1 -1 -1 -1 -1 -1 -1 -1 -1 -1 -1 -1
 NAtoms=     17 NQM=       17 NQMF=       0 NMMI=      0 NMMIF=      0
                NMic=       0 NMicF=      0.
                    Isotopes and Nuclear Properties:
 (Nuclear quadrupole moments (NQMom) in fm**2, nuclear magnetic moments (NMagM)
  in nuclear magnetons)

  Atom         1           2           3           4           5           6           7           8           9          10
 IAtWgt=          11          31          12          12          12          35          35          35           1           1
 AtmWgt=  11.0093053  30.9737634  12.0000000  12.0000000  12.0000000  34.9688527  34.9688527  34.9688527   1.0078250   1.0078250
 NucSpn=           3           1           0           0           0           3           3           3           1           1
 AtZEff=  -0.0000000  -0.0000000  -0.0000000  -0.0000000  -0.0000000  -0.0000000  -0.0000000  -0.0000000  -0.0000000  -0.0000000
 NQMom=    4.0590000   0.0000000   0.0000000   0.0000000   0.0000000  -8.1650000  -8.1650000  -8.1650000   0.0000000   0.0000000
 NMagM=    2.6886370   1.1316000   0.0000000   0.0000000   0.0000000   0.8218740   0.8218740   0.8218740   2.7928460   2.7928460
 AtZNuc=   5.0000000  15.0000000   6.0000000   6.0000000   6.0000000  17.0000000  17.0000000  17.0000000   1.0000000   1.0000000

  Atom        11          12          13          14          15          16          17
 IAtWgt=           1           1           1           1           1           1           1
 AtmWgt=   1.0078250   1.0078250   1.0078250   1.0078250   1.0078250   1.0078250   1.0078250
 NucSpn=           1           1           1           1           1           1           1
 AtZEff=  -0.0000000  -0.0000000  -0.0000000  -0.0000000  -0.0000000  -0.0000000  -0.0000000
 NQMom=    0.0000000   0.0000000   0.0000000   0.0000000   0.0000000   0.0000000   0.0000000
 NMagM=    2.7928460   2.7928460   2.7928460   2.7928460   2.7928460   2.7928460   2.7928460
 AtZNuc=   1.0000000   1.0000000   1.0000000   1.0000000   1.0000000   1.0000000   1.0000000
 No MM parameters found.
 Leave Link  101 at Sat Apr 17 06:25:05 2021, MaxMem=   104857600 cpu:               7.4 elap:               0.2
 (Enter /s/ls4/users/knvvv/bin/g16sse/l202.exe)
                          Input orientation:                          
 ---------------------------------------------------------------------
 Center     Atomic      Atomic             Coordinates (Angstroms)
 Number     Number       Type             X           Y           Z
 ---------------------------------------------------------------------
      1          5           0        0.000000    0.000000    1.950874
      2         15           0        0.000000    0.000000   -0.029067
      3          6           0        0.851901   -1.475535   -0.689675
      4          6           0        0.851901    1.475535   -0.689675
      5          6           0       -1.703801    0.000000   -0.689675
      6         17           0       -0.896905    1.553484    2.463464
      7         17           0        1.793809    0.000000    2.463464
      8         17           0       -0.896905   -1.553484    2.463464
      9          1           0       -2.218341   -0.886682   -0.316367
     10          1           0       -2.218341    0.886682   -0.316367
     11          1           0       -1.698419    0.000000   -1.781658
     12          1           0        0.341282    2.364481   -0.316367
     13          1           0        1.877060    1.477799   -0.316367
     14          1           0        0.849209    1.470874   -1.781658
     15          1           0        0.849209   -1.470874   -1.781658
     16          1           0        1.877060   -1.477799   -0.316367
     17          1           0        0.341282   -2.364481   -0.316367
 ---------------------------------------------------------------------
                    Distance matrix (angstroms):
                    1          2          3          4          5
     1  B    0.000000
     2  P    1.979941   0.000000
     3  C    3.142521   1.827387   0.000000
     4  C    3.142521   1.827387   2.951070   0.000000
     5  C    3.142521   1.827387   2.951070   2.951070   0.000000
     6  Cl   1.865610   3.070906   4.709094   3.606478   3.606478
     7  Cl   1.865610   3.070906   3.606478   3.606478   4.709094
     8  Cl   1.865610   3.070906   3.606478   4.709094   3.606478
     9  H    3.293573   2.406197   3.148411   3.891762   1.091015
    10  H    3.293573   2.406197   3.891762   3.148411   1.091015
    11  H    4.100783   2.440533   3.142254   3.142254   1.091997
    12  H    3.293573   2.406197   3.891762   1.091015   3.148411
    13  H    3.293573   2.406197   3.148411   1.091015   3.891762
    14  H    4.100783   2.440533   3.142254   1.091997   3.142254
    15  H    4.100783   2.440533   1.091997   3.142254   3.142254
    16  H    3.293573   2.406197   1.091015   3.148411   3.891762
    17  H    3.293573   2.406197   1.091015   3.891762   3.148411
                    6          7          8          9         10
     6  Cl   0.000000
     7  Cl   3.106969   0.000000
     8  Cl   3.106969   3.106969   0.000000
     9  H    3.927858   4.960949   3.149330   0.000000
    10  H    3.149330   4.960949   3.927858   1.773363   0.000000
    11  H    4.590948   5.496974   4.590948   1.789861   1.789861
    12  H    3.149330   3.927858   4.960949   4.137841   2.955598
    13  H    3.927858   3.149330   4.960949   4.728962   4.137841
    14  H    4.590948   4.590948   5.496974   4.137029   3.449380
    15  H    5.496974   4.590948   4.590948   3.449380   4.137029
    16  H    4.960949   3.149330   3.927858   4.137841   4.728962
    17  H    4.960949   3.927858   3.149330   2.955598   4.137841
                   11         12         13         14         15
    11  H    0.000000
    12  H    3.449380   0.000000
    13  H    4.137029   1.773363   0.000000
    14  H    2.941747   1.789861   1.789861   0.000000
    15  H    2.941747   4.137029   3.449380   2.941747   0.000000
    16  H    4.137029   4.137841   2.955598   3.449380   1.789861
    17  H    3.449380   4.728962   4.137841   4.137029   1.789861
                   16         17
    16  H    0.000000
    17  H    1.773363   0.000000
 Stoichiometry    C3H9BCl3P
 Framework group  C3V[C3(BP),3SGV(CHCl),X(H6)]
 Deg. of freedom    10
 Full point group                 C3V     NOp   6
 Largest Abelian subgroup         CS      NOp   2
 Largest concise Abelian subgroup CS      NOp   2
                         Standard orientation:                         
 ---------------------------------------------------------------------
 Center     Atomic      Atomic             Coordinates (Angstroms)
 Number     Number       Type             X           Y           Z
 ---------------------------------------------------------------------
      1          5           0        0.000000    0.000000   -0.774367
      2         15           0        0.000000    0.000000    1.205574
      3          6           0       -0.000000   -1.703801    1.866182
      4          6           0       -1.475535    0.851901    1.866182
      5          6           0        1.475535    0.851901    1.866182
      6         17           0        0.000000    1.793809   -1.286957
      7         17           0       -1.553484   -0.896905   -1.286957
      8         17           0        1.553484   -0.896905   -1.286957
      9          1           0        2.364481    0.341282    1.492874
     10          1           0        1.477799    1.877060    1.492874
     11          1           0        1.470874    0.849209    2.958166
     12          1           0       -1.477799    1.877060    1.492874
     13          1           0       -2.364481    0.341282    1.492874
     14          1           0       -1.470874    0.849209    2.958166
     15          1           0       -0.000000   -1.698419    2.958166
     16          1           0       -0.886682   -2.218341    1.492874
     17          1           0        0.886682   -2.218341    1.492874
 ---------------------------------------------------------------------
 Rotational constants (GHZ):           1.0413701           0.8008852           0.8008852
 Leave Link  202 at Sat Apr 17 06:25:05 2021, MaxMem=   104857600 cpu:              11.7 elap:               0.3
 (Enter /s/ls4/users/knvvv/bin/g16sse/l301.exe)
 General basis read from cards:  (5D, 7F)
 Centers:       9     10     11     12     13     14     15     16     17
 S 4 1.00
     Exponent=  1.9069169000D+02 Coefficients=  7.0815167000D-04
     Exponent=  2.8605532000D+01 Coefficients=  5.4678827000D-03
     Exponent=  6.5095943000D+00 Coefficients=  2.7966605000D-02
     Exponent=  1.8412455000D+00 Coefficients=  1.0764538000D-01
 S 1 1.00
     Exponent=  5.9853725000D-01 Coefficients=  1.0000000000D+00
 S 1 1.00
     Exponent=  2.1397624000D-01 Coefficients=  1.0000000000D+00
 S 1 1.00
     Exponent=  8.0316286000D-02 Coefficients=  1.0000000000D+00
 P 1 1.00
     Exponent=  2.2920000000D+00 Coefficients=  1.0000000000D+00
 P 1 1.00
     Exponent=  8.3800000000D-01 Coefficients=  1.0000000000D+00
 P 1 1.00
     Exponent=  2.9200000000D-01 Coefficients=  1.0000000000D+00
 P 1 1.00
     Exponent=  8.4063199228D-02 Coefficients=  1.0000000000D+00
 D 1 1.00
     Exponent=  2.0620000000D+00 Coefficients=  1.0000000000D+00
 D 1 1.00
     Exponent=  6.6200000000D-01 Coefficients=  1.0000000000D+00
 F 1 1.00
     Exponent=  1.3970000000D+00 Coefficients=  1.0000000000D+00
 ****
 Centers:       1
 S 8 1.00
     Exponent=  4.6447667056D+04 Coefficients=  3.8388681014D-05
     Exponent=  6.9576889042D+03 Coefficients=  2.9836770197D-04
     Exponent=  1.5834428403D+03 Coefficients=  1.5645478806D-03
     Exponent=  4.4846601009D+02 Coefficients=  6.5476770742D-03
     Exponent=  1.4628639262D+02 Coefficients=  2.3139008388D-02
     Exponent=  5.2784386084D+01 Coefficients=  6.9615799357D-02
     Exponent=  2.0519396170D+01 Coefficients=  1.7119636876D-01
     Exponent=  8.4185659258D+00 Coefficients=  3.1913191837D-01
 S 2 1.00
     Exponent=  3.6510018312D+01 Coefficients=  7.8990617244D-02
     Exponent=  1.0541854005D+01 Coefficients=  7.8926384265D-01
 S 1 1.00
     Exponent=  3.6004091387D+00 Coefficients=  1.0000000000D+00
 S 1 1.00
     Exponent=  1.5617023749D+00 Coefficients=  1.0000000000D+00
 S 1 1.00
     Exponent=  4.4997370775D-01 Coefficients=  1.0000000000D+00
 S 1 1.00
     Exponent=  1.8075230237D-01 Coefficients=  1.0000000000D+00
 S 1 1.00
     Exponent=  7.1596696319D-02 Coefficients=  1.0000000000D+00
 S 1 1.00
     Exponent=  2.9941402533D-02 Coefficients=  1.0000000000D+00
 P 5 1.00
     Exponent=  7.2240462760D+01 Coefficients=  8.6539170411D-04
     Exponent=  1.6807707208D+01 Coefficients=  6.8762067365D-03
     Exponent=  5.2259410747D+00 Coefficients=  3.0976687148D-02
     Exponent=  1.8508350671D+00 Coefficients=  1.0432357913D-01
     Exponent=  7.2206782663D-01 Coefficients=  2.6164137577D-01
 P 1 1.00
     Exponent=  2.9491018056D-01 Coefficients=  1.0000000000D+00
 P 1 1.00
     Exponent=  1.2201141839D-01 Coefficients=  1.0000000000D+00
 P 1 1.00
     Exponent=  4.9865393625D-02 Coefficients=  1.0000000000D+00
 D 1 1.00
     Exponent=  1.1100000000D+00 Coefficients=  1.0000000000D+00
 D 1 1.00
     Exponent=  4.0200000000D-01 Coefficients=  1.0000000000D+00
 D 1 1.00
     Exponent=  1.4500000000D-01 Coefficients=  1.0000000000D+00
 D 1 1.00
     Exponent=  5.0896593879D-02 Coefficients=  1.0000000000D+00
 F 1 1.00
     Exponent=  8.8200000000D-01 Coefficients=  1.0000000000D+00
 F 1 1.00
     Exponent=  3.1100000000D-01 Coefficients=  1.0000000000D+00
 G 1 1.00
     Exponent=  6.7300000000D-01 Coefficients=  1.0000000000D+00
 ****
 Centers:       3      4      5
 S 8 1.00
     Exponent=  6.7025071029D+04 Coefficients=  3.8736308501D-05
     Exponent=  1.0039986538D+04 Coefficients=  3.0107917575D-04
     Exponent=  2.2849316911D+03 Coefficients=  1.5787918095D-03
     Exponent=  6.4714122130D+02 Coefficients=  6.6087087195D-03
     Exponent=  2.1109472335D+02 Coefficients=  2.3367123250D-02
     Exponent=  7.6177643862D+01 Coefficients=  7.0420716898D-02
     Exponent=  2.9633839163D+01 Coefficients=  1.7360344953D-01
     Exponent=  1.2187785081D+01 Coefficients=  3.2292305648D-01
 S 2 1.00
     Exponent=  5.3026006299D+01 Coefficients=  7.4897404492D-02
     Exponent=  1.5258502776D+01 Coefficients=  7.6136220983D-01
 S 1 1.00
     Exponent=  5.2403957464D+00 Coefficients=  1.0000000000D+00
 S 1 1.00
     Exponent=  2.2905022379D+00 Coefficients=  1.0000000000D+00
 S 1 1.00
     Exponent=  6.9673283006D-01 Coefficients=  1.0000000000D+00
 S 1 1.00
     Exponent=  2.7599337363D-01 Coefficients=  1.0000000000D+00
 S 1 1.00
     Exponent=  1.0739884389D-01 Coefficients=  1.0000000000D+00
 S 1 1.00
     Exponent=  4.4981404899D-02 Coefficients=  1.0000000000D+00
 P 5 1.00
     Exponent=  1.0512555082D+02 Coefficients=  8.4647553844D-04
     Exponent=  2.4884461066D+01 Coefficients=  6.6274038534D-03
     Exponent=  7.8637230826D+00 Coefficients=  3.0120390419D-02
     Exponent=  2.8407001835D+00 Coefficients=  9.9951435476D-02
     Exponent=  1.1227137335D+00 Coefficients=  2.3826299282D-01
 P 1 1.00
     Exponent=  4.6050725555D-01 Coefficients=  1.0000000000D+00
 P 1 1.00
     Exponent=  1.8937530913D-01 Coefficients=  1.0000000000D+00
 P 1 1.00
     Exponent=  7.5983791611D-02 Coefficients=  1.0000000000D+00
 D 1 1.00
     Exponent=  1.8480000000D+00 Coefficients=  1.0000000000D+00
 D 1 1.00
     Exponent=  6.4900000000D-01 Coefficients=  1.0000000000D+00
 D 1 1.00
     Exponent=  2.2800000000D-01 Coefficients=  1.0000000000D+00
 D 1 1.00
     Exponent=  7.6889830417D-02 Coefficients=  1.0000000000D+00
 F 1 1.00
     Exponent=  1.4190000000D+00 Coefficients=  1.0000000000D+00
 F 1 1.00
     Exponent=  4.8500000000D-01 Coefficients=  1.0000000000D+00
 G 1 1.00
     Exponent=  1.0110000000D+00 Coefficients=  1.0000000000D+00
 ****
 Centers:       2
 S 10 1.00
     Exponent=  1.0905617138D+06 Coefficients=  1.2142449664D-05
     Exponent=  1.6331639461D+05 Coefficients=  9.4395292614D-05
     Exponent=  3.7166607451D+04 Coefficients=  4.9622262177D-04
     Exponent=  1.0526880945D+04 Coefficients=  2.0900040747D-03
     Exponent=  3.4339976028D+03 Coefficients=  7.5489230025D-03
     Exponent=  1.2395360480D+03 Coefficients=  2.4010423937D-02
     Exponent=  4.8327456199D+02 Coefficients=  6.7231473697D-02
     Exponent=  2.0016911586D+02 Coefficients=  1.5978669881D-01
     Exponent=  8.6960394829D+01 Coefficients=  2.9735906782D-01
     Exponent=  3.9211283369D+01 Coefficients=  3.6187171850D-01
 S 3 1.00
     Exponent=  3.3675883662D+02 Coefficients=  1.9154721050D-02
     Exponent=  1.0372179793D+02 Coefficients=  1.7134079100D-01
     Exponent=  3.9771861240D+01 Coefficients=  6.3689655985D-01
 S 1 1.00
     Exponent=  1.7888612952D+01 Coefficients=  1.0000000000D+00
 S 1 1.00
     Exponent=  6.9644556879D+00 Coefficients=  1.0000000000D+00
 S 1 1.00
     Exponent=  3.2198092087D+00 Coefficients=  1.0000000000D+00
 S 1 1.00
     Exponent=  1.4669943979D+00 Coefficients=  1.0000000000D+00
 S 1 1.00
     Exponent=  4.7765437532D-01 Coefficients=  1.0000000000D+00
 S 1 1.00
     Exponent=  2.1637789241D-01 Coefficients=  1.0000000000D+00
 S 1 1.00
     Exponent=  9.0235894336D-02 Coefficients=  1.0000000000D+00
 S 1 1.00
     Exponent=  4.0836372978D-02 Coefficients=  1.0000000000D+00
 P 8 1.00
     Exponent=  2.0196711374D+03 Coefficients=  2.1359172406D-04
     Exponent=  4.7860125090D+02 Coefficients=  1.8568771399D-03
     Exponent=  1.5514942504D+02 Coefficients=  1.0070690115D-02
     Exponent=  5.8816356575D+01 Coefficients=  3.9605153679D-02
     Exponent=  2.4544512785D+01 Coefficients=  1.1736067844D-01
     Exponent=  1.0883571061D+01 Coefficients=  2.4950540642D-01
     Exponent=  4.9624791285D+00 Coefficients=  3.6421287984D-01
     Exponent=  2.3002912343D+00 Coefficients=  3.1764127123D-01
 P 2 1.00
     Exponent=  5.9371345016D+01 Coefficients=  3.9432918004D-01
     Exponent=  3.0694590986D+00 Coefficients= -6.3522960431D+00
 P 1 1.00
     Exponent=  1.0634401739D+00 Coefficients=  1.0000000000D+00
 P 1 1.00
     Exponent=  4.5022152161D-01 Coefficients=  1.0000000000D+00
 P 1 1.00
     Exponent=  1.8267271344D-01 Coefficients=  1.0000000000D+00
 P 1 1.00
     Exponent=  7.1610333771D-02 Coefficients=  1.0000000000D+00
 D 1 1.00
     Exponent=  3.3430000000D+00 Coefficients=  1.0000000000D+00
 D 1 1.00
     Exponent=  8.0700000000D-01 Coefficients=  1.0000000000D+00
 D 1 1.00
     Exponent=  3.6500000000D-01 Coefficients=  1.0000000000D+00
 D 1 1.00
     Exponent=  1.5400000000D-01 Coefficients=  1.0000000000D+00
 D 1 1.00
     Exponent=  5.9687731846D-02 Coefficients=  1.0000000000D+00
 F 1 1.00
     Exponent=  7.0300000000D-01 Coefficients=  1.0000000000D+00
 F 1 1.00
     Exponent=  2.8000000000D-01 Coefficients=  1.0000000000D+00
 G 1 1.00
     Exponent=  5.9700000000D-01 Coefficients=  1.0000000000D+00
 ****
 Centers:       6      7      8
 S 10 1.00
     Exponent=  1.4674590095D+06 Coefficients=  1.1478257194D-05
     Exponent=  2.1975616433D+05 Coefficients=  8.9234299775D-05
     Exponent=  5.0010770301D+04 Coefficients=  4.6911086186D-04
     Exponent=  1.4164823918D+04 Coefficients=  1.9762446133D-03
     Exponent=  4.6207465525D+03 Coefficients=  7.1419937783D-03
     Exponent=  1.6678991635D+03 Coefficients=  2.2753219445D-02
     Exponent=  6.5029199265D+02 Coefficients=  6.3959782953D-02
     Exponent=  2.6938037376D+02 Coefficients=  1.5331059238D-01
     Exponent=  1.1706752106D+02 Coefficients=  2.8986952417D-01
     Exponent=  5.2811766843D+01 Coefficients=  3.6348071452D-01
 S 3 1.00
     Exponent=  4.6142769988D+02 Coefficients=  1.8019457578D-02
     Exponent=  1.4212665355D+02 Coefficients=  1.6489442314D-01
     Exponent=  5.4437838768D+01 Coefficients=  6.3891587584D-01
 S 1 1.00
     Exponent=  2.4160770219D+01 Coefficients=  1.0000000000D+00
 S 1 1.00
     Exponent=  9.7083540306D+00 Coefficients=  1.0000000000D+00
 S 1 1.00
     Exponent=  4.5640696733D+00 Coefficients=  1.0000000000D+00
 S 1 1.00
     Exponent=  2.1194744832D+00 Coefficients=  1.0000000000D+00
 S 1 1.00
     Exponent=  7.5722365394D-01 Coefficients=  1.0000000000D+00
 S 1 1.00
     Exponent=  3.3747224597D-01 Coefficients=  1.0000000000D+00
 S 1 1.00
     Exponent=  1.3860775149D-01 Coefficients=  1.0000000000D+00
 S 1 1.00
     Exponent=  5.4234565513D-02 Coefficients=  1.0000000000D+00
 P 8 1.00
     Exponent=  2.5019457890D+03 Coefficients=  2.4242618410D-04
     Exponent=  5.9288059285D+02 Coefficients=  2.1079961749D-03
     Exponent=  1.9218089186D+02 Coefficients=  1.1432693869D-02
     Exponent=  7.2875710488D+01 Coefficients=  4.4956698060D-02
     Exponent=  3.0436358370D+01 Coefficients=  1.3197476145D-01
     Exponent=  1.3490178902D+01 Coefficients=  2.7493639225D-01
     Exponent=  6.1478071413D+00 Coefficients=  3.8347236372D-01
     Exponent=  2.8450944820D+00 Coefficients=  2.8871943885D-01
 P 2 1.00
     Exponent=  1.0539397936D+02 Coefficients= -3.4311760144D-02
     Exponent=  6.7369738513D+00 Coefficients=  6.4060818902D-01
 P 1 1.00
     Exponent=  1.2421095772D+00 Coefficients=  1.0000000000D+00
 P 1 1.00
     Exponent=  5.5669714254D-01 Coefficients=  1.0000000000D+00
 P 1 1.00
     Exponent=  2.3387801464D-01 Coefficients=  1.0000000000D+00
 P 1 1.00
     Exponent=  9.3164490890D-02 Coefficients=  1.0000000000D+00
 P 1 1.00
     Exponent=  2.7256146018D-02 Coefficients=  1.0000000000D+00
 D 1 1.00
     Exponent=  5.1910000000D+00 Coefficients=  1.0000000000D+00
 D 1 1.00
     Exponent=  1.2760000000D+00 Coefficients=  1.0000000000D+00
 D 1 1.00
     Exponent=  5.8300000000D-01 Coefficients=  1.0000000000D+00
 D 1 1.00
     Exponent=  2.4300000000D-01 Coefficients=  1.0000000000D+00
 D 1 1.00
     Exponent=  8.3456538402D-02 Coefficients=  1.0000000000D+00
 F 1 1.00
     Exponent=  1.0890000000D+00 Coefficients=  1.0000000000D+00
 F 1 1.00
     Exponent=  4.2300000000D-01 Coefficients=  1.0000000000D+00
 G 1 1.00
     Exponent=  8.2700000000D-01 Coefficients=  1.0000000000D+00
 ****
 Ernie: Thresh=  0.10000D-02 Tol=  0.10000D-05 Strict=F.
 There are   587 symmetry adapted cartesian basis functions of A'  symmetry.
 There are   452 symmetry adapted cartesian basis functions of A"  symmetry.
 There are   480 symmetry adapted basis functions of A'  symmetry.
 There are   382 symmetry adapted basis functions of A"  symmetry.
   862 basis functions,  1286 primitive gaussians,  1039 cartesian basis functions
    49 alpha electrons       49 beta electrons
       nuclear repulsion energy       753.2233200451 Hartrees.
 IExCor= 4336 DFT=T Ex+Corr=M062X ExCW=0 ScaHFX=  0.540000
 ScaDFX=  1.000000  1.000000  1.000000  1.000000 ScalE2=  1.000000  1.000000
 IRadAn=      5 IRanWt=     -1 IRanGd=            0 ICorTp=0 IEmpDi=  4
 NAtoms=   17 NActive=   17 NUniq=    6 SFac= 4.00D+00 NAtFMM=   60 NAOKFM=F Big=F
 Integral buffers will be    131072 words long.
 Raffenetti 2 integral format.
 Two-electron integral symmetry is turned on.
 Leave Link  301 at Sat Apr 17 06:25:06 2021, MaxMem=   104857600 cpu:              10.8 elap:               0.2
 (Enter /s/ls4/users/knvvv/bin/g16sse/l302.exe)
 NPDir=0 NMtPBC=     1 NCelOv=     1 NCel=       1 NClECP=     1 NCelD=      1
         NCelK=      1 NCelE2=     1 NClLst=     1 CellRange=     0.0.
 One-electron integrals computed using PRISM.
 One-electron integral symmetry used in STVInt
 PrsmSu:  requested number of processors reduced to:   3 ShMem   1 Linda.
 PrsmSu:  requested number of processors reduced to:  17 ShMem   1 Linda.
 NBasis=   862 RedAO= T EigKep=  1.76D-06  NBF=   480   382
 NBsUse=   856 1.00D-06 EigRej=  5.70D-07 NBFU=   477   379
 Precomputing XC quadrature grid using
 IXCGrd= 4 IRadAn=           5 IRanWt=          -1 IRanGd=           0 AccXCQ= 0.00D+00.
 Generated NRdTot=       0 NPtTot=           0 NUsed=           0 NTot=          32
 NSgBfM=  1036  1036  1036  1036  1036 MxSgAt=    17 MxSgA2=    17.
 Leave Link  302 at Sat Apr 17 06:25:48 2021, MaxMem=   104857600 cpu:            2005.1 elap:              42.7
 (Enter /s/ls4/users/knvvv/bin/g16sse/l303.exe)
 DipDrv:  MaxL=1.
 Leave Link  303 at Sat Apr 17 06:25:59 2021, MaxMem=   104857600 cpu:             510.9 elap:              10.9
 (Enter /s/ls4/users/knvvv/bin/g16sse/l401.exe)
 SCF N**3 symmetry information disabled.
 ExpMin= 2.73D-02 ExpMax= 1.47D+06 ExpMxC= 1.67D+03 IAcc=3 IRadAn=         5 AccDes= 0.00D+00
 Harris functional with IExCor= 1009 and IRadAn=       5 diagonalized for initial guess.
 HarFok:  IExCor= 1009 AccDes= 0.00D+00 IRadAn=         5 IDoV= 1 UseB2=F ITyADJ=14
 ICtDFT=  3500011 ScaDFX=  1.000000  1.000000  1.000000  1.000000
 CalDSu:  requested number of processors reduced to:  42 ShMem   1 Linda.
 FoFCou: FMM=F IPFlag=           0 FMFlag=      100000 FMFlg1=           0
         NFxFlg=           0 DoJE=T BraDBF=F KetDBF=T FulRan=T
         wScrn=  0.000000 ICntrl=       500 IOpCl=  0 I1Cent=   200000004 NGrid=           0
         NMat0=    1 NMatS0=      1 NMatT0=    0 NMatD0=    1 NMtDS0=    0 NMtDT0=    0
 Petite list used in FoFCou.
 CoulSu:  requested number of processors reduced to:  15 ShMem   1 Linda.
 CoulSu:  requested number of processors reduced to:  16 ShMem   1 Linda.
 CoulSu:  requested number of processors reduced to:  21 ShMem   1 Linda.
 CoulSu:  requested number of processors reduced to:  21 ShMem   1 Linda.
 DSYEVD-2 returned Info=        1713 IAlg= 4 N=   856 NDim=   856 NE2=      119967 trying  DSYEV.
 Harris En= -1865.86589267477    
 JPrj=0 DoOrth=F DoCkMO=F.
 Initial guess orbital symmetries:
       Occupied  (A1) (E) (E) (A1) (E) (E) (A1) (A1) (E) (E) (E)
                 (E) (A1) (E) (E) (A1) (E) (E) (A2) (A1) (A1) (A1)
                 (E) (E) (A1) (A1) (E) (E) (E) (E) (A1) (A1) (E)
                 (E) (E) (E) (A2) (A1) (E) (E) (A1) (E) (E) (E)
                 (E) (E) (E) (A1) (A2)
       Virtual   (A1) (E) (E) (A1) (A1) (E) (E) (E) (E) (A1) (A1)
                 (A1) (E) (E) (E) (E) (A1) (E) (E) (A2) (E) (E)
                 (A1) (E) (E) (A1) (E) (E) (E) (E) (A2) (A1) (E)
                 (E) (A1) (E) (E) (A1) (A2) (E) (E) (A1) (E) (E)
                 (E) (E) (A1) (A1) (E) (E) (E) (E) (E) (E) (A1)
                 (A1) (A2) (E) (E) (A1) (A2) (E) (E) (E) (E) (E)
                 (E) (A1) (A1) (A2) (E) (E) (E) (E) (A1) (E) (E)
                 (E) (E) (E) (E) (E) (E) (A1) (E) (E) (A1) (A2)
                 (A1) (E) (E) (E) (E) (A2) (E) (E) (A2) (A1) (A1)
                 (E) (E) (E) (E) (A2) (A1) (E) (E) (E) (E) (A1)
                 (A1) (E) (E) (A1) (A2) (E) (E) (A1) (E) (E) (A2)
                 (E) (E) (A1) (E) (E) (E) (E) (E) (E) (A1) (E)
                 (E) (E) (E) (A1) (A2) (E) (E) (A2) (A1) (E) (E)
                 (E) (E) (A1) (A1) (E) (E) (E) (E) (A1) (A2) (E)
                 (E) (A1) (E) (E) (A1) (E) (E) (A2) (E) (E) (A1)
                 (E) (E) (A1) (A2) (E) (E) (E) (E) (E) (E) (E)
                 (E) (A1) (A2) (E) (E) (A1) (E) (E) (E) (E) (A1)
                 (A1) (E) (E) (A2) (A1) (E) (E) (E) (E) (E) (E)
                 (A1) (E) (E) (A1) (E) (E) (A2) (E) (E) (A1) (E)
                 (E) (A1) (A2) (E) (E) (A1) (E) (E) (E) (E) (E)
                 (E) (A2) (A1) (E) (E) (E) (E) (A1) (A2) (E) (E)
                 (A1) (A1) (E) (E) (E) (E) (A2) (A2) (A1) (E) (E)
                 (E) (E) (A1) (E) (E) (A1) (A2) (E) (E) (A1) (E)
                 (E) (E) (E) (A1) (E) (E) (A2) (E) (E) (A1) (E)
                 (E) (E) (E) (A1) (A1) (E) (E) (A2) (E) (E) (E)
                 (E) (A1) (E) (E) (A2) (A1) (E) (E) (A2) (E) (E)
                 (A2) (A1) (A1) (A1) (E) (E) (A2) (E) (E) (A1)
                 (E) (E) (E) (E) (E) (E) (A1) (E) (E) (A2) (E)
                 (E) (A1) (E) (E) (E) (E) (A2) (A1) (A2) (A1) (E)
                 (E) (A1) (E) (E) (A1) (E) (E) (E) (E) (A2) (E)
                 (E) (A1) (A1) (E) (E) (E) (E) (E) (E) (A1) (E)
                 (E) (A2) (E) (E) (A1) (E) (E) (A1) (E) (E) (E)
                 (E) (A1) (A2) (A2) (E) (E) (E) (E) (E) (E) (A1)
                 (A1) (E) (E) (E) (E) (E) (E) (A1) (A2) (E) (E)
                 (E) (E) (A1) (A2) (E) (E) (A2) (A1) (E) (E) (A1)
                 (E) (E) (E) (E) (A1) (A2) (E) (E) (A1) (E) (E)
                 (A2) (E) (E) (A1) (A1) (E) (E) (E) (E) (A1) (E)
                 (E) (A1) (A2) (E) (E) (E) (E) (A2) (A2) (E) (E)
                 (A1) (E) (E) (A1) (A2) (E) (E) (A1) (E) (E) (E)
                 (E) (A1) (E) (E) (A2) (E) (E) (A1) (A2) (E) (E)
                 (A2) (E) (E) (A1) (E) (E) (E) (E) (A1) (E) (E)
                 (E) (E) (E) (E) (A1) (A1) (A2) (E) (E) (A1) (E)
                 (E) (E) (E) (A2) (E) (E) (A1) (E) (E) (A1) (A2)
                 (E) (E) (A1) (E) (E) (A1) (A2) (E) (E) (E) (E)
                 (A1) (E) (E) (A2) (E) (E) (A1) (A2) (E) (E) (E)
                 (E) (A1) (E) (E) (E) (E) (E) (E) (A1) (A2) (E)
                 (E) (A1) (E) (E) (E) (E) (A2) (A1) (A1) (E) (E)
                 (A1) (E) (E) (A2) (E) (E) (E) (E) (A1) (A1) (E)
                 (E) (A2) (E) (E) (A1) (E) (E) (E) (E) (E) (E)
                 (A2) (A1) (A1) (E) (E) (A2) (E) (E) (A1) (E) (E)
                 (A2) (E) (E) (A1) (E) (E) (E) (E) (A1) (A2) (E)
                 (E) (A2) (E) (E) (E) (E) (A1) (A2) (E) (E) (E)
                 (E) (A1) (A2) (E) (E) (E) (E) (A1) (A1) (E) (E)
                 (A2) (E) (E) (A1) (E) (E) (A1) (E) (E) (E) (E)
                 (A2) (A1) (E) (E) (A2) (A1) (E) (E) (A1) (E) (E)
                 (A1) (A2) (E) (E) (E) (E) (E) (E) (A1) (A1) (E)
                 (E) (A2) (E) (E) (A1) (A2) (E) (E) (E) (E) (A1)
                 (E) (E) (A1) (E) (E) (E) (E) (A1) (A2) (E) (E)
                 (E) (E) (A1) (E) (E) (A2) (A1) (E) (E) (A1) (E)
                 (E) (A2) (E) (E) (A1) (A2) (E) (E) (E) (E) (E)
                 (E) (A2) (A1) (E) (E) (E) (E) (A2) (E) (E) (E)
                 (E) (A1) (A1) (A1) (E) (E) (A2) (E) (E) (A1) (E)
                 (E) (E) (E) (A1) (A2) (E) (E) (A2) (E) (E) (E)
                 (E) (A2) (A1) (E) (E) (A1) (E) (E) (A1) (E) (E)
                 (E) (E) (A1) (E) (E) (A2) (E) (E) (A1) (A2) (E)
                 (E) (E) (E) (A1) (E) (E) (A2) (A1) (E) (E) (A1)
                 (E) (E) (E) (E) (A2) (A1) (E) (E) (E) (E) (A2)
                 (A1) (E) (E) (A1) (E) (E) (E) (E) (A1) (E) (E)
                 (A2) (E) (E) (A2) (E) (E) (A2) (A1) (E) (E) (E)
                 (E) (A1) (E) (E) (A2) (E) (E) (A1) (A2) (E) (E)
                 (E) (E) (A1) (E) (E) (A1) (A1) (E) (E) (A1) (A1)
                 (E) (E) (A1) (E) (E) (A1) (A2) (E) (E) (A1) (E)
                 (E) (A1) (E) (E) (A1) (E) (E) (A1) (A1) (E) (E)
                 (A1) (A1) (E) (E) (A1)
 The electronic state of the initial guess is 1-A1.
 Leave Link  401 at Sat Apr 17 06:26:20 2021, MaxMem=   104857600 cpu:             943.1 elap:              20.5
 (Enter /s/ls4/users/knvvv/bin/g16sse/l502.exe)
 Integral symmetry usage will be decided dynamically.
 Closed shell SCF:
 Using DIIS extrapolation, IDIIS=  1040.
 NGot=   104857600 LenX=   102637346 LenY=   101556786
 Requested convergence on RMS density matrix=1.00D-08 within 128 cycles.
 Requested convergence on MAX density matrix=1.00D-06.
 Requested convergence on             energy=1.00D-06.
 No special actions if energy rises.
 Fock matrices will be formed incrementally for  20 cycles.

 Cycle   1  Pass 1  IDiag  1:
 FoFJK:  IHMeth= 1 ICntrl=       0 DoSepK=F KAlg= 0 I1Cent=           0 FoldK=F
 IRaf= 900000000 NMat=       1 IRICut=       1 DoRegI=T DoRafI=F ISym2E= 1 IDoP0=0 IntGTp=1.
 FoFCou: FMM=F IPFlag=           0 FMFlag=      100000 FMFlg1=           0
         NFxFlg=           0 DoJE=F BraDBF=F KetDBF=F FulRan=T
         wScrn=  0.000000 ICntrl=         0 IOpCl=  0 I1Cent=           0 NGrid=           0
         NMat0=    1 NMatS0=      1 NMatT0=    0 NMatD0=    1 NMtDS0=    0 NMtDT0=    0
 Petite list used in FoFCou.
 CoulSu:  requested number of processors reduced to:  17 ShMem   1 Linda.
 CalDSu:  requested number of processors reduced to:  42 ShMem   1 Linda.
 E= -1866.47606711604    
 DIIS: error= 3.06D-02 at cycle   1 NSaved=   1.
 NSaved= 1 IEnMin= 1 EnMin= -1866.47606711604     IErMin= 1 ErrMin= 3.06D-02
 ErrMax= 3.06D-02  0.00D+00 EMaxC= 1.00D-01 BMatC= 5.60D-01 BMatP= 5.60D-01
 IDIUse=3 WtCom= 6.94D-01 WtEn= 3.06D-01
 Coeff-Com:  0.100D+01
 Coeff-En:   0.100D+01
 Coeff:      0.100D+01
 Gap=     0.385 Goal=   None    Shift=    0.000
 GapD=    0.385 DampG=1.000 DampE=0.500 DampFc=0.5000 IDamp=-1.
 Damping current iteration by 5.00D-01
 RMSDP=1.92D-03 MaxDP=1.16D-01              OVMax= 1.74D-01

 Cycle   2  Pass 1  IDiag  1:
 RMSU=  9.48D-04    CP:  9.73D-01
 CoulSu:  requested number of processors reduced to:  17 ShMem   1 Linda.
 CalDSu:  requested number of processors reduced to:  42 ShMem   1 Linda.
 E= -1866.62220696720     Delta-E=       -0.146139851164 Rises=F Damp=T
 DIIS: error= 1.24D-02 at cycle   2 NSaved=   2.
 NSaved= 2 IEnMin= 2 EnMin= -1866.62220696720     IErMin= 2 ErrMin= 1.24D-02
 ErrMax= 1.24D-02  0.00D+00 EMaxC= 1.00D-01 BMatC= 6.97D-02 BMatP= 5.60D-01
 IDIUse=3 WtCom= 8.76D-01 WtEn= 1.24D-01
 Coeff-Com: -0.267D+00 0.127D+01
 Coeff-En:   0.000D+00 0.100D+01
 Coeff:     -0.234D+00 0.123D+01
 Gap=     0.323 Goal=   None    Shift=    0.000
 RMSDP=1.15D-03 MaxDP=8.55D-02 DE=-1.46D-01 OVMax= 7.70D-02

 Cycle   3  Pass 1  IDiag  1:
 RMSU=  9.14D-04    CP:  9.58D-01  1.73D+00
 CoulSu:  requested number of processors reduced to:  17 ShMem   1 Linda.
 CalDSu:  requested number of processors reduced to:  42 ShMem   1 Linda.
 E= -1866.74843952225     Delta-E=       -0.126232555048 Rises=F Damp=F
 DIIS: error= 3.95D-03 at cycle   3 NSaved=   3.
 NSaved= 3 IEnMin= 3 EnMin= -1866.74843952225     IErMin= 3 ErrMin= 3.95D-03
 ErrMax= 3.95D-03  0.00D+00 EMaxC= 1.00D-01 BMatC= 5.10D-03 BMatP= 6.97D-02
 IDIUse=3 WtCom= 9.61D-01 WtEn= 3.95D-02
 Coeff-Com: -0.122D+00 0.276D+00 0.846D+00
 Coeff-En:   0.000D+00 0.000D+00 0.100D+01
 Coeff:     -0.117D+00 0.265D+00 0.852D+00
 Gap=     0.319 Goal=   None    Shift=    0.000
 RMSDP=2.22D-04 MaxDP=2.59D-02 DE=-1.26D-01 OVMax= 1.56D-02

 Cycle   4  Pass 1  IDiag  1:
 RMSU=  1.15D-04    CP:  9.52D-01  1.79D+00  8.05D-01
 CoulSu:  requested number of processors reduced to:  17 ShMem   1 Linda.
 CalDSu:  requested number of processors reduced to:  42 ShMem   1 Linda.
 E= -1866.75303918994     Delta-E=       -0.004599667689 Rises=F Damp=F
 DIIS: error= 8.53D-04 at cycle   4 NSaved=   4.
 NSaved= 4 IEnMin= 4 EnMin= -1866.75303918994     IErMin= 4 ErrMin= 8.53D-04
 ErrMax= 8.53D-04  0.00D+00 EMaxC= 1.00D-01 BMatC= 1.68D-04 BMatP= 5.10D-03
 IDIUse=3 WtCom= 9.91D-01 WtEn= 8.53D-03
 Coeff-Com: -0.167D-01 0.367D-01 0.214D+00 0.766D+00
 Coeff-En:   0.000D+00 0.000D+00 0.000D+00 0.100D+01
 Coeff:     -0.166D-01 0.364D-01 0.212D+00 0.768D+00
 Gap=     0.317 Goal=   None    Shift=    0.000
 RMSDP=4.02D-05 MaxDP=4.15D-03 DE=-4.60D-03 OVMax= 2.48D-03

 Cycle   5  Pass 1  IDiag  1:
 RMSU=  2.96D-05    CP:  9.52D-01  1.79D+00  7.83D-01  1.15D+00
 CoulSu:  requested number of processors reduced to:  17 ShMem   1 Linda.
 CalDSu:  requested number of processors reduced to:  42 ShMem   1 Linda.
 E= -1866.75317540841     Delta-E=       -0.000136218473 Rises=F Damp=F
 DIIS: error= 1.70D-04 at cycle   5 NSaved=   5.
 NSaved= 5 IEnMin= 5 EnMin= -1866.75317540841     IErMin= 5 ErrMin= 1.70D-04
 ErrMax= 1.70D-04  0.00D+00 EMaxC= 1.00D-01 BMatC= 1.04D-05 BMatP= 1.68D-04
 IDIUse=3 WtCom= 9.98D-01 WtEn= 1.70D-03
 Coeff-Com: -0.289D-03 0.866D-03 0.401D-01 0.245D+00 0.714D+00
 Coeff-En:   0.000D+00 0.000D+00 0.000D+00 0.000D+00 0.100D+01
 Coeff:     -0.289D-03 0.864D-03 0.400D-01 0.245D+00 0.715D+00
 Gap=     0.317 Goal=   None    Shift=    0.000
 DSYEVD-2 returned Info=        1713 IAlg= 4 N=   856 NDim=   856 NE2=      118640 trying  DSYEV.
 RMSDP=1.05D-05 MaxDP=1.47D-03 DE=-1.36D-04 OVMax= 6.58D-04

 Cycle   6  Pass 1  IDiag  1:
 RMSU=  6.66D-06    CP:  9.51D-01  1.79D+00  7.76D-01  1.20D+00  1.02D+00
 CoulSu:  requested number of processors reduced to:  17 ShMem   1 Linda.
 CalDSu:  requested number of processors reduced to:  42 ShMem   1 Linda.
 E= -1866.75318405371     Delta-E=       -0.000008645297 Rises=F Damp=F
 DIIS: error= 7.21D-05 at cycle   6 NSaved=   6.
 NSaved= 6 IEnMin= 6 EnMin= -1866.75318405371     IErMin= 6 ErrMin= 7.21D-05
 ErrMax= 7.21D-05  0.00D+00 EMaxC= 1.00D-01 BMatC= 1.35D-06 BMatP= 1.04D-05
 IDIUse=1 WtCom= 1.00D+00 WtEn= 0.00D+00
 Coeff-Com:  0.138D-02-0.297D-02-0.471D-02 0.111D-01 0.256D+00 0.739D+00
 Coeff:      0.138D-02-0.297D-02-0.471D-02 0.111D-01 0.256D+00 0.739D+00
 Gap=     0.317 Goal=   None    Shift=    0.000
 RMSDP=2.86D-06 MaxDP=2.66D-04 DE=-8.65D-06 OVMax= 3.18D-04

 Cycle   7  Pass 1  IDiag  1:
 RMSU=  2.43D-06    CP:  9.51D-01  1.79D+00  7.76D-01  1.21D+00  1.06D+00
                    CP:  1.03D+00
 CoulSu:  requested number of processors reduced to:  17 ShMem   1 Linda.
 CalDSu:  requested number of processors reduced to:  42 ShMem   1 Linda.
 E= -1866.75318515768     Delta-E=       -0.000001103972 Rises=F Damp=F
 DIIS: error= 2.99D-05 at cycle   7 NSaved=   7.
 NSaved= 7 IEnMin= 7 EnMin= -1866.75318515768     IErMin= 7 ErrMin= 2.99D-05
 ErrMax= 2.99D-05  0.00D+00 EMaxC= 1.00D-01 BMatC= 2.45D-07 BMatP= 1.35D-06
 IDIUse=1 WtCom= 1.00D+00 WtEn= 0.00D+00
 Coeff-Com:  0.473D-03-0.107D-02-0.523D-02-0.202D-01 0.389D-01 0.352D+00
 Coeff-Com:  0.635D+00
 Coeff:      0.473D-03-0.107D-02-0.523D-02-0.202D-01 0.389D-01 0.352D+00
 Coeff:      0.635D+00
 Gap=     0.317 Goal=   None    Shift=    0.000
 RMSDP=9.60D-07 MaxDP=1.17D-04 DE=-1.10D-06 OVMax= 1.16D-04

 Cycle   8  Pass 1  IDiag  1:
 RMSU=  8.08D-07    CP:  9.51D-01  1.79D+00  7.76D-01  1.21D+00  1.06D+00
                    CP:  1.08D+00  1.06D+00
 CoulSu:  requested number of processors reduced to:  17 ShMem   1 Linda.
 CalDSu:  requested number of processors reduced to:  42 ShMem   1 Linda.
 E= -1866.75318540558     Delta-E=       -0.000000247892 Rises=F Damp=F
 DIIS: error= 4.25D-06 at cycle   8 NSaved=   8.
 NSaved= 8 IEnMin= 8 EnMin= -1866.75318540558     IErMin= 8 ErrMin= 4.25D-06
 ErrMax= 4.25D-06  0.00D+00 EMaxC= 1.00D-01 BMatC= 7.03D-09 BMatP= 2.45D-07
 IDIUse=1 WtCom= 1.00D+00 WtEn= 0.00D+00
 Coeff-Com: -0.388D-05-0.179D-04-0.736D-03-0.406D-02-0.878D-02 0.166D-01
 Coeff-Com:  0.137D+00 0.860D+00
 Coeff:     -0.388D-05-0.179D-04-0.736D-03-0.406D-02-0.878D-02 0.166D-01
 Coeff:      0.137D+00 0.860D+00
 Gap=     0.317 Goal=   None    Shift=    0.000
 RMSDP=3.69D-07 MaxDP=3.50D-05 DE=-2.48D-07 OVMax= 3.38D-05

 Cycle   9  Pass 1  IDiag  1:
 RMSU=  1.94D-07    CP:  9.51D-01  1.79D+00  7.76D-01  1.21D+00  1.06D+00
                    CP:  1.10D+00  1.13D+00  1.19D+00
 CoulSu:  requested number of processors reduced to:  17 ShMem   1 Linda.
 CalDSu:  requested number of processors reduced to:  42 ShMem   1 Linda.
 E= -1866.75318541245     Delta-E=       -0.000000006870 Rises=F Damp=F
 DIIS: error= 1.59D-06 at cycle   9 NSaved=   9.
 NSaved= 9 IEnMin= 9 EnMin= -1866.75318541245     IErMin= 9 ErrMin= 1.59D-06
 ErrMax= 1.59D-06  0.00D+00 EMaxC= 1.00D-01 BMatC= 1.13D-09 BMatP= 7.03D-09
 IDIUse=1 WtCom= 1.00D+00 WtEn= 0.00D+00
 Coeff-Com: -0.393D-04 0.806D-04 0.131D-03 0.243D-03-0.748D-02-0.302D-01
 Coeff-Com: -0.814D-02 0.326D+00 0.719D+00
 Coeff:     -0.393D-04 0.806D-04 0.131D-03 0.243D-03-0.748D-02-0.302D-01
 Coeff:     -0.814D-02 0.326D+00 0.719D+00
 Gap=     0.317 Goal=   None    Shift=    0.000
 RMSDP=8.61D-08 MaxDP=7.64D-06 DE=-6.87D-09 OVMax= 8.34D-06

 Cycle  10  Pass 1  IDiag  1:
 RMSU=  5.75D-08    CP:  9.51D-01  1.79D+00  7.76D-01  1.21D+00  1.06D+00
                    CP:  1.10D+00  1.15D+00  1.21D+00  9.03D-01
 CoulSu:  requested number of processors reduced to:  17 ShMem   1 Linda.
 CalDSu:  requested number of processors reduced to:  42 ShMem   1 Linda.
 E= -1866.75318541342     Delta-E=       -0.000000000970 Rises=F Damp=F
 DIIS: error= 5.19D-07 at cycle  10 NSaved=  10.
 NSaved=10 IEnMin=10 EnMin= -1866.75318541342     IErMin=10 ErrMin= 5.19D-07
 ErrMax= 5.19D-07  0.00D+00 EMaxC= 1.00D-01 BMatC= 4.67D-11 BMatP= 1.13D-09
 IDIUse=1 WtCom= 1.00D+00 WtEn= 0.00D+00
 Coeff-Com: -0.157D-04 0.337D-04 0.778D-04 0.233D-03-0.267D-02-0.127D-01
 Coeff-Com: -0.801D-02 0.982D-01 0.263D+00 0.662D+00
 Coeff:     -0.157D-04 0.337D-04 0.778D-04 0.233D-03-0.267D-02-0.127D-01
 Coeff:     -0.801D-02 0.982D-01 0.263D+00 0.662D+00
 Gap=     0.317 Goal=   None    Shift=    0.000
 DSYEVD-2 returned Info=        1713 IAlg= 4 N=   856 NDim=   856 NE2=      118640 trying  DSYEV.
 RMSDP=2.21D-08 MaxDP=2.79D-06 DE=-9.70D-10 OVMax= 1.98D-06

 Cycle  11  Pass 1  IDiag  1:
 RMSU=  1.27D-08    CP:  9.51D-01  1.79D+00  7.76D-01  1.21D+00  1.06D+00
                    CP:  1.10D+00  1.15D+00  1.22D+00  9.46D-01  9.99D-01
 CoulSu:  requested number of processors reduced to:  17 ShMem   1 Linda.
 CalDSu:  requested number of processors reduced to:  42 ShMem   1 Linda.
 E= -1866.75318541366     Delta-E=       -0.000000000239 Rises=F Damp=F
 DIIS: error= 5.63D-08 at cycle  11 NSaved=  11.
 NSaved=11 IEnMin=11 EnMin= -1866.75318541366     IErMin=11 ErrMin= 5.63D-08
 ErrMax= 5.63D-08  0.00D+00 EMaxC= 1.00D-01 BMatC= 1.44D-12 BMatP= 4.67D-11
 IDIUse=1 WtCom= 1.00D+00 WtEn= 0.00D+00
 Coeff-Com:  0.359D-05-0.685D-05-0.170D-04-0.460D-04 0.610D-03 0.274D-02
 Coeff-Com:  0.466D-03-0.282D-01-0.732D-01-0.166D-01 0.111D+01
 Coeff:      0.359D-05-0.685D-05-0.170D-04-0.460D-04 0.610D-03 0.274D-02
 Coeff:      0.466D-03-0.282D-01-0.732D-01-0.166D-01 0.111D+01
 Gap=     0.317 Goal=   None    Shift=    0.000
 RMSDP=1.04D-08 MaxDP=7.45D-07 DE=-2.39D-10 OVMax= 1.06D-06

 Cycle  12  Pass 1  IDiag  1:
 RMSU=  4.18D-09    CP:  9.51D-01  1.79D+00  7.76D-01  1.21D+00  1.06D+00
                    CP:  1.10D+00  1.15D+00  1.22D+00  9.55D-01  1.08D+00
                    CP:  1.42D+00
 CoulSu:  requested number of processors reduced to:  17 ShMem   1 Linda.
 CalDSu:  requested number of processors reduced to:  42 ShMem   1 Linda.
 E= -1866.75318541380     Delta-E=       -0.000000000142 Rises=F Damp=F
 DIIS: error= 1.48D-08 at cycle  12 NSaved=  12.
 NSaved=12 IEnMin=12 EnMin= -1866.75318541380     IErMin=12 ErrMin= 1.48D-08
 ErrMax= 1.48D-08  0.00D+00 EMaxC= 1.00D-01 BMatC= 7.59D-14 BMatP= 1.44D-12
 IDIUse=1 WtCom= 1.00D+00 WtEn= 0.00D+00
 Coeff-Com:  0.413D-06-0.896D-06-0.650D-06 0.251D-06 0.123D-03 0.577D-03
 Coeff-Com:  0.110D-03-0.482D-02-0.129D-01-0.345D-01 0.109D+00 0.943D+00
 Coeff:      0.413D-06-0.896D-06-0.650D-06 0.251D-06 0.123D-03 0.577D-03
 Coeff:      0.110D-03-0.482D-02-0.129D-01-0.345D-01 0.109D+00 0.943D+00
 Gap=     0.317 Goal=   None    Shift=    0.000
 RMSDP=1.84D-09 MaxDP=1.41D-07 DE=-1.42D-10 OVMax= 1.86D-07

 SCF Done:  E(RM062X) =  -1866.75318541     A.U. after   12 cycles
            NFock= 12  Conv=0.18D-08     -V/T= 2.0018
 KE= 1.863312380149D+03 PE=-5.937312811374D+03 EE= 1.454023925766D+03
 Leave Link  502 at Sat Apr 17 06:42:45 2021, MaxMem=   104857600 cpu:           39400.8 elap:             985.6
 (Enter /s/ls4/users/knvvv/bin/g16sse/l601.exe)
 Copying SCF densities to generalized density rwf, IOpCl= 0 IROHF=0.

 **********************************************************************

            Population analysis using the SCF density.

 **********************************************************************

 Orbital symmetries:
       Occupied  (E) (E) (A1) (A1) (E) (E) (A1) (E) (E) (A1) (E)
                 (E) (A1) (E) (E) (A1) (A2) (E) (E) (A1) (A1) (E)
                 (E) (A1) (A1) (A1) (E) (E) (E) (E) (A1) (A1) (E)
                 (E) (A1) (E) (E) (A2) (E) (E) (A1) (E) (E) (E)
                 (E) (E) (E) (A2) (A1)
       Virtual   (A1) (E) (E) (A1) (E) (E) (A1) (E) (E) (E) (E)
                 (A1) (A1) (A2) (A1) (E) (E) (E) (E) (A1) (E) (E)
                 (A1) (E) (E) (E) (E) (A1) (A2) (E) (E) (A1) (E)
                 (E) (A1) (A1) (E) (E) (A2) (A1) (E) (E) (A1) (E)
                 (E) (A1) (E) (E) (E) (E) (A1) (E) (E) (E) (E)
                 (A1) (E) (E) (A2) (E) (E) (A1) (E) (E) (A1) (E)
                 (E) (A2) (E) (E) (A2) (A1) (E) (E) (A1) (E) (E)
                 (E) (E) (A1) (A2) (E) (E) (E) (E) (A1) (E) (E)
                 (E) (E) (A2) (A1) (E) (E) (A1) (A1) (E) (E) (A2)
                 (E) (E) (E) (E) (A1) (E) (E) (E) (E) (A1) (E)
                 (E) (A2) (A2) (A1) (E) (E) (E) (E) (A1) (E) (E)
                 (A1) (A2) (A1) (E) (E) (E) (E) (E) (E) (A1) (A1)
                 (E) (E) (E) (E) (A2) (E) (E) (A1) (E) (E) (A2)
                 (E) (E) (A1) (A1) (E) (E) (A2) (E) (E) (A1) (E)
                 (E) (A1) (E) (E) (A1) (E) (E) (A2) (E) (E) (A1)
                 (A1) (E) (E) (A2) (E) (E) (E) (E) (E) (E) (A1)
                 (E) (E) (A2) (A1) (E) (E) (E) (E) (A1) (E) (E)
                 (A1) (E) (E) (E) (E) (A1) (A2) (E) (E) (A1) (E)
                 (E) (E) (E) (E) (E) (A1) (A2) (E) (E) (A1) (E)
                 (E) (A1) (A1) (A2) (E) (E) (E) (E) (E) (E) (A1)
                 (E) (E) (E) (E) (A2) (A1) (E) (E) (A1) (A2) (E)
                 (E) (A1) (E) (E) (A2) (E) (E) (A1) (A1) (A2) (E)
                 (E) (E) (E) (E) (E) (A1) (A1) (A2) (E) (E) (E)
                 (E) (E) (E) (A1) (A2) (E) (E) (A1) (E) (E) (A1)
                 (E) (E) (E) (E) (A1) (E) (E) (E) (E) (A1) (A2)
                 (E) (E) (E) (E) (A2) (A1) (E) (E) (A2) (E) (E)
                 (A2) (A1) (A1) (A1) (E) (E) (A1) (E) (E) (A2)
                 (E) (E) (E) (E) (A1) (E) (E) (E) (E) (E) (E) (A2)
                 (A1) (E) (E) (A2) (A1) (E) (E) (A2) (A1) (E) (E)
                 (A1) (E) (E) (E) (E) (E) (E) (A2) (A1) (E) (E)
                 (E) (E) (A1) (A1) (E) (E) (E) (E) (A1) (E) (E)
                 (E) (E) (A2) (A1) (E) (E) (E) (E) (A1) (E) (E)
                 (A2) (A1) (A2) (E) (E) (E) (E) (E) (E) (A1) (A1)
                 (E) (E) (E) (E) (E) (E) (A1) (E) (E) (A2) (E)
                 (E) (A1) (A2) (A1) (E) (E) (A1) (A2) (E) (E) (E)
                 (E) (A1) (E) (E) (A2) (E) (E) (A1) (E) (E) (A2)
                 (E) (E) (A1) (E) (E) (A1) (E) (E) (A1) (E) (E)
                 (A1) (A2) (E) (E) (E) (E) (A1) (A2) (E) (E) (E)
                 (E) (A2) (A1) (E) (E) (E) (E) (A2) (A1) (E) (E)
                 (A1) (A2) (E) (E) (A1) (E) (E) (A2) (E) (E) (A2)
                 (E) (E) (E) (E) (A1) (A1) (E) (E) (E) (E) (E)
                 (E) (A1) (E) (E) (A1) (E) (E) (A2) (A1) (E) (E)
                 (E) (E) (A2) (A1) (E) (E) (E) (E) (A1) (A2) (E)
                 (E) (A1) (A1) (E) (E) (A2) (E) (E) (E) (E) (A1)
                 (E) (E) (A1) (A2) (A2) (E) (E) (E) (E) (E) (E)
                 (E) (E) (A1) (E) (E) (E) (E) (A2) (A1) (E) (E)
                 (A1) (E) (E) (E) (E) (A2) (A1) (A1) (E) (E) (A1)
                 (E) (E) (A2) (E) (E) (E) (E) (A1) (A1) (E) (E)
                 (E) (E) (A2) (A1) (E) (E) (E) (E) (A2) (E) (E)
                 (A1) (E) (E) (A1) (A2) (E) (E) (A1) (E) (E) (E)
                 (E) (A1) (E) (E) (A2) (A2) (E) (E) (A2) (E) (E)
                 (E) (E) (A1) (E) (E) (A2) (A1) (E) (E) (E) (E)
                 (A2) (A1) (A1) (E) (E) (A1) (E) (E) (E) (E) (E)
                 (E) (A2) (A1) (E) (E) (A1) (E) (E) (E) (E) (A1)
                 (A2) (E) (E) (A2) (A1) (E) (E) (A1) (E) (E) (A1)
                 (E) (E) (A2) (E) (E) (E) (E) (A1) (A1) (E) (E)
                 (A2) (E) (E) (A1) (A2) (E) (E) (E) (E) (A1) (E)
                 (E) (E) (E) (A1) (E) (E) (A2) (A1) (E) (E) (E)
                 (E) (A1) (E) (E) (A2) (A1) (A1) (E) (E) (E) (E)
                 (A2) (E) (E) (A2) (E) (E) (A1) (A2) (E) (E) (E)
                 (E) (A1) (E) (E) (E) (E) (A2) (E) (E) (A1) (E)
                 (E) (A1) (E) (E) (A1) (A2) (E) (E) (A1) (A2) (E)
                 (E) (E) (E) (E) (E) (A2) (A1) (E) (E) (A1) (E)
                 (E) (A2) (E) (E) (A1) (E) (E) (A1) (E) (E) (E)
                 (E) (A1) (A2) (E) (E) (E) (E) (A1) (A2) (E) (E)
                 (E) (E) (A1) (A2) (E) (E) (E) (E) (A1) (A1) (E)
                 (E) (E) (E) (A2) (A1) (E) (E) (E) (E) (A1) (A2)
                 (E) (E) (A1) (E) (E) (E) (E) (A1) (E) (E) (A2)
                 (E) (E) (A2) (E) (E) (A2) (A1) (E) (E) (E) (E)
                 (A1) (E) (E) (A2) (E) (E) (A1) (A2) (E) (E) (E)
                 (E) (A1) (E) (E) (A1) (A1) (E) (E) (A1) (A1) (E)
                 (E) (E) (E) (A1) (A1) (A2) (E) (E) (A1) (E) (E)
                 (A1) (E) (E) (A1) (E) (E) (A1) (A1) (E) (E) (A1)
                 (A1) (E) (E) (A1)
 The electronic state is 1-A1.
 Alpha  occ. eigenvalues -- -102.61769-102.61769-102.61769 -78.10023 -10.57838
 Alpha  occ. eigenvalues --  -10.57838 -10.57837  -9.77397  -9.77397  -9.77397
 Alpha  occ. eigenvalues --   -7.49743  -7.49743  -7.49743  -7.49434  -7.49434
 Alpha  occ. eigenvalues --   -7.49434  -7.49417  -7.49417  -7.49417  -7.14521
 Alpha  occ. eigenvalues --   -6.91454  -5.03204  -5.03204  -5.03054  -0.93576
 Alpha  occ. eigenvalues --   -0.90222  -0.88143  -0.88143  -0.82877  -0.82877
 Alpha  occ. eigenvalues --   -0.67648  -0.57209  -0.53926  -0.53926  -0.53535
 Alpha  occ. eigenvalues --   -0.51526  -0.51526  -0.49439  -0.45965  -0.45965
 Alpha  occ. eigenvalues --   -0.44380  -0.43368  -0.43368  -0.37542  -0.37542
 Alpha  occ. eigenvalues --   -0.35322  -0.35322  -0.33827  -0.32995
 Alpha virt. eigenvalues --   -0.01263   0.00911   0.00911   0.01558   0.03012
 Alpha virt. eigenvalues --    0.03012   0.03355   0.04119   0.04119   0.04888
 Alpha virt. eigenvalues --    0.04888   0.05655   0.07048   0.07232   0.07406
 Alpha virt. eigenvalues --    0.07569   0.07569   0.08643   0.08643   0.08755
 Alpha virt. eigenvalues --    0.10233   0.10233   0.10546   0.11686   0.11686
 Alpha virt. eigenvalues --    0.12822   0.12822   0.13175   0.13857   0.14022
 Alpha virt. eigenvalues --    0.14022   0.15409   0.15909   0.15909   0.16228
 Alpha virt. eigenvalues --    0.16679   0.17143   0.17143   0.18917   0.19917
 Alpha virt. eigenvalues --    0.20326   0.20326   0.21486   0.21494   0.21494
 Alpha virt. eigenvalues --    0.21830   0.21845   0.21845   0.23646   0.23646
 Alpha virt. eigenvalues --    0.23922   0.24373   0.24373   0.25420   0.25420
 Alpha virt. eigenvalues --    0.25502   0.25700   0.25700   0.27017   0.27610
 Alpha virt. eigenvalues --    0.27610   0.27640   0.28734   0.28734   0.29234
 Alpha virt. eigenvalues --    0.29943   0.29943   0.30837   0.31774   0.31774
 Alpha virt. eigenvalues --    0.31984   0.32028   0.34168   0.34168   0.34394
 Alpha virt. eigenvalues --    0.34845   0.34845   0.35790   0.35790   0.35970
 Alpha virt. eigenvalues --    0.37448   0.37578   0.37578   0.38817   0.38817
 Alpha virt. eigenvalues --    0.39305   0.40295   0.40295   0.41008   0.41008
 Alpha virt. eigenvalues --    0.41659   0.42167   0.42537   0.42537   0.43339
 Alpha virt. eigenvalues --    0.43991   0.44054   0.44054   0.44449   0.45122
 Alpha virt. eigenvalues --    0.45122   0.45315   0.45315   0.47055   0.48192
 Alpha virt. eigenvalues --    0.48192   0.48843   0.48843   0.49647   0.49753
 Alpha virt. eigenvalues --    0.49753   0.50598   0.50771   0.51667   0.51744
 Alpha virt. eigenvalues --    0.51744   0.52974   0.52974   0.53082   0.54034
 Alpha virt. eigenvalues --    0.54034   0.54880   0.55833   0.55981   0.56243
 Alpha virt. eigenvalues --    0.56243   0.58289   0.58289   0.58554   0.58554
 Alpha virt. eigenvalues --    0.60411   0.60849   0.61442   0.61442   0.64257
 Alpha virt. eigenvalues --    0.64257   0.64643   0.65836   0.65836   0.67203
 Alpha virt. eigenvalues --    0.67682   0.67682   0.68082   0.69735   0.69735
 Alpha virt. eigenvalues --    0.70316   0.71286   0.73054   0.73054   0.73104
 Alpha virt. eigenvalues --    0.74717   0.74717   0.76168   0.76792   0.76792
 Alpha virt. eigenvalues --    0.77509   0.78399   0.78399   0.80653   0.84528
 Alpha virt. eigenvalues --    0.84528   0.84815   0.86149   0.86149   0.87253
 Alpha virt. eigenvalues --    0.88804   0.90165   0.90165   0.90686   0.91528
 Alpha virt. eigenvalues --    0.91528   0.92661   0.92661   0.94604   0.94604
 Alpha virt. eigenvalues --    0.94833   0.95987   0.95987   0.97033   0.97550
 Alpha virt. eigenvalues --    0.97556   0.97556   1.00375   1.00375   1.03250
 Alpha virt. eigenvalues --    1.03392   1.03392   1.03486   1.06162   1.06162
 Alpha virt. eigenvalues --    1.09192   1.09192   1.09818   1.10929   1.13859
 Alpha virt. eigenvalues --    1.13859   1.14773   1.15626   1.15626   1.17849
 Alpha virt. eigenvalues --    1.17849   1.20694   1.20694   1.20710   1.22509
 Alpha virt. eigenvalues --    1.24957   1.24957   1.25389   1.26560   1.26560
 Alpha virt. eigenvalues --    1.27729   1.31215   1.31548   1.31554   1.31554
 Alpha virt. eigenvalues --    1.32339   1.32339   1.34368   1.34368   1.35481
 Alpha virt. eigenvalues --    1.36063   1.36063   1.37178   1.37178   1.37357
 Alpha virt. eigenvalues --    1.38678   1.41856   1.41856   1.43495   1.43664
 Alpha virt. eigenvalues --    1.43874   1.43874   1.45989   1.46451   1.46451
 Alpha virt. eigenvalues --    1.46866   1.46894   1.46894   1.46995   1.49013
 Alpha virt. eigenvalues --    1.49090   1.49138   1.49138   1.50981   1.50981
 Alpha virt. eigenvalues --    1.51832   1.51832   1.52460   1.52903   1.52928
 Alpha virt. eigenvalues --    1.53391   1.53391   1.54368   1.54368   1.55776
 Alpha virt. eigenvalues --    1.55776   1.58112   1.58394   1.59625   1.59625
 Alpha virt. eigenvalues --    1.63672   1.65100   1.65100   1.66789   1.67195
 Alpha virt. eigenvalues --    1.67195   1.69737   1.69737   1.71816   1.75272
 Alpha virt. eigenvalues --    1.75272   1.78724   1.78724   1.79372   1.79617
 Alpha virt. eigenvalues --    1.81224   1.81224   1.84128   1.84128   1.85295
 Alpha virt. eigenvalues --    1.88650   1.89555   1.89555   1.92470   1.95145
 Alpha virt. eigenvalues --    1.95145   1.95411   1.95579   1.98741   1.99655
 Alpha virt. eigenvalues --    2.01763   2.01763   2.04381   2.06336   2.06336
 Alpha virt. eigenvalues --    2.06525   2.08358   2.08358   2.09338   2.09338
 Alpha virt. eigenvalues --    2.12779   2.13683   2.13683   2.17390   2.17390
 Alpha virt. eigenvalues --    2.17832   2.17832   2.18826   2.19157   2.20828
 Alpha virt. eigenvalues --    2.20828   2.22122   2.22357   2.23327   2.23327
 Alpha virt. eigenvalues --    2.27100   2.27345   2.28902   2.28902   2.28994
 Alpha virt. eigenvalues --    2.33861   2.33861   2.37191   2.37191   2.38230
 Alpha virt. eigenvalues --    2.38230   2.38360   2.38375   2.40979   2.40979
 Alpha virt. eigenvalues --    2.43381   2.43381   2.43555   2.44695   2.46487
 Alpha virt. eigenvalues --    2.46487   2.48094   2.48094   2.51340   2.52379
 Alpha virt. eigenvalues --    2.52379   2.53348   2.53348   2.53763   2.54230
 Alpha virt. eigenvalues --    2.62159   2.62159   2.65214   2.65214   2.67496
 Alpha virt. eigenvalues --    2.69307   2.69307   2.69486   2.70147   2.77344
 Alpha virt. eigenvalues --    2.79564   2.79564   2.80406   2.80406   2.81225
 Alpha virt. eigenvalues --    2.81225   2.82921   2.86530   2.87470   2.87470
 Alpha virt. eigenvalues --    2.88226   2.88226   2.90489   2.90489   2.90581
 Alpha virt. eigenvalues --    2.94374   2.94374   2.94678   2.97057   2.97057
 Alpha virt. eigenvalues --    2.97149   2.98888   3.01094   3.02203   3.02203
 Alpha virt. eigenvalues --    3.03265   3.03382   3.03489   3.03489   3.09087
 Alpha virt. eigenvalues --    3.09087   3.10254   3.13058   3.13058   3.13204
 Alpha virt. eigenvalues --    3.15011   3.15011   3.16421   3.19209   3.19209
 Alpha virt. eigenvalues --    3.22835   3.26856   3.26856   3.29691   3.29896
 Alpha virt. eigenvalues --    3.29896   3.30353   3.33390   3.33390   3.36838
 Alpha virt. eigenvalues --    3.38085   3.38085   3.38505   3.40130   3.41934
 Alpha virt. eigenvalues --    3.41934   3.46085   3.46085   3.46369   3.46676
 Alpha virt. eigenvalues --    3.48715   3.48715   3.49919   3.49919   3.50466
 Alpha virt. eigenvalues --    3.50703   3.50911   3.50911   3.53722   3.53722
 Alpha virt. eigenvalues --    3.54608   3.55407   3.55663   3.55663   3.56253
 Alpha virt. eigenvalues --    3.56480   3.57896   3.57896   3.59175   3.59649
 Alpha virt. eigenvalues --    3.59649   3.59818   3.61820   3.61820   3.62102
 Alpha virt. eigenvalues --    3.62213   3.62213   3.63981   3.63981   3.63983
 Alpha virt. eigenvalues --    3.65535   3.66418   3.66418   3.67105   3.67105
 Alpha virt. eigenvalues --    3.70126   3.70126   3.73280   3.73897   3.73897
 Alpha virt. eigenvalues --    3.76581   3.79300   3.79300   3.81211   3.81846
 Alpha virt. eigenvalues --    3.82112   3.82112   3.85410   3.85410   3.86497
 Alpha virt. eigenvalues --    3.87737   3.88020   3.88020   3.91938   3.91938
 Alpha virt. eigenvalues --    3.92391   3.93109   3.95749   3.95749   3.96609
 Alpha virt. eigenvalues --    3.99774   4.00206   4.00206   4.02284   4.03933
 Alpha virt. eigenvalues --    4.03933   4.08623   4.08623   4.12028   4.12931
 Alpha virt. eigenvalues --    4.12931   4.16633   4.18679   4.21270   4.21366
 Alpha virt. eigenvalues --    4.21366   4.24175   4.24175   4.25869   4.25869
 Alpha virt. eigenvalues --    4.26675   4.26675   4.30770   4.30955   4.30955
 Alpha virt. eigenvalues --    4.36153   4.36153   4.36956   4.38473   4.39747
 Alpha virt. eigenvalues --    4.39747   4.41670   4.41948   4.41948   4.45751
 Alpha virt. eigenvalues --    4.45751   4.46849   4.47207   4.55398   4.59066
 Alpha virt. eigenvalues --    4.59066   4.60351   4.65402   4.65402   4.66180
 Alpha virt. eigenvalues --    4.72917   4.72917   4.79652   4.79652   4.80044
 Alpha virt. eigenvalues --    4.95589   4.96273   4.96273   5.13613   5.13613
 Alpha virt. eigenvalues --    5.14872   5.15150   5.19610   5.19610   5.23347
 Alpha virt. eigenvalues --    5.23347   5.25481   5.26294   5.26294   5.28402
 Alpha virt. eigenvalues --    5.30956   5.30956   5.31830   5.36962   5.42562
 Alpha virt. eigenvalues --    5.42562   5.57354   5.60339   5.60339   5.65951
 Alpha virt. eigenvalues --    5.65951   5.65984   5.67642   5.67642   5.68532
 Alpha virt. eigenvalues --    5.71307   5.71451   5.71451   5.75102   5.76511
 Alpha virt. eigenvalues --    5.76511   5.76746   5.76746   5.79087   5.81659
 Alpha virt. eigenvalues --    5.81659   5.82786   5.85874   5.87203   5.87203
 Alpha virt. eigenvalues --    5.91194   5.91194   5.91432   5.91587   5.93224
 Alpha virt. eigenvalues --    5.96881   5.96881   5.97117   5.97518   5.97518
 Alpha virt. eigenvalues --    5.98051   5.98051   6.02836   6.02836   6.02882
 Alpha virt. eigenvalues --    6.09139   6.14677   6.14677   6.23239   6.24591
 Alpha virt. eigenvalues --    6.24591   6.26921   6.26921   6.26930   6.27571
 Alpha virt. eigenvalues --    6.27885   6.27885   6.28745   6.32156   6.36105
 Alpha virt. eigenvalues --    6.36105   6.38276   6.39082   6.39082   6.45290
 Alpha virt. eigenvalues --    6.50684   6.50684   6.51369   6.53612   6.53612
 Alpha virt. eigenvalues --    6.59845   6.59845   6.60064   6.66787   6.70529
 Alpha virt. eigenvalues --    6.70529   6.71789   6.73044   6.73044   6.84631
 Alpha virt. eigenvalues --    6.87285   6.89496   6.89496   6.97271   6.97271
 Alpha virt. eigenvalues --    7.05483   7.09207   7.09207   7.14000   7.14000
 Alpha virt. eigenvalues --    7.14034   7.18985   7.18985   7.19031   7.19596
 Alpha virt. eigenvalues --    7.22297   7.22297   7.28701   7.28701   7.30158
 Alpha virt. eigenvalues --    7.32532   7.32532   7.34301   7.39417   7.46763
 Alpha virt. eigenvalues --    7.46781   7.46781   7.48058   7.48058   7.48899
 Alpha virt. eigenvalues --    7.56863   7.56863   7.58731   7.59026   7.59026
 Alpha virt. eigenvalues --    7.59680   7.64898   7.65346   7.65346   7.66772
 Alpha virt. eigenvalues --    7.66772   7.67579   7.69928   7.69928   7.71174
 Alpha virt. eigenvalues --    7.71174   7.76398   7.77401   7.77401   7.82656
 Alpha virt. eigenvalues --    7.88887   7.88887   7.93216   8.09347   8.09347
 Alpha virt. eigenvalues --    8.13224   8.13404   8.14544   8.14544   8.15708
 Alpha virt. eigenvalues --    8.16684   8.16824   8.16824   8.17879   8.17879
 Alpha virt. eigenvalues --    8.20134   8.20134   8.21796   8.22162   8.25289
 Alpha virt. eigenvalues --    8.25289   8.28306   8.29067   8.29067   8.29523
 Alpha virt. eigenvalues --    8.31256   8.31256   8.34634   8.36043   8.36043
 Alpha virt. eigenvalues --    8.37997   8.47816   8.47816   8.56680   8.56680
 Alpha virt. eigenvalues --    8.61823   8.65535   8.65552   8.65552   8.70517
 Alpha virt. eigenvalues --    8.70517   8.70728   8.70918   8.73933   8.73933
 Alpha virt. eigenvalues --    8.80916   8.80916   8.83047   8.83627   8.86161
 Alpha virt. eigenvalues --    8.86161   8.96274   8.96274   9.07377   9.52027
 Alpha virt. eigenvalues --    9.55214   9.55214   9.55474   9.55474   9.56094
 Alpha virt. eigenvalues --    9.57682   9.60366   9.60366   9.62971   9.62971
 Alpha virt. eigenvalues --    9.64936   9.69857   9.74251   9.74251   9.84078
 Alpha virt. eigenvalues --    9.89467   9.89467  10.00624  10.00624  10.01744
 Alpha virt. eigenvalues --   10.02612  10.02612  10.03177  10.24424  10.24424
 Alpha virt. eigenvalues --   10.27697  10.88166  10.88166  10.89530  10.90559
 Alpha virt. eigenvalues --   10.92135  10.92135  10.97317  10.97317  11.00610
 Alpha virt. eigenvalues --   11.02118  11.02118  11.04621  11.29875  11.29875
 Alpha virt. eigenvalues --   11.39709  11.88946  11.89860  11.89860  11.97444
 Alpha virt. eigenvalues --   11.97444  12.06188  12.99487  12.99487  13.01822
 Alpha virt. eigenvalues --   18.86270  18.88454  18.88454  19.69997  21.09464
 Alpha virt. eigenvalues --   29.01031  29.01031  29.05868  29.05868  29.07191
 Alpha virt. eigenvalues --   29.14548  42.09999  42.10965  42.10965  42.11844
 Alpha virt. eigenvalues --   42.12946  42.12946  42.21027  42.22192  42.22192
 Alpha virt. eigenvalues --   71.45945  98.76965  98.76965  98.88322 101.13241
 Alpha virt. eigenvalues --  146.57098 146.57098 146.57336 381.97579 524.86191
 Alpha virt. eigenvalues --  524.86191 525.05656
          Condensed to atoms (all electrons):
               1          2          3          4          5          6
     1  B    4.102654   0.071224  -0.029304  -0.029304  -0.029304   0.085166
     2  P    0.071224  14.474222   0.197057   0.197057   0.197057   0.040461
     3  C   -0.029304   0.197057   6.149299  -0.173266  -0.173266   0.014904
     4  C   -0.029304   0.197057  -0.173266   6.149299  -0.173266  -0.015350
     5  C   -0.029304   0.197057  -0.173266  -0.173266   6.149299  -0.015350
     6  Cl   0.085166   0.040461   0.014904  -0.015350  -0.015350  17.427103
     7  Cl   0.085166   0.040461  -0.015350  -0.015350   0.014904  -0.059034
     8  Cl   0.085166   0.040461  -0.015350   0.014904  -0.015350  -0.059034
     9  H    0.006009  -0.118864  -0.022621  -0.015146   0.357163  -0.001266
    10  H    0.006009  -0.118864  -0.015146  -0.022621   0.357163  -0.023311
    11  H   -0.012405  -0.069771  -0.010515  -0.010515   0.338431  -0.000198
    12  H    0.006009  -0.118864  -0.015146   0.357163  -0.022621  -0.023311
    13  H    0.006009  -0.118864  -0.022621   0.357163  -0.015146  -0.001266
    14  H   -0.012405  -0.069771  -0.010515   0.338431  -0.010515  -0.000198
    15  H   -0.012405  -0.069771   0.338431  -0.010515  -0.010515   0.000431
    16  H    0.006009  -0.118864   0.357163  -0.022621  -0.015146   0.001647
    17  H    0.006009  -0.118864   0.357163  -0.015146  -0.022621   0.001647
               7          8          9         10         11         12
     1  B    0.085166   0.085166   0.006009   0.006009  -0.012405   0.006009
     2  P    0.040461   0.040461  -0.118864  -0.118864  -0.069771  -0.118864
     3  C   -0.015350  -0.015350  -0.022621  -0.015146  -0.010515  -0.015146
     4  C   -0.015350   0.014904  -0.015146  -0.022621  -0.010515   0.357163
     5  C    0.014904  -0.015350   0.357163   0.357163   0.338431  -0.022621
     6  Cl  -0.059034  -0.059034  -0.001266  -0.023311  -0.000198  -0.023311
     7  Cl  17.427103  -0.059034   0.001647   0.001647   0.000431  -0.001266
     8  Cl  -0.059034  17.427103  -0.023311  -0.001266  -0.000198   0.001647
     9  H    0.001647  -0.023311   0.466625   0.068315   0.032321  -0.004246
    10  H    0.001647  -0.001266   0.068315   0.466625   0.032321  -0.005667
    11  H    0.000431  -0.000198   0.032321   0.032321   0.416214  -0.002571
    12  H   -0.001266   0.001647  -0.004246  -0.005667  -0.002571   0.466625
    13  H   -0.023311   0.001647  -0.004143  -0.004246  -0.002091   0.068315
    14  H   -0.000198   0.000431  -0.002091  -0.002571  -0.002584   0.032321
    15  H   -0.000198  -0.000198  -0.002571  -0.002091  -0.002584  -0.002091
    16  H   -0.023311  -0.001266  -0.004246  -0.004143  -0.002091  -0.004246
    17  H   -0.001266  -0.023311  -0.005667  -0.004246  -0.002571  -0.004143
              13         14         15         16         17
     1  B    0.006009  -0.012405  -0.012405   0.006009   0.006009
     2  P   -0.118864  -0.069771  -0.069771  -0.118864  -0.118864
     3  C   -0.022621  -0.010515   0.338431   0.357163   0.357163
     4  C    0.357163   0.338431  -0.010515  -0.022621  -0.015146
     5  C   -0.015146  -0.010515  -0.010515  -0.015146  -0.022621
     6  Cl  -0.001266  -0.000198   0.000431   0.001647   0.001647
     7  Cl  -0.023311  -0.000198  -0.000198  -0.023311  -0.001266
     8  Cl   0.001647   0.000431  -0.000198  -0.001266  -0.023311
     9  H   -0.004143  -0.002091  -0.002571  -0.004246  -0.005667
    10  H   -0.004246  -0.002571  -0.002091  -0.004143  -0.004246
    11  H   -0.002091  -0.002584  -0.002584  -0.002091  -0.002571
    12  H    0.068315   0.032321  -0.002091  -0.004246  -0.004143
    13  H    0.466625   0.032321  -0.002571  -0.005667  -0.004246
    14  H    0.032321   0.416214  -0.002584  -0.002571  -0.002091
    15  H   -0.002571  -0.002584   0.416214   0.032321   0.032321
    16  H   -0.005667  -0.002571   0.032321   0.466625   0.068315
    17  H   -0.004246  -0.002091   0.032321   0.068315   0.466625
 Mulliken charges:
               1
     1  B    0.659700
     2  P    0.664493
     3  C   -0.910918
     4  C   -0.910918
     5  C   -0.910918
     6  Cl  -0.373042
     7  Cl  -0.373042
     8  Cl  -0.373042
     9  H    0.272092
    10  H    0.272092
    11  H    0.298378
    12  H    0.272092
    13  H    0.272092
    14  H    0.298378
    15  H    0.298378
    16  H    0.272092
    17  H    0.272092
 Sum of Mulliken charges =  -0.00000
 Mulliken charges with hydrogens summed into heavy atoms:
               1
     1  B    0.659700
     2  P    0.664493
     3  C   -0.068356
     4  C   -0.068356
     5  C   -0.068356
     6  Cl  -0.373042
     7  Cl  -0.373042
     8  Cl  -0.373042
 Electronic spatial extent (au):  <R**2>=           1853.6608
 Charge=             -0.0000 electrons
 Dipole moment (field-independent basis, Debye):
    X=              0.0000    Y=              0.0000    Z=              7.4876  Tot=              7.4876
 Quadrupole moment (field-independent basis, Debye-Ang):
   XX=            -78.8519   YY=            -78.8519   ZZ=            -74.0129
   XY=              0.0000   XZ=             -0.0000   YZ=             -0.0000
 Traceless Quadrupole moment (field-independent basis, Debye-Ang):
   XX=             -1.6130   YY=             -1.6130   ZZ=              3.2260
   XY=              0.0000   XZ=             -0.0000   YZ=             -0.0000
 Octapole moment (field-independent basis, Debye-Ang**2):
  XXX=              0.0000  YYY=             -2.5322  ZZZ=             21.3875  XYY=             -0.0000
  XXY=              2.5322  XXZ=              9.9203  XZZ=              0.0000  YZZ=             -0.0000
  YYZ=              9.9203  XYZ=              0.0000
 Hexadecapole moment (field-independent basis, Debye-Ang**3):
 XXXX=           -683.3886 YYYY=           -683.3886 ZZZZ=          -1039.6896 XXXY=              0.0000
 XXXZ=             -0.0000 YYYX=              0.0000 YYYZ=             -2.7942 ZZZX=             -0.0000
 ZZZY=             -0.0000 XXYY=           -227.7962 XXZZ=           -295.4513 YYZZ=           -295.4513
 XXYZ=              2.7942 YYXZ=             -0.0000 ZZXY=              0.0000
 N-N= 7.532233200451D+02 E-N=-5.937312813066D+03  KE= 1.863312380149D+03
 PrsmSu:  requested number of processors reduced to:  19 ShMem   1 Linda.
 No NMR shielding tensors so no spin-rotation constants.
 Leave Link  601 at Sat Apr 17 06:43:07 2021, MaxMem=   104857600 cpu:             996.4 elap:              21.5
 (Enter /s/ls4/users/knvvv/bin/g16sse/l801.exe)
 DoSCS=F DFT=T ScalE2(SS,OS)=  1.000000  1.000000
 Range of M.O.s used for correlation:     1   856
 NBasis=   862 NAE=    49 NBE=    49 NFC=     0 NFV=     0
 NROrb=    856 NOA=    49 NOB=    49 NVA=   807 NVB=   807

 **** Warning!!: The largest alpha MO coefficient is  0.16989708D+03

 Leave Link  801 at Sat Apr 17 06:43:07 2021, MaxMem=   104857600 cpu:               5.1 elap:               0.1
 (Enter /s/ls4/users/knvvv/bin/g16sse/l914.exe)
 RHF ground state
 Doing stability rather than CIS.
 Two-electron integrals replicated using symmetry.
 MDV=   104857600 DFT=T DoStab=T Mixed=T DoRPA=F DoScal=F NonHer=F
 Making orbital integer symmetry assigments:
 Orbital symmetries:
       Occupied  (E) (E) (A1) (A1) (E) (E) (A1) (E) (E) (A1) (E)
                 (E) (A1) (E) (E) (A1) (A2) (E) (E) (A1) (A1) (E)
                 (E) (A1) (A1) (A1) (E) (E) (E) (E) (A1) (A1) (E)
                 (E) (A1) (E) (E) (A2) (E) (E) (A1) (E) (E) (E)
                 (E) (E) (E) (A2) (A1)
       Virtual   (A1) (E) (E) (A1) (E) (E) (A1) (E) (E) (E) (E)
                 (A1) (A1) (A2) (A1) (E) (E) (E) (E) (A1) (E) (E)
                 (A1) (E) (E) (E) (E) (A1) (A2) (E) (E) (A1) (E)
                 (E) (A1) (A1) (E) (E) (A2) (A1) (E) (E) (A1) (E)
                 (E) (A1) (E) (E) (E) (E) (A1) (E) (E) (E) (E)
                 (A1) (E) (E) (A2) (E) (E) (A1) (E) (E) (A1) (E)
                 (E) (A2) (E) (E) (A2) (A1) (E) (E) (A1) (E) (E)
                 (E) (E) (A1) (A2) (E) (E) (E) (E) (A1) (E) (E)
                 (E) (E) (A2) (A1) (E) (E) (A1) (A1) (E) (E) (A2)
                 (E) (E) (E) (E) (A1) (E) (E) (E) (E) (A1) (E)
                 (E) (A2) (A2) (A1) (E) (E) (E) (E) (A1) (E) (E)
                 (A1) (A2) (A1) (E) (E) (E) (E) (E) (E) (A1) (A1)
                 (E) (E) (E) (E) (A2) (E) (E) (A1) (E) (E) (A2)
                 (E) (E) (A1) (A1) (E) (E) (A2) (E) (E) (A1) (E)
                 (E) (A1) (E) (E) (A1) (E) (E) (A2) (E) (E) (A1)
                 (A1) (E) (E) (A2) (E) (E) (E) (E) (E) (E) (A1)
                 (E) (E) (A2) (A1) (E) (E) (E) (E) (A1) (E) (E)
                 (A1) (E) (E) (E) (E) (A1) (A2) (E) (E) (A1) (E)
                 (E) (E) (E) (E) (E) (A1) (A2) (E) (E) (A1) (E)
                 (E) (A1) (A1) (A2) (E) (E) (E) (E) (E) (E) (A1)
                 (E) (E) (E) (E) (A2) (A1) (E) (E) (A1) (A2) (E)
                 (E) (A1) (E) (E) (A2) (E) (E) (A1) (A1) (A2) (E)
                 (E) (E) (E) (E) (E) (A1) (A1) (A2) (E) (E) (E)
                 (E) (E) (E) (A1) (A2) (E) (E) (A1) (E) (E) (A1)
                 (E) (E) (E) (E) (A1) (E) (E) (E) (E) (A1) (A2)
                 (E) (E) (E) (E) (A2) (A1) (E) (E) (A2) (E) (E)
                 (A2) (A1) (A1) (A1) (E) (E) (A1) (E) (E) (A2)
                 (E) (E) (E) (E) (A1) (E) (E) (E) (E) (E) (E) (A2)
                 (A1) (E) (E) (A2) (A1) (E) (E) (A2) (A1) (E) (E)
                 (A1) (E) (E) (E) (E) (E) (E) (A2) (A1) (E) (E)
                 (E) (E) (A1) (A1) (E) (E) (E) (E) (A1) (E) (E)
                 (E) (E) (A2) (A1) (E) (E) (E) (E) (A1) (E) (E)
                 (A2) (A1) (A2) (E) (E) (E) (E) (E) (E) (A1) (A1)
                 (E) (E) (E) (E) (E) (E) (A1) (E) (E) (A2) (E)
                 (E) (A1) (A2) (A1) (E) (E) (A1) (A2) (E) (E) (E)
                 (E) (A1) (E) (E) (A2) (E) (E) (A1) (E) (E) (A2)
                 (E) (E) (A1) (E) (E) (A1) (E) (E) (A1) (E) (E)
                 (A1) (A2) (E) (E) (E) (E) (A1) (A2) (E) (E) (E)
                 (E) (A2) (A1) (E) (E) (E) (E) (A2) (A1) (E) (E)
                 (A1) (A2) (E) (E) (A1) (E) (E) (A2) (E) (E) (A2)
                 (E) (E) (E) (E) (A1) (A1) (E) (E) (E) (E) (E)
                 (E) (A1) (E) (E) (A1) (E) (E) (A2) (A1) (E) (E)
                 (E) (E) (A2) (A1) (E) (E) (E) (E) (A1) (A2) (E)
                 (E) (A1) (A1) (E) (E) (A2) (E) (E) (E) (E) (A1)
                 (E) (E) (A1) (A2) (A2) (E) (E) (E) (E) (E) (E)
                 (E) (E) (A1) (E) (E) (E) (E) (A2) (A1) (E) (E)
                 (A1) (E) (E) (E) (E) (A2) (A1) (A1) (E) (E) (A1)
                 (E) (E) (A2) (E) (E) (E) (E) (A1) (A1) (E) (E)
                 (E) (E) (A2) (A1) (E) (E) (E) (E) (A2) (E) (E)
                 (A1) (E) (E) (A1) (A2) (E) (E) (A1) (E) (E) (E)
                 (E) (A1) (E) (E) (A2) (A2) (E) (E) (A2) (E) (E)
                 (E) (E) (A1) (E) (E) (A2) (A1) (E) (E) (E) (E)
                 (A2) (A1) (A1) (E) (E) (A1) (E) (E) (E) (E) (E)
                 (E) (A2) (A1) (E) (E) (A1) (E) (E) (E) (E) (A1)
                 (A2) (E) (E) (A2) (A1) (E) (E) (A1) (E) (E) (A1)
                 (E) (E) (A2) (E) (E) (E) (E) (A1) (A1) (E) (E)
                 (A2) (E) (E) (A1) (A2) (E) (E) (E) (E) (A1) (E)
                 (E) (E) (E) (A1) (E) (E) (A2) (A1) (E) (E) (E)
                 (E) (A1) (E) (E) (A2) (A1) (A1) (E) (E) (E) (E)
                 (A2) (E) (E) (A2) (E) (E) (A1) (A2) (E) (E) (E)
                 (E) (A1) (E) (E) (E) (E) (A2) (E) (E) (A1) (E)
                 (E) (A1) (E) (E) (A1) (A2) (E) (E) (A1) (A2) (E)
                 (E) (E) (E) (E) (E) (A2) (A1) (E) (E) (A1) (E)
                 (E) (A2) (E) (E) (A1) (E) (E) (A1) (E) (E) (E)
                 (E) (A1) (A2) (E) (E) (E) (E) (A1) (A2) (E) (E)
                 (E) (E) (A1) (A2) (E) (E) (E) (E) (A1) (A1) (E)
                 (E) (E) (E) (A2) (A1) (E) (E) (E) (E) (A1) (A2)
                 (E) (E) (A1) (E) (E) (E) (E) (A1) (E) (E) (A2)
                 (E) (E) (A2) (E) (E) (A2) (A1) (E) (E) (E) (E)
                 (A1) (E) (E) (A2) (E) (E) (A1) (A2) (E) (E) (E)
                 (E) (A1) (E) (E) (A1) (A1) (E) (E) (A1) (A1) (E)
                 (E) (E) (E) (A1) (A1) (A2) (E) (E) (A1) (E) (E)
                 (A1) (E) (E) (A1) (E) (E) (A1) (A1) (E) (E) (A1)
                 (A1) (E) (E) (A1)
    24 initial guesses have been made.
 Convergence on wavefunction:    0.001000000000000
 Davidson Disk Diagonalization:  ConvIn= 1.00D-03 SkipCon=T Conv= 1.00D-03.
 Max sub-space:  2000 roots to seek:    24 dimension of matrix:        79086
 Iteration     1 Dimension    24 NMult     0 NNew     24
 Estimated number of processors is:   10
 CISAX will form     1 AO SS matrices at one time.
 NMat=     1 NSing=     1 JSym2X= 2.
 FoFJK:  IHMeth= 1 ICntrl=       0 DoSepK=F KAlg= 0 I1Cent=           0 FoldK=F
 IRaf= 900000000 NMat=       1 IRICut=       1 DoRegI=T DoRafI=F ISym2E= 2 IDoP0=0 IntGTp=1.
 FoFCou: FMM=F IPFlag=           0 FMFlag=      100000 FMFlg1=           0
         NFxFlg=           0 DoJE=F BraDBF=F KetDBF=F FulRan=T
         wScrn=  0.000000 ICntrl=         0 IOpCl=  0 I1Cent=           0 NGrid=           0
         NMat0=    1 NMatS0=      1 NMatT0=    0 NMatD0=    1 NMtDS0=    0 NMtDT0=    0
 Integrals replicated using symmetry in FoFCou.
 CoulSu:  requested number of processors reduced to:  15 ShMem   1 Linda.
 CalDSu:  requested number of processors reduced to:  31 ShMem   1 Linda.
 NMat=     1 NSing=     1 JSym2X= 2.
[...]
 Alpha virt. eigenvalues --    0.25502   0.25700   0.25700   0.27017   0.27610
 Alpha virt. eigenvalues --    0.27610   0.27640   0.28734   0.28734   0.29234
 Alpha virt. eigenvalues --    0.29943   0.29943   0.30837   0.31774   0.31774
 Alpha virt. eigenvalues --    0.31984   0.32028   0.34168   0.34168   0.34394
 Alpha virt. eigenvalues --    0.34845   0.34845   0.35790   0.35790   0.35970
 Alpha virt. eigenvalues --    0.37448   0.37578   0.37578   0.38817   0.38817
 Alpha virt. eigenvalues --    0.39305   0.40295   0.40295   0.41008   0.41008
 Alpha virt. eigenvalues --    0.41659   0.42167   0.42537   0.42537   0.43339
 Alpha virt. eigenvalues --    0.43991   0.44054   0.44054   0.44449   0.45122
 Alpha virt. eigenvalues --    0.45122   0.45315   0.45315   0.47055   0.48192
 Alpha virt. eigenvalues --    0.48192   0.48843   0.48843   0.49647   0.49753
 Alpha virt. eigenvalues --    0.49753   0.50598   0.50771   0.51667   0.51744
 Alpha virt. eigenvalues --    0.51744   0.52974   0.52974   0.53082   0.54034
 Alpha virt. eigenvalues --    0.54034   0.54880   0.55833   0.55981   0.56243
 Alpha virt. eigenvalues --    0.56243   0.58289   0.58289   0.58554   0.58554
 Alpha virt. eigenvalues --    0.60411   0.60849   0.61442   0.61442   0.64257
 Alpha virt. eigenvalues --    0.64257   0.64643   0.65836   0.65836   0.67203
 Alpha virt. eigenvalues --    0.67682   0.67682   0.68082   0.69735   0.69735
 Alpha virt. eigenvalues --    0.70316   0.71286   0.73054   0.73054   0.73104
 Alpha virt. eigenvalues --    0.74717   0.74717   0.76168   0.76792   0.76792
 Alpha virt. eigenvalues --    0.77509   0.78399   0.78399   0.80653   0.84528
 Alpha virt. eigenvalues --    0.84528   0.84815   0.86149   0.86149   0.87253
 Alpha virt. eigenvalues --    0.88804   0.90165   0.90165   0.90686   0.91528
 Alpha virt. eigenvalues --    0.91528   0.92661   0.92661   0.94604   0.94604
 Alpha virt. eigenvalues --    0.94833   0.95987   0.95987   0.97033   0.97550
 Alpha virt. eigenvalues --    0.97556   0.97556   1.00375   1.00375   1.03250
 Alpha virt. eigenvalues --    1.03392   1.03392   1.03486   1.06162   1.06162
 Alpha virt. eigenvalues --    1.09192   1.09192   1.09818   1.10929   1.13859
 Alpha virt. eigenvalues --    1.13859   1.14773   1.15626   1.15626   1.17849
 Alpha virt. eigenvalues --    1.17849   1.20694   1.20694   1.20710   1.22509
 Alpha virt. eigenvalues --    1.24957   1.24957   1.25389   1.26560   1.26560
 Alpha virt. eigenvalues --    1.27729   1.31215   1.31548   1.31554   1.31554
 Alpha virt. eigenvalues --    1.32339   1.32339   1.34368   1.34368   1.35481
 Alpha virt. eigenvalues --    1.36063   1.36063   1.37178   1.37178   1.37357
 Alpha virt. eigenvalues --    1.38678   1.41856   1.41856   1.43495   1.43664
 Alpha virt. eigenvalues --    1.43874   1.43874   1.45989   1.46451   1.46451
 Alpha virt. eigenvalues --    1.46866   1.46894   1.46894   1.46995   1.49013
 Alpha virt. eigenvalues --    1.49090   1.49138   1.49138   1.50981   1.50981
 Alpha virt. eigenvalues --    1.51832   1.51832   1.52460   1.52903   1.52928
 Alpha virt. eigenvalues --    1.53391   1.53391   1.54368   1.54368   1.55776
 Alpha virt. eigenvalues --    1.55776   1.58112   1.58394   1.59625   1.59625
 Alpha virt. eigenvalues --    1.63672   1.65100   1.65100   1.66789   1.67195
 Alpha virt. eigenvalues --    1.67195   1.69737   1.69737   1.71816   1.75272
 Alpha virt. eigenvalues --    1.75272   1.78724   1.78724   1.79372   1.79617
 Alpha virt. eigenvalues --    1.81224   1.81224   1.84128   1.84128   1.85295
 Alpha virt. eigenvalues --    1.88650   1.89555   1.89555   1.92470   1.95145
 Alpha virt. eigenvalues --    1.95145   1.95411   1.95579   1.98741   1.99655
 Alpha virt. eigenvalues --    2.01763   2.01763   2.04381   2.06336   2.06336
 Alpha virt. eigenvalues --    2.06525   2.08358   2.08358   2.09338   2.09338
 Alpha virt. eigenvalues --    2.12779   2.13683   2.13683   2.17390   2.17390
 Alpha virt. eigenvalues --    2.17832   2.17832   2.18826   2.19157   2.20828
 Alpha virt. eigenvalues --    2.20828   2.22122   2.22357   2.23327   2.23327
 Alpha virt. eigenvalues --    2.27100   2.27345   2.28902   2.28902   2.28994
 Alpha virt. eigenvalues --    2.33861   2.33861   2.37191   2.37191   2.38230
 Alpha virt. eigenvalues --    2.38230   2.38360   2.38375   2.40979   2.40979
 Alpha virt. eigenvalues --    2.43381   2.43381   2.43555   2.44695   2.46487
 Alpha virt. eigenvalues --    2.46487   2.48094   2.48094   2.51340   2.52379
 Alpha virt. eigenvalues --    2.52379   2.53348   2.53348   2.53763   2.54230
 Alpha virt. eigenvalues --    2.62159   2.62159   2.65214   2.65214   2.67496
 Alpha virt. eigenvalues --    2.69307   2.69307   2.69486   2.70147   2.77344
 Alpha virt. eigenvalues --    2.79564   2.79564   2.80406   2.80406   2.81225
 Alpha virt. eigenvalues --    2.81225   2.82921   2.86530   2.87470   2.87470
 Alpha virt. eigenvalues --    2.88226   2.88226   2.90489   2.90489   2.90581
 Alpha virt. eigenvalues --    2.94374   2.94374   2.94678   2.97057   2.97057
 Alpha virt. eigenvalues --    2.97149   2.98888   3.01094   3.02203   3.02203
 Alpha virt. eigenvalues --    3.03265   3.03382   3.03489   3.03489   3.09087
 Alpha virt. eigenvalues --    3.09087   3.10254   3.13058   3.13058   3.13204
 Alpha virt. eigenvalues --    3.15011   3.15011   3.16421   3.19209   3.19209
 Alpha virt. eigenvalues --    3.22835   3.26856   3.26856   3.29691   3.29896
 Alpha virt. eigenvalues --    3.29896   3.30353   3.33390   3.33390   3.36838
 Alpha virt. eigenvalues --    3.38085   3.38085   3.38505   3.40130   3.41934
 Alpha virt. eigenvalues --    3.41934   3.46085   3.46085   3.46369   3.46676
 Alpha virt. eigenvalues --    3.48715   3.48715   3.49919   3.49919   3.50466
 Alpha virt. eigenvalues --    3.50703   3.50911   3.50911   3.53722   3.53722
 Alpha virt. eigenvalues --    3.54608   3.55407   3.55663   3.55663   3.56253
 Alpha virt. eigenvalues --    3.56480   3.57896   3.57896   3.59175   3.59649
 Alpha virt. eigenvalues --    3.59649   3.59818   3.61820   3.61820   3.62102
 Alpha virt. eigenvalues --    3.62213   3.62213   3.63981   3.63981   3.63983
 Alpha virt. eigenvalues --    3.65535   3.66418   3.66418   3.67105   3.67105
 Alpha virt. eigenvalues --    3.70126   3.70126   3.73280   3.73897   3.73897
 Alpha virt. eigenvalues --    3.76581   3.79300   3.79300   3.81211   3.81846
 Alpha virt. eigenvalues --    3.82112   3.82112   3.85410   3.85410   3.86497
 Alpha virt. eigenvalues --    3.87737   3.88020   3.88020   3.91938   3.91938
 Alpha virt. eigenvalues --    3.92391   3.93109   3.95749   3.95749   3.96609
 Alpha virt. eigenvalues --    3.99774   4.00206   4.00206   4.02284   4.03933
 Alpha virt. eigenvalues --    4.03933   4.08623   4.08623   4.12028   4.12931
 Alpha virt. eigenvalues --    4.12931   4.16633   4.18679   4.21270   4.21366
 Alpha virt. eigenvalues --    4.21366   4.24175   4.24175   4.25869   4.25869
 Alpha virt. eigenvalues --    4.26675   4.26675   4.30770   4.30955   4.30955
 Alpha virt. eigenvalues --    4.36153   4.36153   4.36956   4.38473   4.39747
 Alpha virt. eigenvalues --    4.39747   4.41670   4.41948   4.41948   4.45751
 Alpha virt. eigenvalues --    4.45751   4.46849   4.47207   4.55398   4.59066
 Alpha virt. eigenvalues --    4.59066   4.60351   4.65402   4.65402   4.66180
 Alpha virt. eigenvalues --    4.72917   4.72917   4.79652   4.79652   4.80044
 Alpha virt. eigenvalues --    4.95589   4.96273   4.96273   5.13613   5.13613
 Alpha virt. eigenvalues --    5.14872   5.15150   5.19610   5.19610   5.23347
 Alpha virt. eigenvalues --    5.23347   5.25481   5.26294   5.26294   5.28402
 Alpha virt. eigenvalues --    5.30956   5.30956   5.31830   5.36962   5.42562
 Alpha virt. eigenvalues --    5.42562   5.57354   5.60339   5.60339   5.65951
 Alpha virt. eigenvalues --    5.65951   5.65984   5.67642   5.67642   5.68532
 Alpha virt. eigenvalues --    5.71307   5.71451   5.71451   5.75102   5.76511
 Alpha virt. eigenvalues --    5.76511   5.76746   5.76746   5.79087   5.81659
 Alpha virt. eigenvalues --    5.81659   5.82786   5.85874   5.87203   5.87203
 Alpha virt. eigenvalues --    5.91194   5.91194   5.91432   5.91587   5.93224
 Alpha virt. eigenvalues --    5.96881   5.96881   5.97117   5.97518   5.97518
 Alpha virt. eigenvalues --    5.98051   5.98051   6.02836   6.02836   6.02882
 Alpha virt. eigenvalues --    6.09139   6.14677   6.14677   6.23239   6.24591
 Alpha virt. eigenvalues --    6.24591   6.26921   6.26921   6.26930   6.27571
 Alpha virt. eigenvalues --    6.27885   6.27885   6.28745   6.32156   6.36105
 Alpha virt. eigenvalues --    6.36105   6.38276   6.39082   6.39082   6.45290
 Alpha virt. eigenvalues --    6.50684   6.50684   6.51369   6.53612   6.53612
 Alpha virt. eigenvalues --    6.59845   6.59845   6.60064   6.66787   6.70529
 Alpha virt. eigenvalues --    6.70529   6.71789   6.73044   6.73044   6.84631
 Alpha virt. eigenvalues --    6.87285   6.89496   6.89496   6.97271   6.97271
 Alpha virt. eigenvalues --    7.05483   7.09207   7.09207   7.14000   7.14000
 Alpha virt. eigenvalues --    7.14034   7.18985   7.18985   7.19031   7.19596
 Alpha virt. eigenvalues --    7.22297   7.22297   7.28701   7.28701   7.30158
 Alpha virt. eigenvalues --    7.32532   7.32532   7.34301   7.39417   7.46763
 Alpha virt. eigenvalues --    7.46781   7.46781   7.48058   7.48058   7.48899
 Alpha virt. eigenvalues --    7.56863   7.56863   7.58731   7.59026   7.59026
 Alpha virt. eigenvalues --    7.59680   7.64898   7.65346   7.65346   7.66772
 Alpha virt. eigenvalues --    7.66772   7.67579   7.69928   7.69928   7.71174
 Alpha virt. eigenvalues --    7.71174   7.76398   7.77401   7.77401   7.82656
 Alpha virt. eigenvalues --    7.88887   7.88887   7.93216   8.09347   8.09347
 Alpha virt. eigenvalues --    8.13224   8.13404   8.14544   8.14544   8.15708
 Alpha virt. eigenvalues --    8.16684   8.16824   8.16824   8.17879   8.17879
 Alpha virt. eigenvalues --    8.20134   8.20134   8.21796   8.22162   8.25289
 Alpha virt. eigenvalues --    8.25289   8.28306   8.29067   8.29067   8.29523
 Alpha virt. eigenvalues --    8.31256   8.31256   8.34634   8.36043   8.36043
 Alpha virt. eigenvalues --    8.37997   8.47816   8.47816   8.56680   8.56680
 Alpha virt. eigenvalues --    8.61823   8.65535   8.65552   8.65552   8.70517
 Alpha virt. eigenvalues --    8.70517   8.70728   8.70918   8.73933   8.73933
 Alpha virt. eigenvalues --    8.80916   8.80916   8.83047   8.83627   8.86161
 Alpha virt. eigenvalues --    8.86161   8.96274   8.96274   9.07377   9.52027
 Alpha virt. eigenvalues --    9.55214   9.55214   9.55474   9.55474   9.56094
 Alpha virt. eigenvalues --    9.57682   9.60366   9.60366   9.62971   9.62971
 Alpha virt. eigenvalues --    9.64936   9.69857   9.74251   9.74251   9.84078
 Alpha virt. eigenvalues --    9.89467   9.89467  10.00624  10.00624  10.01744
 Alpha virt. eigenvalues --   10.02612  10.02612  10.03177  10.24424  10.24424
 Alpha virt. eigenvalues --   10.27697  10.88166  10.88166  10.89530  10.90559
 Alpha virt. eigenvalues --   10.92135  10.92135  10.97317  10.97317  11.00610
 Alpha virt. eigenvalues --   11.02118  11.02118  11.04621  11.29875  11.29875
 Alpha virt. eigenvalues --   11.39709  11.88946  11.89860  11.89860  11.97444
 Alpha virt. eigenvalues --   11.97444  12.06188  12.99487  12.99487  13.01822
 Alpha virt. eigenvalues --   18.86270  18.88454  18.88454  19.69997  21.09464
 Alpha virt. eigenvalues --   29.01031  29.01031  29.05868  29.05868  29.07191
 Alpha virt. eigenvalues --   29.14548  42.09999  42.10965  42.10965  42.11844
 Alpha virt. eigenvalues --   42.12946  42.12946  42.21027  42.22192  42.22192
 Alpha virt. eigenvalues --   71.45945  98.76965  98.76965  98.88322 101.13241
 Alpha virt. eigenvalues --  146.57098 146.57098 146.57336 381.97579 524.86191
 Alpha virt. eigenvalues --  524.86191 525.05656
          Condensed to atoms (all electrons):
               1          2          3          4          5          6
     1  B    4.102654   0.071224  -0.029304  -0.029304  -0.029304   0.085166
     2  P    0.071224  14.474222   0.197057   0.197057   0.197057   0.040461
     3  C   -0.029304   0.197057   6.149299  -0.173266  -0.173266   0.014904
     4  C   -0.029304   0.197057  -0.173266   6.149299  -0.173266  -0.015350
     5  C   -0.029304   0.197057  -0.173266  -0.173266   6.149299  -0.015350
     6  Cl   0.085166   0.040461   0.014904  -0.015350  -0.015350  17.427103
     7  Cl   0.085166   0.040461  -0.015350  -0.015350   0.014904  -0.059034
     8  Cl   0.085166   0.040461  -0.015350   0.014904  -0.015350  -0.059034
     9  H    0.006009  -0.118864  -0.022621  -0.015146   0.357163  -0.001266
    10  H    0.006009  -0.118864  -0.015146  -0.022621   0.357163  -0.023311
    11  H   -0.012405  -0.069771  -0.010515  -0.010515   0.338431  -0.000198
    12  H    0.006009  -0.118864  -0.015146   0.357163  -0.022621  -0.023311
    13  H    0.006009  -0.118864  -0.022621   0.357163  -0.015146  -0.001266
    14  H   -0.012405  -0.069771  -0.010515   0.338431  -0.010515  -0.000198
    15  H   -0.012405  -0.069771   0.338431  -0.010515  -0.010515   0.000431
    16  H    0.006009  -0.118864   0.357163  -0.022621  -0.015146   0.001647
    17  H    0.006009  -0.118864   0.357163  -0.015146  -0.022621   0.001647
               7          8          9         10         11         12
     1  B    0.085166   0.085166   0.006009   0.006009  -0.012405   0.006009
     2  P    0.040461   0.040461  -0.118864  -0.118864  -0.069771  -0.118864
     3  C   -0.015350  -0.015350  -0.022621  -0.015146  -0.010515  -0.015146
     4  C   -0.015350   0.014904  -0.015146  -0.022621  -0.010515   0.357163
     5  C    0.014904  -0.015350   0.357163   0.357163   0.338431  -0.022621
     6  Cl  -0.059034  -0.059034  -0.001266  -0.023311  -0.000198  -0.023311
     7  Cl  17.427103  -0.059034   0.001647   0.001647   0.000431  -0.001266
     8  Cl  -0.059034  17.427103  -0.023311  -0.001266  -0.000198   0.001647
     9  H    0.001647  -0.023311   0.466625   0.068315   0.032321  -0.004246
    10  H    0.001647  -0.001266   0.068315   0.466625   0.032321  -0.005667
    11  H    0.000431  -0.000198   0.032321   0.032321   0.416214  -0.002571
    12  H   -0.001266   0.001647  -0.004246  -0.005667  -0.002571   0.466625
    13  H   -0.023311   0.001647  -0.004143  -0.004246  -0.002091   0.068315
    14  H   -0.000198   0.000431  -0.002091  -0.002571  -0.002584   0.032321
    15  H   -0.000198  -0.000198  -0.002571  -0.002091  -0.002584  -0.002091
    16  H   -0.023311  -0.001266  -0.004246  -0.004143  -0.002091  -0.004246
    17  H   -0.001266  -0.023311  -0.005667  -0.004246  -0.002571  -0.004143
              13         14         15         16         17
     1  B    0.006009  -0.012405  -0.012405   0.006009   0.006009
     2  P   -0.118864  -0.069771  -0.069771  -0.118864  -0.118864
     3  C   -0.022621  -0.010515   0.338431   0.357163   0.357163
     4  C    0.357163   0.338431  -0.010515  -0.022621  -0.015146
     5  C   -0.015146  -0.010515  -0.010515  -0.015146  -0.022621
     6  Cl  -0.001266  -0.000198   0.000431   0.001647   0.001647
     7  Cl  -0.023311  -0.000198  -0.000198  -0.023311  -0.001266
     8  Cl   0.001647   0.000431  -0.000198  -0.001266  -0.023311
     9  H   -0.004143  -0.002091  -0.002571  -0.004246  -0.005667
    10  H   -0.004246  -0.002571  -0.002091  -0.004143  -0.004246
    11  H   -0.002091  -0.002584  -0.002584  -0.002091  -0.002571
    12  H    0.068315   0.032321  -0.002091  -0.004246  -0.004143
    13  H    0.466625   0.032321  -0.002571  -0.005667  -0.004246
    14  H    0.032321   0.416214  -0.002584  -0.002571  -0.002091
    15  H   -0.002571  -0.002584   0.416214   0.032321   0.032321
    16  H   -0.005667  -0.002571   0.032321   0.466625   0.068315
    17  H   -0.004246  -0.002091   0.032321   0.068315   0.466625
 Mulliken charges:
               1
     1  B    0.659700
     2  P    0.664493
     3  C   -0.910918
     4  C   -0.910918
     5  C   -0.910918
     6  Cl  -0.373042
     7  Cl  -0.373042
     8  Cl  -0.373042
     9  H    0.272092
    10  H    0.272092
    11  H    0.298378
    12  H    0.272092
    13  H    0.272092
    14  H    0.298378
    15  H    0.298378
    16  H    0.272092
    17  H    0.272092
 Sum of Mulliken charges =  -0.00000
 Mulliken charges with hydrogens summed into heavy atoms:
               1
     1  B    0.659700
     2  P    0.664493
     3  C   -0.068356
     4  C   -0.068356
     5  C   -0.068356
     6  Cl  -0.373042
     7  Cl  -0.373042
     8  Cl  -0.373042
 Electronic spatial extent (au):  <R**2>=           1853.6608
 Charge=             -0.0000 electrons
 Dipole moment (field-independent basis, Debye):
    X=              0.0000    Y=              0.0000    Z=              7.4876  Tot=              7.4876
 Quadrupole moment (field-independent basis, Debye-Ang):
   XX=            -78.8519   YY=            -78.8519   ZZ=            -74.0129
   XY=              0.0000   XZ=             -0.0000   YZ=             -0.0000
 Traceless Quadrupole moment (field-independent basis, Debye-Ang):
   XX=             -1.6130   YY=             -1.6130   ZZ=              3.2260
   XY=              0.0000   XZ=             -0.0000   YZ=             -0.0000
 Octapole moment (field-independent basis, Debye-Ang**2):
  XXX=              0.0000  YYY=             -2.5322  ZZZ=             21.3875  XYY=             -0.0000
  XXY=              2.5322  XXZ=              9.9203  XZZ=              0.0000  YZZ=             -0.0000
  YYZ=              9.9203  XYZ=              0.0000
 Hexadecapole moment (field-independent basis, Debye-Ang**3):
 XXXX=           -683.3886 YYYY=           -683.3886 ZZZZ=          -1039.6896 XXXY=              0.0000
 XXXZ=             -0.0000 YYYX=              0.0000 YYYZ=             -2.7942 ZZZX=             -0.0000
 ZZZY=             -0.0000 XXYY=           -227.7962 XXZZ=           -295.4513 YYZZ=           -295.4513
 XXYZ=              2.7942 YYXZ=             -0.0000 ZZXY=              0.0000
 N-N= 7.532233200451D+02 E-N=-5.937312813066D+03  KE= 1.863312380149D+03
 PrsmSu:  requested number of processors reduced to:  19 ShMem   1 Linda.
 No NMR shielding tensors so no spin-rotation constants.
 Leave Link  601 at Sat Apr 17 10:41:34 2021, MaxMem=   104857600 cpu:            1001.1 elap:              21.7
 (Enter /s/ls4/users/knvvv/bin/g16sse/l9999.exe)

 Test job not archived.
 1\1\GINC-N156\Stability\RM062X\Gen\C3H9B1Cl3P1\KNVVV\17-Apr-2021\0\\#P
  M062X/GEN Integral=UltraFineGrid SCF=NoSymm Stable=(RExt, Opt) IOp(1/
 33=1)\\Database calculations.\\0,1\B,0,0.,0.,1.9508743613\P,0,0.,0.,-0
 .029066908\C,0,0.8519006356,-1.4755351838,-0.6896748204\C,0,0.85190063
 56,1.4755351838,-0.6896748204\C,0,-1.7038012711,0.,-0.6896748204\Cl,0,
 -0.8969045527,1.5534842548,2.4634642119\Cl,0,1.7938091053,0.,2.4634642
 119\Cl,0,-0.8969045527,-1.5534842548,2.4634642119\H,0,-2.2183412955,-0
 .8866816953,-0.3163668382\H,0,-2.2183412955,0.8866816953,-0.3163668382
 \H,0,-1.6984185025,0.,-1.7816581996\H,0,0.3412817746,2.3644807638,-0.3
 163668382\H,0,1.877059521,1.4777990685,-0.3163668382\H,0,0.8492092512,
 1.4708735694,-1.7816581996\H,0,0.8492092512,-1.4708735694,-1.781658199
 6\H,0,1.877059521,-1.4777990685,-0.3163668382\H,0,0.3412817746,-2.3644
 807638,-0.3163668382\\Version=ES64L-G16RevA.03\State=1-A1\HF=-1866.753
 1854\RMSD=1.839e-09\Dipole=0.,0.,-2.945841\Quadrupole=-1.1992181,-1.19
 92181,2.3984361,0.,0.,0.\PG=C03V [C3(B1P1),3SGV(C1H1Cl1),X(H6)]\\@


 A great many people think they are thinking when they
 are merely rearranging their prejudices.
                               -- William James
 Job cpu time:       4 days  9 hours 18 minutes 35.8 seconds.
 Elapsed time:       0 days  4 hours 16 minutes 29.8 seconds.
 File lengths (MBytes):  RWF=   1927 Int=      0 D2E=      0 Chk=     92 Scr=      1
 Normal termination of Gaussian 16 at Sat Apr 17 10:41:35 2021.
