 Entering Gaussian System, Link 0=/s/ls4/users/knvvv/bin/g16sse/g16
 Input=data/database/M062X--def2-QZVP--WATER27_H3OpH2O62d.gjf
 Output=data/database/M062X--def2-QZVP--WATER27_H3OpH2O62d.log
 Initial command:
 /s/ls4/users/knvvv/bin/g16sse/l1.exe "/s/ls4/users/knvvv/bin/scratch/Gau-9611.inp" -scrdir="/s/ls4/users/knvvv/bin/scratch/"
 Entering Link 1 = /s/ls4/users/knvvv/bin/g16sse/l1.exe PID=      9612.
  
 Copyright (c) 1988,1990,1992,1993,1995,1998,2003,2009,2016,
            Gaussian, Inc.  All Rights Reserved.
  
 This is part of the Gaussian(R) 16 program.  It is based on
 the Gaussian(R) 09 system (copyright 2009, Gaussian, Inc.),
 the Gaussian(R) 03 system (copyright 2003, Gaussian, Inc.),
 the Gaussian(R) 98 system (copyright 1998, Gaussian, Inc.),
 the Gaussian(R) 94 system (copyright 1995, Gaussian, Inc.),
 the Gaussian 92(TM) system (copyright 1992, Gaussian, Inc.),
 the Gaussian 90(TM) system (copyright 1990, Gaussian, Inc.),
 the Gaussian 88(TM) system (copyright 1988, Gaussian, Inc.),
 the Gaussian 86(TM) system (copyright 1986, Carnegie Mellon
 University), and the Gaussian 82(TM) system (copyright 1983,
 Carnegie Mellon University). Gaussian is a federally registered
 trademark of Gaussian, Inc.
  
 This software contains proprietary and confidential information,
 including trade secrets, belonging to Gaussian, Inc.
  
 This software is provided under written license and may be
 used, copied, transmitted, or stored only in accord with that
 written license.
  
 The following legend is applicable only to US Government
 contracts under FAR:
  
                    RESTRICTED RIGHTS LEGEND
  
 Use, reproduction and disclosure by the US Government is
 subject to restrictions as set forth in subparagraphs (a)
 and (c) of the Commercial Computer Software - Restricted
 Rights clause in FAR 52.227-19.
  
 Gaussian, Inc.
 340 Quinnipiac St., Bldg. 40, Wallingford CT 06492
  
  
 ---------------------------------------------------------------
 Warning -- This program may not be used in any manner that
 competes with the business of Gaussian, Inc. or will provide
 assistance to any competitor of Gaussian, Inc.  The licensee
 of this program is prohibited from giving any competitor of
 Gaussian, Inc. access to this program.  By using this program,
 the user acknowledges that Gaussian, Inc. is engaged in the
 business of creating and licensing software in the field of
 computational chemistry and represents and warrants to the
 licensee that it is not a competitor of Gaussian, Inc. and that
 it will not use this program in any manner prohibited above.
 ---------------------------------------------------------------
  

 Cite this work as:
 Gaussian 16, Revision A.03,
 M. J. Frisch, G. W. Trucks, H. B. Schlegel, G. E. Scuseria, 
 M. A. Robb, J. R. Cheeseman, G. Scalmani, V. Barone, 
 G. A. Petersson, H. Nakatsuji, X. Li, M. Caricato, A. V. Marenich, 
 J. Bloino, B. G. Janesko, R. Gomperts, B. Mennucci, H. P. Hratchian, 
 J. V. Ortiz, A. F. Izmaylov, J. L. Sonnenberg, D. Williams-Young, 
 F. Ding, F. Lipparini, F. Egidi, J. Goings, B. Peng, A. Petrone, 
 T. Henderson, D. Ranasinghe, V. G. Zakrzewski, J. Gao, N. Rega, 
 G. Zheng, W. Liang, M. Hada, M. Ehara, K. Toyota, R. Fukuda, 
 J. Hasegawa, M. Ishida, T. Nakajima, Y. Honda, O. Kitao, H. Nakai, 
 T. Vreven, K. Throssell, J. A. Montgomery, Jr., J. E. Peralta, 
 F. Ogliaro, M. J. Bearpark, J. J. Heyd, E. N. Brothers, K. N. Kudin, 
 V. N. Staroverov, T. A. Keith, R. Kobayashi, J. Normand, 
 K. Raghavachari, A. P. Rendell, J. C. Burant, S. S. Iyengar, 
 J. Tomasi, M. Cossi, J. M. Millam, M. Klene, C. Adamo, R. Cammi, 
 J. W. Ochterski, R. L. Martin, K. Morokuma, O. Farkas, 
 J. B. Foresman, and D. J. Fox, Gaussian, Inc., Wallingford CT, 2016.
 
 ******************************************
 Gaussian 16:  ES64L-G16RevA.03 25-Dec-2016
                18-Apr-2021 
 ******************************************
 %RWF=temp12_47332,70GB
 %nprocshared=48
 Will use up to   48 processors via shared memory.
 Default route: MaxDisk=80GB
 ----------------------------------------------------------------------
 #P M062X/Def2QZVP Integral=UltraFineGrid SCF=NoSymm Stable=(RExt, Opt)
  IOp(1/33=1)
 ----------------------------------------------------------------------
 1/33=1,38=1,172=1/1;
 2/12=2,17=6,18=5,40=1/2;
 3/5=45,7=101,11=2,25=1,30=1,74=-55,75=-5/1,2,3;
 4/9=2/1;
 5/5=2,38=5/2;
 6/7=2,8=2,9=2,10=2,28=1/1;
 8/6=1,10=90,11=11/1;
 9/8=-3,42=1,46=1/14;
 5/5=2,8=3,17=40,38=5/8(-2);
 6/7=2,8=2,9=2,10=2,28=1/1;
 99/5=1,9=1/99;
 Leave Link    1 at Sun Apr 18 05:13:13 2021, MaxMem=           0 cpu:              10.9 elap:               0.2
 (Enter /s/ls4/users/knvvv/bin/g16sse/l101.exe)
 ONIOM data not found on unit 2.
 ----------------------
 Database calculations.
 ----------------------
 TstMul:  ICh=     1
 TstMul:  Mul=     1
 TstMul:  ICh=     1
 TstMul:  Mul=     1
 Symbolic Z-matrix:
 Charge =  1 Multiplicity = 1
 O                     1.84341  -0.9596   -1.48677 
 H                     1.26567  -0.73912  -2.23492 
 O                     1.07933  -0.52719   1.0282 
 H                     1.40193  -0.70178   0.107 
 O                     0.        0.       -3.5119 
 O                    -1.84341   0.9596   -1.48677 
 H                    -1.26567   0.73912  -2.23492 
 O                    -1.07933   0.52719   1.0282 
 H                    -1.40193   0.70178   0.107 
 H                     0.        0.        1.03345 
 H                    -2.36668   1.72447  -1.74182 
 H                     2.36668  -1.72447  -1.74182 
 H                    -1.77002   0.03355   1.53153 
 H                     1.77002  -0.03355   1.53153 
 O                    -2.99141  -0.72411   2.44248 
 O                     2.99141   0.72411   2.44248 
 H                     0.43342   0.63655  -4.09404 
 H                    -0.43342  -0.63655  -4.09404 
 H                    -3.17979  -1.66531   2.50114 
 H                    -3.43527  -0.30591   3.18642 
 H                     3.43527   0.30591   3.18642 
 H                     3.17979   1.66531   2.50114 
 
 RdStrC is calling ZToCFu for IStruc=1 NZ=    22.
 PrtBox:  NBox=     4 Levels=  2 BoxLen=    8.00 SMaxX=       13.76
          Shift=            6.491718            3.258781            7.736613
 Box      1 Number                   0 centers from      1 to      7:
 Box      2 Number                   1 centers from      8 to     13:
 Box      3 Number                   4 centers from     14 to     17:
 Box      4 Number                   5 centers from     18 to     22:
 After GenITR:
 ITRead=  0  0  0  0  0  0  0  0  0  0  0  0  0  0  0  0  0  0  0  0
 ITRead=  0  0
 MicOpt= -1 -1 -1 -1 -1 -1 -1 -1 -1 -1 -1 -1 -1 -1 -1 -1 -1 -1 -1 -1
 MicOpt= -1 -1
 ITRead=  0  0  0  0  0  0  0  0  0  0  0  0  0  0  0  0  0  0  0  0
 ITRead=  0  0
 MicOpt= -1 -1 -1 -1 -1 -1 -1 -1 -1 -1 -1 -1 -1 -1 -1 -1 -1 -1 -1 -1
 MicOpt= -1 -1
 NAtoms=     22 NQM=       22 NQMF=       0 NMMI=      0 NMMIF=      0
                NMic=       0 NMicF=      0.
                    Isotopes and Nuclear Properties:
 (Nuclear quadrupole moments (NQMom) in fm**2, nuclear magnetic moments (NMagM)
  in nuclear magnetons)

  Atom         1           2           3           4           5           6           7           8           9          10
 IAtWgt=          16           1          16           1          16          16           1          16           1           1
 AtmWgt=  15.9949146   1.0078250  15.9949146   1.0078250  15.9949146  15.9949146   1.0078250  15.9949146   1.0078250   1.0078250
 NucSpn=           0           1           0           1           0           0           1           0           1           1
 AtZEff=  -0.0000000  -0.0000000  -0.0000000  -0.0000000  -0.0000000  -0.0000000  -0.0000000  -0.0000000  -0.0000000  -0.0000000
 NQMom=    0.0000000   0.0000000   0.0000000   0.0000000   0.0000000   0.0000000   0.0000000   0.0000000   0.0000000   0.0000000
 NMagM=    0.0000000   2.7928460   0.0000000   2.7928460   0.0000000   0.0000000   2.7928460   0.0000000   2.7928460   2.7928460
 AtZNuc=   8.0000000   1.0000000   8.0000000   1.0000000   8.0000000   8.0000000   1.0000000   8.0000000   1.0000000   1.0000000

  Atom        11          12          13          14          15          16          17          18          19          20
 IAtWgt=           1           1           1           1          16          16           1           1           1           1
 AtmWgt=   1.0078250   1.0078250   1.0078250   1.0078250  15.9949146  15.9949146   1.0078250   1.0078250   1.0078250   1.0078250
 NucSpn=           1           1           1           1           0           0           1           1           1           1
 AtZEff=  -0.0000000  -0.0000000  -0.0000000  -0.0000000  -0.0000000  -0.0000000  -0.0000000  -0.0000000  -0.0000000  -0.0000000
 NQMom=    0.0000000   0.0000000   0.0000000   0.0000000   0.0000000   0.0000000   0.0000000   0.0000000   0.0000000   0.0000000
 NMagM=    2.7928460   2.7928460   2.7928460   2.7928460   0.0000000   0.0000000   2.7928460   2.7928460   2.7928460   2.7928460
 AtZNuc=   1.0000000   1.0000000   1.0000000   1.0000000   8.0000000   8.0000000   1.0000000   1.0000000   1.0000000   1.0000000

  Atom        21          22
 IAtWgt=           1           1
 AtmWgt=   1.0078250   1.0078250
 NucSpn=           1           1
 AtZEff=  -0.0000000  -0.0000000
 NQMom=    0.0000000   0.0000000
 NMagM=    2.7928460   2.7928460
 AtZNuc=   1.0000000   1.0000000
 No MM parameters found.
 Leave Link  101 at Sun Apr 18 05:13:14 2021, MaxMem=   104857600 cpu:               7.6 elap:               0.2
 (Enter /s/ls4/users/knvvv/bin/g16sse/l202.exe)
                          Input orientation:                          
 ---------------------------------------------------------------------
 Center     Atomic      Atomic             Coordinates (Angstroms)
 Number     Number       Type             X           Y           Z
 ---------------------------------------------------------------------
      1          8           0        1.843413   -0.959600   -1.486772
      2          1           0        1.265674   -0.739123   -2.234918
      3          8           0        1.079331   -0.527185    1.028201
      4          1           0        1.401929   -0.701783    0.106999
      5          8           0        0.000000    0.000000   -3.511900
      6          8           0       -1.843413    0.959600   -1.486772
      7          1           0       -1.265674    0.739123   -2.234918
      8          8           0       -1.079331    0.527185    1.028201
      9          1           0       -1.401929    0.701783    0.106999
     10          1           0        0.000000    0.000000    1.033447
     11          1           0       -2.366676    1.724473   -1.741821
     12          1           0        2.366676   -1.724473   -1.741821
     13          1           0       -1.770016    0.033550    1.531531
     14          1           0        1.770016   -0.033550    1.531531
     15          8           0       -2.991412   -0.724108    2.442482
     16          8           0        2.991412    0.724108    2.442482
     17          1           0        0.433422    0.636555   -4.094039
     18          1           0       -0.433422   -0.636555   -4.094039
     19          1           0       -3.179792   -1.665314    2.501141
     20          1           0       -3.435269   -0.305906    3.186422
     21          1           0        3.435269    0.305906    3.186422
     22          1           0        3.179792    1.665314    2.501141
 ---------------------------------------------------------------------
                    Distance matrix (angstroms):
                    1          2          3          4          5
     1  O    0.000000
     2  H    0.970627   0.000000
     3  O    2.663812   3.275299   0.000000
     4  H    1.673764   2.346175   0.991547   0.000000
     5  O    2.901749   1.943943   4.696317   3.943898   0.000000
     6  O    4.156444   3.621023   4.132560   3.979013   2.901749
     7  H    3.621023   2.931370   4.213138   3.831043   1.943943
     8  O    4.132560   4.213138   2.402398   2.918154   4.696317
     9  H    3.979013   3.831043   2.918154   3.135540   3.943898
    10  H    3.266575   3.581961   1.201210   1.821046   4.545347
    11  H    4.999415   4.416607   4.961648   4.848426   3.421716
    12  H    0.961189   1.557647   3.280819   2.322664   3.421716
    13  H    4.811795   4.898834   2.947294   3.554045   5.345117
    14  H    3.158023   3.865014   0.986947   1.615957   5.345117
    15  O    6.234584   6.324640   4.313921   4.975582   6.702801
    16  O    4.426264   5.195892   2.687375   3.164507   6.702801
    17  H    3.366546   2.457939   5.292338   4.514187   0.965372
    18  H    3.476519   2.520670   5.342072   4.584920   0.965372
    19  H    6.452447   6.561269   4.648119   5.258561   7.002929
    20  H    7.080293   7.188704   5.008841   5.747873   7.534067
    21  H    5.096494   5.932129   3.301879   3.825278   7.534067
    22  H    4.957775   5.645832   3.374692   3.807343   7.002929
                    6          7          8          9         10
     6  O    0.000000
     7  H    0.970627   0.000000
     8  O    2.663812   3.275299   0.000000
     9  H    1.673764   2.346175   0.991547   0.000000
    10  H    3.266575   3.581961   1.201210   1.821046   0.000000
    11  H    0.961189   1.557647   3.280819   2.322664   4.034486
    12  H    4.999415   4.416607   4.961648   4.848426   4.034486
    13  H    3.158023   3.865014   0.986947   1.615957   1.839068
    14  H    4.811795   4.898834   2.947294   3.554045   1.839068
    15  O    4.426264   5.195892   2.687375   3.164507   3.385005
    16  O    6.234584   6.324640   4.313921   4.975582   3.385005
    17  H    3.476519   2.520670   5.342072   4.584920   5.184995
    18  H    3.366546   2.457939   5.292338   4.514187   5.184995
    19  H    4.957775   5.645832   3.374692   3.807343   3.877947
    20  H    5.096494   5.932129   3.301879   3.825278   4.065704
    21  H    7.080293   7.188704   5.008841   5.747873   4.065704
    22  H    6.452447   6.561269   4.648119   5.258561   3.877947
                   11         12         13         14         15
    11  H    0.000000
    12  H    5.856607   0.000000
    13  H    3.732299   5.560369   0.000000
    14  H    5.560369   3.732299   3.540668   0.000000
    15  O    4.888173   6.871552   1.701671   4.896724   0.000000
    16  O    6.871552   4.888173   4.896724   1.701671   6.155608
    17  H    3.815370   3.852902   6.071721   5.820874   7.503799
    18  H    3.852902   3.815370   5.820874   6.071721   7.019765
    19  H    5.491314   6.983519   2.411171   5.301264   0.961663
    20  H    5.436166   7.743544   2.372122   5.468806   0.961950
    21  H    7.743544   5.436166   5.468806   2.372122   6.551077
    22  H    6.983519   5.491314   5.301264   2.411171   6.617895
                   16         17         18         19         20
    16  O    0.000000
    17  H    7.019765   0.000000
    18  H    7.503799   1.540203   0.000000
    19  H    6.617895   7.864497   7.217846   0.000000
    20  H    6.551077   8.298200   7.881975   1.543654   0.000000
    21  H    0.961950   7.881975   8.298200   6.936451   6.897725
    22  H    0.961663   7.217846   7.864497   7.178954   6.936451
                   21         22
    21  H    0.000000
    22  H    1.543654   0.000000
 Stoichiometry    H15O7(1+)
 Framework group  C2[C2(HO),X(H14O6)]
 Deg. of freedom    30
 Full point group                 C2      NOp   2
 Largest Abelian subgroup         C2      NOp   2
 Largest concise Abelian subgroup C2      NOp   2
                         Standard orientation:                         
 ---------------------------------------------------------------------
 Center     Atomic      Atomic             Coordinates (Angstroms)
 Number     Number       Type             X           Y           Z
 ---------------------------------------------------------------------
      1          8           0       -0.053201    2.077541    1.531722
      2          1           0       -0.108653    1.461652    2.279868
      3          8           0        0.000000    1.201199   -0.983251
      4          1           0       -0.015301    1.567695   -0.062049
      5          8           0       -0.000000   -0.000000    3.556850
      6          8           0        0.053201   -2.077541    1.531722
      7          1           0        0.108653   -1.461652    2.279868
      8          8           0       -0.000000   -1.201199   -0.983251
      9          1           0        0.015301   -1.567695   -0.062049
     10          1           0        0.000000    0.000000   -0.988497
     11          1           0        0.510822   -2.883405    1.786771
     12          1           0       -0.510822    2.883405    1.786771
     13          1           0       -0.746684   -1.605162   -1.486581
     14          1           0        0.746684    1.605162   -1.486581
     15          8           0       -1.963522   -2.370118   -2.397532
     16          8           0        1.963522    2.370118   -2.397532
     17          1           0        0.762194    0.110076    4.138990
     18          1           0       -0.762194   -0.110076    4.138990
     19          1           0       -2.891914   -2.126307   -2.456191
     20          1           0       -1.782550   -2.952485   -3.141472
     21          1           0        1.782550    2.952485   -3.141472
     22          1           0        2.891914    2.126307   -2.456191
 ---------------------------------------------------------------------
 Rotational constants (GHZ):           0.8844817           0.7764157           0.4667457
 Leave Link  202 at Sun Apr 18 05:13:14 2021, MaxMem=   104857600 cpu:               4.6 elap:               0.1
 (Enter /s/ls4/users/knvvv/bin/g16sse/l301.exe)
 Standard basis: def2QZVP (5D, 7F)
 Ernie: Thresh=  0.10000D-02 Tol=  0.10000D-05 Strict=F.
 There are   520 symmetry adapted cartesian basis functions of A   symmetry.
 There are   509 symmetry adapted cartesian basis functions of B   symmetry.
 There are   428 symmetry adapted basis functions of A   symmetry.
 There are   421 symmetry adapted basis functions of B   symmetry.
   849 basis functions,  1214 primitive gaussians,  1029 cartesian basis functions
    35 alpha electrons       35 beta electrons
       nuclear repulsion energy       361.2815511857 Hartrees.
 IExCor= 4336 DFT=T Ex+Corr=M062X ExCW=0 ScaHFX=  0.540000
 ScaDFX=  1.000000  1.000000  1.000000  1.000000 ScalE2=  1.000000  1.000000
 IRadAn=      5 IRanWt=     -1 IRanGd=            0 ICorTp=0 IEmpDi=  4
 NAtoms=   22 NActive=   22 NUniq=   12 SFac= 3.36D+00 NAtFMM=   60 NAOKFM=F Big=F
 Integral buffers will be    131072 words long.
 Raffenetti 2 integral format.
 Two-electron integral symmetry is turned on.
 Leave Link  301 at Sun Apr 18 05:13:14 2021, MaxMem=   104857600 cpu:               5.7 elap:               0.1
 (Enter /s/ls4/users/knvvv/bin/g16sse/l302.exe)
 NPDir=0 NMtPBC=     1 NCelOv=     1 NCel=       1 NClECP=     1 NCelD=      1
         NCelK=      1 NCelE2=     1 NClLst=     1 CellRange=     0.0.
 One-electron integrals computed using PRISM.
 One-electron integral symmetry used in STVInt
 PrsmSu:  requested number of processors reduced to:   4 ShMem   1 Linda.
 PrsmSu:  requested number of processors reduced to:  18 ShMem   1 Linda.
   2 Symmetry operations used in ECPInt.
 ECPInt:  NShTT=   36315 NPrTT=   79764 LenC2=   29598 LenP2D=   49796.
 LDataN:  DoStor=T MaxTD1= 8 Len=  415
 Number of processors reduced to  10 by ecpmxn.
 NBasis=   849 RedAO= T EigKep=  1.53D-04  NBF=   428   421
 NBsUse=   849 1.00D-06 EigRej= -1.00D+00 NBFU=   428   421
 Precomputing XC quadrature grid using
 IXCGrd= 4 IRadAn=           5 IRanWt=          -1 IRanGd=           0 AccXCQ= 0.00D+00.
 Generated NRdTot=       0 NPtTot=           0 NUsed=           0 NTot=          32
 NSgBfM=  1010  1010  1010  1010  1010 MxSgAt=    22 MxSgA2=    22.
 Leave Link  302 at Sun Apr 18 05:13:39 2021, MaxMem=   104857600 cpu:            1178.8 elap:              25.2
 (Enter /s/ls4/users/knvvv/bin/g16sse/l303.exe)
 DipDrv:  MaxL=1.
 Leave Link  303 at Sun Apr 18 05:13:47 2021, MaxMem=   104857600 cpu:             373.5 elap:               8.0
 (Enter /s/ls4/users/knvvv/bin/g16sse/l401.exe)
 SCF N**3 symmetry information disabled.
 ExpMin= 8.03D-02 ExpMax= 1.17D+05 ExpMxC= 1.13D+03 IAcc=3 IRadAn=         5 AccDes= 0.00D+00
 Harris functional with IExCor= 1009 and IRadAn=       5 diagonalized for initial guess.
 HarFok:  IExCor= 1009 AccDes= 0.00D+00 IRadAn=         5 IDoV= 1 UseB2=F ITyADJ=14
 ICtDFT=  3500011 ScaDFX=  1.000000  1.000000  1.000000  1.000000
 CalDSu:  requested number of processors reduced to:  42 ShMem   1 Linda.
 FoFCou: FMM=F IPFlag=           0 FMFlag=      100000 FMFlg1=           0
         NFxFlg=           0 DoJE=T BraDBF=F KetDBF=T FulRan=T
         wScrn=  0.000000 ICntrl=       500 IOpCl=  0 I1Cent=   200000004 NGrid=           0
         NMat0=    1 NMatS0=      1 NMatT0=    0 NMatD0=    1 NMtDS0=    0 NMtDT0=    0
 Petite list used in FoFCou.
 CoulSu:  requested number of processors reduced to:  16 ShMem   1 Linda.
 CoulSu:  requested number of processors reduced to:  17 ShMem   1 Linda.
 CoulSu:  requested number of processors reduced to:  21 ShMem   1 Linda.
 CoulSu:  requested number of processors reduced to:  21 ShMem   1 Linda.
 Harris En= -535.399489459039    
 JPrj=0 DoOrth=F DoCkMO=F.
 Initial guess orbital symmetries:
       Occupied  (B) (A) (B) (A) (B) (A) (A) (A) (B) (A) (B) (A)
                 (A) (B) (A) (A) (B) (A) (B) (B) (A) (B) (B) (A)
                 (A) (B) (A) (B) (A) (B) (B) (A) (B) (A) (B)
       Virtual   (A) (A) (B) (B) (A) (A) (B) (B) (A) (A) (B) (B)
                 (B) (A) (A) (B) (A) (B) (A) (B) (A) (B) (A) (B)
                 (A) (A) (B) (A) (B) (A) (A) (B) (B) (A) (A) (B)
                 (B) (A) (B) (A) (B) (B) (A) (B) (A) (B) (A) (A)
                 (B) (B) (A) (A) (A) (B) (B) (A) (A) (B) (A) (A)
                 (B) (A) (B) (B) (A) (B) (B) (A) (A) (A) (B) (A)
                 (B) (B) (A) (B) (A) (B) (A) (B) (A) (B) (B) (A)
                 (A) (A) (B) (B) (A) (B) (B) (A) (A) (B) (B) (A)
                 (B) (A) (B) (A) (B) (A) (A) (B) (A) (B) (B) (A)
                 (B) (A) (A) (B) (B) (A) (A) (B) (B) (A) (A) (B)
                 (B) (A) (A) (A) (B) (A) (B) (A) (A) (B) (B) (A)
                 (B) (A) (B) (B) (A) (B) (A) (B) (A) (A) (B) (B)
                 (A) (A) (B) (A) (B) (A) (B) (B) (B) (A) (A) (B)
                 (A) (B) (B) (A) (A) (B) (B) (A) (A) (B) (A) (B)
                 (A) (B) (A) (A) (B) (A) (B) (B) (A) (B) (A) (B)
                 (B) (B) (A) (A) (A) (A) (B) (B) (A) (A) (B) (B)
                 (B) (A) (A) (B) (A) (B) (B) (A) (B) (A) (B) (A)
                 (B) (A) (B) (A) (B) (A) (B) (A) (B) (A) (A) (B)
                 (A) (A) (B) (B) (B) (A) (B) (A) (B) (A) (A) (B)
                 (A) (B) (A) (B) (A) (B) (B) (A) (A) (B) (B) (B)
                 (A) (A) (B) (A) (B) (B) (A) (A) (B) (A) (B) (A)
                 (B) (A) (B) (A) (B) (A) (A) (B) (A) (B) (A) (B)
                 (A) (B) (A) (A) (B) (A) (B) (B) (A) (A) (B) (B)
                 (A) (A) (B) (B) (A) (B) (A) (A) (B) (A) (B) (A)
                 (B) (A) (A) (B) (A) (B) (B) (B) (B) (A) (A) (A)
                 (A) (B) (A) (B) (B) (A) (A) (A) (B) (B) (B) (A)
                 (B) (B) (A) (B) (A) (A) (B) (B) (A) (B) (A) (A)
                 (B) (A) (B) (A) (B) (A) (B) (B) (B) (A) (A) (B)
                 (A) (A) (B) (B) (A) (B) (A) (A) (B) (B) (A) (B)
                 (B) (A) (B) (A) (B) (B) (A) (A) (A) (B) (A) (B)
                 (B) (A) (A) (A) (B) (A) (B) (A) (B) (A) (B) (A)
                 (B) (B) (A) (B) (A) (A) (B) (A) (B) (A) (A) (B)
                 (A) (B) (B) (A) (B) (A) (B) (A) (B) (B) (A) (A)
                 (B) (B) (A) (A) (B) (B) (A) (B) (B) (A) (B) (A)
                 (B) (A) (B) (B) (A) (B) (A) (A) (B) (A) (B) (A)
                 (A) (B) (A) (A) (B) (B) (A) (B) (A) (A) (B) (B)
                 (B) (A) (A) (A) (B) (A) (B) (B) (A) (A) (B) (A)
                 (B) (A) (A) (B) (B) (A) (B) (B) (A) (B) (A) (B)
                 (A) (B) (B) (A) (B) (A) (B) (A) (A) (B) (B) (A)
                 (B) (A) (B) (A) (B) (A) (A) (B) (B) (A) (A) (B)
                 (A) (B) (A) (B) (A) (B) (B) (A) (B) (A) (B) (A)
                 (B) (A) (B) (A) (B) (A) (B) (B) (A) (A) (B) (B)
                 (A) (B) (A) (B) (A) (B) (A) (B) (A) (B) (A) (B)
                 (A) (A) (B) (A) (A) (B) (A) (B) (A) (B) (A) (B)
                 (B) (A) (B) (A) (B) (A) (B) (B) (A) (B) (A) (B)
                 (B) (A) (A) (B) (A) (B) (A) (A) (B) (A) (B) (B)
                 (A) (B) (A) (B) (A) (A) (B) (A) (A) (B) (A) (B)
                 (A) (B) (A) (A) (B) (B) (A) (B) (A) (B) (A) (B)
                 (B) (A) (A) (B) (B) (A) (A) (A) (A) (B) (B) (A)
                 (B) (A) (B) (A) (B) (A) (A) (B) (A) (B) (B) (A)
                 (B) (A) (B) (A) (B) (A) (B) (A) (B) (A) (B) (B)
                 (A) (B) (A) (A) (B) (B) (A) (B) (B) (A) (B) (A)
                 (A) (B) (A) (B) (A) (B) (A) (B) (B) (A) (A) (B)
                 (A) (B) (A) (B) (A) (B) (A) (A) (B) (A) (B) (A)
                 (B) (A) (A) (B) (B) (A) (A) (B) (A) (B) (A) (B)
                 (A) (B) (A) (A) (B) (B) (A) (B) (A) (A) (B) (A)
                 (B) (A) (A) (B) (A) (B) (B) (A) (B) (A) (B) (B)
                 (B) (A) (A) (B) (B) (A) (B) (B) (A) (B) (A) (B)
                 (A) (B) (A) (B) (A) (B) (A) (B) (B) (A) (A) (B)
                 (B) (A) (A) (A) (B) (B) (A) (A) (B) (B) (A) (A)
                 (B) (B) (A) (A) (B) (A) (B) (B) (A) (A) (B) (A)
                 (A) (B) (A) (B) (A) (B) (A) (B) (A) (B) (A) (B)
                 (A) (B) (B) (A) (B) (A) (B) (A) (B) (B) (A) (B)
                 (A) (B) (A) (B) (B) (A) (A) (A) (B) (B) (A) (A)
                 (B) (B) (B) (A) (A) (B) (A) (B) (A) (A) (A) (B)
                 (A) (B) (A) (B) (A) (B) (A) (B) (A) (B) (A) (B)
                 (A) (B) (A) (B) (B) (A) (A) (B) (A) (B) (A) (B)
                 (A) (A) (B) (A) (B) (A) (B) (A) (A) (B)
 The electronic state of the initial guess is 1-A.
 Leave Link  401 at Sun Apr 18 05:13:58 2021, MaxMem=   104857600 cpu:             487.1 elap:              10.8
 (Enter /s/ls4/users/knvvv/bin/g16sse/l502.exe)
 Integral symmetry usage will be decided dynamically.
 Closed shell SCF:
 Using DIIS extrapolation, IDIIS=  1040.
 NGot=   104857600 LenX=   102680321 LenY=   101620451
 Requested convergence on RMS density matrix=1.00D-08 within 128 cycles.
 Requested convergence on MAX density matrix=1.00D-06.
 Requested convergence on             energy=1.00D-06.
 No special actions if energy rises.
 Fock matrices will be formed incrementally for  20 cycles.
 Integral accuracy reduced to 1.0D-05 until final iterations.

 Cycle   1  Pass 0  IDiag  1:
 FoFJK:  IHMeth= 1 ICntrl=       0 DoSepK=F KAlg= 0 I1Cent=           0 FoldK=F
 IRaf= 720000000 NMat=       1 IRICut=       1 DoRegI=T DoRafI=F ISym2E= 1 IDoP0=0 IntGTp=1.
 FoFCou: FMM=F IPFlag=           0 FMFlag=      100000 FMFlg1=           0
         NFxFlg=           0 DoJE=F BraDBF=F KetDBF=F FulRan=T
         wScrn=  0.000000 ICntrl=         0 IOpCl=  0 I1Cent=           0 NGrid=           0
         NMat0=    1 NMatS0=      1 NMatT0=    0 NMatD0=    1 NMtDS0=    0 NMtDT0=    0
 Petite list used in FoFCou.
 CoulSu:  requested number of processors reduced to:  18 ShMem   1 Linda.
 CalDSu:  requested number of processors reduced to:  42 ShMem   1 Linda.
 E= -535.140116821838    
 DIIS: error= 2.81D-02 at cycle   1 NSaved=   1.
 NSaved= 1 IEnMin= 1 EnMin= -535.140116821838     IErMin= 1 ErrMin= 2.81D-02
 ErrMax= 2.81D-02  0.00D+00 EMaxC= 1.00D-01 BMatC= 8.07D-01 BMatP= 8.07D-01
 IDIUse=3 WtCom= 7.19D-01 WtEn= 2.81D-01
 Coeff-Com:  0.100D+01
 Coeff-En:   0.100D+01
 Coeff:      0.100D+01
 Gap=     0.321 Goal=   None    Shift=    0.000
 GapD=    0.321 DampG=1.000 DampE=0.500 DampFc=0.5000 IDamp=-1.
 Damping current iteration by 5.00D-01
 RMSDP=7.54D-04 MaxDP=7.08D-02              OVMax= 1.38D-01

 Cycle   2  Pass 0  IDiag  1:
 RMSU=  3.70D-04    CP:  9.77D-01
 CoulSu:  requested number of processors reduced to:  18 ShMem   1 Linda.
 CalDSu:  requested number of processors reduced to:  42 ShMem   1 Linda.
 E= -535.314583254201     Delta-E=       -0.174466432362 Rises=F Damp=T
 DIIS: error= 1.38D-02 at cycle   2 NSaved=   2.
 NSaved= 2 IEnMin= 2 EnMin= -535.314583254201     IErMin= 2 ErrMin= 1.38D-02
 ErrMax= 1.38D-02  0.00D+00 EMaxC= 1.00D-01 BMatC= 8.09D-02 BMatP= 8.07D-01
 IDIUse=3 WtCom= 8.62D-01 WtEn= 1.38D-01
 Coeff-Com: -0.304D-01 0.103D+01
 Coeff-En:   0.794D-01 0.921D+00
 Coeff:     -0.153D-01 0.102D+01
 Gap=     0.441 Goal=   None    Shift=    0.000
 RMSDP=2.61D-04 MaxDP=2.20D-02 DE=-1.74D-01 OVMax= 8.33D-02

 Cycle   3  Pass 0  IDiag  1:
 RMSU=  2.46D-04    CP:  9.69D-01  7.69D-01
 CoulSu:  requested number of processors reduced to:  18 ShMem   1 Linda.
 CalDSu:  requested number of processors reduced to:  42 ShMem   1 Linda.
 E= -535.512884493242     Delta-E=       -0.198301239042 Rises=F Damp=F
 DIIS: error= 3.25D-03 at cycle   3 NSaved=   3.
 NSaved= 3 IEnMin= 3 EnMin= -535.512884493242     IErMin= 3 ErrMin= 3.25D-03
 ErrMax= 3.25D-03  0.00D+00 EMaxC= 1.00D-01 BMatC= 5.79D-03 BMatP= 8.09D-02
 IDIUse=3 WtCom= 9.67D-01 WtEn= 3.25D-02
 Coeff-Com: -0.744D-01 0.159D+00 0.915D+00
 Coeff-En:   0.000D+00 0.000D+00 0.100D+01
 Coeff:     -0.720D-01 0.154D+00 0.918D+00
 Gap=     0.435 Goal=   None    Shift=    0.000
 RMSDP=4.35D-05 MaxDP=3.64D-03 DE=-1.98D-01 OVMax= 9.34D-03

 Cycle   4  Pass 0  IDiag  1:
 RMSU=  3.47D-05    CP:  9.65D-01  8.34D-01  9.99D-01
 CoulSu:  requested number of processors reduced to:  18 ShMem   1 Linda.
 CalDSu:  requested number of processors reduced to:  42 ShMem   1 Linda.
 E= -535.515881874709     Delta-E=       -0.002997381467 Rises=F Damp=F
 DIIS: error= 1.08D-03 at cycle   4 NSaved=   4.
 NSaved= 4 IEnMin= 4 EnMin= -535.515881874709     IErMin= 4 ErrMin= 1.08D-03
 ErrMax= 1.08D-03  0.00D+00 EMaxC= 1.00D-01 BMatC= 9.74D-04 BMatP= 5.79D-03
 IDIUse=3 WtCom= 9.89D-01 WtEn= 1.08D-02
 Coeff-Com: -0.366D-01 0.702D-01 0.474D+00 0.493D+00
 Coeff-En:   0.000D+00 0.000D+00 0.000D+00 0.100D+01
 Coeff:     -0.362D-01 0.694D-01 0.469D+00 0.498D+00
 Gap=     0.432 Goal=   None    Shift=    0.000
 RMSDP=1.78D-05 MaxDP=1.38D-03 DE=-3.00D-03 OVMax= 3.78D-03

 Cycle   5  Pass 0  IDiag  1:
 RMSU=  1.22D-05    CP:  9.65D-01  8.34D-01  1.01D+00  6.41D-01
 CoulSu:  requested number of processors reduced to:  18 ShMem   1 Linda.
 CalDSu:  requested number of processors reduced to:  42 ShMem   1 Linda.
 E= -535.516457199840     Delta-E=       -0.000575325131 Rises=F Damp=F
 DIIS: error= 6.31D-05 at cycle   5 NSaved=   5.
 NSaved= 5 IEnMin= 5 EnMin= -535.516457199840     IErMin= 5 ErrMin= 6.31D-05
 ErrMax= 6.31D-05  0.00D+00 EMaxC= 1.00D-01 BMatC= 4.42D-06 BMatP= 9.74D-04
 IDIUse=1 WtCom= 1.00D+00 WtEn= 0.00D+00
 Coeff-Com:  0.227D-02-0.384D-02-0.277D-01 0.201D-01 0.101D+01
 Coeff:      0.227D-02-0.384D-02-0.277D-01 0.201D-01 0.101D+01
 Gap=     0.432 Goal=   None    Shift=    0.000
 RMSDP=4.56D-06 MaxDP=4.80D-04 DE=-5.75D-04 OVMax= 3.13D-04

 Initial convergence to 1.0D-05 achieved.  Increase integral accuracy.
 Cycle   6  Pass 1  IDiag  1:
 CoulSu:  requested number of processors reduced to:  17 ShMem   1 Linda.
 CalDSu:  requested number of processors reduced to:  42 ShMem   1 Linda.
 E= -535.516479046127     Delta-E=       -0.000021846287 Rises=F Damp=F
 DIIS: error= 1.64D-04 at cycle   1 NSaved=   1.
 NSaved= 1 IEnMin= 1 EnMin= -535.516479046127     IErMin= 1 ErrMin= 1.64D-04
 ErrMax= 1.64D-04  0.00D+00 EMaxC= 1.00D-01 BMatC= 5.03D-06 BMatP= 5.03D-06
 IDIUse=3 WtCom= 9.98D-01 WtEn= 1.64D-03
 Coeff-Com:  0.100D+01
 Coeff-En:   0.100D+01
 Coeff:      0.100D+01
 Gap=     0.432 Goal=   None    Shift=    0.000
 RMSDP=4.56D-06 MaxDP=4.80D-04 DE=-2.18D-05 OVMax= 1.96D-04

 Cycle   7  Pass 1  IDiag  1:
 RMSU=  2.40D-05    CP:  1.00D+00
 CoulSu:  requested number of processors reduced to:  18 ShMem   1 Linda.
 CalDSu:  requested number of processors reduced to:  42 ShMem   1 Linda.
 E= -535.516480738871     Delta-E=       -0.000001692744 Rises=F Damp=F
 DIIS: error= 3.71D-05 at cycle   2 NSaved=   2.
 NSaved= 2 IEnMin= 2 EnMin= -535.516480738871     IErMin= 2 ErrMin= 3.71D-05
 ErrMax= 3.71D-05  0.00D+00 EMaxC= 1.00D-01 BMatC= 3.41D-07 BMatP= 5.03D-06
 IDIUse=1 WtCom= 1.00D+00 WtEn= 0.00D+00
 Coeff-Com:  0.790D-01 0.921D+00
 Coeff:      0.790D-01 0.921D+00
 Gap=     0.432 Goal=   None    Shift=    0.000
 RMSDP=8.94D-07 MaxDP=6.43D-05 DE=-1.69D-06 OVMax= 1.83D-04

 Cycle   8  Pass 1  IDiag  1:
 RMSU=  5.99D-07    CP:  1.00D+00  1.03D+00
 CoulSu:  requested number of processors reduced to:  18 ShMem   1 Linda.
 CalDSu:  requested number of processors reduced to:  42 ShMem   1 Linda.
 E= -535.516480744162     Delta-E=       -0.000000005291 Rises=F Damp=F
 DIIS: error= 3.83D-05 at cycle   3 NSaved=   3.
 NSaved= 3 IEnMin= 3 EnMin= -535.516480744162     IErMin= 2 ErrMin= 3.71D-05
 ErrMax= 3.83D-05  0.00D+00 EMaxC= 1.00D-01 BMatC= 3.34D-07 BMatP= 3.41D-07
 IDIUse=1 WtCom= 1.00D+00 WtEn= 0.00D+00
 Coeff-Com: -0.204D-01 0.501D+00 0.519D+00
 Coeff:     -0.204D-01 0.501D+00 0.519D+00
 Gap=     0.432 Goal=   None    Shift=    0.000
 RMSDP=2.89D-07 MaxDP=3.88D-05 DE=-5.29D-09 OVMax= 8.93D-05

 Cycle   9  Pass 1  IDiag  1:
 RMSU=  1.46D-07    CP:  1.00D+00  1.03D+00  6.18D-01
 CoulSu:  requested number of processors reduced to:  18 ShMem   1 Linda.
 CalDSu:  requested number of processors reduced to:  42 ShMem   1 Linda.
 E= -535.516480948007     Delta-E=       -0.000000203845 Rises=F Damp=F
 DIIS: error= 1.76D-06 at cycle   4 NSaved=   4.
 NSaved= 4 IEnMin= 4 EnMin= -535.516480948007     IErMin= 4 ErrMin= 1.76D-06
 ErrMax= 1.76D-06  0.00D+00 EMaxC= 1.00D-01 BMatC= 7.13D-10 BMatP= 3.34D-07
 IDIUse=1 WtCom= 1.00D+00 WtEn= 0.00D+00
 Coeff-Com: -0.564D-02 0.869D-01 0.105D+00 0.813D+00
 Coeff:     -0.564D-02 0.869D-01 0.105D+00 0.813D+00
 Gap=     0.432 Goal=   None    Shift=    0.000
 RMSDP=2.57D-08 MaxDP=1.52D-06 DE=-2.04D-07 OVMax= 4.31D-06

 Cycle  10  Pass 1  IDiag  1:
 RMSU=  2.48D-08    CP:  1.00D+00  1.03D+00  6.18D-01  9.86D-01
 CoulSu:  requested number of processors reduced to:  18 ShMem   1 Linda.
 CalDSu:  requested number of processors reduced to:  42 ShMem   1 Linda.
 E= -535.516480948479     Delta-E=       -0.000000000472 Rises=F Damp=F
 DIIS: error= 3.46D-07 at cycle   5 NSaved=   5.
 NSaved= 5 IEnMin= 5 EnMin= -535.516480948479     IErMin= 5 ErrMin= 3.46D-07
 ErrMax= 3.46D-07  0.00D+00 EMaxC= 1.00D-01 BMatC= 7.46D-11 BMatP= 7.13D-10
 IDIUse=1 WtCom= 1.00D+00 WtEn= 0.00D+00
 Coeff-Com: -0.107D-03-0.108D-01-0.670D-02 0.199D+00 0.819D+00
 Coeff:     -0.107D-03-0.108D-01-0.670D-02 0.199D+00 0.819D+00
 Gap=     0.432 Goal=   None    Shift=    0.000
 RMSDP=8.73D-09 MaxDP=7.13D-07 DE=-4.72D-10 OVMax= 1.83D-06

 SCF Done:  E(RM062X) =  -535.516480948     A.U. after   10 cycles
            NFock= 10  Conv=0.87D-08     -V/T= 2.0034
 KE= 5.336940008066D+02 PE=-1.979007403626D+03 EE= 5.485153706851D+02
 Leave Link  502 at Sun Apr 18 05:19:46 2021, MaxMem=   104857600 cpu:           13401.9 elap:             347.9
 (Enter /s/ls4/users/knvvv/bin/g16sse/l601.exe)
 Copying SCF densities to generalized density rwf, IOpCl= 0 IROHF=0.

 **********************************************************************

            Population analysis using the SCF density.

 **********************************************************************

 Orbital symmetries:
       Occupied  (A) (B) (A) (B) (A) (B) (A) (A) (A) (B) (A) (B)
                 (A) (B) (A) (A) (B) (B) (A) (B) (A) (B) (B) (A)
                 (A) (B) (A) (B) (A) (B) (B) (A) (B) (A) (B)
       Virtual   (A) (A) (B) (B) (A) (B) (B) (A) (A) (A) (B) (A)
                 (B) (B) (A) (B) (A) (B) (A) (A) (B) (A) (B) (A)
                 (B) (B) (A) (A) (B) (A) (B) (A) (B) (A) (A) (B)
                 (B) (A) (B) (B) (A) (B) (A) (B) (A) (B) (A) (B)
                 (A) (A) (B) (A) (A) (B) (B) (A) (A) (B) (A) (A)
                 (B) (A) (B) (B) (A) (B) (A) (B) (A) (A) (B) (A)
                 (B) (B) (A) (B) (A) (A) (B) (A) (B) (B) (B) (A)
                 (A) (B) (A) (B) (B) (A) (B) (A) (A) (B) (B) (A)
                 (B) (A) (B) (A) (B) (B) (A) (A) (A) (B) (A) (B)
                 (B) (A) (A) (B) (A) (B) (A) (B) (B) (A) (A) (B)
                 (A) (B) (A) (B) (A) (A) (A) (B) (A) (B) (B) (A)
                 (B) (A) (B) (B) (A) (B) (A) (A) (B) (A) (B) (B)
                 (A) (A) (B) (A) (B) (A) (B) (B) (A) (B) (A) (B)
                 (A) (B) (B) (A) (B) (A) (B) (A) (A) (B) (A) (B)
                 (A) (B) (A) (A) (B) (A) (B) (B) (B) (A) (A) (B)
                 (A) (B) (B) (A) (A) (A) (B) (B) (A) (A) (B) (B)
                 (B) (A) (A) (B) (A) (B) (B) (A) (B) (A) (B) (A)
                 (B) (B) (A) (A) (B) (A) (A) (B) (B) (A) (A) (B)
                 (A) (A) (B) (B) (B) (A) (B) (A) (A) (B) (A) (B)
                 (A) (B) (A) (B) (A) (B) (B) (A) (B) (A) (B) (B)
                 (A) (A) (B) (A) (B) (B) (A) (A) (B) (A) (B) (A)
                 (B) (A) (B) (A) (A) (B) (A) (B) (A) (B) (A) (B)
                 (A) (B) (A) (B) (A) (B) (A) (B) (A) (B) (A) (A)
                 (B) (B) (A) (B) (A) (A) (B) (B) (A) (B) (A) (B)
                 (A) (A) (A) (B) (A) (B) (B) (B) (B) (A) (A) (A)
                 (B) (A) (A) (B) (B) (A) (B) (A) (A) (B) (B) (A)
                 (B) (B) (A) (B) (A) (B) (A) (B) (A) (B) (A) (B)
                 (A) (A) (B) (A) (B) (A) (B) (B) (B) (A) (A) (B)
                 (A) (A) (B) (A) (B) (B) (A) (A) (B) (B) (B) (A)
                 (A) (B) (B) (A) (A) (B) (B) (A) (A) (B) (A) (B)
                 (B) (A) (A) (A) (B) (A) (B) (A) (B) (A) (B) (A)
                 (B) (B) (A) (B) (A) (A) (A) (B) (B) (A) (A) (B)
                 (B) (A) (B) (B) (A) (A) (B) (A) (B) (B) (A) (A)
                 (B) (B) (A) (A) (B) (B) (A) (B) (A) (B) (A) (B)
                 (B) (B) (A) (B) (A) (B) (A) (A) (A) (A) (B) (B)
                 (B) (A) (A) (B) (A) (A) (B) (B) (A) (B) (A) (B)
                 (A) (B) (A) (A) (B) (A) (B) (A) (B) (A) (A) (B)
                 (B) (A) (A) (B) (B) (A) (B) (B) (A) (B) (A) (A)
                 (B) (B) (B) (A) (B) (A) (B) (A) (B) (A) (B) (A)
                 (B) (A) (B) (A) (B) (A) (A) (B) (A) (B) (A) (B)
                 (B) (A) (B) (A) (A) (B) (A) (B) (A) (B) (A) (B)
                 (B) (A) (B) (B) (A) (A) (B) (B) (B) (A) (A) (B)
                 (B) (A) (A) (B) (A) (B) (A) (A) (B) (B) (A) (B)
                 (A) (A) (B) (A) (A) (B) (A) (B) (B) (A) (B) (A)
                 (B) (A) (B) (A) (B) (B) (A) (B) (A) (B) (A) (A)
                 (B) (B) (A) (A) (B) (A) (A) (B) (B) (A) (B) (B)
                 (A) (A) (B) (B) (A) (A) (A) (B) (A) (B) (A) (A)
                 (B) (B) (A) (A) (B) (A) (B) (B) (A) (B) (A) (B)
                 (A) (B) (A) (B) (B) (A) (A) (B) (A) (A) (B) (A)
                 (B) (A) (B) (A) (B) (A) (B) (A) (A) (B) (B) (A)
                 (B) (A) (B) (A) (B) (A) (B) (A) (B) (A) (B) (B)
                 (A) (B) (A) (A) (B) (B) (A) (B) (B) (B) (A) (A)
                 (A) (B) (A) (B) (A) (B) (A) (B) (B) (A) (A) (A)
                 (B) (B) (A) (B) (A) (B) (A) (B) (A) (A) (B) (A)
                 (B) (A) (A) (B) (A) (B) (A) (B) (A) (B) (A) (A)
                 (B) (A) (B) (A) (B) (B) (A) (B) (A) (A) (B) (A)
                 (B) (B) (A) (A) (A) (B) (B) (A) (B) (B) (A) (B)
                 (A) (B) (A) (B) (B) (A) (B) (B) (A) (B) (A) (A)
                 (B) (B) (A) (B) (A) (A) (B) (B) (A) (B) (B) (B)
                 (A) (A) (A) (B) (A) (A) (B) (B) (A) (B) (A) (B)
                 (A) (A) (B) (A) (B) (A) (B) (A) (B) (A) (B) (A)
                 (A) (A) (B) (B) (B) (A) (A) (B) (A) (B) (B) (A)
                 (A) (B) (A) (B) (A) (B) (B) (A) (B) (B) (B) (A)
                 (A) (B) (A) (B) (A) (B) (A) (A) (B) (A) (B) (A)
                 (B) (B) (B) (A) (A) (B) (A) (B) (A) (A) (A) (B)
                 (A) (B) (A) (B) (A) (B) (A) (B) (B) (A) (A) (B)
                 (A) (B) (B) (A) (B) (A) (A) (B) (A) (B) (A) (B)
                 (A) (A) (B) (A) (B) (A) (B) (A) (A) (B)
 The electronic state is 1-A.
 Alpha  occ. eigenvalues --  -19.79587 -19.77672 -19.77670 -19.76762 -19.76762
 Alpha  occ. eigenvalues --  -19.76099 -19.76099  -1.31205  -1.30277  -1.28545
 Alpha  occ. eigenvalues --   -1.27487  -1.27322  -1.26680  -1.26242  -0.78350
 Alpha  occ. eigenvalues --   -0.77602  -0.77515  -0.77045  -0.75391  -0.75207
 Alpha  occ. eigenvalues --   -0.75198  -0.74855  -0.66459  -0.65048  -0.63019
 Alpha  occ. eigenvalues --   -0.61319  -0.60721  -0.59683  -0.57188  -0.56785
 Alpha  occ. eigenvalues --   -0.55477  -0.54587  -0.54579  -0.54086  -0.53973
 Alpha virt. eigenvalues --   -0.10747  -0.08121  -0.07514  -0.05814  -0.04993
 Alpha virt. eigenvalues --   -0.03483  -0.01866  -0.01832  -0.00311   0.02680
 Alpha virt. eigenvalues --    0.04507   0.04659   0.05066   0.05753   0.07318
 Alpha virt. eigenvalues --    0.10104   0.12039   0.12225   0.12973   0.15334
 Alpha virt. eigenvalues --    0.15569   0.17033   0.17235   0.18923   0.19295
 Alpha virt. eigenvalues --    0.19954   0.20325   0.21274   0.21808   0.22025
 Alpha virt. eigenvalues --    0.23565   0.23717   0.24397   0.24999   0.25142
 Alpha virt. eigenvalues --    0.25308   0.25686   0.26375   0.27117   0.27310
 Alpha virt. eigenvalues --    0.28057   0.28650   0.28668   0.30230   0.31528
 Alpha virt. eigenvalues --    0.32178   0.32463   0.34650   0.35044   0.36891
 Alpha virt. eigenvalues --    0.37060   0.38243   0.40003   0.41765   0.42439
 Alpha virt. eigenvalues --    0.43749   0.45511   0.46054   0.47289   0.49582
 Alpha virt. eigenvalues --    0.50527   0.51938   0.52407   0.53907   0.54261
 Alpha virt. eigenvalues --    0.56289   0.58770   0.58869   0.60294   0.61775
 Alpha virt. eigenvalues --    0.62092   0.64198   0.65767   0.67834   0.69534
 Alpha virt. eigenvalues --    0.69593   0.71524   0.72079   0.72374   0.73995
 Alpha virt. eigenvalues --    0.74101   0.74919   0.75661   0.76265   0.78327
 Alpha virt. eigenvalues --    0.79486   0.80160   0.80195   0.81726   0.81859
 Alpha virt. eigenvalues --    0.82783   0.84680   0.85475   0.85967   0.87615
 Alpha virt. eigenvalues --    0.88212   0.88618   0.89302   0.91172   0.91174
 Alpha virt. eigenvalues --    0.92691   0.93351   0.93568   0.94140   0.94550
 Alpha virt. eigenvalues --    0.95193   0.96518   0.98312   0.98919   0.99892
 Alpha virt. eigenvalues --    1.01821   1.02763   1.10785   1.10946   1.14266
 Alpha virt. eigenvalues --    1.15952   1.16934   1.17377   1.18245   1.19015
 Alpha virt. eigenvalues --    1.20073   1.20357   1.21842   1.21933   1.22393
 Alpha virt. eigenvalues --    1.22639   1.23967   1.24050   1.25331   1.25469
 Alpha virt. eigenvalues --    1.25838   1.26320   1.27804   1.28238   1.28483
 Alpha virt. eigenvalues --    1.29781   1.30765   1.31798   1.33916   1.35786
 Alpha virt. eigenvalues --    1.36755   1.38018   1.40592   1.43149   1.46322
 Alpha virt. eigenvalues --    1.47545   1.48457   1.51225   1.52236   1.53062
 Alpha virt. eigenvalues --    1.57191   1.59911   1.60741   1.61035   1.62037
 Alpha virt. eigenvalues --    1.64942   1.65232   1.67434   1.70143   1.71603
 Alpha virt. eigenvalues --    1.74207   1.74272   1.75151   1.76392   1.78299
 Alpha virt. eigenvalues --    1.79648   1.82468   1.82976   1.83471   1.84349
 Alpha virt. eigenvalues --    1.85579   1.86714   1.86940   1.89085   1.89092
 Alpha virt. eigenvalues --    1.91938   1.92750   1.92787   1.94651   1.94811
 Alpha virt. eigenvalues --    1.96446   1.96663   1.96834   1.99482   2.01322
 Alpha virt. eigenvalues --    2.01661   2.02883   2.03643   2.04334   2.05433
 Alpha virt. eigenvalues --    2.06590   2.07586   2.10289   2.10512   2.11163
 Alpha virt. eigenvalues --    2.11693   2.14807   2.15655   2.16913   2.16938
 Alpha virt. eigenvalues --    2.17170   2.17967   2.18415   2.18520   2.20101
 Alpha virt. eigenvalues --    2.20380   2.20926   2.22546   2.23017   2.24109
 Alpha virt. eigenvalues --    2.24773   2.25267   2.25497   2.26264   2.27894
 Alpha virt. eigenvalues --    2.29256   2.30634   2.32048   2.32151   2.33191
 Alpha virt. eigenvalues --    2.33724   2.35032   2.35854   2.36041   2.36836
 Alpha virt. eigenvalues --    2.38839   2.40091   2.40928   2.42691   2.43205
 Alpha virt. eigenvalues --    2.43983   2.44048   2.44930   2.46148   2.46915
 Alpha virt. eigenvalues --    2.48550   2.49386   2.50653   2.50769   2.51877
 Alpha virt. eigenvalues --    2.53686   2.54070   2.54278   2.55658   2.58680
 Alpha virt. eigenvalues --    2.60077   2.60422   2.61556   2.61727   2.62680
 Alpha virt. eigenvalues --    2.63653   2.65777   2.68008   2.69819   2.72126
 Alpha virt. eigenvalues --    2.73028   2.76574   2.76643   2.80808   2.83001
 Alpha virt. eigenvalues --    2.83973   2.84361   2.86896   2.88131   2.89600
 Alpha virt. eigenvalues --    2.91475   2.91782   2.92479   2.93193   2.94251
 Alpha virt. eigenvalues --    2.95645   2.97102   2.97242   2.97275   2.98840
 Alpha virt. eigenvalues --    2.99863   3.00949   3.01167   3.02439   3.04486
 Alpha virt. eigenvalues --    3.08545   3.09646   3.09867   3.11660   3.12713
 Alpha virt. eigenvalues --    3.14752   3.15374   3.17055   3.19358   3.21819
 Alpha virt. eigenvalues --    3.25454   3.29357   3.31166   3.32169   3.34377
 Alpha virt. eigenvalues --    3.43998   3.48078   3.48110   3.53667   3.54941
 Alpha virt. eigenvalues --    3.62320   3.63231   3.64902   3.66606   3.66850
 Alpha virt. eigenvalues --    3.68564   3.69553   3.70094   3.71192   3.71214
 Alpha virt. eigenvalues --    3.71909   3.73402   3.73823   3.79249   3.80052
 Alpha virt. eigenvalues --    3.81137   3.83450   3.86079   3.86165   3.88813
 Alpha virt. eigenvalues --    3.89151   3.89900   3.91495   3.91868   3.93047
 Alpha virt. eigenvalues --    3.94589   3.95310   3.99150   3.99268   4.00366
 Alpha virt. eigenvalues --    4.02122   4.04304   4.06115   4.06374   4.09229
 Alpha virt. eigenvalues --    4.11490   4.12751   4.13796   4.16363   4.18647
 Alpha virt. eigenvalues --    4.18947   4.19383   4.19942   4.23712   4.26933
 Alpha virt. eigenvalues --    4.27357   4.31336   4.32451   4.33169   4.33793
 Alpha virt. eigenvalues --    4.35128   4.37142   4.38076   4.38577   4.41365
 Alpha virt. eigenvalues --    4.41578   4.42375   4.44125   4.45984   4.48920
 Alpha virt. eigenvalues --    4.50389   4.51601   4.54289   4.55510   4.58313
 Alpha virt. eigenvalues --    4.60637   4.61159   4.66266   4.68453   4.71883
 Alpha virt. eigenvalues --    4.72892   4.73851   4.78800   4.81623   4.82035
 Alpha virt. eigenvalues --    4.84212   4.84919   4.92088   4.94154   4.94503
 Alpha virt. eigenvalues --    4.96909   4.98541   5.02556   5.06220   5.13889
 Alpha virt. eigenvalues --    5.14490   5.15340   5.16369   5.16577   5.19080
 Alpha virt. eigenvalues --    5.20501   5.21501   5.24473   5.27483   5.27679
 Alpha virt. eigenvalues --    5.32848   5.36511   5.42556   5.43119   5.45687
 Alpha virt. eigenvalues --    5.46727   5.49515   5.51988   5.54142   5.55630
 Alpha virt. eigenvalues --    5.58998   5.60690   5.62249   5.62940   5.64243
 Alpha virt. eigenvalues --    5.64489   5.67019   5.67702   5.68186   5.69264
 Alpha virt. eigenvalues --    5.70583   5.71268   5.71892   5.72426   5.73558
 Alpha virt. eigenvalues --    5.73632   5.73865   5.74417   5.76437   5.76685
 Alpha virt. eigenvalues --    5.77231   5.77875   5.78106   5.79003   5.79140
 Alpha virt. eigenvalues --    5.79254   5.81668   5.87095   5.87429   5.97664
 Alpha virt. eigenvalues --    6.00287   6.02853   6.06973   6.11365   6.12448
 Alpha virt. eigenvalues --    6.14507   6.14962   6.16110   6.17335   6.20914
 Alpha virt. eigenvalues --    6.29740   6.34501   6.34910   6.38249   6.41568
 Alpha virt. eigenvalues --    6.45679   6.47775   6.48636   6.51921   6.53471
 Alpha virt. eigenvalues --    6.55335   6.55967   6.67669   6.79301   6.80009
 Alpha virt. eigenvalues --    6.82151   6.82395   6.83632   6.83676   6.84737
 Alpha virt. eigenvalues --    6.85099   6.86495   6.86756   6.87931   6.87957
 Alpha virt. eigenvalues --    6.89251   6.90525   6.91263   6.91731   6.93315
 Alpha virt. eigenvalues --    6.93622   6.93839   6.94021   6.94748   6.97068
 Alpha virt. eigenvalues --    6.97806   6.98203   6.99472   6.99887   7.00454
 Alpha virt. eigenvalues --    7.00993   7.02544   7.03176   7.04203   7.05555
 Alpha virt. eigenvalues --    7.05983   7.06488   7.08099   7.08586   7.08592
 Alpha virt. eigenvalues --    7.09224   7.09476   7.11120   7.11286   7.13011
 Alpha virt. eigenvalues --    7.14428   7.14505   7.14912   7.15873   7.17092
 Alpha virt. eigenvalues --    7.17276   7.17917   7.19038   7.20346   7.20450
 Alpha virt. eigenvalues --    7.21049   7.24125   7.24819   7.27039   7.28778
 Alpha virt. eigenvalues --    7.31354   7.33264   7.34704   7.35332   7.37121
 Alpha virt. eigenvalues --    7.37514   7.37565   7.38601   7.38979   7.44182
 Alpha virt. eigenvalues --    7.46756   7.48246   7.48850   7.49458   7.53617
 Alpha virt. eigenvalues --    7.53785   7.54472   7.55103   7.55814   7.55984
 Alpha virt. eigenvalues --    7.56497   7.56888   7.58605   7.59164   7.61224
 Alpha virt. eigenvalues --    7.61278   7.62519   7.63030   7.63670   7.64055
 Alpha virt. eigenvalues --    7.65059   7.65274   7.65497   7.66175   7.67378
 Alpha virt. eigenvalues --    7.67712   7.68430   7.68944   7.71471   7.71520
 Alpha virt. eigenvalues --    7.73142   7.73524   7.76393   7.76852   7.78491
 Alpha virt. eigenvalues --    7.81103   7.83402   7.84586   7.87858   7.89743
 Alpha virt. eigenvalues --    7.90027   7.92624   7.94194   7.95837   7.96892
 Alpha virt. eigenvalues --    7.98071   7.98351   8.00364   8.00956   8.02007
 Alpha virt. eigenvalues --    8.02066   8.04298   8.04781   8.06631   8.06806
 Alpha virt. eigenvalues --    8.09327   8.09518   8.13812   8.18136   8.19592
 Alpha virt. eigenvalues --    8.20648   8.23083   8.25279   8.25614   8.27498
 Alpha virt. eigenvalues --    8.29067   8.29130   8.31114   8.31551   8.32546
 Alpha virt. eigenvalues --    8.32988   8.35751   8.37653   8.39172   8.41686
 Alpha virt. eigenvalues --    8.42702   8.44872   8.47181   8.47619   8.48567
 Alpha virt. eigenvalues --    8.48677   8.50922   8.52498   8.53935   8.54709
 Alpha virt. eigenvalues --    8.57238   8.60667   8.61720   8.63821   8.64607
 Alpha virt. eigenvalues --    8.65486   8.67584   8.68581   8.71837   8.73460
 Alpha virt. eigenvalues --    8.75951   8.77964   8.78101   8.81368   8.83374
 Alpha virt. eigenvalues --    8.83387   8.86473   8.88005   8.92493   9.07595
 Alpha virt. eigenvalues --    9.18484   9.51894   9.53478   9.55170   9.56855
 Alpha virt. eigenvalues --    9.59461   9.59515   9.60727   9.61384   9.62778
 Alpha virt. eigenvalues --    9.63252   9.73026   9.92535   9.95523   9.96057
 Alpha virt. eigenvalues --    9.97504   9.98634   9.99806  10.00018  10.00337
 Alpha virt. eigenvalues --   10.03787  10.03842  10.08164  10.08431  10.22242
 Alpha virt. eigenvalues --   10.25823  10.34498  10.35290  10.37376  10.37850
 Alpha virt. eigenvalues --   10.39127  10.40447  10.40462  10.42395  10.42426
 Alpha virt. eigenvalues --   10.43060  10.44275  10.45404  10.49413  10.53370
 Alpha virt. eigenvalues --   10.55304  10.56865  10.58031  10.58367  10.58486
 Alpha virt. eigenvalues --   10.59444  10.63477  10.63943  10.69283  10.72211
 Alpha virt. eigenvalues --   10.72294  10.74036  10.74344  10.74725  10.76753
 Alpha virt. eigenvalues --   10.77743  10.84749  10.85975  10.86889  10.93027
 Alpha virt. eigenvalues --   10.95641  11.09588  11.13758  11.15132  11.18684
 Alpha virt. eigenvalues --   11.19977  11.20636  11.22744  11.23099  11.27436
 Alpha virt. eigenvalues --   11.34410  11.39212  11.39501  11.41790  11.42511
 Alpha virt. eigenvalues --   11.42825  11.47056  11.47276  11.47529  11.47846
 Alpha virt. eigenvalues --   11.50368  11.50419  11.51657  11.52910  11.53848
 Alpha virt. eigenvalues --   11.55077  11.55156  11.56455  11.57002  11.58213
 Alpha virt. eigenvalues --   11.59842  11.64028  11.66254  11.70178  11.70316
 Alpha virt. eigenvalues --   11.73554  11.74076  11.79908  11.80293  11.83411
 Alpha virt. eigenvalues --   11.88020  11.90649  11.93815  11.96193  12.00981
 Alpha virt. eigenvalues --   12.02715  12.11272  12.13507  12.20543  12.25455
 Alpha virt. eigenvalues --   12.34031  12.39322  12.40625  12.42578  12.43946
 Alpha virt. eigenvalues --   12.45550  12.46945  12.47279  12.60928  12.61843
 Alpha virt. eigenvalues --   12.68108  12.99196  12.99279  13.06165  13.13031
 Alpha virt. eigenvalues --   13.13139  13.19112  13.19862  13.28581  13.28674
 Alpha virt. eigenvalues --   13.30392  13.30463  13.34495  13.35696  13.36672
 Alpha virt. eigenvalues --   13.48780  13.48924  13.51818  13.51946  13.56346
 Alpha virt. eigenvalues --   13.62519  13.64709  13.67148  13.73070  13.73174
 Alpha virt. eigenvalues --   13.74697  13.75870  13.89559  14.15463  14.23893
 Alpha virt. eigenvalues --   14.24802  14.31944  14.35193  14.62159  14.65287
 Alpha virt. eigenvalues --   15.55301  16.11069  16.14123  16.14749  16.14758
 Alpha virt. eigenvalues --   16.17055  16.18287  16.19726  16.19997  16.24844
 Alpha virt. eigenvalues --   16.25361  16.27386  16.27436  16.32359  16.33694
 Alpha virt. eigenvalues --   48.19924  48.20082  48.26759  48.38654  48.39583
 Alpha virt. eigenvalues --   48.61841  48.73769 251.27937 251.28049 251.36634
 Alpha virt. eigenvalues --  251.49455 251.52061 251.80013 251.93792
          Condensed to atoms (all electrons):
               1          2          3          4          5          6
     1  O    7.914216   0.344345  -0.043779   0.082481  -0.016940   0.000289
     2  H    0.344345   0.326102   0.001305  -0.006457   0.026700  -0.000356
     3  O   -0.043779   0.001305   7.828077   0.329701   0.000004  -0.000372
     4  H    0.082481  -0.006457   0.329701   0.298974  -0.000834   0.000238
     5  O   -0.016940   0.026700   0.000004  -0.000834   7.975914  -0.016940
     6  O    0.000289  -0.000356  -0.000372   0.000238  -0.016940   7.914216
     7  H   -0.000356   0.000469  -0.000051  -0.000061   0.026700   0.344345
     8  O   -0.000372  -0.000051  -0.124106   0.004022   0.000004  -0.043779
     9  H    0.000238  -0.000061   0.004022   0.000461  -0.000834   0.082481
    10  H   -0.000756   0.000539   0.207620  -0.007883   0.000109  -0.000756
    11  H    0.000015   0.000005  -0.000007  -0.000001   0.000694   0.324806
    12  H    0.324806  -0.005504   0.002175  -0.006651   0.000694   0.000015
    13  H   -0.000020  -0.000022   0.002329   0.000233   0.000030  -0.001580
    14  H   -0.001580   0.000261   0.326293  -0.017940   0.000030  -0.000020
    15  O    0.000000  -0.000000  -0.000047   0.000061  -0.000000   0.000095
    16  O    0.000095   0.000036  -0.041209  -0.002891  -0.000000   0.000000
    17  H    0.000391  -0.002421  -0.000003   0.000053   0.336752   0.000306
    18  H    0.000306  -0.002312  -0.000002   0.000031   0.336752   0.000391
    19  H    0.000000   0.000000   0.000004  -0.000011  -0.000000   0.000015
    20  H    0.000000   0.000000  -0.000002  -0.000004  -0.000000   0.000010
    21  H    0.000010  -0.000002   0.002009   0.000381  -0.000000   0.000000
    22  H    0.000015  -0.000004   0.001713   0.000414  -0.000000   0.000000
               7          8          9         10         11         12
     1  O   -0.000356  -0.000372   0.000238  -0.000756   0.000015   0.324806
     2  H    0.000469  -0.000051  -0.000061   0.000539   0.000005  -0.005504
     3  O   -0.000051  -0.124106   0.004022   0.207620  -0.000007   0.002175
     4  H   -0.000061   0.004022   0.000461  -0.007883  -0.000001  -0.006651
     5  O    0.026700   0.000004  -0.000834   0.000109   0.000694   0.000694
     6  O    0.344345  -0.043779   0.082481  -0.000756   0.324806   0.000015
     7  H    0.326102   0.001305  -0.006457   0.000539  -0.005504   0.000005
     8  O    0.001305   7.828077   0.329701   0.207620   0.002175  -0.000007
     9  H   -0.006457   0.329701   0.298974  -0.007883  -0.006651  -0.000001
    10  H    0.000539   0.207620  -0.007883   0.284172   0.000083   0.000083
    11  H   -0.005504   0.002175  -0.006651   0.000083   0.344468  -0.000001
    12  H    0.000005  -0.000007  -0.000001   0.000083  -0.000001   0.344468
    13  H    0.000261   0.326293  -0.017940  -0.009807   0.000280  -0.000001
    14  H   -0.000022   0.002329   0.000233  -0.009807  -0.000001   0.000280
    15  O    0.000036  -0.041209  -0.002891  -0.001693   0.000006   0.000000
    16  O   -0.000000  -0.000047   0.000061  -0.001693   0.000000   0.000006
    17  H   -0.002312  -0.000002   0.000031  -0.000006   0.000051   0.000020
    18  H   -0.002421  -0.000003   0.000053  -0.000006   0.000020   0.000051
    19  H   -0.000004   0.001713   0.000414   0.000484  -0.000003  -0.000000
    20  H   -0.000002   0.002009   0.000381   0.000245  -0.000004  -0.000000
    21  H    0.000000  -0.000002  -0.000004   0.000245  -0.000000  -0.000004
    22  H    0.000000   0.000004  -0.000011   0.000484  -0.000000  -0.000003
              13         14         15         16         17         18
     1  O   -0.000020  -0.001580   0.000000   0.000095   0.000391   0.000306
     2  H   -0.000022   0.000261  -0.000000   0.000036  -0.002421  -0.002312
     3  O    0.002329   0.326293  -0.000047  -0.041209  -0.000003  -0.000002
     4  H    0.000233  -0.017940   0.000061  -0.002891   0.000053   0.000031
     5  O    0.000030   0.000030  -0.000000  -0.000000   0.336752   0.336752
     6  O   -0.001580  -0.000020   0.000095   0.000000   0.000306   0.000391
     7  H    0.000261  -0.000022   0.000036  -0.000000  -0.002312  -0.002421
     8  O    0.326293   0.002329  -0.041209  -0.000047  -0.000002  -0.000003
     9  H   -0.017940   0.000233  -0.002891   0.000061   0.000031   0.000053
    10  H   -0.009807  -0.009807  -0.001693  -0.001693  -0.000006  -0.000006
    11  H    0.000280  -0.000001   0.000006   0.000000   0.000051   0.000020
    12  H   -0.000001   0.000280   0.000000   0.000006   0.000020   0.000051
    13  H    0.292287   0.000523   0.086150   0.000012  -0.000001  -0.000001
    14  H    0.000523   0.292287   0.000012   0.086150  -0.000001  -0.000001
    15  O    0.086150   0.000012   7.912701  -0.000001  -0.000000  -0.000000
    16  O    0.000012   0.086150  -0.000001   7.912701  -0.000000  -0.000000
    17  H   -0.000001  -0.000001  -0.000000  -0.000000   0.315412  -0.014331
    18  H   -0.000001  -0.000001  -0.000000  -0.000000  -0.014331   0.315412
    19  H   -0.008695  -0.000010   0.320015  -0.000000   0.000000   0.000000
    20  H   -0.008115  -0.000005   0.319879   0.000000   0.000000  -0.000000
    21  H   -0.000005  -0.008115   0.000000   0.319879  -0.000000   0.000000
    22  H   -0.000010  -0.008695  -0.000000   0.320015   0.000000   0.000000
              19         20         21         22
     1  O    0.000000   0.000000   0.000010   0.000015
     2  H    0.000000   0.000000  -0.000002  -0.000004
     3  O    0.000004  -0.000002   0.002009   0.001713
     4  H   -0.000011  -0.000004   0.000381   0.000414
     5  O   -0.000000  -0.000000  -0.000000  -0.000000
     6  O    0.000015   0.000010   0.000000   0.000000
     7  H   -0.000004  -0.000002   0.000000   0.000000
     8  O    0.001713   0.002009  -0.000002   0.000004
     9  H    0.000414   0.000381  -0.000004  -0.000011
    10  H    0.000484   0.000245   0.000245   0.000484
    11  H   -0.000003  -0.000004  -0.000000  -0.000000
    12  H   -0.000000  -0.000000  -0.000004  -0.000003
    13  H   -0.008695  -0.008115  -0.000005  -0.000010
    14  H   -0.000010  -0.000005  -0.008115  -0.008695
    15  O    0.320015   0.319879   0.000000  -0.000000
    16  O   -0.000000   0.000000   0.319879   0.320015
    17  H    0.000000   0.000000  -0.000000   0.000000
    18  H    0.000000  -0.000000   0.000000   0.000000
    19  H    0.350151   0.003610   0.000000   0.000000
    20  H    0.003610   0.343282   0.000000   0.000000
    21  H    0.000000   0.000000   0.343282   0.003610
    22  H    0.000000   0.000000   0.003610   0.350151
 Mulliken charges:
               1
     1  O   -0.603403
     2  H    0.317430
     3  O   -0.495675
     4  H    0.325683
     5  O   -0.668836
     6  O   -0.603403
     7  H    0.317430
     8  O   -0.495675
     9  H    0.325683
    10  H    0.338067
    11  H    0.339569
    12  H    0.339569
    13  H    0.337800
    14  H    0.337800
    15  O   -0.593115
    16  O   -0.593115
    17  H    0.366062
    18  H    0.366062
    19  H    0.332317
    20  H    0.338716
    21  H    0.338716
    22  H    0.332317
 Sum of Mulliken charges =   1.00000
 Mulliken charges with hydrogens summed into heavy atoms:
               1
     1  O    0.053596
     3  O    0.505875
     5  O    0.063288
     6  O    0.053596
     8  O    0.167808
    15  O    0.077918
    16  O    0.077918
 Electronic spatial extent (au):  <R**2>=           2383.3700
 Charge=              1.0000 electrons
 Dipole moment (field-independent basis, Debye):
    X=              0.0000    Y=              0.0000    Z=              1.4310  Tot=              1.4310
 Quadrupole moment (field-independent basis, Debye-Ang):
   XX=            -25.2738   YY=            -16.5465   ZZ=             13.7584
   XY=             10.2676   XZ=              0.0000   YZ=              0.0000
 Traceless Quadrupole moment (field-independent basis, Debye-Ang):
   XX=            -15.9198   YY=             -7.1925   ZZ=             23.1124
   XY=             10.2676   XZ=              0.0000   YZ=              0.0000
 Octapole moment (field-independent basis, Debye-Ang**2):
  XXX=              0.0000  YYY=              0.0000  ZZZ=             67.0562  XYY=             -0.0000
  XXY=             -0.0000  XXZ=            -43.9454  XZZ=              0.0000  YZZ=              0.0000
  YYZ=            -37.4147  XYZ=            -60.2823
 Hexadecapole moment (field-independent basis, Debye-Ang**3):
 XXXX=           -154.1171 YYYY=           -646.2694 ZZZZ=           -399.5626 XXXY=            -51.5447
 XXXZ=             -0.0000 YYYX=           -145.0136 YYYZ=             -0.0000 ZZZX=              0.0000
 ZZZY=             -0.0000 XXYY=           -128.3588 XXZZ=            -79.9510 YYZZ=            -89.2905
 XXYZ=             -0.0000 YYXZ=              0.0000 ZZXY=             90.2929
 N-N= 3.612815511857D+02 E-N=-1.979007449307D+03  KE= 5.336940008066D+02
 PrsmSu:  requested number of processors reduced to:  20 ShMem   1 Linda.
 No NMR shielding tensors so no spin-rotation constants.
 Leave Link  601 at Sun Apr 18 05:19:59 2021, MaxMem=   104857600 cpu:             612.8 elap:              13.3
 (Enter /s/ls4/users/knvvv/bin/g16sse/l801.exe)
 DoSCS=F DFT=T ScalE2(SS,OS)=  1.000000  1.000000
 Range of M.O.s used for correlation:     1   849
 NBasis=   849 NAE=    35 NBE=    35 NFC=     0 NFV=     0
 NROrb=    849 NOA=    35 NOB=    35 NVA=   814 NVB=   814

 **** Warning!!: The largest alpha MO coefficient is  0.13735616D+02

 Leave Link  801 at Sun Apr 18 05:19:59 2021, MaxMem=   104857600 cpu:               4.6 elap:               0.1
 (Enter /s/ls4/users/knvvv/bin/g16sse/l914.exe)
 RHF ground state
 Doing stability rather than CIS.
 Two-electron integrals replicated using symmetry.
 MDV=   104857600 DFT=T DoStab=T Mixed=T DoRPA=F DoScal=F NonHer=F
 Making orbital integer symmetry assigments:
 Orbital symmetries:
       Occupied  (A) (B) (A) (B) (A) (B) (A) (A) (A) (B) (A) (B)
                 (A) (B) (A) (A) (B) (B) (A) (B) (A) (B) (B) (A)
                 (A) (B) (A) (B) (A) (B) (B) (A) (B) (A) (B)
       Virtual   (A) (A) (B) (B) (A) (B) (B) (A) (A) (A) (B) (A)
                 (B) (B) (A) (B) (A) (B) (A) (A) (B) (A) (B) (A)
                 (B) (B) (A) (A) (B) (A) (B) (A) (B) (A) (A) (B)
                 (B) (A) (B) (B) (A) (B) (A) (B) (A) (B) (A) (B)
                 (A) (A) (B) (A) (A) (B) (B) (A) (A) (B) (A) (A)
                 (B) (A) (B) (B) (A) (B) (A) (B) (A) (A) (B) (A)
                 (B) (B) (A) (B) (A) (A) (B) (A) (B) (B) (B) (A)
                 (A) (B) (A) (B) (B) (A) (B) (A) (A) (B) (B) (A)
                 (B) (A) (B) (A) (B) (B) (A) (A) (A) (B) (A) (B)
                 (B) (A) (A) (B) (A) (B) (A) (B) (B) (A) (A) (B)
                 (A) (B) (A) (B) (A) (A) (A) (B) (A) (B) (B) (A)
                 (B) (A) (B) (B) (A) (B) (A) (A) (B) (A) (B) (B)
                 (A) (A) (B) (A) (B) (A) (B) (B) (A) (B) (A) (B)
                 (A) (B) (B) (A) (B) (A) (B) (A) (A) (B) (A) (B)
                 (A) (B) (A) (A) (B) (A) (B) (B) (B) (A) (A) (B)
                 (A) (B) (B) (A) (A) (A) (B) (B) (A) (A) (B) (B)
                 (B) (A) (A) (B) (A) (B) (B) (A) (B) (A) (B) (A)
                 (B) (B) (A) (A) (B) (A) (A) (B) (B) (A) (A) (B)
                 (A) (A) (B) (B) (B) (A) (B) (A) (A) (B) (A) (B)
                 (A) (B) (A) (B) (A) (B) (B) (A) (B) (A) (B) (B)
                 (A) (A) (B) (A) (B) (B) (A) (A) (B) (A) (B) (A)
                 (B) (A) (B) (A) (A) (B) (A) (B) (A) (B) (A) (B)
                 (A) (B) (A) (B) (A) (B) (A) (B) (A) (B) (A) (A)
                 (B) (B) (A) (B) (A) (A) (B) (B) (A) (B) (A) (B)
                 (A) (A) (A) (B) (A) (B) (B) (B) (B) (A) (A) (A)
                 (B) (A) (A) (B) (B) (A) (B) (A) (A) (B) (B) (A)
                 (B) (B) (A) (B) (A) (B) (A) (B) (A) (B) (A) (B)
                 (A) (A) (B) (A) (B) (A) (B) (B) (B) (A) (A) (B)
                 (A) (A) (B) (A) (B) (B) (A) (A) (B) (B) (B) (A)
                 (A) (B) (B) (A) (A) (B) (B) (A) (A) (B) (A) (B)
                 (B) (A) (A) (A) (B) (A) (B) (A) (B) (A) (B) (A)
                 (B) (B) (A) (B) (A) (A) (A) (B) (B) (A) (A) (B)
                 (B) (A) (B) (B) (A) (A) (B) (A) (B) (B) (A) (A)
                 (B) (B) (A) (A) (B) (B) (A) (B) (A) (B) (A) (B)
                 (B) (B) (A) (B) (A) (B) (A) (A) (A) (A) (B) (B)
                 (B) (A) (A) (B) (A) (A) (B) (B) (A) (B) (A) (B)
                 (A) (B) (A) (A) (B) (A) (B) (A) (B) (A) (A) (B)
                 (B) (A) (A) (B) (B) (A) (B) (B) (A) (B) (A) (A)
                 (B) (B) (B) (A) (B) (A) (B) (A) (B) (A) (B) (A)
                 (B) (A) (B) (A) (B) (A) (A) (B) (A) (B) (A) (B)
                 (B) (A) (B) (A) (A) (B) (A) (B) (A) (B) (A) (B)
                 (B) (A) (B) (B) (A) (A) (B) (B) (B) (A) (A) (B)
                 (B) (A) (A) (B) (A) (B) (A) (A) (B) (B) (A) (B)
                 (A) (A) (B) (A) (A) (B) (A) (B) (B) (A) (B) (A)
                 (B) (A) (B) (A) (B) (B) (A) (B) (A) (B) (A) (A)
                 (B) (B) (A) (A) (B) (A) (A) (B) (B) (A) (B) (B)
                 (A) (A) (B) (B) (A) (A) (A) (B) (A) (B) (A) (A)
                 (B) (B) (A) (A) (B) (A) (B) (B) (A) (B) (A) (B)
                 (A) (B) (A) (B) (B) (A) (A) (B) (A) (A) (B) (A)
                 (B) (A) (B) (A) (B) (A) (B) (A) (A) (B) (B) (A)
                 (B) (A) (B) (A) (B) (A) (B) (A) (B) (A) (B) (B)
                 (A) (B) (A) (A) (B) (B) (A) (B) (B) (B) (A) (A)
                 (A) (B) (A) (B) (A) (B) (A) (B) (B) (A) (A) (A)
                 (B) (B) (A) (B) (A) (B) (A) (B) (A) (A) (B) (A)
                 (B) (A) (A) (B) (A) (B) (A) (B) (A) (B) (A) (A)
                 (B) (A) (B) (A) (B) (B) (A) (B) (A) (A) (B) (A)
                 (B) (B) (A) (A) (A) (B) (B) (A) (B) (B) (A) (B)
                 (A) (B) (A) (B) (B) (A) (B) (B) (A) (B) (A) (A)
                 (B) (B) (A) (B) (A) (A) (B) (B) (A) (B) (B) (B)
                 (A) (A) (A) (B) (A) (A) (B) (B) (A) (B) (A) (B)
                 (A) (A) (B) (A) (B) (A) (B) (A) (B) (A) (B) (A)
                 (A) (A) (B) (B) (B) (A) (A) (B) (A) (B) (B) (A)
                 (A) (B) (A) (B) (A) (B) (B) (A) (B) (B) (B) (A)
                 (A) (B) (A) (B) (A) (B) (A) (A) (B) (A) (B) (A)
                 (B) (B) (B) (A) (A) (B) (A) (B) (A) (A) (A) (B)
                 (A) (B) (A) (B) (A) (B) (A) (B) (B) (A) (A) (B)
                 (A) (B) (B) (A) (B) (A) (A) (B) (A) (B) (A) (B)
                 (A) (A) (B) (A) (B) (A) (B) (A) (A) (B)
    24 initial guesses have been made.
 Convergence on wavefunction:    0.001000000000000
 Davidson Disk Diagonalization:  ConvIn= 1.00D-03 SkipCon=T Conv= 1.00D-03.
 Max sub-space:  2000 roots to seek:    24 dimension of matrix:        56980
 Iteration     1 Dimension    24 NMult     0 NNew     24
 Estimated number of processors is:   10
 CISAX will form     1 AO SS matrices at one time.
 NMat=     1 NSing=     1 JSym2X= 2.
 FoFJK:  IHMeth= 1 ICntrl=       0 DoSepK=F KAlg= 0 I1Cent=           0 FoldK=F
 IRaf= 720000000 NMat=       1 IRICut=       1 DoRegI=T DoRafI=F ISym2E= 2 IDoP0=0 IntGTp=1.
 FoFCou: FMM=F IPFlag=           0 FMFlag=      100000 FMFlg1=           0
         NFxFlg=           0 DoJE=F BraDBF=F KetDBF=F FulRan=T
         wScrn=  0.000000 ICntrl=         0 IOpCl=  0 I1Cent=           0 NGrid=           0
         NMat0=    1 NMatS0=      1 NMatT0=    0 NMatD0=    1 NMtDS0=    0 NMtDT0=    0
 Integrals replicated using symmetry in FoFCou.
 CoulSu:  requested number of processors reduced to:  16 ShMem   1 Linda.
 CalDSu:  requested number of processors reduced to:  31 ShMem   1 Linda.
 NMat=     1 NSing=     1 JSym2X= 2.
 CoulSu:  requested number of processors reduced to:  16 ShMem   1 Linda.
 CalDSu:  requested number of processors reduced to:  31 ShMem   1 Linda.
 NMat=     1 NSing=     1 JSym2X= 2.
 CoulSu:  requested number of processors reduced to:  16 ShMem   1 Linda.
 CalDSu:  requested number of processors reduced to:  31 ShMem   1 Linda.
 NMat=     1 NSing=     1 JSym2X= 2.
 CoulSu:  requested number of processors reduced to:  16 ShMem   1 Linda.
 CalDSu:  requested number of processors reduced to:  31 ShMem   1 Linda.
 NMat=     1 NSing=     1 JSym2X= 2.
 CoulSu:  requested number of processors reduced to:  16 ShMem   1 Linda.
 CalDSu:  requested number of processors reduced to:  31 ShMem   1 Linda.
 NMat=     1 NSing=     1 JSym2X= 2.
 CoulSu:  requested number of processors reduced to:  16 ShMem   1 Linda.
 CalDSu:  requested number of processors reduced to:  31 ShMem   1 Linda.
 NMat=     1 NSing=     1 JSym2X= 2.
 CoulSu:  requested number of processors reduced to:  16 ShMem   1 Linda.
 CalDSu:  requested number of processors reduced to:  31 ShMem   1 Linda.
 NMat=     1 NSing=     1 JSym2X= 2.
 CoulSu:  requested number of processors reduced to:  16 ShMem   1 Linda.
 CalDSu:  requested number of processors reduced to:  31 ShMem   1 Linda.
 NMat=     1 NSing=     1 JSym2X= 2.
 CoulSu:  requested number of processors reduced to:  16 ShMem   1 Linda.
 CalDSu:  requested number of processors reduced to:  31 ShMem   1 Linda.
 NMat=     1 NSing=     1 JSym2X= 2.
 CoulSu:  requested number of processors reduced to:  16 ShMem   1 Linda.
 CalDSu:  requested number of processors reduced to:  31 ShMem   1 Linda.
 NMat=     1 NSing=     1 JSym2X= 2.
 CoulSu:  requested number of processors reduced to:  16 ShMem   1 Linda.
 CalDSu:  requested number of processors reduced to:  31 ShMem   1 Linda.
 NMat=     1 NSing=     1 JSym2X= 2.
 CoulSu:  requested number of processors reduced to:  16 ShMem   1 Linda.
 CalDSu:  requested number of processors reduced to:  31 ShMem   1 Linda.
 NMat=     1 NSing=     0 JSym2X= 2.
 CoulSu:  requested number of processors reduced to:  16 ShMem   1 Linda.
 CalDSu:  requested number of processors reduced to:  31 ShMem   1 Linda.
 NMat=     1 NSing=     0 JSym2X= 2.
 CoulSu:  requested number of processors reduced to:  16 ShMem   1 Linda.
 CalDSu:  requested number of processors reduced to:  31 ShMem   1 Linda.
 NMat=     1 NSing=     0 JSym2X= 2.
 CoulSu:  requested number of processors reduced to:  16 ShMem   1 Linda.
 CalDSu:  requested number of processors reduced to:  31 ShMem   1 Linda.
 NMat=     1 NSing=     0 JSym2X= 2.
 CoulSu:  requested number of processors reduced to:  16 ShMem   1 Linda.
 CalDSu:  requested number of processors reduced to:  31 ShMem   1 Linda.
 NMat=     1 NSing=     0 JSym2X= 2.
 CoulSu:  requested number of processors reduced to:  16 ShMem   1 Linda.
 CalDSu:  requested number of processors reduced to:  31 ShMem   1 Linda.
 NMat=     1 NSing=     0 JSym2X= 2.
 CoulSu:  requested number of processors reduced to:  16 ShMem   1 Linda.
 CalDSu:  requested number of processors reduced to:  31 ShMem   1 Linda.
 NMat=     1 NSing=     0 JSym2X= 2.
 CoulSu:  requested number of processors reduced to:  16 ShMem   1 Linda.
 CalDSu:  requested number of processors reduced to:  31 ShMem   1 Linda.
 NMat=     1 NSing=     0 JSym2X= 2.
 CoulSu:  requested number of processors reduced to:  16 ShMem   1 Linda.
 CalDSu:  requested number of processors reduced to:  31 ShMem   1 Linda.
 NMat=     1 NSing=     0 JSym2X= 2.
 CoulSu:  requested number of processors reduced to:  16 ShMem   1 Linda.
 CalDSu:  requested number of processors reduced to:  31 ShMem   1 Linda.
 NMat=     1 NSing=     0 JSym2X= 2.
 CoulSu:  requested number of processors reduced to:  16 ShMem   1 Linda.
 CalDSu:  requested number of processors reduced to:  31 ShMem   1 Linda.
 NMat=     1 NSing=     0 JSym2X= 2.
 CoulSu:  requested number of processors reduced to:  16 ShMem   1 Linda.
 CalDSu:  requested number of processors reduced to:  31 ShMem   1 Linda.
 NMat=     1 NSing=     0 JSym2X= 2.
 CoulSu:  requested number of processors reduced to:  16 ShMem   1 Linda.
 CalDSu:  requested number of processors reduced to:  31 ShMem   1 Linda.
 New state      1 was old state     16
 Excitation Energies [eV] at current iteration:
 Root      1 :     9.336286301351089
 Root      2 :     9.472990366809674
 Root      3 :     9.523872972437106
 Root      4 :     9.525343894919844
 Root      5 :     9.530273733182099
 Root      6 :     9.703771272187629
 Root      7 :    10.045566468352730
 Root      8 :    10.132102371083120
 Root      9 :    10.186798785475290
 Root     10 :    10.255758361985480
 Root     11 :    10.484761008335980
 Root     12 :    10.515371953786330
 Root     13 :    10.835589211143040
 Root     14 :    10.841819881743550
 Root     15 :    10.874255091139070
 Root     16 :    10.889320391986940
 Root     17 :    10.938318025323170
 Root     18 :    10.965476266558150
 Root     19 :    10.978208763910110
 Root     20 :    10.983254132078400
 Root     21 :    10.991256612731780
 Root     22 :    10.991541479779750
 Root     23 :    11.333712990720790
 Root     24 :    11.336583031107280
 Iteration     2 Dimension    48 NMult    24 NNew     24
 Estimated number of processors is:   10
 CISAX will form     1 AO SS matrices at one time.
 NMat=     1 NSing=     1 JSym2X= 2.
 CoulSu:  requested number of processors reduced to:  16 ShMem   1 Linda.
 CalDSu:  requested number of processors reduced to:  31 ShMem   1 Linda.
 NMat=     1 NSing=     1 JSym2X= 2.
 CoulSu:  requested number of processors reduced to:  16 ShMem   1 Linda.
 CalDSu:  requested number of processors reduced to:  31 ShMem   1 Linda.
 NMat=     1 NSing=     1 JSym2X= 2.
 CoulSu:  requested number of processors reduced to:  16 ShMem   1 Linda.
 CalDSu:  requested number of processors reduced to:  31 ShMem   1 Linda.
 NMat=     1 NSing=     1 JSym2X= 2.
 CoulSu:  requested number of processors reduced to:  16 ShMem   1 Linda.
 CalDSu:  requested number of processors reduced to:  31 ShMem   1 Linda.
 NMat=     1 NSing=     1 JSym2X= 2.
 CoulSu:  requested number of processors reduced to:  16 ShMem   1 Linda.
 CalDSu:  requested number of processors reduced to:  31 ShMem   1 Linda.
 NMat=     1 NSing=     1 JSym2X= 2.
 CoulSu:  requested number of processors reduced to:  16 ShMem   1 Linda.
 CalDSu:  requested number of processors reduced to:  31 ShMem   1 Linda.
 NMat=     1 NSing=     1 JSym2X= 2.
 CoulSu:  requested number of processors reduced to:  16 ShMem   1 Linda.
 CalDSu:  requested number of processors reduced to:  31 ShMem   1 Linda.
 NMat=     1 NSing=     1 JSym2X= 2.
 CoulSu:  requested number of processors reduced to:  16 ShMem   1 Linda.
 CalDSu:  requested number of processors reduced to:  31 ShMem   1 Linda.
 NMat=     1 NSing=     1 JSym2X= 2.
 CoulSu:  requested number of processors reduced to:  16 ShMem   1 Linda.
 CalDSu:  requested number of processors reduced to:  31 ShMem   1 Linda.
 NMat=     1 NSing=     1 JSym2X= 2.
 CoulSu:  requested number of processors reduced to:  16 ShMem   1 Linda.
 CalDSu:  requested number of processors reduced to:  31 ShMem   1 Linda.
 NMat=     1 NSing=     1 JSym2X= 2.
 CoulSu:  requested number of processors reduced to:  16 ShMem   1 Linda.
 CalDSu:  requested number of processors reduced to:  31 ShMem   1 Linda.
 NMat=     1 NSing=     1 JSym2X= 2.
 CoulSu:  requested number of processors reduced to:  16 ShMem   1 Linda.
 CalDSu:  requested number of processors reduced to:  31 ShMem   1 Linda.
 NMat=     1 NSing=     0 JSym2X= 2.
 CoulSu:  requested number of processors reduced to:  16 ShMem   1 Linda.
 CalDSu:  requested number of processors reduced to:  31 ShMem   1 Linda.
 NMat=     1 NSing=     0 JSym2X= 2.
 CoulSu:  requested number of processors reduced to:  16 ShMem   1 Linda.
 CalDSu:  requested number of processors reduced to:  31 ShMem   1 Linda.
 NMat=     1 NSing=     0 JSym2X= 2.
 CoulSu:  requested number of processors reduced to:  16 ShMem   1 Linda.
 CalDSu:  requested number of processors reduced to:  31 ShMem   1 Linda.
 NMat=     1 NSing=     0 JSym2X= 2.
 CoulSu:  requested number of processors reduced to:  16 ShMem   1 Linda.
 CalDSu:  requested number of processors reduced to:  31 ShMem   1 Linda.
 NMat=     1 NSing=     0 JSym2X= 2.
 CoulSu:  requested number of processors reduced to:  16 ShMem   1 Linda.
 CalDSu:  requested number of processors reduced to:  31 ShMem   1 Linda.
 NMat=     1 NSing=     0 JSym2X= 2.
 CoulSu:  requested number of processors reduced to:  16 ShMem   1 Linda.
 CalDSu:  requested number of processors reduced to:  31 ShMem   1 Linda.
 NMat=     1 NSing=     0 JSym2X= 2.
 CoulSu:  requested number of processors reduced to:  16 ShMem   1 Linda.
 CalDSu:  requested number of processors reduced to:  31 ShMem   1 Linda.
 NMat=     1 NSing=     0 JSym2X= 2.
 CoulSu:  requested number of processors reduced to:  16 ShMem   1 Linda.
 CalDSu:  requested number of processors reduced to:  31 ShMem   1 Linda.
 NMat=     1 NSing=     0 JSym2X= 2.
 CoulSu:  requested number of processors reduced to:  16 ShMem   1 Linda.
 CalDSu:  requested number of processors reduced to:  31 ShMem   1 Linda.
 NMat=     1 NSing=     0 JSym2X= 2.
 CoulSu:  requested number of processors reduced to:  16 ShMem   1 Linda.
 CalDSu:  requested number of processors reduced to:  31 ShMem   1 Linda.
 NMat=     1 NSing=     0 JSym2X= 2.
 CoulSu:  requested number of processors reduced to:  16 ShMem   1 Linda.
 CalDSu:  requested number of processors reduced to:  31 ShMem   1 Linda.
 NMat=     1 NSing=     0 JSym2X= 2.
 CoulSu:  requested number of processors reduced to:  16 ShMem   1 Linda.
 CalDSu:  requested number of processors reduced to:  31 ShMem   1 Linda.
 Root      1 not converged, maximum delta is    0.171499437420966
 Excitation Energies [eV] at current iteration:
 Root      1 :     8.258555062203470   Change is   -1.077731239147619
 Root      2 :     8.262952659360522   Change is   -1.782613808992209
 Root      3 :     8.282615265017078   Change is   -1.849487106066040
 Root      4 :     8.401204801352346   Change is   -1.071785565457326
 Root      5 :     8.462028214936554   Change is   -1.068245518245546
 Root      6 :     9.054999100228809   Change is   -0.468873872208298
 Root      7 :     9.066231722561303   Change is   -0.459112172358542
 Root      8 :     9.116710538544222   Change is   -1.139047823441260
 Root      9 :     9.149529624386338   Change is   -1.037269161088952
 Root     10 :     9.342565060540052   Change is   -0.361206211647578
[...]
 Alpha virt. eigenvalues --    2.63653   2.65777   2.68008   2.69819   2.72126
 Alpha virt. eigenvalues --    2.73028   2.76574   2.76643   2.80808   2.83001
 Alpha virt. eigenvalues --    2.83973   2.84361   2.86896   2.88131   2.89600
 Alpha virt. eigenvalues --    2.91475   2.91782   2.92479   2.93193   2.94251
 Alpha virt. eigenvalues --    2.95645   2.97102   2.97242   2.97275   2.98840
 Alpha virt. eigenvalues --    2.99863   3.00949   3.01167   3.02439   3.04486
 Alpha virt. eigenvalues --    3.08545   3.09646   3.09867   3.11660   3.12713
 Alpha virt. eigenvalues --    3.14752   3.15374   3.17055   3.19358   3.21819
 Alpha virt. eigenvalues --    3.25454   3.29357   3.31166   3.32169   3.34377
 Alpha virt. eigenvalues --    3.43998   3.48078   3.48110   3.53667   3.54941
 Alpha virt. eigenvalues --    3.62320   3.63231   3.64902   3.66606   3.66850
 Alpha virt. eigenvalues --    3.68564   3.69553   3.70094   3.71192   3.71214
 Alpha virt. eigenvalues --    3.71909   3.73402   3.73823   3.79249   3.80052
 Alpha virt. eigenvalues --    3.81137   3.83450   3.86079   3.86165   3.88813
 Alpha virt. eigenvalues --    3.89151   3.89900   3.91495   3.91868   3.93047
 Alpha virt. eigenvalues --    3.94589   3.95310   3.99150   3.99268   4.00366
 Alpha virt. eigenvalues --    4.02122   4.04304   4.06115   4.06374   4.09229
 Alpha virt. eigenvalues --    4.11490   4.12751   4.13796   4.16363   4.18647
 Alpha virt. eigenvalues --    4.18947   4.19383   4.19942   4.23712   4.26933
 Alpha virt. eigenvalues --    4.27357   4.31336   4.32451   4.33169   4.33793
 Alpha virt. eigenvalues --    4.35128   4.37142   4.38076   4.38577   4.41365
 Alpha virt. eigenvalues --    4.41578   4.42375   4.44125   4.45984   4.48920
 Alpha virt. eigenvalues --    4.50389   4.51601   4.54289   4.55510   4.58313
 Alpha virt. eigenvalues --    4.60637   4.61159   4.66266   4.68453   4.71883
 Alpha virt. eigenvalues --    4.72892   4.73851   4.78800   4.81623   4.82035
 Alpha virt. eigenvalues --    4.84212   4.84919   4.92088   4.94154   4.94503
 Alpha virt. eigenvalues --    4.96909   4.98541   5.02556   5.06220   5.13889
 Alpha virt. eigenvalues --    5.14490   5.15340   5.16369   5.16577   5.19080
 Alpha virt. eigenvalues --    5.20501   5.21501   5.24473   5.27483   5.27679
 Alpha virt. eigenvalues --    5.32848   5.36511   5.42556   5.43119   5.45687
 Alpha virt. eigenvalues --    5.46727   5.49515   5.51988   5.54142   5.55630
 Alpha virt. eigenvalues --    5.58998   5.60690   5.62249   5.62940   5.64243
 Alpha virt. eigenvalues --    5.64489   5.67019   5.67702   5.68186   5.69264
 Alpha virt. eigenvalues --    5.70583   5.71268   5.71892   5.72426   5.73558
 Alpha virt. eigenvalues --    5.73632   5.73865   5.74417   5.76437   5.76685
 Alpha virt. eigenvalues --    5.77231   5.77875   5.78106   5.79003   5.79140
 Alpha virt. eigenvalues --    5.79254   5.81668   5.87095   5.87429   5.97664
 Alpha virt. eigenvalues --    6.00287   6.02853   6.06973   6.11365   6.12448
 Alpha virt. eigenvalues --    6.14507   6.14962   6.16110   6.17335   6.20914
 Alpha virt. eigenvalues --    6.29740   6.34501   6.34910   6.38249   6.41568
 Alpha virt. eigenvalues --    6.45679   6.47775   6.48636   6.51921   6.53471
 Alpha virt. eigenvalues --    6.55335   6.55967   6.67669   6.79301   6.80009
 Alpha virt. eigenvalues --    6.82151   6.82395   6.83632   6.83676   6.84737
 Alpha virt. eigenvalues --    6.85099   6.86495   6.86756   6.87931   6.87957
 Alpha virt. eigenvalues --    6.89251   6.90525   6.91263   6.91731   6.93315
 Alpha virt. eigenvalues --    6.93622   6.93839   6.94021   6.94748   6.97068
 Alpha virt. eigenvalues --    6.97806   6.98203   6.99472   6.99887   7.00454
 Alpha virt. eigenvalues --    7.00993   7.02544   7.03176   7.04203   7.05555
 Alpha virt. eigenvalues --    7.05983   7.06488   7.08099   7.08586   7.08592
 Alpha virt. eigenvalues --    7.09224   7.09476   7.11120   7.11286   7.13011
 Alpha virt. eigenvalues --    7.14428   7.14505   7.14912   7.15873   7.17092
 Alpha virt. eigenvalues --    7.17276   7.17917   7.19038   7.20346   7.20450
 Alpha virt. eigenvalues --    7.21049   7.24125   7.24819   7.27039   7.28778
 Alpha virt. eigenvalues --    7.31354   7.33264   7.34704   7.35332   7.37121
 Alpha virt. eigenvalues --    7.37514   7.37565   7.38601   7.38979   7.44182
 Alpha virt. eigenvalues --    7.46756   7.48246   7.48850   7.49458   7.53617
 Alpha virt. eigenvalues --    7.53785   7.54472   7.55103   7.55814   7.55984
 Alpha virt. eigenvalues --    7.56497   7.56888   7.58605   7.59164   7.61224
 Alpha virt. eigenvalues --    7.61278   7.62519   7.63030   7.63670   7.64055
 Alpha virt. eigenvalues --    7.65059   7.65274   7.65497   7.66175   7.67378
 Alpha virt. eigenvalues --    7.67712   7.68430   7.68944   7.71471   7.71520
 Alpha virt. eigenvalues --    7.73142   7.73524   7.76393   7.76852   7.78491
 Alpha virt. eigenvalues --    7.81103   7.83402   7.84586   7.87858   7.89743
 Alpha virt. eigenvalues --    7.90027   7.92624   7.94194   7.95837   7.96892
 Alpha virt. eigenvalues --    7.98071   7.98351   8.00364   8.00956   8.02007
 Alpha virt. eigenvalues --    8.02066   8.04298   8.04781   8.06631   8.06806
 Alpha virt. eigenvalues --    8.09327   8.09518   8.13812   8.18136   8.19592
 Alpha virt. eigenvalues --    8.20648   8.23083   8.25279   8.25614   8.27498
 Alpha virt. eigenvalues --    8.29067   8.29130   8.31114   8.31551   8.32546
 Alpha virt. eigenvalues --    8.32988   8.35751   8.37653   8.39172   8.41686
 Alpha virt. eigenvalues --    8.42702   8.44872   8.47181   8.47619   8.48567
 Alpha virt. eigenvalues --    8.48677   8.50922   8.52498   8.53935   8.54709
 Alpha virt. eigenvalues --    8.57238   8.60667   8.61720   8.63821   8.64607
 Alpha virt. eigenvalues --    8.65486   8.67584   8.68581   8.71837   8.73460
 Alpha virt. eigenvalues --    8.75951   8.77964   8.78101   8.81368   8.83374
 Alpha virt. eigenvalues --    8.83387   8.86473   8.88005   8.92493   9.07595
 Alpha virt. eigenvalues --    9.18484   9.51894   9.53478   9.55170   9.56855
 Alpha virt. eigenvalues --    9.59461   9.59515   9.60727   9.61384   9.62778
 Alpha virt. eigenvalues --    9.63252   9.73026   9.92535   9.95523   9.96057
 Alpha virt. eigenvalues --    9.97504   9.98634   9.99806  10.00018  10.00337
 Alpha virt. eigenvalues --   10.03787  10.03842  10.08164  10.08431  10.22242
 Alpha virt. eigenvalues --   10.25823  10.34498  10.35290  10.37376  10.37850
 Alpha virt. eigenvalues --   10.39127  10.40447  10.40462  10.42395  10.42426
 Alpha virt. eigenvalues --   10.43060  10.44275  10.45404  10.49413  10.53370
 Alpha virt. eigenvalues --   10.55304  10.56865  10.58031  10.58367  10.58486
 Alpha virt. eigenvalues --   10.59444  10.63477  10.63943  10.69283  10.72211
 Alpha virt. eigenvalues --   10.72294  10.74036  10.74344  10.74725  10.76753
 Alpha virt. eigenvalues --   10.77743  10.84749  10.85975  10.86889  10.93027
 Alpha virt. eigenvalues --   10.95641  11.09588  11.13758  11.15132  11.18684
 Alpha virt. eigenvalues --   11.19977  11.20636  11.22744  11.23099  11.27436
 Alpha virt. eigenvalues --   11.34410  11.39212  11.39501  11.41790  11.42511
 Alpha virt. eigenvalues --   11.42825  11.47056  11.47276  11.47529  11.47846
 Alpha virt. eigenvalues --   11.50368  11.50419  11.51657  11.52910  11.53848
 Alpha virt. eigenvalues --   11.55077  11.55156  11.56455  11.57002  11.58213
 Alpha virt. eigenvalues --   11.59842  11.64028  11.66254  11.70178  11.70316
 Alpha virt. eigenvalues --   11.73554  11.74076  11.79908  11.80293  11.83411
 Alpha virt. eigenvalues --   11.88020  11.90649  11.93815  11.96193  12.00981
 Alpha virt. eigenvalues --   12.02715  12.11272  12.13507  12.20543  12.25455
 Alpha virt. eigenvalues --   12.34031  12.39322  12.40625  12.42578  12.43946
 Alpha virt. eigenvalues --   12.45550  12.46945  12.47279  12.60928  12.61843
 Alpha virt. eigenvalues --   12.68108  12.99196  12.99279  13.06165  13.13031
 Alpha virt. eigenvalues --   13.13139  13.19112  13.19862  13.28581  13.28674
 Alpha virt. eigenvalues --   13.30392  13.30463  13.34495  13.35696  13.36672
 Alpha virt. eigenvalues --   13.48780  13.48924  13.51818  13.51946  13.56346
 Alpha virt. eigenvalues --   13.62519  13.64709  13.67148  13.73070  13.73174
 Alpha virt. eigenvalues --   13.74697  13.75870  13.89559  14.15463  14.23893
 Alpha virt. eigenvalues --   14.24802  14.31944  14.35193  14.62159  14.65287
 Alpha virt. eigenvalues --   15.55301  16.11069  16.14123  16.14749  16.14758
 Alpha virt. eigenvalues --   16.17055  16.18287  16.19726  16.19997  16.24844
 Alpha virt. eigenvalues --   16.25361  16.27386  16.27436  16.32359  16.33694
 Alpha virt. eigenvalues --   48.19924  48.20082  48.26759  48.38654  48.39583
 Alpha virt. eigenvalues --   48.61841  48.73769 251.27937 251.28049 251.36634
 Alpha virt. eigenvalues --  251.49455 251.52061 251.80013 251.93792
          Condensed to atoms (all electrons):
               1          2          3          4          5          6
     1  O    7.914216   0.344345  -0.043779   0.082481  -0.016940   0.000289
     2  H    0.344345   0.326102   0.001305  -0.006457   0.026700  -0.000356
     3  O   -0.043779   0.001305   7.828077   0.329701   0.000004  -0.000372
     4  H    0.082481  -0.006457   0.329701   0.298974  -0.000834   0.000238
     5  O   -0.016940   0.026700   0.000004  -0.000834   7.975914  -0.016940
     6  O    0.000289  -0.000356  -0.000372   0.000238  -0.016940   7.914216
     7  H   -0.000356   0.000469  -0.000051  -0.000061   0.026700   0.344345
     8  O   -0.000372  -0.000051  -0.124106   0.004022   0.000004  -0.043779
     9  H    0.000238  -0.000061   0.004022   0.000461  -0.000834   0.082481
    10  H   -0.000756   0.000539   0.207620  -0.007883   0.000109  -0.000756
    11  H    0.000015   0.000005  -0.000007  -0.000001   0.000694   0.324806
    12  H    0.324806  -0.005504   0.002175  -0.006651   0.000694   0.000015
    13  H   -0.000020  -0.000022   0.002329   0.000233   0.000030  -0.001580
    14  H   -0.001580   0.000261   0.326293  -0.017940   0.000030  -0.000020
    15  O    0.000000  -0.000000  -0.000047   0.000061  -0.000000   0.000095
    16  O    0.000095   0.000036  -0.041209  -0.002891  -0.000000   0.000000
    17  H    0.000391  -0.002421  -0.000003   0.000053   0.336752   0.000306
    18  H    0.000306  -0.002312  -0.000002   0.000031   0.336752   0.000391
    19  H    0.000000   0.000000   0.000004  -0.000011  -0.000000   0.000015
    20  H    0.000000   0.000000  -0.000002  -0.000004  -0.000000   0.000010
    21  H    0.000010  -0.000002   0.002009   0.000381  -0.000000   0.000000
    22  H    0.000015  -0.000004   0.001713   0.000414  -0.000000   0.000000
               7          8          9         10         11         12
     1  O   -0.000356  -0.000372   0.000238  -0.000756   0.000015   0.324806
     2  H    0.000469  -0.000051  -0.000061   0.000539   0.000005  -0.005504
     3  O   -0.000051  -0.124106   0.004022   0.207620  -0.000007   0.002175
     4  H   -0.000061   0.004022   0.000461  -0.007883  -0.000001  -0.006651
     5  O    0.026700   0.000004  -0.000834   0.000109   0.000694   0.000694
     6  O    0.344345  -0.043779   0.082481  -0.000756   0.324806   0.000015
     7  H    0.326102   0.001305  -0.006457   0.000539  -0.005504   0.000005
     8  O    0.001305   7.828077   0.329701   0.207620   0.002175  -0.000007
     9  H   -0.006457   0.329701   0.298974  -0.007883  -0.006651  -0.000001
    10  H    0.000539   0.207620  -0.007883   0.284172   0.000083   0.000083
    11  H   -0.005504   0.002175  -0.006651   0.000083   0.344468  -0.000001
    12  H    0.000005  -0.000007  -0.000001   0.000083  -0.000001   0.344468
    13  H    0.000261   0.326293  -0.017940  -0.009807   0.000280  -0.000001
    14  H   -0.000022   0.002329   0.000233  -0.009807  -0.000001   0.000280
    15  O    0.000036  -0.041209  -0.002891  -0.001693   0.000006   0.000000
    16  O   -0.000000  -0.000047   0.000061  -0.001693   0.000000   0.000006
    17  H   -0.002312  -0.000002   0.000031  -0.000006   0.000051   0.000020
    18  H   -0.002421  -0.000003   0.000053  -0.000006   0.000020   0.000051
    19  H   -0.000004   0.001713   0.000414   0.000484  -0.000003  -0.000000
    20  H   -0.000002   0.002009   0.000381   0.000245  -0.000004  -0.000000
    21  H    0.000000  -0.000002  -0.000004   0.000245  -0.000000  -0.000004
    22  H    0.000000   0.000004  -0.000011   0.000484  -0.000000  -0.000003
              13         14         15         16         17         18
     1  O   -0.000020  -0.001580   0.000000   0.000095   0.000391   0.000306
     2  H   -0.000022   0.000261  -0.000000   0.000036  -0.002421  -0.002312
     3  O    0.002329   0.326293  -0.000047  -0.041209  -0.000003  -0.000002
     4  H    0.000233  -0.017940   0.000061  -0.002891   0.000053   0.000031
     5  O    0.000030   0.000030  -0.000000  -0.000000   0.336752   0.336752
     6  O   -0.001580  -0.000020   0.000095   0.000000   0.000306   0.000391
     7  H    0.000261  -0.000022   0.000036  -0.000000  -0.002312  -0.002421
     8  O    0.326293   0.002329  -0.041209  -0.000047  -0.000002  -0.000003
     9  H   -0.017940   0.000233  -0.002891   0.000061   0.000031   0.000053
    10  H   -0.009807  -0.009807  -0.001693  -0.001693  -0.000006  -0.000006
    11  H    0.000280  -0.000001   0.000006   0.000000   0.000051   0.000020
    12  H   -0.000001   0.000280   0.000000   0.000006   0.000020   0.000051
    13  H    0.292287   0.000523   0.086150   0.000012  -0.000001  -0.000001
    14  H    0.000523   0.292287   0.000012   0.086150  -0.000001  -0.000001
    15  O    0.086150   0.000012   7.912701  -0.000001  -0.000000  -0.000000
    16  O    0.000012   0.086150  -0.000001   7.912701  -0.000000  -0.000000
    17  H   -0.000001  -0.000001  -0.000000  -0.000000   0.315412  -0.014331
    18  H   -0.000001  -0.000001  -0.000000  -0.000000  -0.014331   0.315412
    19  H   -0.008695  -0.000010   0.320015  -0.000000   0.000000   0.000000
    20  H   -0.008115  -0.000005   0.319879   0.000000   0.000000  -0.000000
    21  H   -0.000005  -0.008115   0.000000   0.319879  -0.000000   0.000000
    22  H   -0.000010  -0.008695  -0.000000   0.320015   0.000000   0.000000
              19         20         21         22
     1  O    0.000000   0.000000   0.000010   0.000015
     2  H    0.000000   0.000000  -0.000002  -0.000004
     3  O    0.000004  -0.000002   0.002009   0.001713
     4  H   -0.000011  -0.000004   0.000381   0.000414
     5  O   -0.000000  -0.000000  -0.000000  -0.000000
     6  O    0.000015   0.000010   0.000000   0.000000
     7  H   -0.000004  -0.000002   0.000000   0.000000
     8  O    0.001713   0.002009  -0.000002   0.000004
     9  H    0.000414   0.000381  -0.000004  -0.000011
    10  H    0.000484   0.000245   0.000245   0.000484
    11  H   -0.000003  -0.000004  -0.000000  -0.000000
    12  H   -0.000000  -0.000000  -0.000004  -0.000003
    13  H   -0.008695  -0.008115  -0.000005  -0.000010
    14  H   -0.000010  -0.000005  -0.008115  -0.008695
    15  O    0.320015   0.319879   0.000000  -0.000000
    16  O   -0.000000   0.000000   0.319879   0.320015
    17  H    0.000000   0.000000  -0.000000   0.000000
    18  H    0.000000  -0.000000   0.000000   0.000000
    19  H    0.350151   0.003610   0.000000   0.000000
    20  H    0.003610   0.343282   0.000000   0.000000
    21  H    0.000000   0.000000   0.343282   0.003610
    22  H    0.000000   0.000000   0.003610   0.350151
 Mulliken charges:
               1
     1  O   -0.603403
     2  H    0.317430
     3  O   -0.495675
     4  H    0.325683
     5  O   -0.668836
     6  O   -0.603403
     7  H    0.317430
     8  O   -0.495675
     9  H    0.325683
    10  H    0.338067
    11  H    0.339569
    12  H    0.339569
    13  H    0.337800
    14  H    0.337800
    15  O   -0.593115
    16  O   -0.593115
    17  H    0.366062
    18  H    0.366062
    19  H    0.332317
    20  H    0.338716
    21  H    0.338716
    22  H    0.332317
 Sum of Mulliken charges =   1.00000
 Mulliken charges with hydrogens summed into heavy atoms:
               1
     1  O    0.053596
     3  O    0.505875
     5  O    0.063288
     6  O    0.053596
     8  O    0.167808
    15  O    0.077918
    16  O    0.077918
 Electronic spatial extent (au):  <R**2>=           2383.3700
 Charge=              1.0000 electrons
 Dipole moment (field-independent basis, Debye):
    X=              0.0000    Y=              0.0000    Z=              1.4310  Tot=              1.4310
 Quadrupole moment (field-independent basis, Debye-Ang):
   XX=            -25.2738   YY=            -16.5465   ZZ=             13.7584
   XY=             10.2676   XZ=              0.0000   YZ=              0.0000
 Traceless Quadrupole moment (field-independent basis, Debye-Ang):
   XX=            -15.9198   YY=             -7.1925   ZZ=             23.1124
   XY=             10.2676   XZ=              0.0000   YZ=              0.0000
 Octapole moment (field-independent basis, Debye-Ang**2):
  XXX=              0.0000  YYY=              0.0000  ZZZ=             67.0562  XYY=             -0.0000
  XXY=             -0.0000  XXZ=            -43.9454  XZZ=              0.0000  YZZ=              0.0000
  YYZ=            -37.4147  XYZ=            -60.2823
 Hexadecapole moment (field-independent basis, Debye-Ang**3):
 XXXX=           -154.1171 YYYY=           -646.2694 ZZZZ=           -399.5626 XXXY=            -51.5447
 XXXZ=             -0.0000 YYYX=           -145.0136 YYYZ=             -0.0000 ZZZX=              0.0000
 ZZZY=             -0.0000 XXYY=           -128.3588 XXZZ=            -79.9510 YYZZ=            -89.2905
 XXYZ=             -0.0000 YYXZ=              0.0000 ZZXY=             90.2929
 N-N= 3.612815511857D+02 E-N=-1.979007449307D+03  KE= 5.336940008066D+02
 PrsmSu:  requested number of processors reduced to:  20 ShMem   1 Linda.
 No NMR shielding tensors so no spin-rotation constants.
 Leave Link  601 at Sun Apr 18 06:52:26 2021, MaxMem=   104857600 cpu:             715.7 elap:              15.6
 (Enter /s/ls4/users/knvvv/bin/g16sse/l9999.exe)

 Test job not archived.
 1\1\GINC-N178\Stability\RM062X\def2QZVP\H15O7(1+)\KNVVV\18-Apr-2021\0\
 \#P M062X/Def2QZVP Integral=UltraFineGrid SCF=NoSymm Stable=(RExt, Opt
 ) IOp(1/33=1)\\Database calculations.\\1,1\O,0,1.8434134311,-0.9596003
 275,-1.4867719602\H,0,1.2656736957,-0.7391231493,-2.2349180021\O,0,1.0
 793306215,-0.5271854098,1.0282009095\H,0,1.4019285204,-0.7017831053,0.
 1069992886\O,0,0.,0.,-3.5118999097\O,0,-1.8434134311,0.9596003275,-1.4
 867719602\H,0,-1.2656736957,0.7391231493,-2.2349180021\O,0,-1.07933062
 15,0.5271854098,1.0282009095\H,0,-1.4019285204,0.7017831053,0.10699928
 86\H,0,0.,0.,1.0334470775\H,0,-2.3666762092,1.7244727339,-1.7418206908
 \H,0,2.3666762092,-1.7244727339,-1.7418206908\H,0,-1.7700162197,0.0335
 496445,1.5315311845\H,0,1.7700162197,-0.0335496445,1.5315311845\O,0,-2
 .9914120547,-0.7241080575,2.442482133\O,0,2.9914120547,0.7241080575,2.
 442482133\H,0,0.4334218583,0.6365549162,-4.0940394757\H,0,-0.433421858
 3,-0.6365549162,-4.0940394757\H,0,-3.1797918926,-1.6653137707,2.501141
 0936\H,0,-3.4352690162,-0.3059062002,3.1864219356\H,0,3.4352690162,0.3
 059062002,3.1864219356\H,0,3.1797918926,1.6653137707,2.5011410936\\Ver
 sion=ES64L-G16RevA.03\State=1-A\HF=-535.5164809\RMSD=8.729e-09\Dipole=
 0.,0.,-0.5630029\Quadrupole=-0.5764992,-16.6069698,17.183469,2.1341149
 ,0.,0.\PG=C02 [C2(H1O1),X(H14O6)]\\@


 MORNING PEOPLE ARE USUALLY ADMIRED AS EARLY BIRDS.
 RECALL BEN FRANKLIN'S APHORISM THAT THE EARLY BIRD GETS THE WORM.
 I IDENTIFY WITH THE WORM. --  CRAIG JAGGER, MINNEAPOLIS, KS.
 Job cpu time:       1 days 23 hours 20 minutes 15.8 seconds.
 Elapsed time:       0 days  1 hours 39 minutes 12.9 seconds.
 File lengths (MBytes):  RWF=   1388 Int=      0 D2E=      0 Chk=     83 Scr=      1
 Normal termination of Gaussian 16 at Sun Apr 18 06:52:27 2021.
