 Entering Gaussian System, Link 0=/s/ls4/users/knvvv/bin/g16sse/g16
 Input=data/database/M062X--def2-QZVP--MB16-43_02.gjf
 Output=data/database/M062X--def2-QZVP--MB16-43_02.log
 Initial command:
 /s/ls4/users/knvvv/bin/g16sse/l1.exe "/s/ls4/users/knvvv/bin/scratch/Gau-11178.inp" -scrdir="/s/ls4/users/knvvv/bin/scratch/"
 Entering Link 1 = /s/ls4/users/knvvv/bin/g16sse/l1.exe PID=     11179.
  
 Copyright (c) 1988,1990,1992,1993,1995,1998,2003,2009,2016,
            Gaussian, Inc.  All Rights Reserved.
  
 This is part of the Gaussian(R) 16 program.  It is based on
 the Gaussian(R) 09 system (copyright 2009, Gaussian, Inc.),
 the Gaussian(R) 03 system (copyright 2003, Gaussian, Inc.),
 the Gaussian(R) 98 system (copyright 1998, Gaussian, Inc.),
 the Gaussian(R) 94 system (copyright 1995, Gaussian, Inc.),
 the Gaussian 92(TM) system (copyright 1992, Gaussian, Inc.),
 the Gaussian 90(TM) system (copyright 1990, Gaussian, Inc.),
 the Gaussian 88(TM) system (copyright 1988, Gaussian, Inc.),
 the Gaussian 86(TM) system (copyright 1986, Carnegie Mellon
 University), and the Gaussian 82(TM) system (copyright 1983,
 Carnegie Mellon University). Gaussian is a federally registered
 trademark of Gaussian, Inc.
  
 This software contains proprietary and confidential information,
 including trade secrets, belonging to Gaussian, Inc.
  
 This software is provided under written license and may be
 used, copied, transmitted, or stored only in accord with that
 written license.
  
 The following legend is applicable only to US Government
 contracts under FAR:
  
                    RESTRICTED RIGHTS LEGEND
  
 Use, reproduction and disclosure by the US Government is
 subject to restrictions as set forth in subparagraphs (a)
 and (c) of the Commercial Computer Software - Restricted
 Rights clause in FAR 52.227-19.
  
 Gaussian, Inc.
 340 Quinnipiac St., Bldg. 40, Wallingford CT 06492
  
  
 ---------------------------------------------------------------
 Warning -- This program may not be used in any manner that
 competes with the business of Gaussian, Inc. or will provide
 assistance to any competitor of Gaussian, Inc.  The licensee
 of this program is prohibited from giving any competitor of
 Gaussian, Inc. access to this program.  By using this program,
 the user acknowledges that Gaussian, Inc. is engaged in the
 business of creating and licensing software in the field of
 computational chemistry and represents and warrants to the
 licensee that it is not a competitor of Gaussian, Inc. and that
 it will not use this program in any manner prohibited above.
 ---------------------------------------------------------------
  

 Cite this work as:
 Gaussian 16, Revision A.03,
 M. J. Frisch, G. W. Trucks, H. B. Schlegel, G. E. Scuseria, 
 M. A. Robb, J. R. Cheeseman, G. Scalmani, V. Barone, 
 G. A. Petersson, H. Nakatsuji, X. Li, M. Caricato, A. V. Marenich, 
 J. Bloino, B. G. Janesko, R. Gomperts, B. Mennucci, H. P. Hratchian, 
 J. V. Ortiz, A. F. Izmaylov, J. L. Sonnenberg, D. Williams-Young, 
 F. Ding, F. Lipparini, F. Egidi, J. Goings, B. Peng, A. Petrone, 
 T. Henderson, D. Ranasinghe, V. G. Zakrzewski, J. Gao, N. Rega, 
 G. Zheng, W. Liang, M. Hada, M. Ehara, K. Toyota, R. Fukuda, 
 J. Hasegawa, M. Ishida, T. Nakajima, Y. Honda, O. Kitao, H. Nakai, 
 T. Vreven, K. Throssell, J. A. Montgomery, Jr., J. E. Peralta, 
 F. Ogliaro, M. J. Bearpark, J. J. Heyd, E. N. Brothers, K. N. Kudin, 
 V. N. Staroverov, T. A. Keith, R. Kobayashi, J. Normand, 
 K. Raghavachari, A. P. Rendell, J. C. Burant, S. S. Iyengar, 
 J. Tomasi, M. Cossi, J. M. Millam, M. Klene, C. Adamo, R. Cammi, 
 J. W. Ochterski, R. L. Martin, K. Morokuma, O. Farkas, 
 J. B. Foresman, and D. J. Fox, Gaussian, Inc., Wallingford CT, 2016.
 
 ******************************************
 Gaussian 16:  ES64L-G16RevA.03 25-Dec-2016
                17-Apr-2021 
 ******************************************
 %RWF=temp10_94453,70GB
 %nprocshared=48
 Will use up to   48 processors via shared memory.
 Default route: MaxDisk=80GB
 ----------------------------------------------------------------------
 #P M062X/Def2QZVP Integral=UltraFineGrid SCF=NoSymm Stable=(RExt, Opt)
  IOp(1/33=1)
 ----------------------------------------------------------------------
 1/33=1,38=1,172=1/1;
 2/12=2,17=6,18=5,40=1/2;
 3/5=45,7=101,11=2,25=1,30=1,74=-55,75=-5/1,2,3;
 4/9=2/1;
 5/5=2,38=5/2;
 6/7=2,8=2,9=2,10=2,28=1/1;
 8/6=1,10=90,11=11/1;
 9/8=-3,42=1,46=1/14;
 5/5=2,8=3,17=40,38=5/8(-2);
 6/7=2,8=2,9=2,10=2,28=1/1;
 99/5=1,9=1/99;
 Leave Link    1 at Sat Apr 17 00:32:41 2021, MaxMem=           0 cpu:               8.6 elap:               0.2
 (Enter /s/ls4/users/knvvv/bin/g16sse/l101.exe)
 ONIOM data not found on unit 2.
 ----------------------
 Database calculations.
 ----------------------
 TstMul:  ICh=     0
 TstMul:  Mul=     2
 TstMul:  ICh=     0
 TstMul:  Mul=     2
 Symbolic Z-matrix:
 Charge =  0 Multiplicity = 2
 H                    -0.95007  -1.99958  -0.5709 
 S                    -1.41967   0.20581   0.87957 
 B                     0.06077   0.78772   1.93499 
 O                    -0.57151  -0.08604  -2.41148 
 Mg                    0.31911   2.16336  -0.0137 
 H                    -0.64842  -0.95242  -1.96205 
 H                    -0.70624  -2.24805   1.44355 
 H                    -0.08614   1.27673   3.01118 
 Si                    1.52298  -0.17527   0.9965 
 H                     0.36243   0.17352  -2.22544 
 B                    -0.63988  -1.52008   0.49777 
 Li                   -1.72286   1.17076  -1.51723 
 F                    -0.96917   2.75451  -1.20111 
 H                     2.59766  -1.01907   1.58261 
 H                     0.67103  -1.37803   0.29191 
 S                     2.17998   0.84612  -0.73618 
 
 RdStrC is calling ZToCFu for IStruc=1 NZ=    16.
 PrtBox:  NBox=     4 Levels=  1 BoxLen=    8.00 SMaxX=       10.25
          Shift=            3.255725            4.248190            4.557029
 Box      1 Number                   0 centers from      1 to     11:
 Box      2 Number                   1 centers from     12 to     13:
 Box      3 Number                   2 centers from     14 to     15:
 Box      4 Number                   4 centers from     16 to     16:
 After GenITR:
 ITRead=  0  0  0  0  0  0  0  0  0  0  0  0  0  0  0  0
 MicOpt= -1 -1 -1 -1 -1 -1 -1 -1 -1 -1 -1 -1 -1 -1 -1 -1
 ITRead=  0  0  0  0  0  0  0  0  0  0  0  0  0  0  0  0
 MicOpt= -1 -1 -1 -1 -1 -1 -1 -1 -1 -1 -1 -1 -1 -1 -1 -1
 NAtoms=     16 NQM=       16 NQMF=       0 NMMI=      0 NMMIF=      0
                NMic=       0 NMicF=      0.
                    Isotopes and Nuclear Properties:
 (Nuclear quadrupole moments (NQMom) in fm**2, nuclear magnetic moments (NMagM)
  in nuclear magnetons)

  Atom         1           2           3           4           5           6           7           8           9          10
 IAtWgt=           1          32          11          16          24           1           1           1          28           1
 AtmWgt=   1.0078250  31.9720718  11.0093053  15.9949146  23.9850450   1.0078250   1.0078250   1.0078250  27.9769284   1.0078250
 NucSpn=           1           0           3           0           0           1           1           1           0           1
 AtZEff=  -0.0000000  -0.0000000  -0.0000000  -0.0000000  -0.0000000  -0.0000000  -0.0000000  -0.0000000  -0.0000000  -0.0000000
 NQMom=    0.0000000   0.0000000   4.0590000   0.0000000   0.0000000   0.0000000   0.0000000   0.0000000   0.0000000   0.0000000
 NMagM=    2.7928460   0.0000000   2.6886370   0.0000000   0.0000000   2.7928460   2.7928460   2.7928460   0.0000000   2.7928460
 AtZNuc=   1.0000000  16.0000000   5.0000000   8.0000000  12.0000000   1.0000000   1.0000000   1.0000000  14.0000000   1.0000000

  Atom        11          12          13          14          15          16
 IAtWgt=          11           7          19           1           1          32
 AtmWgt=  11.0093053   7.0160045  18.9984033   1.0078250   1.0078250  31.9720718
 NucSpn=           3           3           1           1           1           0
 AtZEff=  -0.0000000  -0.0000000  -0.0000000  -0.0000000  -0.0000000  -0.0000000
 NQMom=    4.0590000  -4.0100000   0.0000000   0.0000000   0.0000000   0.0000000
 NMagM=    2.6886370   3.2564240   2.6288670   2.7928460   2.7928460   0.0000000
 AtZNuc=   5.0000000   3.0000000   9.0000000   1.0000000   1.0000000  16.0000000
 No MM parameters found.
 Leave Link  101 at Sat Apr 17 00:32:41 2021, MaxMem=   104857600 cpu:               8.9 elap:               0.2
 (Enter /s/ls4/users/knvvv/bin/g16sse/l202.exe)
                          Input orientation:                          
 ---------------------------------------------------------------------
 Center     Atomic      Atomic             Coordinates (Angstroms)
 Number     Number       Type             X           Y           Z
 ---------------------------------------------------------------------
      1          1           0       -0.950072   -1.999582   -0.570895
      2         16           0       -1.419670    0.205811    0.879571
      3          5           0        0.060774    0.787722    1.934991
      4          8           0       -0.571505   -0.086040   -2.411476
      5         12           0        0.319109    2.163361   -0.013702
      6          1           0       -0.648422   -0.952420   -1.962047
      7          1           0       -0.706245   -2.248045    1.443552
      8          1           0       -0.086140    1.276735    3.011180
      9         14           0        1.522985   -0.175266    0.996501
     10          1           0        0.362430    0.173518   -2.225442
     11          5           0       -0.639880   -1.520081    0.497766
     12          3           0       -1.722856    1.170757   -1.517233
     13          9           0       -0.969174    2.754511   -1.201106
     14          1           0        2.597655   -1.019071    1.582609
     15          1           0        0.671030   -1.378027    0.291909
     16         16           0        2.179982    0.846116   -0.736178
 ---------------------------------------------------------------------
                    Distance matrix (angstroms):
                    1          2          3          4          5
     1  H    0.000000
     2  S    2.681070   0.000000
     3  B    3.882054   1.908991   0.000000
     4  O    2.681921   3.411092   4.478282   0.000000
     5  Mg   4.387640   2.766458   2.399276   3.406217   0.000000
     6  H    1.767157   3.164034   4.326425   0.979040   3.800034
     7  H    2.044305   2.616956   3.169497   4.421953   4.757672
     8  H    4.930709   2.732936   1.191176   5.612302   3.178088
     9  Si   3.449763   2.969530   1.986497   4.001144   2.817624
    10  H    3.030273   3.580227   4.216331   0.987023   2.975423
    11  B    1.211684   1.931981   2.807576   3.244201   3.840443
    12  Li   3.397617   2.601482   3.904600   1.924790   2.723139
    13  F    4.795721   3.320849   3.842416   3.113176   1.849070
    14  H    4.264429   4.258345   3.134396   5.183324   4.227039
    15  H    1.938745   2.687920   2.786144   3.243673   3.571929
    16  S    4.233504   3.997265   3.410219   3.353538   2.391642
                    6          7          8          9         10
     6  H    0.000000
     7  H    3.644186   0.000000
     8  H    5.478894   3.907181   0.000000
     9  Si   3.751263   3.076643   2.959142   0.000000
    10  H    1.535883   4.524108   5.370336   3.442303   0.000000
    11  B    2.524478   1.195344   3.800797   2.595235   3.359876
    12  Li   2.420774   4.635510   4.816284   4.320430   2.417532
    13  F    3.797796   5.664708   4.550487   4.429890   3.079603
    14  H    4.806875   3.527814   3.809763   1.486757   4.573812
    15  H    2.646207   1.995019   3.874984   1.633680   2.973143
    16  S    3.568944   4.759765   4.400390   2.115902   2.444134
                   11         12         13         14         15
    11  B    0.000000
    12  Li   3.531808   0.000000
    13  F    4.611588   1.782203   0.000000
    14  H    3.451019   5.750755   5.891627   0.000000
    15  H    1.334556   3.937001   4.690120   2.346624   0.000000
    16  S    3.882412   3.993442   3.711511   3.005021   2.877622
                   16
    16  S    0.000000
 Stoichiometry    B2FH7LiMgOS2Si(2)
 Framework group  C1[X(B2FH7LiMgOS2Si)]
 Deg. of freedom    42
 Full point group                 C1      NOp   1
 Largest Abelian subgroup         C1      NOp   1
 Largest concise Abelian subgroup C1      NOp   1
                         Standard orientation:                         
 ---------------------------------------------------------------------
 Center     Atomic      Atomic             Coordinates (Angstroms)
 Number     Number       Type             X           Y           Z
 ---------------------------------------------------------------------
      1          1           0        0.315132    1.770991    2.265961
      2         16           0       -0.224983    1.847582   -0.359023
      3          5           0        1.027875    0.908845   -1.451436
      4          8           0       -1.526883   -0.167948    2.065486
      5         12           0       -0.680152   -0.754341   -1.181283
      6          1           0       -0.864807    0.463772    2.413486
      7          1           0        1.800599    2.587775    1.123405
      8          1           0        1.334361    1.297381   -2.534951
      9         14           0        1.857808   -0.248765   -0.066763
     10          1           0       -0.969744   -0.929094    1.774854
     11          5           0        0.904509    1.801160    1.207707
     12          3           0       -2.340404    0.600182    0.499288
     13          9           0       -2.489143   -0.526654   -0.873434
     14          1           0        3.302315   -0.470051    0.206879
     15          1           0        1.519250    0.618570    1.275630
     16         16           0        0.705736   -1.977059    0.336686
 ---------------------------------------------------------------------
 Rotational constants (GHZ):           1.0031343           0.9224819           0.7488649
 Leave Link  202 at Sat Apr 17 00:32:41 2021, MaxMem=   104857600 cpu:               6.4 elap:               0.2
 (Enter /s/ls4/users/knvvv/bin/g16sse/l301.exe)
 Standard basis: def2QZVP (5D, 7F)
 Ernie: Thresh=  0.10000D-02 Tol=  0.10000D-05 Strict=F.
 There are   889 symmetry adapted cartesian basis functions of A   symmetry.
 There are   734 symmetry adapted basis functions of A   symmetry.
   734 basis functions,  1142 primitive gaussians,   889 cartesian basis functions
    48 alpha electrons       47 beta electrons
       nuclear repulsion energy       722.7030374451 Hartrees.
 IExCor= 4336 DFT=T Ex+Corr=M062X ExCW=0 ScaHFX=  0.540000
 ScaDFX=  1.000000  1.000000  1.000000  1.000000 ScalE2=  1.000000  1.000000
 IRadAn=      5 IRanWt=     -1 IRanGd=            0 ICorTp=0 IEmpDi=  4
 NAtoms=   16 NActive=   16 NUniq=   16 SFac= 1.00D+00 NAtFMM=   60 NAOKFM=F Big=F
 Integral buffers will be    131072 words long.
 Raffenetti 2 integral format.
 Two-electron integral symmetry is turned on.
 Leave Link  301 at Sat Apr 17 00:32:42 2021, MaxMem=   104857600 cpu:               6.4 elap:               0.2
 (Enter /s/ls4/users/knvvv/bin/g16sse/l302.exe)
 NPDir=0 NMtPBC=     1 NCelOv=     1 NCel=       1 NClECP=     1 NCelD=      1
         NCelK=      1 NCelE2=     1 NClLst=     1 CellRange=     0.0.
 One-electron integrals computed using PRISM.
 One-electron integral symmetry used in STVInt
 PrsmSu:  requested number of processors reduced to:   4 ShMem   1 Linda.
 PrsmSu:  requested number of processors reduced to:  18 ShMem   1 Linda.
   1 Symmetry operations used in ECPInt.
 ECPInt:  NShTT=   27966 NPrTT=   77181 LenC2=   25997 LenP2D=   54549.
 LDataN:  DoStor=T MaxTD1= 8 Len=  415
 Number of processors reduced to  10 by ecpmxn.
 NBasis=   734 RedAO= T EigKep=  3.25D-05  NBF=   734
 NBsUse=   734 1.00D-06 EigRej= -1.00D+00 NBFU=   734
 Precomputing XC quadrature grid using
 IXCGrd= 4 IRadAn=           5 IRanWt=          -1 IRanGd=           0 AccXCQ= 0.00D+00.
 Generated NRdTot=       0 NPtTot=           0 NUsed=           0 NTot=          32
 NSgBfM=   877   877   877   877   877 MxSgAt=    16 MxSgA2=    16.
 Leave Link  302 at Sat Apr 17 00:32:56 2021, MaxMem=   104857600 cpu:             674.9 elap:              14.5
 (Enter /s/ls4/users/knvvv/bin/g16sse/l303.exe)
 DipDrv:  MaxL=1.
 Leave Link  303 at Sat Apr 17 00:33:03 2021, MaxMem=   104857600 cpu:             303.7 elap:               6.5
 (Enter /s/ls4/users/knvvv/bin/g16sse/l401.exe)
 SCF N**3 symmetry information disabled.
 ExpMin= 2.05D-02 ExpMax= 1.27D+06 ExpMxC= 1.90D+03 IAcc=3 IRadAn=         5 AccDes= 0.00D+00
 Harris functional with IExCor= 1009 and IRadAn=       5 diagonalized for initial guess.
 HarFok:  IExCor= 1009 AccDes= 0.00D+00 IRadAn=         5 IDoV= 1 UseB2=F ITyADJ=14
 ICtDFT=  3500011 ScaDFX=  1.000000  1.000000  1.000000  1.000000
 CalDSu:  requested number of processors reduced to:  47 ShMem   1 Linda.
 FoFCou: FMM=F IPFlag=           0 FMFlag=      100000 FMFlg1=           0
         NFxFlg=           0 DoJE=T BraDBF=F KetDBF=T FulRan=T
         wScrn=  0.000000 ICntrl=       500 IOpCl=  0 I1Cent=   200000004 NGrid=           0
         NMat0=    1 NMatS0=      1 NMatT0=    0 NMatD0=    1 NMtDS0=    0 NMtDT0=    0
 Petite list used in FoFCou.
 CoulSu:  requested number of processors reduced to:  16 ShMem   1 Linda.
 CoulSu:  requested number of processors reduced to:  17 ShMem   1 Linda.
 CoulSu:  requested number of processors reduced to:  21 ShMem   1 Linda.
 CoulSu:  requested number of processors reduced to:  21 ShMem   1 Linda.
 Harris En= -1521.96858505920    
 JPrj=0 DoOrth=F DoCkMO=F.
 Initial guess <Sx>= 0.0000 <Sy>= 0.0000 <Sz>= 0.5000 <S**2>= 0.7500 S= 0.5000
 Leave Link  401 at Sat Apr 17 00:33:07 2021, MaxMem=   104857600 cpu:             209.1 elap:               4.8
 (Enter /s/ls4/users/knvvv/bin/g16sse/l502.exe)
 Integral symmetry usage will be decided dynamically.
 UHF open shell SCF:
 Using DIIS extrapolation, IDIIS=  1040.
 NGot=   104857600 LenX=   103227250 LenY=   102436040
 Requested convergence on RMS density matrix=1.00D-08 within 128 cycles.
 Requested convergence on MAX density matrix=1.00D-06.
 Requested convergence on             energy=1.00D-06.
 No special actions if energy rises.
 Fock matrices will be formed incrementally for  20 cycles.

 Cycle   1  Pass 1  IDiag  1:
 FoFJK:  IHMeth= 1 ICntrl=       0 DoSepK=F KAlg= 0 I1Cent=           0 FoldK=F
 IRaf= 890000000 NMat=       1 IRICut=       1 DoRegI=T DoRafI=F ISym2E= 0 IDoP0=0 IntGTp=1.
 FoFCou: FMM=F IPFlag=           0 FMFlag=      100000 FMFlg1=           0
         NFxFlg=           0 DoJE=F BraDBF=F KetDBF=F FulRan=T
         wScrn=  0.000000 ICntrl=         0 IOpCl=  1 I1Cent=           0 NGrid=           0
         NMat0=    1 NMatS0=      1 NMatT0=    0 NMatD0=    1 NMtDS0=    0 NMtDT0=    0
 Symmetry not used in FoFCou.
 CoulSu:  requested number of processors reduced to:  16 ShMem   1 Linda.
 CalDSu:  requested number of processors reduced to:  38 ShMem   1 Linda.
 E= -1522.47533728717    
 DIIS: error= 1.35D-02 at cycle   1 NSaved=   1.
 NSaved= 1 IEnMin= 1 EnMin= -1522.47533728717     IErMin= 1 ErrMin= 1.35D-02
 ErrMax= 1.35D-02  0.00D+00 EMaxC= 1.00D-01 BMatC= 2.17D+00 BMatP= 2.17D+00
 IDIUse=3 WtCom= 8.65D-01 WtEn= 1.35D-01
 Coeff-Com:  0.100D+01
 Coeff-En:   0.100D+01
 Coeff:      0.100D+01
 Gap=     0.200 Goal=   None    Shift=    0.000
 Gap=     0.298 Goal=   None    Shift=    0.000
 GapD=    0.200 DampG=1.000 DampE=0.500 DampFc=0.5000 IDamp=-1.
 Damping current iteration by 5.00D-01
 RMSDP=1.22D-03 MaxDP=1.62D-01              OVMax= 2.55D-01

 Cycle   2  Pass 1  IDiag  1:
 RMSU=  6.08D-04    CP:  9.93D-01
 CoulSu:  requested number of processors reduced to:  16 ShMem   1 Linda.
 CalDSu:  requested number of processors reduced to:  38 ShMem   1 Linda.
 E= -1522.59938050148     Delta-E=       -0.124043214303 Rises=F Damp=T
 DIIS: error= 7.31D-03 at cycle   2 NSaved=   2.
 NSaved= 2 IEnMin= 2 EnMin= -1522.59938050148     IErMin= 2 ErrMin= 7.31D-03
 ErrMax= 7.31D-03  0.00D+00 EMaxC= 1.00D-01 BMatC= 3.01D-01 BMatP= 2.17D+00
 IDIUse=3 WtCom= 9.27D-01 WtEn= 7.31D-02
 Coeff-Com: -0.873D-01 0.109D+01
 Coeff-En:   0.801D-02 0.992D+00
 Coeff:     -0.803D-01 0.108D+01
 Gap=     0.193 Goal=   None    Shift=    0.000
 Gap=     0.231 Goal=   None    Shift=    0.000
 RMSDP=5.69D-04 MaxDP=9.23D-02 DE=-1.24D-01 OVMax= 1.05D-01

 Cycle   3  Pass 1  IDiag  1:
 RMSU=  4.84D-04    CP:  9.86D-01  1.49D+00
 CoulSu:  requested number of processors reduced to:  16 ShMem   1 Linda.
 CalDSu:  requested number of processors reduced to:  38 ShMem   1 Linda.
 E= -1522.73168717275     Delta-E=       -0.132306671273 Rises=F Damp=F
 DIIS: error= 3.01D-03 at cycle   3 NSaved=   3.
 NSaved= 3 IEnMin= 3 EnMin= -1522.73168717275     IErMin= 3 ErrMin= 3.01D-03
 ErrMax= 3.01D-03  0.00D+00 EMaxC= 1.00D-01 BMatC= 8.01D-02 BMatP= 3.01D-01
 IDIUse=3 WtCom= 9.70D-01 WtEn= 3.01D-02
 Coeff-Com: -0.146D+00 0.382D+00 0.764D+00
 Coeff-En:   0.000D+00 0.000D+00 0.100D+01
 Coeff:     -0.141D+00 0.370D+00 0.771D+00
 Gap=     0.193 Goal=   None    Shift=    0.000
 Gap=     0.216 Goal=   None    Shift=    0.000
 RMSDP=1.34D-04 MaxDP=1.47D-02 DE=-1.32D-01 OVMax= 2.32D-02

 Cycle   4  Pass 1  IDiag  1:
 RMSU=  1.26D-04    CP:  9.84D-01  1.54D+00  9.41D-01
 CoulSu:  requested number of processors reduced to:  16 ShMem   1 Linda.
 CalDSu:  requested number of processors reduced to:  38 ShMem   1 Linda.
 E= -1522.74312273347     Delta-E=       -0.011435560725 Rises=F Damp=F
 DIIS: error= 7.16D-04 at cycle   4 NSaved=   4.
 NSaved= 4 IEnMin= 4 EnMin= -1522.74312273347     IErMin= 4 ErrMin= 7.16D-04
 ErrMax= 7.16D-04  0.00D+00 EMaxC= 1.00D-01 BMatC= 4.81D-03 BMatP= 8.01D-02
 IDIUse=3 WtCom= 9.93D-01 WtEn= 7.16D-03
 Coeff-Com: -0.492D-01 0.104D+00 0.300D+00 0.645D+00
 Coeff-En:   0.000D+00 0.000D+00 0.000D+00 0.100D+01
 Coeff:     -0.488D-01 0.103D+00 0.297D+00 0.648D+00
 Gap=     0.191 Goal=   None    Shift=    0.000
 Gap=     0.213 Goal=   None    Shift=    0.000
 RMSDP=4.66D-05 MaxDP=6.64D-03 DE=-1.14D-02 OVMax= 9.81D-03

 Cycle   5  Pass 1  IDiag  1:
 RMSU=  4.15D-05    CP:  9.84D-01  1.56D+00  9.39D-01  8.83D-01
 CoulSu:  requested number of processors reduced to:  16 ShMem   1 Linda.
 CalDSu:  requested number of processors reduced to:  38 ShMem   1 Linda.
 E= -1522.74410234438     Delta-E=       -0.000979610902 Rises=F Damp=F
 DIIS: error= 2.49D-04 at cycle   5 NSaved=   5.
 NSaved= 5 IEnMin= 5 EnMin= -1522.74410234438     IErMin= 5 ErrMin= 2.49D-04
 ErrMax= 2.49D-04  0.00D+00 EMaxC= 1.00D-01 BMatC= 3.13D-04 BMatP= 4.81D-03
 IDIUse=3 WtCom= 9.98D-01 WtEn= 2.49D-03
 Coeff-Com: -0.953D-02 0.173D-01 0.684D-01 0.245D+00 0.679D+00
 Coeff-En:   0.000D+00 0.000D+00 0.000D+00 0.000D+00 0.100D+01
 Coeff:     -0.950D-02 0.172D-01 0.682D-01 0.244D+00 0.680D+00
 Gap=     0.191 Goal=   None    Shift=    0.000
 Gap=     0.213 Goal=   None    Shift=    0.000
 RMSDP=1.50D-05 MaxDP=1.62D-03 DE=-9.80D-04 OVMax= 4.53D-03

 Cycle   6  Pass 1  IDiag  1:
 RMSU=  1.46D-05    CP:  9.83D-01  1.56D+00  9.43D-01  9.06D-01  1.01D+00
 CoulSu:  requested number of processors reduced to:  16 ShMem   1 Linda.
 CalDSu:  requested number of processors reduced to:  38 ShMem   1 Linda.
 E= -1522.74420614885     Delta-E=       -0.000103804472 Rises=F Damp=F
 DIIS: error= 1.70D-04 at cycle   6 NSaved=   6.
 NSaved= 6 IEnMin= 6 EnMin= -1522.74420614885     IErMin= 6 ErrMin= 1.70D-04
 ErrMax= 1.70D-04  0.00D+00 EMaxC= 1.00D-01 BMatC= 3.57D-05 BMatP= 3.13D-04
 IDIUse=3 WtCom= 9.98D-01 WtEn= 1.70D-03
 Coeff-Com:  0.464D-02-0.101D-01-0.234D-01-0.386D-01 0.788D-01 0.989D+00
 Coeff-En:   0.000D+00 0.000D+00 0.000D+00 0.000D+00 0.000D+00 0.100D+01
 Coeff:      0.463D-02-0.101D-01-0.234D-01-0.386D-01 0.787D-01 0.989D+00
 Gap=     0.191 Goal=   None    Shift=    0.000
 Gap=     0.213 Goal=   None    Shift=    0.000
 RMSDP=1.20D-05 MaxDP=1.46D-03 DE=-1.04D-04 OVMax= 4.62D-03

 Cycle   7  Pass 1  IDiag  1:
 RMSU=  6.14D-06    CP:  9.83D-01  1.57D+00  9.46D-01  9.39D-01  1.18D+00
                    CP:  1.37D+00
 CoulSu:  requested number of processors reduced to:  16 ShMem   1 Linda.
 CalDSu:  requested number of processors reduced to:  38 ShMem   1 Linda.
 E= -1522.74424061575     Delta-E=       -0.000034466900 Rises=F Damp=F
 DIIS: error= 1.08D-04 at cycle   7 NSaved=   7.
 NSaved= 7 IEnMin= 7 EnMin= -1522.74424061575     IErMin= 7 ErrMin= 1.08D-04
 ErrMax= 1.08D-04  0.00D+00 EMaxC= 1.00D-01 BMatC= 1.16D-05 BMatP= 3.57D-05
 IDIUse=3 WtCom= 9.99D-01 WtEn= 1.08D-03
 Coeff-Com:  0.400D-02-0.772D-02-0.239D-01-0.723D-01-0.153D+00 0.299D+00
 Coeff-Com:  0.953D+00
 Coeff-En:   0.000D+00 0.000D+00 0.000D+00 0.000D+00 0.000D+00 0.000D+00
 Coeff-En:   0.100D+01
 Coeff:      0.399D-02-0.771D-02-0.239D-01-0.723D-01-0.153D+00 0.299D+00
 Coeff:      0.954D+00
 Gap=     0.191 Goal=   None    Shift=    0.000
 Gap=     0.213 Goal=   None    Shift=    0.000
 RMSDP=7.30D-06 MaxDP=7.32D-04 DE=-3.45D-05 OVMax= 3.11D-03

 Cycle   8  Pass 1  IDiag  1:
 RMSU=  2.87D-06    CP:  9.83D-01  1.57D+00  9.49D-01  9.47D-01  1.28D+00
                    CP:  1.65D+00  1.51D+00
 CoulSu:  requested number of processors reduced to:  16 ShMem   1 Linda.
 CalDSu:  requested number of processors reduced to:  38 ShMem   1 Linda.
 E= -1522.74425227069     Delta-E=       -0.000011654945 Rises=F Damp=F
 DIIS: error= 3.48D-05 at cycle   8 NSaved=   8.
 NSaved= 8 IEnMin= 8 EnMin= -1522.74425227069     IErMin= 8 ErrMin= 3.48D-05
 ErrMax= 3.48D-05  0.00D+00 EMaxC= 1.00D-01 BMatC= 2.54D-06 BMatP= 1.16D-05
 IDIUse=1 WtCom= 1.00D+00 WtEn= 0.00D+00
 Coeff-Com:  0.796D-04 0.118D-04-0.138D-02-0.114D-01-0.605D-01-0.120D+00
 Coeff-Com:  0.322D+00 0.872D+00
 Coeff:      0.796D-04 0.118D-04-0.138D-02-0.114D-01-0.605D-01-0.120D+00
 Coeff:      0.322D+00 0.872D+00
 Gap=     0.191 Goal=   None    Shift=    0.000
 Gap=     0.213 Goal=   None    Shift=    0.000
 RMSDP=2.87D-06 MaxDP=2.68D-04 DE=-1.17D-05 OVMax= 1.35D-03

 Cycle   9  Pass 1  IDiag  1:
 RMSU=  1.33D-06    CP:  9.83D-01  1.57D+00  9.49D-01  9.50D-01  1.29D+00
                    CP:  1.75D+00  1.77D+00  1.35D+00
 CoulSu:  requested number of processors reduced to:  16 ShMem   1 Linda.
 CalDSu:  requested number of processors reduced to:  38 ShMem   1 Linda.
 E= -1522.74425417942     Delta-E=       -0.000001908727 Rises=F Damp=F
 DIIS: error= 8.48D-06 at cycle   9 NSaved=   9.
 NSaved= 9 IEnMin= 9 EnMin= -1522.74425417942     IErMin= 9 ErrMin= 8.48D-06
 ErrMax= 8.48D-06  0.00D+00 EMaxC= 1.00D-01 BMatC= 3.08D-07 BMatP= 2.54D-06
 IDIUse=1 WtCom= 1.00D+00 WtEn= 0.00D+00
 Coeff-Com: -0.595D-03 0.118D-02 0.335D-02 0.953D-02 0.127D-01-0.771D-01
 Coeff-Com: -0.111D+00 0.203D+00 0.959D+00
 Coeff:     -0.595D-03 0.118D-02 0.335D-02 0.953D-02 0.127D-01-0.771D-01
 Coeff:     -0.111D+00 0.203D+00 0.959D+00
 Gap=     0.191 Goal=   None    Shift=    0.000
 Gap=     0.213 Goal=   None    Shift=    0.000
 RMSDP=1.34D-06 MaxDP=2.63D-04 DE=-1.91D-06 OVMax= 5.40D-04

 Cycle  10  Pass 1  IDiag  1:
 RMSU=  6.67D-07    CP:  9.83D-01  1.57D+00  9.49D-01  9.51D-01  1.30D+00
                    CP:  1.76D+00  1.90D+00  1.50D+00  1.26D+00
 CoulSu:  requested number of processors reduced to:  16 ShMem   1 Linda.
 CalDSu:  requested number of processors reduced to:  38 ShMem   1 Linda.
 E= -1522.74425443951     Delta-E=       -0.000000260087 Rises=F Damp=F
 DIIS: error= 4.47D-06 at cycle  10 NSaved=  10.
 NSaved=10 IEnMin=10 EnMin= -1522.74425443951     IErMin=10 ErrMin= 4.47D-06
 ErrMax= 4.47D-06  0.00D+00 EMaxC= 1.00D-01 BMatC= 3.77D-08 BMatP= 3.08D-07
 IDIUse=1 WtCom= 1.00D+00 WtEn= 0.00D+00
 Coeff-Com: -0.196D-03 0.385D-03 0.120D-02 0.377D-02 0.793D-02-0.106D-01
 Coeff-Com: -0.555D-01-0.163D-01 0.274D+00 0.795D+00
 Coeff:     -0.196D-03 0.385D-03 0.120D-02 0.377D-02 0.793D-02-0.106D-01
 Coeff:     -0.555D-01-0.163D-01 0.274D+00 0.795D+00
 Gap=     0.191 Goal=   None    Shift=    0.000
 Gap=     0.213 Goal=   None    Shift=    0.000
 RMSDP=3.99D-07 MaxDP=5.07D-05 DE=-2.60D-07 OVMax= 1.09D-04

 Cycle  11  Pass 1  IDiag  1:
 RMSU=  2.81D-07    CP:  9.83D-01  1.57D+00  9.49D-01  9.50D-01  1.30D+00
                    CP:  1.77D+00  1.89D+00  1.55D+00  1.36D+00  1.10D+00
 CoulSu:  requested number of processors reduced to:  16 ShMem   1 Linda.
 CalDSu:  requested number of processors reduced to:  38 ShMem   1 Linda.
 E= -1522.74425446044     Delta-E=       -0.000000020937 Rises=F Damp=F
 DIIS: error= 1.44D-06 at cycle  11 NSaved=  11.
 NSaved=11 IEnMin=11 EnMin= -1522.74425446044     IErMin=11 ErrMin= 1.44D-06
 ErrMax= 1.44D-06  0.00D+00 EMaxC= 1.00D-01 BMatC= 9.36D-09 BMatP= 3.77D-08
 IDIUse=1 WtCom= 1.00D+00 WtEn= 0.00D+00
 Coeff-Com:  0.434D-04-0.862D-04-0.212D-03-0.571D-03-0.799D-04 0.957D-02
 Coeff-Com:  0.515D-03-0.467D-01-0.809D-01 0.290D+00 0.828D+00
 Coeff:      0.434D-04-0.862D-04-0.212D-03-0.571D-03-0.799D-04 0.957D-02
 Coeff:      0.515D-03-0.467D-01-0.809D-01 0.290D+00 0.828D+00
 Gap=     0.191 Goal=   None    Shift=    0.000
 Gap=     0.213 Goal=   None    Shift=    0.000
 RMSDP=2.36D-07 MaxDP=4.96D-05 DE=-2.09D-08 OVMax= 6.01D-05

 Cycle  12  Pass 1  IDiag  1:
 RMSU=  9.47D-08    CP:  9.83D-01  1.57D+00  9.49D-01  9.51D-01  1.30D+00
                    CP:  1.77D+00  1.90D+00  1.55D+00  1.42D+00  1.35D+00
                    CP:  1.20D+00
 CoulSu:  requested number of processors reduced to:  16 ShMem   1 Linda.
 CalDSu:  requested number of processors reduced to:  38 ShMem   1 Linda.
 E= -1522.74425446654     Delta-E=       -0.000000006097 Rises=F Damp=F
 DIIS: error= 6.28D-07 at cycle  12 NSaved=  12.
 NSaved=12 IEnMin=12 EnMin= -1522.74425446654     IErMin=12 ErrMin= 6.28D-07
 ErrMax= 6.28D-07  0.00D+00 EMaxC= 1.00D-01 BMatC= 1.34D-09 BMatP= 9.36D-09
 IDIUse=1 WtCom= 1.00D+00 WtEn= 0.00D+00
 Coeff-Com:  0.283D-04-0.574D-04-0.164D-03-0.590D-03-0.954D-03 0.405D-02
 Coeff-Com:  0.886D-02-0.110D-01-0.662D-01-0.425D-01 0.256D+00 0.853D+00
 Coeff:      0.283D-04-0.574D-04-0.164D-03-0.590D-03-0.954D-03 0.405D-02
 Coeff:      0.886D-02-0.110D-01-0.662D-01-0.425D-01 0.256D+00 0.853D+00
 Gap=     0.191 Goal=   None    Shift=    0.000
 Gap=     0.213 Goal=   None    Shift=    0.000
 RMSDP=9.77D-08 MaxDP=1.15D-05 DE=-6.10D-09 OVMax= 3.04D-05

 Cycle  13  Pass 1  IDiag  1:
 RMSU=  3.96D-08    CP:  9.83D-01  1.57D+00  9.49D-01  9.51D-01  1.30D+00
                    CP:  1.76D+00  1.90D+00  1.55D+00  1.44D+00  1.43D+00
                    CP:  1.37D+00  1.33D+00
 CoulSu:  requested number of processors reduced to:  16 ShMem   1 Linda.
 CalDSu:  requested number of processors reduced to:  38 ShMem   1 Linda.
 E= -1522.74425446742     Delta-E=       -0.000000000875 Rises=F Damp=F
 DIIS: error= 2.27D-07 at cycle  13 NSaved=  13.
 NSaved=13 IEnMin=13 EnMin= -1522.74425446742     IErMin=13 ErrMin= 2.27D-07
 ErrMax= 2.27D-07  0.00D+00 EMaxC= 1.00D-01 BMatC= 1.96D-10 BMatP= 1.34D-09
 IDIUse=1 WtCom= 1.00D+00 WtEn= 0.00D+00
 Coeff-Com:  0.176D-05-0.431D-05-0.221D-04-0.966D-04-0.185D-03-0.329D-04
 Coeff-Com:  0.179D-02 0.241D-02-0.760D-02-0.495D-01-0.387D-01 0.231D+00
 Coeff-Com:  0.861D+00
 Coeff:      0.176D-05-0.431D-05-0.221D-04-0.966D-04-0.185D-03-0.329D-04
 Coeff:      0.179D-02 0.241D-02-0.760D-02-0.495D-01-0.387D-01 0.231D+00
 Coeff:      0.861D+00
 Gap=     0.191 Goal=   None    Shift=    0.000
 Gap=     0.213 Goal=   None    Shift=    0.000
 RMSDP=4.48D-08 MaxDP=5.97D-06 DE=-8.75D-10 OVMax= 1.78D-05

 Cycle  14  Pass 1  IDiag  1:
 RMSU=  1.78D-08    CP:  9.83D-01  1.57D+00  9.49D-01  9.51D-01  1.30D+00
                    CP:  1.76D+00  1.90D+00  1.55D+00  1.45D+00  1.46D+00
                    CP:  1.45D+00  1.52D+00  1.31D+00
 CoulSu:  requested number of processors reduced to:  16 ShMem   1 Linda.
 CalDSu:  requested number of processors reduced to:  38 ShMem   1 Linda.
 E= -1522.74425446758     Delta-E=       -0.000000000164 Rises=F Damp=F
 DIIS: error= 1.03D-07 at cycle  14 NSaved=  14.
 NSaved=14 IEnMin=14 EnMin= -1522.74425446758     IErMin=14 ErrMin= 1.03D-07
 ErrMax= 1.03D-07  0.00D+00 EMaxC= 1.00D-01 BMatC= 5.42D-11 BMatP= 1.96D-10
 IDIUse=1 WtCom= 1.00D+00 WtEn= 0.00D+00
 Coeff-Com: -0.764D-05 0.149D-04 0.352D-04 0.110D-03 0.159D-03-0.921D-03
 Coeff-Com: -0.127D-02 0.365D-02 0.114D-01-0.126D-01-0.674D-01-0.911D-01
 Coeff-Com:  0.329D+00 0.829D+00
 Coeff:     -0.764D-05 0.149D-04 0.352D-04 0.110D-03 0.159D-03-0.921D-03
 Coeff:     -0.127D-02 0.365D-02 0.114D-01-0.126D-01-0.674D-01-0.911D-01
 Coeff:      0.329D+00 0.829D+00
 Gap=     0.191 Goal=   None    Shift=    0.000
 Gap=     0.213 Goal=   None    Shift=    0.000
 RMSDP=2.52D-08 MaxDP=4.04D-06 DE=-1.64D-10 OVMax= 8.36D-06

 Cycle  15  Pass 1  IDiag  1:
 RMSU=  7.20D-09    CP:  9.83D-01  1.57D+00  9.49D-01  9.51D-01  1.30D+00
                    CP:  1.76D+00  1.90D+00  1.55D+00  1.45D+00  1.48D+00
                    CP:  1.47D+00  1.65D+00  1.57D+00  1.19D+00
 CoulSu:  requested number of processors reduced to:  16 ShMem   1 Linda.
 CalDSu:  requested number of processors reduced to:  38 ShMem   1 Linda.
 E= -1522.74425446769     Delta-E=       -0.000000000108 Rises=F Damp=F
 DIIS: error= 3.80D-08 at cycle  15 NSaved=  15.
 NSaved=15 IEnMin=15 EnMin= -1522.74425446769     IErMin=15 ErrMin= 3.80D-08
 ErrMax= 3.80D-08  0.00D+00 EMaxC= 1.00D-01 BMatC= 6.52D-12 BMatP= 5.42D-11
 IDIUse=1 WtCom= 1.00D+00 WtEn= 0.00D+00
 Coeff-Com: -0.192D-05 0.391D-05 0.907D-05 0.331D-04 0.389D-04-0.228D-03
 Coeff-Com: -0.547D-03 0.614D-03 0.409D-02 0.449D-02-0.868D-02-0.632D-01
 Coeff-Com: -0.559D-01 0.189D+00 0.930D+00
 Coeff:     -0.192D-05 0.391D-05 0.907D-05 0.331D-04 0.389D-04-0.228D-03
 Coeff:     -0.547D-03 0.614D-03 0.409D-02 0.449D-02-0.868D-02-0.632D-01
 Coeff:     -0.559D-01 0.189D+00 0.930D+00
 Gap=     0.191 Goal=   None    Shift=    0.000
 Gap=     0.213 Goal=   None    Shift=    0.000
 RMSDP=9.55D-09 MaxDP=1.31D-06 DE=-1.08D-10 OVMax= 3.94D-06

 Cycle  16  Pass 1  IDiag  1:
 RMSU=  2.62D-09    CP:  9.83D-01  1.57D+00  9.49D-01  9.51D-01  1.30D+00
                    CP:  1.76D+00  1.90D+00  1.55D+00  1.46D+00  1.48D+00
                    CP:  1.48D+00  1.69D+00  1.67D+00  1.38D+00  1.38D+00
 CoulSu:  requested number of processors reduced to:  16 ShMem   1 Linda.
 CalDSu:  requested number of processors reduced to:  38 ShMem   1 Linda.
 E= -1522.74425446765     Delta-E=        0.000000000033 Rises=F Damp=F
 DIIS: error= 1.92D-08 at cycle  16 NSaved=  16.
 NSaved=16 IEnMin=15 EnMin= -1522.74425446769     IErMin=16 ErrMin= 1.92D-08
 ErrMax= 1.92D-08  0.00D+00 EMaxC= 1.00D-01 BMatC= 1.56D-12 BMatP= 6.52D-12
 IDIUse=1 WtCom= 1.00D+00 WtEn= 0.00D+00
 Coeff-Com:  0.686D-06-0.127D-05-0.281D-05-0.901D-05-0.141D-04 0.937D-04
 Coeff-Com:  0.578D-04-0.485D-03-0.845D-03 0.363D-02 0.104D-01-0.539D-02
 Coeff-Com: -0.797D-01-0.100D+00 0.337D+00 0.835D+00
 Coeff:      0.686D-06-0.127D-05-0.281D-05-0.901D-05-0.141D-04 0.937D-04
 Coeff:      0.578D-04-0.485D-03-0.845D-03 0.363D-02 0.104D-01-0.539D-02
 Coeff:     -0.797D-01-0.100D+00 0.337D+00 0.835D+00
 Gap=     0.191 Goal=   None    Shift=    0.000
 Gap=     0.213 Goal=   None    Shift=    0.000
 RMSDP=3.82D-09 MaxDP=5.46D-07 DE= 3.32D-11 OVMax= 1.49D-06

 SCF Done:  E(UM062X) =  -1522.74425447     A.U. after   16 cycles
            NFock= 16  Conv=0.38D-08     -V/T= 2.0023
 <Sx>= 0.0000 <Sy>= 0.0000 <Sz>= 0.5000 <S**2>= 0.7544 S= 0.5022
 <L.S>= 0.000000000000E+00
 KE= 1.519296082454D+03 PE=-5.067323327783D+03 EE= 1.302579953416D+03
 Annihilation of the first spin contaminant:
 S**2 before annihilation     0.7544,   after     0.7500
 Leave Link  502 at Sat Apr 17 00:58:57 2021, MaxMem=   104857600 cpu:           38149.2 elap:            1549.5
 (Enter /s/ls4/users/knvvv/bin/g16sse/l601.exe)
 Copying SCF densities to generalized density rwf, IOpCl= 1 IROHF=0.

 **********************************************************************

            Population analysis using the SCF density.

 **********************************************************************

 Orbital symmetries:
 Alpha Orbitals:
       Occupied  (A) (A) (A) (A) (A) (A) (A) (A) (A) (A) (A) (A)
                 (A) (A) (A) (A) (A) (A) (A) (A) (A) (A) (A) (A)
                 (A) (A) (A) (A) (A) (A) (A) (A) (A) (A) (A) (A)
                 (A) (A) (A) (A) (A) (A) (A) (A) (A) (A) (A) (A)
       Virtual   (A) (A) (A) (A) (A) (A) (A) (A) (A) (A) (A) (A)
                 (A) (A) (A) (A) (A) (A) (A) (A) (A) (A) (A) (A)
                 (A) (A) (A) (A) (A) (A) (A) (A) (A) (A) (A) (A)
                 (A) (A) (A) (A) (A) (A) (A) (A) (A) (A) (A) (A)
                 (A) (A) (A) (A) (A) (A) (A) (A) (A) (A) (A) (A)
                 (A) (A) (A) (A) (A) (A) (A) (A) (A) (A) (A) (A)
                 (A) (A) (A) (A) (A) (A) (A) (A) (A) (A) (A) (A)
                 (A) (A) (A) (A) (A) (A) (A) (A) (A) (A) (A) (A)
                 (A) (A) (A) (A) (A) (A) (A) (A) (A) (A) (A) (A)
                 (A) (A) (A) (A) (A) (A) (A) (A) (A) (A) (A) (A)
                 (A) (A) (A) (A) (A) (A) (A) (A) (A) (A) (A) (A)
                 (A) (A) (A) (A) (A) (A) (A) (A) (A) (A) (A) (A)
                 (A) (A) (A) (A) (A) (A) (A) (A) (A) (A) (A) (A)
                 (A) (A) (A) (A) (A) (A) (A) (A) (A) (A) (A) (A)
                 (A) (A) (A) (A) (A) (A) (A) (A) (A) (A) (A) (A)
                 (A) (A) (A) (A) (A) (A) (A) (A) (A) (A) (A) (A)
                 (A) (A) (A) (A) (A) (A) (A) (A) (A) (A) (A) (A)
                 (A) (A) (A) (A) (A) (A) (A) (A) (A) (A) (A) (A)
                 (A) (A) (A) (A) (A) (A) (A) (A) (A) (A) (A) (A)
                 (A) (A) (A) (A) (A) (A) (A) (A) (A) (A) (A) (A)
                 (A) (A) (A) (A) (A) (A) (A) (A) (A) (A) (A) (A)
                 (A) (A) (A) (A) (A) (A) (A) (A) (A) (A) (A) (A)
                 (A) (A) (A) (A) (A) (A) (A) (A) (A) (A) (A) (A)
                 (A) (A) (A) (A) (A) (A) (A) (A) (A) (A) (A) (A)
                 (A) (A) (A) (A) (A) (A) (A) (A) (A) (A) (A) (A)
                 (A) (A) (A) (A) (A) (A) (A) (A) (A) (A) (A) (A)
                 (A) (A) (A) (A) (A) (A) (A) (A) (A) (A) (A) (A)
                 (A) (A) (A) (A) (A) (A) (A) (A) (A) (A) (A) (A)
                 (A) (A) (A) (A) (A) (A) (A) (A) (A) (A) (A) (A)
                 (A) (A) (A) (A) (A) (A) (A) (A) (A) (A) (A) (A)
                 (A) (A) (A) (A) (A) (A) (A) (A) (A) (A) (A) (A)
                 (A) (A) (A) (A) (A) (A) (A) (A) (A) (A) (A) (A)
                 (A) (A) (A) (A) (A) (A) (A) (A) (A) (A) (A) (A)
                 (A) (A) (A) (A) (A) (A) (A) (A) (A) (A) (A) (A)
                 (A) (A) (A) (A) (A) (A) (A) (A) (A) (A) (A) (A)
                 (A) (A) (A) (A) (A) (A) (A) (A) (A) (A) (A) (A)
                 (A) (A) (A) (A) (A) (A) (A) (A) (A) (A) (A) (A)
                 (A) (A) (A) (A) (A) (A) (A) (A) (A) (A) (A) (A)
                 (A) (A) (A) (A) (A) (A) (A) (A) (A) (A) (A) (A)
                 (A) (A) (A) (A) (A) (A) (A) (A) (A) (A) (A) (A)
                 (A) (A) (A) (A) (A) (A) (A) (A) (A) (A) (A) (A)
                 (A) (A) (A) (A) (A) (A) (A) (A) (A) (A) (A) (A)
                 (A) (A) (A) (A) (A) (A) (A) (A) (A) (A) (A) (A)
                 (A) (A) (A) (A) (A) (A) (A) (A) (A) (A) (A) (A)
                 (A) (A) (A) (A) (A) (A) (A) (A) (A) (A) (A) (A)
                 (A) (A) (A) (A) (A) (A) (A) (A) (A) (A) (A) (A)
                 (A) (A) (A) (A) (A) (A) (A) (A) (A) (A) (A) (A)
                 (A) (A) (A) (A) (A) (A) (A) (A) (A) (A) (A) (A)
                 (A) (A) (A) (A) (A) (A) (A) (A) (A) (A) (A) (A)
                 (A) (A) (A) (A) (A) (A) (A) (A) (A) (A) (A) (A)
                 (A) (A) (A) (A) (A) (A) (A) (A) (A) (A) (A) (A)
                 (A) (A) (A) (A) (A) (A) (A) (A) (A) (A) (A) (A)
                 (A) (A) (A) (A) (A) (A) (A) (A) (A) (A) (A) (A)
                 (A) (A) (A) (A) (A) (A) (A) (A) (A) (A) (A) (A)
                 (A) (A) (A) (A) (A) (A) (A) (A) (A) (A) (A) (A)
                 (A) (A) (A) (A) (A) (A) (A) (A) (A) (A) (A) (A)
                 (A) (A) (A) (A) (A) (A) (A) (A) (A) (A) (A) (A)
                 (A) (A)
 Beta  Orbitals:
       Occupied  (A) (A) (A) (A) (A) (A) (A) (A) (A) (A) (A) (A)
                 (A) (A) (A) (A) (A) (A) (A) (A) (A) (A) (A) (A)
                 (A) (A) (A) (A) (A) (A) (A) (A) (A) (A) (A) (A)
                 (A) (A) (A) (A) (A) (A) (A) (A) (A) (A) (A)
       Virtual   (A) (A) (A) (A) (A) (A) (A) (A) (A) (A) (A) (A)
                 (A) (A) (A) (A) (A) (A) (A) (A) (A) (A) (A) (A)
                 (A) (A) (A) (A) (A) (A) (A) (A) (A) (A) (A) (A)
                 (A) (A) (A) (A) (A) (A) (A) (A) (A) (A) (A) (A)
                 (A) (A) (A) (A) (A) (A) (A) (A) (A) (A) (A) (A)
                 (A) (A) (A) (A) (A) (A) (A) (A) (A) (A) (A) (A)
                 (A) (A) (A) (A) (A) (A) (A) (A) (A) (A) (A) (A)
                 (A) (A) (A) (A) (A) (A) (A) (A) (A) (A) (A) (A)
                 (A) (A) (A) (A) (A) (A) (A) (A) (A) (A) (A) (A)
                 (A) (A) (A) (A) (A) (A) (A) (A) (A) (A) (A) (A)
                 (A) (A) (A) (A) (A) (A) (A) (A) (A) (A) (A) (A)
                 (A) (A) (A) (A) (A) (A) (A) (A) (A) (A) (A) (A)
                 (A) (A) (A) (A) (A) (A) (A) (A) (A) (A) (A) (A)
                 (A) (A) (A) (A) (A) (A) (A) (A) (A) (A) (A) (A)
                 (A) (A) (A) (A) (A) (A) (A) (A) (A) (A) (A) (A)
                 (A) (A) (A) (A) (A) (A) (A) (A) (A) (A) (A) (A)
                 (A) (A) (A) (A) (A) (A) (A) (A) (A) (A) (A) (A)
                 (A) (A) (A) (A) (A) (A) (A) (A) (A) (A) (A) (A)
                 (A) (A) (A) (A) (A) (A) (A) (A) (A) (A) (A) (A)
                 (A) (A) (A) (A) (A) (A) (A) (A) (A) (A) (A) (A)
                 (A) (A) (A) (A) (A) (A) (A) (A) (A) (A) (A) (A)
                 (A) (A) (A) (A) (A) (A) (A) (A) (A) (A) (A) (A)
                 (A) (A) (A) (A) (A) (A) (A) (A) (A) (A) (A) (A)
                 (A) (A) (A) (A) (A) (A) (A) (A) (A) (A) (A) (A)
                 (A) (A) (A) (A) (A) (A) (A) (A) (A) (A) (A) (A)
                 (A) (A) (A) (A) (A) (A) (A) (A) (A) (A) (A) (A)
                 (A) (A) (A) (A) (A) (A) (A) (A) (A) (A) (A) (A)
                 (A) (A) (A) (A) (A) (A) (A) (A) (A) (A) (A) (A)
                 (A) (A) (A) (A) (A) (A) (A) (A) (A) (A) (A) (A)
                 (A) (A) (A) (A) (A) (A) (A) (A) (A) (A) (A) (A)
                 (A) (A) (A) (A) (A) (A) (A) (A) (A) (A) (A) (A)
                 (A) (A) (A) (A) (A) (A) (A) (A) (A) (A) (A) (A)
                 (A) (A) (A) (A) (A) (A) (A) (A) (A) (A) (A) (A)
                 (A) (A) (A) (A) (A) (A) (A) (A) (A) (A) (A) (A)
                 (A) (A) (A) (A) (A) (A) (A) (A) (A) (A) (A) (A)
                 (A) (A) (A) (A) (A) (A) (A) (A) (A) (A) (A) (A)
                 (A) (A) (A) (A) (A) (A) (A) (A) (A) (A) (A) (A)
                 (A) (A) (A) (A) (A) (A) (A) (A) (A) (A) (A) (A)
                 (A) (A) (A) (A) (A) (A) (A) (A) (A) (A) (A) (A)
                 (A) (A) (A) (A) (A) (A) (A) (A) (A) (A) (A) (A)
                 (A) (A) (A) (A) (A) (A) (A) (A) (A) (A) (A) (A)
                 (A) (A) (A) (A) (A) (A) (A) (A) (A) (A) (A) (A)
                 (A) (A) (A) (A) (A) (A) (A) (A) (A) (A) (A) (A)
                 (A) (A) (A) (A) (A) (A) (A) (A) (A) (A) (A) (A)
                 (A) (A) (A) (A) (A) (A) (A) (A) (A) (A) (A) (A)
                 (A) (A) (A) (A) (A) (A) (A) (A) (A) (A) (A) (A)
                 (A) (A) (A) (A) (A) (A) (A) (A) (A) (A) (A) (A)
                 (A) (A) (A) (A) (A) (A) (A) (A) (A) (A) (A) (A)
                 (A) (A) (A) (A) (A) (A) (A) (A) (A) (A) (A) (A)
                 (A) (A) (A) (A) (A) (A) (A) (A) (A) (A) (A) (A)
                 (A) (A) (A) (A) (A) (A) (A) (A) (A) (A) (A) (A)
                 (A) (A) (A) (A) (A) (A) (A) (A) (A) (A) (A) (A)
                 (A) (A) (A) (A) (A) (A) (A) (A) (A) (A) (A) (A)
                 (A) (A) (A) (A) (A) (A) (A) (A) (A) (A) (A) (A)
                 (A) (A) (A) (A) (A) (A) (A) (A) (A) (A) (A) (A)
                 (A) (A) (A) (A) (A) (A) (A) (A) (A) (A) (A) (A)
                 (A) (A) (A) (A) (A) (A) (A) (A) (A) (A) (A) (A)
                 (A) (A) (A)
 The electronic state is 2-A.
 Alpha  occ. eigenvalues --  -89.89265 -89.87069 -67.04764 -47.60159 -25.18565
 Alpha  occ. eigenvalues --  -19.66658  -8.24937  -8.22835  -7.05478  -7.04775
 Alpha  occ. eigenvalues --   -6.17079  -6.16913  -6.16880  -6.14934  -6.14776
 Alpha  occ. eigenvalues --   -6.14716  -5.58333  -3.89688  -3.89410  -3.89253
 Alpha  occ. eigenvalues --   -3.34706  -2.15006  -2.04138  -2.03993  -2.03862
 Alpha  occ. eigenvalues --   -1.25985  -1.16954  -0.82423  -0.77724  -0.64690
 Alpha  occ. eigenvalues --   -0.63071  -0.59398  -0.53516  -0.51401  -0.51008
 Alpha  occ. eigenvalues --   -0.50055  -0.48556  -0.46355  -0.45617  -0.42899
 Alpha  occ. eigenvalues --   -0.42721  -0.39103  -0.38112  -0.36054  -0.32612
 Alpha  occ. eigenvalues --   -0.31761  -0.30840  -0.22634
 Alpha virt. eigenvalues --   -0.03491  -0.01930  -0.00996   0.00476   0.01441
 Alpha virt. eigenvalues --    0.02140   0.02833   0.03094   0.03574   0.04512
 Alpha virt. eigenvalues --    0.05146   0.05532   0.06447   0.06955   0.07955
 Alpha virt. eigenvalues --    0.08307   0.08756   0.08932   0.09812   0.10103
 Alpha virt. eigenvalues --    0.10508   0.11485   0.11934   0.12406   0.12588
 Alpha virt. eigenvalues --    0.13424   0.13982   0.14404   0.14715   0.15398
 Alpha virt. eigenvalues --    0.15706   0.16394   0.17108   0.17545   0.18392
 Alpha virt. eigenvalues --    0.19208   0.19562   0.20512   0.20677   0.21404
 Alpha virt. eigenvalues --    0.22481   0.22910   0.23611   0.23999   0.24341
 Alpha virt. eigenvalues --    0.24861   0.25503   0.26253   0.26677   0.27446
 Alpha virt. eigenvalues --    0.27663   0.27920   0.29856   0.30578   0.30717
 Alpha virt. eigenvalues --    0.31458   0.31615   0.32043   0.32309   0.33007
 Alpha virt. eigenvalues --    0.33776   0.34351   0.35127   0.35623   0.36209
 Alpha virt. eigenvalues --    0.37717   0.38335   0.38465   0.39059   0.39616
 Alpha virt. eigenvalues --    0.40348   0.41521   0.42658   0.43288   0.44108
 Alpha virt. eigenvalues --    0.45151   0.45315   0.45873   0.46245   0.47742
 Alpha virt. eigenvalues --    0.48656   0.48764   0.49190   0.49972   0.50815
 Alpha virt. eigenvalues --    0.51127   0.51583   0.52992   0.53443   0.53958
 Alpha virt. eigenvalues --    0.54677   0.55246   0.55860   0.56611   0.57386
 Alpha virt. eigenvalues --    0.58575   0.58899   0.59503   0.59760   0.60531
 Alpha virt. eigenvalues --    0.61641   0.61973   0.62497   0.62847   0.63068
 Alpha virt. eigenvalues --    0.64001   0.64425   0.65069   0.66150   0.66537
 Alpha virt. eigenvalues --    0.67298   0.68204   0.69226   0.69421   0.70699
 Alpha virt. eigenvalues --    0.71001   0.71893   0.72929   0.74093   0.74268
 Alpha virt. eigenvalues --    0.75550   0.76347   0.77045   0.77276   0.78397
 Alpha virt. eigenvalues --    0.79062   0.79745   0.81055   0.82059   0.83151
 Alpha virt. eigenvalues --    0.83612   0.84184   0.84908   0.85817   0.86906
 Alpha virt. eigenvalues --    0.87296   0.88934   0.89208   0.89678   0.91545
 Alpha virt. eigenvalues --    0.91892   0.92916   0.94789   0.95137   0.96188
 Alpha virt. eigenvalues --    0.97003   0.97455   0.98581   0.99107   0.99519
 Alpha virt. eigenvalues --    1.00657   1.01006   1.02080   1.02537   1.03252
 Alpha virt. eigenvalues --    1.04262   1.06247   1.06482   1.07662   1.08103
 Alpha virt. eigenvalues --    1.08711   1.09409   1.09700   1.10422   1.11135
 Alpha virt. eigenvalues --    1.12589   1.13367   1.13937   1.14389   1.15661
 Alpha virt. eigenvalues --    1.16205   1.18289   1.19067   1.19342   1.19815
 Alpha virt. eigenvalues --    1.20756   1.21922   1.22888   1.23945   1.24657
 Alpha virt. eigenvalues --    1.25248   1.26183   1.27421   1.28438   1.29699
 Alpha virt. eigenvalues --    1.30473   1.31300   1.32512   1.34016   1.34883
 Alpha virt. eigenvalues --    1.35707   1.36431   1.37046   1.37421   1.38759
 Alpha virt. eigenvalues --    1.39979   1.40948   1.42527   1.42901   1.43800
 Alpha virt. eigenvalues --    1.44302   1.45962   1.46544   1.47736   1.48999
 Alpha virt. eigenvalues --    1.49376   1.50545   1.52338   1.52801   1.53728
 Alpha virt. eigenvalues --    1.54274   1.54381   1.55053   1.56510   1.57282
 Alpha virt. eigenvalues --    1.58215   1.58756   1.60826   1.61745   1.62405
 Alpha virt. eigenvalues --    1.63647   1.63861   1.65732   1.66576   1.67598
 Alpha virt. eigenvalues --    1.68207   1.69013   1.69824   1.72075   1.72477
 Alpha virt. eigenvalues --    1.73906   1.76092   1.76788   1.78441   1.79085
 Alpha virt. eigenvalues --    1.80134   1.80499   1.81761   1.83314   1.84660
 Alpha virt. eigenvalues --    1.85368   1.86268   1.87302   1.88590   1.90786
 Alpha virt. eigenvalues --    1.91162   1.91466   1.94305   1.95262   1.97176
 Alpha virt. eigenvalues --    1.98873   2.00664   2.00962   2.01470   2.04357
 Alpha virt. eigenvalues --    2.05047   2.05243   2.07021   2.07917   2.09514
 Alpha virt. eigenvalues --    2.11176   2.12543   2.13698   2.14248   2.16136
 Alpha virt. eigenvalues --    2.16413   2.19005   2.21463   2.22043   2.23047
 Alpha virt. eigenvalues --    2.24344   2.25820   2.26358   2.28128   2.28927
 Alpha virt. eigenvalues --    2.29768   2.30830   2.32969   2.33590   2.34350
 Alpha virt. eigenvalues --    2.35034   2.35643   2.38388   2.39723   2.40773
 Alpha virt. eigenvalues --    2.41599   2.43418   2.44395   2.45742   2.46269
 Alpha virt. eigenvalues --    2.46861   2.47983   2.49025   2.50196   2.52108
 Alpha virt. eigenvalues --    2.55237   2.55370   2.56830   2.58593   2.59973
 Alpha virt. eigenvalues --    2.61907   2.63192   2.65004   2.65732   2.66712
 Alpha virt. eigenvalues --    2.67087   2.68544   2.69427   2.70614   2.72566
 Alpha virt. eigenvalues --    2.73369   2.73952   2.76352   2.77627   2.78082
 Alpha virt. eigenvalues --    2.79655   2.80428   2.80983   2.82564   2.84049
 Alpha virt. eigenvalues --    2.84351   2.86076   2.87518   2.88505   2.88928
 Alpha virt. eigenvalues --    2.90132   2.91720   2.92948   2.93442   2.94592
 Alpha virt. eigenvalues --    2.95896   2.96781   2.98514   3.00408   3.01202
 Alpha virt. eigenvalues --    3.02418   3.02750   3.03194   3.03789   3.05228
 Alpha virt. eigenvalues --    3.06817   3.07732   3.08727   3.09511   3.10201
 Alpha virt. eigenvalues --    3.12703   3.13250   3.15682   3.15846   3.17477
 Alpha virt. eigenvalues --    3.18196   3.18856   3.21980   3.23626   3.25030
 Alpha virt. eigenvalues --    3.26054   3.28117   3.29531   3.31178   3.31681
 Alpha virt. eigenvalues --    3.34537   3.35352   3.36338   3.37359   3.37632
 Alpha virt. eigenvalues --    3.38945   3.41144   3.42575   3.43671   3.45718
 Alpha virt. eigenvalues --    3.46432   3.48094   3.49858   3.50995   3.52351
 Alpha virt. eigenvalues --    3.54124   3.54841   3.57307   3.58904   3.59117
 Alpha virt. eigenvalues --    3.59682   3.61309   3.64577   3.65212   3.65880
 Alpha virt. eigenvalues --    3.67853   3.69849   3.70262   3.73794   3.74209
 Alpha virt. eigenvalues --    3.75525   3.78531   3.79526   3.80342   3.83922
 Alpha virt. eigenvalues --    3.85498   3.87002   3.88846   3.89773   3.91009
 Alpha virt. eigenvalues --    3.93597   3.95145   3.95961   3.98727   3.99788
 Alpha virt. eigenvalues --    4.00228   4.02652   4.04534   4.07014   4.09226
 Alpha virt. eigenvalues --    4.09619   4.10961   4.11501   4.13783   4.15564
 Alpha virt. eigenvalues --    4.17624   4.20225   4.22066   4.24158   4.24558
 Alpha virt. eigenvalues --    4.25378   4.26781   4.27692   4.28833   4.30528
 Alpha virt. eigenvalues --    4.30780   4.32576   4.32689   4.34054   4.35307
 Alpha virt. eigenvalues --    4.36796   4.37237   4.40199   4.41445   4.44586
 Alpha virt. eigenvalues --    4.45175   4.47870   4.48485   4.48715   4.50358
 Alpha virt. eigenvalues --    4.52479   4.59448   4.60975   4.64147   4.67374
 Alpha virt. eigenvalues --    4.69593   4.70211   4.72138   4.75673   4.76999
 Alpha virt. eigenvalues --    4.79238   4.81961   4.83528   4.85741   4.86851
 Alpha virt. eigenvalues --    4.90223   4.92302   5.01209   5.05010   5.32446
 Alpha virt. eigenvalues --    5.34242   5.35049   5.36826   5.42202   5.44410
 Alpha virt. eigenvalues --    5.48216   5.50731   5.53438   5.55414   5.56502
 Alpha virt. eigenvalues --    5.59114   5.60116   5.62225   5.66380   5.71317
 Alpha virt. eigenvalues --    5.72401   5.74686   5.75954   5.77137   5.80993
 Alpha virt. eigenvalues --    5.81917   5.84464   5.84919   5.90577   5.93610
 Alpha virt. eigenvalues --    5.97905   5.99356   6.02820   6.06451   6.11165
 Alpha virt. eigenvalues --    6.14480   6.18961   6.22705   6.24995   6.26951
 Alpha virt. eigenvalues --    6.30331   6.32008   6.35177   6.38964   6.46721
 Alpha virt. eigenvalues --    6.54207   6.55135   6.58045   6.61372   6.61541
 Alpha virt. eigenvalues --    6.64492   6.68863   6.73217   6.75098   6.77581
 Alpha virt. eigenvalues --    6.79143   6.79805   6.90583   6.94738   6.96563
 Alpha virt. eigenvalues --    7.00293   7.02549   7.05775   7.06454   7.09242
 Alpha virt. eigenvalues --    7.10908   7.13376   7.13955   7.14711   7.17987
 Alpha virt. eigenvalues --    7.18671   7.20963   7.23032   7.26421   7.27034
 Alpha virt. eigenvalues --    7.30079   7.31900   7.33504   7.35734   7.36652
 Alpha virt. eigenvalues --    7.40935   7.43141   7.44794   7.56092   7.64038
 Alpha virt. eigenvalues --    7.66068   7.70803   7.71136   7.73789   7.77371
 Alpha virt. eigenvalues --    7.78900   7.81020   7.83374   7.85623   7.88885
 Alpha virt. eigenvalues --    7.91635   7.93379   7.95168   7.96329   7.99215
 Alpha virt. eigenvalues --    8.01793   8.06499   8.11076   8.14473   8.19755
 Alpha virt. eigenvalues --    8.22425   8.25777   8.27522   8.30742   8.33073
 Alpha virt. eigenvalues --    8.34387   8.35701   8.36458   8.40341   8.41725
 Alpha virt. eigenvalues --    8.42024   8.45559   8.46289   8.48203   8.50472
 Alpha virt. eigenvalues --    8.52989   8.55396   8.56803   8.57875   8.61173
 Alpha virt. eigenvalues --    8.63662   8.68167   8.70946   8.72806   8.74375
 Alpha virt. eigenvalues --    8.78631   8.83458   8.85240   8.85703   8.88261
 Alpha virt. eigenvalues --    8.89049   8.93929   8.94662   8.97205   9.02412
 Alpha virt. eigenvalues --    9.04275   9.05473   9.08838   9.12866   9.14364
 Alpha virt. eigenvalues --    9.17533   9.18892   9.21429   9.29056   9.35895
 Alpha virt. eigenvalues --    9.45217   9.51443   9.54073   9.60136   9.64395
 Alpha virt. eigenvalues --    9.65041   9.74038   9.95605  10.03563  10.04798
 Alpha virt. eigenvalues --   10.46941  10.50101  10.64893  10.76218  10.80279
 Alpha virt. eigenvalues --   11.04073  11.14759  11.28973  11.34245  11.34862
 Alpha virt. eigenvalues --   11.34878  11.35029  11.35631  11.35722  11.36372
 Alpha virt. eigenvalues --   11.36894  11.38879  11.47862  11.53177  11.56669
 Alpha virt. eigenvalues --   11.67440  12.15903  12.38474  12.46704  12.66626
 Alpha virt. eigenvalues --   12.82034  13.05439  13.33823  13.46498  13.68929
 Alpha virt. eigenvalues --   14.18355  14.47835  14.48397  14.50257  14.50401
 Alpha virt. eigenvalues --   14.51618  14.54675  14.61725  15.18713  15.93256
 Alpha virt. eigenvalues --   15.97018  15.98483  16.02350  16.09175  16.15481
 Alpha virt. eigenvalues --   16.33240  16.83668  19.65658  20.22268  24.45311
 Alpha virt. eigenvalues --   24.65549  29.09163  29.16639  29.18868  29.31357
 Alpha virt. eigenvalues --   29.43017  29.45832  35.14539  48.35438  54.35926
 Alpha virt. eigenvalues --   58.40427  84.16236  84.35130 101.14108 101.66316
 Alpha virt. eigenvalues --  196.13234 251.45662 283.24524 315.75079 449.88055
 Alpha virt. eigenvalues --  450.21267
  Beta  occ. eigenvalues --  -89.89189 -89.87019 -67.04775 -47.60027 -25.18558
  Beta  occ. eigenvalues --  -19.66653  -8.24913  -8.22816  -7.05469  -7.04630
  Beta  occ. eigenvalues --   -6.16998  -6.16909  -6.16706  -6.14886  -6.14705
  Beta  occ. eigenvalues --   -6.14675  -5.58346  -3.89694  -3.89410  -3.89272
  Beta  occ. eigenvalues --   -3.34570  -2.15013  -2.04073  -2.03837  -2.03772
  Beta  occ. eigenvalues --   -1.25965  -1.16944  -0.81832  -0.77417  -0.64578
  Beta  occ. eigenvalues --   -0.62896  -0.58232  -0.53417  -0.51263  -0.50253
  Beta  occ. eigenvalues --   -0.49820  -0.48526  -0.46108  -0.45278  -0.42318
  Beta  occ. eigenvalues --   -0.42208  -0.38397  -0.37722  -0.35561  -0.31771
  Beta  occ. eigenvalues --   -0.31596  -0.30105
  Beta virt. eigenvalues --   -0.08834  -0.03470  -0.01984  -0.00944   0.00290
  Beta virt. eigenvalues --    0.01231   0.02404   0.02436   0.03062   0.03737
  Beta virt. eigenvalues --    0.04899   0.05209   0.05759   0.06574   0.07183
  Beta virt. eigenvalues --    0.07823   0.07939   0.08413   0.08907   0.09258
  Beta virt. eigenvalues --    0.09725   0.10401   0.10969   0.11291   0.11868
  Beta virt. eigenvalues --    0.12409   0.12866   0.13481   0.14214   0.14304
  Beta virt. eigenvalues --    0.14844   0.15253   0.15752   0.16708   0.17168
  Beta virt. eigenvalues --    0.17902   0.18907   0.19518   0.20104   0.20547
  Beta virt. eigenvalues --    0.21348   0.22218   0.22745   0.23249   0.24041
  Beta virt. eigenvalues --    0.24212   0.24821   0.25115   0.25641   0.26284
  Beta virt. eigenvalues --    0.27218   0.27681   0.27930   0.29230   0.30080
  Beta virt. eigenvalues --    0.30576   0.30898   0.31477   0.31895   0.32165
  Beta virt. eigenvalues --    0.33085   0.33457   0.34066   0.34950   0.35220
  Beta virt. eigenvalues --    0.35597   0.37526   0.38025   0.38401   0.38700
  Beta virt. eigenvalues --    0.39399   0.40105   0.40830   0.41970   0.42750
  Beta virt. eigenvalues --    0.43708   0.44201   0.44859   0.45075   0.45911
  Beta virt. eigenvalues --    0.46838   0.47875   0.48359   0.49011   0.49827
  Beta virt. eigenvalues --    0.50361   0.50761   0.51240   0.52667   0.53185
  Beta virt. eigenvalues --    0.53710   0.53945   0.54886   0.55086   0.55750
  Beta virt. eigenvalues --    0.56461   0.57926   0.58629   0.59120   0.59208
  Beta virt. eigenvalues --    0.60280   0.60715   0.61530   0.61962   0.62466
  Beta virt. eigenvalues --    0.62789   0.63119   0.63743   0.64946   0.65430
  Beta virt. eigenvalues --    0.66060   0.66479   0.67453   0.68828   0.68994
  Beta virt. eigenvalues --    0.70035   0.70601   0.71385   0.72152   0.73428
  Beta virt. eigenvalues --    0.73778   0.74716   0.75306   0.75862   0.76760
  Beta virt. eigenvalues --    0.77663   0.78164   0.78898   0.80542   0.81631
  Beta virt. eigenvalues --    0.82387   0.83029   0.83898   0.84229   0.84820
  Beta virt. eigenvalues --    0.86545   0.87011   0.88613   0.88945   0.89352
  Beta virt. eigenvalues --    0.90569   0.91734   0.92257   0.94222   0.94937
  Beta virt. eigenvalues --    0.95942   0.96644   0.96821   0.98246   0.98479
  Beta virt. eigenvalues --    0.98958   1.00481   1.00958   1.01552   1.02106
  Beta virt. eigenvalues --    1.03211   1.03544   1.06043   1.06310   1.07502
  Beta virt. eigenvalues --    1.07999   1.08614   1.09501   1.09643   1.10257
  Beta virt. eigenvalues --    1.10843   1.12501   1.13263   1.13806   1.14282
  Beta virt. eigenvalues --    1.15838   1.16195   1.18231   1.18836   1.19308
  Beta virt. eigenvalues --    1.19829   1.20553   1.22031   1.22903   1.23909
  Beta virt. eigenvalues --    1.24506   1.25271   1.26169   1.27095   1.28420
  Beta virt. eigenvalues --    1.29670   1.30959   1.31228   1.32613   1.33972
  Beta virt. eigenvalues --    1.35132   1.36127   1.36711   1.37430   1.38397
  Beta virt. eigenvalues --    1.38715   1.40112   1.41001   1.42488   1.42912
  Beta virt. eigenvalues --    1.43976   1.44460   1.45693   1.46618   1.47653
  Beta virt. eigenvalues --    1.48743   1.49618   1.50446   1.51408   1.52315
  Beta virt. eigenvalues --    1.53375   1.54429   1.54568   1.54801   1.56209
  Beta virt. eigenvalues --    1.57465   1.57929   1.58658   1.59986   1.61868
  Beta virt. eigenvalues --    1.62336   1.63832   1.64228   1.65824   1.67121
  Beta virt. eigenvalues --    1.67743   1.68738   1.69041   1.70192   1.72214
  Beta virt. eigenvalues --    1.72533   1.74460   1.76400   1.77120   1.78710
  Beta virt. eigenvalues --    1.79117   1.80306   1.80743   1.82351   1.83736
  Beta virt. eigenvalues --    1.85251   1.85576   1.86407   1.87495   1.88550
  Beta virt. eigenvalues --    1.90826   1.91482   1.91639   1.93756   1.95553
  Beta virt. eigenvalues --    1.97289   1.98861   2.00339   2.01408   2.01741
  Beta virt. eigenvalues --    2.04858   2.05225   2.05534   2.07444   2.08319
  Beta virt. eigenvalues --    2.09735   2.11873   2.12783   2.14121   2.14540
  Beta virt. eigenvalues --    2.16809   2.17305   2.19312   2.21871   2.22317
  Beta virt. eigenvalues --    2.23328   2.24676   2.26166   2.26802   2.28688
  Beta virt. eigenvalues --    2.29357   2.30020   2.31185   2.33332   2.33895
  Beta virt. eigenvalues --    2.34643   2.35846   2.36020   2.38801   2.40396
  Beta virt. eigenvalues --    2.41349   2.42049   2.43975   2.44513   2.46214
  Beta virt. eigenvalues --    2.46819   2.47278   2.48532   2.49362   2.50924
  Beta virt. eigenvalues --    2.52909   2.55762   2.55871   2.57494   2.58991
  Beta virt. eigenvalues --    2.60936   2.62258   2.63641   2.65495   2.66049
  Beta virt. eigenvalues --    2.66947   2.67500   2.69178   2.69820   2.70939
  Beta virt. eigenvalues --    2.73150   2.73539   2.74448   2.76574   2.77980
  Beta virt. eigenvalues --    2.78748   2.80279   2.80647   2.81393   2.83583
  Beta virt. eigenvalues --    2.84617   2.84850   2.86670   2.87830   2.89049
  Beta virt. eigenvalues --    2.89493   2.91011   2.91997   2.93422   2.94144
  Beta virt. eigenvalues --    2.95306   2.96583   2.97302   2.99313   3.01501
  Beta virt. eigenvalues --    3.01644   3.02726   3.03458   3.04037   3.04331
  Beta virt. eigenvalues --    3.05789   3.07200   3.08435   3.09439   3.10238
  Beta virt. eigenvalues --    3.11271   3.13258   3.13626   3.16252   3.16603
  Beta virt. eigenvalues --    3.18209   3.19168   3.19694   3.22895   3.24343
  Beta virt. eigenvalues --    3.25882   3.26687   3.29204   3.30522   3.31735
  Beta virt. eigenvalues --    3.32532   3.35229   3.36430   3.37189   3.38276
  Beta virt. eigenvalues --    3.39070   3.40687   3.41886   3.43947   3.45265
  Beta virt. eigenvalues --    3.46604   3.47851   3.49942   3.51231   3.53483
  Beta virt. eigenvalues --    3.54282   3.55990   3.57524   3.58475   3.60623
  Beta virt. eigenvalues --    3.61762   3.63673   3.65375   3.66497   3.66742
  Beta virt. eigenvalues --    3.68632   3.69493   3.70518   3.73485   3.76294
  Beta virt. eigenvalues --    3.76804   3.79036   3.80463   3.82162   3.82589
  Beta virt. eigenvalues --    3.86581   3.87841   3.89623   3.90147   3.91379
  Beta virt. eigenvalues --    3.92539   3.95845   3.98183   3.99829   4.01440
  Beta virt. eigenvalues --    4.03156   4.03955   4.07307   4.08369   4.10274
  Beta virt. eigenvalues --    4.10836   4.12609   4.13523   4.14891   4.16698
  Beta virt. eigenvalues --    4.16927   4.19409   4.21140   4.23486   4.24613
  Beta virt. eigenvalues --    4.26139   4.27088   4.28218   4.29611   4.29897
  Beta virt. eigenvalues --    4.31204   4.32377   4.33755   4.35417   4.36035
  Beta virt. eigenvalues --    4.37595   4.39040   4.40618   4.42068   4.43890
  Beta virt. eigenvalues --    4.45469   4.47983   4.48667   4.48924   4.50741
  Beta virt. eigenvalues --    4.51256   4.53356   4.62269   4.63644   4.67805
  Beta virt. eigenvalues --    4.70645   4.71484   4.74202   4.75867   4.77841
  Beta virt. eigenvalues --    4.79605   4.81028   4.83503   4.86852   4.88749
  Beta virt. eigenvalues --    4.89952   4.93374   4.94146   5.04410   5.08020
  Beta virt. eigenvalues --    5.32575   5.34336   5.35789   5.36913   5.42167
  Beta virt. eigenvalues --    5.44473   5.48263   5.50899   5.55238   5.55913
  Beta virt. eigenvalues --    5.57423   5.59183   5.60743   5.62857   5.66883
  Beta virt. eigenvalues --    5.71816   5.72739   5.75424   5.77252   5.79254
  Beta virt. eigenvalues --    5.81121   5.82498   5.84522   5.85805   5.90625
  Beta virt. eigenvalues --    5.93794   5.98251   5.99778   6.03219   6.07022
  Beta virt. eigenvalues --    6.11741   6.15040   6.19114   6.22831   6.26793
  Beta virt. eigenvalues --    6.27774   6.30709   6.32016   6.35955   6.39014
  Beta virt. eigenvalues --    6.46953   6.54216   6.55450   6.58176   6.61475
  Beta virt. eigenvalues --    6.61621   6.64664   6.70960   6.74298   6.77659
  Beta virt. eigenvalues --    6.78076   6.81187   6.81688   6.90555   6.95029
  Beta virt. eigenvalues --    6.96676   7.00914   7.02794   7.05924   7.06710
  Beta virt. eigenvalues --    7.09452   7.11052   7.13798   7.14135   7.18072
  Beta virt. eigenvalues --    7.19347   7.21096   7.21699   7.23166   7.26775
  Beta virt. eigenvalues --    7.27158   7.31107   7.33449   7.35676   7.36550
  Beta virt. eigenvalues --    7.37347   7.41427   7.43583   7.44992   7.56443
  Beta virt. eigenvalues --    7.64093   7.66351   7.70864   7.71283   7.73907
  Beta virt. eigenvalues --    7.77584   7.79005   7.81261   7.83431   7.85751
  Beta virt. eigenvalues --    7.89001   7.92210   7.93564   7.95320   7.96433
  Beta virt. eigenvalues --    7.99686   8.01864   8.06772   8.11243   8.14605
  Beta virt. eigenvalues --    8.20007   8.22585   8.26008   8.27683   8.31425
  Beta virt. eigenvalues --    8.33770   8.34488   8.36638   8.37584   8.40719
  Beta virt. eigenvalues --    8.42023   8.42285   8.45905   8.46659   8.49725
  Beta virt. eigenvalues --    8.50921   8.53254   8.55721   8.57211   8.58190
  Beta virt. eigenvalues --    8.61455   8.66933   8.68232   8.71440   8.73390
  Beta virt. eigenvalues --    8.76626   8.78884   8.83715   8.85522   8.85932
  Beta virt. eigenvalues --    8.88450   8.89240   8.94289   8.94959   8.97428
  Beta virt. eigenvalues --    9.02865   9.04740   9.05762   9.10475   9.13725
  Beta virt. eigenvalues --    9.14591   9.17885   9.19141   9.21710   9.29539
  Beta virt. eigenvalues --    9.36287   9.45858   9.51745   9.54343   9.60377
  Beta virt. eigenvalues --    9.64825   9.65200   9.74088  10.03489  10.04752
  Beta virt. eigenvalues --   10.04907  10.46953  10.50106  10.65244  10.76217
  Beta virt. eigenvalues --   10.80288  11.04079  11.14762  11.28978  11.34225
  Beta virt. eigenvalues --   11.34838  11.34854  11.35003  11.35611  11.35705
  Beta virt. eigenvalues --   11.36360  11.36886  11.38849  11.47867  11.53182
  Beta virt. eigenvalues --   11.56671  11.67450  12.15912  12.38680  12.46711
  Beta virt. eigenvalues --   12.66937  12.82779  13.05449  13.33836  13.46515
  Beta virt. eigenvalues --   13.68944  14.18370  14.47817  14.48381  14.50266
  Beta virt. eigenvalues --   14.50400  14.51629  14.54682  14.61729  15.18722
  Beta virt. eigenvalues --   15.93279  15.97008  15.98499  16.02352  16.09187
  Beta virt. eigenvalues --   16.15503  16.33259  16.83912  19.74053  20.22608
  Beta virt. eigenvalues --   24.45624  24.66109  29.09310  29.17228  29.19092
  Beta virt. eigenvalues --   29.31637  29.43119  29.45993  35.14788  48.35436
  Beta virt. eigenvalues --   54.35897  58.40472  84.16375  84.35363 101.15806
  Beta virt. eigenvalues --  101.66398 196.13123 251.45651 283.24511 315.75105
  Beta virt. eigenvalues --  449.88015 450.21209
          Condensed to atoms (all electrons):
               1          2          3          4          5          6
     1  H    0.795946  -0.032854   0.010637  -0.016807  -0.000406   0.007809
     2  S   -0.032854  15.436175   0.358234  -0.016088   0.021637  -0.002510
     3  B    0.010637   0.358234   4.490769   0.001499   0.152437   0.000080
     4  O   -0.016807  -0.016088   0.001499   7.745415  -0.001431   0.332543
     5  Mg  -0.000406   0.021637   0.152437  -0.001431  10.583557   0.000336
     6  H    0.007809  -0.002510   0.000080   0.332543   0.000336   0.331925
     7  H   -0.033332  -0.029370  -0.001194   0.000337   0.002262  -0.000849
     8  H   -0.000283  -0.018566   0.384267  -0.000009   0.007568  -0.000017
     9  Si  -0.013159  -0.086407   0.412849  -0.001567  -0.048083   0.001335
    10  H   -0.000183   0.001137   0.001915   0.328814   0.008958  -0.007049
    11  B    0.335886   0.381217  -0.084189   0.000719  -0.002791   0.015791
    12  Li   0.002068   0.134906  -0.021853   0.143035  -0.025980  -0.012004
    13  F    0.000011  -0.014535   0.000022  -0.000869   0.096184  -0.000084
    14  H    0.000424   0.004593  -0.016898  -0.000011   0.003534   0.000030
    15  H   -0.027699  -0.051602  -0.027319  -0.002173   0.002808   0.000334
    16  S    0.000452   0.005595  -0.127880  -0.023713   0.274145   0.001510
               7          8          9         10         11         12
     1  H   -0.033332  -0.000283  -0.013159  -0.000183   0.335886   0.002068
     2  S   -0.029370  -0.018566  -0.086407   0.001137   0.381217   0.134906
     3  B   -0.001194   0.384267   0.412849   0.001915  -0.084189  -0.021853
     4  O    0.000337  -0.000009  -0.001567   0.328814   0.000719   0.143035
     5  Mg   0.002262   0.007568  -0.048083   0.008958  -0.002791  -0.025980
     6  H   -0.000849  -0.000017   0.001335  -0.007049   0.015791  -0.012004
     7  H    0.576402   0.000043  -0.004406   0.000069   0.438841   0.000060
     8  H    0.000043   0.469622  -0.021069  -0.000027   0.007109   0.000573
     9  Si  -0.004406  -0.021069  12.364994  -0.000209  -0.015079   0.013218
    10  H    0.000069  -0.000027  -0.000209   0.334431   0.002829  -0.007438
    11  B    0.438841   0.007109  -0.015079   0.002829   4.012693   0.014287
    12  Li   0.000060   0.000573   0.013218  -0.007438   0.014287   2.188210
    13  F   -0.000043  -0.000007   0.000511  -0.000357   0.000719   0.177728
    14  H   -0.000157   0.000515   0.386990   0.000117  -0.004451  -0.000751
    15  H   -0.046136  -0.000586   0.200055  -0.001317   0.208607  -0.004280
    16  S    0.000854   0.002740   0.504197   0.026756  -0.008489  -0.001736
              13         14         15         16
     1  H    0.000011   0.000424  -0.027699   0.000452
     2  S   -0.014535   0.004593  -0.051602   0.005595
     3  B    0.000022  -0.016898  -0.027319  -0.127880
     4  O   -0.000869  -0.000011  -0.002173  -0.023713
     5  Mg   0.096184   0.003534   0.002808   0.274145
     6  H   -0.000084   0.000030   0.000334   0.001510
     7  H   -0.000043  -0.000157  -0.046136   0.000854
     8  H   -0.000007   0.000515  -0.000586   0.002740
     9  Si   0.000511   0.386990   0.200055   0.504197
    10  H   -0.000357   0.000117  -0.001317   0.026756
    11  B    0.000719  -0.004451   0.208607  -0.008489
    12  Li   0.177728  -0.000751  -0.004280  -0.001736
    13  F    9.327213  -0.000005  -0.000279  -0.003624
    14  H   -0.000005   0.706003  -0.017610  -0.021993
    15  H   -0.000279  -0.017610   0.846307  -0.046913
    16  S   -0.003624  -0.021993  -0.046913  15.854322
          Atomic-Atomic Spin Densities.
               1          2          3          4          5          6
     1  H    0.012185  -0.001654   0.001832  -0.000566  -0.000448  -0.000712
     2  S   -0.001654   0.087357  -0.077363  -0.000804  -0.042239  -0.000464
     3  B    0.001832  -0.077363   0.560272   0.000673   0.167213   0.000277
     4  O   -0.000566  -0.000804   0.000673  -0.000461   0.000231   0.000282
     5  Mg  -0.000448  -0.042239   0.167213   0.000231   0.172535   0.000277
     6  H   -0.000712  -0.000464   0.000277   0.000282   0.000277   0.001400
     7  H   -0.000649   0.002328  -0.002987  -0.000035  -0.000822   0.000041
     8  H    0.000060   0.002051  -0.013857  -0.000007  -0.017510   0.000000
     9  Si   0.000522   0.014634  -0.027942  -0.000400   0.008683  -0.000029
    10  H   -0.000131  -0.001006   0.000509  -0.000208  -0.000161   0.000484
    11  B   -0.001264   0.014988   0.009819   0.000691  -0.002664   0.000293
    12  Li   0.002367   0.034260  -0.015181  -0.001831  -0.005333  -0.000917
    13  F   -0.000016   0.000871  -0.001143   0.000049  -0.001899  -0.000045
    14  H   -0.000156  -0.000333  -0.000497   0.000004   0.002158   0.000006
    15  H   -0.006286   0.000115  -0.003258   0.000247   0.007378   0.000161
    16  S    0.000297   0.007824  -0.039826  -0.000445  -0.033743   0.000008
               7          8          9         10         11         12
     1  H   -0.000649   0.000060   0.000522  -0.000131  -0.001264   0.002367
     2  S    0.002328   0.002051   0.014634  -0.001006   0.014988   0.034260
     3  B   -0.002987  -0.013857  -0.027942   0.000509   0.009819  -0.015181
     4  O   -0.000035  -0.000007  -0.000400  -0.000208   0.000691  -0.001831
     5  Mg  -0.000822  -0.017510   0.008683  -0.000161  -0.002664  -0.005333
     6  H    0.000041   0.000000  -0.000029   0.000484   0.000293  -0.000917
     7  H    0.015156   0.000106   0.001384  -0.000041   0.001343   0.001130
     8  H    0.000106   0.032543   0.012508  -0.000014  -0.000618   0.001357
     9  Si   0.001384   0.012508  -0.018346  -0.000207   0.024014   0.002939
    10  H   -0.000041  -0.000014  -0.000207   0.000633   0.000313   0.000284
    11  B    0.001343  -0.000618   0.024014   0.000313   0.007468  -0.005189
    12  Li   0.001130   0.001357   0.002939   0.000284  -0.005189   0.022210
    13  F    0.000000   0.000019   0.000059   0.000107   0.000061   0.000266
    14  H   -0.000246  -0.000390  -0.007732   0.000027  -0.000805   0.000052
    15  H   -0.002923  -0.000829  -0.018283   0.000513  -0.002354  -0.004953
    16  S    0.000270   0.001018   0.024216  -0.000360  -0.001818   0.001515
              13         14         15         16
     1  H   -0.000016  -0.000156  -0.006286   0.000297
     2  S    0.000871  -0.000333   0.000115   0.007824
     3  B   -0.001143  -0.000497  -0.003258  -0.039826
     4  O    0.000049   0.000004   0.000247  -0.000445
     5  Mg  -0.001899   0.002158   0.007378  -0.033743
     6  H   -0.000045   0.000006   0.000161   0.000008
     7  H    0.000000  -0.000246  -0.002923   0.000270
     8  H    0.000019  -0.000390  -0.000829   0.001018
     9  Si   0.000059  -0.007732  -0.018283   0.024216
    10  H    0.000107   0.000027   0.000513  -0.000360
    11  B    0.000061  -0.000805  -0.002354  -0.001818
    12  Li   0.000266   0.000052  -0.004953   0.001515
    13  F    0.002078  -0.000001  -0.000004   0.000434
    14  H   -0.000001   0.016637   0.003753  -0.002212
    15  H   -0.000004   0.003753   0.025763  -0.004748
    16  S    0.000434  -0.002212  -0.004748   0.061032
 Mulliken charges and spin densities:
               1          2
     1  H   -0.028510   0.005380
     2  S   -0.091560   0.040563
     3  B   -0.533374   0.558543
     4  O   -0.489692  -0.002578
     5  Mg   0.925265   0.253657
     6  H    0.330818   0.001063
     7  H    0.096620   0.014055
     8  H    0.168128   0.016439
     9  Si   0.305831   0.016022
    10  H    0.311555   0.000742
    11  B   -0.303700   0.044279
    12  Li   0.399957   0.032977
    13  F   -0.582586   0.000838
    14  H   -0.040329   0.010264
    15  H   -0.032196  -0.005707
    16  S   -0.436225   0.013462
 Sum of Mulliken charges =  -0.00000   1.00000
 Mulliken charges and spin densities with hydrogens summed into heavy atoms:
               1          2
     2  S   -0.091560   0.040563
     3  B   -0.365246   0.574982
     4  O    0.152680  -0.000772
     5  Mg   0.925265   0.253657
     9  Si   0.265502   0.026286
    11  B   -0.267787   0.058007
    12  Li   0.399957   0.032977
    13  F   -0.582586   0.000838
    16  S   -0.436225   0.013462
 Electronic spatial extent (au):  <R**2>=           1782.4815
 Charge=             -0.0000 electrons
 Dipole moment (field-independent basis, Debye):
    X=             -2.2178    Y=             -0.0093    Z=             -0.1539  Tot=              2.2231
 Quadrupole moment (field-independent basis, Debye-Ang):
   XX=            -76.6658   YY=            -87.6972   ZZ=            -77.3712
   XY=             -4.3797   XZ=             -1.9459   YZ=              5.7840
 Traceless Quadrupole moment (field-independent basis, Debye-Ang):
   XX=              3.9122   YY=             -7.1191   ZZ=              3.2069
   XY=             -4.3797   XZ=             -1.9459   YZ=              5.7840
 Octapole moment (field-independent basis, Debye-Ang**2):
  XXX=            -47.1160  YYY=            -24.2549  ZZZ=             -6.6568  XYY=            -31.0614
  XXY=             10.0084  XXZ=             10.3979  XZZ=            -16.4568  YZZ=            -14.8230
  YYZ=             -3.8523  XYZ=             -5.4403
 Hexadecapole moment (field-independent basis, Debye-Ang**3):
 XXXX=           -920.4428 YYYY=          -1026.4188 ZZZZ=           -618.1321 XXXY=            -64.6000
 XXXZ=            -35.7152 YYYX=              9.1395 YYYZ=              8.5578 ZZZX=             34.5261
 ZZZY=             21.0721 XXYY=           -318.6843 XXZZ=           -283.2684 YYZZ=           -264.1543
 XXYZ=              8.8124 YYXZ=             -7.1885 ZZXY=             -9.1137
 N-N= 7.227030374451D+02 E-N=-5.067323322610D+03  KE= 1.519296082454D+03
                          Isotropic Fermi Contact Couplings
        Atom                 a.u.       MegaHertz       Gauss      10(-4) cm-1
     1  H(1)               0.00235      10.49769       3.74584       3.50165
     2  S(33)              0.00825       2.83281       1.01082       0.94492
     3  B(11)              0.05457      78.27707      27.93121      26.11042
     4  O(17)              0.00119      -0.72424      -0.25843      -0.24158
     5  Mg(25)             0.27100     -74.20773     -26.47916     -24.75304
     6  H(1)              -0.00008      -0.35065      -0.12512      -0.11696
     7  H(1)              -0.00010      -0.46624      -0.16637      -0.15552
     8  H(1)              -0.00545     -24.36165      -8.69284      -8.12617
     9  Si(29)            -0.03001      26.66870       9.51606       8.89572
    10  H(1)              -0.00005      -0.21857      -0.07799      -0.07291
    11  B(11)              0.00735      10.54971       3.76440       3.51900
    12  Li(7)              0.00386       6.69738       2.38979       2.23401
    13  F(19)              0.00288      12.11227       4.32196       4.04022
    14  H(1)               0.00094       4.19829       1.49805       1.40040
    15  H(1)               0.00514      22.99142       8.20391       7.66911
    16  S(33)              0.02844       9.76934       3.48594       3.25870
 PrsmSu:  requested number of processors reduced to:  19 ShMem   1 Linda.
 --------------------------------------------------------
       Center         ----  Spin Dipole Couplings  ----
                      3XX-RR        3YY-RR        3ZZ-RR
 --------------------------------------------------------
     1   Atom       -0.001675     -0.002367      0.004041
     2   Atom       -0.118042      0.360325     -0.242282
     3   Atom        0.044224      0.072833     -0.117057
     4   Atom       -0.004108      0.002524      0.001584
     5   Atom        0.007919     -0.057962      0.050043
     6   Atom       -0.001067     -0.001504      0.002572
     7   Atom       -0.001240     -0.001011      0.002251
     8   Atom       -0.013920     -0.011160      0.025080
     9   Atom       -0.003141      0.029309     -0.026169
    10   Atom       -0.000910     -0.000800      0.001710
    11   Atom       -0.003950     -0.008089      0.012039
    12   Atom        0.003876     -0.002521     -0.001355
    13   Atom       -0.008660     -0.008682      0.017343
    14   Atom        0.002673     -0.001482     -0.001191
    15   Atom       -0.002885     -0.002393      0.005278
    16   Atom       -0.130796      0.002211      0.128585
 --------------------------------------------------------
                        XY            XZ            YZ
 --------------------------------------------------------
[...]
  Beta virt. eigenvalues --   29.31637  29.43119  29.45993  35.14788  48.35436
  Beta virt. eigenvalues --   54.35897  58.40472  84.16375  84.35363 101.15806
  Beta virt. eigenvalues --  101.66398 196.13123 251.45651 283.24511 315.75105
  Beta virt. eigenvalues --  449.88015 450.21209
          Condensed to atoms (all electrons):
               1          2          3          4          5          6
     1  H    0.795946  -0.032854   0.010637  -0.016807  -0.000406   0.007809
     2  S   -0.032854  15.436175   0.358234  -0.016088   0.021637  -0.002510
     3  B    0.010637   0.358234   4.490769   0.001499   0.152437   0.000080
     4  O   -0.016807  -0.016088   0.001499   7.745415  -0.001431   0.332543
     5  Mg  -0.000406   0.021637   0.152437  -0.001431  10.583557   0.000336
     6  H    0.007809  -0.002510   0.000080   0.332543   0.000336   0.331925
     7  H   -0.033332  -0.029370  -0.001194   0.000337   0.002262  -0.000849
     8  H   -0.000283  -0.018566   0.384267  -0.000009   0.007568  -0.000017
     9  Si  -0.013159  -0.086407   0.412849  -0.001567  -0.048083   0.001335
    10  H   -0.000183   0.001137   0.001915   0.328814   0.008958  -0.007049
    11  B    0.335886   0.381217  -0.084189   0.000719  -0.002791   0.015791
    12  Li   0.002068   0.134906  -0.021853   0.143035  -0.025980  -0.012004
    13  F    0.000011  -0.014535   0.000022  -0.000869   0.096184  -0.000084
    14  H    0.000424   0.004593  -0.016898  -0.000011   0.003534   0.000030
    15  H   -0.027699  -0.051602  -0.027319  -0.002173   0.002808   0.000334
    16  S    0.000452   0.005595  -0.127880  -0.023713   0.274145   0.001510
               7          8          9         10         11         12
     1  H   -0.033332  -0.000283  -0.013159  -0.000183   0.335886   0.002068
     2  S   -0.029370  -0.018566  -0.086407   0.001137   0.381217   0.134906
     3  B   -0.001194   0.384267   0.412849   0.001915  -0.084189  -0.021853
     4  O    0.000337  -0.000009  -0.001567   0.328814   0.000719   0.143035
     5  Mg   0.002262   0.007568  -0.048083   0.008958  -0.002791  -0.025980
     6  H   -0.000849  -0.000017   0.001335  -0.007049   0.015791  -0.012004
     7  H    0.576402   0.000043  -0.004406   0.000069   0.438841   0.000060
     8  H    0.000043   0.469622  -0.021069  -0.000027   0.007109   0.000573
     9  Si  -0.004406  -0.021069  12.364994  -0.000209  -0.015079   0.013218
    10  H    0.000069  -0.000027  -0.000209   0.334431   0.002829  -0.007438
    11  B    0.438841   0.007109  -0.015079   0.002829   4.012693   0.014287
    12  Li   0.000060   0.000573   0.013218  -0.007438   0.014287   2.188210
    13  F   -0.000043  -0.000007   0.000511  -0.000357   0.000719   0.177728
    14  H   -0.000157   0.000515   0.386990   0.000117  -0.004451  -0.000751
    15  H   -0.046136  -0.000586   0.200055  -0.001317   0.208607  -0.004280
    16  S    0.000854   0.002740   0.504197   0.026756  -0.008489  -0.001736
              13         14         15         16
     1  H    0.000011   0.000424  -0.027699   0.000452
     2  S   -0.014535   0.004593  -0.051602   0.005595
     3  B    0.000022  -0.016898  -0.027319  -0.127880
     4  O   -0.000869  -0.000011  -0.002173  -0.023713
     5  Mg   0.096184   0.003534   0.002808   0.274145
     6  H   -0.000084   0.000030   0.000334   0.001510
     7  H   -0.000043  -0.000157  -0.046136   0.000854
     8  H   -0.000007   0.000515  -0.000586   0.002740
     9  Si   0.000511   0.386990   0.200055   0.504197
    10  H   -0.000357   0.000117  -0.001317   0.026756
    11  B    0.000719  -0.004451   0.208607  -0.008489
    12  Li   0.177728  -0.000751  -0.004280  -0.001736
    13  F    9.327213  -0.000005  -0.000279  -0.003624
    14  H   -0.000005   0.706003  -0.017610  -0.021993
    15  H   -0.000279  -0.017610   0.846307  -0.046913
    16  S   -0.003624  -0.021993  -0.046913  15.854322
          Atomic-Atomic Spin Densities.
               1          2          3          4          5          6
     1  H    0.012185  -0.001654   0.001832  -0.000566  -0.000448  -0.000712
     2  S   -0.001654   0.087357  -0.077363  -0.000804  -0.042239  -0.000464
     3  B    0.001832  -0.077363   0.560272   0.000673   0.167213   0.000277
     4  O   -0.000566  -0.000804   0.000673  -0.000461   0.000231   0.000282
     5  Mg  -0.000448  -0.042239   0.167213   0.000231   0.172535   0.000277
     6  H   -0.000712  -0.000464   0.000277   0.000282   0.000277   0.001400
     7  H   -0.000649   0.002328  -0.002987  -0.000035  -0.000822   0.000041
     8  H    0.000060   0.002051  -0.013857  -0.000007  -0.017510   0.000000
     9  Si   0.000522   0.014634  -0.027942  -0.000400   0.008683  -0.000029
    10  H   -0.000131  -0.001006   0.000509  -0.000208  -0.000161   0.000484
    11  B   -0.001264   0.014988   0.009819   0.000691  -0.002664   0.000293
    12  Li   0.002367   0.034260  -0.015181  -0.001831  -0.005333  -0.000917
    13  F   -0.000016   0.000871  -0.001143   0.000049  -0.001899  -0.000045
    14  H   -0.000156  -0.000333  -0.000497   0.000004   0.002158   0.000006
    15  H   -0.006286   0.000115  -0.003258   0.000247   0.007378   0.000161
    16  S    0.000297   0.007824  -0.039826  -0.000445  -0.033743   0.000008
               7          8          9         10         11         12
     1  H   -0.000649   0.000060   0.000522  -0.000131  -0.001264   0.002367
     2  S    0.002328   0.002051   0.014634  -0.001006   0.014988   0.034260
     3  B   -0.002987  -0.013857  -0.027942   0.000509   0.009819  -0.015181
     4  O   -0.000035  -0.000007  -0.000400  -0.000208   0.000691  -0.001831
     5  Mg  -0.000822  -0.017510   0.008683  -0.000161  -0.002664  -0.005333
     6  H    0.000041   0.000000  -0.000029   0.000484   0.000293  -0.000917
     7  H    0.015156   0.000106   0.001384  -0.000041   0.001343   0.001130
     8  H    0.000106   0.032543   0.012508  -0.000014  -0.000618   0.001357
     9  Si   0.001384   0.012508  -0.018346  -0.000207   0.024014   0.002939
    10  H   -0.000041  -0.000014  -0.000207   0.000633   0.000313   0.000284
    11  B    0.001343  -0.000618   0.024014   0.000313   0.007468  -0.005189
    12  Li   0.001130   0.001357   0.002939   0.000284  -0.005189   0.022210
    13  F    0.000000   0.000019   0.000059   0.000107   0.000061   0.000266
    14  H   -0.000246  -0.000390  -0.007732   0.000027  -0.000805   0.000052
    15  H   -0.002923  -0.000829  -0.018283   0.000513  -0.002354  -0.004953
    16  S    0.000270   0.001018   0.024216  -0.000360  -0.001818   0.001515
              13         14         15         16
     1  H   -0.000016  -0.000156  -0.006286   0.000297
     2  S    0.000871  -0.000333   0.000115   0.007824
     3  B   -0.001143  -0.000497  -0.003258  -0.039826
     4  O    0.000049   0.000004   0.000247  -0.000445
     5  Mg  -0.001899   0.002158   0.007378  -0.033743
     6  H   -0.000045   0.000006   0.000161   0.000008
     7  H    0.000000  -0.000246  -0.002923   0.000270
     8  H    0.000019  -0.000390  -0.000829   0.001018
     9  Si   0.000059  -0.007732  -0.018283   0.024216
    10  H    0.000107   0.000027   0.000513  -0.000360
    11  B    0.000061  -0.000805  -0.002354  -0.001818
    12  Li   0.000266   0.000052  -0.004953   0.001515
    13  F    0.002078  -0.000001  -0.000004   0.000434
    14  H   -0.000001   0.016637   0.003753  -0.002212
    15  H   -0.000004   0.003753   0.025763  -0.004748
    16  S    0.000434  -0.002212  -0.004748   0.061032
 Mulliken charges and spin densities:
               1          2
     1  H   -0.028510   0.005380
     2  S   -0.091560   0.040563
     3  B   -0.533374   0.558543
     4  O   -0.489692  -0.002578
     5  Mg   0.925265   0.253657
     6  H    0.330818   0.001063
     7  H    0.096620   0.014055
     8  H    0.168128   0.016439
     9  Si   0.305831   0.016022
    10  H    0.311555   0.000742
    11  B   -0.303700   0.044279
    12  Li   0.399957   0.032977
    13  F   -0.582586   0.000838
    14  H   -0.040329   0.010264
    15  H   -0.032196  -0.005707
    16  S   -0.436225   0.013462
 Sum of Mulliken charges =  -0.00000   1.00000
 Mulliken charges and spin densities with hydrogens summed into heavy atoms:
               1          2
     2  S   -0.091560   0.040563
     3  B   -0.365246   0.574982
     4  O    0.152680  -0.000772
     5  Mg   0.925265   0.253657
     9  Si   0.265502   0.026286
    11  B   -0.267787   0.058007
    12  Li   0.399957   0.032977
    13  F   -0.582586   0.000838
    16  S   -0.436225   0.013462
 Electronic spatial extent (au):  <R**2>=           1782.4815
 Charge=             -0.0000 electrons
 Dipole moment (field-independent basis, Debye):
    X=             -2.2178    Y=             -0.0093    Z=             -0.1539  Tot=              2.2231
 Quadrupole moment (field-independent basis, Debye-Ang):
   XX=            -76.6658   YY=            -87.6972   ZZ=            -77.3712
   XY=             -4.3797   XZ=             -1.9459   YZ=              5.7840
 Traceless Quadrupole moment (field-independent basis, Debye-Ang):
   XX=              3.9122   YY=             -7.1191   ZZ=              3.2069
   XY=             -4.3797   XZ=             -1.9459   YZ=              5.7840
 Octapole moment (field-independent basis, Debye-Ang**2):
  XXX=            -47.1160  YYY=            -24.2549  ZZZ=             -6.6568  XYY=            -31.0614
  XXY=             10.0084  XXZ=             10.3979  XZZ=            -16.4568  YZZ=            -14.8230
  YYZ=             -3.8523  XYZ=             -5.4403
 Hexadecapole moment (field-independent basis, Debye-Ang**3):
 XXXX=           -920.4428 YYYY=          -1026.4188 ZZZZ=           -618.1321 XXXY=            -64.6000
 XXXZ=            -35.7152 YYYX=              9.1395 YYYZ=              8.5578 ZZZX=             34.5261
 ZZZY=             21.0721 XXYY=           -318.6843 XXZZ=           -283.2684 YYZZ=           -264.1543
 XXYZ=              8.8124 YYXZ=             -7.1885 ZZXY=             -9.1137
 N-N= 7.227030374451D+02 E-N=-5.067323322610D+03  KE= 1.519296082454D+03
                          Isotropic Fermi Contact Couplings
        Atom                 a.u.       MegaHertz       Gauss      10(-4) cm-1
     1  H(1)               0.00235      10.49769       3.74584       3.50165
     2  S(33)              0.00825       2.83281       1.01082       0.94492
     3  B(11)              0.05457      78.27707      27.93121      26.11042
     4  O(17)              0.00119      -0.72424      -0.25843      -0.24158
     5  Mg(25)             0.27100     -74.20773     -26.47916     -24.75304
     6  H(1)              -0.00008      -0.35065      -0.12512      -0.11696
     7  H(1)              -0.00010      -0.46624      -0.16637      -0.15552
     8  H(1)              -0.00545     -24.36165      -8.69284      -8.12617
     9  Si(29)            -0.03001      26.66870       9.51606       8.89572
    10  H(1)              -0.00005      -0.21857      -0.07799      -0.07291
    11  B(11)              0.00735      10.54971       3.76440       3.51900
    12  Li(7)              0.00386       6.69738       2.38979       2.23401
    13  F(19)              0.00288      12.11227       4.32196       4.04022
    14  H(1)               0.00094       4.19829       1.49805       1.40040
    15  H(1)               0.00514      22.99142       8.20391       7.66911
    16  S(33)              0.02844       9.76934       3.48594       3.25870
 PrsmSu:  requested number of processors reduced to:  19 ShMem   1 Linda.
 --------------------------------------------------------
       Center         ----  Spin Dipole Couplings  ----
                      3XX-RR        3YY-RR        3ZZ-RR
 --------------------------------------------------------
     1   Atom       -0.001675     -0.002367      0.004041
     2   Atom       -0.118042      0.360325     -0.242282
     3   Atom        0.044224      0.072833     -0.117057
     4   Atom       -0.004108      0.002524      0.001584
     5   Atom        0.007919     -0.057962      0.050043
     6   Atom       -0.001067     -0.001504      0.002572
     7   Atom       -0.001240     -0.001011      0.002251
     8   Atom       -0.013920     -0.011160      0.025080
     9   Atom       -0.003141      0.029309     -0.026169
    10   Atom       -0.000910     -0.000800      0.001710
    11   Atom       -0.003950     -0.008089      0.012039
    12   Atom        0.003876     -0.002521     -0.001355
    13   Atom       -0.008660     -0.008682      0.017343
    14   Atom        0.002673     -0.001482     -0.001191
    15   Atom       -0.002885     -0.002393      0.005278
    16   Atom       -0.130796      0.002211      0.128585
 --------------------------------------------------------
                        XY            XZ            YZ
 --------------------------------------------------------
     1   Atom        0.000132     -0.000823      0.000999
     2   Atom        0.345662      0.126529      0.093363
     3   Atom        0.207875      0.087765      0.094070
     4   Atom        0.002564     -0.003316     -0.006656
     5   Atom        0.082684     -0.120869     -0.080929
     6   Atom        0.000550     -0.001342     -0.000296
     7   Atom        0.001405      0.002477      0.004372
     8   Atom        0.017158     -0.002579     -0.008134
     9   Atom        0.012487     -0.018822     -0.007210
    10   Atom        0.000323     -0.002097     -0.001587
    11   Atom       -0.002423      0.008485      0.000016
    12   Atom        0.002164     -0.004378     -0.000507
    13   Atom       -0.014972     -0.013358      0.019319
    14   Atom       -0.002857      0.002853     -0.002210
    15   Atom       -0.001176      0.002156     -0.001117
    16   Atom       -0.007743     -0.000356     -0.196375
 --------------------------------------------------------


 ---------------------------------------------------------------------------------
              Anisotropic Spin Dipole Couplings in Principal Axis System
 ---------------------------------------------------------------------------------

       Atom             a.u.   MegaHertz   Gauss  10(-4) cm-1        Axes

              Baa    -0.0026    -1.386    -0.494    -0.462 -0.2933  0.9394 -0.1777
     1 H(1)   Bbb    -0.0017    -0.908    -0.324    -0.303  0.9469  0.3110  0.0816
              Bcc     0.0043     2.294     0.818     0.765 -0.1319  0.1443  0.9807
 
              Baa    -0.3528   -14.464    -5.161    -4.825  0.7401 -0.2786 -0.6120
     2 S(33)  Bbb    -0.2136    -8.757    -3.125    -2.921  0.4816 -0.4156  0.7716
              Bcc     0.5664    23.221     8.286     7.746  0.4693  0.8658  0.1734
 
              Baa    -0.1562   -26.740    -9.542    -8.920 -0.1942 -0.2167  0.9567
     3 B(11)  Bbb    -0.1498   -25.655    -9.154    -8.557  0.7322 -0.6811 -0.0057
              Bcc     0.3060    52.395    18.696    17.477  0.6529  0.6994  0.2909
 
              Baa    -0.0057     0.413     0.148     0.138  0.8260  0.1756  0.5356
     4 O(17)  Bbb    -0.0042     0.306     0.109     0.102 -0.4875  0.6995  0.5225
              Bcc     0.0099    -0.720    -0.257    -0.240  0.2829  0.6927 -0.6635
 
              Baa    -0.1140     3.728     1.330     1.243 -0.5737  0.8188 -0.0188
     5 Mg(25) Bbb    -0.0886     2.896     1.033     0.966  0.5574  0.4071  0.7236
              Bcc     0.2026    -6.623    -2.363    -2.209 -0.6001 -0.4047  0.6900
 
              Baa    -0.0020    -1.044    -0.373    -0.348 -0.6763  0.7205 -0.1534
     6 H(1)   Bbb    -0.0011    -0.588    -0.210    -0.196  0.6636  0.6863  0.2978
              Bcc     0.0031     1.632     0.582     0.544 -0.3198 -0.0997  0.9422
 
              Baa    -0.0041    -2.177    -0.777    -0.726  0.1294  0.7916 -0.5972
     7 H(1)   Bbb    -0.0023    -1.210    -0.432    -0.404  0.9276 -0.3094 -0.2092
              Bcc     0.0063     3.387     1.208     1.130  0.3504  0.5270  0.7743
 
              Baa    -0.0300   -16.006    -5.711    -5.339  0.7229 -0.6876 -0.0677
     8 H(1)   Bbb     0.0021     1.131     0.403     0.377  0.6697  0.6732  0.3137
              Bcc     0.0279    14.876     5.308     4.962 -0.1701 -0.2721  0.9471
 
              Baa    -0.0367     3.895     1.390     1.299  0.4881  0.0030  0.8728
     9 Si(29) Bbb     0.0003    -0.027    -0.010    -0.009  0.7825 -0.4445 -0.4361
              Bcc     0.0365    -3.868    -1.380    -1.290  0.3866  0.8958 -0.2193
 
              Baa    -0.0023    -1.228    -0.438    -0.409  0.7248  0.4209  0.5454
    10 H(1)   Bbb    -0.0011    -0.608    -0.217    -0.203 -0.5398  0.8389  0.0700
              Bcc     0.0034     1.836     0.655     0.612 -0.4281 -0.3451  0.8352
 
              Baa    -0.0101    -1.732    -0.618    -0.578  0.6217  0.7460 -0.2387
    11 B(11)  Bbb    -0.0056    -0.963    -0.344    -0.321  0.6736 -0.6648 -0.3229
              Bcc     0.0157     2.695     0.962     0.899  0.3996 -0.0400  0.9158
 
              Baa    -0.0042    -0.864    -0.308    -0.288  0.5170 -0.4580  0.7231
    12 Li(7)  Bbb    -0.0027    -0.556    -0.199    -0.186  0.0541  0.8606  0.5064
              Bcc     0.0068     1.420     0.507     0.474  0.8543  0.2227 -0.4697
 
              Baa    -0.0244   -12.243    -4.369    -4.084  0.6003  0.7816 -0.1697
    13 F(19)  Bbb    -0.0114    -5.718    -2.040    -1.907  0.6947 -0.4044  0.5949
              Bcc     0.0358    17.961     6.409     5.991 -0.3964  0.4750  0.7857
 
              Baa    -0.0036    -1.899    -0.678    -0.633  0.0528  0.7609  0.6467
    14 H(1)   Bbb    -0.0024    -1.255    -0.448    -0.419  0.6234  0.4808 -0.6166
              Bcc     0.0059     3.154     1.125     1.052  0.7801 -0.4357  0.4490
 
              Baa    -0.0040    -2.118    -0.756    -0.706  0.8369  0.5315 -0.1310
    15 H(1)   Bbb    -0.0021    -1.103    -0.394    -0.368 -0.4859  0.8315  0.2691
              Bcc     0.0060     3.221     1.149     1.074  0.2519 -0.1615  0.9542
 
              Baa    -0.1441    -5.906    -2.107    -1.970  0.4395  0.7286  0.5254
    16 S(33)  Bbb    -0.1277    -5.235    -1.868    -1.746  0.8982 -0.3496 -0.2666
              Bcc     0.2717    11.141     3.975     3.716  0.0106 -0.5890  0.8080
 

 ---------------------------------------------------------------------------------

 PrsmSu:  requested number of processors reduced to:  19 ShMem   1 Linda.
 No NMR shielding tensors so no spin-rotation constants.
 Leave Link  601 at Sat Apr 17 02:25:19 2021, MaxMem=   104857600 cpu:             508.0 elap:              11.3
 (Enter /s/ls4/users/knvvv/bin/g16sse/l9999.exe)

 Test job not archived.
 1\1\GINC-N156\Stability\UM062X\def2QZVP\B2F1H7Li1Mg1O1S2Si1(2)\KNVVV\1
 7-Apr-2021\0\\#P M062X/Def2QZVP Integral=UltraFineGrid SCF=NoSymm Stab
 le=(RExt, Opt) IOp(1/33=1)\\Database calculations.\\0,2\H,0,-0.9500719
 ,-1.9995824,-0.570895\S,0,-1.41967,0.2058111,0.8795709\B,0,0.0607741,0
 .787722,1.9349909\O,0,-0.5715053,-0.0860395,-2.4114761\Mg,0,0.3191088,
 2.1633613,-0.0137024\H,0,-0.6484223,-0.9524202,-1.9620466\H,0,-0.70624
 49,-2.2480451,1.4435522\H,0,-0.0861399,1.2767349,3.0111799\Si,0,1.5229
 845,-0.1752662,0.9965006\H,0,0.3624298,0.1735182,-2.2254419\B,0,-0.639
 8797,-1.520081,0.4977662\Li,0,-1.7228555,1.1707571,-1.5172329\F,0,-0.9
 691744,2.754511,-1.2011064\H,0,2.5976554,-1.019071,1.5826094\H,0,0.671
 0295,-1.3780265,0.2919089\S,0,2.1799818,0.8461164,-0.7361778\\Version=
 ES64L-G16RevA.03\State=2-A\HF=-1522.7442545\S2=0.754415\S2-1=0.\S2A=0.
 750016\RMSD=3.819e-09\Dipole=-0.5382754,0.4899754,-0.4849726\Quadrupol
 e=0.7641484,1.3552966,-2.119445,-0.0149853,6.390923,2.8225546\PG=C01 [
 X(B2F1H7Li1Mg1O1S2Si1)]\\@


 THE REASON MAN'S BEST FRIEND IS A DOG IS BECAUSE
 HE WAGS HIS TAIL INSTEAD OF HIS TONGUE.
 Job cpu time:       1 days 20 hours 23 minutes 12.5 seconds.
 Elapsed time:       0 days  1 hours 52 minutes 38.7 seconds.
 File lengths (MBytes):  RWF=   1484 Int=      0 D2E=      0 Chk=     71 Scr=      1
 Normal termination of Gaussian 16 at Sat Apr 17 02:25:20 2021.
