 Entering Gaussian System, Link 0=/s/ls4/users/knvvv/bin/g16sse/g16
 Input=data/database/M062X--def2-QZVPPD--24_F3CNHrad_HNBrBDE18.gjf
 Output=data/database/M062X--def2-QZVPPD--24_F3CNHrad_HNBrBDE18.log
 Initial command:
 /s/ls4/users/knvvv/bin/g16sse/l1.exe "/s/ls4/users/knvvv/bin/scratch/Gau-31556.inp" -scrdir="/s/ls4/users/knvvv/bin/scratch/"
 Entering Link 1 = /s/ls4/users/knvvv/bin/g16sse/l1.exe PID=     31557.
  
 Copyright (c) 1988,1990,1992,1993,1995,1998,2003,2009,2016,
            Gaussian, Inc.  All Rights Reserved.
  
 This is part of the Gaussian(R) 16 program.  It is based on
 the Gaussian(R) 09 system (copyright 2009, Gaussian, Inc.),
 the Gaussian(R) 03 system (copyright 2003, Gaussian, Inc.),
 the Gaussian(R) 98 system (copyright 1998, Gaussian, Inc.),
 the Gaussian(R) 94 system (copyright 1995, Gaussian, Inc.),
 the Gaussian 92(TM) system (copyright 1992, Gaussian, Inc.),
 the Gaussian 90(TM) system (copyright 1990, Gaussian, Inc.),
 the Gaussian 88(TM) system (copyright 1988, Gaussian, Inc.),
 the Gaussian 86(TM) system (copyright 1986, Carnegie Mellon
 University), and the Gaussian 82(TM) system (copyright 1983,
 Carnegie Mellon University). Gaussian is a federally registered
 trademark of Gaussian, Inc.
  
 This software contains proprietary and confidential information,
 including trade secrets, belonging to Gaussian, Inc.
  
 This software is provided under written license and may be
 used, copied, transmitted, or stored only in accord with that
 written license.
  
 The following legend is applicable only to US Government
 contracts under FAR:
  
                    RESTRICTED RIGHTS LEGEND
  
 Use, reproduction and disclosure by the US Government is
 subject to restrictions as set forth in subparagraphs (a)
 and (c) of the Commercial Computer Software - Restricted
 Rights clause in FAR 52.227-19.
  
 Gaussian, Inc.
 340 Quinnipiac St., Bldg. 40, Wallingford CT 06492
  
  
 ---------------------------------------------------------------
 Warning -- This program may not be used in any manner that
 competes with the business of Gaussian, Inc. or will provide
 assistance to any competitor of Gaussian, Inc.  The licensee
 of this program is prohibited from giving any competitor of
 Gaussian, Inc. access to this program.  By using this program,
 the user acknowledges that Gaussian, Inc. is engaged in the
 business of creating and licensing software in the field of
 computational chemistry and represents and warrants to the
 licensee that it is not a competitor of Gaussian, Inc. and that
 it will not use this program in any manner prohibited above.
 ---------------------------------------------------------------
  

 Cite this work as:
 Gaussian 16, Revision A.03,
 M. J. Frisch, G. W. Trucks, H. B. Schlegel, G. E. Scuseria, 
 M. A. Robb, J. R. Cheeseman, G. Scalmani, V. Barone, 
 G. A. Petersson, H. Nakatsuji, X. Li, M. Caricato, A. V. Marenich, 
 J. Bloino, B. G. Janesko, R. Gomperts, B. Mennucci, H. P. Hratchian, 
 J. V. Ortiz, A. F. Izmaylov, J. L. Sonnenberg, D. Williams-Young, 
 F. Ding, F. Lipparini, F. Egidi, J. Goings, B. Peng, A. Petrone, 
 T. Henderson, D. Ranasinghe, V. G. Zakrzewski, J. Gao, N. Rega, 
 G. Zheng, W. Liang, M. Hada, M. Ehara, K. Toyota, R. Fukuda, 
 J. Hasegawa, M. Ishida, T. Nakajima, Y. Honda, O. Kitao, H. Nakai, 
 T. Vreven, K. Throssell, J. A. Montgomery, Jr., J. E. Peralta, 
 F. Ogliaro, M. J. Bearpark, J. J. Heyd, E. N. Brothers, K. N. Kudin, 
 V. N. Staroverov, T. A. Keith, R. Kobayashi, J. Normand, 
 K. Raghavachari, A. P. Rendell, J. C. Burant, S. S. Iyengar, 
 J. Tomasi, M. Cossi, J. M. Millam, M. Klene, C. Adamo, R. Cammi, 
 J. W. Ochterski, R. L. Martin, K. Morokuma, O. Farkas, 
 J. B. Foresman, and D. J. Fox, Gaussian, Inc., Wallingford CT, 2016.
 
 ******************************************
 Gaussian 16:  ES64L-G16RevA.03 25-Dec-2016
                17-Apr-2021 
 ******************************************
 %RWF=temp5_12415,70GB
 %nprocshared=48
 Will use up to   48 processors via shared memory.
 Default route: MaxDisk=80GB
 ----------------------------------------------------------------------
 #P M062X/GEN Integral=UltraFineGrid SCF=NoSymm Stable=(RExt, Opt) IOp(
 1/33=1)
 ----------------------------------------------------------------------
 1/33=1,38=1,172=1/1;
 2/12=2,17=6,18=5,40=1/2;
 3/5=7,11=2,25=1,30=1,74=-55,75=-5/1,2,3;
 4/9=2/1;
 5/5=2,38=5/2;
 6/7=2,8=2,9=2,10=2,28=1/1;
 8/6=1,10=90,11=11/1;
 9/8=-3,42=1,46=1/14;
 5/5=2,8=3,17=40,38=5/8(-2);
 6/7=2,8=2,9=2,10=2,28=1/1;
 99/5=1,9=1/99;
 Leave Link    1 at Sat Apr 17 21:04:56 2021, MaxMem=           0 cpu:               8.3 elap:               0.2
 (Enter /s/ls4/users/knvvv/bin/g16sse/l101.exe)
 ONIOM data not found on unit 2.
 ----------------------
 Database calculations.
 ----------------------
 TstMul:  ICh=     0
 TstMul:  Mul=     2
 TstMul:  ICh=     0
 TstMul:  Mul=     2
 Symbolic Z-matrix:
 Charge =  0 Multiplicity = 2
 C                     0.01005   0.04264   0. 
 N                     1.13642   0.90655   0. 
 H                     1.96194   0.29838   0. 
 F                    -1.12866   0.736     0. 
 F                     0.01005  -0.75134   1.09315 
 F                     0.01005  -0.75134  -1.09315 
 
 RdStrC is calling ZToCFu for IStruc=1 NZ=     6.
 PrtBox:  NBox=     1 Levels=  1 BoxLen=    8.00 SMaxX=        5.84
          Shift=            2.132862            1.419825            2.065747
 Box      1 Number                   0 centers from      1 to      6:
 After GenITR:
 ITRead=  0  0  0  0  0  0
 MicOpt= -1 -1 -1 -1 -1 -1
 ITRead=  0  0  0  0  0  0
 MicOpt= -1 -1 -1 -1 -1 -1
 NAtoms=      6 NQM=        6 NQMF=       0 NMMI=      0 NMMIF=      0
                NMic=       0 NMicF=      0.
                    Isotopes and Nuclear Properties:
 (Nuclear quadrupole moments (NQMom) in fm**2, nuclear magnetic moments (NMagM)
  in nuclear magnetons)

  Atom         1           2           3           4           5           6
 IAtWgt=          12          14           1          19          19          19
 AtmWgt=  12.0000000  14.0030740   1.0078250  18.9984033  18.9984033  18.9984033
 NucSpn=           0           2           1           1           1           1
 AtZEff=  -0.0000000  -0.0000000  -0.0000000  -0.0000000  -0.0000000  -0.0000000
 NQMom=    0.0000000   2.0440000   0.0000000   0.0000000   0.0000000   0.0000000
 NMagM=    0.0000000   0.4037610   2.7928460   2.6288670   2.6288670   2.6288670
 AtZNuc=   6.0000000   7.0000000   1.0000000   9.0000000   9.0000000   9.0000000
 No MM parameters found.
 Leave Link  101 at Sat Apr 17 21:04:56 2021, MaxMem=   104857600 cpu:               6.9 elap:               0.2
 (Enter /s/ls4/users/knvvv/bin/g16sse/l202.exe)
                          Input orientation:                          
 ---------------------------------------------------------------------
 Center     Atomic      Atomic             Coordinates (Angstroms)
 Number     Number       Type             X           Y           Z
 ---------------------------------------------------------------------
      1          6           0        0.010045    0.042640    0.000000
      2          7           0        1.136419    0.906554    0.000000
      3          1           0        1.961941    0.298384    0.000000
      4          9           0       -1.128662    0.736000    0.000000
      5          9           0        0.010045   -0.751339    1.093146
      6          9           0        0.010045   -0.751339   -1.093146
 ---------------------------------------------------------------------
                    Distance matrix (angstroms):
                    1          2          3          4          5
     1  C    0.000000
     2  N    1.419530   0.000000
     3  H    1.968579   1.025357   0.000000
     4  F    1.333192   2.271493   3.121432   0.000000
     5  F    1.351063   2.283045   2.471191   2.168824   0.000000
     6  F    1.351063   2.283045   2.471191   2.168824   2.186292
                    6
     6  F    0.000000
 Stoichiometry    CHF3N(2)
 Framework group  CS[SG(CHFN),X(F2)]
 Deg. of freedom     8
 Full point group                 CS      NOp   2
 Largest Abelian subgroup         CS      NOp   2
 Largest concise Abelian subgroup CS      NOp   2
                         Standard orientation:                         
 ---------------------------------------------------------------------
 Center     Atomic      Atomic             Coordinates (Angstroms)
 Number     Number       Type             X           Y           Z
 ---------------------------------------------------------------------
      1          6           0        0.010045    0.042640   -0.000000
      2          7           0        1.136419    0.906554   -0.000000
      3          1           0        1.961941    0.298384   -0.000000
      4          9           0       -1.128662    0.736000    0.000000
      5          9           0        0.010045   -0.751339    1.093146
      6          9           0        0.010045   -0.751339   -1.093146
 ---------------------------------------------------------------------
 Rotational constants (GHZ):           5.7188089           5.6525678           5.5024875
 Leave Link  202 at Sat Apr 17 21:04:56 2021, MaxMem=   104857600 cpu:               5.9 elap:               0.1
 (Enter /s/ls4/users/knvvv/bin/g16sse/l301.exe)
 General basis read from cards:  (5D, 7F)
 Centers:       3
 S 4 1.00
     Exponent=  1.9069169000D+02 Coefficients=  7.0815167000D-04
     Exponent=  2.8605532000D+01 Coefficients=  5.4678827000D-03
     Exponent=  6.5095943000D+00 Coefficients=  2.7966605000D-02
     Exponent=  1.8412455000D+00 Coefficients=  1.0764538000D-01
 S 1 1.00
     Exponent=  5.9853725000D-01 Coefficients=  1.0000000000D+00
 S 1 1.00
     Exponent=  2.1397624000D-01 Coefficients=  1.0000000000D+00
 S 1 1.00
     Exponent=  8.0316286000D-02 Coefficients=  1.0000000000D+00
 P 1 1.00
     Exponent=  2.2920000000D+00 Coefficients=  1.0000000000D+00
 P 1 1.00
     Exponent=  8.3800000000D-01 Coefficients=  1.0000000000D+00
 P 1 1.00
     Exponent=  2.9200000000D-01 Coefficients=  1.0000000000D+00
 P 1 1.00
     Exponent=  8.4063199228D-02 Coefficients=  1.0000000000D+00
 D 1 1.00
     Exponent=  2.0620000000D+00 Coefficients=  1.0000000000D+00
 D 1 1.00
     Exponent=  6.6200000000D-01 Coefficients=  1.0000000000D+00
 F 1 1.00
     Exponent=  1.3970000000D+00 Coefficients=  1.0000000000D+00
 ****
 Centers:       1
 S 8 1.00
     Exponent=  6.7025071029D+04 Coefficients=  3.8736308501D-05
     Exponent=  1.0039986538D+04 Coefficients=  3.0107917575D-04
     Exponent=  2.2849316911D+03 Coefficients=  1.5787918095D-03
     Exponent=  6.4714122130D+02 Coefficients=  6.6087087195D-03
     Exponent=  2.1109472335D+02 Coefficients=  2.3367123250D-02
     Exponent=  7.6177643862D+01 Coefficients=  7.0420716898D-02
     Exponent=  2.9633839163D+01 Coefficients=  1.7360344953D-01
     Exponent=  1.2187785081D+01 Coefficients=  3.2292305648D-01
 S 2 1.00
     Exponent=  5.3026006299D+01 Coefficients=  7.4897404492D-02
     Exponent=  1.5258502776D+01 Coefficients=  7.6136220983D-01
 S 1 1.00
     Exponent=  5.2403957464D+00 Coefficients=  1.0000000000D+00
 S 1 1.00
     Exponent=  2.2905022379D+00 Coefficients=  1.0000000000D+00
 S 1 1.00
     Exponent=  6.9673283006D-01 Coefficients=  1.0000000000D+00
 S 1 1.00
     Exponent=  2.7599337363D-01 Coefficients=  1.0000000000D+00
 S 1 1.00
     Exponent=  1.0739884389D-01 Coefficients=  1.0000000000D+00
 S 1 1.00
     Exponent=  4.4981404899D-02 Coefficients=  1.0000000000D+00
 P 5 1.00
     Exponent=  1.0512555082D+02 Coefficients=  8.4647553844D-04
     Exponent=  2.4884461066D+01 Coefficients=  6.6274038534D-03
     Exponent=  7.8637230826D+00 Coefficients=  3.0120390419D-02
     Exponent=  2.8407001835D+00 Coefficients=  9.9951435476D-02
     Exponent=  1.1227137335D+00 Coefficients=  2.3826299282D-01
 P 1 1.00
     Exponent=  4.6050725555D-01 Coefficients=  1.0000000000D+00
 P 1 1.00
     Exponent=  1.8937530913D-01 Coefficients=  1.0000000000D+00
 P 1 1.00
     Exponent=  7.5983791611D-02 Coefficients=  1.0000000000D+00
 D 1 1.00
     Exponent=  1.8480000000D+00 Coefficients=  1.0000000000D+00
 D 1 1.00
     Exponent=  6.4900000000D-01 Coefficients=  1.0000000000D+00
 D 1 1.00
     Exponent=  2.2800000000D-01 Coefficients=  1.0000000000D+00
 D 1 1.00
     Exponent=  7.6889830417D-02 Coefficients=  1.0000000000D+00
 F 1 1.00
     Exponent=  1.4190000000D+00 Coefficients=  1.0000000000D+00
 F 1 1.00
     Exponent=  4.8500000000D-01 Coefficients=  1.0000000000D+00
 G 1 1.00
     Exponent=  1.0110000000D+00 Coefficients=  1.0000000000D+00
 ****
 Centers:       2
 S 8 1.00
     Exponent=  9.0726889210D+04 Coefficients=  3.9257887368D-05
     Exponent=  1.3590528801D+04 Coefficients=  3.0513316455D-04
     Exponent=  3.0929883781D+03 Coefficients=  1.6000560446D-03
     Exponent=  8.7599876362D+02 Coefficients=  6.6982937306D-03
     Exponent=  2.8574469982D+02 Coefficients=  2.3690078765D-02
     Exponent=  1.0311913417D+02 Coefficients=  7.1455405268D-02
     Exponent=  4.0128556777D+01 Coefficients=  1.7632774876D-01
     Exponent=  1.6528095704D+01 Coefficients=  3.2677592815D-01
 S 2 1.00
     Exponent=  6.9390960983D+01 Coefficients=  8.0052094386D-02
     Exponent=  2.0428200596D+01 Coefficients=  7.8268063538D-01
 S 1 1.00
     Exponent=  7.1292587972D+00 Coefficients=  1.0000000000D+00
 S 1 1.00
     Exponent=  3.1324304893D+00 Coefficients=  1.0000000000D+00
 S 1 1.00
     Exponent=  9.8755778723D-01 Coefficients=  1.0000000000D+00
 S 1 1.00
     Exponent=  3.8765721307D-01 Coefficients=  1.0000000000D+00
 S 1 1.00
     Exponent=  1.4909883075D-01 Coefficients=  1.0000000000D+00
 S 1 1.00
     Exponent=  6.2151630318D-02 Coefficients=  1.0000000000D+00
 P 5 1.00
     Exponent=  1.5005742670D+02 Coefficients= -8.6216165986D-04
     Exponent=  3.5491599483D+01 Coefficients= -6.8571273236D-03
     Exponent=  1.1247864223D+01 Coefficients= -3.1795688855D-02
     Exponent=  4.0900305195D+00 Coefficients= -1.0537396822D-01
     Exponent=  1.6220573146D+00 Coefficients= -2.4519708041D-01
 P 1 1.00
     Exponent=  6.6442261530D-01 Coefficients=  1.0000000000D+00
 P 1 1.00
     Exponent=  2.7099770070D-01 Coefficients=  1.0000000000D+00
 P 1 1.00
     Exponent=  1.0688749984D-01 Coefficients=  1.0000000000D+00
 D 1 1.00
     Exponent=  2.8370000000D+00 Coefficients=  1.0000000000D+00
 D 1 1.00
     Exponent=  9.6800000000D-01 Coefficients=  1.0000000000D+00
 D 1 1.00
     Exponent=  3.3500000000D-01 Coefficients=  1.0000000000D+00
 D 1 1.00
     Exponent=  1.0825280010D-01 Coefficients=  1.0000000000D+00
 F 1 1.00
     Exponent=  2.0270000000D+00 Coefficients=  1.0000000000D+00
 F 1 1.00
     Exponent=  6.8500000000D-01 Coefficients=  1.0000000000D+00
 G 1 1.00
     Exponent=  1.4270000000D+00 Coefficients=  1.0000000000D+00
 ****
 Centers:       4      5      6
 S 8 1.00
     Exponent=  1.3253597345D+05 Coefficients=  4.7387482743D-05
     Exponent=  1.9758112588D+04 Coefficients=  3.7070120897D-04
     Exponent=  4.4851996947D+03 Coefficients=  1.9450784713D-03
     Exponent=  1.2738151020D+03 Coefficients=  8.0573291994D-03
     Exponent=  4.1893831236D+02 Coefficients=  2.7992880781D-02
     Exponent=  1.5255721985D+02 Coefficients=  8.2735120175D-02
     Exponent=  5.9821524823D+01 Coefficients=  1.9854169012D-01
     Exponent=  2.4819076932D+01 Coefficients=  3.4860632233D-01
 S 2 1.00
     Exponent=  1.0074446673D+02 Coefficients=  1.0505068816D-01
     Exponent=  3.0103728290D+01 Coefficients=  9.4068472434D-01
 S 1 1.00
     Exponent=  1.0814283272D+01 Coefficients=  1.0000000000D+00
 S 1 1.00
     Exponent=  4.8172886770D+00 Coefficients=  1.0000000000D+00
 S 1 1.00
     Exponent=  1.6559334213D+00 Coefficients=  1.0000000000D+00
 S 1 1.00
     Exponent=  6.4893519582D-01 Coefficients=  1.0000000000D+00
 S 1 1.00
     Exponent=  2.4778104545D-01 Coefficients=  1.0000000000D+00
 S 1 1.00
     Exponent=  8.7626236800D-02 Coefficients=  1.0000000000D+00
 P 5 1.00
     Exponent=  2.4096654114D+02 Coefficients=  3.0389933451D-03
     Exponent=  5.7020699781D+01 Coefficients=  2.4357738582D-02
     Exponent=  1.8126952120D+01 Coefficients=  1.1442925768D-01
     Exponent=  6.6457404621D+00 Coefficients=  3.7064659853D-01
     Exponent=  2.6375722892D+00 Coefficients=  7.9791551766D-01
 P 1 1.00
     Exponent=  1.0638217200D+00 Coefficients=  1.0000000000D+00
 P 1 1.00
     Exponent=  4.1932562750D-01 Coefficients=  1.0000000000D+00
 P 1 1.00
     Exponent=  1.5747588299D-01 Coefficients=  1.0000000000D+00
 P 1 1.00
     Exponent=  4.6772400332D-02 Coefficients=  1.0000000000D+00
 D 1 1.00
     Exponent=  5.0140000000D+00 Coefficients=  1.0000000000D+00
 D 1 1.00
     Exponent=  1.7250000000D+00 Coefficients=  1.0000000000D+00
 D 1 1.00
     Exponent=  5.8600000000D-01 Coefficients=  1.0000000000D+00
 D 1 1.00
     Exponent=  1.5967986245D-01 Coefficients=  1.0000000000D+00
 F 1 1.00
     Exponent=  3.5620000000D+00 Coefficients=  1.0000000000D+00
 F 1 1.00
     Exponent=  1.1480000000D+00 Coefficients=  1.0000000000D+00
 G 1 1.00
     Exponent=  2.3760000000D+00 Coefficients=  1.0000000000D+00
 ****
 Ernie: Thresh=  0.10000D-02 Tol=  0.10000D-05 Strict=F.
 There are   269 symmetry adapted cartesian basis functions of A'  symmetry.
 There are   173 symmetry adapted cartesian basis functions of A"  symmetry.
 There are   213 symmetry adapted basis functions of A'  symmetry.
 There are   144 symmetry adapted basis functions of A"  symmetry.
   357 basis functions,   545 primitive gaussians,   442 cartesian basis functions
    21 alpha electrons       20 beta electrons
       nuclear repulsion energy       193.0115616709 Hartrees.
 IExCor= 4336 DFT=T Ex+Corr=M062X ExCW=0 ScaHFX=  0.540000
 ScaDFX=  1.000000  1.000000  1.000000  1.000000 ScalE2=  1.000000  1.000000
 IRadAn=      5 IRanWt=     -1 IRanGd=            0 ICorTp=0 IEmpDi=  4
 NAtoms=    6 NActive=    6 NUniq=    5 SFac= 1.44D+00 NAtFMM=   60 NAOKFM=F Big=F
 Integral buffers will be    131072 words long.
 Raffenetti 2 integral format.
 Two-electron integral symmetry is turned on.
 Leave Link  301 at Sat Apr 17 21:04:56 2021, MaxMem=   104857600 cpu:               7.1 elap:               0.2
 (Enter /s/ls4/users/knvvv/bin/g16sse/l302.exe)
 NPDir=0 NMtPBC=     1 NCelOv=     1 NCel=       1 NClECP=     1 NCelD=      1
         NCelK=      1 NCelE2=     1 NClLst=     1 CellRange=     0.0.
 One-electron integrals computed using PRISM.
 One-electron integral symmetry used in STVInt
 PrsmSu:  requested number of processors reduced to:   4 ShMem   1 Linda.
 PrsmSu:  requested number of processors reduced to:  20 ShMem   1 Linda.
 NBasis=   357 RedAO= T EigKep=  5.42D-05  NBF=   213   144
 NBsUse=   357 1.00D-06 EigRej= -1.00D+00 NBFU=   213   144
 Precomputing XC quadrature grid using
 IXCGrd= 4 IRadAn=           5 IRanWt=          -1 IRanGd=           0 AccXCQ= 0.00D+00.
 Generated NRdTot=       0 NPtTot=           0 NUsed=           0 NTot=          32
 NSgBfM=   442   442   442   442   442 MxSgAt=     6 MxSgA2=     6.
 Leave Link  302 at Sat Apr 17 21:05:05 2021, MaxMem=   104857600 cpu:             422.3 elap:               9.1
 (Enter /s/ls4/users/knvvv/bin/g16sse/l303.exe)
 DipDrv:  MaxL=1.
 Leave Link  303 at Sat Apr 17 21:05:08 2021, MaxMem=   104857600 cpu:             122.8 elap:               2.6
 (Enter /s/ls4/users/knvvv/bin/g16sse/l401.exe)
 SCF N**3 symmetry information disabled.
 ExpMin= 4.50D-02 ExpMax= 1.33D+05 ExpMxC= 1.27D+03 IAcc=3 IRadAn=         5 AccDes= 0.00D+00
 Harris functional with IExCor= 1009 and IRadAn=       5 diagonalized for initial guess.
 HarFok:  IExCor= 1009 AccDes= 0.00D+00 IRadAn=         5 IDoV= 1 UseB2=F ITyADJ=14
 ICtDFT=  3500011 ScaDFX=  1.000000  1.000000  1.000000  1.000000
 FoFCou: FMM=F IPFlag=           0 FMFlag=      100000 FMFlg1=           0
         NFxFlg=           0 DoJE=T BraDBF=F KetDBF=T FulRan=T
         wScrn=  0.000000 ICntrl=       500 IOpCl=  0 I1Cent=   200000004 NGrid=           0
         NMat0=    1 NMatS0=      1 NMatT0=    0 NMatD0=    1 NMtDS0=    0 NMtDT0=    0
 Petite list used in FoFCou.
 CoulSu:  requested number of processors reduced to:  20 ShMem   1 Linda.
 CoulSu:  requested number of processors reduced to:  20 ShMem   1 Linda.
 CoulSu:  requested number of processors reduced to:  21 ShMem   1 Linda.
 CoulSu:  requested number of processors reduced to:  21 ShMem   1 Linda.
 Harris En= -392.711533525934    
 JPrj=0 DoOrth=F DoCkMO=F.
 Initial guess orbital symmetries:
 Alpha Orbitals:
       Occupied  (A') (A') (A") (A') (A') (A') (A') (A") (A') (A')
                 (A') (A") (A') (A") (A') (A') (A") (A') (A") (A')
                 (A")
       Virtual   (A') (A') (A") (A') (A') (A') (A") (A') (A") (A')
                 (A') (A") (A') (A") (A') (A') (A") (A') (A") (A')
                 (A') (A') (A") (A') (A') (A') (A") (A') (A") (A')
                 (A') (A") (A') (A') (A") (A') (A') (A") (A") (A')
                 (A') (A") (A') (A") (A") (A') (A') (A') (A") (A')
                 (A") (A') (A") (A') (A") (A') (A') (A") (A') (A')
                 (A") (A") (A') (A') (A') (A') (A") (A') (A") (A")
                 (A') (A') (A') (A") (A') (A') (A') (A") (A") (A')
                 (A') (A') (A") (A') (A') (A") (A") (A') (A") (A')
                 (A") (A') (A') (A") (A") (A') (A') (A") (A') (A")
                 (A') (A') (A") (A') (A") (A') (A') (A") (A') (A")
                 (A') (A') (A") (A') (A') (A") (A') (A") (A") (A')
                 (A') (A") (A') (A') (A') (A") (A') (A') (A") (A')
                 (A") (A') (A") (A') (A') (A") (A') (A") (A') (A')
                 (A') (A") (A') (A") (A') (A') (A") (A') (A") (A")
                 (A") (A') (A") (A') (A') (A") (A') (A') (A") (A")
                 (A') (A') (A") (A') (A') (A') (A") (A") (A') (A')
                 (A") (A') (A') (A") (A') (A") (A") (A') (A') (A")
                 (A') (A") (A') (A") (A') (A') (A") (A') (A") (A')
                 (A") (A') (A') (A') (A') (A") (A") (A') (A") (A")
                 (A') (A") (A') (A') (A") (A') (A') (A") (A') (A')
                 (A') (A") (A") (A') (A") (A') (A") (A') (A') (A")
                 (A') (A") (A') (A") (A') (A") (A') (A") (A') (A')
                 (A') (A') (A") (A") (A') (A") (A') (A') (A') (A")
                 (A") (A") (A') (A') (A") (A') (A") (A') (A') (A")
                 (A') (A') (A") (A') (A') (A') (A') (A") (A") (A')
                 (A") (A") (A') (A') (A") (A') (A") (A') (A') (A")
                 (A") (A') (A") (A') (A') (A') (A") (A") (A') (A')
                 (A") (A') (A") (A') (A") (A') (A") (A') (A") (A")
                 (A') (A') (A') (A") (A") (A') (A') (A") (A') (A")
                 (A') (A') (A') (A") (A') (A") (A") (A') (A") (A')
                 (A") (A") (A') (A') (A") (A') (A") (A') (A") (A')
                 (A') (A") (A") (A') (A') (A') (A') (A') (A") (A')
                 (A') (A') (A') (A") (A') (A')
 Beta  Orbitals:
       Occupied  (A') (A') (A") (A') (A') (A') (A') (A") (A') (A')
                 (A') (A") (A') (A") (A') (A') (A") (A') (A") (A')
       Virtual   (A") (A') (A') (A") (A') (A') (A') (A") (A') (A")
                 (A') (A') (A") (A') (A") (A') (A') (A") (A') (A")
                 (A') (A') (A') (A") (A') (A') (A') (A") (A') (A")
                 (A') (A') (A") (A') (A') (A") (A') (A') (A") (A")
                 (A') (A') (A") (A') (A") (A") (A') (A') (A') (A")
                 (A') (A") (A') (A") (A') (A") (A') (A') (A") (A')
                 (A') (A") (A") (A') (A') (A') (A') (A") (A') (A")
                 (A") (A') (A') (A') (A") (A') (A') (A') (A") (A")
                 (A') (A') (A') (A") (A') (A') (A") (A") (A') (A")
                 (A') (A") (A') (A') (A") (A") (A') (A') (A") (A')
                 (A") (A') (A') (A") (A') (A") (A') (A') (A") (A')
                 (A") (A') (A') (A") (A') (A') (A") (A') (A") (A")
                 (A') (A') (A") (A') (A') (A') (A") (A') (A') (A")
                 (A') (A") (A') (A") (A') (A') (A") (A') (A") (A')
                 (A') (A') (A") (A') (A") (A') (A') (A") (A') (A")
                 (A") (A") (A') (A") (A') (A') (A") (A') (A') (A")
                 (A") (A') (A') (A") (A') (A') (A') (A") (A") (A')
                 (A') (A") (A') (A') (A") (A') (A") (A") (A') (A')
                 (A") (A') (A") (A') (A") (A') (A') (A") (A') (A")
                 (A') (A") (A') (A') (A') (A') (A") (A") (A') (A")
                 (A") (A') (A") (A') (A') (A") (A') (A') (A") (A')
                 (A') (A') (A") (A") (A') (A") (A') (A") (A') (A')
                 (A") (A') (A") (A') (A") (A') (A") (A') (A") (A')
                 (A') (A') (A') (A") (A") (A') (A") (A') (A') (A')
                 (A") (A") (A") (A') (A') (A") (A') (A") (A') (A')
                 (A") (A') (A') (A") (A') (A') (A') (A') (A") (A")
                 (A') (A") (A") (A') (A') (A") (A') (A") (A') (A')
                 (A") (A") (A') (A") (A') (A') (A') (A") (A") (A')
                 (A') (A") (A') (A") (A') (A") (A') (A") (A') (A")
                 (A") (A') (A') (A') (A") (A") (A') (A') (A") (A')
                 (A") (A') (A') (A') (A") (A') (A") (A") (A') (A")
                 (A') (A") (A") (A') (A') (A") (A') (A") (A') (A")
                 (A') (A') (A") (A") (A') (A') (A') (A') (A') (A")
                 (A') (A') (A') (A') (A") (A') (A')
 The electronic state of the initial guess is 2-A".
 Initial guess <Sx>= 0.0000 <Sy>= 0.0000 <Sz>= 0.5000 <S**2>= 0.7500 S= 0.5000
 Leave Link  401 at Sat Apr 17 21:05:09 2021, MaxMem=   104857600 cpu:              56.3 elap:               1.5
 (Enter /s/ls4/users/knvvv/bin/g16sse/l502.exe)
 Integral symmetry usage will be decided dynamically.
 UHF open shell SCF:
 Using DIIS extrapolation, IDIIS=  1040.
 NGot=   104857600 LenX=   104441272 LenY=   104245466
 Requested convergence on RMS density matrix=1.00D-08 within 128 cycles.
 Requested convergence on MAX density matrix=1.00D-06.
 Requested convergence on             energy=1.00D-06.
 No special actions if energy rises.
 Fock matrices will be formed incrementally for  20 cycles.

 Cycle   1  Pass 1  IDiag  1:
 FoFJK:  IHMeth= 1 ICntrl=       0 DoSepK=F KAlg= 0 I1Cent=           0 FoldK=F
 IRaf= 970000000 NMat=       1 IRICut=       1 DoRegI=T DoRafI=F ISym2E= 1 IDoP0=0 IntGTp=1.
 FoFCou: FMM=F IPFlag=           0 FMFlag=      100000 FMFlg1=           0
         NFxFlg=           0 DoJE=F BraDBF=F KetDBF=F FulRan=T
         wScrn=  0.000000 ICntrl=         0 IOpCl=  1 I1Cent=           0 NGrid=           0
         NMat0=    1 NMatS0=      1 NMatT0=    0 NMatD0=    1 NMtDS0=    0 NMtDT0=    0
 Petite list used in FoFCou.
 CoulSu:  requested number of processors reduced to:  19 ShMem   1 Linda.
 E= -392.913763416881    
 DIIS: error= 2.36D-02 at cycle   1 NSaved=   1.
 NSaved= 1 IEnMin= 1 EnMin= -392.913763416881     IErMin= 1 ErrMin= 2.36D-02
 ErrMax= 2.36D-02  0.00D+00 EMaxC= 1.00D-01 BMatC= 9.50D-01 BMatP= 9.50D-01
 IDIUse=3 WtCom= 7.64D-01 WtEn= 2.36D-01
 Coeff-Com:  0.100D+01
 Coeff-En:   0.100D+01
 Coeff:      0.100D+01
 Gap=     0.414 Goal=   None    Shift=    0.000
 Gap=     0.308 Goal=   None    Shift=    0.000
 GapD=    0.308 DampG=1.000 DampE=0.500 DampFc=0.5000 IDamp=-1.
 Damping current iteration by 5.00D-01
 RMSDP=1.02D-03 MaxDP=8.72D-02              OVMax= 8.69D-02

 Cycle   2  Pass 1  IDiag  1:
 RMSU=  5.08D-04    CP:  1.00D+00
 CoulSu:  requested number of processors reduced to:  19 ShMem   1 Linda.
 E= -392.948806990906     Delta-E=       -0.035043574025 Rises=F Damp=T
 DIIS: error= 1.22D-02 at cycle   2 NSaved=   2.
 NSaved= 2 IEnMin= 2 EnMin= -392.948806990906     IErMin= 2 ErrMin= 1.22D-02
 ErrMax= 1.22D-02  0.00D+00 EMaxC= 1.00D-01 BMatC= 1.68D-01 BMatP= 9.50D-01
 IDIUse=3 WtCom= 8.78D-01 WtEn= 1.22D-01
 Coeff-Com: -0.238D+00 0.124D+01
 Coeff-En:   0.000D+00 0.100D+01
 Coeff:     -0.209D+00 0.121D+01
 Gap=     0.440 Goal=   None    Shift=    0.000
 Gap=     0.303 Goal=   None    Shift=    0.000
 RMSDP=3.78D-04 MaxDP=1.72D-02 DE=-3.50D-02 OVMax= 6.15D-02

 Cycle   3  Pass 1  IDiag  1:
 RMSU=  3.32D-04    CP:  1.00D+00  1.35D+00
 CoulSu:  requested number of processors reduced to:  19 ShMem   1 Linda.
 E= -392.984061920741     Delta-E=       -0.035254929836 Rises=F Damp=F
 DIIS: error= 4.84D-03 at cycle   3 NSaved=   3.
 NSaved= 3 IEnMin= 3 EnMin= -392.984061920741     IErMin= 3 ErrMin= 4.84D-03
 ErrMax= 4.84D-03  0.00D+00 EMaxC= 1.00D-01 BMatC= 3.99D-02 BMatP= 1.68D-01
 IDIUse=3 WtCom= 9.52D-01 WtEn= 4.84D-02
 Coeff-Com: -0.225D+00 0.456D+00 0.770D+00
 Coeff-En:   0.000D+00 0.000D+00 0.100D+01
 Coeff:     -0.215D+00 0.434D+00 0.781D+00
 Gap=     0.446 Goal=   None    Shift=    0.000
 Gap=     0.306 Goal=   None    Shift=    0.000
 RMSDP=1.25D-04 MaxDP=6.66D-03 DE=-3.53D-02 OVMax= 1.49D-02

 Cycle   4  Pass 1  IDiag  1:
 RMSU=  9.36D-05    CP:  1.00D+00  1.50D+00  9.20D-01
 CoulSu:  requested number of processors reduced to:  19 ShMem   1 Linda.
 E= -392.989633166545     Delta-E=       -0.005571245804 Rises=F Damp=F
 DIIS: error= 1.13D-03 at cycle   4 NSaved=   4.
 NSaved= 4 IEnMin= 4 EnMin= -392.989633166545     IErMin= 4 ErrMin= 1.13D-03
 ErrMax= 1.13D-03  0.00D+00 EMaxC= 1.00D-01 BMatC= 1.07D-03 BMatP= 3.99D-02
 IDIUse=3 WtCom= 9.89D-01 WtEn= 1.13D-02
 Coeff-Com: -0.858D-01 0.166D+00 0.322D+00 0.597D+00
 Coeff-En:   0.000D+00 0.000D+00 0.000D+00 0.100D+01
 Coeff:     -0.848D-01 0.164D+00 0.319D+00 0.602D+00
 Gap=     0.441 Goal=   None    Shift=    0.000
 Gap=     0.306 Goal=   None    Shift=    0.000
 RMSDP=3.27D-05 MaxDP=3.54D-03 DE=-5.57D-03 OVMax= 4.61D-03

 Cycle   5  Pass 1  IDiag  1:
 RMSU=  3.23D-05    CP:  1.00D+00  1.51D+00  9.12D-01  1.01D+00
 CoulSu:  requested number of processors reduced to:  19 ShMem   1 Linda.
 E= -392.989826213077     Delta-E=       -0.000193046532 Rises=F Damp=F
 DIIS: error= 3.58D-04 at cycle   5 NSaved=   5.
 NSaved= 5 IEnMin= 5 EnMin= -392.989826213077     IErMin= 5 ErrMin= 3.58D-04
 ErrMax= 3.58D-04  0.00D+00 EMaxC= 1.00D-01 BMatC= 8.35D-05 BMatP= 1.07D-03
 IDIUse=3 WtCom= 9.96D-01 WtEn= 3.58D-03
 Coeff-Com:  0.316D-01-0.638D-01-0.118D+00 0.748D-01 0.108D+01
 Coeff-En:   0.000D+00 0.000D+00 0.000D+00 0.000D+00 0.100D+01
 Coeff:      0.315D-01-0.636D-01-0.118D+00 0.746D-01 0.108D+01
 Gap=     0.443 Goal=   None    Shift=    0.000
 Gap=     0.307 Goal=   None    Shift=    0.000
 RMSDP=2.02D-05 MaxDP=1.36D-03 DE=-1.93D-04 OVMax= 3.55D-03

 Cycle   6  Pass 1  IDiag  1:
 RMSU=  9.18D-06    CP:  1.00D+00  1.52D+00  9.26D-01  1.18D+00  1.18D+00
 CoulSu:  requested number of processors reduced to:  19 ShMem   1 Linda.
 E= -392.989858620351     Delta-E=       -0.000032407274 Rises=F Damp=F
 DIIS: error= 7.25D-05 at cycle   6 NSaved=   6.
 NSaved= 6 IEnMin= 6 EnMin= -392.989858620351     IErMin= 6 ErrMin= 7.25D-05
 ErrMax= 7.25D-05  0.00D+00 EMaxC= 1.00D-01 BMatC= 3.77D-06 BMatP= 8.35D-05
 IDIUse=1 WtCom= 1.00D+00 WtEn= 0.00D+00
 Coeff-Com:  0.663D-02-0.131D-01-0.256D-01-0.381D-01 0.347D-01 0.104D+01
 Coeff:      0.663D-02-0.131D-01-0.256D-01-0.381D-01 0.347D-01 0.104D+01
 Gap=     0.444 Goal=   None    Shift=    0.000
 Gap=     0.307 Goal=   None    Shift=    0.000
 RMSDP=4.93D-06 MaxDP=3.39D-04 DE=-3.24D-05 OVMax= 8.59D-04

 Cycle   7  Pass 1  IDiag  1:
 RMSU=  2.55D-06    CP:  1.00D+00  1.52D+00  9.27D-01  1.20D+00  1.25D+00
                    CP:  1.29D+00
 CoulSu:  requested number of processors reduced to:  19 ShMem   1 Linda.
 E= -392.989860548460     Delta-E=       -0.000001928109 Rises=F Damp=F
 DIIS: error= 2.05D-05 at cycle   7 NSaved=   7.
 NSaved= 7 IEnMin= 7 EnMin= -392.989860548460     IErMin= 7 ErrMin= 2.05D-05
 ErrMax= 2.05D-05  0.00D+00 EMaxC= 1.00D-01 BMatC= 7.83D-07 BMatP= 3.77D-06
 IDIUse=1 WtCom= 1.00D+00 WtEn= 0.00D+00
 Coeff-Com: -0.105D-02 0.216D-02 0.435D-02-0.141D-01-0.774D-01 0.227D+00
 Coeff-Com:  0.859D+00
 Coeff:     -0.105D-02 0.216D-02 0.435D-02-0.141D-01-0.774D-01 0.227D+00
 Coeff:      0.859D+00
 Gap=     0.444 Goal=   None    Shift=    0.000
 Gap=     0.307 Goal=   None    Shift=    0.000
 RMSDP=1.35D-06 MaxDP=5.13D-05 DE=-1.93D-06 OVMax= 1.49D-04

 Cycle   8  Pass 1  IDiag  1:
 RMSU=  7.95D-07    CP:  1.00D+00  1.52D+00  9.27D-01  1.20D+00  1.26D+00
                    CP:  1.39D+00  1.19D+00
 CoulSu:  requested number of processors reduced to:  19 ShMem   1 Linda.
 E= -392.989860739130     Delta-E=       -0.000000190670 Rises=F Damp=F
 DIIS: error= 1.37D-05 at cycle   8 NSaved=   8.
 NSaved= 8 IEnMin= 8 EnMin= -392.989860739130     IErMin= 8 ErrMin= 1.37D-05
 ErrMax= 1.37D-05  0.00D+00 EMaxC= 1.00D-01 BMatC= 2.86D-07 BMatP= 7.83D-07
 IDIUse=1 WtCom= 1.00D+00 WtEn= 0.00D+00
 Coeff-Com: -0.161D-02 0.322D-02 0.662D-02 0.220D-02-0.362D-01-0.133D+00
 Coeff-Com:  0.409D+00 0.750D+00
 Coeff:     -0.161D-02 0.322D-02 0.662D-02 0.220D-02-0.362D-01-0.133D+00
 Coeff:      0.409D+00 0.750D+00
 Gap=     0.444 Goal=   None    Shift=    0.000
 Gap=     0.307 Goal=   None    Shift=    0.000
 RMSDP=6.01D-07 MaxDP=3.59D-05 DE=-1.91D-07 OVMax= 8.37D-05

 Cycle   9  Pass 1  IDiag  1:
 RMSU=  3.49D-07    CP:  1.00D+00  1.52D+00  9.27D-01  1.20D+00  1.27D+00
                    CP:  1.42D+00  1.33D+00  1.00D+00
 CoulSu:  requested number of processors reduced to:  19 ShMem   1 Linda.
 E= -392.989860796434     Delta-E=       -0.000000057304 Rises=F Damp=F
 DIIS: error= 2.45D-06 at cycle   9 NSaved=   9.
 NSaved= 9 IEnMin= 9 EnMin= -392.989860796434     IErMin= 9 ErrMin= 2.45D-06
 ErrMax= 2.45D-06  0.00D+00 EMaxC= 1.00D-01 BMatC= 9.22D-09 BMatP= 2.86D-07
 IDIUse=1 WtCom= 1.00D+00 WtEn= 0.00D+00
 Coeff-Com: -0.111D-03 0.230D-03 0.397D-03 0.137D-02 0.234D-02-0.402D-01
 Coeff-Com: -0.256D-01 0.112D+00 0.949D+00
 Coeff:     -0.111D-03 0.230D-03 0.397D-03 0.137D-02 0.234D-02-0.402D-01
 Coeff:     -0.256D-01 0.112D+00 0.949D+00
 Gap=     0.444 Goal=   None    Shift=    0.000
 Gap=     0.307 Goal=   None    Shift=    0.000
 RMSDP=1.74D-07 MaxDP=1.23D-05 DE=-5.73D-08 OVMax= 2.81D-05

 Cycle  10  Pass 1  IDiag  1:
 RMSU=  1.13D-07    CP:  1.00D+00  1.52D+00  9.27D-01  1.20D+00  1.27D+00
                    CP:  1.42D+00  1.35D+00  1.09D+00  1.17D+00
 CoulSu:  requested number of processors reduced to:  19 ShMem   1 Linda.
 E= -392.989860799702     Delta-E=       -0.000000003268 Rises=F Damp=F
 DIIS: error= 7.70D-07 at cycle  10 NSaved=  10.
 NSaved=10 IEnMin=10 EnMin= -392.989860799702     IErMin=10 ErrMin= 7.70D-07
 ErrMax= 7.70D-07  0.00D+00 EMaxC= 1.00D-01 BMatC= 6.36D-10 BMatP= 9.22D-09
 IDIUse=1 WtCom= 1.00D+00 WtEn= 0.00D+00
 Coeff-Com:  0.745D-04-0.145D-03-0.336D-03 0.123D-03 0.286D-02 0.215D-02
 Coeff-Com: -0.328D-01-0.375D-01 0.137D+00 0.929D+00
 Coeff:      0.745D-04-0.145D-03-0.336D-03 0.123D-03 0.286D-02 0.215D-02
 Coeff:     -0.328D-01-0.375D-01 0.137D+00 0.929D+00
 Gap=     0.444 Goal=   None    Shift=    0.000
 Gap=     0.307 Goal=   None    Shift=    0.000
 RMSDP=5.46D-08 MaxDP=4.71D-06 DE=-3.27D-09 OVMax= 9.40D-06

 Cycle  11  Pass 1  IDiag  1:
 RMSU=  2.66D-08    CP:  1.00D+00  1.52D+00  9.27D-01  1.20D+00  1.27D+00
                    CP:  1.42D+00  1.36D+00  1.12D+00  1.27D+00  1.17D+00
 CoulSu:  requested number of processors reduced to:  19 ShMem   1 Linda.
 E= -392.989860799953     Delta-E=       -0.000000000251 Rises=F Damp=F
 DIIS: error= 2.73D-07 at cycle  11 NSaved=  11.
 NSaved=11 IEnMin=11 EnMin= -392.989860799953     IErMin=11 ErrMin= 2.73D-07
 ErrMax= 2.73D-07  0.00D+00 EMaxC= 1.00D-01 BMatC= 6.96D-11 BMatP= 6.36D-10
 IDIUse=1 WtCom= 1.00D+00 WtEn= 0.00D+00
 Coeff-Com:  0.233D-04-0.485D-04-0.988D-04-0.132D-03 0.103D-03 0.485D-02
 Coeff-Com: -0.301D-02-0.168D-01-0.642D-01 0.124D+00 0.956D+00
 Coeff:      0.233D-04-0.485D-04-0.988D-04-0.132D-03 0.103D-03 0.485D-02
 Coeff:     -0.301D-02-0.168D-01-0.642D-01 0.124D+00 0.956D+00
 Gap=     0.444 Goal=   None    Shift=    0.000
 Gap=     0.307 Goal=   None    Shift=    0.000
 RMSDP=2.07D-08 MaxDP=1.85D-06 DE=-2.51D-10 OVMax= 2.74D-06

 Cycle  12  Pass 1  IDiag  1:
 RMSU=  9.98D-09    CP:  1.00D+00  1.52D+00  9.27D-01  1.20D+00  1.27D+00
                    CP:  1.42D+00  1.36D+00  1.12D+00  1.29D+00  1.26D+00
                    CP:  1.31D+00
 CoulSu:  requested number of processors reduced to:  19 ShMem   1 Linda.
 E= -392.989860799980     Delta-E=       -0.000000000027 Rises=F Damp=F
 DIIS: error= 7.57D-08 at cycle  12 NSaved=  12.
 NSaved=12 IEnMin=12 EnMin= -392.989860799980     IErMin=12 ErrMin= 7.57D-08
 ErrMax= 7.57D-08  0.00D+00 EMaxC= 1.00D-01 BMatC= 7.08D-12 BMatP= 6.96D-11
 IDIUse=1 WtCom= 1.00D+00 WtEn= 0.00D+00
 Coeff-Com: -0.758D-05 0.146D-04 0.357D-04-0.220D-04-0.320D-03 0.421D-05
 Coeff-Com:  0.334D-02 0.290D-02-0.187D-01-0.946D-01 0.132D+00 0.975D+00
 Coeff:     -0.758D-05 0.146D-04 0.357D-04-0.220D-04-0.320D-03 0.421D-05
 Coeff:      0.334D-02 0.290D-02-0.187D-01-0.946D-01 0.132D+00 0.975D+00
 Gap=     0.444 Goal=   None    Shift=    0.000
 Gap=     0.307 Goal=   None    Shift=    0.000
 RMSDP=5.67D-09 MaxDP=4.30D-07 DE=-2.69D-11 OVMax= 8.46D-07

 SCF Done:  E(UM062X) =  -392.989860800     A.U. after   12 cycles
            NFock= 12  Conv=0.57D-08     -V/T= 2.0031
 <Sx>= 0.0000 <Sy>= 0.0000 <Sz>= 0.5000 <S**2>= 0.7538 S= 0.5019
 <L.S>= 0.000000000000E+00
 KE= 3.917723737454D+02 PE=-1.318674913648D+03 EE= 3.409011174320D+02
 Annihilation of the first spin contaminant:
 S**2 before annihilation     0.7538,   after     0.7500
 Leave Link  502 at Sat Apr 17 21:06:55 2021, MaxMem=   104857600 cpu:            3732.7 elap:             105.3
 (Enter /s/ls4/users/knvvv/bin/g16sse/l601.exe)
 Copying SCF densities to generalized density rwf, IOpCl= 1 IROHF=0.

 **********************************************************************

            Population analysis using the SCF density.

 **********************************************************************

 Orbital symmetries:
 Alpha Orbitals:
       Occupied  (A") (A') (A') (A') (A') (A') (A") (A') (A') (A')
                 (A') (A") (A') (A") (A') (A') (A") (A') (A") (A')
                 (A")
       Virtual   (A') (A') (A") (A') (A') (A") (A') (A') (A") (A')
                 (A') (A") (A") (A') (A') (A') (A") (A') (A") (A')
                 (A') (A") (A') (A') (A') (A') (A") (A') (A") (A')
                 (A') (A") (A') (A") (A') (A') (A') (A") (A') (A")
                 (A') (A") (A') (A") (A") (A') (A') (A') (A") (A')
                 (A") (A') (A") (A') (A") (A') (A') (A") (A') (A')
                 (A") (A') (A") (A') (A') (A') (A") (A') (A") (A")
                 (A') (A') (A') (A") (A') (A') (A') (A") (A") (A')
                 (A') (A') (A") (A') (A") (A') (A') (A") (A") (A')
                 (A') (A") (A') (A") (A") (A") (A') (A') (A') (A")
                 (A') (A') (A") (A') (A') (A") (A') (A") (A') (A')
                 (A") (A") (A') (A') (A') (A") (A') (A") (A") (A')
                 (A') (A") (A') (A') (A') (A") (A') (A') (A') (A")
                 (A") (A') (A") (A') (A') (A") (A') (A") (A') (A')
                 (A") (A') (A') (A") (A') (A') (A") (A') (A") (A")
                 (A') (A") (A") (A') (A') (A") (A') (A') (A") (A")
                 (A') (A') (A") (A') (A') (A') (A") (A") (A') (A')
                 (A") (A') (A') (A") (A') (A") (A") (A') (A') (A")
                 (A") (A') (A') (A') (A") (A') (A") (A') (A") (A')
                 (A') (A') (A") (A") (A') (A") (A') (A') (A") (A")
                 (A') (A") (A') (A') (A") (A') (A') (A") (A') (A')
                 (A") (A") (A') (A') (A") (A') (A') (A") (A') (A")
                 (A') (A") (A') (A") (A') (A") (A') (A") (A') (A')
                 (A') (A') (A") (A") (A') (A") (A') (A') (A") (A')
                 (A") (A") (A') (A') (A") (A') (A") (A') (A") (A')
                 (A') (A') (A") (A') (A') (A') (A') (A") (A") (A")
                 (A") (A') (A") (A') (A') (A") (A') (A") (A') (A')
                 (A') (A") (A') (A") (A') (A') (A") (A") (A') (A')
                 (A") (A') (A") (A') (A") (A') (A') (A") (A") (A')
                 (A") (A') (A') (A") (A") (A') (A') (A") (A') (A")
                 (A') (A') (A') (A") (A') (A") (A") (A') (A") (A')
                 (A") (A") (A') (A') (A") (A') (A") (A') (A") (A')
                 (A") (A') (A') (A") (A') (A') (A') (A') (A") (A')
                 (A') (A') (A') (A") (A') (A')
 Beta  Orbitals:
       Occupied  (A") (A') (A') (A') (A') (A') (A') (A") (A') (A')
                 (A') (A") (A') (A') (A") (A') (A") (A") (A') (A')
       Virtual   (A") (A') (A') (A") (A') (A') (A") (A') (A') (A")
                 (A') (A') (A") (A") (A') (A') (A') (A") (A') (A")
                 (A') (A') (A") (A') (A') (A") (A') (A') (A') (A")
                 (A') (A") (A') (A') (A") (A') (A') (A') (A") (A')
                 (A") (A') (A") (A') (A") (A") (A') (A') (A') (A")
                 (A') (A") (A') (A") (A') (A") (A') (A') (A") (A')
                 (A') (A") (A') (A") (A') (A') (A') (A") (A') (A")
                 (A") (A') (A') (A') (A") (A') (A') (A') (A") (A")
                 (A') (A') (A') (A") (A') (A') (A") (A') (A") (A")
                 (A') (A') (A") (A') (A") (A") (A") (A') (A') (A')
                 (A") (A') (A') (A") (A') (A') (A") (A') (A") (A')
                 (A') (A") (A") (A') (A') (A') (A") (A") (A') (A")
                 (A') (A') (A") (A') (A') (A') (A") (A') (A') (A')
                 (A") (A") (A') (A") (A') (A') (A") (A') (A") (A')
                 (A') (A") (A') (A') (A") (A') (A') (A") (A') (A")
                 (A") (A') (A") (A") (A') (A') (A") (A') (A') (A")
                 (A") (A') (A') (A") (A') (A') (A') (A") (A") (A')
                 (A') (A') (A") (A') (A") (A') (A") (A") (A') (A')
                 (A") (A") (A') (A') (A') (A") (A') (A") (A') (A")
                 (A') (A') (A') (A") (A') (A") (A") (A') (A') (A")
                 (A") (A') (A") (A') (A') (A") (A') (A") (A') (A')
                 (A') (A") (A') (A") (A') (A") (A') (A') (A") (A')
                 (A") (A') (A") (A') (A") (A') (A") (A') (A") (A')
                 (A') (A') (A') (A") (A") (A') (A") (A') (A') (A")
                 (A') (A") (A') (A") (A') (A") (A') (A") (A') (A')
                 (A') (A") (A') (A') (A") (A') (A') (A') (A") (A")
                 (A") (A') (A") (A') (A') (A") (A") (A') (A") (A')
                 (A') (A') (A") (A') (A") (A') (A') (A") (A") (A')
                 (A') (A") (A') (A") (A') (A") (A') (A") (A') (A")
                 (A") (A') (A') (A') (A") (A") (A') (A') (A") (A')
                 (A") (A') (A') (A') (A") (A') (A") (A") (A') (A")
                 (A') (A") (A") (A') (A') (A") (A') (A") (A') (A")
                 (A') (A") (A') (A') (A") (A') (A') (A') (A') (A")
                 (A') (A') (A') (A') (A") (A') (A')
 The electronic state is 2-A".
 Alpha  occ. eigenvalues --  -25.29849 -25.29848 -25.29340 -14.83638 -10.84315
 Alpha  occ. eigenvalues --   -1.48566  -1.39452  -1.39275  -1.06524  -0.81204
 Alpha  occ. eigenvalues --   -0.72061  -0.71907  -0.68354  -0.59723  -0.59605
 Alpha  occ. eigenvalues --   -0.56188  -0.55662  -0.53643  -0.53459  -0.45280
 Alpha  occ. eigenvalues --   -0.43886
 Alpha virt. eigenvalues --    0.00471   0.03616   0.04210   0.04650   0.07293
 Alpha virt. eigenvalues --    0.07940   0.08339   0.08630   0.08822   0.12388
 Alpha virt. eigenvalues --    0.14162   0.14304   0.17062   0.18060   0.19377
 Alpha virt. eigenvalues --    0.20460   0.20902   0.21604   0.22179   0.23456
 Alpha virt. eigenvalues --    0.25908   0.27182   0.27848   0.28424   0.28913
 Alpha virt. eigenvalues --    0.29396   0.29412   0.30040   0.31350   0.33871
 Alpha virt. eigenvalues --    0.35516   0.35664   0.39950   0.43159   0.43618
 Alpha virt. eigenvalues --    0.44085   0.48538   0.51551   0.52430   0.52793
 Alpha virt. eigenvalues --    0.52958   0.53842   0.55149   0.56638   0.57307
 Alpha virt. eigenvalues --    0.58538   0.58884   0.62524   0.63162   0.63207
 Alpha virt. eigenvalues --    0.66108   0.67110   0.68507   0.68815   0.70813
 Alpha virt. eigenvalues --    0.71010   0.72148   0.73665   0.74085   0.76487
 Alpha virt. eigenvalues --    0.81495   0.82488   0.82521   0.88224   0.89220
 Alpha virt. eigenvalues --    0.90383   0.97460   0.97592   0.97908   1.03319
 Alpha virt. eigenvalues --    1.06200   1.06965   1.13441   1.15062   1.16704
 Alpha virt. eigenvalues --    1.19928   1.21822   1.25045   1.25747   1.29145
 Alpha virt. eigenvalues --    1.30351   1.32982   1.49604   1.52288   1.63737
 Alpha virt. eigenvalues --    1.63796   1.64893   1.66237   1.70687   1.71338
 Alpha virt. eigenvalues --    1.79063   1.79309   1.80521   1.83071   1.87974
 Alpha virt. eigenvalues --    1.91308   1.91510   1.93858   1.97710   1.98344
 Alpha virt. eigenvalues --    1.98594   2.01075   2.02864   2.04863   2.07691
 Alpha virt. eigenvalues --    2.08551   2.10980   2.13494   2.14344   2.16874
 Alpha virt. eigenvalues --    2.17763   2.21670   2.22427   2.28285   2.32108
 Alpha virt. eigenvalues --    2.32273   2.42755   2.43505   2.49911   2.51043
 Alpha virt. eigenvalues --    2.57714   2.61918   2.65141   2.70029   2.77531
 Alpha virt. eigenvalues --    2.79802   2.80552   2.88354   2.92233   2.93325
 Alpha virt. eigenvalues --    2.96258   2.97564   3.06424   3.09192   3.16247
 Alpha virt. eigenvalues --    3.18092   3.21844   3.27031   3.32588   3.42156
 Alpha virt. eigenvalues --    3.53935   3.54581   3.60107   3.67882   3.79772
 Alpha virt. eigenvalues --    3.91719   3.94925   3.96446   4.12641   4.15163
 Alpha virt. eigenvalues --    4.16720   4.17642   4.18696   4.19763   4.22350
 Alpha virt. eigenvalues --    4.25561   4.28861   4.31123   4.40425   4.42695
 Alpha virt. eigenvalues --    4.44969   4.52377   4.61110   4.66530   4.71977
 Alpha virt. eigenvalues --    4.80557   4.82676   4.84947   4.89019   5.03546
 Alpha virt. eigenvalues --    5.07113   5.07125   5.11099   5.33089   5.34739
 Alpha virt. eigenvalues --    5.35387   5.36785   5.38281   5.41902   5.48439
 Alpha virt. eigenvalues --    5.53036   5.55319   5.57790   5.65128   5.65152
 Alpha virt. eigenvalues --    5.67086   5.68149   5.77301   5.78925   5.84123
 Alpha virt. eigenvalues --    5.92941   5.99746   5.99878   6.03630   6.04309
 Alpha virt. eigenvalues --    6.09707   6.11695   6.14176   6.14342   6.19844
 Alpha virt. eigenvalues --    6.21561   6.25542   6.31134   6.33661   6.50545
 Alpha virt. eigenvalues --    6.54285   6.58022   6.58098   6.58812   6.66657
 Alpha virt. eigenvalues --    6.71200   6.76797   6.78187   6.81927   6.90595
 Alpha virt. eigenvalues --    6.99721   7.04683   7.07139   7.14267   7.17831
 Alpha virt. eigenvalues --    7.20983   7.27754   7.28698   7.30658   7.31997
 Alpha virt. eigenvalues --    7.38844   7.42431   7.54381   7.61596   7.69566
 Alpha virt. eigenvalues --    7.72470   7.86817   7.88186   7.95217   8.07140
 Alpha virt. eigenvalues --    8.14652   8.27641   8.35784   8.43219   8.45765
 Alpha virt. eigenvalues --    8.53262   8.69359   8.69507   8.81674   8.91632
 Alpha virt. eigenvalues --    9.04525   9.16680   9.19662   9.24206   9.24874
 Alpha virt. eigenvalues --    9.28322   9.54577   9.80122   9.82758  10.29233
 Alpha virt. eigenvalues --   10.72108  11.08174  11.17130  11.26316  11.28686
 Alpha virt. eigenvalues --   11.29065  11.29120  11.29220  11.29413  11.29904
 Alpha virt. eigenvalues --   11.30223  11.31029  11.33614  11.34367  11.36856
 Alpha virt. eigenvalues --   11.38825  11.43021  11.51918  11.52896  11.54176
 Alpha virt. eigenvalues --   11.66527  11.66667  11.90684  11.92252  11.97111
 Alpha virt. eigenvalues --   12.02345  12.04157  12.11232  12.14737  12.20372
 Alpha virt. eigenvalues --   12.38620  14.31809  14.39756  14.41570  14.43194
 Alpha virt. eigenvalues --   14.44554  14.45171  14.50490  14.61608  14.67741
 Alpha virt. eigenvalues --   14.70899  14.82805  14.83327  14.88038  15.09926
 Alpha virt. eigenvalues --   15.10686  15.25126  15.36747  15.39858  15.41182
 Alpha virt. eigenvalues --   15.41765  15.44833  15.48299  15.86971  15.88189
 Alpha virt. eigenvalues --   15.91777  15.97354  15.99422  16.01643  16.11991
 Alpha virt. eigenvalues --   16.14389  16.17875  16.19619  16.41783  16.41972
 Alpha virt. eigenvalues --   16.59225  16.61561  16.64287  16.67468  16.72339
 Alpha virt. eigenvalues --   16.74313  28.37315  37.59724  54.74315  54.77458
 Alpha virt. eigenvalues --   55.14489 145.73512 195.16485 283.74101 283.78007
 Alpha virt. eigenvalues --  284.23926
  Beta  occ. eigenvalues --  -25.29735 -25.29734 -25.29333 -14.82504 -10.84384
  Beta  occ. eigenvalues --   -1.48341  -1.39152  -1.39106  -1.01470  -0.80459
  Beta  occ. eigenvalues --   -0.71762  -0.71037  -0.67237  -0.59111  -0.59053
  Beta  occ. eigenvalues --   -0.55716  -0.55240  -0.53281  -0.52759  -0.42249
  Beta virt. eigenvalues --   -0.11524   0.00396   0.03663   0.04485   0.04600
  Beta virt. eigenvalues --    0.07289   0.07916   0.08298   0.08631   0.08773
  Beta virt. eigenvalues --    0.12364   0.14002   0.14284   0.16707   0.17783
  Beta virt. eigenvalues --    0.19306   0.20498   0.21357   0.21613   0.22512
  Beta virt. eigenvalues --    0.22650   0.25541   0.27200   0.27781   0.28820
  Beta virt. eigenvalues --    0.29133   0.29454   0.29646   0.30148   0.30750
  Beta virt. eigenvalues --    0.33549   0.34935   0.35247   0.39643   0.41714
  Beta virt. eigenvalues --    0.43277   0.44327   0.48163   0.51261   0.51459
  Beta virt. eigenvalues --    0.52535   0.53322   0.53745   0.55031   0.56082
  Beta virt. eigenvalues --    0.57575   0.58574   0.58937   0.62397   0.62840
  Beta virt. eigenvalues --    0.63055   0.65064   0.66471   0.68297   0.68609
  Beta virt. eigenvalues --    0.70587   0.70748   0.71999   0.73598   0.74015
  Beta virt. eigenvalues --    0.76206   0.81036   0.81668   0.81770   0.87805
  Beta virt. eigenvalues --    0.88934   0.90373   0.97265   0.98041   0.98177
  Beta virt. eigenvalues --    1.02708   1.06557   1.06696   1.13368   1.15175
  Beta virt. eigenvalues --    1.16952   1.19923   1.21963   1.25754   1.25875
  Beta virt. eigenvalues --    1.27716   1.30104   1.32837   1.50397   1.52634
  Beta virt. eigenvalues --    1.62982   1.63717   1.64187   1.66255   1.70639
  Beta virt. eigenvalues --    1.71225   1.78654   1.79247   1.80422   1.82982
  Beta virt. eigenvalues --    1.87994   1.91504   1.91642   1.93750   1.97605
  Beta virt. eigenvalues --    1.98312   1.98654   2.01235   2.02682   2.04843
  Beta virt. eigenvalues --    2.07752   2.08506   2.11291   2.13576   2.14167
  Beta virt. eigenvalues --    2.17153   2.18000   2.22188   2.22568   2.28386
  Beta virt. eigenvalues --    2.32273   2.32439   2.43466   2.43662   2.49873
  Beta virt. eigenvalues --    2.51290   2.58487   2.61361   2.65402   2.71178
  Beta virt. eigenvalues --    2.78532   2.79550   2.80584   2.88658   2.92288
  Beta virt. eigenvalues --    2.93731   2.96422   2.97513   3.06537   3.09544
  Beta virt. eigenvalues --    3.18906   3.19607   3.23249   3.28171   3.33217
  Beta virt. eigenvalues --    3.42389   3.53257   3.54096   3.60531   3.69757
  Beta virt. eigenvalues --    3.81807   3.91807   3.95347   3.96094   4.12620
  Beta virt. eigenvalues --    4.15166   4.16776   4.17804   4.18694   4.19756
  Beta virt. eigenvalues --    4.23427   4.26064   4.28967   4.31122   4.41674
  Beta virt. eigenvalues --    4.44319   4.45115   4.52338   4.62164   4.66707
  Beta virt. eigenvalues --    4.72506   4.80943   4.83101   4.85522   4.89899
  Beta virt. eigenvalues --    5.03888   5.07256   5.07320   5.11572   5.33240
  Beta virt. eigenvalues --    5.34838   5.35528   5.36931   5.38514   5.43583
  Beta virt. eigenvalues --    5.49037   5.53609   5.55748   5.58206   5.65238
  Beta virt. eigenvalues --    5.65664   5.68280   5.70982   5.78292   5.79464
  Beta virt. eigenvalues --    5.84379   5.94880   5.99930   6.00728   6.04716
  Beta virt. eigenvalues --    6.04890   6.10096   6.11897   6.14613   6.14765
  Beta virt. eigenvalues --    6.21559   6.21877   6.29005   6.33124   6.35024
  Beta virt. eigenvalues --    6.50747   6.54570   6.58176   6.59030   6.59854
  Beta virt. eigenvalues --    6.67150   6.74545   6.79430   6.81888   6.83683
  Beta virt. eigenvalues --    6.91436   7.00804   7.07057   7.09178   7.14795
  Beta virt. eigenvalues --    7.18241   7.22351   7.29741   7.30399   7.31252
  Beta virt. eigenvalues --    7.33632   7.39920   7.43201   7.58130   7.64274
  Beta virt. eigenvalues --    7.73911   7.75397   7.88480   7.93468   7.98426
  Beta virt. eigenvalues --    8.09392   8.18479   8.29685   8.37695   8.49451
  Beta virt. eigenvalues --    8.52395   8.61521   8.79096   8.79983   8.90808
  Beta virt. eigenvalues --    9.02685   9.05667   9.21943   9.23329   9.29122
  Beta virt. eigenvalues --    9.34873   9.37259   9.59069   9.87472   9.95543
  Beta virt. eigenvalues --   10.35820  10.85699  11.15380  11.26276  11.28468
  Beta virt. eigenvalues --   11.29033  11.29141  11.29151  11.29401  11.30029
  Beta virt. eigenvalues --   11.30075  11.31114  11.31641  11.33861  11.34352
  Beta virt. eigenvalues --   11.37393  11.41796  11.43017  11.52083  11.52863
  Beta virt. eigenvalues --   11.54504  11.66519  11.66768  11.90802  11.92264
  Beta virt. eigenvalues --   11.97456  12.02362  12.04186  12.11111  12.14749
  Beta virt. eigenvalues --   12.20333  12.38994  14.39787  14.41121  14.41609
  Beta virt. eigenvalues --   14.44632  14.45229  14.46301  14.54151  14.61749
  Beta virt. eigenvalues --   14.67984  14.72012  14.83100  14.83456  14.88188
  Beta virt. eigenvalues --   15.10269  15.10844  15.25318  15.36955  15.39993
  Beta virt. eigenvalues --   15.41436  15.42000  15.44908  15.48339  15.87227
  Beta virt. eigenvalues --   15.88322  15.91990  15.97494  15.99733  16.01803
  Beta virt. eigenvalues --   16.12213  16.14488  16.18040  16.19954  16.42035
  Beta virt. eigenvalues --   16.42160  16.59450  16.61689  16.64424  16.67764
  Beta virt. eigenvalues --   16.72374  16.74542  28.36618  37.74146  54.74082
  Beta virt. eigenvalues --   54.77360  55.14337 145.73378 195.17755 283.73893
  Beta virt. eigenvalues --  283.77926 284.23789
          Condensed to atoms (all electrons):
               1          2          3          4          5          6
     1  C    4.171936   0.247211   0.034687   0.261127   0.225583   0.225583
     2  N    0.247211   7.258111   0.110387  -0.066171  -0.048509  -0.048509
     3  H    0.034687   0.110387   0.483712   0.006118  -0.008296  -0.008296
     4  F    0.261127  -0.066171   0.006118   9.168247  -0.062730  -0.062730
     5  F    0.225583  -0.048509  -0.008296  -0.062730   9.217804  -0.064260
     6  F    0.225583  -0.048509  -0.008296  -0.062730  -0.064260   9.217804
          Atomic-Atomic Spin Densities.
               1          2          3          4          5          6
     1  C   -0.101932   0.075610  -0.008022   0.005733   0.003277   0.003277
     2  N    0.075610   0.908793   0.075975   0.001097  -0.023210  -0.023210
     3  H   -0.008022   0.075975  -0.129845  -0.001675   0.003795   0.003795
     4  F    0.005733   0.001097  -0.001675   0.003054  -0.000576  -0.000576
     5  F    0.003277  -0.023210   0.003795  -0.000576   0.044967  -0.000291
     6  F    0.003277  -0.023210   0.003795  -0.000576  -0.000291   0.044967
 Mulliken charges and spin densities:
               1          2
     1  C    0.833873  -0.022058
     2  N   -0.452520   1.015055
     3  H    0.381689  -0.055977
     4  F   -0.243860   0.007057
     5  F   -0.259591   0.027961
     6  F   -0.259591   0.027961
 Sum of Mulliken charges =  -0.00000   1.00000
 Mulliken charges and spin densities with hydrogens summed into heavy atoms:
               1          2
     1  C    0.833873  -0.022058
     2  N   -0.070831   0.959078
     4  F   -0.243860   0.007057
     5  F   -0.259591   0.027961
     6  F   -0.259591   0.027961
 Electronic spatial extent (au):  <R**2>=            298.0571
 Charge=             -0.0000 electrons
 Dipole moment (field-independent basis, Debye):
    X=              1.6905    Y=             -0.5235    Z=             -0.0000  Tot=              1.7697
 Quadrupole moment (field-independent basis, Debye-Ang):
   XX=            -23.3288   YY=            -29.4414   ZZ=            -27.4871
   XY=             -0.6766   XZ=             -0.0000   YZ=              0.0000
 Traceless Quadrupole moment (field-independent basis, Debye-Ang):
   XX=              3.4237   YY=             -2.6890   ZZ=             -0.7347
   XY=             -0.6766   XZ=             -0.0000   YZ=              0.0000
 Octapole moment (field-independent basis, Debye-Ang**2):
  XXX=              2.7697  YYY=             -9.2158  ZZZ=              0.0000  XYY=             -4.8616
  XXY=             -3.6524  XXZ=              0.0000  XZZ=             -2.2501  YZZ=             -0.4435
  YYZ=              0.0000  XYZ=              0.0000
 Hexadecapole moment (field-independent basis, Debye-Ang**3):
 XXXX=            -93.6617 YYYY=           -105.6179 ZZZZ=            -90.6179 XXXY=             -6.6945
 XXXZ=              0.0000 YYYX=            -11.1258 YYYZ=             -0.0000 ZZZX=              0.0000
 ZZZY=              0.0000 XXYY=            -38.8738 XXZZ=            -33.9508 YYZZ=            -31.7565
 XXYZ=             -0.0000 YYXZ=              0.0000 ZZXY=             -2.1042
 N-N= 1.930115616709D+02 E-N=-1.318674901516D+03  KE= 3.917723737454D+02
                          Isotropic Fermi Contact Couplings
        Atom                 a.u.       MegaHertz       Gauss      10(-4) cm-1
     1  C(13)             -0.04433     -49.83248     -17.78147     -16.62233
     2  N(14)              0.18829      60.83599      21.70779      20.29270
     3  H(1)              -0.01653     -73.88599     -26.36436     -24.64571
     4  F(19)             -0.00269     -11.32420      -4.04076      -3.77735
     5  F(19)              0.01689      71.07443      25.36112      23.70788
     6  F(19)              0.01689      71.07443      25.36112      23.70788
 PrsmSu:  requested number of processors reduced to:  21 ShMem   1 Linda.
 --------------------------------------------------------
       Center         ----  Spin Dipole Couplings  ----
                      3XX-RR        3YY-RR        3ZZ-RR
 --------------------------------------------------------
     1   Atom        0.010676     -0.002658     -0.008017
     2   Atom       -1.101302     -1.126529      2.227831
     3   Atom        0.047594     -0.028304     -0.019290
     4   Atom       -0.018095     -0.022542      0.040637
     5   Atom       -0.033888      0.146356     -0.112469
     6   Atom       -0.033888      0.146356     -0.112469
 --------------------------------------------------------
                        XY            XZ            YZ
 --------------------------------------------------------
     1   Atom        0.027836     -0.000000      0.000000
     2   Atom       -0.003837      0.000000      0.000000
     3   Atom       -0.101921     -0.000000     -0.000000
     4   Atom       -0.010572      0.000000      0.000000
     5   Atom        0.172504     -0.044241     -0.070813
     6   Atom        0.172504      0.044241      0.070813
 --------------------------------------------------------


 ---------------------------------------------------------------------------------
              Anisotropic Spin Dipole Couplings in Principal Axis System
 ---------------------------------------------------------------------------------

       Atom             a.u.   MegaHertz   Gauss  10(-4) cm-1        Axes

              Baa    -0.0246    -3.303    -1.179    -1.102 -0.6193  0.7852 -0.0000
     1 C(13)  Bbb    -0.0080    -1.076    -0.384    -0.359 -0.0000  0.0000  1.0000
              Bcc     0.0326     4.379     1.562     1.461  0.7852  0.6193  0.0000
 
              Baa    -1.1271   -43.470   -15.511   -14.500  0.1471  0.9891 -0.0000
     2 N(14)  Bbb    -1.1007   -42.453   -15.148   -14.161  0.9891 -0.1471  0.0000
              Bcc     2.2278    85.922    30.659    28.661  0.0000  0.0000  1.0000
 
              Baa    -0.0991   -52.882   -18.869   -17.639  0.5706  0.8213 -0.0000
     3 H(1)   Bbb    -0.0193   -10.292    -3.673    -3.433  0.0000  0.0000  1.0000
              Bcc     0.1184    63.174    22.542    21.072  0.8213 -0.5706 -0.0000
 
              Baa    -0.0311   -15.630    -5.577    -5.214  0.6301  0.7765 -0.0000
     4 F(19)  Bbb    -0.0095    -4.779    -1.705    -1.594  0.7765 -0.6301 -0.0000
              Bcc     0.0406    20.409     7.282     6.808  0.0000  0.0000  1.0000
 
              Baa    -0.1386   -69.585   -24.830   -23.211  0.8620 -0.4874  0.1388
     5 F(19)  Bbb    -0.1306   -65.578   -23.400   -21.874 -0.0118  0.2546  0.9670
              Bcc     0.2691   135.163    48.230    45.086  0.5067  0.8352 -0.2137
 
              Baa    -0.1386   -69.585   -24.830   -23.211  0.8620 -0.4874 -0.1388
     6 F(19)  Bbb    -0.1306   -65.578   -23.400   -21.874  0.0118 -0.2546  0.9670
              Bcc     0.2691   135.163    48.230    45.086  0.5067  0.8352  0.2137
 

 ---------------------------------------------------------------------------------

 PrsmSu:  requested number of processors reduced to:  21 ShMem   1 Linda.
 No NMR shielding tensors so no spin-rotation constants.
 Leave Link  601 at Sat Apr 17 21:07:06 2021, MaxMem=   104857600 cpu:             527.6 elap:              11.5
 (Enter /s/ls4/users/knvvv/bin/g16sse/l801.exe)
 DoSCS=F DFT=T ScalE2(SS,OS)=  1.000000  1.000000
 Range of M.O.s used for correlation:     1   357
 NBasis=   357 NAE=    21 NBE=    20 NFC=     0 NFV=     0
 NROrb=    357 NOA=    21 NOB=    20 NVA=   336 NVB=   337

 **** Warning!!: The largest alpha MO coefficient is  0.29339579D+02


 **** Warning!!: The largest beta MO coefficient is  0.33140123D+02

 Leave Link  801 at Sat Apr 17 21:07:06 2021, MaxMem=   104857600 cpu:               4.1 elap:               0.1
 (Enter /s/ls4/users/knvvv/bin/g16sse/l914.exe)
 UHF ground state
 Doing stability rather than CIS.
 Two-electron integrals replicated using symmetry.
 MDV=   104857600 DFT=T DoStab=T Mixed=T DoRPA=F DoScal=F NonHer=F
 Making orbital integer symmetry assigments:
 Orbital symmetries:
 Alpha Orbitals:
       Occupied  (A") (A') (A') (A') (A') (A') (A") (A') (A') (A')
                 (A') (A") (A') (A") (A') (A') (A") (A') (A") (A')
                 (A")
       Virtual   (A') (A') (A") (A') (A') (A") (A') (A') (A") (A')
                 (A') (A") (A") (A') (A') (A') (A") (A') (A") (A')
                 (A') (A") (A') (A') (A') (A') (A") (A') (A") (A')
                 (A') (A") (A') (A") (A') (A') (A') (A") (A') (A")
                 (A') (A") (A') (A") (A") (A') (A') (A') (A") (A')
                 (A") (A') (A") (A') (A") (A') (A') (A") (A') (A')
                 (A") (A') (A") (A') (A') (A') (A") (A') (A") (A")
                 (A') (A') (A') (A") (A') (A') (A') (A") (A") (A')
                 (A') (A') (A") (A') (A") (A') (A') (A") (A") (A')
                 (A') (A") (A') (A") (A") (A") (A') (A') (A') (A")
                 (A') (A') (A") (A') (A') (A") (A') (A") (A') (A')
                 (A") (A") (A') (A') (A') (A") (A') (A") (A") (A')
                 (A') (A") (A') (A') (A') (A") (A') (A') (A') (A")
                 (A") (A') (A") (A') (A') (A") (A') (A") (A') (A')
                 (A") (A') (A') (A") (A') (A') (A") (A') (A") (A")
                 (A') (A") (A") (A') (A') (A") (A') (A') (A") (A")
                 (A') (A') (A") (A') (A') (A') (A") (A") (A') (A')
                 (A") (A') (A') (A") (A') (A") (A") (A') (A') (A")
                 (A") (A') (A') (A') (A") (A') (A") (A') (A") (A')
                 (A') (A') (A") (A") (A') (A") (A') (A') (A") (A")
                 (A') (A") (A') (A') (A") (A') (A') (A") (A') (A')
                 (A") (A") (A') (A') (A") (A') (A') (A") (A') (A")
                 (A') (A") (A') (A") (A') (A") (A') (A") (A') (A')
                 (A') (A') (A") (A") (A') (A") (A') (A') (A") (A')
                 (A") (A") (A') (A') (A") (A') (A") (A') (A") (A')
                 (A') (A') (A") (A') (A') (A') (A') (A") (A") (A")
                 (A") (A') (A") (A') (A') (A") (A') (A") (A') (A')
                 (A') (A") (A') (A") (A') (A') (A") (A") (A') (A')
                 (A") (A') (A") (A') (A") (A') (A') (A") (A") (A')
                 (A") (A') (A') (A") (A") (A') (A') (A") (A') (A")
                 (A') (A') (A') (A") (A') (A") (A") (A') (A") (A')
                 (A") (A") (A') (A') (A") (A') (A") (A') (A") (A')
                 (A") (A') (A') (A") (A') (A') (A') (A') (A") (A')
                 (A') (A') (A') (A") (A') (A')
 Beta  Orbitals:
       Occupied  (A") (A') (A') (A') (A') (A') (A') (A") (A') (A')
                 (A') (A") (A') (A') (A") (A') (A") (A") (A') (A')
       Virtual   (A") (A') (A') (A") (A') (A') (A") (A') (A') (A")
                 (A') (A') (A") (A") (A') (A') (A') (A") (A') (A")
                 (A') (A') (A") (A') (A') (A") (A') (A') (A') (A")
                 (A') (A") (A') (A') (A") (A') (A') (A') (A") (A')
                 (A") (A') (A") (A') (A") (A") (A') (A') (A') (A")
                 (A') (A") (A') (A") (A') (A") (A') (A') (A") (A')
                 (A') (A") (A') (A") (A') (A') (A') (A") (A') (A")
                 (A") (A') (A') (A') (A") (A') (A') (A') (A") (A")
                 (A') (A') (A') (A") (A') (A') (A") (A') (A") (A")
                 (A') (A') (A") (A') (A") (A") (A") (A') (A') (A')
                 (A") (A') (A') (A") (A') (A') (A") (A') (A") (A')
                 (A') (A") (A") (A') (A') (A') (A") (A") (A') (A")
                 (A') (A') (A") (A') (A') (A') (A") (A') (A') (A')
                 (A") (A") (A') (A") (A') (A') (A") (A') (A") (A')
                 (A') (A") (A') (A') (A") (A') (A') (A") (A') (A")
                 (A") (A') (A") (A") (A') (A') (A") (A') (A') (A")
                 (A") (A') (A') (A") (A') (A') (A') (A") (A") (A')
                 (A') (A') (A") (A') (A") (A') (A") (A") (A') (A')
                 (A") (A") (A') (A') (A') (A") (A') (A") (A') (A")
                 (A') (A') (A') (A") (A') (A") (A") (A') (A') (A")
                 (A") (A') (A") (A') (A') (A") (A') (A") (A') (A')
                 (A') (A") (A') (A") (A') (A") (A') (A') (A") (A')
                 (A") (A') (A") (A') (A") (A') (A") (A') (A") (A')
                 (A') (A') (A') (A") (A") (A') (A") (A') (A') (A")
                 (A') (A") (A') (A") (A') (A") (A') (A") (A') (A')
                 (A') (A") (A') (A') (A") (A') (A') (A') (A") (A")
                 (A") (A') (A") (A') (A') (A") (A") (A') (A") (A')
                 (A') (A') (A") (A') (A") (A') (A') (A") (A") (A')
                 (A') (A") (A') (A") (A') (A") (A') (A") (A') (A")
                 (A") (A') (A') (A') (A") (A") (A') (A') (A") (A')
                 (A") (A') (A') (A') (A") (A') (A") (A") (A') (A")
                 (A') (A") (A") (A') (A') (A") (A') (A") (A') (A")
                 (A') (A") (A') (A') (A") (A') (A') (A') (A') (A")
                 (A') (A') (A') (A') (A") (A') (A')
    12 initial guesses have been made.
 Convergence on wavefunction:    0.001000000000000
 Davidson Disk Diagonalization:  ConvIn= 1.00D-03 SkipCon=T Conv= 1.00D-03.
 Max sub-space:  2000 roots to seek:    12 dimension of matrix:        13796
 Iteration     1 Dimension    12 NMult     0 NNew     12
 Estimated number of processors is:   17
 CISAX will form     1 AO SS matrices at one time.
 NMat=     1 NSing=     1 JSym2X= 2.
 FoFJK:  IHMeth= 1 ICntrl=       0 DoSepK=F KAlg= 0 I1Cent=           0 FoldK=F
 IRaf= 970000000 NMat=       1 IRICut=       1 DoRegI=T DoRafI=F ISym2E= 2 IDoP0=0 IntGTp=1.
 FoFCou: FMM=F IPFlag=           0 FMFlag=      100000 FMFlg1=           0
         NFxFlg=           0 DoJE=F BraDBF=F KetDBF=F FulRan=T
         wScrn=  0.000000 ICntrl=         0 IOpCl=  1 I1Cent=           0 NGrid=           0
         NMat0=    1 NMatS0=      1 NMatT0=    0 NMatD0=    1 NMtDS0=    0 NMtDT0=    0
 Integrals replicated using symmetry in FoFCou.
 CoulSu:  requested number of processors reduced to:  17 ShMem   1 Linda.
 NMat=     1 NSing=     1 JSym2X= 2.
 CoulSu:  requested number of processors reduced to:  17 ShMem   1 Linda.
 NMat=     1 NSing=     1 JSym2X= 2.
 CoulSu:  requested number of processors reduced to:  17 ShMem   1 Linda.
 NMat=     1 NSing=     1 JSym2X= 2.
 CoulSu:  requested number of processors reduced to:  17 ShMem   1 Linda.
 NMat=     1 NSing=     1 JSym2X= 2.
 CoulSu:  requested number of processors reduced to:  17 ShMem   1 Linda.
 NMat=     1 NSing=     1 JSym2X= 2.
 CoulSu:  requested number of processors reduced to:  17 ShMem   1 Linda.
 NMat=     1 NSing=     1 JSym2X= 2.
 CoulSu:  requested number of processors reduced to:  17 ShMem   1 Linda.
 NMat=     1 NSing=     1 JSym2X= 2.
 CoulSu:  requested number of processors reduced to:  17 ShMem   1 Linda.
 NMat=     1 NSing=     1 JSym2X= 2.
 CoulSu:  requested number of processors reduced to:  17 ShMem   1 Linda.
 NMat=     1 NSing=     1 JSym2X= 2.
 CoulSu:  requested number of processors reduced to:  17 ShMem   1 Linda.
 NMat=     1 NSing=     1 JSym2X= 2.
 CoulSu:  requested number of processors reduced to:  17 ShMem   1 Linda.
 NMat=     1 NSing=     1 JSym2X= 2.
 CoulSu:  requested number of processors reduced to:  17 ShMem   1 Linda.
 Excitation Energies [eV] at current iteration:
 Root      1 :     2.590520133298967
 Root      2 :     6.760049521663135
 Root      3 :     7.981442715360497
 Root      4 :     8.472146904282329
 Root      5 :     8.556450693276796
 Root      6 :     9.110862999764141
 Root      7 :     9.423998630356509
 Root      8 :     9.996848439395796
 Root      9 :    10.501764869379010
 Root     10 :    10.720796900148310
 Root     11 :    10.874945894875590
 Root     12 :    10.879151496260720
 Iteration     2 Dimension    24 NMult    12 NNew     12
 Estimated number of processors is:   17
 CISAX will form     1 AO SS matrices at one time.
 NMat=     1 NSing=     1 JSym2X= 2.
 CoulSu:  requested number of processors reduced to:  17 ShMem   1 Linda.
 NMat=     1 NSing=     1 JSym2X= 2.
 CoulSu:  requested number of processors reduced to:  17 ShMem   1 Linda.
 NMat=     1 NSing=     1 JSym2X= 2.
 CoulSu:  requested number of processors reduced to:  17 ShMem   1 Linda.
 NMat=     1 NSing=     1 JSym2X= 2.
 CoulSu:  requested number of processors reduced to:  17 ShMem   1 Linda.
 NMat=     1 NSing=     1 JSym2X= 2.
 CoulSu:  requested number of processors reduced to:  17 ShMem   1 Linda.
 NMat=     1 NSing=     1 JSym2X= 2.
 CoulSu:  requested number of processors reduced to:  17 ShMem   1 Linda.
 NMat=     1 NSing=     1 JSym2X= 2.
 CoulSu:  requested number of processors reduced to:  17 ShMem   1 Linda.
 NMat=     1 NSing=     1 JSym2X= 2.
 CoulSu:  requested number of processors reduced to:  17 ShMem   1 Linda.
 NMat=     1 NSing=     1 JSym2X= 2.
 CoulSu:  requested number of processors reduced to:  17 ShMem   1 Linda.
 NMat=     1 NSing=     1 JSym2X= 2.
 CoulSu:  requested number of processors reduced to:  17 ShMem   1 Linda.
 NMat=     1 NSing=     1 JSym2X= 2.
 CoulSu:  requested number of processors reduced to:  17 ShMem   1 Linda.
 NMat=     1 NSing=     1 JSym2X= 2.
 CoulSu:  requested number of processors reduced to:  17 ShMem   1 Linda.
 Root      1 not converged, maximum delta is    0.071314530376900
 Excitation Energies [eV] at current iteration:
 Root      1 :     1.910416858186589   Change is   -0.680103275112379
 Root      2 :     6.164912484947743   Change is   -0.595137036715393
 Root      3 :     7.817236993574557   Change is   -0.164205721785940
 Root      4 :     8.305821440272355   Change is   -0.166325464009974
 Root      5 :     8.329890633543702   Change is   -0.226560059733095
 Root      6 :     8.684792164451160   Change is   -0.426070835312981
 Root      7 :     8.913849521533807   Change is   -0.510149108822703
 Root      8 :     9.595717315191514   Change is   -0.401131124204282
 Root      9 :    10.319593751145750   Change is   -0.182171118233254
 Root     10 :    10.548026963427030   Change is   -0.172769936721274
 Root     11 :    10.648157134894310   Change is   -0.230994361366407
 Root     12 :    10.706169957240510   Change is   -0.168775937635081
 Iteration     3 Dimension    27 NMult    24 NNew      3
 Estimated number of processors is:   17
 CISAX will form     1 AO SS matrices at one time.
 NMat=     1 NSing=     1 JSym2X= 2.
 CoulSu:  requested number of processors reduced to:  17 ShMem   1 Linda.
 NMat=     1 NSing=     1 JSym2X= 2.
 CoulSu:  requested number of processors reduced to:  17 ShMem   1 Linda.
 NMat=     1 NSing=     1 JSym2X= 2.
 CoulSu:  requested number of processors reduced to:  17 ShMem   1 Linda.
 Root      1 not converged, maximum delta is    0.025089267142706
 Excitation Energies [eV] at current iteration:
 Root      1 :     1.833999856307849   Change is   -0.076417001878740
 Root      2 :     5.897446626113131   Change is   -0.267465858834612
 Root      3 :     7.715072723713562   Change is   -0.102164269860994
 Iteration     4 Dimension    30 NMult    27 NNew      3
 Estimated number of processors is:   17
 CISAX will form     1 AO SS matrices at one time.
 NMat=     1 NSing=     1 JSym2X= 2.
 CoulSu:  requested number of processors reduced to:  17 ShMem   1 Linda.
 NMat=     1 NSing=     1 JSym2X= 2.
 CoulSu:  requested number of processors reduced to:  17 ShMem   1 Linda.
 NMat=     1 NSing=     1 JSym2X= 2.
 CoulSu:  requested number of processors reduced to:  17 ShMem   1 Linda.
 Root      1 not converged, maximum delta is    0.009209734749953
 Excitation Energies [eV] at current iteration:
 Root      1 :     1.827767616961481   Change is   -0.006232239346368
 Root      2 :     5.879580379670519   Change is   -0.017866246442612
 Root      3 :     7.704926405841912   Change is   -0.010146317871649
 Iteration     5 Dimension    33 NMult    30 NNew      3
 Estimated number of processors is:   17
 CISAX will form     1 AO SS matrices at one time.
 NMat=     1 NSing=     1 JSym2X= 2.
 CoulSu:  requested number of processors reduced to:  17 ShMem   1 Linda.
 NMat=     1 NSing=     1 JSym2X= 2.
 CoulSu:  requested number of processors reduced to:  17 ShMem   1 Linda.
 NMat=     1 NSing=     1 JSym2X= 2.
 CoulSu:  requested number of processors reduced to:  17 ShMem   1 Linda.
 Root      1 not converged, maximum delta is    0.002525271081931
 Excitation Energies [eV] at current iteration:
 Root      1 :     1.827251853251840   Change is   -0.000515763709640
 Root      2 :     5.877910419777041   Change is   -0.001669959893478
 Root      3 :     7.703681206773596   Change is   -0.001245199068317
 Iteration     6 Dimension    36 NMult    33 NNew      3
 Estimated number of processors is:   17
 CISAX will form     1 AO SS matrices at one time.
 NMat=     1 NSing=     1 JSym2X= 2.
 CoulSu:  requested number of processors reduced to:  17 ShMem   1 Linda.
 NMat=     1 NSing=     1 JSym2X= 2.
 CoulSu:  requested number of processors reduced to:  17 ShMem   1 Linda.
 NMat=     1 NSing=     1 JSym2X= 2.
 CoulSu:  requested number of processors reduced to:  17 ShMem   1 Linda.
 Root      1 has converged.
 Excitation Energies [eV] at current iteration:
 Root      1 :     1.827220243617512   Change is   -0.000031609634328
 Root      2 :     5.877814687662192   Change is   -0.000095732114849
 Root      3 :     7.703494360197617   Change is   -0.000186846575979
 Convergence achieved on expansion vectors.
 ***********************************************************************
 Stability analysis using <AA,BB:AA,BB> singles matrix:
 ***********************************************************************
 1PDM for each excited state written to RWF  633
 Ground to excited state transition densities written to RWF  633

 Eigenvectors of the stability matrix:
 
 Eigenvector   1:  2.009-A"   Eigenvalue= 0.0671491  <S**2>=0.759
     20B -> 21B        0.96803
 The wavefunction is stable under the perturbations considered.
 Leave Link  914 at Sat Apr 17 21:16:55 2021, MaxMem=   104857600 cpu:           19677.7 elap:             589.0
 (Enter /s/ls4/users/knvvv/bin/g16sse/l508.exe)
 The wavefunction is already stable.
 Leave Link  508 at Sat Apr 17 21:16:55 2021, MaxMem=   104857600 cpu:               2.2 elap:               0.1
 (Enter /s/ls4/users/knvvv/bin/g16sse/l601.exe)
 Copying SCF densities to generalized density rwf, IOpCl= 1 IROHF=0.

 **********************************************************************

            Population analysis using the SCF density.

 **********************************************************************

 Orbital symmetries:
 Alpha Orbitals:
       Occupied  (A") (A') (A') (A') (A') (A') (A") (A') (A') (A')
                 (A') (A") (A') (A") (A') (A') (A") (A') (A") (A')
                 (A")
       Virtual   (A') (A') (A") (A') (A') (A") (A') (A') (A") (A')
                 (A') (A") (A") (A') (A') (A') (A") (A') (A") (A')
                 (A') (A") (A') (A') (A') (A') (A") (A') (A") (A')
                 (A') (A") (A') (A") (A') (A') (A') (A") (A') (A")
                 (A') (A") (A') (A") (A") (A') (A') (A') (A") (A')
                 (A") (A') (A") (A') (A") (A') (A') (A") (A') (A')
                 (A") (A') (A") (A') (A') (A') (A") (A') (A") (A")
                 (A') (A') (A') (A") (A') (A') (A') (A") (A") (A')
                 (A') (A') (A") (A') (A") (A') (A') (A") (A") (A')
                 (A') (A") (A') (A") (A") (A") (A') (A') (A') (A")
                 (A') (A') (A") (A') (A') (A") (A') (A") (A') (A')
                 (A") (A") (A') (A') (A') (A") (A') (A") (A") (A')
                 (A') (A") (A') (A') (A') (A") (A') (A') (A') (A")
                 (A") (A') (A") (A') (A') (A") (A') (A") (A') (A')
                 (A") (A') (A') (A") (A') (A') (A") (A') (A") (A")
                 (A') (A") (A") (A') (A') (A") (A') (A') (A") (A")
                 (A') (A') (A") (A') (A') (A') (A") (A") (A') (A')
                 (A") (A') (A') (A") (A') (A") (A") (A') (A') (A")
                 (A") (A') (A') (A') (A") (A') (A") (A') (A") (A')
                 (A') (A') (A") (A") (A') (A") (A') (A') (A") (A")
                 (A') (A") (A') (A') (A") (A') (A') (A") (A') (A')
                 (A") (A") (A') (A') (A") (A') (A') (A") (A') (A")
                 (A') (A") (A') (A") (A') (A") (A') (A") (A') (A')
                 (A') (A') (A") (A") (A') (A") (A') (A') (A") (A')
                 (A") (A") (A') (A') (A") (A') (A") (A') (A") (A')
                 (A') (A') (A") (A') (A') (A') (A') (A") (A") (A")
                 (A") (A') (A") (A') (A') (A") (A') (A") (A') (A')
                 (A') (A") (A') (A") (A') (A') (A") (A") (A') (A')
                 (A") (A') (A") (A') (A") (A') (A') (A") (A") (A')
                 (A") (A') (A') (A") (A") (A') (A') (A") (A') (A")
                 (A') (A') (A') (A") (A') (A") (A") (A') (A") (A')
                 (A") (A") (A') (A') (A") (A') (A") (A') (A") (A')
                 (A") (A') (A') (A") (A') (A') (A') (A') (A") (A')
                 (A') (A') (A') (A") (A') (A')
 Beta  Orbitals:
       Occupied  (A") (A') (A') (A') (A') (A') (A') (A") (A') (A')
                 (A') (A") (A') (A') (A") (A') (A") (A") (A') (A')
       Virtual   (A") (A') (A') (A") (A') (A') (A") (A') (A') (A")
                 (A') (A') (A") (A") (A') (A') (A') (A") (A') (A")
                 (A') (A') (A") (A') (A') (A") (A') (A') (A') (A")
                 (A') (A") (A') (A') (A") (A') (A') (A') (A") (A')
                 (A") (A') (A") (A') (A") (A") (A') (A') (A') (A")
                 (A') (A") (A') (A") (A') (A") (A') (A') (A") (A')
                 (A') (A") (A') (A") (A') (A') (A') (A") (A') (A")
                 (A") (A') (A') (A') (A") (A') (A') (A') (A") (A")
                 (A') (A') (A') (A") (A') (A') (A") (A') (A") (A")
                 (A') (A') (A") (A') (A") (A") (A") (A') (A') (A')
                 (A") (A') (A') (A") (A') (A') (A") (A') (A") (A')
                 (A') (A") (A") (A') (A') (A') (A") (A") (A') (A")
[...]
                 (A") (A') (A') (A') (A") (A") (A') (A') (A") (A')
                 (A") (A') (A') (A') (A") (A') (A") (A") (A') (A")
                 (A') (A") (A") (A') (A') (A") (A') (A") (A') (A")
                 (A') (A") (A') (A') (A") (A') (A') (A') (A') (A")
                 (A') (A') (A') (A') (A") (A') (A')
 The electronic state is 2-A".
 Alpha  occ. eigenvalues --  -25.29849 -25.29848 -25.29340 -14.83638 -10.84315
 Alpha  occ. eigenvalues --   -1.48566  -1.39452  -1.39275  -1.06524  -0.81204
 Alpha  occ. eigenvalues --   -0.72061  -0.71907  -0.68354  -0.59723  -0.59605
 Alpha  occ. eigenvalues --   -0.56188  -0.55662  -0.53643  -0.53459  -0.45280
 Alpha  occ. eigenvalues --   -0.43886
 Alpha virt. eigenvalues --    0.00471   0.03616   0.04210   0.04650   0.07293
 Alpha virt. eigenvalues --    0.07940   0.08339   0.08630   0.08822   0.12388
 Alpha virt. eigenvalues --    0.14162   0.14304   0.17062   0.18060   0.19377
 Alpha virt. eigenvalues --    0.20460   0.20902   0.21604   0.22179   0.23456
 Alpha virt. eigenvalues --    0.25908   0.27182   0.27848   0.28424   0.28913
 Alpha virt. eigenvalues --    0.29396   0.29412   0.30040   0.31350   0.33871
 Alpha virt. eigenvalues --    0.35516   0.35664   0.39950   0.43159   0.43618
 Alpha virt. eigenvalues --    0.44085   0.48538   0.51551   0.52430   0.52793
 Alpha virt. eigenvalues --    0.52958   0.53842   0.55149   0.56638   0.57307
 Alpha virt. eigenvalues --    0.58538   0.58884   0.62524   0.63162   0.63207
 Alpha virt. eigenvalues --    0.66108   0.67110   0.68507   0.68815   0.70813
 Alpha virt. eigenvalues --    0.71010   0.72148   0.73665   0.74085   0.76487
 Alpha virt. eigenvalues --    0.81495   0.82488   0.82521   0.88224   0.89220
 Alpha virt. eigenvalues --    0.90383   0.97460   0.97592   0.97908   1.03319
 Alpha virt. eigenvalues --    1.06200   1.06965   1.13441   1.15062   1.16704
 Alpha virt. eigenvalues --    1.19928   1.21822   1.25045   1.25747   1.29145
 Alpha virt. eigenvalues --    1.30351   1.32982   1.49604   1.52288   1.63737
 Alpha virt. eigenvalues --    1.63796   1.64893   1.66237   1.70687   1.71338
 Alpha virt. eigenvalues --    1.79063   1.79309   1.80521   1.83071   1.87974
 Alpha virt. eigenvalues --    1.91308   1.91510   1.93858   1.97710   1.98344
 Alpha virt. eigenvalues --    1.98594   2.01075   2.02864   2.04863   2.07691
 Alpha virt. eigenvalues --    2.08551   2.10980   2.13494   2.14344   2.16874
 Alpha virt. eigenvalues --    2.17763   2.21670   2.22427   2.28285   2.32108
 Alpha virt. eigenvalues --    2.32273   2.42755   2.43505   2.49911   2.51043
 Alpha virt. eigenvalues --    2.57714   2.61918   2.65141   2.70029   2.77531
 Alpha virt. eigenvalues --    2.79802   2.80552   2.88354   2.92233   2.93325
 Alpha virt. eigenvalues --    2.96258   2.97564   3.06424   3.09192   3.16247
 Alpha virt. eigenvalues --    3.18092   3.21844   3.27031   3.32588   3.42156
 Alpha virt. eigenvalues --    3.53935   3.54581   3.60107   3.67882   3.79772
 Alpha virt. eigenvalues --    3.91719   3.94925   3.96446   4.12641   4.15163
 Alpha virt. eigenvalues --    4.16720   4.17642   4.18696   4.19763   4.22350
 Alpha virt. eigenvalues --    4.25561   4.28861   4.31123   4.40425   4.42695
 Alpha virt. eigenvalues --    4.44969   4.52377   4.61110   4.66530   4.71977
 Alpha virt. eigenvalues --    4.80557   4.82676   4.84947   4.89019   5.03546
 Alpha virt. eigenvalues --    5.07113   5.07125   5.11099   5.33089   5.34739
 Alpha virt. eigenvalues --    5.35387   5.36785   5.38281   5.41902   5.48439
 Alpha virt. eigenvalues --    5.53036   5.55319   5.57790   5.65128   5.65152
 Alpha virt. eigenvalues --    5.67086   5.68149   5.77301   5.78925   5.84123
 Alpha virt. eigenvalues --    5.92941   5.99746   5.99878   6.03630   6.04309
 Alpha virt. eigenvalues --    6.09707   6.11695   6.14176   6.14342   6.19844
 Alpha virt. eigenvalues --    6.21561   6.25542   6.31134   6.33661   6.50545
 Alpha virt. eigenvalues --    6.54285   6.58022   6.58098   6.58812   6.66657
 Alpha virt. eigenvalues --    6.71200   6.76797   6.78187   6.81927   6.90595
 Alpha virt. eigenvalues --    6.99721   7.04683   7.07139   7.14267   7.17831
 Alpha virt. eigenvalues --    7.20983   7.27754   7.28698   7.30658   7.31997
 Alpha virt. eigenvalues --    7.38844   7.42431   7.54381   7.61596   7.69566
 Alpha virt. eigenvalues --    7.72470   7.86817   7.88186   7.95217   8.07140
 Alpha virt. eigenvalues --    8.14652   8.27641   8.35784   8.43219   8.45765
 Alpha virt. eigenvalues --    8.53262   8.69359   8.69507   8.81674   8.91632
 Alpha virt. eigenvalues --    9.04525   9.16680   9.19662   9.24206   9.24874
 Alpha virt. eigenvalues --    9.28322   9.54577   9.80122   9.82758  10.29233
 Alpha virt. eigenvalues --   10.72108  11.08174  11.17130  11.26316  11.28686
 Alpha virt. eigenvalues --   11.29065  11.29120  11.29220  11.29413  11.29904
 Alpha virt. eigenvalues --   11.30223  11.31029  11.33614  11.34367  11.36856
 Alpha virt. eigenvalues --   11.38825  11.43021  11.51918  11.52896  11.54176
 Alpha virt. eigenvalues --   11.66527  11.66667  11.90684  11.92252  11.97111
 Alpha virt. eigenvalues --   12.02345  12.04157  12.11232  12.14737  12.20372
 Alpha virt. eigenvalues --   12.38620  14.31809  14.39756  14.41570  14.43194
 Alpha virt. eigenvalues --   14.44554  14.45171  14.50490  14.61608  14.67741
 Alpha virt. eigenvalues --   14.70899  14.82805  14.83327  14.88038  15.09926
 Alpha virt. eigenvalues --   15.10686  15.25126  15.36747  15.39858  15.41182
 Alpha virt. eigenvalues --   15.41765  15.44833  15.48299  15.86971  15.88189
 Alpha virt. eigenvalues --   15.91777  15.97354  15.99422  16.01643  16.11991
 Alpha virt. eigenvalues --   16.14389  16.17875  16.19619  16.41783  16.41972
 Alpha virt. eigenvalues --   16.59225  16.61561  16.64287  16.67468  16.72339
 Alpha virt. eigenvalues --   16.74313  28.37315  37.59724  54.74315  54.77458
 Alpha virt. eigenvalues --   55.14489 145.73512 195.16485 283.74101 283.78007
 Alpha virt. eigenvalues --  284.23926
  Beta  occ. eigenvalues --  -25.29735 -25.29734 -25.29333 -14.82504 -10.84384
  Beta  occ. eigenvalues --   -1.48341  -1.39152  -1.39106  -1.01470  -0.80459
  Beta  occ. eigenvalues --   -0.71762  -0.71037  -0.67237  -0.59111  -0.59053
  Beta  occ. eigenvalues --   -0.55716  -0.55240  -0.53281  -0.52759  -0.42249
  Beta virt. eigenvalues --   -0.11524   0.00396   0.03663   0.04485   0.04600
  Beta virt. eigenvalues --    0.07289   0.07916   0.08298   0.08631   0.08773
  Beta virt. eigenvalues --    0.12364   0.14002   0.14284   0.16707   0.17783
  Beta virt. eigenvalues --    0.19306   0.20498   0.21357   0.21613   0.22512
  Beta virt. eigenvalues --    0.22650   0.25541   0.27200   0.27781   0.28820
  Beta virt. eigenvalues --    0.29133   0.29454   0.29646   0.30148   0.30750
  Beta virt. eigenvalues --    0.33549   0.34935   0.35247   0.39643   0.41714
  Beta virt. eigenvalues --    0.43277   0.44327   0.48163   0.51261   0.51459
  Beta virt. eigenvalues --    0.52535   0.53322   0.53745   0.55031   0.56082
  Beta virt. eigenvalues --    0.57575   0.58574   0.58937   0.62397   0.62840
  Beta virt. eigenvalues --    0.63055   0.65064   0.66471   0.68297   0.68609
  Beta virt. eigenvalues --    0.70587   0.70748   0.71999   0.73598   0.74015
  Beta virt. eigenvalues --    0.76206   0.81036   0.81668   0.81770   0.87805
  Beta virt. eigenvalues --    0.88934   0.90373   0.97265   0.98041   0.98177
  Beta virt. eigenvalues --    1.02708   1.06557   1.06696   1.13368   1.15175
  Beta virt. eigenvalues --    1.16952   1.19923   1.21963   1.25754   1.25875
  Beta virt. eigenvalues --    1.27716   1.30104   1.32837   1.50397   1.52634
  Beta virt. eigenvalues --    1.62982   1.63717   1.64187   1.66255   1.70639
  Beta virt. eigenvalues --    1.71225   1.78654   1.79247   1.80422   1.82982
  Beta virt. eigenvalues --    1.87994   1.91504   1.91642   1.93750   1.97605
  Beta virt. eigenvalues --    1.98312   1.98654   2.01235   2.02682   2.04843
  Beta virt. eigenvalues --    2.07752   2.08506   2.11291   2.13576   2.14167
  Beta virt. eigenvalues --    2.17153   2.18000   2.22188   2.22568   2.28386
  Beta virt. eigenvalues --    2.32273   2.32439   2.43466   2.43662   2.49873
  Beta virt. eigenvalues --    2.51290   2.58487   2.61361   2.65402   2.71178
  Beta virt. eigenvalues --    2.78532   2.79550   2.80584   2.88658   2.92288
  Beta virt. eigenvalues --    2.93731   2.96422   2.97513   3.06537   3.09544
  Beta virt. eigenvalues --    3.18906   3.19607   3.23249   3.28171   3.33217
  Beta virt. eigenvalues --    3.42389   3.53257   3.54096   3.60531   3.69757
  Beta virt. eigenvalues --    3.81807   3.91807   3.95347   3.96094   4.12620
  Beta virt. eigenvalues --    4.15166   4.16776   4.17804   4.18694   4.19756
  Beta virt. eigenvalues --    4.23427   4.26064   4.28967   4.31122   4.41674
  Beta virt. eigenvalues --    4.44319   4.45115   4.52338   4.62164   4.66707
  Beta virt. eigenvalues --    4.72506   4.80943   4.83101   4.85522   4.89899
  Beta virt. eigenvalues --    5.03888   5.07256   5.07320   5.11572   5.33240
  Beta virt. eigenvalues --    5.34838   5.35528   5.36931   5.38514   5.43583
  Beta virt. eigenvalues --    5.49037   5.53609   5.55748   5.58206   5.65238
  Beta virt. eigenvalues --    5.65664   5.68280   5.70982   5.78292   5.79464
  Beta virt. eigenvalues --    5.84379   5.94880   5.99930   6.00728   6.04716
  Beta virt. eigenvalues --    6.04890   6.10096   6.11897   6.14613   6.14765
  Beta virt. eigenvalues --    6.21559   6.21877   6.29005   6.33124   6.35024
  Beta virt. eigenvalues --    6.50747   6.54570   6.58176   6.59030   6.59854
  Beta virt. eigenvalues --    6.67150   6.74545   6.79430   6.81888   6.83683
  Beta virt. eigenvalues --    6.91436   7.00804   7.07057   7.09178   7.14795
  Beta virt. eigenvalues --    7.18241   7.22351   7.29741   7.30399   7.31252
  Beta virt. eigenvalues --    7.33632   7.39920   7.43201   7.58130   7.64274
  Beta virt. eigenvalues --    7.73911   7.75397   7.88480   7.93468   7.98426
  Beta virt. eigenvalues --    8.09392   8.18479   8.29685   8.37695   8.49451
  Beta virt. eigenvalues --    8.52395   8.61521   8.79096   8.79983   8.90808
  Beta virt. eigenvalues --    9.02685   9.05667   9.21943   9.23329   9.29122
  Beta virt. eigenvalues --    9.34873   9.37259   9.59069   9.87472   9.95543
  Beta virt. eigenvalues --   10.35820  10.85699  11.15380  11.26276  11.28468
  Beta virt. eigenvalues --   11.29033  11.29141  11.29151  11.29401  11.30029
  Beta virt. eigenvalues --   11.30075  11.31114  11.31641  11.33861  11.34352
  Beta virt. eigenvalues --   11.37393  11.41796  11.43017  11.52083  11.52863
  Beta virt. eigenvalues --   11.54504  11.66519  11.66768  11.90802  11.92264
  Beta virt. eigenvalues --   11.97456  12.02362  12.04186  12.11111  12.14749
  Beta virt. eigenvalues --   12.20333  12.38994  14.39787  14.41121  14.41609
  Beta virt. eigenvalues --   14.44632  14.45229  14.46301  14.54151  14.61749
  Beta virt. eigenvalues --   14.67984  14.72012  14.83100  14.83456  14.88188
  Beta virt. eigenvalues --   15.10269  15.10844  15.25318  15.36955  15.39993
  Beta virt. eigenvalues --   15.41436  15.42000  15.44908  15.48339  15.87227
  Beta virt. eigenvalues --   15.88322  15.91990  15.97494  15.99733  16.01803
  Beta virt. eigenvalues --   16.12213  16.14488  16.18040  16.19954  16.42035
  Beta virt. eigenvalues --   16.42160  16.59450  16.61689  16.64424  16.67764
  Beta virt. eigenvalues --   16.72374  16.74542  28.36618  37.74146  54.74082
  Beta virt. eigenvalues --   54.77360  55.14337 145.73378 195.17755 283.73893
  Beta virt. eigenvalues --  283.77926 284.23789
          Condensed to atoms (all electrons):
               1          2          3          4          5          6
     1  C    4.171936   0.247211   0.034687   0.261127   0.225583   0.225583
     2  N    0.247211   7.258111   0.110387  -0.066171  -0.048509  -0.048509
     3  H    0.034687   0.110387   0.483712   0.006118  -0.008296  -0.008296
     4  F    0.261127  -0.066171   0.006118   9.168247  -0.062730  -0.062730
     5  F    0.225583  -0.048509  -0.008296  -0.062730   9.217804  -0.064260
     6  F    0.225583  -0.048509  -0.008296  -0.062730  -0.064260   9.217804
          Atomic-Atomic Spin Densities.
               1          2          3          4          5          6
     1  C   -0.101932   0.075610  -0.008022   0.005733   0.003277   0.003277
     2  N    0.075610   0.908793   0.075975   0.001097  -0.023210  -0.023210
     3  H   -0.008022   0.075975  -0.129845  -0.001675   0.003795   0.003795
     4  F    0.005733   0.001097  -0.001675   0.003054  -0.000576  -0.000576
     5  F    0.003277  -0.023210   0.003795  -0.000576   0.044967  -0.000291
     6  F    0.003277  -0.023210   0.003795  -0.000576  -0.000291   0.044967
 Mulliken charges and spin densities:
               1          2
     1  C    0.833873  -0.022058
     2  N   -0.452520   1.015055
     3  H    0.381689  -0.055977
     4  F   -0.243860   0.007057
     5  F   -0.259591   0.027961
     6  F   -0.259591   0.027961
 Sum of Mulliken charges =  -0.00000   1.00000
 Mulliken charges and spin densities with hydrogens summed into heavy atoms:
               1          2
     1  C    0.833873  -0.022058
     2  N   -0.070831   0.959078
     4  F   -0.243860   0.007057
     5  F   -0.259591   0.027961
     6  F   -0.259591   0.027961
 Electronic spatial extent (au):  <R**2>=            298.0571
 Charge=             -0.0000 electrons
 Dipole moment (field-independent basis, Debye):
    X=              1.6905    Y=             -0.5235    Z=             -0.0000  Tot=              1.7697
 Quadrupole moment (field-independent basis, Debye-Ang):
   XX=            -23.3288   YY=            -29.4414   ZZ=            -27.4871
   XY=             -0.6766   XZ=             -0.0000   YZ=              0.0000
 Traceless Quadrupole moment (field-independent basis, Debye-Ang):
   XX=              3.4237   YY=             -2.6890   ZZ=             -0.7347
   XY=             -0.6766   XZ=             -0.0000   YZ=              0.0000
 Octapole moment (field-independent basis, Debye-Ang**2):
  XXX=              2.7697  YYY=             -9.2158  ZZZ=              0.0000  XYY=             -4.8616
  XXY=             -3.6524  XXZ=              0.0000  XZZ=             -2.2501  YZZ=             -0.4435
  YYZ=              0.0000  XYZ=              0.0000
 Hexadecapole moment (field-independent basis, Debye-Ang**3):
 XXXX=            -93.6617 YYYY=           -105.6179 ZZZZ=            -90.6179 XXXY=             -6.6945
 XXXZ=              0.0000 YYYX=            -11.1258 YYYZ=             -0.0000 ZZZX=              0.0000
 ZZZY=              0.0000 XXYY=            -38.8738 XXZZ=            -33.9508 YYZZ=            -31.7565
 XXYZ=             -0.0000 YYXZ=              0.0000 ZZXY=             -2.1042
 N-N= 1.930115616709D+02 E-N=-1.318674901516D+03  KE= 3.917723737454D+02
                          Isotropic Fermi Contact Couplings
        Atom                 a.u.       MegaHertz       Gauss      10(-4) cm-1
     1  C(13)             -0.04433     -49.83248     -17.78147     -16.62233
     2  N(14)              0.18829      60.83599      21.70779      20.29270
     3  H(1)              -0.01653     -73.88599     -26.36436     -24.64571
     4  F(19)             -0.00269     -11.32420      -4.04076      -3.77735
     5  F(19)              0.01689      71.07443      25.36112      23.70788
     6  F(19)              0.01689      71.07443      25.36112      23.70788
 PrsmSu:  requested number of processors reduced to:  21 ShMem   1 Linda.
 --------------------------------------------------------
       Center         ----  Spin Dipole Couplings  ----
                      3XX-RR        3YY-RR        3ZZ-RR
 --------------------------------------------------------
     1   Atom        0.010676     -0.002658     -0.008017
     2   Atom       -1.101302     -1.126529      2.227831
     3   Atom        0.047594     -0.028304     -0.019290
     4   Atom       -0.018095     -0.022542      0.040637
     5   Atom       -0.033888      0.146356     -0.112469
     6   Atom       -0.033888      0.146356     -0.112469
 --------------------------------------------------------
                        XY            XZ            YZ
 --------------------------------------------------------
     1   Atom        0.027836     -0.000000      0.000000
     2   Atom       -0.003837      0.000000      0.000000
     3   Atom       -0.101921     -0.000000     -0.000000
     4   Atom       -0.010572      0.000000      0.000000
     5   Atom        0.172504     -0.044241     -0.070813
     6   Atom        0.172504      0.044241      0.070813
 --------------------------------------------------------


 ---------------------------------------------------------------------------------
              Anisotropic Spin Dipole Couplings in Principal Axis System
 ---------------------------------------------------------------------------------

       Atom             a.u.   MegaHertz   Gauss  10(-4) cm-1        Axes

              Baa    -0.0246    -3.303    -1.179    -1.102 -0.6193  0.7852 -0.0000
     1 C(13)  Bbb    -0.0080    -1.076    -0.384    -0.359 -0.0000  0.0000  1.0000
              Bcc     0.0326     4.379     1.562     1.461  0.7852  0.6193  0.0000
 
              Baa    -1.1271   -43.470   -15.511   -14.500  0.1471  0.9891 -0.0000
     2 N(14)  Bbb    -1.1007   -42.453   -15.148   -14.161  0.9891 -0.1471  0.0000
              Bcc     2.2278    85.922    30.659    28.661  0.0000  0.0000  1.0000
 
              Baa    -0.0991   -52.882   -18.869   -17.639  0.5706  0.8213 -0.0000
     3 H(1)   Bbb    -0.0193   -10.292    -3.673    -3.433  0.0000  0.0000  1.0000
              Bcc     0.1184    63.174    22.542    21.072  0.8213 -0.5706 -0.0000
 
              Baa    -0.0311   -15.630    -5.577    -5.214  0.6301  0.7765 -0.0000
     4 F(19)  Bbb    -0.0095    -4.779    -1.705    -1.594  0.7765 -0.6301 -0.0000
              Bcc     0.0406    20.409     7.282     6.808  0.0000  0.0000  1.0000
 
              Baa    -0.1386   -69.585   -24.830   -23.211  0.8620 -0.4874  0.1388
     5 F(19)  Bbb    -0.1306   -65.578   -23.400   -21.874 -0.0118  0.2546  0.9670
              Bcc     0.2691   135.163    48.230    45.086  0.5067  0.8352 -0.2137
 
              Baa    -0.1386   -69.585   -24.830   -23.211  0.8620 -0.4874 -0.1388
     6 F(19)  Bbb    -0.1306   -65.578   -23.400   -21.874  0.0118 -0.2546  0.9670
              Bcc     0.2691   135.163    48.230    45.086  0.5067  0.8352  0.2137
 

 ---------------------------------------------------------------------------------

 PrsmSu:  requested number of processors reduced to:  21 ShMem   1 Linda.
 No NMR shielding tensors so no spin-rotation constants.
 Leave Link  601 at Sat Apr 17 21:17:04 2021, MaxMem=   104857600 cpu:             408.5 elap:               9.0
 (Enter /s/ls4/users/knvvv/bin/g16sse/l9999.exe)

 Test job not archived.
 1\1\GINC-N151\Stability\UM062X\Gen\C1H1F3N1(2)\KNVVV\17-Apr-2021\0\\#P
  M062X/GEN Integral=UltraFineGrid SCF=NoSymm Stable=(RExt, Opt) IOp(1/
 33=1)\\Database calculations.\\0,2\C,0,0.010045,0.04264,0.\N,0,1.13641
 9,0.906554,0.\H,0,1.961941,0.298384,0.\F,0,-1.128662,0.736,0.\F,0,0.01
 0045,-0.751339,1.093146\F,0,0.010045,-0.751339,-1.093146\\Version=ES64
 L-G16RevA.03\State=2-A"\HF=-392.9898608\S2=0.753778\S2-1=0.\S2A=0.7500
 11\RMSD=5.672e-09\Dipole=0.6651071,-0.2059538,0.\Quadrupole=2.5454116,
 -1.9991734,-0.5462382,-0.5030278,0.,0.\PG=CS [SG(C1H1F1N1),X(F2)]\\@


 STEINBACH'S GUIDELINES FOR SYSTEMS PROGRAMMING:
 NEVER TEST FOR AN ERROR CONDITION YOU DON'T KNOW HOW
 TO HANDLE.
 Job cpu time:       0 days  6 hours 56 minutes 29.2 seconds.
 Elapsed time:       0 days  0 hours 12 minutes  8.9 seconds.
 File lengths (MBytes):  RWF=    330 Int=      0 D2E=      0 Chk=     17 Scr=      1
 Normal termination of Gaussian 16 at Sat Apr 17 21:17:05 2021.
