 Entering Gaussian System, Link 0=/s/ls4/users/knvvv/bin/g16sse/g16
 Input=data/database/M062X--def2-QZVPPD--11_BCl3_NBPRC.gjf
 Output=data/database/M062X--def2-QZVPPD--11_BCl3_NBPRC.log
 Initial command:
 /s/ls4/users/knvvv/bin/g16sse/l1.exe "/s/ls4/users/knvvv/bin/scratch/Gau-9520.inp" -scrdir="/s/ls4/users/knvvv/bin/scratch/"
 Entering Link 1 = /s/ls4/users/knvvv/bin/g16sse/l1.exe PID=      9521.
  
 Copyright (c) 1988,1990,1992,1993,1995,1998,2003,2009,2016,
            Gaussian, Inc.  All Rights Reserved.
  
 This is part of the Gaussian(R) 16 program.  It is based on
 the Gaussian(R) 09 system (copyright 2009, Gaussian, Inc.),
 the Gaussian(R) 03 system (copyright 2003, Gaussian, Inc.),
 the Gaussian(R) 98 system (copyright 1998, Gaussian, Inc.),
 the Gaussian(R) 94 system (copyright 1995, Gaussian, Inc.),
 the Gaussian 92(TM) system (copyright 1992, Gaussian, Inc.),
 the Gaussian 90(TM) system (copyright 1990, Gaussian, Inc.),
 the Gaussian 88(TM) system (copyright 1988, Gaussian, Inc.),
 the Gaussian 86(TM) system (copyright 1986, Carnegie Mellon
 University), and the Gaussian 82(TM) system (copyright 1983,
 Carnegie Mellon University). Gaussian is a federally registered
 trademark of Gaussian, Inc.
  
 This software contains proprietary and confidential information,
 including trade secrets, belonging to Gaussian, Inc.
  
 This software is provided under written license and may be
 used, copied, transmitted, or stored only in accord with that
 written license.
  
 The following legend is applicable only to US Government
 contracts under FAR:
  
                    RESTRICTED RIGHTS LEGEND
  
 Use, reproduction and disclosure by the US Government is
 subject to restrictions as set forth in subparagraphs (a)
 and (c) of the Commercial Computer Software - Restricted
 Rights clause in FAR 52.227-19.
  
 Gaussian, Inc.
 340 Quinnipiac St., Bldg. 40, Wallingford CT 06492
  
  
 ---------------------------------------------------------------
 Warning -- This program may not be used in any manner that
 competes with the business of Gaussian, Inc. or will provide
 assistance to any competitor of Gaussian, Inc.  The licensee
 of this program is prohibited from giving any competitor of
 Gaussian, Inc. access to this program.  By using this program,
 the user acknowledges that Gaussian, Inc. is engaged in the
 business of creating and licensing software in the field of
 computational chemistry and represents and warrants to the
 licensee that it is not a competitor of Gaussian, Inc. and that
 it will not use this program in any manner prohibited above.
 ---------------------------------------------------------------
  

 Cite this work as:
 Gaussian 16, Revision A.03,
 M. J. Frisch, G. W. Trucks, H. B. Schlegel, G. E. Scuseria, 
 M. A. Robb, J. R. Cheeseman, G. Scalmani, V. Barone, 
 G. A. Petersson, H. Nakatsuji, X. Li, M. Caricato, A. V. Marenich, 
 J. Bloino, B. G. Janesko, R. Gomperts, B. Mennucci, H. P. Hratchian, 
 J. V. Ortiz, A. F. Izmaylov, J. L. Sonnenberg, D. Williams-Young, 
 F. Ding, F. Lipparini, F. Egidi, J. Goings, B. Peng, A. Petrone, 
 T. Henderson, D. Ranasinghe, V. G. Zakrzewski, J. Gao, N. Rega, 
 G. Zheng, W. Liang, M. Hada, M. Ehara, K. Toyota, R. Fukuda, 
 J. Hasegawa, M. Ishida, T. Nakajima, Y. Honda, O. Kitao, H. Nakai, 
 T. Vreven, K. Throssell, J. A. Montgomery, Jr., J. E. Peralta, 
 F. Ogliaro, M. J. Bearpark, J. J. Heyd, E. N. Brothers, K. N. Kudin, 
 V. N. Staroverov, T. A. Keith, R. Kobayashi, J. Normand, 
 K. Raghavachari, A. P. Rendell, J. C. Burant, S. S. Iyengar, 
 J. Tomasi, M. Cossi, J. M. Millam, M. Klene, C. Adamo, R. Cammi, 
 J. W. Ochterski, R. L. Martin, K. Morokuma, O. Farkas, 
 J. B. Foresman, and D. J. Fox, Gaussian, Inc., Wallingford CT, 2016.
 
 ******************************************
 Gaussian 16:  ES64L-G16RevA.03 25-Dec-2016
                17-Apr-2021 
 ******************************************
 %RWF=temp12_69687,70GB
 %nprocshared=48
 Will use up to   48 processors via shared memory.
 Default route: MaxDisk=80GB
 ----------------------------------------------------------------------
 #P M062X/GEN Integral=UltraFineGrid SCF=NoSymm Stable=(RExt, Opt) IOp(
 1/33=1)
 ----------------------------------------------------------------------
 1/33=1,38=1,172=1/1;
 2/12=2,17=6,18=5,40=1/2;
 3/5=7,11=2,25=1,30=1,74=-55,75=-5/1,2,3;
 4/9=2/1;
 5/5=2,38=5/2;
 6/7=2,8=2,9=2,10=2,28=1/1;
 8/6=1,10=90,11=11/1;
 9/8=-3,42=1,46=1/14;
 5/5=2,8=3,17=40,38=5/8(-2);
 6/7=2,8=2,9=2,10=2,28=1/1;
 99/5=1,9=1/99;
 Leave Link    1 at Sat Apr 17 05:50:19 2021, MaxMem=           0 cpu:              12.0 elap:               0.3
 (Enter /s/ls4/users/knvvv/bin/g16sse/l101.exe)
 ONIOM data not found on unit 2.
 ----------------------
 Database calculations.
 ----------------------
 TstMul:  ICh=     0
 TstMul:  Mul=     1
 TstMul:  ICh=     0
 TstMul:  Mul=     1
 Symbolic Z-matrix:
 Charge =  0 Multiplicity = 1
 B                     0.        0.        0. 
 Cl                   -0.87465   1.51495   0. 
 Cl                   -0.87465  -1.51495   0. 
 Cl                    1.74931   0.        0. 
 
 RdStrC is calling ZToCFu for IStruc=1 NZ=     4.
 PrtBox:  NBox=     1 Levels=  1 BoxLen=    8.00 SMaxX=        5.73
          Shift=            1.652858            2.862833            0.000000
 Box      1 Number                   0 centers from      1 to      4:
 After GenITR:
 ITRead=  0  0  0  0
 MicOpt= -1 -1 -1 -1
 ITRead=  0  0  0  0
 MicOpt= -1 -1 -1 -1
 NAtoms=      4 NQM=        4 NQMF=       0 NMMI=      0 NMMIF=      0
                NMic=       0 NMicF=      0.
                    Isotopes and Nuclear Properties:
 (Nuclear quadrupole moments (NQMom) in fm**2, nuclear magnetic moments (NMagM)
  in nuclear magnetons)

  Atom         1           2           3           4
 IAtWgt=          11          35          35          35
 AtmWgt=  11.0093053  34.9688527  34.9688527  34.9688527
 NucSpn=           3           3           3           3
 AtZEff=  -0.0000000  -0.0000000  -0.0000000  -0.0000000
 NQMom=    4.0590000  -8.1650000  -8.1650000  -8.1650000
 NMagM=    2.6886370   0.8218740   0.8218740   0.8218740
 AtZNuc=   5.0000000  17.0000000  17.0000000  17.0000000
 No MM parameters found.
 Leave Link  101 at Sat Apr 17 05:50:19 2021, MaxMem=   104857600 cpu:               6.7 elap:               0.2
 (Enter /s/ls4/users/knvvv/bin/g16sse/l202.exe)
                          Input orientation:                          
 ---------------------------------------------------------------------
 Center     Atomic      Atomic             Coordinates (Angstroms)
 Number     Number       Type             X           Y           Z
 ---------------------------------------------------------------------
      1          5           0        0.000000    0.000000    0.000000
      2         17           0       -0.874655    1.514946    0.000000
      3         17           0       -0.874655   -1.514946    0.000000
      4         17           0        1.749309    0.000000    0.000000
 ---------------------------------------------------------------------
                    Distance matrix (angstroms):
                    1          2          3          4
     1  B    0.000000
     2  Cl   1.749309   0.000000
     3  Cl   1.749309   3.029892   0.000000
     4  Cl   1.749309   3.029892   3.029892   0.000000
 Stoichiometry    BCl3
 Framework group  D3H[O(B),3C2(Cl)]
 Deg. of freedom     1
 Full point group                 D3H     NOp  12
 Largest Abelian subgroup         C2V     NOp   4
 Largest concise Abelian subgroup C2      NOp   2
                         Standard orientation:                         
 ---------------------------------------------------------------------
 Center     Atomic      Atomic             Coordinates (Angstroms)
 Number     Number       Type             X           Y           Z
 ---------------------------------------------------------------------
      1          5           0        0.000000    0.000000    0.000000
      2         17           0        0.000000    1.749309    0.000000
      3         17           0        1.514946   -0.874655    0.000000
      4         17           0       -1.514946   -0.874655   -0.000000
 ---------------------------------------------------------------------
 Rotational constants (GHZ):           3.1485560           3.1485560           1.5742780
 Leave Link  202 at Sat Apr 17 05:50:20 2021, MaxMem=   104857600 cpu:              13.1 elap:               0.3
 (Enter /s/ls4/users/knvvv/bin/g16sse/l301.exe)
 General basis read from cards:  (5D, 7F)
 Centers:       1
 S 8 1.00
     Exponent=  4.6447667056D+04 Coefficients=  3.8388681014D-05
     Exponent=  6.9576889042D+03 Coefficients=  2.9836770197D-04
     Exponent=  1.5834428403D+03 Coefficients=  1.5645478806D-03
     Exponent=  4.4846601009D+02 Coefficients=  6.5476770742D-03
     Exponent=  1.4628639262D+02 Coefficients=  2.3139008388D-02
     Exponent=  5.2784386084D+01 Coefficients=  6.9615799357D-02
     Exponent=  2.0519396170D+01 Coefficients=  1.7119636876D-01
     Exponent=  8.4185659258D+00 Coefficients=  3.1913191837D-01
 S 2 1.00
     Exponent=  3.6510018312D+01 Coefficients=  7.8990617244D-02
     Exponent=  1.0541854005D+01 Coefficients=  7.8926384265D-01
 S 1 1.00
     Exponent=  3.6004091387D+00 Coefficients=  1.0000000000D+00
 S 1 1.00
     Exponent=  1.5617023749D+00 Coefficients=  1.0000000000D+00
 S 1 1.00
     Exponent=  4.4997370775D-01 Coefficients=  1.0000000000D+00
 S 1 1.00
     Exponent=  1.8075230237D-01 Coefficients=  1.0000000000D+00
 S 1 1.00
     Exponent=  7.1596696319D-02 Coefficients=  1.0000000000D+00
 S 1 1.00
     Exponent=  2.9941402533D-02 Coefficients=  1.0000000000D+00
 P 5 1.00
     Exponent=  7.2240462760D+01 Coefficients=  8.6539170411D-04
     Exponent=  1.6807707208D+01 Coefficients=  6.8762067365D-03
     Exponent=  5.2259410747D+00 Coefficients=  3.0976687148D-02
     Exponent=  1.8508350671D+00 Coefficients=  1.0432357913D-01
     Exponent=  7.2206782663D-01 Coefficients=  2.6164137577D-01
 P 1 1.00
     Exponent=  2.9491018056D-01 Coefficients=  1.0000000000D+00
 P 1 1.00
     Exponent=  1.2201141839D-01 Coefficients=  1.0000000000D+00
 P 1 1.00
     Exponent=  4.9865393625D-02 Coefficients=  1.0000000000D+00
 D 1 1.00
     Exponent=  1.1100000000D+00 Coefficients=  1.0000000000D+00
 D 1 1.00
     Exponent=  4.0200000000D-01 Coefficients=  1.0000000000D+00
 D 1 1.00
     Exponent=  1.4500000000D-01 Coefficients=  1.0000000000D+00
 D 1 1.00
     Exponent=  5.0896593879D-02 Coefficients=  1.0000000000D+00
 F 1 1.00
     Exponent=  8.8200000000D-01 Coefficients=  1.0000000000D+00
 F 1 1.00
     Exponent=  3.1100000000D-01 Coefficients=  1.0000000000D+00
 G 1 1.00
     Exponent=  6.7300000000D-01 Coefficients=  1.0000000000D+00
 ****
 Centers:       2      3      4
 S 10 1.00
     Exponent=  1.4674590095D+06 Coefficients=  1.1478257194D-05
     Exponent=  2.1975616433D+05 Coefficients=  8.9234299775D-05
     Exponent=  5.0010770301D+04 Coefficients=  4.6911086186D-04
     Exponent=  1.4164823918D+04 Coefficients=  1.9762446133D-03
     Exponent=  4.6207465525D+03 Coefficients=  7.1419937783D-03
     Exponent=  1.6678991635D+03 Coefficients=  2.2753219445D-02
     Exponent=  6.5029199265D+02 Coefficients=  6.3959782953D-02
     Exponent=  2.6938037376D+02 Coefficients=  1.5331059238D-01
     Exponent=  1.1706752106D+02 Coefficients=  2.8986952417D-01
     Exponent=  5.2811766843D+01 Coefficients=  3.6348071452D-01
 S 3 1.00
     Exponent=  4.6142769988D+02 Coefficients=  1.8019457578D-02
     Exponent=  1.4212665355D+02 Coefficients=  1.6489442314D-01
     Exponent=  5.4437838768D+01 Coefficients=  6.3891587584D-01
 S 1 1.00
     Exponent=  2.4160770219D+01 Coefficients=  1.0000000000D+00
 S 1 1.00
     Exponent=  9.7083540306D+00 Coefficients=  1.0000000000D+00
 S 1 1.00
     Exponent=  4.5640696733D+00 Coefficients=  1.0000000000D+00
 S 1 1.00
     Exponent=  2.1194744832D+00 Coefficients=  1.0000000000D+00
 S 1 1.00
     Exponent=  7.5722365394D-01 Coefficients=  1.0000000000D+00
 S 1 1.00
     Exponent=  3.3747224597D-01 Coefficients=  1.0000000000D+00
 S 1 1.00
     Exponent=  1.3860775149D-01 Coefficients=  1.0000000000D+00
 S 1 1.00
     Exponent=  5.4234565513D-02 Coefficients=  1.0000000000D+00
 P 8 1.00
     Exponent=  2.5019457890D+03 Coefficients=  2.4242618410D-04
     Exponent=  5.9288059285D+02 Coefficients=  2.1079961749D-03
     Exponent=  1.9218089186D+02 Coefficients=  1.1432693869D-02
     Exponent=  7.2875710488D+01 Coefficients=  4.4956698060D-02
     Exponent=  3.0436358370D+01 Coefficients=  1.3197476145D-01
     Exponent=  1.3490178902D+01 Coefficients=  2.7493639225D-01
     Exponent=  6.1478071413D+00 Coefficients=  3.8347236372D-01
     Exponent=  2.8450944820D+00 Coefficients=  2.8871943885D-01
 P 2 1.00
     Exponent=  1.0539397936D+02 Coefficients= -3.4311760144D-02
     Exponent=  6.7369738513D+00 Coefficients=  6.4060818902D-01
 P 1 1.00
     Exponent=  1.2421095772D+00 Coefficients=  1.0000000000D+00
 P 1 1.00
     Exponent=  5.5669714254D-01 Coefficients=  1.0000000000D+00
 P 1 1.00
     Exponent=  2.3387801464D-01 Coefficients=  1.0000000000D+00
 P 1 1.00
     Exponent=  9.3164490890D-02 Coefficients=  1.0000000000D+00
 P 1 1.00
     Exponent=  2.7256146018D-02 Coefficients=  1.0000000000D+00
 D 1 1.00
     Exponent=  5.1910000000D+00 Coefficients=  1.0000000000D+00
 D 1 1.00
     Exponent=  1.2760000000D+00 Coefficients=  1.0000000000D+00
 D 1 1.00
     Exponent=  5.8300000000D-01 Coefficients=  1.0000000000D+00
 D 1 1.00
     Exponent=  2.4300000000D-01 Coefficients=  1.0000000000D+00
 D 1 1.00
     Exponent=  8.3456538402D-02 Coefficients=  1.0000000000D+00
 F 1 1.00
     Exponent=  1.0890000000D+00 Coefficients=  1.0000000000D+00
 F 1 1.00
     Exponent=  4.2300000000D-01 Coefficients=  1.0000000000D+00
 G 1 1.00
     Exponent=  8.2700000000D-01 Coefficients=  1.0000000000D+00
 ****
 Ernie: Thresh=  0.10000D-02 Tol=  0.10000D-05 Strict=F.
 There are   145 symmetry adapted cartesian basis functions of A1  symmetry.
 There are    50 symmetry adapted cartesian basis functions of A2  symmetry.
 There are   103 symmetry adapted cartesian basis functions of B1  symmetry.
 There are    69 symmetry adapted cartesian basis functions of B2  symmetry.
 There are   113 symmetry adapted basis functions of A1  symmetry.
 There are    44 symmetry adapted basis functions of A2  symmetry.
 There are    84 symmetry adapted basis functions of B1  symmetry.
 There are    59 symmetry adapted basis functions of B2  symmetry.
   300 basis functions,   492 primitive gaussians,   367 cartesian basis functions
    28 alpha electrons       28 beta electrons
       nuclear repulsion energy       228.5625460178 Hartrees.
 IExCor= 4336 DFT=T Ex+Corr=M062X ExCW=0 ScaHFX=  0.540000
 ScaDFX=  1.000000  1.000000  1.000000  1.000000 ScalE2=  1.000000  1.000000
 IRadAn=      5 IRanWt=     -1 IRanGd=            0 ICorTp=0 IEmpDi=  4
 NAtoms=    4 NActive=    4 NUniq=    2 SFac= 4.00D+00 NAtFMM=   60 NAOKFM=F Big=F
 Integral buffers will be    131072 words long.
 Raffenetti 2 integral format.
 Two-electron integral symmetry is turned on.
 Leave Link  301 at Sat Apr 17 05:50:20 2021, MaxMem=   104857600 cpu:               8.3 elap:               0.2
 (Enter /s/ls4/users/knvvv/bin/g16sse/l302.exe)
 NPDir=0 NMtPBC=     1 NCelOv=     1 NCel=       1 NClECP=     1 NCelD=      1
         NCelK=      1 NCelE2=     1 NClLst=     1 CellRange=     0.0.
 One-electron integrals computed using PRISM.
 One-electron integral symmetry used in STVInt
 PrsmSu:  requested number of processors reduced to:   4 ShMem   1 Linda.
 PrsmSu:  requested number of processors reduced to:  21 ShMem   1 Linda.
 NBasis=   300 RedAO= T EigKep=  3.62D-05  NBF=   113    44    84    59
 NBsUse=   300 1.00D-06 EigRej= -1.00D+00 NBFU=   113    44    84    59
 Precomputing XC quadrature grid using
 IXCGrd= 4 IRadAn=           5 IRanWt=          -1 IRanGd=           0 AccXCQ= 0.00D+00.
 Generated NRdTot=       0 NPtTot=           0 NUsed=           0 NTot=          32
 NSgBfM=   365   365   365   365   365 MxSgAt=     4 MxSgA2=     4.
 Leave Link  302 at Sat Apr 17 05:50:47 2021, MaxMem=   104857600 cpu:            1262.8 elap:              27.0
 (Enter /s/ls4/users/knvvv/bin/g16sse/l303.exe)
 DipDrv:  MaxL=1.
 Leave Link  303 at Sat Apr 17 05:50:48 2021, MaxMem=   104857600 cpu:              74.0 elap:               1.6
 (Enter /s/ls4/users/knvvv/bin/g16sse/l401.exe)
 SCF N**3 symmetry information disabled.
 ExpMin= 2.73D-02 ExpMax= 1.47D+06 ExpMxC= 1.67D+03 IAcc=3 IRadAn=         5 AccDes= 0.00D+00
 Harris functional with IExCor= 1009 and IRadAn=       5 diagonalized for initial guess.
 HarFok:  IExCor= 1009 AccDes= 0.00D+00 IRadAn=         5 IDoV= 1 UseB2=F ITyADJ=14
 ICtDFT=  3500011 ScaDFX=  1.000000  1.000000  1.000000  1.000000
 FoFCou: FMM=F IPFlag=           0 FMFlag=      100000 FMFlg1=           0
         NFxFlg=           0 DoJE=T BraDBF=F KetDBF=T FulRan=T
         wScrn=  0.000000 ICntrl=       500 IOpCl=  0 I1Cent=   200000004 NGrid=           0
         NMat0=    1 NMatS0=      1 NMatT0=    0 NMatD0=    1 NMtDS0=    0 NMtDT0=    0
 Petite list used in FoFCou.
 CoulSu:  requested number of processors reduced to:  20 ShMem   1 Linda.
 CoulSu:  requested number of processors reduced to:  20 ShMem   1 Linda.
 CoulSu:  requested number of processors reduced to:  21 ShMem   1 Linda.
 CoulSu:  requested number of processors reduced to:  21 ShMem   1 Linda.
 Harris En= -1404.84921766848    
 JPrj=0 DoOrth=F DoCkMO=F.
 Initial guess orbital symmetries:
       Occupied  (A1') (E') (E') (A1') (E') (E') (A1') (E') (E')
                 (E") (E") (A2") (E') (E') (A2') (A1') (A1') (E')
                 (E') (A1') (E') (E') (A2") (E') (E') (E") (E")
                 (A2')
       Virtual   (A2") (A1') (E') (E') (A1') (A2") (E') (E') (A1')
                 (E") (E") (A2') (E') (E') (A1') (E") (E") (E')
                 (E') (A1') (A2") (E') (E') (E') (E') (A1') (E")
                 (E") (E') (E') (A1") (A2") (A2') (A1') (E") (E")
                 (E') (E') (E') (E') (E") (E") (E') (E') (A1')
                 (A2") (A1') (E') (E') (E") (E") (A1') (A1") (E')
                 (E') (A2') (E') (E') (E") (E") (A2') (A2") (A2")
                 (A1') (E') (E') (A1') (E") (E") (E') (E') (E')
                 (E') (A1') (E') (E') (A1') (E") (E") (E') (E')
                 (A2") (A1') (A2") (E") (E") (A2') (E') (E') (E")
                 (E") (A2') (E') (E') (A1') (A2") (A1") (E") (E")
                 (A2') (E') (E') (A1') (E') (E') (E") (E") (A1")
                 (E") (E") (E') (E') (A1') (A2") (E') (E') (E')
                 (E') (A2") (E') (E') (A2') (A1') (E") (E") (E')
                 (E') (E") (E") (A1') (E') (E') (A2") (E') (E')
                 (A1') (A2') (A1') (E') (E') (A1") (A2") (E') (E')
                 (E") (E") (A1') (A2') (E") (E") (A1') (E') (E')
                 (A1") (E') (E') (E") (E") (A2") (A2') (E') (E')
                 (A1') (E") (E") (A1") (E') (E') (A1') (E') (E')
                 (E") (E") (E") (E") (A2") (A1') (E') (E') (E")
                 (E") (A2') (A2") (E') (E') (E") (E") (A2') (A2")
                 (E') (E') (E') (E') (A2") (A1') (A1") (E") (E")
                 (E') (E') (E') (E') (A1') (E") (E") (E') (E')
                 (E') (E') (E") (E") (A2') (E") (E") (A1') (A1')
                 (A2') (A2") (A1') (A1") (E') (E') (E') (E') (A2')
                 (A2") (E") (E") (A1') (E') (E') (E') (E') (A1')
                 (E') (E') (A1') (E") (E") (A1") (A1') (E') (E')
                 (A2") (E") (E") (E') (E') (A2') (A1') (E') (E')
                 (A1') (E') (E') (A1') (A2") (E") (E") (A2') (E')
                 (E') (E') (E') (A1') (E') (E') (A1') (A1') (E')
                 (E') (A1')
 The electronic state of the initial guess is 1-A1'.
 Leave Link  401 at Sat Apr 17 05:51:09 2021, MaxMem=   104857600 cpu:             948.7 elap:              20.4
 (Enter /s/ls4/users/knvvv/bin/g16sse/l502.exe)
 Integral symmetry usage will be decided dynamically.
 Closed shell SCF:
 Using DIIS extrapolation, IDIIS=  1040.
 NGot=   104857600 LenX=   104564687 LenY=   104429557
 Requested convergence on RMS density matrix=1.00D-08 within 128 cycles.
 Requested convergence on MAX density matrix=1.00D-06.
 Requested convergence on             energy=1.00D-06.
 No special actions if energy rises.
 Fock matrices will be formed incrementally for  20 cycles.

 Cycle   1  Pass 1  IDiag  1:
 FoFJK:  IHMeth= 1 ICntrl=       0 DoSepK=F KAlg= 0 I1Cent=           0 FoldK=F
 IRaf= 940000000 NMat=       1 IRICut=       1 DoRegI=T DoRafI=F ISym2E= 1 IDoP0=0 IntGTp=1.
 FoFCou: FMM=F IPFlag=           0 FMFlag=      100000 FMFlg1=           0
         NFxFlg=           0 DoJE=F BraDBF=F KetDBF=F FulRan=T
         wScrn=  0.000000 ICntrl=         0 IOpCl=  0 I1Cent=           0 NGrid=           0
         NMat0=    1 NMatS0=      1 NMatT0=    0 NMatD0=    1 NMtDS0=    0 NMtDT0=    0
 Petite list used in FoFCou.
 CoulSu:  requested number of processors reduced to:  21 ShMem   1 Linda.
 E= -1405.58880406000    
 DIIS: error= 3.65D-02 at cycle   1 NSaved=   1.
 NSaved= 1 IEnMin= 1 EnMin= -1405.58880406000     IErMin= 1 ErrMin= 3.65D-02
 ErrMax= 3.65D-02  0.00D+00 EMaxC= 1.00D-01 BMatC= 1.94D-01 BMatP= 1.94D-01
 IDIUse=3 WtCom= 6.35D-01 WtEn= 3.65D-01
 Coeff-Com:  0.100D+01
 Coeff-En:   0.100D+01
 Coeff:      0.100D+01
 Gap=     0.359 Goal=   None    Shift=    0.000
 GapD=    0.359 DampG=1.000 DampE=0.500 DampFc=0.5000 IDamp=-1.
 Damping current iteration by 5.00D-01
 RMSDP=1.16D-03 MaxDP=8.83D-02              OVMax= 5.35D-02

 Cycle   2  Pass 1  IDiag  1:
 RMSU=  5.80D-04    CP:  1.00D+00
 CoulSu:  requested number of processors reduced to:  21 ShMem   1 Linda.
 E= -1405.60278372393     Delta-E=       -0.013979663930 Rises=F Damp=T
 DIIS: error= 1.85D-02 at cycle   2 NSaved=   2.
 NSaved= 2 IEnMin= 2 EnMin= -1405.60278372393     IErMin= 2 ErrMin= 1.85D-02
 ErrMax= 1.85D-02  0.00D+00 EMaxC= 1.00D-01 BMatC= 3.92D-02 BMatP= 1.94D-01
 IDIUse=3 WtCom= 8.15D-01 WtEn= 1.85D-01
 Coeff-Com: -0.677D+00 0.168D+01
 Coeff-En:   0.000D+00 0.100D+01
 Coeff:     -0.552D+00 0.155D+01
 Gap=     0.339 Goal=   None    Shift=    0.000
 RMSDP=6.11D-04 MaxDP=4.34D-02 DE=-1.40D-02 OVMax= 2.75D-02

 Cycle   3  Pass 1  IDiag  1:
 RMSU=  2.93D-04    CP:  1.00D+00  1.92D+00
 CoulSu:  requested number of processors reduced to:  21 ShMem   1 Linda.
 E= -1405.61438831886     Delta-E=       -0.011604594925 Rises=F Damp=F
 DIIS: error= 4.86D-03 at cycle   3 NSaved=   3.
 NSaved= 3 IEnMin= 3 EnMin= -1405.61438831886     IErMin= 3 ErrMin= 4.86D-03
 ErrMax= 4.86D-03  0.00D+00 EMaxC= 1.00D-01 BMatC= 2.26D-03 BMatP= 3.92D-02
 IDIUse=3 WtCom= 9.51D-01 WtEn= 4.86D-02
 Coeff-Com: -0.245D+00 0.531D+00 0.714D+00
 Coeff-En:   0.000D+00 0.000D+00 0.100D+01
 Coeff:     -0.233D+00 0.505D+00 0.728D+00
 Gap=     0.354 Goal=   None    Shift=    0.000
 RMSDP=1.32D-04 MaxDP=9.45D-03 DE=-1.16D-02 OVMax= 2.30D-02

 Cycle   4  Pass 1  IDiag  1:
 RMSU=  7.35D-05    CP:  1.00D+00  1.98D+00  6.42D-01
 CoulSu:  requested number of processors reduced to:  21 ShMem   1 Linda.
 E= -1405.61595505276     Delta-E=       -0.001566733908 Rises=F Damp=F
 DIIS: error= 2.31D-03 at cycle   4 NSaved=   4.
 NSaved= 4 IEnMin= 4 EnMin= -1405.61595505276     IErMin= 4 ErrMin= 2.31D-03
 ErrMax= 2.31D-03  0.00D+00 EMaxC= 1.00D-01 BMatC= 5.77D-04 BMatP= 2.26D-03
 IDIUse=3 WtCom= 9.77D-01 WtEn= 2.31D-02
 Coeff-Com: -0.425D-01 0.834D-01 0.368D+00 0.591D+00
 Coeff-En:   0.000D+00 0.000D+00 0.199D+00 0.801D+00
 Coeff:     -0.415D-01 0.815D-01 0.364D+00 0.595D+00
 Gap=     0.350 Goal=   None    Shift=    0.000
 RMSDP=4.71D-05 MaxDP=3.98D-03 DE=-1.57D-03 OVMax= 5.84D-03

 Cycle   5  Pass 1  IDiag  1:
 RMSU=  1.47D-05    CP:  1.00D+00  1.98D+00  7.73D-01  6.91D-01
 CoulSu:  requested number of processors reduced to:  21 ShMem   1 Linda.
 E= -1405.61649733058     Delta-E=       -0.000542277813 Rises=F Damp=F
 DIIS: error= 8.16D-05 at cycle   5 NSaved=   5.
 NSaved= 5 IEnMin= 5 EnMin= -1405.61649733058     IErMin= 5 ErrMin= 8.16D-05
 ErrMax= 8.16D-05  0.00D+00 EMaxC= 1.00D-01 BMatC= 2.72D-06 BMatP= 5.77D-04
 IDIUse=1 WtCom= 1.00D+00 WtEn= 0.00D+00
 Coeff-Com: -0.235D-02 0.381D-02 0.825D-01 0.143D+00 0.773D+00
 Coeff:     -0.235D-02 0.381D-02 0.825D-01 0.143D+00 0.773D+00
 Gap=     0.350 Goal=   None    Shift=    0.000
 RMSDP=6.66D-06 MaxDP=6.47D-04 DE=-5.42D-04 OVMax= 4.49D-04

 Cycle   6  Pass 1  IDiag  1:
 RMSU=  4.56D-06    CP:  1.00D+00  1.98D+00  7.89D-01  7.06D-01  1.04D+00
 CoulSu:  requested number of processors reduced to:  21 ShMem   1 Linda.
 E= -1405.61649969137     Delta-E=       -0.000002360788 Rises=F Damp=F
 DIIS: error= 3.88D-05 at cycle   6 NSaved=   6.
 NSaved= 6 IEnMin= 6 EnMin= -1405.61649969137     IErMin= 6 ErrMin= 3.88D-05
 ErrMax= 3.88D-05  0.00D+00 EMaxC= 1.00D-01 BMatC= 1.56D-07 BMatP= 2.72D-06
 IDIUse=1 WtCom= 1.00D+00 WtEn= 0.00D+00
 Coeff-Com:  0.261D-02-0.515D-02-0.294D-01-0.593D-01-0.119D-01 0.110D+01
 Coeff:      0.261D-02-0.515D-02-0.294D-01-0.593D-01-0.119D-01 0.110D+01
 Gap=     0.350 Goal=   None    Shift=    0.000
 RMSDP=3.36D-06 MaxDP=3.67D-04 DE=-2.36D-06 OVMax= 3.89D-04

 Cycle   7  Pass 1  IDiag  1:
 RMSU=  9.14D-07    CP:  1.00D+00  1.98D+00  7.96D-01  7.12D-01  1.17D+00
                    CP:  1.31D+00
 CoulSu:  requested number of processors reduced to:  21 ShMem   1 Linda.
 E= -1405.61649995385     Delta-E=       -0.000000262480 Rises=F Damp=F
 DIIS: error= 6.69D-06 at cycle   7 NSaved=   7.
 NSaved= 7 IEnMin= 7 EnMin= -1405.61649995385     IErMin= 7 ErrMin= 6.69D-06
 ErrMax= 6.69D-06  0.00D+00 EMaxC= 1.00D-01 BMatC= 6.32D-09 BMatP= 1.56D-07
 IDIUse=1 WtCom= 1.00D+00 WtEn= 0.00D+00
 Coeff-Com: -0.304D-04 0.863D-04-0.126D-02-0.439D-02-0.214D-01-0.530D-01
 Coeff-Com:  0.108D+01
 Coeff:     -0.304D-04 0.863D-04-0.126D-02-0.439D-02-0.214D-01-0.530D-01
 Coeff:      0.108D+01
 Gap=     0.350 Goal=   None    Shift=    0.000
 RMSDP=7.79D-07 MaxDP=9.32D-05 DE=-2.62D-07 OVMax= 5.77D-05

 Cycle   8  Pass 1  IDiag  1:
 RMSU=  2.12D-07    CP:  1.00D+00  1.98D+00  7.98D-01  7.11D-01  1.19D+00
                    CP:  1.36D+00  1.33D+00
 CoulSu:  requested number of processors reduced to:  21 ShMem   1 Linda.
 E= -1405.61649996487     Delta-E=       -0.000000011025 Rises=F Damp=F
 DIIS: error= 2.10D-06 at cycle   8 NSaved=   8.
 NSaved= 8 IEnMin= 8 EnMin= -1405.61649996487     IErMin= 8 ErrMin= 2.10D-06
 ErrMax= 2.10D-06  0.00D+00 EMaxC= 1.00D-01 BMatC= 1.85D-10 BMatP= 6.32D-09
 IDIUse=1 WtCom= 1.00D+00 WtEn= 0.00D+00
 Coeff-Com: -0.749D-04 0.148D-03 0.103D-02 0.239D-02-0.370D-02-0.402D-01
 Coeff-Com:  0.161D-01 0.102D+01
 Coeff:     -0.749D-04 0.148D-03 0.103D-02 0.239D-02-0.370D-02-0.402D-01
 Coeff:      0.161D-01 0.102D+01
 Gap=     0.350 Goal=   None    Shift=    0.000
 RMSDP=1.22D-07 MaxDP=1.38D-05 DE=-1.10D-08 OVMax= 1.54D-05

 Cycle   9  Pass 1  IDiag  1:
 RMSU=  2.34D-08    CP:  1.00D+00  1.98D+00  7.98D-01  7.12D-01  1.20D+00
                    CP:  1.37D+00  1.40D+00  1.21D+00
 CoulSu:  requested number of processors reduced to:  21 ShMem   1 Linda.
 E= -1405.61649996521     Delta-E=       -0.000000000341 Rises=F Damp=F
 DIIS: error= 9.83D-08 at cycle   9 NSaved=   9.
 NSaved= 9 IEnMin= 9 EnMin= -1405.61649996521     IErMin= 9 ErrMin= 9.83D-08
 ErrMax= 9.83D-08  0.00D+00 EMaxC= 1.00D-01 BMatC= 2.36D-12 BMatP= 1.85D-10
 IDIUse=1 WtCom= 1.00D+00 WtEn= 0.00D+00
 Coeff-Com: -0.179D-05 0.351D-05-0.443D-04-0.791D-04 0.700D-03 0.524D-02
 Coeff-Com: -0.309D-01-0.621D-01 0.109D+01
 Coeff:     -0.179D-05 0.351D-05-0.443D-04-0.791D-04 0.700D-03 0.524D-02
 Coeff:     -0.309D-01-0.621D-01 0.109D+01
 Gap=     0.350 Goal=   None    Shift=    0.000
 RMSDP=1.18D-08 MaxDP=5.69D-07 DE=-3.41D-10 OVMax= 8.16D-07

 Cycle  10  Pass 1  IDiag  1:
 RMSU=  4.20D-09    CP:  1.00D+00  1.98D+00  7.98D-01  7.12D-01  1.20D+00
                    CP:  1.37D+00  1.40D+00  1.24D+00  1.20D+00
 CoulSu:  requested number of processors reduced to:  21 ShMem   1 Linda.
 E= -1405.61649996524     Delta-E=       -0.000000000026 Rises=F Damp=F
 DIIS: error= 1.49D-08 at cycle  10 NSaved=  10.
 NSaved=10 IEnMin=10 EnMin= -1405.61649996524     IErMin=10 ErrMin= 1.49D-08
 ErrMax= 1.49D-08  0.00D+00 EMaxC= 1.00D-01 BMatC= 1.59D-14 BMatP= 2.36D-12
 IDIUse=1 WtCom= 1.00D+00 WtEn= 0.00D+00
 Coeff-Com:  0.976D-06-0.195D-05-0.198D-05-0.987D-05-0.324D-04-0.266D-03
 Coeff-Com:  0.330D-02-0.357D-02-0.103D+00 0.110D+01
 Coeff:      0.976D-06-0.195D-05-0.198D-05-0.987D-05-0.324D-04-0.266D-03
 Coeff:      0.330D-02-0.357D-02-0.103D+00 0.110D+01
 Gap=     0.350 Goal=   None    Shift=    0.000
 RMSDP=9.96D-10 MaxDP=3.83D-08 DE=-2.64D-11 OVMax= 8.18D-08

 SCF Done:  E(RM062X) =  -1405.61649997     A.U. after   10 cycles
            NFock= 10  Conv=0.10D-08     -V/T= 2.0015
 KE= 1.403556189409D+03 PE=-3.798420090506D+03 EE= 7.606848551138D+02
 Leave Link  502 at Sat Apr 17 05:58:04 2021, MaxMem=   104857600 cpu:           19324.1 elap:             415.8
 (Enter /s/ls4/users/knvvv/bin/g16sse/l601.exe)
 Copying SCF densities to generalized density rwf, IOpCl= 0 IROHF=0.

 **********************************************************************

            Population analysis using the SCF density.

 **********************************************************************

 Orbital symmetries:
       Occupied  (E') (E') (A1') (E') (E') (A1') (E') (E') (A1')
                 (E") (E") (A2") (A2') (E') (E') (A1') (A1') (E')
                 (E') (A1') (E') (E') (A2") (E') (E') (E") (E")
                 (A2')
       Virtual   (A2") (A1') (E') (E') (A2") (E') (E') (A1') (E")
                 (E") (A1') (A2') (E') (E') (A1') (A1') (E") (E")
                 (E') (E') (A2") (E') (E') (E') (E') (A1') (E")
                 (E") (E') (E') (A1') (A2") (A1") (A2') (E") (E")
                 (E') (E') (E') (E') (E") (E") (A1') (A2") (E')
                 (E') (A1') (E') (E') (E") (E") (A1') (E') (E')
                 (A2') (A1") (E') (E') (E") (E") (A2') (A2") (A2")
                 (A1') (E') (E') (A1') (E") (E") (E') (E') (E')
                 (E') (A1') (E') (E') (A1') (E") (E") (E') (E')
                 (A2") (A1') (E") (E") (A2") (A2') (E') (E') (A2')
                 (E") (E") (E') (E') (A1') (A2") (E") (E") (A2')
                 (A1") (E') (E') (E') (E') (A1') (E") (E") (A1")
                 (E") (E") (A1') (E') (E') (A2") (E') (E') (E')
                 (E') (A2") (E') (E') (A2') (A1') (E") (E") (E')
                 (E') (E") (E") (A1') (E') (E') (A2") (A1') (E')
                 (E') (A2') (A1') (E') (E') (A1") (E') (E') (A2")
                 (E") (E") (A1') (A2') (E') (E') (E") (E") (A1')
                 (A1") (A2") (E") (E") (E') (E') (A2') (E') (E')
                 (A1') (E") (E") (A1') (A1") (E') (E') (E") (E")
                 (E') (E') (E") (E") (A2") (A1') (E') (E') (E")
                 (E") (A2") (A2') (E') (E') (E') (E') (E") (E")
                 (A2") (A2') (E') (E') (A1') (A1") (A2") (E") (E")
                 (E") (E") (E') (E') (E') (E') (A1') (E') (E')
                 (E') (E') (E") (E") (A1') (A2') (E") (E") (A1')
                 (A2') (A2") (A1') (A1") (E') (E') (E') (E') (A2")
                 (A2') (E") (E") (A1') (E') (E') (E') (E') (A1')
                 (E') (E') (A1') (E") (E") (A1") (A1') (E') (E')
                 (A2") (E") (E") (E') (E') (A2') (A1') (E') (E')
                 (A1') (E') (E') (A1') (A2") (E") (E") (A2') (E')
                 (E') (E') (E') (A1') (E') (E') (A1') (A1') (E')
                 (E') (A1')
 The electronic state is 1-A1'.
 Alpha  occ. eigenvalues -- -102.67440-102.67440-102.67440  -9.83109  -9.83109
 Alpha  occ. eigenvalues --   -9.83108  -7.55443  -7.55443  -7.55443  -7.55189
 Alpha  occ. eigenvalues --   -7.55189  -7.55188  -7.55080  -7.55080  -7.55080
 Alpha  occ. eigenvalues --   -7.20697  -0.99481  -0.94349  -0.94349  -0.60366
 Alpha  occ. eigenvalues --   -0.52354  -0.52354  -0.47942  -0.41753  -0.41753
 Alpha  occ. eigenvalues --   -0.41133  -0.41133  -0.38597
 Alpha virt. eigenvalues --   -0.03588  -0.00585   0.01655   0.01655   0.02172
 Alpha virt. eigenvalues --    0.03777   0.03777   0.04157   0.04700   0.04700
 Alpha virt. eigenvalues --    0.06775   0.07443   0.12230   0.12230   0.12316
 Alpha virt. eigenvalues --    0.13339   0.13446   0.13446   0.14332   0.14332
 Alpha virt. eigenvalues --    0.14425   0.15935   0.15935   0.19076   0.19076
 Alpha virt. eigenvalues --    0.19766   0.20919   0.20919   0.22951   0.22951
 Alpha virt. eigenvalues --    0.24957   0.25394   0.25648   0.25792   0.27082
 Alpha virt. eigenvalues --    0.27082   0.32326   0.32326   0.33074   0.33074
 Alpha virt. eigenvalues --    0.37484   0.37484   0.38604   0.38630   0.39508
 Alpha virt. eigenvalues --    0.39508   0.42667   0.44916   0.44916   0.47240
 Alpha virt. eigenvalues --    0.47240   0.48175   0.49739   0.49739   0.50813
 Alpha virt. eigenvalues --    0.51552   0.51975   0.51975   0.53301   0.53301
 Alpha virt. eigenvalues --    0.56024   0.58172   0.59056   0.63509   0.65901
 Alpha virt. eigenvalues --    0.65901   0.66722   0.71375   0.71375   0.76208
 Alpha virt. eigenvalues --    0.76208   0.85146   0.85146   0.89102   0.94216
 Alpha virt. eigenvalues --    0.94216   1.14871   1.15553   1.15553   1.18325
 Alpha virt. eigenvalues --    1.18325   1.20145   1.21259   1.22728   1.22728
 Alpha virt. eigenvalues --    1.23558   1.25342   1.29511   1.29511   1.31022
 Alpha virt. eigenvalues --    1.31030   1.31030   1.32545   1.32545   1.35340
 Alpha virt. eigenvalues --    1.35618   1.36042   1.36042   1.36827   1.37118
 Alpha virt. eigenvalues --    1.39617   1.39617   1.41262   1.41262   1.41378
 Alpha virt. eigenvalues --    1.41881   1.41881   1.45829   1.47376   1.47376
 Alpha virt. eigenvalues --    1.49921   1.50050   1.50050   1.55341   1.57241
 Alpha virt. eigenvalues --    1.57241   1.64804   1.64804   1.64925   1.80007
 Alpha virt. eigenvalues --    1.80007   1.83809   1.89882   1.92308   1.92308
 Alpha virt. eigenvalues --    2.09262   2.09262   2.11443   2.11443   2.15109
 Alpha virt. eigenvalues --    2.21324   2.21324   2.38198   2.38433   2.39647
 Alpha virt. eigenvalues --    2.39647   2.45742   2.65939   2.99092   2.99092
 Alpha virt. eigenvalues --    3.02401   3.11619   3.11619   3.12154   3.13739
 Alpha virt. eigenvalues --    3.13739   3.21671   3.28983   3.36840   3.36840
 Alpha virt. eigenvalues --    3.38500   3.38500   3.39990   3.42172   3.43761
 Alpha virt. eigenvalues --    3.44248   3.44248   3.44588   3.44588   3.47357
 Alpha virt. eigenvalues --    3.50442   3.50442   3.50445   3.51185   3.51185
 Alpha virt. eigenvalues --    3.54321   3.54429   3.54814   3.54814   3.55704
 Alpha virt. eigenvalues --    3.55704   3.57226   3.57226   3.58757   3.58757
 Alpha virt. eigenvalues --    3.63239   3.68669   3.71820   3.71820   3.76760
 Alpha virt. eigenvalues --    3.76760   3.80302   3.81426   3.89536   3.89536
 Alpha virt. eigenvalues --    3.91798   3.91798   3.91834   3.91834   3.94060
 Alpha virt. eigenvalues --    3.94377   3.94549   3.94549   3.95954   3.97320
 Alpha virt. eigenvalues --    4.00601   4.05299   4.05299   4.11678   4.11678
 Alpha virt. eigenvalues --    4.13370   4.13370   4.15523   4.15523   4.18389
 Alpha virt. eigenvalues --    4.24442   4.24442   4.30679   4.30679   4.30682
 Alpha virt. eigenvalues --    4.30682   4.38445   4.39135   4.40526   4.40526
 Alpha virt. eigenvalues --    4.43374   4.52937   4.54034   4.69069   4.71508
 Alpha virt. eigenvalues --    4.79616   4.79616   4.91179   4.91179   5.21098
 Alpha virt. eigenvalues --    5.21161   5.22089   5.22089   5.37689   5.56471
 Alpha virt. eigenvalues --    5.56471   6.35477   6.35477   6.70603   8.71286
 Alpha virt. eigenvalues --    8.71286   8.79732  10.76091  10.76091  10.77425
 Alpha virt. eigenvalues --   10.78417  10.80473  10.80473  10.85478  10.91075
 Alpha virt. eigenvalues --   10.91075  10.94522  10.94522  11.14963  11.25013
 Alpha virt. eigenvalues --   11.34781  11.34781  19.46643  28.79894  28.79894
 Alpha virt. eigenvalues --   28.86877  42.03045  42.03243  42.03243  42.03986
 Alpha virt. eigenvalues --   42.04677  42.04677  42.15036  42.15036  42.17638
 Alpha virt. eigenvalues --   98.56327  98.56327  98.59780 100.85763 524.55906
 Alpha virt. eigenvalues --  524.55906 524.65316
          Condensed to atoms (all electrons):
               1          2          3          4
     1  B    3.404306   0.366554   0.366554   0.366554
     2  Cl   0.366554  16.931541  -0.066376  -0.066376
     3  Cl   0.366554  -0.066376  16.931541  -0.066376
     4  Cl   0.366554  -0.066376  -0.066376  16.931541
 Mulliken charges:
               1
     1  B    0.496031
     2  Cl  -0.165344
     3  Cl  -0.165344
     4  Cl  -0.165344
 Sum of Mulliken charges =  -0.00000
 Mulliken charges with hydrogens summed into heavy atoms:
               1
     1  B    0.496031
     2  Cl  -0.165344
     3  Cl  -0.165344
     4  Cl  -0.165344
 Electronic spatial extent (au):  <R**2>=            653.1799
 Charge=             -0.0000 electrons
 Dipole moment (field-independent basis, Debye):
    X=              0.0000    Y=              0.0000    Z=              0.0000  Tot=              0.0000
 Quadrupole moment (field-independent basis, Debye-Ang):
   XX=            -43.2929   YY=            -43.2929   ZZ=            -42.3553
   XY=             -0.0000   XZ=             -0.0000   YZ=              0.0000
 Traceless Quadrupole moment (field-independent basis, Debye-Ang):
   XX=             -0.3125   YY=             -0.3125   ZZ=              0.6251
   XY=             -0.0000   XZ=             -0.0000   YZ=              0.0000
 Octapole moment (field-independent basis, Debye-Ang**2):
  XXX=              0.0000  YYY=              3.6994  ZZZ=              0.0000  XYY=              0.0000
  XXY=             -3.6994  XXZ=              0.0000  XZZ=              0.0000  YZZ=             -0.0000
  YYZ=             -0.0000  XYZ=             -0.0000
 Hexadecapole moment (field-independent basis, Debye-Ang**3):
 XXXX=           -376.8592 YYYY=           -376.8592 ZZZZ=            -48.5728 XXXY=             -0.0000
 XXXZ=             -0.0000 YYYX=              0.0000 YYYZ=              0.0000 ZZZX=             -0.0000
 ZZZY=              0.0000 XXYY=           -125.6197 XXZZ=            -73.8421 YYZZ=            -73.8421
 XXYZ=              0.0000 YYXZ=             -0.0000 ZZXY=              0.0000
 N-N= 2.285625460178D+02 E-N=-3.798420089965D+03  KE= 1.403556189409D+03
 PrsmSu:  requested number of processors reduced to:  21 ShMem   1 Linda.
 No NMR shielding tensors so no spin-rotation constants.
 Leave Link  601 at Sat Apr 17 05:58:17 2021, MaxMem=   104857600 cpu:             570.5 elap:              12.5
 (Enter /s/ls4/users/knvvv/bin/g16sse/l801.exe)
 DoSCS=F DFT=T ScalE2(SS,OS)=  1.000000  1.000000
 Range of M.O.s used for correlation:     1   300
 NBasis=   300 NAE=    28 NBE=    28 NFC=     0 NFV=     0
 NROrb=    300 NOA=    28 NOB=    28 NVA=   272 NVB=   272

 **** Warning!!: The largest alpha MO coefficient is  0.59874113D+02

 Leave Link  801 at Sat Apr 17 05:58:17 2021, MaxMem=   104857600 cpu:               3.9 elap:               0.1
 (Enter /s/ls4/users/knvvv/bin/g16sse/l914.exe)
 RHF ground state
 Doing stability rather than CIS.
 Two-electron integrals replicated using symmetry.
 MDV=   104857600 DFT=T DoStab=T Mixed=T DoRPA=F DoScal=F NonHer=F
 Making orbital integer symmetry assigments:
 Orbital symmetries:
       Occupied  (E') (E') (A1') (E') (E') (A1') (E') (E') (A1')
                 (E") (E") (A2") (A2') (E') (E') (A1') (A1') (E')
                 (E') (A1') (E') (E') (A2") (E') (E') (E") (E")
                 (A2')
       Virtual   (A2") (A1') (E') (E') (A2") (E') (E') (A1') (E")
                 (E") (A1') (A2') (E') (E') (A1') (A1') (E") (E")
                 (E') (E') (A2") (E') (E') (E') (E') (A1') (E")
                 (E") (E') (E') (A1') (A2") (A1") (A2') (E") (E")
                 (E') (E') (E') (E') (E") (E") (A1') (A2") (E')
                 (E') (A1') (E') (E') (E") (E") (A1') (E') (E')
                 (A2') (A1") (E') (E') (E") (E") (A2') (A2") (A2")
                 (A1') (E') (E') (A1') (E") (E") (E') (E') (E')
                 (E') (A1') (E') (E') (A1') (E") (E") (E') (E')
                 (A2") (A1') (E") (E") (A2") (A2') (E') (E') (A2')
                 (E") (E") (E') (E') (A1') (A2") (E") (E") (A2')
                 (A1") (E') (E') (E') (E') (A1') (E") (E") (A1")
                 (E") (E") (A1') (E') (E') (A2") (E') (E') (E')
                 (E') (A2") (E') (E') (A2') (A1') (E") (E") (E')
                 (E') (E") (E") (A1') (E') (E') (A2") (A1') (E')
                 (E') (A2') (A1') (E') (E') (A1") (E') (E') (A2")
                 (E") (E") (A1') (A2') (E') (E') (E") (E") (A1')
                 (A1") (A2") (E") (E") (E') (E') (A2') (E') (E')
                 (A1') (E") (E") (A1') (A1") (E') (E') (E") (E")
                 (E') (E') (E") (E") (A2") (A1') (E') (E') (E")
                 (E") (A2") (A2') (E') (E') (E') (E') (E") (E")
                 (A2") (A2') (E') (E') (A1') (A1") (A2") (E") (E")
                 (E") (E") (E') (E') (E') (E') (A1') (E') (E')
                 (E') (E') (E") (E") (A1') (A2') (E") (E") (A1')
                 (A2') (A2") (A1') (A1") (E') (E') (E') (E') (A2")
                 (A2') (E") (E") (A1') (E') (E') (E') (E') (A1')
                 (E') (E') (A1') (E") (E") (A1") (A1') (E') (E')
                 (A2") (E") (E") (E') (E') (A2') (A1') (E') (E')
                 (A1') (E') (E') (A1') (A2") (E") (E") (A2') (E')
                 (E') (E') (E') (A1') (E') (E') (A1') (A1') (E')
                 (E') (A1')
    24 initial guesses have been made.
 Convergence on wavefunction:    0.001000000000000
 Davidson Disk Diagonalization:  ConvIn= 1.00D-03 SkipCon=T Conv= 1.00D-03.
 Max sub-space:  2000 roots to seek:    24 dimension of matrix:        15232
 Iteration     1 Dimension    24 NMult     0 NNew     24
 Estimated number of processors is:   18
 CISAX will form     1 AO SS matrices at one time.
 NMat=     1 NSing=     1 JSym2X= 2.
 FoFJK:  IHMeth= 1 ICntrl=       0 DoSepK=F KAlg= 0 I1Cent=           0 FoldK=F
 IRaf= 940000000 NMat=       1 IRICut=       1 DoRegI=T DoRafI=F ISym2E= 2 IDoP0=0 IntGTp=1.
 FoFCou: FMM=F IPFlag=           0 FMFlag=      100000 FMFlg1=           0
         NFxFlg=           0 DoJE=F BraDBF=F KetDBF=F FulRan=T
         wScrn=  0.000000 ICntrl=         0 IOpCl=  0 I1Cent=           0 NGrid=           0
         NMat0=    1 NMatS0=      1 NMatT0=    0 NMatD0=    1 NMtDS0=    0 NMtDT0=    0
 Integrals replicated using symmetry in FoFCou.
 CoulSu:  requested number of processors reduced to:  19 ShMem   1 Linda.
 NMat=     1 NSing=     1 JSym2X= 2.
 CoulSu:  requested number of processors reduced to:  19 ShMem   1 Linda.
 NMat=     1 NSing=     1 JSym2X= 2.
 CoulSu:  requested number of processors reduced to:  19 ShMem   1 Linda.
 NMat=     1 NSing=     1 JSym2X= 2.
 CoulSu:  requested number of processors reduced to:  19 ShMem   1 Linda.
 NMat=     1 NSing=     1 JSym2X= 2.
 CoulSu:  requested number of processors reduced to:  19 ShMem   1 Linda.
 NMat=     1 NSing=     1 JSym2X= 2.
 CoulSu:  requested number of processors reduced to:  19 ShMem   1 Linda.
 NMat=     1 NSing=     1 JSym2X= 2.
 CoulSu:  requested number of processors reduced to:  19 ShMem   1 Linda.
 NMat=     1 NSing=     1 JSym2X= 2.
 CoulSu:  requested number of processors reduced to:  19 ShMem   1 Linda.
 NMat=     1 NSing=     1 JSym2X= 2.
 CoulSu:  requested number of processors reduced to:  19 ShMem   1 Linda.
 NMat=     1 NSing=     1 JSym2X= 2.
 CoulSu:  requested number of processors reduced to:  19 ShMem   1 Linda.
 NMat=     1 NSing=     1 JSym2X= 2.
 CoulSu:  requested number of processors reduced to:  19 ShMem   1 Linda.
 NMat=     1 NSing=     1 JSym2X= 2.
 CoulSu:  requested number of processors reduced to:  19 ShMem   1 Linda.
 NMat=     1 NSing=     0 JSym2X= 2.
 CoulSu:  requested number of processors reduced to:  19 ShMem   1 Linda.
 NMat=     1 NSing=     0 JSym2X= 2.
 CoulSu:  requested number of processors reduced to:  19 ShMem   1 Linda.
 NMat=     1 NSing=     0 JSym2X= 2.
 CoulSu:  requested number of processors reduced to:  19 ShMem   1 Linda.
 NMat=     1 NSing=     0 JSym2X= 2.
 CoulSu:  requested number of processors reduced to:  19 ShMem   1 Linda.
 NMat=     1 NSing=     0 JSym2X= 2.
 CoulSu:  requested number of processors reduced to:  19 ShMem   1 Linda.
 NMat=     1 NSing=     0 JSym2X= 2.
 CoulSu:  requested number of processors reduced to:  19 ShMem   1 Linda.
 NMat=     1 NSing=     0 JSym2X= 2.
 CoulSu:  requested number of processors reduced to:  19 ShMem   1 Linda.
 NMat=     1 NSing=     0 JSym2X= 2.
 CoulSu:  requested number of processors reduced to:  19 ShMem   1 Linda.
 NMat=     1 NSing=     0 JSym2X= 2.
 CoulSu:  requested number of processors reduced to:  19 ShMem   1 Linda.
 NMat=     1 NSing=     0 JSym2X= 2.
 CoulSu:  requested number of processors reduced to:  19 ShMem   1 Linda.
 NMat=     1 NSing=     0 JSym2X= 2.
 CoulSu:  requested number of processors reduced to:  19 ShMem   1 Linda.
 NMat=     1 NSing=     0 JSym2X= 2.
 CoulSu:  requested number of processors reduced to:  19 ShMem   1 Linda.
 New state      1 was old state      2
 Excitation Energies [eV] at current iteration:
 Root      1 :     5.834659369680862
 Root      2 :     6.025051806034978
 Root      3 :     6.025126552916747
 Root      4 :     6.067601355009226
 Root      5 :     6.642896595082646
 Root      6 :     6.642975678521699
 Root      7 :     6.928475418620996
 Root      8 :     6.928562403100688
 Root      9 :     8.325400797580716
 Root     10 :     8.405302694346501
 Root     11 :     8.627839926058133
 Root     12 :     8.748835863512864
 Root     13 :     9.004857324590663
 Root     14 :     9.064982742780762
 Root     15 :     9.065151236353641
 Root     16 :     9.102507881136409
 Root     17 :     9.102670506007673
 Root     18 :     9.248529910583528
 Root     19 :     9.291756439282381
 Root     20 :     9.311557740956527
 Root     21 :     9.450002581154916
 Root     22 :     9.482099974946193
 Root     23 :     9.584436246952722
 Root     24 :     9.585046526738729
 Iteration     2 Dimension    48 NMult    24 NNew     24
 Estimated number of processors is:   18
 CISAX will form     1 AO SS matrices at one time.
 NMat=     1 NSing=     1 JSym2X= 2.
 CoulSu:  requested number of processors reduced to:  19 ShMem   1 Linda.
 NMat=     1 NSing=     1 JSym2X= 2.
 CoulSu:  requested number of processors reduced to:  19 ShMem   1 Linda.
 NMat=     1 NSing=     1 JSym2X= 2.
 CoulSu:  requested number of processors reduced to:  19 ShMem   1 Linda.
 NMat=     1 NSing=     1 JSym2X= 2.
 CoulSu:  requested number of processors reduced to:  19 ShMem   1 Linda.
 NMat=     1 NSing=     1 JSym2X= 2.
 CoulSu:  requested number of processors reduced to:  19 ShMem   1 Linda.
 NMat=     1 NSing=     1 JSym2X= 2.
 CoulSu:  requested number of processors reduced to:  19 ShMem   1 Linda.
 NMat=     1 NSing=     1 JSym2X= 2.
 CoulSu:  requested number of processors reduced to:  19 ShMem   1 Linda.
 NMat=     1 NSing=     1 JSym2X= 2.
 CoulSu:  requested number of processors reduced to:  19 ShMem   1 Linda.
 NMat=     1 NSing=     1 JSym2X= 2.
 CoulSu:  requested number of processors reduced to:  19 ShMem   1 Linda.
 NMat=     1 NSing=     1 JSym2X= 2.
 CoulSu:  requested number of processors reduced to:  19 ShMem   1 Linda.
 NMat=     1 NSing=     1 JSym2X= 2.
 CoulSu:  requested number of processors reduced to:  19 ShMem   1 Linda.
 NMat=     1 NSing=     1 JSym2X= 2.
 CoulSu:  requested number of processors reduced to:  19 ShMem   1 Linda.
 NMat=     1 NSing=     0 JSym2X= 2.
 CoulSu:  requested number of processors reduced to:  19 ShMem   1 Linda.
 NMat=     1 NSing=     0 JSym2X= 2.
 CoulSu:  requested number of processors reduced to:  19 ShMem   1 Linda.
 NMat=     1 NSing=     0 JSym2X= 2.
 CoulSu:  requested number of processors reduced to:  19 ShMem   1 Linda.
 NMat=     1 NSing=     0 JSym2X= 2.
 CoulSu:  requested number of processors reduced to:  19 ShMem   1 Linda.
 NMat=     1 NSing=     0 JSym2X= 2.
 CoulSu:  requested number of processors reduced to:  19 ShMem   1 Linda.
 NMat=     1 NSing=     0 JSym2X= 2.
 CoulSu:  requested number of processors reduced to:  19 ShMem   1 Linda.
 NMat=     1 NSing=     0 JSym2X= 2.
 CoulSu:  requested number of processors reduced to:  19 ShMem   1 Linda.
 NMat=     1 NSing=     0 JSym2X= 2.
 CoulSu:  requested number of processors reduced to:  19 ShMem   1 Linda.
 NMat=     1 NSing=     0 JSym2X= 2.
 CoulSu:  requested number of processors reduced to:  19 ShMem   1 Linda.
 NMat=     1 NSing=     0 JSym2X= 2.
 CoulSu:  requested number of processors reduced to:  19 ShMem   1 Linda.
 NMat=     1 NSing=     0 JSym2X= 2.
 CoulSu:  requested number of processors reduced to:  19 ShMem   1 Linda.
 NMat=     1 NSing=     0 JSym2X= 2.
 CoulSu:  requested number of processors reduced to:  19 ShMem   1 Linda.
 Root      1 not converged, maximum delta is    0.037429194403996
 Excitation Energies [eV] at current iteration:
 Root      1 :     5.649127340341290   Change is   -0.185532029339572
 Root      2 :     5.663792362790936   Change is   -0.361259443244042
 Root      3 :     5.663970109024175   Change is   -0.361156443892573
 Root      4 :     5.958147270253366   Change is   -0.109454084755860
 Root      5 :     6.426274999284666   Change is   -0.216621595797980
 Root      6 :     6.426434420139866   Change is   -0.216541258381834
 Root      7 :     6.775742972841550   Change is   -0.152732445779447
 Root      8 :     6.775875360918255   Change is   -0.152687042182433
 Root      9 :     7.357218051190421   Change is   -1.270621874867712
 Root     10 :     7.360235952465997   Change is   -1.388599911046867
 Root     11 :     7.885662665685050   Change is   -0.439738131895666
 Root     12 :     8.173121141823509   Change is   -0.232181552522991
 Root     13 :     8.615274368115434   Change is   -0.449708374665327
 Root     14 :     8.615536079502082   Change is   -0.449615156851558
 Root     15 :     8.627857333617257   Change is   -0.376999990973406
 Root     16 :     8.824303178731508   Change is   -0.278204702404900
 Root     17 :     8.824643610391789   Change is   -0.278026895615884
 Root     18 :     8.876743885097364   Change is   -0.371786025486165
 Root     19 :     9.033238367247968   Change is   -0.416764213906948
 Root     20 :     9.157000619005490   Change is   -0.134755820276890
 Root     21 :     9.190221612982437   Change is   -0.394214633970285
 Root     22 :     9.191880612276409   Change is   -0.119677128680119
 Root     23 :     9.282293280516711   Change is   -0.199806694429481
 Root     24 :     9.345222879689659   Change is   -0.239823647049070
 Iteration     3 Dimension    54 NMult    48 NNew      6
 Estimated number of processors is:   18
 CISAX will form     1 AO SS matrices at one time.
 NMat=     1 NSing=     1 JSym2X= 2.
 CoulSu:  requested number of processors reduced to:  19 ShMem   1 Linda.
 NMat=     1 NSing=     1 JSym2X= 2.
 CoulSu:  requested number of processors reduced to:  19 ShMem   1 Linda.
 NMat=     1 NSing=     1 JSym2X= 2.
 CoulSu:  requested number of processors reduced to:  19 ShMem   1 Linda.
 NMat=     1 NSing=     0 JSym2X= 2.
 CoulSu:  requested number of processors reduced to:  19 ShMem   1 Linda.
 NMat=     1 NSing=     0 JSym2X= 2.
 CoulSu:  requested number of processors reduced to:  19 ShMem   1 Linda.
 NMat=     1 NSing=     0 JSym2X= 2.
 CoulSu:  requested number of processors reduced to:  19 ShMem   1 Linda.
 Root      1 not converged, maximum delta is    0.007253279736266
 Excitation Energies [eV] at current iteration:
 Root      1 :     5.642969681040978   Change is   -0.006157659300312
 Root      2 :     5.653722377349125   Change is   -0.010069985441811
 Root      3 :     5.653902369820865   Change is   -0.010067739203310
 Root      4 :     5.954562607798117   Change is   -0.003584662455250
 Root      5 :     6.745405606595220   Change is   -0.030337366246329
 Root      6 :     6.745552949039808   Change is   -0.030322411878448
 Iteration     4 Dimension    60 NMult    54 NNew      6
 Estimated number of processors is:   18
 CISAX will form     1 AO SS matrices at one time.
 NMat=     1 NSing=     1 JSym2X= 2.
 CoulSu:  requested number of processors reduced to:  19 ShMem   1 Linda.
 NMat=     1 NSing=     1 JSym2X= 2.
 CoulSu:  requested number of processors reduced to:  19 ShMem   1 Linda.
 NMat=     1 NSing=     1 JSym2X= 2.
 CoulSu:  requested number of processors reduced to:  19 ShMem   1 Linda.
 NMat=     1 NSing=     0 JSym2X= 2.
 CoulSu:  requested number of processors reduced to:  19 ShMem   1 Linda.
 NMat=     1 NSing=     0 JSym2X= 2.
 CoulSu:  requested number of processors reduced to:  19 ShMem   1 Linda.
 NMat=     1 NSing=     0 JSym2X= 2.
 CoulSu:  requested number of processors reduced to:  19 ShMem   1 Linda.
 Root      1 has converged.
 Excitation Energies [eV] at current iteration:
 Root      1 :     5.642820807573543   Change is   -0.000148873467436
 Root      2 :     5.653038056038398   Change is   -0.000684321310727
 Root      3 :     5.653216919505456   Change is   -0.000685450315409
 Root      4 :     5.954423248946195   Change is   -0.000139358851922
 Root      5 :     6.743590835334285   Change is   -0.001814771260935
 Root      6 :     6.743739588813090   Change is   -0.001813360226717
 Convergence achieved on expansion vectors.
 ***********************************************************************
 Stability analysis using <AA,BB:AA,BB> singles matrix:
 ***********************************************************************
 1PDM for each excited state written to RWF  633
 Ground to excited state transition densities written to RWF  633

 Eigenvectors of the stability matrix:
 
 Eigenvector   1:      Triplet-A1"  Eigenvalue= 0.2073698  <S**2>=2.000
      28 -> 29         0.69734
 The wavefunction is stable under the perturbations considered.
 Leave Link  914 at Sat Apr 17 06:03:40 2021, MaxMem=   104857600 cpu:           11665.4 elap:             322.9
 (Enter /s/ls4/users/knvvv/bin/g16sse/l508.exe)
 The wavefunction is already stable.
 Leave Link  508 at Sat Apr 17 06:03:40 2021, MaxMem=   104857600 cpu:               2.2 elap:               0.1
 (Enter /s/ls4/users/knvvv/bin/g16sse/l601.exe)
 Copying SCF densities to generalized density rwf, IOpCl= 0 IROHF=0.

 **********************************************************************

            Population analysis using the SCF density.

 **********************************************************************

 Orbital symmetries:
       Occupied  (E') (E') (A1') (E') (E') (A1') (E') (E') (A1')
                 (E") (E") (A2") (A2') (E') (E') (A1') (A1') (E')
                 (E') (A1') (E') (E') (A2") (E') (E') (E") (E")
                 (A2')
       Virtual   (A2") (A1') (E') (E') (A2") (E') (E') (A1') (E")
                 (E") (A1') (A2') (E') (E') (A1') (A1') (E") (E")
                 (E') (E') (A2") (E') (E') (E') (E') (A1') (E")
                 (E") (E') (E') (A1') (A2") (A1") (A2') (E") (E")
                 (E') (E') (E') (E') (E") (E") (A1') (A2") (E')
                 (E') (A1') (E') (E') (E") (E") (A1') (E') (E')
                 (A2') (A1") (E') (E') (E") (E") (A2') (A2") (A2")
                 (A1') (E') (E') (A1') (E") (E") (E') (E') (E')
                 (E') (A1') (E') (E') (A1') (E") (E") (E') (E')
                 (A2") (A1') (E") (E") (A2") (A2') (E') (E') (A2')
                 (E") (E") (E') (E') (A1') (A2") (E") (E") (A2')
                 (A1") (E') (E') (E') (E') (A1') (E") (E") (A1")
                 (E") (E") (A1') (E') (E') (A2") (E') (E') (E')
                 (E') (A2") (E') (E') (A2') (A1') (E") (E") (E')
                 (E') (E") (E") (A1') (E') (E') (A2") (A1') (E')
                 (E') (A2') (A1') (E') (E') (A1") (E') (E') (A2")
                 (E") (E") (A1') (A2') (E') (E') (E") (E") (A1')
                 (A1") (A2") (E") (E") (E') (E') (A2') (E') (E')
                 (A1') (E") (E") (A1') (A1") (E') (E') (E") (E")
                 (E') (E') (E") (E") (A2") (A1') (E') (E') (E")
                 (E") (A2") (A2') (E') (E') (E') (E') (E") (E")
                 (A2") (A2') (E') (E') (A1') (A1") (A2") (E") (E")
                 (E") (E") (E') (E') (E') (E') (A1') (E') (E')
                 (E') (E') (E") (E") (A1') (A2') (E") (E") (A1')
                 (A2') (A2") (A1') (A1") (E') (E') (E') (E') (A2")
                 (A2') (E") (E") (A1') (E') (E') (E') (E') (A1')
                 (E') (E') (A1') (E") (E") (A1") (A1') (E') (E')
                 (A2") (E") (E") (E') (E') (A2') (A1') (E') (E')
                 (A1') (E') (E') (A1') (A2") (E") (E") (A2') (E')
                 (E') (E') (E') (A1') (E') (E') (A1') (A1') (E')
                 (E') (A1')
 The electronic state is 1-A1'.
 Alpha  occ. eigenvalues -- -102.67440-102.67440-102.67440  -9.83109  -9.83109
 Alpha  occ. eigenvalues --   -9.83108  -7.55443  -7.55443  -7.55443  -7.55189
 Alpha  occ. eigenvalues --   -7.55189  -7.55188  -7.55080  -7.55080  -7.55080
 Alpha  occ. eigenvalues --   -7.20697  -0.99481  -0.94349  -0.94349  -0.60366
 Alpha  occ. eigenvalues --   -0.52354  -0.52354  -0.47942  -0.41753  -0.41753
 Alpha  occ. eigenvalues --   -0.41133  -0.41133  -0.38597
 Alpha virt. eigenvalues --   -0.03588  -0.00585   0.01655   0.01655   0.02172
 Alpha virt. eigenvalues --    0.03777   0.03777   0.04157   0.04700   0.04700
 Alpha virt. eigenvalues --    0.06775   0.07443   0.12230   0.12230   0.12316
 Alpha virt. eigenvalues --    0.13339   0.13446   0.13446   0.14332   0.14332
 Alpha virt. eigenvalues --    0.14425   0.15935   0.15935   0.19076   0.19076
 Alpha virt. eigenvalues --    0.19766   0.20919   0.20919   0.22951   0.22951
 Alpha virt. eigenvalues --    0.24957   0.25394   0.25648   0.25792   0.27082
 Alpha virt. eigenvalues --    0.27082   0.32326   0.32326   0.33074   0.33074
 Alpha virt. eigenvalues --    0.37484   0.37484   0.38604   0.38630   0.39508
 Alpha virt. eigenvalues --    0.39508   0.42667   0.44916   0.44916   0.47240
 Alpha virt. eigenvalues --    0.47240   0.48175   0.49739   0.49739   0.50813
 Alpha virt. eigenvalues --    0.51552   0.51975   0.51975   0.53301   0.53301
 Alpha virt. eigenvalues --    0.56024   0.58172   0.59056   0.63509   0.65901
 Alpha virt. eigenvalues --    0.65901   0.66722   0.71375   0.71375   0.76208
 Alpha virt. eigenvalues --    0.76208   0.85146   0.85146   0.89102   0.94216
 Alpha virt. eigenvalues --    0.94216   1.14871   1.15553   1.15553   1.18325
 Alpha virt. eigenvalues --    1.18325   1.20145   1.21259   1.22728   1.22728
 Alpha virt. eigenvalues --    1.23558   1.25342   1.29511   1.29511   1.31022
 Alpha virt. eigenvalues --    1.31030   1.31030   1.32545   1.32545   1.35340
 Alpha virt. eigenvalues --    1.35618   1.36042   1.36042   1.36827   1.37118
 Alpha virt. eigenvalues --    1.39617   1.39617   1.41262   1.41262   1.41378
 Alpha virt. eigenvalues --    1.41881   1.41881   1.45829   1.47376   1.47376
 Alpha virt. eigenvalues --    1.49921   1.50050   1.50050   1.55341   1.57241
 Alpha virt. eigenvalues --    1.57241   1.64804   1.64804   1.64925   1.80007
 Alpha virt. eigenvalues --    1.80007   1.83809   1.89882   1.92308   1.92308
 Alpha virt. eigenvalues --    2.09262   2.09262   2.11443   2.11443   2.15109
 Alpha virt. eigenvalues --    2.21324   2.21324   2.38198   2.38433   2.39647
 Alpha virt. eigenvalues --    2.39647   2.45742   2.65939   2.99092   2.99092
 Alpha virt. eigenvalues --    3.02401   3.11619   3.11619   3.12154   3.13739
 Alpha virt. eigenvalues --    3.13739   3.21671   3.28983   3.36840   3.36840
 Alpha virt. eigenvalues --    3.38500   3.38500   3.39990   3.42172   3.43761
 Alpha virt. eigenvalues --    3.44248   3.44248   3.44588   3.44588   3.47357
 Alpha virt. eigenvalues --    3.50442   3.50442   3.50445   3.51185   3.51185
 Alpha virt. eigenvalues --    3.54321   3.54429   3.54814   3.54814   3.55704
 Alpha virt. eigenvalues --    3.55704   3.57226   3.57226   3.58757   3.58757
 Alpha virt. eigenvalues --    3.63239   3.68669   3.71820   3.71820   3.76760
 Alpha virt. eigenvalues --    3.76760   3.80302   3.81426   3.89536   3.89536
 Alpha virt. eigenvalues --    3.91798   3.91798   3.91834   3.91834   3.94060
 Alpha virt. eigenvalues --    3.94377   3.94549   3.94549   3.95954   3.97320
 Alpha virt. eigenvalues --    4.00601   4.05299   4.05299   4.11678   4.11678
 Alpha virt. eigenvalues --    4.13370   4.13370   4.15523   4.15523   4.18389
 Alpha virt. eigenvalues --    4.24442   4.24442   4.30679   4.30679   4.30682
 Alpha virt. eigenvalues --    4.30682   4.38445   4.39135   4.40526   4.40526
 Alpha virt. eigenvalues --    4.43374   4.52937   4.54034   4.69069   4.71508
 Alpha virt. eigenvalues --    4.79616   4.79616   4.91179   4.91179   5.21098
 Alpha virt. eigenvalues --    5.21161   5.22089   5.22089   5.37689   5.56471
 Alpha virt. eigenvalues --    5.56471   6.35477   6.35477   6.70603   8.71286
 Alpha virt. eigenvalues --    8.71286   8.79732  10.76091  10.76091  10.77425
 Alpha virt. eigenvalues --   10.78417  10.80473  10.80473  10.85478  10.91075
 Alpha virt. eigenvalues --   10.91075  10.94522  10.94522  11.14963  11.25013
 Alpha virt. eigenvalues --   11.34781  11.34781  19.46643  28.79894  28.79894
 Alpha virt. eigenvalues --   28.86877  42.03045  42.03243  42.03243  42.03986
 Alpha virt. eigenvalues --   42.04677  42.04677  42.15036  42.15036  42.17638
 Alpha virt. eigenvalues --   98.56327  98.56327  98.59780 100.85763 524.55906
 Alpha virt. eigenvalues --  524.55906 524.65316
          Condensed to atoms (all electrons):
               1          2          3          4
     1  B    3.404306   0.366554   0.366554   0.366554
     2  Cl   0.366554  16.931541  -0.066376  -0.066376
     3  Cl   0.366554  -0.066376  16.931541  -0.066376
     4  Cl   0.366554  -0.066376  -0.066376  16.931541
 Mulliken charges:
               1
     1  B    0.496031
     2  Cl  -0.165344
     3  Cl  -0.165344
     4  Cl  -0.165344
 Sum of Mulliken charges =  -0.00000
 Mulliken charges with hydrogens summed into heavy atoms:
               1
     1  B    0.496031
     2  Cl  -0.165344
     3  Cl  -0.165344
     4  Cl  -0.165344
 Electronic spatial extent (au):  <R**2>=            653.1799
 Charge=             -0.0000 electrons
 Dipole moment (field-independent basis, Debye):
    X=              0.0000    Y=              0.0000    Z=              0.0000  Tot=              0.0000
 Quadrupole moment (field-independent basis, Debye-Ang):
   XX=            -43.2929   YY=            -43.2929   ZZ=            -42.3553
   XY=             -0.0000   XZ=             -0.0000   YZ=              0.0000
 Traceless Quadrupole moment (field-independent basis, Debye-Ang):
   XX=             -0.3125   YY=             -0.3125   ZZ=              0.6251
   XY=             -0.0000   XZ=             -0.0000   YZ=              0.0000
 Octapole moment (field-independent basis, Debye-Ang**2):
  XXX=              0.0000  YYY=              3.6994  ZZZ=              0.0000  XYY=              0.0000
  XXY=             -3.6994  XXZ=              0.0000  XZZ=              0.0000  YZZ=             -0.0000
  YYZ=             -0.0000  XYZ=             -0.0000
 Hexadecapole moment (field-independent basis, Debye-Ang**3):
 XXXX=           -376.8592 YYYY=           -376.8592 ZZZZ=            -48.5728 XXXY=             -0.0000
 XXXZ=             -0.0000 YYYX=              0.0000 YYYZ=              0.0000 ZZZX=             -0.0000
 ZZZY=              0.0000 XXYY=           -125.6197 XXZZ=            -73.8421 YYZZ=            -73.8421
 XXYZ=              0.0000 YYXZ=             -0.0000 ZZXY=              0.0000
 N-N= 2.285625460178D+02 E-N=-3.798420089965D+03  KE= 1.403556189409D+03
 PrsmSu:  requested number of processors reduced to:  21 ShMem   1 Linda.
 No NMR shielding tensors so no spin-rotation constants.
 Leave Link  601 at Sat Apr 17 06:03:51 2021, MaxMem=   104857600 cpu:             505.6 elap:              10.9
 (Enter /s/ls4/users/knvvv/bin/g16sse/l9999.exe)

 Test job not archived.
 1\1\GINC-N178\Stability\RM062X\Gen\B1Cl3\KNVVV\17-Apr-2021\0\\#P M062X
 /GEN Integral=UltraFineGrid SCF=NoSymm Stable=(RExt, Opt) IOp(1/33=1)\
 \Database calculations.\\0,1\B,0,0.,0.,0.\Cl,0,-0.8746545758,1.5149461
 644,0.\Cl,0,-0.8746545758,-1.5149461644,0.\Cl,0,1.7493091516,0.,0.\\Ve
 rsion=ES64L-G16RevA.03\State=1-A1'\HF=-1405.6165\RMSD=9.963e-10\Dipole
 =0.,0.,0.\Quadrupole=-0.2323617,-0.2323617,0.4647233,0.,0.,0.\PG=D03H 
 [O(B1),3C2(Cl1)]\\@


 Any fool can criticize, condemn, and complain -- and most do.
 -- Dale Carnegie
 Job cpu time:       0 days  9 hours 33 minutes 24.1 seconds.
 Elapsed time:       0 days  0 hours 13 minutes 32.3 seconds.
 File lengths (MBytes):  RWF=    380 Int=      0 D2E=      0 Chk=     14 Scr=      1
 Normal termination of Gaussian 16 at Sat Apr 17 06:03:51 2021.
