 Entering Gaussian System, Link 0=/s/ls4/users/knvvv/bin/g16sse/g16
 Input=data/database/M062X--def2-QZVPPD--24_Si_AE18.gjf
 Output=data/database/M062X--def2-QZVPPD--24_Si_AE18.log
 Initial command:
 /s/ls4/users/knvvv/bin/g16sse/l1.exe "/s/ls4/users/knvvv/bin/scratch/Gau-29908.inp" -scrdir="/s/ls4/users/knvvv/bin/scratch/"
 Entering Link 1 = /s/ls4/users/knvvv/bin/g16sse/l1.exe PID=     29909.
  
 Copyright (c) 1988,1990,1992,1993,1995,1998,2003,2009,2016,
            Gaussian, Inc.  All Rights Reserved.
  
 This is part of the Gaussian(R) 16 program.  It is based on
 the Gaussian(R) 09 system (copyright 2009, Gaussian, Inc.),
 the Gaussian(R) 03 system (copyright 2003, Gaussian, Inc.),
 the Gaussian(R) 98 system (copyright 1998, Gaussian, Inc.),
 the Gaussian(R) 94 system (copyright 1995, Gaussian, Inc.),
 the Gaussian 92(TM) system (copyright 1992, Gaussian, Inc.),
 the Gaussian 90(TM) system (copyright 1990, Gaussian, Inc.),
 the Gaussian 88(TM) system (copyright 1988, Gaussian, Inc.),
 the Gaussian 86(TM) system (copyright 1986, Carnegie Mellon
 University), and the Gaussian 82(TM) system (copyright 1983,
 Carnegie Mellon University). Gaussian is a federally registered
 trademark of Gaussian, Inc.
  
 This software contains proprietary and confidential information,
 including trade secrets, belonging to Gaussian, Inc.
  
 This software is provided under written license and may be
 used, copied, transmitted, or stored only in accord with that
 written license.
  
 The following legend is applicable only to US Government
 contracts under FAR:
  
                    RESTRICTED RIGHTS LEGEND
  
 Use, reproduction and disclosure by the US Government is
 subject to restrictions as set forth in subparagraphs (a)
 and (c) of the Commercial Computer Software - Restricted
 Rights clause in FAR 52.227-19.
  
 Gaussian, Inc.
 340 Quinnipiac St., Bldg. 40, Wallingford CT 06492
  
  
 ---------------------------------------------------------------
 Warning -- This program may not be used in any manner that
 competes with the business of Gaussian, Inc. or will provide
 assistance to any competitor of Gaussian, Inc.  The licensee
 of this program is prohibited from giving any competitor of
 Gaussian, Inc. access to this program.  By using this program,
 the user acknowledges that Gaussian, Inc. is engaged in the
 business of creating and licensing software in the field of
 computational chemistry and represents and warrants to the
 licensee that it is not a competitor of Gaussian, Inc. and that
 it will not use this program in any manner prohibited above.
 ---------------------------------------------------------------
  

 Cite this work as:
 Gaussian 16, Revision A.03,
 M. J. Frisch, G. W. Trucks, H. B. Schlegel, G. E. Scuseria, 
 M. A. Robb, J. R. Cheeseman, G. Scalmani, V. Barone, 
 G. A. Petersson, H. Nakatsuji, X. Li, M. Caricato, A. V. Marenich, 
 J. Bloino, B. G. Janesko, R. Gomperts, B. Mennucci, H. P. Hratchian, 
 J. V. Ortiz, A. F. Izmaylov, J. L. Sonnenberg, D. Williams-Young, 
 F. Ding, F. Lipparini, F. Egidi, J. Goings, B. Peng, A. Petrone, 
 T. Henderson, D. Ranasinghe, V. G. Zakrzewski, J. Gao, N. Rega, 
 G. Zheng, W. Liang, M. Hada, M. Ehara, K. Toyota, R. Fukuda, 
 J. Hasegawa, M. Ishida, T. Nakajima, Y. Honda, O. Kitao, H. Nakai, 
 T. Vreven, K. Throssell, J. A. Montgomery, Jr., J. E. Peralta, 
 F. Ogliaro, M. J. Bearpark, J. J. Heyd, E. N. Brothers, K. N. Kudin, 
 V. N. Staroverov, T. A. Keith, R. Kobayashi, J. Normand, 
 K. Raghavachari, A. P. Rendell, J. C. Burant, S. S. Iyengar, 
 J. Tomasi, M. Cossi, J. M. Millam, M. Klene, C. Adamo, R. Cammi, 
 J. W. Ochterski, R. L. Martin, K. Morokuma, O. Farkas, 
 J. B. Foresman, and D. J. Fox, Gaussian, Inc., Wallingford CT, 2016.
 
 ******************************************
 Gaussian 16:  ES64L-G16RevA.03 25-Dec-2016
                17-Apr-2021 
 ******************************************
 %RWF=temp7_62321,70GB
 %nprocshared=48
 Will use up to   48 processors via shared memory.
 Default route: MaxDisk=80GB
 ----------------------------------------------------------------------
 #P M062X/GEN Integral=UltraFineGrid SCF=NoSymm Stable=(RExt, Opt) IOp(
 1/33=1)
 ----------------------------------------------------------------------
 1/33=1,38=1,172=1/1;
 2/12=2,17=6,18=5,40=1/2;
 3/5=7,11=2,25=1,30=1,74=-55,75=-5/1,2,3;
 4/9=2/1;
 5/5=2,38=5/2;
 6/7=2,8=2,9=2,10=2,28=1/1;
 8/6=1,10=90,11=11/1;
 9/8=-3,42=1,46=1/14;
 5/5=2,8=3,17=40,38=5/8(-2);
 6/7=2,8=2,9=2,10=2,28=1/1;
 99/5=1,9=1/99;
 Leave Link    1 at Sat Apr 17 21:13:54 2021, MaxMem=           0 cpu:               7.4 elap:               0.2
 (Enter /s/ls4/users/knvvv/bin/g16sse/l101.exe)
 ONIOM data not found on unit 2.
 ----------------------
 Database calculations.
 ----------------------
 TstMul:  ICh=     0
 TstMul:  Mul=     3
 TstMul:  ICh=     0
 TstMul:  Mul=     3
 Symbolic Z-matrix:
 Charge =  0 Multiplicity = 3
 Si                    0.        0.        0. 
 
 RdStrC is calling ZToCFu for IStruc=1 NZ=     1.
 PrtBox:  NBox=     1 Levels=  0 BoxLen=    8.00 SMaxX=        0.00
          Shift=            0.000000            0.000000            0.000000
 Box      1 Number                   0 centers from      1 to      1:
 After GenITR:
 ITRead=  0
 MicOpt= -1
 ITRead=  0
 MicOpt= -1
 NAtoms=      1 NQM=        1 NQMF=       0 NMMI=      0 NMMIF=      0
                NMic=       0 NMicF=      0.
                    Isotopes and Nuclear Properties:
 (Nuclear quadrupole moments (NQMom) in fm**2, nuclear magnetic moments (NMagM)
  in nuclear magnetons)

  Atom         1
 IAtWgt=          28
 AtmWgt=  27.9769284
 NucSpn=           0
 AtZEff=  -0.0000000
 NQMom=    0.0000000
 NMagM=    0.0000000
 AtZNuc=  14.0000000
 No MM parameters found.
 Leave Link  101 at Sat Apr 17 21:13:54 2021, MaxMem=   104857600 cpu:               6.6 elap:               0.2
 (Enter /s/ls4/users/knvvv/bin/g16sse/l202.exe)
                          Input orientation:                          
 ---------------------------------------------------------------------
 Center     Atomic      Atomic             Coordinates (Angstroms)
 Number     Number       Type             X           Y           Z
 ---------------------------------------------------------------------
      1         14           0        0.000000    0.000000    0.000000
 ---------------------------------------------------------------------
 Stoichiometry    Si(3)
 Framework group  OH[O(Si)]
 Deg. of freedom     0
 Full point group                 OH      NOp  48
 Largest Abelian subgroup         D2H     NOp   8
 Largest concise Abelian subgroup C1      NOp   1
                         Standard orientation:                         
 ---------------------------------------------------------------------
 Center     Atomic      Atomic             Coordinates (Angstroms)
 Number     Number       Type             X           Y           Z
 ---------------------------------------------------------------------
      1         14           0        0.000000    0.000000    0.000000
 ---------------------------------------------------------------------
 Leave Link  202 at Sat Apr 17 21:13:55 2021, MaxMem=   104857600 cpu:              33.3 elap:               0.7
 (Enter /s/ls4/users/knvvv/bin/g16sse/l301.exe)
 General basis read from cards:  (5D, 7F)
 Centers:       1
 S 10 1.00
     Exponent=  9.1807069565D+05 Coefficients=  1.2658787192D-05
     Exponent=  1.3748525386D+05 Coefficients=  9.8408387461D-05
     Exponent=  3.1287772714D+04 Coefficients=  5.1731398244D-04
     Exponent=  8.8616105697D+03 Coefficients=  2.1785441933D-03
     Exponent=  2.8906943156D+03 Coefficients=  7.8656853716D-03
     Exponent=  1.0434063979D+03 Coefficients=  2.4987553674D-02
     Exponent=  4.0680160276D+02 Coefficients=  6.9761818844D-02
     Exponent=  1.6848360207D+02 Coefficients=  1.6473362733D-01
     Exponent=  7.3185628823D+01 Coefficients=  3.0285602647D-01
     Exponent=  3.2998485420D+01 Coefficients=  3.6007260439D-01
 S 3 1.00
     Exponent=  2.7878751325D+02 Coefficients=  2.0185463814D-02
     Exponent=  8.5910228722D+01 Coefficients=  1.7720406747D-01
     Exponent=  3.2992604031D+01 Coefficients=  6.3587860906D-01
 S 1 1.00
     Exponent=  1.5033693254D+01 Coefficients=  1.0000000000D+00
 S 1 1.00
     Exponent=  5.7257514773D+00 Coefficients=  1.0000000000D+00
 S 1 1.00
     Exponent=  2.6146521029D+00 Coefficients=  1.0000000000D+00
 S 1 1.00
     Exponent=  1.1757833152D+00 Coefficients=  1.0000000000D+00
 S 1 1.00
     Exponent=  3.5432330868D-01 Coefficients=  1.0000000000D+00
 S 1 1.00
     Exponent=  1.6248335806D-01 Coefficients=  1.0000000000D+00
 S 1 1.00
     Exponent=  6.8332457181D-02 Coefficients=  1.0000000000D+00
 S 1 1.00
     Exponent=  3.0521078871D-02 Coefficients=  1.0000000000D+00
 P 8 1.00
     Exponent=  1.7758850516D+03 Coefficients=  2.0186971126D-04
     Exponent=  4.2083786849D+02 Coefficients=  1.7544314655D-03
     Exponent=  1.3642290243D+02 Coefficients=  9.5039532290D-03
     Exponent=  5.1700991737D+01 Coefficients=  3.7325741590D-02
     Exponent=  2.1559456002D+01 Coefficients=  1.1085396329D-01
     Exponent=  9.5559200095D+00 Coefficients=  2.3756407046D-01
     Exponent=  4.3529819473D+00 Coefficients=  3.5295783750D-01
     Exponent=  2.0096964381D+00 Coefficients=  3.2885931947D-01
 P 2 1.00
     Exponent=  4.6418153780D+01 Coefficients=  2.5858819154D-02
     Exponent=  1.9076417796D+00 Coefficients= -5.9874865899D-01
 P 1 1.00
     Exponent=  9.2337221587D-01 Coefficients=  1.0000000000D+00
 P 1 1.00
     Exponent=  3.4515720370D-01 Coefficients=  1.0000000000D+00
 P 1 1.00
     Exponent=  1.3656834761D-01 Coefficients=  1.0000000000D+00
 P 1 1.00
     Exponent=  5.2987060586D-02 Coefficients=  1.0000000000D+00
 D 1 1.00
     Exponent=  2.6450000000D+00 Coefficients=  1.0000000000D+00
 D 1 1.00
     Exponent=  6.0800000000D-01 Coefficients=  1.0000000000D+00
 D 1 1.00
     Exponent=  2.7200000000D-01 Coefficients=  1.0000000000D+00
 D 1 1.00
     Exponent=  1.1300000000D-01 Coefficients=  1.0000000000D+00
 D 1 1.00
     Exponent=  4.4018904228D-02 Coefficients=  1.0000000000D+00
 F 1 1.00
     Exponent=  5.4100000000D-01 Coefficients=  1.0000000000D+00
 F 1 1.00
     Exponent=  2.1200000000D-01 Coefficients=  1.0000000000D+00
 G 1 1.00
     Exponent=  4.6100000000D-01 Coefficients=  1.0000000000D+00
 ****
 Ernie: Thresh=  0.10000D-02 Tol=  0.10000D-05 Strict=F.
 There are    31 symmetry adapted cartesian basis functions of AG  symmetry.
 There are     8 symmetry adapted cartesian basis functions of B1G symmetry.
 There are     8 symmetry adapted cartesian basis functions of B2G symmetry.
 There are     8 symmetry adapted cartesian basis functions of B3G symmetry.
 There are     2 symmetry adapted cartesian basis functions of AU  symmetry.
 There are    12 symmetry adapted cartesian basis functions of B1U symmetry.
 There are    12 symmetry adapted cartesian basis functions of B2U symmetry.
 There are    12 symmetry adapted cartesian basis functions of B3U symmetry.
 There are    23 symmetry adapted basis functions of AG  symmetry.
 There are     7 symmetry adapted basis functions of B1G symmetry.
 There are     7 symmetry adapted basis functions of B2G symmetry.
 There are     7 symmetry adapted basis functions of B3G symmetry.
 There are     2 symmetry adapted basis functions of AU  symmetry.
 There are    10 symmetry adapted basis functions of B1U symmetry.
 There are    10 symmetry adapted basis functions of B2U symmetry.
 There are    10 symmetry adapted basis functions of B3U symmetry.
    76 basis functions,   128 primitive gaussians,    93 cartesian basis functions
     8 alpha electrons        6 beta electrons
       nuclear repulsion energy         0.0000000000 Hartrees.
 IExCor= 4336 DFT=T Ex+Corr=M062X ExCW=0 ScaHFX=  0.540000
 ScaDFX=  1.000000  1.000000  1.000000  1.000000 ScalE2=  1.000000  1.000000
 IRadAn=      5 IRanWt=     -1 IRanGd=            0 ICorTp=0 IEmpDi=  4
 NAtoms=    1 NActive=    1 NUniq=    1 SFac= 1.00D+00 NAtFMM=   60 NAOKFM=F Big=F
 Integral buffers will be    131072 words long.
 Raffenetti 2 integral format.
 Two-electron integral symmetry is turned on.
 Leave Link  301 at Sat Apr 17 21:13:55 2021, MaxMem=   104857600 cpu:              10.3 elap:               0.2
 (Enter /s/ls4/users/knvvv/bin/g16sse/l302.exe)
 NPDir=0 NMtPBC=     1 NCelOv=     1 NCel=       1 NClECP=     1 NCelD=      1
         NCelK=      1 NCelE2=     1 NClLst=     1 CellRange=     0.0.
 One-electron integrals computed using PRISM.
 One-electron integral symmetry used in STVInt
 PrsmSu:  requested number of processors reduced to:   4 ShMem   1 Linda.
 PrsmSu:  requested number of processors reduced to:  21 ShMem   1 Linda.
 NBasis=    76 RedAO= T EigKep=  2.37D-03  NBF=    23     7     7     7     2    10    10    10
 NBsUse=    76 1.00D-06 EigRej= -1.00D+00 NBFU=    23     7     7     7     2    10    10    10
 Precomputing XC quadrature grid using
 IXCGrd= 4 IRadAn=           5 IRanWt=          -1 IRanGd=           0 AccXCQ= 0.00D+00.
 Generated NRdTot=       0 NPtTot=           0 NUsed=           0 NTot=          32
 NSgBfM=    93    93    93    93    93 MxSgAt=     1 MxSgA2=     1.
 Leave Link  302 at Sat Apr 17 21:14:10 2021, MaxMem=   104857600 cpu:             671.8 elap:              14.4
 (Enter /s/ls4/users/knvvv/bin/g16sse/l303.exe)
 DipDrv:  MaxL=1.
 Leave Link  303 at Sat Apr 17 21:14:10 2021, MaxMem=   104857600 cpu:              15.2 elap:               0.3
 (Enter /s/ls4/users/knvvv/bin/g16sse/l401.exe)
 SCF N**3 symmetry information disabled.
 ExpMin= 3.05D-02 ExpMax= 9.18D+05 ExpMxC= 1.04D+03 IAcc=3 IRadAn=         5 AccDes= 0.00D+00
 Harris functional with IExCor= 1009 and IRadAn=       5 diagonalized for initial guess.
 HarFok:  IExCor= 1009 AccDes= 0.00D+00 IRadAn=         5 IDoV= 1 UseB2=F ITyADJ=14
 ICtDFT=  3500011 ScaDFX=  1.000000  1.000000  1.000000  1.000000
 FoFCou: FMM=F IPFlag=           0 FMFlag=      100000 FMFlg1=           0
         NFxFlg=           0 DoJE=T BraDBF=F KetDBF=T FulRan=T
         wScrn=  0.000000 ICntrl=       500 IOpCl=  0 I1Cent=   200000004 NGrid=           0
         NMat0=    1 NMatS0=      1 NMatT0=    0 NMatD0=    1 NMtDS0=    0 NMtDT0=    0
 Petite list used in FoFCou.
 CoulSu:  requested number of processors reduced to:  21 ShMem   1 Linda.
 CoulSu:  requested number of processors reduced to:  21 ShMem   1 Linda.
 CoulSu:  requested number of processors reduced to:  21 ShMem   1 Linda.
 CoulSu:  requested number of processors reduced to:  21 ShMem   1 Linda.
 Harris En= -289.155572472925    
 JPrj=0 DoOrth=F DoCkMO=F.
 Initial guess orbital symmetries:
 Alpha Orbitals:
       Occupied  (A1G) (A1G) (T1U) (T1U) (T1U) (A1G) (T1U) (T1U)
       Virtual   (T1U) (A1G) (T2G) (T2G) (T2G) (EG) (EG) (T1U)
                 (T1U) (T1U) (A1G) (T2G) (T2G) (T2G) (EG) (EG)
                 (T2U) (T2U) (T2U) (A2U) (T1U) (T1U) (T1U) (T2G)
                 (T2G) (T2G) (EG) (EG) (T1U) (T1U) (T1U) (A1G)
                 (T2G) (T2G) (T2G) (EG) (EG) (T1G) (T1G) (T1G)
                 (T2G) (T2G) (T2G) (EG) (EG) (A1G) (T2U) (T2U)
                 (T2U) (A2U) (T1U) (T1U) (T1U) (T1U) (T1U) (T1U)
                 (A1G) (T2G) (T2G) (T2G) (EG) (EG) (T1U) (T1U)
                 (T1U) (A1G) (A1G) (A1G)
 Beta  Orbitals:
       Occupied  (A1G) (A1G) (T1U) (T1U) (T1U) (A1G)
       Virtual   (T1U) (T1U) (T1U) (A1G) (T2G) (T2G) (T2G) (EG)
                 (EG) (T1U) (T1U) (T1U) (A1G) (T2G) (T2G) (T2G)
                 (EG) (EG) (T2U) (T2U) (T2U) (A2U) (T1U) (T1U)
                 (T1U) (T2G) (T2G) (T2G) (EG) (EG) (T1U) (T1U)
                 (T1U) (A1G) (T2G) (T2G) (T2G) (EG) (EG) (T1G)
                 (T1G) (T1G) (T2G) (T2G) (T2G) (EG) (EG) (A1G)
                 (T2U) (T2U) (T2U) (A2U) (T1U) (T1U) (T1U) (T1U)
                 (T1U) (T1U) (A1G) (T2G) (T2G) (T2G) (EG) (EG)
                 (T1U) (T1U) (T1U) (A1G) (A1G) (A1G)
 Initial guess <Sx>= 0.0000 <Sy>= 0.0000 <Sz>= 1.0000 <S**2>= 2.0000 S= 1.0000
 Leave Link  401 at Sat Apr 17 21:14:20 2021, MaxMem=   104857600 cpu:             465.9 elap:              10.1
 (Enter /s/ls4/users/knvvv/bin/g16sse/l502.exe)
 Keep R1 and R2 ints in memory in symmetry-blocked form, NReq=58495504.
 FoFCou: FMM=F IPFlag=           0 FMFlag=           0 FMFlg1=           0
         NFxFlg=           0 DoJE=F BraDBF=F KetDBF=F FulRan=T
         wScrn=  0.000000 ICntrl=       600 IOpCl=  0 I1Cent=           0 NGrid=           0
         NMat0=    1 NMatS0=   2926 NMatT0=    0 NMatD0=    1 NMtDS0=    0 NMtDT0=    0
 Petite list used in FoFCou.
 CoulSu:  requested number of processors reduced to:  22 ShMem   1 Linda.
 UHF open shell SCF:
 Using DIIS extrapolation, IDIIS=  1040.
 NGot=   104857600 LenX=   103702678 LenY=   103693588
 Requested convergence on RMS density matrix=1.00D-08 within 128 cycles.
 Requested convergence on MAX density matrix=1.00D-06.
 Requested convergence on             energy=1.00D-06.
 No special actions if energy rises.

 Cycle   1  Pass 1  IDiag  1:
 Density matrix breaks symmetry, PCut= 1.00D-04
 Density matrix has no symmetry -- integrals replicated.
 E= -289.348020936770    
 DIIS: error= 3.22D-02 at cycle   1 NSaved=   1.
 NSaved= 1 IEnMin= 1 EnMin= -289.348020936770     IErMin= 1 ErrMin= 3.22D-02
 ErrMax= 3.22D-02  0.00D+00 EMaxC= 1.00D-01 BMatC= 1.09D-01 BMatP= 1.09D-01
 IDIUse=3 WtCom= 6.78D-01 WtEn= 3.22D-01
 Coeff-Com:  0.100D+01
 Coeff-En:   0.100D+01
 Coeff:      0.100D+01
 Gap=     0.134 Goal=   None    Shift=    0.000
 Gap=     0.390 Goal=   None    Shift=    0.000
 GapD=    0.134 DampG=1.000 DampE=0.500 DampFc=0.5000 IDamp=-1.
 Damping current iteration by 5.00D-01
 RMSDP=3.19D-03 MaxDP=1.66D-01              OVMax= 6.93D-02

 Cycle   2  Pass 1  IDiag  1:
 Density matrix breaks symmetry, PCut= 1.00D-04
 Density matrix has no symmetry -- integrals replicated.
 E= -289.353259815539     Delta-E=       -0.005238878768 Rises=F Damp=T
 DIIS: error= 1.60D-02 at cycle   2 NSaved=   2.
 NSaved= 2 IEnMin= 2 EnMin= -289.353259815539     IErMin= 2 ErrMin= 1.60D-02
 ErrMax= 1.60D-02  0.00D+00 EMaxC= 1.00D-01 BMatC= 2.29D-02 BMatP= 1.09D-01
 IDIUse=3 WtCom= 8.40D-01 WtEn= 1.60D-01
 Coeff-Com: -0.669D+00 0.167D+01
 Coeff-En:   0.000D+00 0.100D+01
 Coeff:     -0.562D+00 0.156D+01
 Gap=     0.141 Goal=   None    Shift=    0.000
 Gap=     0.355 Goal=   None    Shift=    0.000
 RMSDP=1.52D-03 MaxDP=7.02D-02 DE=-5.24D-03 OVMax= 1.73D-02

 Cycle   3  Pass 1  IDiag  1:
 Density matrix breaks symmetry, PCut= 1.00D-04
 Density matrix has no symmetry -- integrals replicated.
 E= -289.358436451670     Delta-E=       -0.005176636131 Rises=F Damp=F
 DIIS: error= 1.66D-03 at cycle   3 NSaved=   3.
 NSaved= 3 IEnMin= 3 EnMin= -289.358436451670     IErMin= 3 ErrMin= 1.66D-03
 ErrMax= 1.66D-03  0.00D+00 EMaxC= 1.00D-01 BMatC= 2.73D-04 BMatP= 2.29D-02
 IDIUse=3 WtCom= 9.83D-01 WtEn= 1.66D-02
 Coeff-Com: -0.116D+00 0.213D+00 0.903D+00
 Coeff-En:   0.000D+00 0.000D+00 0.100D+01
 Coeff:     -0.114D+00 0.209D+00 0.904D+00
 Gap=     0.142 Goal=   None    Shift=    0.000
 Gap=     0.353 Goal=   None    Shift=    0.000
 RMSDP=1.56D-04 MaxDP=5.12D-03 DE=-5.18D-03 OVMax= 4.74D-03

 Cycle   4  Pass 1  IDiag  1:
 Density matrix breaks symmetry, PCut= 1.00D-04
 Density matrix has no symmetry -- integrals replicated.
 E= -289.358486418710     Delta-E=       -0.000049967040 Rises=F Damp=F
 DIIS: error= 2.87D-04 at cycle   4 NSaved=   4.
 NSaved= 4 IEnMin= 4 EnMin= -289.358486418710     IErMin= 4 ErrMin= 2.87D-04
 ErrMax= 2.87D-04  0.00D+00 EMaxC= 1.00D-01 BMatC= 7.42D-06 BMatP= 2.73D-04
 IDIUse=3 WtCom= 9.97D-01 WtEn= 2.87D-03
 Coeff-Com:  0.251D-01-0.475D-01-0.222D+00 0.124D+01
 Coeff-En:   0.000D+00 0.000D+00 0.000D+00 0.100D+01
 Coeff:      0.250D-01-0.473D-01-0.221D+00 0.124D+01
 Gap=     0.142 Goal=   None    Shift=    0.000
 Gap=     0.353 Goal=   None    Shift=    0.000
 RMSDP=9.21D-05 MaxDP=4.59D-03 DE=-5.00D-05 OVMax= 2.02D-03

 Cycle   5  Pass 1  IDiag  1:
 Density matrix breaks symmetry, PCut= 1.00D-04
 Density matrix has no symmetry -- integrals replicated.
 E= -289.358492271706     Delta-E=       -0.000005852996 Rises=F Damp=F
 DIIS: error= 8.82D-05 at cycle   5 NSaved=   5.
 NSaved= 5 IEnMin= 5 EnMin= -289.358492271706     IErMin= 5 ErrMin= 8.82D-05
 ErrMax= 8.82D-05  0.00D+00 EMaxC= 1.00D-01 BMatC= 4.02D-07 BMatP= 7.42D-06
 IDIUse=1 WtCom= 1.00D+00 WtEn= 0.00D+00
 Coeff-Com:  0.671D-02-0.129D-01-0.179D-01-0.108D+00 0.113D+01
 Coeff:      0.671D-02-0.129D-01-0.179D-01-0.108D+00 0.113D+01
 Gap=     0.143 Goal=   None    Shift=    0.000
 Gap=     0.353 Goal=   None    Shift=    0.000
 RMSDP=1.97D-05 MaxDP=7.39D-04 DE=-5.85D-06 OVMax= 5.83D-04

 Cycle   6  Pass 1  IDiag  1:
 Density matrix breaks symmetry, PCut= 1.00D-04
 Density matrix has no symmetry -- integrals replicated.
 E= -289.358492497448     Delta-E=       -0.000000225742 Rises=F Damp=F
 DIIS: error= 9.01D-06 at cycle   6 NSaved=   6.
 NSaved= 6 IEnMin= 6 EnMin= -289.358492497448     IErMin= 6 ErrMin= 9.01D-06
 ErrMax= 9.01D-06  0.00D+00 EMaxC= 1.00D-01 BMatC= 5.54D-09 BMatP= 4.02D-07
 IDIUse=1 WtCom= 1.00D+00 WtEn= 0.00D+00
 Coeff-Com: -0.837D-03 0.160D-02 0.538D-02-0.298D-01 0.255D-01 0.998D+00
 Coeff:     -0.837D-03 0.160D-02 0.538D-02-0.298D-01 0.255D-01 0.998D+00
 Gap=     0.143 Goal=   None    Shift=    0.000
 Gap=     0.353 Goal=   None    Shift=    0.000
 RMSDP=2.92D-06 MaxDP=1.83D-04 DE=-2.26D-07 OVMax= 3.12D-05

 Cycle   7  Pass 1  IDiag  1:
 Density matrix breaks symmetry, PCut= 1.00D-04
 Density matrix has no symmetry -- integrals replicated.
 E= -289.358492499458     Delta-E=       -0.000000002010 Rises=F Damp=F
 DIIS: error= 1.10D-06 at cycle   7 NSaved=   7.
 NSaved= 7 IEnMin= 7 EnMin= -289.358492499458     IErMin= 7 ErrMin= 1.10D-06
 ErrMax= 1.10D-06  0.00D+00 EMaxC= 1.00D-01 BMatC= 1.02D-10 BMatP= 5.54D-09
 IDIUse=1 WtCom= 1.00D+00 WtEn= 0.00D+00
 Coeff-Com: -0.476D-04 0.950D-04-0.994D-04 0.459D-02-0.184D-01-0.103D+00
 Coeff-Com:  0.112D+01
 Coeff:     -0.476D-04 0.950D-04-0.994D-04 0.459D-02-0.184D-01-0.103D+00
 Coeff:      0.112D+01
 Gap=     0.143 Goal=   None    Shift=    0.000
 Gap=     0.353 Goal=   None    Shift=    0.000
 RMSDP=2.45D-07 MaxDP=1.06D-05 DE=-2.01D-09 OVMax= 8.35D-06

 Cycle   8  Pass 1  IDiag  1:
 Density matrix breaks symmetry, PCut= 1.00D-04
 Density matrix has no symmetry -- integrals replicated.
 E= -289.358492499528     Delta-E=       -0.000000000071 Rises=F Damp=F
 DIIS: error= 1.67D-07 at cycle   8 NSaved=   8.
 NSaved= 8 IEnMin= 8 EnMin= -289.358492499528     IErMin= 8 ErrMin= 1.67D-07
 ErrMax= 1.67D-07  0.00D+00 EMaxC= 1.00D-01 BMatC= 3.30D-12 BMatP= 1.02D-10
 IDIUse=1 WtCom= 1.00D+00 WtEn= 0.00D+00
 Coeff-Com:  0.126D-04-0.241D-04-0.630D-04-0.150D-03 0.361D-03-0.261D-02
 Coeff-Com: -0.182D+00 0.118D+01
 Coeff:      0.126D-04-0.241D-04-0.630D-04-0.150D-03 0.361D-03-0.261D-02
 Coeff:     -0.182D+00 0.118D+01
 Gap=     0.143 Goal=   None    Shift=    0.000
 Gap=     0.353 Goal=   None    Shift=    0.000
 RMSDP=8.79D-08 MaxDP=4.88D-06 DE=-7.07D-11 OVMax= 1.76D-06

 Cycle   9  Pass 1  IDiag  1:
 Density matrix breaks symmetry, PCut= 1.00D-04
 Density matrix has no symmetry -- integrals replicated.
 E= -289.358492499530     Delta-E=       -0.000000000002 Rises=F Damp=F
 DIIS: error= 1.39D-08 at cycle   9 NSaved=   9.
 NSaved= 9 IEnMin= 9 EnMin= -289.358492499530     IErMin= 9 ErrMin= 1.39D-08
 ErrMax= 1.39D-08  0.00D+00 EMaxC= 1.00D-01 BMatC= 2.21D-14 BMatP= 3.30D-12
 IDIUse=1 WtCom= 1.00D+00 WtEn= 0.00D+00
 Coeff-Com: -0.735D-06 0.138D-05 0.501D-05-0.104D-04-0.242D-04 0.194D-02
 Coeff-Com: -0.535D-02-0.348D-01 0.104D+01
 Coeff:     -0.735D-06 0.138D-05 0.501D-05-0.104D-04-0.242D-04 0.194D-02
 Coeff:     -0.535D-02-0.348D-01 0.104D+01
 Gap=     0.143 Goal=   None    Shift=    0.000
 Gap=     0.353 Goal=   None    Shift=    0.000
 RMSDP=4.46D-09 MaxDP=2.70D-07 DE=-1.76D-12 OVMax= 9.01D-08

 Density matrix breaks symmetry, PCut= 1.00D-04
 Density matrix has no symmetry -- integrals replicated.
 SCF Done:  E(UM062X) =  -289.358492500     A.U. after    9 cycles
            NFock=  9  Conv=0.45D-08     -V/T= 2.0018
 <Sx>= 0.0000 <Sy>= 0.0000 <Sz>= 1.0000 <S**2>= 2.0035 S= 1.0012
 <L.S>= 0.000000000000E+00
 KE= 2.888411212993D+02 PE=-6.895768519924D+02 EE= 1.113772381936D+02
 Annihilation of the first spin contaminant:
 S**2 before annihilation     2.0035,   after     2.0000
 Leave Link  502 at Sat Apr 17 21:14:37 2021, MaxMem=   104857600 cpu:             769.5 elap:              16.8
 (Enter /s/ls4/users/knvvv/bin/g16sse/l601.exe)
 Copying SCF densities to generalized density rwf, IOpCl= 1 IROHF=0.
 SCF density gives NOpUse=  1 NOpAll= 48.
 Marking SCF density as not fully symmetric.

 **********************************************************************

            Population analysis using the SCF density.

 **********************************************************************

 Orbital symmetries:
 Alpha Orbitals:
       Occupied  (A1G) (A1G) (T1U) (T1U) (T1U) (?A) (?B) (?B)
       Virtual   (?B) (?A) (?A) (?A) (?A) (?A) (?A) (?B) (?B) (?B)
                 (?A) (?A) (?A) (?A) (?A) (?A) (?B) (?B) (?B) (?B)
                 (?B) (?B) (?B) (?B) (?B) (?B) (?C) (?C) (?C) (?C)
                 (?C) (?C) (?D) (?D) (?D) (?D) (?D) (?D) (?D) (?E)
                 (?E) (?D) (?D) (?D) (?D) (?D) (?D) (?D) (?E) (?E)
                 (?E) (?E) (?E) (T1U) (T1U) (T1U) (A1G) (?F) (?F)
                 (?F) (?F) (?F) (T1U) (T1U) (T1U) (A1G) (A1G) (A1G)
 Beta  Orbitals:
       Occupied  (A1G) (A1G) (T1U) (T1U) (T1U) (?A)
       Virtual   (?B) (?B) (?B) (?A) (?A) (?A) (?A) (?A) (?A) (?B)
                 (?B) (?B) (?A) (?A) (?A) (?A) (?A) (?A) (?B) (?B)
                 (?B) (?B) (?B) (?B) (?B) (?A) (?A) (?A) (?A) (?A)
                 (?B) (?B) (?B) (?A) (?A) (?A) (?A) (?A) (?A) (?A)
                 (?A) (?A) (?A) (?A) (?A) (?A) (?A) (?A) (?B) (?B)
                 (?B) (?B) (?B) (?B) (?B) (?B) (?B) (?B) (A1G)
                 (?C) (?C) (?C) (?C) (?C) (T1U) (T1U) (T1U) (A1G)
                 (A1G) (A1G)
 Unable to determine electronic state:  an orbital has unidentified symmetry.
 Alpha  occ. eigenvalues --  -67.05166  -5.58275  -3.89578  -3.89578  -3.89323
 Alpha  occ. eigenvalues --   -0.51094  -0.22963  -0.22963
 Alpha virt. eigenvalues --   -0.08707   0.02780   0.08901   0.09540   0.09540
 Alpha virt. eigenvalues --    0.10073   0.10073   0.14979   0.15966   0.15966
 Alpha virt. eigenvalues --    0.23981   0.25097   0.25097   0.25698   0.25698
 Alpha virt. eigenvalues --    0.25859   0.65621   0.65621   0.65685   0.65816
 Alpha virt. eigenvalues --    0.65816   0.66304   0.66304   0.68337   0.68337
 Alpha virt. eigenvalues --    0.68870   0.69949   0.70052   0.70052   0.70467
 Alpha virt. eigenvalues --    0.70467   0.98806   1.68542   1.68542   1.69026
 Alpha virt. eigenvalues --    1.69612   1.69612   1.90881   1.90881   1.91781
 Alpha virt. eigenvalues --    1.91781   1.92079   1.92079   1.92176   1.92176
 Alpha virt. eigenvalues --    1.92257   1.92257   1.92431   1.93852   1.93852
 Alpha virt. eigenvalues --    1.94330   1.94331   1.95532   2.66398   2.66398
 Alpha virt. eigenvalues --    2.68552   4.20704   5.64535   5.64535   5.65839
 Alpha virt. eigenvalues --    5.65839   5.66582  11.06011  11.06011  11.11106
 Alpha virt. eigenvalues --   15.71593  57.40229 314.07498
  Beta  occ. eigenvalues --  -67.04116  -5.57864  -3.88991  -3.87755  -3.87755
  Beta  occ. eigenvalues --   -0.43345
  Beta virt. eigenvalues --   -0.08088  -0.06530  -0.06530   0.01463   0.07090
  Beta virt. eigenvalues --    0.07090   0.07319   0.07379   0.07379   0.12129
  Beta virt. eigenvalues --    0.12322   0.12322   0.22756   0.26161   0.26550
  Beta virt. eigenvalues --    0.26550   0.27143   0.27143   0.61028   0.61028
  Beta virt. eigenvalues --    0.61851   0.61851   0.62343   0.62343   0.62394
  Beta virt. eigenvalues --    0.67355   0.67355   0.67965   0.67965   0.68748
  Beta virt. eigenvalues --    0.69663   0.70935   0.70935   1.02274   1.73594
  Beta virt. eigenvalues --    1.74167   1.74167   1.76188   1.76188   1.97185
  Beta virt. eigenvalues --    1.97332   1.97332   1.97366   1.97366   1.97548
  Beta virt. eigenvalues --    1.97548   1.98064   1.98064   2.03160   2.03501
  Beta virt. eigenvalues --    2.03501   2.04407   2.04407   2.06161   2.06161
  Beta virt. eigenvalues --    2.70953   2.72611   2.72611   4.27321   5.72614
  Beta virt. eigenvalues --    5.73542   5.73542   5.75770   5.75770  11.17702
  Beta virt. eigenvalues --   11.21946  11.21946  15.77328  57.42937 314.06454
          Condensed to atoms (all electrons):
               1
     1  Si  14.000000
          Atomic-Atomic Spin Densities.
               1
     1  Si   2.000000
 Mulliken charges and spin densities:
               1          2
     1  Si  -0.000000   2.000000
 Sum of Mulliken charges =  -0.00000   2.00000
 Mulliken charges and spin densities with hydrogens summed into heavy atoms:
               1          2
     1  Si  -0.000000   2.000000
 Electronic spatial extent (au):  <R**2>=             31.7224
 Charge=             -0.0000 electrons
 Dipole moment (field-independent basis, Debye):
    X=              0.0000    Y=              0.0000    Z=             -0.0000  Tot=              0.0000
 Quadrupole moment (field-independent basis, Debye-Ang):
   XX=            -15.6982   YY=            -12.7681   ZZ=            -14.2015
   XY=             -0.0000   XZ=             -0.0000   YZ=             -2.0941
 Traceless Quadrupole moment (field-independent basis, Debye-Ang):
   XX=             -1.4756   YY=              1.4545   ZZ=              0.0211
   XY=             -0.0000   XZ=             -0.0000   YZ=             -2.0941
 Octapole moment (field-independent basis, Debye-Ang**2):
  XXX=              0.0000  YYY=              0.0000  ZZZ=             -0.0000  XYY=              0.0000
  XXY=              0.0000  XXZ=             -0.0000  XZZ=              0.0000  YZZ=              0.0000
  YYZ=             -0.0000  XYZ=             -0.0000
 Hexadecapole moment (field-independent basis, Debye-Ang**3):
 XXXX=            -35.7966 YYYY=            -24.0693 ZZZZ=            -29.8354 XXXY=             -0.0000
 XXXZ=             -0.0000 YYYX=             -0.0000 YYYZ=             -4.2322 ZZZX=             -0.0000
 ZZZY=             -4.1916 XXYY=             -9.9970 XXZZ=            -10.9437 YYZZ=             -8.9492
 XXYZ=             -1.3831 YYXZ=             -0.0000 ZZXY=             -0.0000
 N-N= 0.000000000000D+00 E-N=-6.895768516821D+02  KE= 2.888411212993D+02
                          Isotropic Fermi Contact Couplings
        Atom                 a.u.       MegaHertz       Gauss      10(-4) cm-1
     1  Si(29)             0.09582     -42.57839     -15.19303     -14.20262
 PrsmSu:  requested number of processors reduced to:  21 ShMem   1 Linda.
 --------------------------------------------------------
       Center         ----  Spin Dipole Couplings  ----
                      3XX-RR        3YY-RR        3ZZ-RR
 --------------------------------------------------------
     1   Atom        1.036574     -1.021760     -0.014814
 --------------------------------------------------------
                        XY            XZ            YZ
 --------------------------------------------------------
     1   Atom        0.000000     -0.000000      1.471091
 --------------------------------------------------------


 ---------------------------------------------------------------------------------
              Anisotropic Spin Dipole Couplings in Principal Axis System
 ---------------------------------------------------------------------------------

       Atom             a.u.   MegaHertz   Gauss  10(-4) cm-1        Axes

              Baa    -2.0731   219.928    78.476    73.360 -0.0000  0.8136 -0.5815
     1 Si(29) Bbb     1.0366  -109.964   -39.238   -36.680  1.0000  0.0000  0.0000
              Bcc     1.0366  -109.964   -39.238   -36.680 -0.0000  0.5815  0.8136
 

 ---------------------------------------------------------------------------------

 PrsmSu:  requested number of processors reduced to:  21 ShMem   1 Linda.
 No NMR shielding tensors so no spin-rotation constants.
 Leave Link  601 at Sat Apr 17 21:14:46 2021, MaxMem=   104857600 cpu:             431.7 elap:               9.4
 (Enter /s/ls4/users/knvvv/bin/g16sse/l801.exe)
 DoSCS=F DFT=T ScalE2(SS,OS)=  1.000000  1.000000
 Range of M.O.s used for correlation:     1    76
 NBasis=    76 NAE=     8 NBE=     6 NFC=     0 NFV=     0
 NROrb=     76 NOA=     8 NOB=     6 NVA=    68 NVB=    70
 Leave Link  801 at Sat Apr 17 21:14:47 2021, MaxMem=   104857600 cpu:               4.7 elap:               0.1
 (Enter /s/ls4/users/knvvv/bin/g16sse/l914.exe)
 UHF ground state
 Doing stability rather than CIS.
 Keep R1 and R2 ints in memory in symmetry-blocked form, NReq=91581137.
 FoFCou: FMM=F IPFlag=           0 FMFlag=           0 FMFlg1=           0
         NFxFlg=           0 DoJE=F BraDBF=F KetDBF=F FulRan=T
         wScrn=  0.000000 ICntrl=       600 IOpCl=  0 I1Cent=           0 NGrid=           0
         NMat0=    1 NMatS0=   2926 NMatT0=    0 NMatD0=    1 NMtDS0=    0 NMtDT0=    0
 Petite list used in FoFCou.
 CoulSu:  requested number of processors reduced to:  22 ShMem   1 Linda.
 MDV=   104857600 DFT=T DoStab=T Mixed=T DoRPA=F DoScal=F NonHer=F
 Making orbital integer symmetry assigments:
 Orbital symmetries:
 Alpha Orbitals:
       Occupied  (A1G) (A1G) (T1U) (T1U) (T1U) (?A) (?B) (?B)
       Virtual   (?B) (?A) (?A) (?A) (?A) (?A) (?A) (?B) (?B) (?B)
                 (?A) (?A) (?A) (?A) (?A) (?A) (?B) (?B) (?B) (?B)
                 (?B) (?B) (?B) (?B) (?B) (?B) (?C) (?C) (?C) (?C)
                 (?C) (?C) (?D) (?D) (?D) (?D) (?D) (?D) (?D) (?E)
                 (?E) (?D) (?D) (?D) (?D) (?D) (?D) (?D) (?E) (?E)
                 (?E) (?E) (?E) (T1U) (T1U) (T1U) (A1G) (?F) (?F)
                 (?F) (?F) (?F) (T1U) (T1U) (T1U) (A1G) (A1G) (A1G)
 Beta  Orbitals:
       Occupied  (A1G) (A1G) (T1U) (T1U) (T1U) (?A)
       Virtual   (?B) (?B) (?B) (?A) (?A) (?A) (?A) (?A) (?A) (?B)
                 (?B) (?B) (?A) (?A) (?A) (?A) (?A) (?A) (?B) (?B)
                 (?B) (?B) (?B) (?B) (?B) (?A) (?A) (?A) (?A) (?A)
                 (?B) (?B) (?B) (?A) (?A) (?A) (?A) (?A) (?A) (?A)
                 (?A) (?A) (?A) (?A) (?A) (?A) (?A) (?A) (?B) (?B)
                 (?B) (?B) (?B) (?B) (?B) (?B) (?B) (?B) (A1G)
                 (?C) (?C) (?C) (?C) (?C) (T1U) (T1U) (T1U) (A1G)
                 (A1G) (A1G)
    24 initial guesses have been made.
 Convergence on wavefunction:    0.001000000000000
 Davidson Disk Diagonalization:  ConvIn= 1.00D-03 SkipCon=T Conv= 1.00D-03.
 Max sub-space:  1928 roots to seek:    24 dimension of matrix:          964
 Iteration     1 Dimension    24 NMult     0 NNew     24
 CISAX will form    24 AO SS matrices at one time.
 NMat=    24 NSing=    24 JSym2X= 2.
 Excitation Energies [eV] at current iteration:
 Root      1 :     0.121259928599937
 Root      2 :     0.121298079710400
 Root      3 :     4.882554704933471
 Root      4 :     4.882698510945310
 Root      5 :     5.132612575471627
 Root      6 :     5.919342065838275
 Root      7 :     5.919517112362220
 Root      8 :     5.946225161492877
 Root      9 :     5.946233927911073
 Root     10 :     6.221545085049590
 Root     11 :     6.221775012365697
 Root     12 :     6.501909527403923
 Root     13 :     6.510577151287968
 Root     14 :     6.511024259314082
 Root     15 :     6.733338605899786
 Root     16 :     6.919359202698968
 Root     17 :     6.919398309030227
 Root     18 :     7.464008973754669
 Root     19 :     7.464266545145484
 Root     20 :     7.974891703222368
 Root     21 :     8.780627416200460
 Root     22 :     9.130500088974827
 Root     23 :     9.130521089535764
 Root     24 :    12.503019796334880
 Iteration     2 Dimension    48 NMult    24 NNew     24
 CISAX will form    24 AO SS matrices at one time.
 NMat=    24 NSing=    24 JSym2X= 2.
 Root      1 not converged, maximum delta is    0.039159728732253
 Excitation Energies [eV] at current iteration:
 Root      1 :     0.002066461742092   Change is   -0.119193466857845
 Root      2 :     0.002108642883954   Change is   -0.119189436826447
 Root      3 :     4.142603670539730   Change is   -0.990008904931897
 Root      4 :     4.655758983817186   Change is   -0.226795721116286
 Root      5 :     4.655878095453935   Change is   -0.226820415491375
 Root      6 :     5.039331496838077   Change is   -0.880010569000197
 Root      7 :     5.039370739419732   Change is   -0.880146372942489
 Root      8 :     5.732111625690457   Change is   -0.214113535802421
 Root      9 :     5.732117350831300   Change is   -0.214116577079773
 Root     10 :     5.899063499415214   Change is   -0.322481585634377
 Root     11 :     5.899221442150893   Change is   -0.322553570214804
 Root     12 :     6.270567638386567   Change is   -0.240009512901400
 Root     13 :     6.270975162296172   Change is   -0.240049097017909
 Root     14 :     6.375252343416121   Change is   -0.358086262483665
 Root     15 :     6.406554108413077   Change is   -0.095355418990847
 Root     16 :     6.798997227379568   Change is   -0.120361975319399
 Root     17 :     6.799035765870697   Change is   -0.120362543159531
 Root     18 :     7.350585510075772   Change is   -0.113423463678896
 Root     19 :     7.350831300263980   Change is   -0.113435244881503
 Root     20 :     7.613763162138088   Change is   -1.516736926836739
 Root     21 :     7.613837692882979   Change is   -1.516683396652785
 Root     22 :     7.953589873679639   Change is   -0.021301829542729
 Root     23 :     8.001499392088636   Change is   -0.779128024111823
 Root     24 :     9.250847685635801   Change is   -3.252172110699077
 Iteration     3 Dimension    51 NMult    48 NNew      3
 CISAX will form     3 AO SS matrices at one time.
 NMat=     3 NSing=     3 JSym2X= 2.
 Root      1 not converged, maximum delta is    0.005885011272434
 Excitation Energies [eV] at current iteration:
 Root      1 :     0.000101731922163   Change is   -0.001964729819928
 Root      2 :     0.000143993063577   Change is   -0.001964649820377
 Root      3 :     4.133730154618434   Change is   -0.008873515921296
 Iteration     4 Dimension    54 NMult    51 NNew      3
 CISAX will form     3 AO SS matrices at one time.
 NMat=     3 NSing=     3 JSym2X= 2.
 Root      1 has converged.
 Excitation Energies [eV] at current iteration:
 Root      1 :     0.000090081789255   Change is   -0.000011650132908
 Root      2 :     0.000132343004431   Change is   -0.000011650059146
 Root      3 :     4.133616571283421   Change is   -0.000113583335014
 Convergence achieved on expansion vectors.
 ***********************************************************************
 Stability analysis using <AA,BB:AA,BB> singles matrix:
 ***********************************************************************
 1PDM for each excited state written to RWF  633
 Ground to excited state transition densities written to RWF  633

 Eigenvectors of the stability matrix:
 
 Excited state symmetry could not be determined.
 Eigenvector   1:  3.006-?Sym  Eigenvalue= 0.0000033  <S**2>=2.010
      8A ->  9A        0.99448
 The wavefunction is stable under the perturbations considered.
 Leave Link  914 at Sat Apr 17 21:15:04 2021, MaxMem=   104857600 cpu:             791.4 elap:              17.2
 (Enter /s/ls4/users/knvvv/bin/g16sse/l508.exe)
 The wavefunction is already stable.
 Leave Link  508 at Sat Apr 17 21:15:04 2021, MaxMem=   104857600 cpu:               2.2 elap:               0.1
 (Enter /s/ls4/users/knvvv/bin/g16sse/l601.exe)
 Copying SCF densities to generalized density rwf, IOpCl= 1 IROHF=0.
 SCF density gives NOpUse=  1 NOpAll= 48.
 Marking SCF density as not fully symmetric.

 **********************************************************************

            Population analysis using the SCF density.

 **********************************************************************

 Orbital symmetries:
 Alpha Orbitals:
       Occupied  (A1G) (A1G) (T1U) (T1U) (T1U) (?A) (?B) (?B)
       Virtual   (?B) (?A) (?A) (?A) (?A) (?A) (?A) (?B) (?B) (?B)
                 (?A) (?A) (?A) (?A) (?A) (?A) (?B) (?B) (?B) (?B)
                 (?B) (?B) (?B) (?B) (?B) (?B) (?C) (?C) (?C) (?C)
                 (?C) (?C) (?D) (?D) (?D) (?D) (?D) (?D) (?D) (?E)
                 (?E) (?D) (?D) (?D) (?D) (?D) (?D) (?D) (?E) (?E)
                 (?E) (?E) (?E) (T1U) (T1U) (T1U) (A1G) (?F) (?F)
                 (?F) (?F) (?F) (T1U) (T1U) (T1U) (A1G) (A1G) (A1G)
 Beta  Orbitals:
       Occupied  (A1G) (A1G) (T1U) (T1U) (T1U) (?A)
       Virtual   (?B) (?B) (?B) (?A) (?A) (?A) (?A) (?A) (?A) (?B)
                 (?B) (?B) (?A) (?A) (?A) (?A) (?A) (?A) (?B) (?B)
                 (?B) (?B) (?B) (?B) (?B) (?A) (?A) (?A) (?A) (?A)
                 (?B) (?B) (?B) (?A) (?A) (?A) (?A) (?A) (?A) (?A)
                 (?A) (?A) (?A) (?A) (?A) (?A) (?A) (?A) (?B) (?B)
                 (?B) (?B) (?B) (?B) (?B) (?B) (?B) (?B) (A1G)
                 (?C) (?C) (?C) (?C) (?C) (T1U) (T1U) (T1U) (A1G)
                 (A1G) (A1G)
 Unable to determine electronic state:  an orbital has unidentified symmetry.
 Alpha  occ. eigenvalues --  -67.05166  -5.58275  -3.89578  -3.89578  -3.89323
 Alpha  occ. eigenvalues --   -0.51094  -0.22963  -0.22963
 Alpha virt. eigenvalues --   -0.08707   0.02780   0.08901   0.09540   0.09540
 Alpha virt. eigenvalues --    0.10073   0.10073   0.14979   0.15966   0.15966
 Alpha virt. eigenvalues --    0.23981   0.25097   0.25097   0.25698   0.25698
 Alpha virt. eigenvalues --    0.25859   0.65621   0.65621   0.65685   0.65816
 Alpha virt. eigenvalues --    0.65816   0.66304   0.66304   0.68337   0.68337
 Alpha virt. eigenvalues --    0.68870   0.69949   0.70052   0.70052   0.70467
 Alpha virt. eigenvalues --    0.70467   0.98806   1.68542   1.68542   1.69026
 Alpha virt. eigenvalues --    1.69612   1.69612   1.90881   1.90881   1.91781
 Alpha virt. eigenvalues --    1.91781   1.92079   1.92079   1.92176   1.92176
 Alpha virt. eigenvalues --    1.92257   1.92257   1.92431   1.93852   1.93852
 Alpha virt. eigenvalues --    1.94330   1.94331   1.95532   2.66398   2.66398
 Alpha virt. eigenvalues --    2.68552   4.20704   5.64535   5.64535   5.65839
 Alpha virt. eigenvalues --    5.65839   5.66582  11.06011  11.06011  11.11106
 Alpha virt. eigenvalues --   15.71593  57.40229 314.07498
  Beta  occ. eigenvalues --  -67.04116  -5.57864  -3.88991  -3.87755  -3.87755
  Beta  occ. eigenvalues --   -0.43345
  Beta virt. eigenvalues --   -0.08088  -0.06530  -0.06530   0.01463   0.07090
  Beta virt. eigenvalues --    0.07090   0.07319   0.07379   0.07379   0.12129
  Beta virt. eigenvalues --    0.12322   0.12322   0.22756   0.26161   0.26550
  Beta virt. eigenvalues --    0.26550   0.27143   0.27143   0.61028   0.61028
  Beta virt. eigenvalues --    0.61851   0.61851   0.62343   0.62343   0.62394
  Beta virt. eigenvalues --    0.67355   0.67355   0.67965   0.67965   0.68748
  Beta virt. eigenvalues --    0.69663   0.70935   0.70935   1.02274   1.73594
  Beta virt. eigenvalues --    1.74167   1.74167   1.76188   1.76188   1.97185
  Beta virt. eigenvalues --    1.97332   1.97332   1.97366   1.97366   1.97548
  Beta virt. eigenvalues --    1.97548   1.98064   1.98064   2.03160   2.03501
  Beta virt. eigenvalues --    2.03501   2.04407   2.04407   2.06161   2.06161
  Beta virt. eigenvalues --    2.70953   2.72611   2.72611   4.27321   5.72614
  Beta virt. eigenvalues --    5.73542   5.73542   5.75770   5.75770  11.17702
  Beta virt. eigenvalues --   11.21946  11.21946  15.77328  57.42937 314.06454
          Condensed to atoms (all electrons):
               1
     1  Si  14.000000
          Atomic-Atomic Spin Densities.
               1
     1  Si   2.000000
 Mulliken charges and spin densities:
               1          2
     1  Si  -0.000000   2.000000
 Sum of Mulliken charges =  -0.00000   2.00000
 Mulliken charges and spin densities with hydrogens summed into heavy atoms:
               1          2
     1  Si  -0.000000   2.000000
 Electronic spatial extent (au):  <R**2>=             31.7224
 Charge=             -0.0000 electrons
 Dipole moment (field-independent basis, Debye):
    X=              0.0000    Y=              0.0000    Z=             -0.0000  Tot=              0.0000
 Quadrupole moment (field-independent basis, Debye-Ang):
   XX=            -15.6982   YY=            -12.7681   ZZ=            -14.2015
   XY=             -0.0000   XZ=             -0.0000   YZ=             -2.0941
 Traceless Quadrupole moment (field-independent basis, Debye-Ang):
   XX=             -1.4756   YY=              1.4545   ZZ=              0.0211
   XY=             -0.0000   XZ=             -0.0000   YZ=             -2.0941
 Octapole moment (field-independent basis, Debye-Ang**2):
  XXX=              0.0000  YYY=              0.0000  ZZZ=             -0.0000  XYY=              0.0000
  XXY=              0.0000  XXZ=             -0.0000  XZZ=              0.0000  YZZ=              0.0000
  YYZ=             -0.0000  XYZ=             -0.0000
 Hexadecapole moment (field-independent basis, Debye-Ang**3):
 XXXX=            -35.7966 YYYY=            -24.0693 ZZZZ=            -29.8354 XXXY=             -0.0000
 XXXZ=             -0.0000 YYYX=             -0.0000 YYYZ=             -4.2322 ZZZX=             -0.0000
 ZZZY=             -4.1916 XXYY=             -9.9970 XXZZ=            -10.9437 YYZZ=             -8.9492
 XXYZ=             -1.3831 YYXZ=             -0.0000 ZZXY=             -0.0000
 N-N= 0.000000000000D+00 E-N=-6.895768516821D+02  KE= 2.888411212993D+02
                          Isotropic Fermi Contact Couplings
        Atom                 a.u.       MegaHertz       Gauss      10(-4) cm-1
     1  Si(29)             0.09582     -42.57839     -15.19303     -14.20262
 PrsmSu:  requested number of processors reduced to:  21 ShMem   1 Linda.
 --------------------------------------------------------
       Center         ----  Spin Dipole Couplings  ----
                      3XX-RR        3YY-RR        3ZZ-RR
 --------------------------------------------------------
     1   Atom        1.036574     -1.021760     -0.014814
 --------------------------------------------------------
                        XY            XZ            YZ
 --------------------------------------------------------
     1   Atom        0.000000     -0.000000      1.471091
 --------------------------------------------------------


 ---------------------------------------------------------------------------------
              Anisotropic Spin Dipole Couplings in Principal Axis System
 ---------------------------------------------------------------------------------

       Atom             a.u.   MegaHertz   Gauss  10(-4) cm-1        Axes

              Baa    -2.0731   219.928    78.476    73.360 -0.0000  0.8136 -0.5815
     1 Si(29) Bbb     1.0366  -109.964   -39.238   -36.680  1.0000  0.0000  0.0000
              Bcc     1.0366  -109.964   -39.238   -36.680 -0.0000  0.5815  0.8136
 

 ---------------------------------------------------------------------------------

 PrsmSu:  requested number of processors reduced to:  21 ShMem   1 Linda.
 No NMR shielding tensors so no spin-rotation constants.
 Leave Link  601 at Sat Apr 17 21:15:14 2021, MaxMem=   104857600 cpu:             444.3 elap:               9.6
 (Enter /s/ls4/users/knvvv/bin/g16sse/l9999.exe)

 Test job not archived.
 1\1\GINC-N153\Stability\UM062X\Gen\Si1(3)\KNVVV\17-Apr-2021\0\\#P M062
 X/GEN Integral=UltraFineGrid SCF=NoSymm Stable=(RExt, Opt) IOp(1/33=1)
 \\Database calculations.\\0,3\Si,0,0.,0.,0.\\Version=ES64L-G16RevA.03\
 HF=-289.3584925\S2=2.003461\S2-1=0.\S2A=2.\RMSD=4.462e-09\Dipole=0.,0.
 ,0.\Quadrupole=0.0156773,1.0813892,-1.0970665,-1.5569399,0.,0.\PG=OH [
 O(Si1)]\\@


 I MET A TRAVELLER FROM AN ANTIQUE LAND
 WHO SAID... TWO VAST AND TRUNKLESS LEGS OF STONE
 STAND IN THE DESERT..... NEAR THEM,  ON THE SAND,
 HALF SUNK,  A SHATTERED VISAGE LIES,  WHOSE FROWN,
 AND WRINKLED LIP,  AND SNEER OF COLD COMMAND
 TELL THAT ITS SCULPTOR WELL THOSE PASSIONS READ
 WHICH YET SURVIVE,  STAMPED ON THESE LIFELESS THINGS
 THE HAND THAT MOCKED THEM,  AND THE HEART THAT FED-
 AND ON THE PEDESTAL THESE WORDS APPEAR 
 MY NAME IS OZYMANDIAS, KING OF KINGS--   
 LOOK ON MY WORKS YE MIGHTY AND DESPAIR. 
 NOTHING BESIDE REMAINS,  ROUND THE DECAY 
 OF THAT COLOSSAL WRECK,  BOUNDLESS AND BARE
 THE LONE AND LEVEL SANDS STRETCH FAR AWAY.
                                    SHELLEY
 Job cpu time:       0 days  1 hours  1 minutes  0.7 seconds.
 Elapsed time:       0 days  0 hours  1 minutes 19.5 seconds.
 File lengths (MBytes):  RWF=     46 Int=      0 D2E=      0 Chk=      2 Scr=      1
 Normal termination of Gaussian 16 at Sat Apr 17 21:15:14 2021.
