 Entering Gaussian System, Link 0=/s/ls4/users/knvvv/bin/g16sse/g16
 Input=data/database/M062X--def2-QZVPPD--157_clf_W4-11.gjf
 Output=data/database/M062X--def2-QZVPPD--157_clf_W4-11.log
 Initial command:
 /s/ls4/users/knvvv/bin/g16sse/l1.exe "/s/ls4/users/knvvv/bin/scratch/Gau-39886.inp" -scrdir="/s/ls4/users/knvvv/bin/scratch/"
 Entering Link 1 = /s/ls4/users/knvvv/bin/g16sse/l1.exe PID=     39887.
  
 Copyright (c) 1988,1990,1992,1993,1995,1998,2003,2009,2016,
            Gaussian, Inc.  All Rights Reserved.
  
 This is part of the Gaussian(R) 16 program.  It is based on
 the Gaussian(R) 09 system (copyright 2009, Gaussian, Inc.),
 the Gaussian(R) 03 system (copyright 2003, Gaussian, Inc.),
 the Gaussian(R) 98 system (copyright 1998, Gaussian, Inc.),
 the Gaussian(R) 94 system (copyright 1995, Gaussian, Inc.),
 the Gaussian 92(TM) system (copyright 1992, Gaussian, Inc.),
 the Gaussian 90(TM) system (copyright 1990, Gaussian, Inc.),
 the Gaussian 88(TM) system (copyright 1988, Gaussian, Inc.),
 the Gaussian 86(TM) system (copyright 1986, Carnegie Mellon
 University), and the Gaussian 82(TM) system (copyright 1983,
 Carnegie Mellon University). Gaussian is a federally registered
 trademark of Gaussian, Inc.
  
 This software contains proprietary and confidential information,
 including trade secrets, belonging to Gaussian, Inc.
  
 This software is provided under written license and may be
 used, copied, transmitted, or stored only in accord with that
 written license.
  
 The following legend is applicable only to US Government
 contracts under FAR:
  
                    RESTRICTED RIGHTS LEGEND
  
 Use, reproduction and disclosure by the US Government is
 subject to restrictions as set forth in subparagraphs (a)
 and (c) of the Commercial Computer Software - Restricted
 Rights clause in FAR 52.227-19.
  
 Gaussian, Inc.
 340 Quinnipiac St., Bldg. 40, Wallingford CT 06492
  
  
 ---------------------------------------------------------------
 Warning -- This program may not be used in any manner that
 competes with the business of Gaussian, Inc. or will provide
 assistance to any competitor of Gaussian, Inc.  The licensee
 of this program is prohibited from giving any competitor of
 Gaussian, Inc. access to this program.  By using this program,
 the user acknowledges that Gaussian, Inc. is engaged in the
 business of creating and licensing software in the field of
 computational chemistry and represents and warrants to the
 licensee that it is not a competitor of Gaussian, Inc. and that
 it will not use this program in any manner prohibited above.
 ---------------------------------------------------------------
  

 Cite this work as:
 Gaussian 16, Revision A.03,
 M. J. Frisch, G. W. Trucks, H. B. Schlegel, G. E. Scuseria, 
 M. A. Robb, J. R. Cheeseman, G. Scalmani, V. Barone, 
 G. A. Petersson, H. Nakatsuji, X. Li, M. Caricato, A. V. Marenich, 
 J. Bloino, B. G. Janesko, R. Gomperts, B. Mennucci, H. P. Hratchian, 
 J. V. Ortiz, A. F. Izmaylov, J. L. Sonnenberg, D. Williams-Young, 
 F. Ding, F. Lipparini, F. Egidi, J. Goings, B. Peng, A. Petrone, 
 T. Henderson, D. Ranasinghe, V. G. Zakrzewski, J. Gao, N. Rega, 
 G. Zheng, W. Liang, M. Hada, M. Ehara, K. Toyota, R. Fukuda, 
 J. Hasegawa, M. Ishida, T. Nakajima, Y. Honda, O. Kitao, H. Nakai, 
 T. Vreven, K. Throssell, J. A. Montgomery, Jr., J. E. Peralta, 
 F. Ogliaro, M. J. Bearpark, J. J. Heyd, E. N. Brothers, K. N. Kudin, 
 V. N. Staroverov, T. A. Keith, R. Kobayashi, J. Normand, 
 K. Raghavachari, A. P. Rendell, J. C. Burant, S. S. Iyengar, 
 J. Tomasi, M. Cossi, J. M. Millam, M. Klene, C. Adamo, R. Cammi, 
 J. W. Ochterski, R. L. Martin, K. Morokuma, O. Farkas, 
 J. B. Foresman, and D. J. Fox, Gaussian, Inc., Wallingford CT, 2016.
 
 ******************************************
 Gaussian 16:  ES64L-G16RevA.03 25-Dec-2016
                17-Apr-2021 
 ******************************************
 %RWF=temp12_78079,70GB
 %nprocshared=48
 Will use up to   48 processors via shared memory.
 Default route: MaxDisk=80GB
 ----------------------------------------------------------------------
 #P M062X/GEN Integral=UltraFineGrid SCF=NoSymm Stable=(RExt, Opt) IOp(
 1/33=1)
 ----------------------------------------------------------------------
 1/33=1,38=1,172=1/1;
 2/12=2,17=6,18=5,40=1/2;
 3/5=7,11=2,25=1,30=1,74=-55,75=-5/1,2,3;
 4/9=2/1;
 5/5=2,38=5/2;
 6/7=2,8=2,9=2,10=2,28=1/1;
 8/6=1,10=90,11=11/1;
 9/8=-3,42=1,46=1/14;
 5/5=2,8=3,17=40,38=5/8(-2);
 6/7=2,8=2,9=2,10=2,28=1/1;
 99/5=1,9=1/99;
 Leave Link    1 at Sat Apr 17 09:38:33 2021, MaxMem=           0 cpu:              11.1 elap:               0.2
 (Enter /s/ls4/users/knvvv/bin/g16sse/l101.exe)
 ONIOM data not found on unit 2.
 ----------------------
 Database calculations.
 ----------------------
 TstMul:  ICh=     0
 TstMul:  Mul=     1
 TstMul:  ICh=     0
 TstMul:  Mul=     1
 Symbolic Z-matrix:
 Charge =  0 Multiplicity = 1
 Cl                    0.        0.        0. 
 F                     0.        0.        1.63182 
 
 RdStrC is calling ZToCFu for IStruc=1 NZ=     2.
 PrtBox:  NBox=     1 Levels=  1 BoxLen=    8.00 SMaxX=        3.08
          Shift=            0.000000            0.000000            0.000000
 Box      1 Number                   0 centers from      1 to      2:
 After GenITR:
 ITRead=  0  0
 MicOpt= -1 -1
 ITRead=  0  0
 MicOpt= -1 -1
 NAtoms=      2 NQM=        2 NQMF=       0 NMMI=      0 NMMIF=      0
                NMic=       0 NMicF=      0.
                    Isotopes and Nuclear Properties:
 (Nuclear quadrupole moments (NQMom) in fm**2, nuclear magnetic moments (NMagM)
  in nuclear magnetons)

  Atom         1           2
 IAtWgt=          35          19
 AtmWgt=  34.9688527  18.9984033
 NucSpn=           3           1
 AtZEff=  -0.0000000  -0.0000000
 NQMom=   -8.1650000   0.0000000
 NMagM=    0.8218740   2.6288670
 AtZNuc=  17.0000000   9.0000000
 No MM parameters found.
 Leave Link  101 at Sat Apr 17 09:38:33 2021, MaxMem=   104857600 cpu:               6.9 elap:               0.2
 (Enter /s/ls4/users/knvvv/bin/g16sse/l202.exe)
                          Input orientation:                          
 ---------------------------------------------------------------------
 Center     Atomic      Atomic             Coordinates (Angstroms)
 Number     Number       Type             X           Y           Z
 ---------------------------------------------------------------------
      1         17           0        0.000000    0.000000    0.000000
      2          9           0        0.000000    0.000000    1.631823
 ---------------------------------------------------------------------
 Stoichiometry    ClF
 Framework group  C*V[C*(FCl)]
 Deg. of freedom     1
 Full point group                 C*V     NOp   4
 Largest Abelian subgroup         C2V     NOp   4
 Largest concise Abelian subgroup C1      NOp   1
                         Standard orientation:                         
 ---------------------------------------------------------------------
 Center     Atomic      Atomic             Coordinates (Angstroms)
 Number     Number       Type             X           Y           Z
 ---------------------------------------------------------------------
      1         17           0        0.000000    0.000000    0.564862
      2          9           0        0.000000    0.000000   -1.066961
 ---------------------------------------------------------------------
 Rotational constants (GHZ):           0.0000000          15.4171030          15.4171030
 Leave Link  202 at Sat Apr 17 09:38:33 2021, MaxMem=   104857600 cpu:               6.1 elap:               0.2
 (Enter /s/ls4/users/knvvv/bin/g16sse/l301.exe)
 General basis read from cards:  (5D, 7F)
 Centers:       2
 S 8 1.00
     Exponent=  1.3253597345D+05 Coefficients=  4.7387482743D-05
     Exponent=  1.9758112588D+04 Coefficients=  3.7070120897D-04
     Exponent=  4.4851996947D+03 Coefficients=  1.9450784713D-03
     Exponent=  1.2738151020D+03 Coefficients=  8.0573291994D-03
     Exponent=  4.1893831236D+02 Coefficients=  2.7992880781D-02
     Exponent=  1.5255721985D+02 Coefficients=  8.2735120175D-02
     Exponent=  5.9821524823D+01 Coefficients=  1.9854169012D-01
     Exponent=  2.4819076932D+01 Coefficients=  3.4860632233D-01
 S 2 1.00
     Exponent=  1.0074446673D+02 Coefficients=  1.0505068816D-01
     Exponent=  3.0103728290D+01 Coefficients=  9.4068472434D-01
 S 1 1.00
     Exponent=  1.0814283272D+01 Coefficients=  1.0000000000D+00
 S 1 1.00
     Exponent=  4.8172886770D+00 Coefficients=  1.0000000000D+00
 S 1 1.00
     Exponent=  1.6559334213D+00 Coefficients=  1.0000000000D+00
 S 1 1.00
     Exponent=  6.4893519582D-01 Coefficients=  1.0000000000D+00
 S 1 1.00
     Exponent=  2.4778104545D-01 Coefficients=  1.0000000000D+00
 S 1 1.00
     Exponent=  8.7626236800D-02 Coefficients=  1.0000000000D+00
 P 5 1.00
     Exponent=  2.4096654114D+02 Coefficients=  3.0389933451D-03
     Exponent=  5.7020699781D+01 Coefficients=  2.4357738582D-02
     Exponent=  1.8126952120D+01 Coefficients=  1.1442925768D-01
     Exponent=  6.6457404621D+00 Coefficients=  3.7064659853D-01
     Exponent=  2.6375722892D+00 Coefficients=  7.9791551766D-01
 P 1 1.00
     Exponent=  1.0638217200D+00 Coefficients=  1.0000000000D+00
 P 1 1.00
     Exponent=  4.1932562750D-01 Coefficients=  1.0000000000D+00
 P 1 1.00
     Exponent=  1.5747588299D-01 Coefficients=  1.0000000000D+00
 P 1 1.00
     Exponent=  4.6772400332D-02 Coefficients=  1.0000000000D+00
 D 1 1.00
     Exponent=  5.0140000000D+00 Coefficients=  1.0000000000D+00
 D 1 1.00
     Exponent=  1.7250000000D+00 Coefficients=  1.0000000000D+00
 D 1 1.00
     Exponent=  5.8600000000D-01 Coefficients=  1.0000000000D+00
 D 1 1.00
     Exponent=  1.5967986245D-01 Coefficients=  1.0000000000D+00
 F 1 1.00
     Exponent=  3.5620000000D+00 Coefficients=  1.0000000000D+00
 F 1 1.00
     Exponent=  1.1480000000D+00 Coefficients=  1.0000000000D+00
 G 1 1.00
     Exponent=  2.3760000000D+00 Coefficients=  1.0000000000D+00
 ****
 Centers:       1
 S 10 1.00
     Exponent=  1.4674590095D+06 Coefficients=  1.1478257194D-05
     Exponent=  2.1975616433D+05 Coefficients=  8.9234299775D-05
     Exponent=  5.0010770301D+04 Coefficients=  4.6911086186D-04
     Exponent=  1.4164823918D+04 Coefficients=  1.9762446133D-03
     Exponent=  4.6207465525D+03 Coefficients=  7.1419937783D-03
     Exponent=  1.6678991635D+03 Coefficients=  2.2753219445D-02
     Exponent=  6.5029199265D+02 Coefficients=  6.3959782953D-02
     Exponent=  2.6938037376D+02 Coefficients=  1.5331059238D-01
     Exponent=  1.1706752106D+02 Coefficients=  2.8986952417D-01
     Exponent=  5.2811766843D+01 Coefficients=  3.6348071452D-01
 S 3 1.00
     Exponent=  4.6142769988D+02 Coefficients=  1.8019457578D-02
     Exponent=  1.4212665355D+02 Coefficients=  1.6489442314D-01
     Exponent=  5.4437838768D+01 Coefficients=  6.3891587584D-01
 S 1 1.00
     Exponent=  2.4160770219D+01 Coefficients=  1.0000000000D+00
 S 1 1.00
     Exponent=  9.7083540306D+00 Coefficients=  1.0000000000D+00
 S 1 1.00
     Exponent=  4.5640696733D+00 Coefficients=  1.0000000000D+00
 S 1 1.00
     Exponent=  2.1194744832D+00 Coefficients=  1.0000000000D+00
 S 1 1.00
     Exponent=  7.5722365394D-01 Coefficients=  1.0000000000D+00
 S 1 1.00
     Exponent=  3.3747224597D-01 Coefficients=  1.0000000000D+00
 S 1 1.00
     Exponent=  1.3860775149D-01 Coefficients=  1.0000000000D+00
 S 1 1.00
     Exponent=  5.4234565513D-02 Coefficients=  1.0000000000D+00
 P 8 1.00
     Exponent=  2.5019457890D+03 Coefficients=  2.4242618410D-04
     Exponent=  5.9288059285D+02 Coefficients=  2.1079961749D-03
     Exponent=  1.9218089186D+02 Coefficients=  1.1432693869D-02
     Exponent=  7.2875710488D+01 Coefficients=  4.4956698060D-02
     Exponent=  3.0436358370D+01 Coefficients=  1.3197476145D-01
     Exponent=  1.3490178902D+01 Coefficients=  2.7493639225D-01
     Exponent=  6.1478071413D+00 Coefficients=  3.8347236372D-01
     Exponent=  2.8450944820D+00 Coefficients=  2.8871943885D-01
 P 2 1.00
     Exponent=  1.0539397936D+02 Coefficients= -3.4311760144D-02
     Exponent=  6.7369738513D+00 Coefficients=  6.4060818902D-01
 P 1 1.00
     Exponent=  1.2421095772D+00 Coefficients=  1.0000000000D+00
 P 1 1.00
     Exponent=  5.5669714254D-01 Coefficients=  1.0000000000D+00
 P 1 1.00
     Exponent=  2.3387801464D-01 Coefficients=  1.0000000000D+00
 P 1 1.00
     Exponent=  9.3164490890D-02 Coefficients=  1.0000000000D+00
 P 1 1.00
     Exponent=  2.7256146018D-02 Coefficients=  1.0000000000D+00
 D 1 1.00
     Exponent=  5.1910000000D+00 Coefficients=  1.0000000000D+00
 D 1 1.00
     Exponent=  1.2760000000D+00 Coefficients=  1.0000000000D+00
 D 1 1.00
     Exponent=  5.8300000000D-01 Coefficients=  1.0000000000D+00
 D 1 1.00
     Exponent=  2.4300000000D-01 Coefficients=  1.0000000000D+00
 D 1 1.00
     Exponent=  8.3456538402D-02 Coefficients=  1.0000000000D+00
 F 1 1.00
     Exponent=  1.0890000000D+00 Coefficients=  1.0000000000D+00
 F 1 1.00
     Exponent=  4.2300000000D-01 Coefficients=  1.0000000000D+00
 G 1 1.00
     Exponent=  8.2700000000D-01 Coefficients=  1.0000000000D+00
 ****
 Ernie: Thresh=  0.10000D-02 Tol=  0.10000D-05 Strict=F.
 There are    81 symmetry adapted cartesian basis functions of A1  symmetry.
 There are    19 symmetry adapted cartesian basis functions of A2  symmetry.
 There are    39 symmetry adapted cartesian basis functions of B1  symmetry.
 There are    39 symmetry adapted cartesian basis functions of B2  symmetry.
 There are    62 symmetry adapted basis functions of A1  symmetry.
 There are    17 symmetry adapted basis functions of A2  symmetry.
 There are    33 symmetry adapted basis functions of B1  symmetry.
 There are    33 symmetry adapted basis functions of B2  symmetry.
   145 basis functions,   233 primitive gaussians,   178 cartesian basis functions
    13 alpha electrons       13 beta electrons
       nuclear repulsion energy        49.6157346094 Hartrees.
 IExCor= 4336 DFT=T Ex+Corr=M062X ExCW=0 ScaHFX=  0.540000
 ScaDFX=  1.000000  1.000000  1.000000  1.000000 ScalE2=  1.000000  1.000000
 IRadAn=      5 IRanWt=     -1 IRanGd=            0 ICorTp=0 IEmpDi=  4
 NAtoms=    2 NActive=    2 NUniq=    2 SFac= 1.00D+00 NAtFMM=   60 NAOKFM=F Big=F
 Integral buffers will be    131072 words long.
 Raffenetti 2 integral format.
 Two-electron integral symmetry is turned on.
 Leave Link  301 at Sat Apr 17 09:38:34 2021, MaxMem=   104857600 cpu:               8.1 elap:               0.2
 (Enter /s/ls4/users/knvvv/bin/g16sse/l302.exe)
 NPDir=0 NMtPBC=     1 NCelOv=     1 NCel=       1 NClECP=     1 NCelD=      1
         NCelK=      1 NCelE2=     1 NClLst=     1 CellRange=     0.0.
 One-electron integrals computed using PRISM.
 One-electron integral symmetry used in STVInt
 PrsmSu:  requested number of processors reduced to:   4 ShMem   1 Linda.
 PrsmSu:  requested number of processors reduced to:  21 ShMem   1 Linda.
 NBasis=   145 RedAO= T EigKep=  3.22D-04  NBF=    62    17    33    33
 NBsUse=   145 1.00D-06 EigRej= -1.00D+00 NBFU=    62    17    33    33
 Precomputing XC quadrature grid using
 IXCGrd= 4 IRadAn=           5 IRanWt=          -1 IRanGd=           0 AccXCQ= 0.00D+00.
 Generated NRdTot=       0 NPtTot=           0 NUsed=           0 NTot=          32
 NSgBfM=   176   175   175   175   176 MxSgAt=     2 MxSgA2=     2.
 Leave Link  302 at Sat Apr 17 09:38:38 2021, MaxMem=   104857600 cpu:             183.1 elap:               4.0
 (Enter /s/ls4/users/knvvv/bin/g16sse/l303.exe)
 DipDrv:  MaxL=1.
 Leave Link  303 at Sat Apr 17 09:38:38 2021, MaxMem=   104857600 cpu:              26.7 elap:               0.6
 (Enter /s/ls4/users/knvvv/bin/g16sse/l401.exe)
 SCF N**3 symmetry information disabled.
 ExpMin= 2.73D-02 ExpMax= 1.47D+06 ExpMxC= 1.67D+03 IAcc=3 IRadAn=         5 AccDes= 0.00D+00
 Harris functional with IExCor= 1009 and IRadAn=       5 diagonalized for initial guess.
 HarFok:  IExCor= 1009 AccDes= 0.00D+00 IRadAn=         5 IDoV= 1 UseB2=F ITyADJ=14
 ICtDFT=  3500011 ScaDFX=  1.000000  1.000000  1.000000  1.000000
 FoFCou: FMM=F IPFlag=           0 FMFlag=      100000 FMFlg1=           0
         NFxFlg=           0 DoJE=T BraDBF=F KetDBF=T FulRan=T
         wScrn=  0.000000 ICntrl=       500 IOpCl=  0 I1Cent=   200000004 NGrid=           0
         NMat0=    1 NMatS0=      1 NMatT0=    0 NMatD0=    1 NMtDS0=    0 NMtDT0=    0
 Petite list used in FoFCou.
 CoulSu:  requested number of processors reduced to:  21 ShMem   1 Linda.
 CoulSu:  requested number of processors reduced to:  21 ShMem   1 Linda.
 CoulSu:  requested number of processors reduced to:  21 ShMem   1 Linda.
 CoulSu:  requested number of processors reduced to:  21 ShMem   1 Linda.
 Harris En= -559.710739548211    
 JPrj=0 DoOrth=F DoCkMO=F.
 Initial guess orbital symmetries:
       Occupied  (SG) (SG) (SG) (SG) (PI) (PI) (SG) (SG) (SG) (PI)
                 (PI) (PI) (PI)
       Virtual   (SG) (SG) (PI) (PI) (SG) (SG) (PI) (PI) (DLTA)
                 (DLTA) (PI) (PI) (SG) (SG) (PI) (PI) (SG) (DLTA)
                 (DLTA) (SG) (PI) (PI) (DLTA) (DLTA) (PI) (PI)
                 (SG) (SG) (PI) (PI) (SG) (SG) (PI) (PI) (SG) (DLTA)
                 (DLTA) (PI) (PI) (PHI) (PHI) (DLTA) (DLTA) (SG)
                 (PI) (PI) (DLTA) (DLTA) (PI) (PI) (SG) (SG) (PI)
                 (PI) (SG) (SG) (DLTA) (DLTA) (PI) (PI) (DLTA)
                 (DLTA) (SG) (PHI) (PHI) (?A) (?A) (SG) (PI) (PI)
                 (?B) (?B) (?B) (?B) (DLTA) (DLTA) (SG) (PHI) (PHI)
                 (PI) (PI) (SG) (DLTA) (DLTA) (SG) (PI) (PI) (DLTA)
                 (DLTA) (SG) (PI) (PI) (PI) (PI) (SG) (SG) (SG)
                 (DLTA) (DLTA) (PI) (PI) (SG) (PHI) (PHI) (?A)
                 (?A) (DLTA) (DLTA) (PI) (PI) (SG) (PHI) (PHI)
                 (DLTA) (DLTA) (SG) (PI) (PI) (SG) (DLTA) (DLTA)
                 (PI) (PI) (SG) (SG) (PI) (PI) (SG) (SG) (SG) (SG)
                 (SG)
 The electronic state of the initial guess is 1-SG.
 Leave Link  401 at Sat Apr 17 09:38:41 2021, MaxMem=   104857600 cpu:             107.0 elap:               2.4
 (Enter /s/ls4/users/knvvv/bin/g16sse/l502.exe)
 Integral symmetry usage will be decided dynamically.
 Closed shell SCF:
 Using DIIS extrapolation, IDIIS=  1040.
 NGot=   104857600 LenX=   104783104 LenY=   104750979
 Requested convergence on RMS density matrix=1.00D-08 within 128 cycles.
 Requested convergence on MAX density matrix=1.00D-06.
 Requested convergence on             energy=1.00D-06.
 No special actions if energy rises.
 Fock matrices will be formed incrementally for  20 cycles.

 Cycle   1  Pass 1  IDiag  1:
 FoFJK:  IHMeth= 1 ICntrl=       0 DoSepK=F KAlg= 0 I1Cent=           0 FoldK=F
 IRaf= 990000000 NMat=       1 IRICut=       1 DoRegI=T DoRafI=F ISym2E= 1 IDoP0=0 IntGTp=1.
 FoFCou: FMM=F IPFlag=           0 FMFlag=      100000 FMFlg1=           0
         NFxFlg=           0 DoJE=F BraDBF=F KetDBF=F FulRan=T
         wScrn=  0.000000 ICntrl=         0 IOpCl=  0 I1Cent=           0 NGrid=           0
         NMat0=    1 NMatS0=      1 NMatT0=    0 NMatD0=    1 NMtDS0=    0 NMtDT0=    0
 Petite list used in FoFCou.
 CoulSu:  requested number of processors reduced to:  21 ShMem   1 Linda.
 E= -559.950242837412    
 DIIS: error= 3.52D-02 at cycle   1 NSaved=   1.
 NSaved= 1 IEnMin= 1 EnMin= -559.950242837412     IErMin= 1 ErrMin= 3.52D-02
 ErrMax= 3.52D-02  0.00D+00 EMaxC= 1.00D-01 BMatC= 1.37D-01 BMatP= 1.37D-01
 IDIUse=3 WtCom= 6.48D-01 WtEn= 3.52D-01
 Coeff-Com:  0.100D+01
 Coeff-En:   0.100D+01
 Coeff:      0.100D+01
 Gap=     0.343 Goal=   None    Shift=    0.000
 GapD=    0.343 DampG=1.000 DampE=0.500 DampFc=0.5000 IDamp=-1.
 Damping current iteration by 5.00D-01
 RMSDP=1.65D-03 MaxDP=5.47D-02              OVMax= 1.26D-01

 Cycle   2  Pass 1  IDiag  1:
 RMSU=  8.09D-04    CP:  1.01D+00
 CoulSu:  requested number of processors reduced to:  21 ShMem   1 Linda.
 E= -559.967474794819     Delta-E=       -0.017231957407 Rises=F Damp=T
 DIIS: error= 1.81D-02 at cycle   2 NSaved=   2.
 NSaved= 2 IEnMin= 2 EnMin= -559.967474794819     IErMin= 2 ErrMin= 1.81D-02
 ErrMax= 1.81D-02  0.00D+00 EMaxC= 1.00D-01 BMatC= 2.41D-02 BMatP= 1.37D-01
 IDIUse=3 WtCom= 8.19D-01 WtEn= 1.81D-01
 Coeff-Com: -0.269D+00 0.127D+01
 Coeff-En:   0.000D+00 0.100D+01
 Coeff:     -0.220D+00 0.122D+01
 Gap=     0.353 Goal=   None    Shift=    0.000
 RMSDP=5.23D-04 MaxDP=2.33D-02 DE=-1.72D-02 OVMax= 9.63D-02

 Cycle   3  Pass 1  IDiag  1:
 RMSU=  5.11D-04    CP:  1.01D+00  1.13D+00
 CoulSu:  requested number of processors reduced to:  21 ShMem   1 Linda.
 E= -559.980886842392     Delta-E=       -0.013412047573 Rises=F Damp=F
 DIIS: error= 1.19D-02 at cycle   3 NSaved=   3.
 NSaved= 3 IEnMin= 3 EnMin= -559.980886842392     IErMin= 3 ErrMin= 1.19D-02
 ErrMax= 1.19D-02  0.00D+00 EMaxC= 1.00D-01 BMatC= 1.23D-02 BMatP= 2.41D-02
 IDIUse=3 WtCom= 8.81D-01 WtEn= 1.19D-01
 Coeff-Com: -0.253D+00 0.634D+00 0.619D+00
 Coeff-En:   0.000D+00 0.000D+00 0.100D+01
 Coeff:     -0.223D+00 0.558D+00 0.664D+00
 Gap=     0.338 Goal=   None    Shift=    0.000
 RMSDP=3.24D-04 MaxDP=9.34D-03 DE=-1.34D-02 OVMax= 4.06D-02

 Cycle   4  Pass 1  IDiag  1:
 RMSU=  1.67D-04    CP:  1.01D+00  1.36D+00  6.02D-01
 CoulSu:  requested number of processors reduced to:  21 ShMem   1 Linda.
 E= -559.987420679481     Delta-E=       -0.006533837089 Rises=F Damp=F
 DIIS: error= 3.85D-03 at cycle   4 NSaved=   4.
 NSaved= 4 IEnMin= 4 EnMin= -559.987420679481     IErMin= 4 ErrMin= 3.85D-03
 ErrMax= 3.85D-03  0.00D+00 EMaxC= 1.00D-01 BMatC= 1.16D-03 BMatP= 1.23D-02
 IDIUse=3 WtCom= 9.61D-01 WtEn= 3.85D-02
 Coeff-Com: -0.590D-01 0.114D+00 0.294D+00 0.651D+00
 Coeff-En:   0.000D+00 0.000D+00 0.251D-01 0.975D+00
 Coeff:     -0.568D-01 0.110D+00 0.283D+00 0.664D+00
 Gap=     0.336 Goal=   None    Shift=    0.000
 RMSDP=8.02D-05 MaxDP=1.92D-03 DE=-6.53D-03 OVMax= 8.91D-03

 Cycle   5  Pass 1  IDiag  1:
 RMSU=  2.94D-05    CP:  1.01D+00  1.35D+00  7.11D-01  7.12D-01
 CoulSu:  requested number of processors reduced to:  21 ShMem   1 Linda.
 E= -559.988048982094     Delta-E=       -0.000628302613 Rises=F Damp=F
 DIIS: error= 2.61D-04 at cycle   5 NSaved=   5.
 NSaved= 5 IEnMin= 5 EnMin= -559.988048982094     IErMin= 5 ErrMin= 2.61D-04
 ErrMax= 2.61D-04  0.00D+00 EMaxC= 1.00D-01 BMatC= 6.21D-06 BMatP= 1.16D-03
 IDIUse=3 WtCom= 9.97D-01 WtEn= 2.61D-03
 Coeff-Com: -0.706D-02 0.122D-01 0.449D-01 0.154D+00 0.796D+00
 Coeff-En:   0.000D+00 0.000D+00 0.000D+00 0.000D+00 0.100D+01
 Coeff:     -0.704D-02 0.122D-01 0.448D-01 0.153D+00 0.797D+00
 Gap=     0.335 Goal=   None    Shift=    0.000
 RMSDP=9.82D-06 MaxDP=2.93D-04 DE=-6.28D-04 OVMax= 8.50D-04

 Cycle   6  Pass 1  IDiag  1:
 RMSU=  5.50D-06    CP:  1.01D+00  1.35D+00  7.07D-01  7.58D-01  9.78D-01
 CoulSu:  requested number of processors reduced to:  21 ShMem   1 Linda.
 E= -559.988053279855     Delta-E=       -0.000004297761 Rises=F Damp=F
 DIIS: error= 6.62D-05 at cycle   6 NSaved=   6.
 NSaved= 6 IEnMin= 6 EnMin= -559.988053279855     IErMin= 6 ErrMin= 6.62D-05
 ErrMax= 6.62D-05  0.00D+00 EMaxC= 1.00D-01 BMatC= 2.80D-07 BMatP= 6.21D-06
 IDIUse=1 WtCom= 1.00D+00 WtEn= 0.00D+00
 Coeff-Com:  0.253D-02-0.522D-02-0.115D-01-0.202D-01 0.159D+00 0.875D+00
 Coeff:      0.253D-02-0.522D-02-0.115D-01-0.202D-01 0.159D+00 0.875D+00
 Gap=     0.336 Goal=   None    Shift=    0.000
 RMSDP=2.02D-06 MaxDP=5.13D-05 DE=-4.30D-06 OVMax= 1.48D-04

 Cycle   7  Pass 1  IDiag  1:
 RMSU=  1.35D-06    CP:  1.01D+00  1.35D+00  7.08D-01  7.62D-01  1.02D+00
                    CP:  9.56D-01
 CoulSu:  requested number of processors reduced to:  21 ShMem   1 Linda.
 E= -559.988053456717     Delta-E=       -0.000000176862 Rises=F Damp=F
 DIIS: error= 6.20D-06 at cycle   7 NSaved=   7.
 NSaved= 7 IEnMin= 7 EnMin= -559.988053456717     IErMin= 7 ErrMin= 6.20D-06
 ErrMax= 6.20D-06  0.00D+00 EMaxC= 1.00D-01 BMatC= 6.93D-09 BMatP= 2.80D-07
 IDIUse=1 WtCom= 1.00D+00 WtEn= 0.00D+00
 Coeff-Com:  0.204D-03-0.370D-03-0.251D-02-0.801D-02-0.410D-02 0.113D+00
 Coeff-Com:  0.902D+00
 Coeff:      0.204D-03-0.370D-03-0.251D-02-0.801D-02-0.410D-02 0.113D+00
 Coeff:      0.902D+00
 Gap=     0.336 Goal=   None    Shift=    0.000
 RMSDP=5.24D-07 MaxDP=2.41D-05 DE=-1.77D-07 OVMax= 4.40D-05

 Cycle   8  Pass 1  IDiag  1:
 RMSU=  2.58D-07    CP:  1.01D+00  1.35D+00  7.09D-01  7.62D-01  1.02D+00
                    CP:  9.95D-01  9.97D-01
 CoulSu:  requested number of processors reduced to:  21 ShMem   1 Linda.
 E= -559.988053464025     Delta-E=       -0.000000007308 Rises=F Damp=F
 DIIS: error= 1.65D-06 at cycle   8 NSaved=   8.
 NSaved= 8 IEnMin= 8 EnMin= -559.988053464025     IErMin= 8 ErrMin= 1.65D-06
 ErrMax= 1.65D-06  0.00D+00 EMaxC= 1.00D-01 BMatC= 2.51D-10 BMatP= 6.93D-09
 IDIUse=1 WtCom= 1.00D+00 WtEn= 0.00D+00
 Coeff-Com: -0.139D-05 0.996D-05 0.277D-03 0.624D-03-0.441D-02-0.361D-01
 Coeff-Com: -0.492D-01 0.109D+01
 Coeff:     -0.139D-05 0.996D-05 0.277D-03 0.624D-03-0.441D-02-0.361D-01
 Coeff:     -0.492D-01 0.109D+01
 Gap=     0.336 Goal=   None    Shift=    0.000
 RMSDP=1.09D-07 MaxDP=5.00D-06 DE=-7.31D-09 OVMax= 7.12D-06

 Cycle   9  Pass 1  IDiag  1:
 RMSU=  4.46D-08    CP:  1.01D+00  1.35D+00  7.09D-01  7.62D-01  1.02D+00
                    CP:  9.99D-01  1.04D+00  1.21D+00
 CoulSu:  requested number of processors reduced to:  21 ShMem   1 Linda.
 E= -559.988053464341     Delta-E=       -0.000000000316 Rises=F Damp=F
 DIIS: error= 2.66D-07 at cycle   9 NSaved=   9.
 NSaved= 9 IEnMin= 9 EnMin= -559.988053464341     IErMin= 9 ErrMin= 2.66D-07
 ErrMax= 2.66D-07  0.00D+00 EMaxC= 1.00D-01 BMatC= 9.04D-12 BMatP= 2.51D-10
 IDIUse=1 WtCom= 1.00D+00 WtEn= 0.00D+00
 Coeff-Com: -0.113D-04 0.217D-04 0.162D-03 0.444D-03-0.136D-03-0.728D-02
 Coeff-Com: -0.364D-01 0.915D-01 0.952D+00
 Coeff:     -0.113D-04 0.217D-04 0.162D-03 0.444D-03-0.136D-03-0.728D-02
 Coeff:     -0.364D-01 0.915D-01 0.952D+00
 Gap=     0.336 Goal=   None    Shift=    0.000
 RMSDP=1.74D-08 MaxDP=8.37D-07 DE=-3.16D-10 OVMax= 1.20D-06

 Cycle  10  Pass 1  IDiag  1:
 RMSU=  6.19D-09    CP:  1.01D+00  1.35D+00  7.09D-01  7.62D-01  1.02D+00
                    CP:  1.00D+00  1.04D+00  1.26D+00  1.18D+00
 CoulSu:  requested number of processors reduced to:  21 ShMem   1 Linda.
 E= -559.988053464355     Delta-E=       -0.000000000015 Rises=F Damp=F
 DIIS: error= 3.84D-08 at cycle  10 NSaved=  10.
 NSaved=10 IEnMin=10 EnMin= -559.988053464355     IErMin=10 ErrMin= 3.84D-08
 ErrMax= 3.84D-08  0.00D+00 EMaxC= 1.00D-01 BMatC= 2.04D-13 BMatP= 9.04D-12
 IDIUse=1 WtCom= 1.00D+00 WtEn= 0.00D+00
 Coeff-Com:  0.170D-05-0.377D-05-0.166D-04-0.421D-04 0.131D-03 0.164D-02
 Coeff-Com:  0.121D-02-0.390D-01-0.411D-01 0.108D+01
 Coeff:      0.170D-05-0.377D-05-0.166D-04-0.421D-04 0.131D-03 0.164D-02
 Coeff:      0.121D-02-0.390D-01-0.411D-01 0.108D+01
 Gap=     0.336 Goal=   None    Shift=    0.000
 RMSDP=3.93D-09 MaxDP=1.09D-07 DE=-1.48D-11 OVMax= 4.04D-07

 SCF Done:  E(RM062X) =  -559.988053464     A.U. after   10 cycles
            NFock= 10  Conv=0.39D-08     -V/T= 2.0016
 KE= 5.590661873465D+02 PE=-1.431964844722D+03 EE= 2.632948693014D+02
 Leave Link  502 at Sat Apr 17 09:38:55 2021, MaxMem=   104857600 cpu:             529.4 elap:              14.6
 (Enter /s/ls4/users/knvvv/bin/g16sse/l601.exe)
 Copying SCF densities to generalized density rwf, IOpCl= 0 IROHF=0.

 **********************************************************************

            Population analysis using the SCF density.

 **********************************************************************

 Orbital symmetries:
       Occupied  (SG) (SG) (SG) (SG) (PI) (PI) (SG) (SG) (SG) (PI)
                 (PI) (PI) (PI)
       Virtual   (SG) (SG) (PI) (PI) (SG) (SG) (PI) (PI) (DLTA)
                 (DLTA) (PI) (PI) (SG) (SG) (PI) (PI) (SG) (SG)
                 (DLTA) (DLTA) (PI) (PI) (DLTA) (DLTA) (PI) (PI)
                 (SG) (SG) (PI) (PI) (SG) (SG) (PI) (PI) (SG) (PI)
                 (PI) (DLTA) (DLTA) (PHI) (PHI) (DLTA) (DLTA) (SG)
                 (PI) (PI) (DLTA) (DLTA) (PI) (PI) (SG) (SG) (PI)
                 (PI) (SG) (SG) (DLTA) (DLTA) (PI) (PI) (DLTA)
                 (DLTA) (SG) (PHI) (PHI) (?A) (?A) (PI) (PI) (SG)
                 (PHI) (PHI) (DLTA) (DLTA) (PI) (PI) (SG) (PI)
                 (PI) (PHI) (PHI) (SG) (SG) (DLTA) (DLTA) (PI)
                 (PI) (DLTA) (DLTA) (SG) (PI) (PI) (PI) (PI) (SG)
                 (SG) (SG) (DLTA) (DLTA) (PI) (PI) (SG) (PHI) (PHI)
                 (DLTA) (DLTA) (?A) (?A) (PI) (PI) (SG) (PHI) (PHI)
                 (DLTA) (DLTA) (PI) (PI) (SG) (SG) (DLTA) (DLTA)
                 (PI) (PI) (SG) (SG) (PI) (PI) (SG) (SG) (SG) (SG)
                 (SG)
 The electronic state is 1-SG.
 Alpha  occ. eigenvalues -- -102.74042 -25.30176  -9.88967  -7.61760  -7.60709
 Alpha  occ. eigenvalues --   -7.60709  -1.38956  -0.93807  -0.61216  -0.59406
 Alpha  occ. eigenvalues --   -0.59406  -0.40586  -0.40586
 Alpha virt. eigenvalues --   -0.07034   0.02878   0.03233   0.03233   0.04128
 Alpha virt. eigenvalues --    0.09602   0.10132   0.10132   0.16751   0.16753
 Alpha virt. eigenvalues --    0.22306   0.22306   0.23244   0.26182   0.30580
 Alpha virt. eigenvalues --    0.30580   0.34052   0.44347   0.45488   0.45496
 Alpha virt. eigenvalues --    0.47486   0.47486   0.49696   0.49698   0.51531
 Alpha virt. eigenvalues --    0.51531   0.61223   0.70160   0.72615   0.72615
 Alpha virt. eigenvalues --    0.79131   1.11168   1.16561   1.16561   1.27418
 Alpha virt. eigenvalues --    1.29774   1.29774   1.31709   1.31718   1.32144
 Alpha virt. eigenvalues --    1.32144   1.36156   1.36190   1.48532   1.54270
 Alpha virt. eigenvalues --    1.54270   1.72292   1.72298   1.83270   1.83270
 Alpha virt. eigenvalues --    1.84305   2.01862   2.13123   2.13123   2.13492
 Alpha virt. eigenvalues --    2.86301   3.30381   3.30415   3.35300   3.35300
 Alpha virt. eigenvalues --    3.42014   3.42021   3.46620   3.49636   3.49636
 Alpha virt. eigenvalues --    3.52984   3.53055   3.57188   3.57188   3.59579
 Alpha virt. eigenvalues --    3.84072   3.84072   3.87352   3.87366   3.90401
 Alpha virt. eigenvalues --    3.90401   3.92057   4.15533   4.15533   4.19122
 Alpha virt. eigenvalues --    4.19122   4.25971   4.51616   4.52213   4.52221
 Alpha virt. eigenvalues --    5.04926   5.04926   5.26039   5.26040   5.53185
 Alpha virt. eigenvalues --    5.71750   5.71750   6.41337   6.41337   6.77021
 Alpha virt. eigenvalues --    6.99430   8.51415  10.68286  10.68286  10.73880
 Alpha virt. eigenvalues --   10.73880  11.12203  11.28676  11.28676  11.30879
 Alpha virt. eigenvalues --   11.30882  11.31182  11.31185  11.45331  11.45331
 Alpha virt. eigenvalues --   11.50912  14.39708  14.39708  14.47734  14.47737
 Alpha virt. eigenvalues --   14.80154  14.80154  14.83973  15.63381  15.81234
 Alpha virt. eigenvalues --   15.81237  15.97695  15.97695  16.42161  28.59277
 Alpha virt. eigenvalues --   41.95660  41.95660  42.08843  54.33823  98.36039
 Alpha virt. eigenvalues --  283.21428 524.25321
          Condensed to atoms (all electrons):
               1          2
     1  Cl  16.747417   0.053874
     2  F    0.053874   9.144834
 Mulliken charges:
               1
     1  Cl   0.198709
     2  F   -0.198709
 Sum of Mulliken charges =  -0.00000
 Mulliken charges with hydrogens summed into heavy atoms:
               1
     1  Cl   0.198709
     2  F   -0.198709
 Electronic spatial extent (au):  <R**2>=             93.9056
 Charge=             -0.0000 electrons
 Dipole moment (field-independent basis, Debye):
    X=              0.0000    Y=              0.0000    Z=              0.9363  Tot=              0.9363
 Quadrupole moment (field-independent basis, Debye-Ang):
   XX=            -17.4071   YY=            -17.4071   ZZ=            -16.2267
   XY=             -0.0000   XZ=              0.0000   YZ=              0.0000
 Traceless Quadrupole moment (field-independent basis, Debye-Ang):
   XX=             -0.3935   YY=             -0.3935   ZZ=              0.7870
   XY=             -0.0000   XZ=              0.0000   YZ=              0.0000
 Octapole moment (field-independent basis, Debye-Ang**2):
  XXX=              0.0000  YYY=              0.0000  ZZZ=             -1.8641  XYY=              0.0000
  XXY=              0.0000  XXZ=             -2.2375  XZZ=              0.0000  YZZ=              0.0000
  YYZ=             -2.2375  XYZ=             -0.0000
 Hexadecapole moment (field-independent basis, Debye-Ang**3):
 XXXX=            -17.2270 YYYY=            -17.2270 ZZZZ=            -64.8815 XXXY=             -0.0000
 XXXZ=              0.0000 YYYX=             -0.0000 YYYZ=              0.0000 ZZZX=              0.0000
 ZZZY=              0.0000 XXYY=             -5.7424 XXZZ=            -15.1537 YYZZ=            -15.1537
 XXYZ=              0.0000 YYXZ=              0.0000 ZZXY=             -0.0000
 N-N= 4.961573460943D+01 E-N=-1.431964845927D+03  KE= 5.590661873465D+02
 PrsmSu:  requested number of processors reduced to:  21 ShMem   1 Linda.
 No NMR shielding tensors so no spin-rotation constants.
 Leave Link  601 at Sat Apr 17 09:38:57 2021, MaxMem=   104857600 cpu:              75.3 elap:               1.7
 (Enter /s/ls4/users/knvvv/bin/g16sse/l801.exe)
 DoSCS=F DFT=T ScalE2(SS,OS)=  1.000000  1.000000
 Range of M.O.s used for correlation:     1   145
 NBasis=   145 NAE=    13 NBE=    13 NFC=     0 NFV=     0
 NROrb=    145 NOA=    13 NOB=    13 NVA=   132 NVB=   132

 **** Warning!!: The largest alpha MO coefficient is  0.16391052D+02

 Leave Link  801 at Sat Apr 17 09:38:57 2021, MaxMem=   104857600 cpu:               3.5 elap:               0.1
 (Enter /s/ls4/users/knvvv/bin/g16sse/l914.exe)
 RHF ground state
 Doing stability rather than CIS.
 Two-electron integrals replicated using symmetry.
 MDV=   104857600 DFT=T DoStab=T Mixed=T DoRPA=F DoScal=F NonHer=F
 Making orbital integer symmetry assigments:
 Orbital symmetries:
       Occupied  (SG) (SG) (SG) (SG) (PI) (PI) (SG) (SG) (SG) (PI)
                 (PI) (PI) (PI)
       Virtual   (SG) (SG) (PI) (PI) (SG) (SG) (PI) (PI) (DLTA)
                 (DLTA) (PI) (PI) (SG) (SG) (PI) (PI) (SG) (SG)
                 (DLTA) (DLTA) (PI) (PI) (DLTA) (DLTA) (PI) (PI)
                 (SG) (SG) (PI) (PI) (SG) (SG) (PI) (PI) (SG) (PI)
                 (PI) (DLTA) (DLTA) (PHI) (PHI) (DLTA) (DLTA) (SG)
                 (PI) (PI) (DLTA) (DLTA) (PI) (PI) (SG) (SG) (PI)
                 (PI) (SG) (SG) (DLTA) (DLTA) (PI) (PI) (DLTA)
                 (DLTA) (SG) (PHI) (PHI) (?A) (?A) (PI) (PI) (SG)
                 (PHI) (PHI) (DLTA) (DLTA) (PI) (PI) (SG) (PI)
                 (PI) (PHI) (PHI) (SG) (SG) (DLTA) (DLTA) (PI)
                 (PI) (DLTA) (DLTA) (SG) (PI) (PI) (PI) (PI) (SG)
                 (SG) (SG) (DLTA) (DLTA) (PI) (PI) (SG) (PHI) (PHI)
                 (DLTA) (DLTA) (?A) (?A) (PI) (PI) (SG) (PHI) (PHI)
                 (DLTA) (DLTA) (PI) (PI) (SG) (SG) (DLTA) (DLTA)
                 (PI) (PI) (SG) (SG) (PI) (PI) (SG) (SG) (SG) (SG)
                 (SG)
    24 initial guesses have been made.
 Convergence on wavefunction:    0.001000000000000
 Davidson Disk Diagonalization:  ConvIn= 1.00D-03 SkipCon=T Conv= 1.00D-03.
 Max sub-space:  2000 roots to seek:    24 dimension of matrix:         3432
 Iteration     1 Dimension    24 NMult     0 NNew     24
 Estimated number of processors is:   20
 CISAX will form     1 AO SS matrices at one time.
 NMat=     1 NSing=     1 JSym2X= 2.
 FoFJK:  IHMeth= 1 ICntrl=       0 DoSepK=F KAlg= 0 I1Cent=           0 FoldK=F
 IRaf= 990000000 NMat=       1 IRICut=       1 DoRegI=T DoRafI=F ISym2E= 2 IDoP0=0 IntGTp=1.
 FoFCou: FMM=F IPFlag=           0 FMFlag=      100000 FMFlg1=           0
         NFxFlg=           0 DoJE=F BraDBF=F KetDBF=F FulRan=T
         wScrn=  0.000000 ICntrl=         0 IOpCl=  0 I1Cent=           0 NGrid=           0
         NMat0=    1 NMatS0=      1 NMatT0=    0 NMatD0=    1 NMtDS0=    0 NMtDT0=    0
 Integrals replicated using symmetry in FoFCou.
 CoulSu:  requested number of processors reduced to:  21 ShMem   1 Linda.
 NMat=     1 NSing=     1 JSym2X= 2.
 CoulSu:  requested number of processors reduced to:  21 ShMem   1 Linda.
 NMat=     1 NSing=     1 JSym2X= 2.
 CoulSu:  requested number of processors reduced to:  21 ShMem   1 Linda.
 NMat=     1 NSing=     1 JSym2X= 2.
 CoulSu:  requested number of processors reduced to:  21 ShMem   1 Linda.
 NMat=     1 NSing=     1 JSym2X= 2.
 CoulSu:  requested number of processors reduced to:  21 ShMem   1 Linda.
 NMat=     1 NSing=     1 JSym2X= 2.
 CoulSu:  requested number of processors reduced to:  21 ShMem   1 Linda.
 NMat=     1 NSing=     1 JSym2X= 2.
 CoulSu:  requested number of processors reduced to:  21 ShMem   1 Linda.
 NMat=     1 NSing=     1 JSym2X= 2.
 CoulSu:  requested number of processors reduced to:  21 ShMem   1 Linda.
 NMat=     1 NSing=     1 JSym2X= 2.
 CoulSu:  requested number of processors reduced to:  21 ShMem   1 Linda.
 NMat=     1 NSing=     1 JSym2X= 2.
 CoulSu:  requested number of processors reduced to:  21 ShMem   1 Linda.
 NMat=     1 NSing=     1 JSym2X= 2.
 CoulSu:  requested number of processors reduced to:  21 ShMem   1 Linda.
 NMat=     1 NSing=     1 JSym2X= 2.
 CoulSu:  requested number of processors reduced to:  21 ShMem   1 Linda.
 NMat=     1 NSing=     0 JSym2X= 2.
 CoulSu:  requested number of processors reduced to:  21 ShMem   1 Linda.
 NMat=     1 NSing=     0 JSym2X= 2.
 CoulSu:  requested number of processors reduced to:  21 ShMem   1 Linda.
 NMat=     1 NSing=     0 JSym2X= 2.
 CoulSu:  requested number of processors reduced to:  21 ShMem   1 Linda.
 NMat=     1 NSing=     0 JSym2X= 2.
 CoulSu:  requested number of processors reduced to:  21 ShMem   1 Linda.
 NMat=     1 NSing=     0 JSym2X= 2.
 CoulSu:  requested number of processors reduced to:  21 ShMem   1 Linda.
 NMat=     1 NSing=     0 JSym2X= 2.
 CoulSu:  requested number of processors reduced to:  21 ShMem   1 Linda.
 NMat=     1 NSing=     0 JSym2X= 2.
 CoulSu:  requested number of processors reduced to:  21 ShMem   1 Linda.
 NMat=     1 NSing=     0 JSym2X= 2.
 CoulSu:  requested number of processors reduced to:  21 ShMem   1 Linda.
 NMat=     1 NSing=     0 JSym2X= 2.
 CoulSu:  requested number of processors reduced to:  21 ShMem   1 Linda.
 NMat=     1 NSing=     0 JSym2X= 2.
 CoulSu:  requested number of processors reduced to:  21 ShMem   1 Linda.
 NMat=     1 NSing=     0 JSym2X= 2.
 CoulSu:  requested number of processors reduced to:  21 ShMem   1 Linda.
 NMat=     1 NSing=     0 JSym2X= 2.
 CoulSu:  requested number of processors reduced to:  21 ShMem   1 Linda.
 New state      1 was old state      2
 Excitation Energies [eV] at current iteration:
 Root      1 :     3.186610590042000
 Root      2 :     3.186610590042894
 Root      3 :     5.330057083694090
 Root      4 :     5.330057083694948
 Root      5 :     9.309436247365168
 Root      6 :     9.309436247371222
 Root      7 :     9.314292510411576
 Root      8 :     9.314292510433878
 Root      9 :     9.705248503177469
 Root     10 :     9.756183712613531
 Root     11 :     9.756249274157653
 Root     12 :     9.805099225318070
 Root     13 :     9.805099225354654
 Root     14 :     9.905475148680100
 Root     15 :     9.905539176967421
 Root     16 :     9.918575805862872
 Root     17 :     9.918575805959552
 Root     18 :    10.069478074422050
 Root     19 :    10.069478074466940
 Root     20 :    10.495933289224580
 Root     21 :    11.308473993233490
 Root     22 :    11.308473993306430
 Root     23 :    11.377286236059190
 Root     24 :    11.377286236078720
 Iteration     2 Dimension    48 NMult    24 NNew     24
 Estimated number of processors is:   20
 CISAX will form     1 AO SS matrices at one time.
 NMat=     1 NSing=     1 JSym2X= 2.
 CoulSu:  requested number of processors reduced to:  21 ShMem   1 Linda.
 NMat=     1 NSing=     1 JSym2X= 2.
 CoulSu:  requested number of processors reduced to:  21 ShMem   1 Linda.
 NMat=     1 NSing=     1 JSym2X= 2.
 CoulSu:  requested number of processors reduced to:  21 ShMem   1 Linda.
 NMat=     1 NSing=     1 JSym2X= 2.
 CoulSu:  requested number of processors reduced to:  21 ShMem   1 Linda.
 NMat=     1 NSing=     1 JSym2X= 2.
 CoulSu:  requested number of processors reduced to:  21 ShMem   1 Linda.
 NMat=     1 NSing=     1 JSym2X= 2.
 CoulSu:  requested number of processors reduced to:  21 ShMem   1 Linda.
 NMat=     1 NSing=     1 JSym2X= 2.
 CoulSu:  requested number of processors reduced to:  21 ShMem   1 Linda.
 NMat=     1 NSing=     1 JSym2X= 2.
 CoulSu:  requested number of processors reduced to:  21 ShMem   1 Linda.
 NMat=     1 NSing=     1 JSym2X= 2.
 CoulSu:  requested number of processors reduced to:  21 ShMem   1 Linda.
 NMat=     1 NSing=     1 JSym2X= 2.
 CoulSu:  requested number of processors reduced to:  21 ShMem   1 Linda.
 NMat=     1 NSing=     1 JSym2X= 2.
 CoulSu:  requested number of processors reduced to:  21 ShMem   1 Linda.
 NMat=     1 NSing=     1 JSym2X= 2.
 CoulSu:  requested number of processors reduced to:  21 ShMem   1 Linda.
 NMat=     1 NSing=     0 JSym2X= 2.
 CoulSu:  requested number of processors reduced to:  21 ShMem   1 Linda.
 NMat=     1 NSing=     0 JSym2X= 2.
 CoulSu:  requested number of processors reduced to:  21 ShMem   1 Linda.
 NMat=     1 NSing=     0 JSym2X= 2.
 CoulSu:  requested number of processors reduced to:  21 ShMem   1 Linda.
 NMat=     1 NSing=     0 JSym2X= 2.
 CoulSu:  requested number of processors reduced to:  21 ShMem   1 Linda.
 NMat=     1 NSing=     0 JSym2X= 2.
 CoulSu:  requested number of processors reduced to:  21 ShMem   1 Linda.
 NMat=     1 NSing=     0 JSym2X= 2.
 CoulSu:  requested number of processors reduced to:  21 ShMem   1 Linda.
 NMat=     1 NSing=     0 JSym2X= 2.
 CoulSu:  requested number of processors reduced to:  21 ShMem   1 Linda.
 NMat=     1 NSing=     0 JSym2X= 2.
 CoulSu:  requested number of processors reduced to:  21 ShMem   1 Linda.
 NMat=     1 NSing=     0 JSym2X= 2.
 CoulSu:  requested number of processors reduced to:  21 ShMem   1 Linda.
 NMat=     1 NSing=     0 JSym2X= 2.
 CoulSu:  requested number of processors reduced to:  21 ShMem   1 Linda.
 NMat=     1 NSing=     0 JSym2X= 2.
 CoulSu:  requested number of processors reduced to:  21 ShMem   1 Linda.
 NMat=     1 NSing=     0 JSym2X= 2.
 CoulSu:  requested number of processors reduced to:  21 ShMem   1 Linda.
 DSYEVD-2 returned Info=          97 IAlg= 4 N=    48 NDim=    48 NE2=     2017565 trying  DSYEV.
 Root      1 not converged, maximum delta is    0.196083711775813
 Excitation Energies [eV] at current iteration:
 Root      1 :     2.842846110216656   Change is   -0.343764479825344
 Root      2 :     2.842846110217643   Change is   -0.343764479825251
 Root      3 :     4.737713584968815   Change is   -0.592343498725275
 Root      4 :     4.737713584969261   Change is   -0.592343498725687
 Root      5 :     9.089516205463925   Change is   -0.224776304947652
 Root      6 :     9.089516205478569   Change is   -0.224776304955308
 Root      7 :     9.216829949145534   Change is   -0.092606298219634
 Root      8 :     9.216829949150465   Change is   -0.092606298220756
 Root      9 :     9.610964914295741   Change is   -0.094283588881729
 Root     10 :     9.661846916822538   Change is   -0.094336795790993
 Root     11 :     9.662102323309744   Change is   -0.094146950847909
 Root     12 :     9.735288261516946   Change is   -0.069810963801125
 Root     13 :     9.735288261825810   Change is   -0.069810963528845
 Root     14 :     9.791300747777720   Change is   -0.114174400902381
 Root     15 :     9.791551454654067   Change is   -0.113987722313354
 Root     16 :     9.809859458882681   Change is   -0.108716346980191
 Root     17 :     9.809859458976881   Change is   -0.108716346982671
 Root     18 :     9.938158664257665   Change is   -0.131319410164386
 Root     19 :     9.938158664290638   Change is   -0.131319410176307
 Root     20 :    10.266952671153400   Change is   -0.228980618071183
 Root     21 :    11.127492955006370   Change is   -0.180981038227121
 Root     22 :    11.127492955072790   Change is   -0.180981038233641
 Root     23 :    11.271311351473850   Change is   -0.105974884585342
 Root     24 :    11.271311351489710   Change is   -0.105974884589011
 Iteration     3 Dimension    54 NMult    48 NNew      6
 Estimated number of processors is:   20
 CISAX will form     1 AO SS matrices at one time.
 NMat=     1 NSing=     1 JSym2X= 2.
 CoulSu:  requested number of processors reduced to:  21 ShMem   1 Linda.
 NMat=     1 NSing=     1 JSym2X= 2.
 CoulSu:  requested number of processors reduced to:  21 ShMem   1 Linda.
 NMat=     1 NSing=     1 JSym2X= 2.
 CoulSu:  requested number of processors reduced to:  21 ShMem   1 Linda.
 NMat=     1 NSing=     0 JSym2X= 2.
 CoulSu:  requested number of processors reduced to:  21 ShMem   1 Linda.
 NMat=     1 NSing=     0 JSym2X= 2.
 CoulSu:  requested number of processors reduced to:  21 ShMem   1 Linda.
 NMat=     1 NSing=     0 JSym2X= 2.
 CoulSu:  requested number of processors reduced to:  21 ShMem   1 Linda.
 Root      1 not converged, maximum delta is    0.232366016143718
 Excitation Energies [eV] at current iteration:
 Root      1 :     2.832862370564176   Change is   -0.009983739652481
 Root      2 :     2.832862370565312   Change is   -0.009983739652332
 Root      3 :     4.698461810109436   Change is   -0.039251774859825
 Root      4 :     4.698497997105807   Change is   -0.039215587863007
 Root      5 :     9.081266759321871   Change is   -0.008249446142054
 Root      6 :     9.212529907006276   Change is   -0.004300042139258
 Iteration     4 Dimension    60 NMult    54 NNew      6
 Estimated number of processors is:   20
 CISAX will form     1 AO SS matrices at one time.
 NMat=     1 NSing=     1 JSym2X= 2.
 CoulSu:  requested number of processors reduced to:  21 ShMem   1 Linda.
 NMat=     1 NSing=     1 JSym2X= 2.
 CoulSu:  requested number of processors reduced to:  21 ShMem   1 Linda.
 NMat=     1 NSing=     1 JSym2X= 2.
 CoulSu:  requested number of processors reduced to:  21 ShMem   1 Linda.
 NMat=     1 NSing=     0 JSym2X= 2.
 CoulSu:  requested number of processors reduced to:  21 ShMem   1 Linda.
 NMat=     1 NSing=     0 JSym2X= 2.
 CoulSu:  requested number of processors reduced to:  21 ShMem   1 Linda.
 NMat=     1 NSing=     0 JSym2X= 2.
 CoulSu:  requested number of processors reduced to:  21 ShMem   1 Linda.
 Root      1 not converged, maximum delta is    0.428820857450935
 Excitation Energies [eV] at current iteration:
 Root      1 :     2.831156573389509   Change is   -0.001705797174666
 Root      2 :     2.831172655007541   Change is   -0.001689715557771
 Root      3 :     4.693208079557817   Change is   -0.005253730551619
 Root      4 :     4.693309482433911   Change is   -0.005188514671897
 Root      5 :     7.770524428820864
 Root      6 :     9.211550515841232   Change is   -0.000979391165044
 Iteration     5 Dimension    66 NMult    60 NNew      6
 Estimated number of processors is:   20
 CISAX will form     1 AO SS matrices at one time.
 NMat=     1 NSing=     1 JSym2X= 2.
 CoulSu:  requested number of processors reduced to:  21 ShMem   1 Linda.
 NMat=     1 NSing=     1 JSym2X= 2.
 CoulSu:  requested number of processors reduced to:  21 ShMem   1 Linda.
 NMat=     1 NSing=     1 JSym2X= 2.
 CoulSu:  requested number of processors reduced to:  21 ShMem   1 Linda.
 NMat=     1 NSing=     0 JSym2X= 2.
 CoulSu:  requested number of processors reduced to:  21 ShMem   1 Linda.
 NMat=     1 NSing=     0 JSym2X= 2.
 CoulSu:  requested number of processors reduced to:  21 ShMem   1 Linda.
 NMat=     1 NSing=     0 JSym2X= 2.
 CoulSu:  requested number of processors reduced to:  21 ShMem   1 Linda.
 Root      1 has converged.
 Excitation Energies [eV] at current iteration:
 Root      1 :     2.831106085532765   Change is   -0.000050487856744
 Root      2 :     2.831107526383263   Change is   -0.000065128624278
 Root      3 :     4.692955093913556   Change is   -0.000252985644261
 Root      4 :     4.692958418805937   Change is   -0.000351063627975
 Root      5 :     7.409335232607423   Change is   -0.361189196213442
 Root      6 :     9.192297500147056   Change is   -0.019253015694176
 Convergence achieved on expansion vectors.
 ***********************************************************************
 Stability analysis using <AA,BB:AA,BB> singles matrix:
 ***********************************************************************
 1PDM for each excited state written to RWF  633
 Ground to excited state transition densities written to RWF  633

 Eigenvectors of the stability matrix:
 
 Excited state symmetry could not be determined.
 Eigenvector   1:      Triplet-?Sym  Eigenvalue= 0.1040412  <S**2>=2.000
      12 -> 14        -0.33723
      13 -> 14         0.59797
      13 -> 18        -0.10779
 The wavefunction is stable under the perturbations considered.
 Leave Link  914 at Sat Apr 17 09:41:01 2021, MaxMem=   104857600 cpu:            4785.0 elap:             123.7
 (Enter /s/ls4/users/knvvv/bin/g16sse/l508.exe)
 The wavefunction is already stable.
 Leave Link  508 at Sat Apr 17 09:41:01 2021, MaxMem=   104857600 cpu:               2.2 elap:               0.1
 (Enter /s/ls4/users/knvvv/bin/g16sse/l601.exe)
 Copying SCF densities to generalized density rwf, IOpCl= 0 IROHF=0.

 **********************************************************************

            Population analysis using the SCF density.

 **********************************************************************

 Orbital symmetries:
       Occupied  (SG) (SG) (SG) (SG) (PI) (PI) (SG) (SG) (SG) (PI)
                 (PI) (PI) (PI)
       Virtual   (SG) (SG) (PI) (PI) (SG) (SG) (PI) (PI) (DLTA)
                 (DLTA) (PI) (PI) (SG) (SG) (PI) (PI) (SG) (SG)
                 (DLTA) (DLTA) (PI) (PI) (DLTA) (DLTA) (PI) (PI)
                 (SG) (SG) (PI) (PI) (SG) (SG) (PI) (PI) (SG) (PI)
                 (PI) (DLTA) (DLTA) (PHI) (PHI) (DLTA) (DLTA) (SG)
                 (PI) (PI) (DLTA) (DLTA) (PI) (PI) (SG) (SG) (PI)
                 (PI) (SG) (SG) (DLTA) (DLTA) (PI) (PI) (DLTA)
                 (DLTA) (SG) (PHI) (PHI) (?A) (?A) (PI) (PI) (SG)
                 (PHI) (PHI) (DLTA) (DLTA) (PI) (PI) (SG) (PI)
                 (PI) (PHI) (PHI) (SG) (SG) (DLTA) (DLTA) (PI)
                 (PI) (DLTA) (DLTA) (SG) (PI) (PI) (PI) (PI) (SG)
                 (SG) (SG) (DLTA) (DLTA) (PI) (PI) (SG) (PHI) (PHI)
                 (DLTA) (DLTA) (?A) (?A) (PI) (PI) (SG) (PHI) (PHI)
                 (DLTA) (DLTA) (PI) (PI) (SG) (SG) (DLTA) (DLTA)
                 (PI) (PI) (SG) (SG) (PI) (PI) (SG) (SG) (SG) (SG)
                 (SG)
 The electronic state is 1-SG.
 Alpha  occ. eigenvalues -- -102.74042 -25.30176  -9.88967  -7.61760  -7.60709
 Alpha  occ. eigenvalues --   -7.60709  -1.38956  -0.93807  -0.61216  -0.59406
 Alpha  occ. eigenvalues --   -0.59406  -0.40586  -0.40586
 Alpha virt. eigenvalues --   -0.07034   0.02878   0.03233   0.03233   0.04128
 Alpha virt. eigenvalues --    0.09602   0.10132   0.10132   0.16751   0.16753
 Alpha virt. eigenvalues --    0.22306   0.22306   0.23244   0.26182   0.30580
 Alpha virt. eigenvalues --    0.30580   0.34052   0.44347   0.45488   0.45496
 Alpha virt. eigenvalues --    0.47486   0.47486   0.49696   0.49698   0.51531
 Alpha virt. eigenvalues --    0.51531   0.61223   0.70160   0.72615   0.72615
 Alpha virt. eigenvalues --    0.79131   1.11168   1.16561   1.16561   1.27418
 Alpha virt. eigenvalues --    1.29774   1.29774   1.31709   1.31718   1.32144
 Alpha virt. eigenvalues --    1.32144   1.36156   1.36190   1.48532   1.54270
 Alpha virt. eigenvalues --    1.54270   1.72292   1.72298   1.83270   1.83270
 Alpha virt. eigenvalues --    1.84305   2.01862   2.13123   2.13123   2.13492
 Alpha virt. eigenvalues --    2.86301   3.30381   3.30415   3.35300   3.35300
 Alpha virt. eigenvalues --    3.42014   3.42021   3.46620   3.49636   3.49636
 Alpha virt. eigenvalues --    3.52984   3.53055   3.57188   3.57188   3.59579
 Alpha virt. eigenvalues --    3.84072   3.84072   3.87352   3.87366   3.90401
 Alpha virt. eigenvalues --    3.90401   3.92057   4.15533   4.15533   4.19122
 Alpha virt. eigenvalues --    4.19122   4.25971   4.51616   4.52213   4.52221
 Alpha virt. eigenvalues --    5.04926   5.04926   5.26039   5.26040   5.53185
 Alpha virt. eigenvalues --    5.71750   5.71750   6.41337   6.41337   6.77021
 Alpha virt. eigenvalues --    6.99430   8.51415  10.68286  10.68286  10.73880
 Alpha virt. eigenvalues --   10.73880  11.12203  11.28676  11.28676  11.30879
 Alpha virt. eigenvalues --   11.30882  11.31182  11.31185  11.45331  11.45331
 Alpha virt. eigenvalues --   11.50912  14.39708  14.39708  14.47734  14.47737
 Alpha virt. eigenvalues --   14.80154  14.80154  14.83973  15.63381  15.81234
 Alpha virt. eigenvalues --   15.81237  15.97695  15.97695  16.42161  28.59277
 Alpha virt. eigenvalues --   41.95660  41.95660  42.08843  54.33823  98.36039
 Alpha virt. eigenvalues --  283.21428 524.25321
          Condensed to atoms (all electrons):
               1          2
     1  Cl  16.747417   0.053874
     2  F    0.053874   9.144834
 Mulliken charges:
               1
     1  Cl   0.198709
     2  F   -0.198709
 Sum of Mulliken charges =  -0.00000
 Mulliken charges with hydrogens summed into heavy atoms:
               1
     1  Cl   0.198709
     2  F   -0.198709
 Electronic spatial extent (au):  <R**2>=             93.9056
 Charge=             -0.0000 electrons
 Dipole moment (field-independent basis, Debye):
    X=              0.0000    Y=              0.0000    Z=              0.9363  Tot=              0.9363
 Quadrupole moment (field-independent basis, Debye-Ang):
   XX=            -17.4071   YY=            -17.4071   ZZ=            -16.2267
   XY=             -0.0000   XZ=              0.0000   YZ=              0.0000
 Traceless Quadrupole moment (field-independent basis, Debye-Ang):
   XX=             -0.3935   YY=             -0.3935   ZZ=              0.7870
   XY=             -0.0000   XZ=              0.0000   YZ=              0.0000
 Octapole moment (field-independent basis, Debye-Ang**2):
  XXX=              0.0000  YYY=              0.0000  ZZZ=             -1.8641  XYY=              0.0000
  XXY=              0.0000  XXZ=             -2.2375  XZZ=              0.0000  YZZ=              0.0000
  YYZ=             -2.2375  XYZ=             -0.0000
 Hexadecapole moment (field-independent basis, Debye-Ang**3):
 XXXX=            -17.2270 YYYY=            -17.2270 ZZZZ=            -64.8815 XXXY=             -0.0000
 XXXZ=              0.0000 YYYX=             -0.0000 YYYZ=              0.0000 ZZZX=              0.0000
 ZZZY=              0.0000 XXYY=             -5.7424 XXZZ=            -15.1537 YYZZ=            -15.1537
 XXYZ=              0.0000 YYXZ=              0.0000 ZZXY=             -0.0000
 N-N= 4.961573460943D+01 E-N=-1.431964845927D+03  KE= 5.590661873465D+02
 PrsmSu:  requested number of processors reduced to:  21 ShMem   1 Linda.
 No NMR shielding tensors so no spin-rotation constants.
 Leave Link  601 at Sat Apr 17 09:41:03 2021, MaxMem=   104857600 cpu:              77.4 elap:               1.8
 (Enter /s/ls4/users/knvvv/bin/g16sse/l9999.exe)

 Test job not archived.
 1\1\GINC-N178\Stability\RM062X\Gen\Cl1F1\KNVVV\17-Apr-2021\0\\#P M062X
 /GEN Integral=UltraFineGrid SCF=NoSymm Stable=(RExt, Opt) IOp(1/33=1)\
 \Database calculations.\\0,1\Cl,0,0.,0.,0.\F,0,0.,0.,1.63182333\\Versi
 on=ES64L-G16RevA.03\State=1-SG\HF=-559.9880535\RMSD=3.925e-09\Dipole=0
 .,0.,-0.368364\Quadrupole=-0.292545,-0.292545,0.58509,0.,0.,0.\PG=C*V 
 [C*(F1Cl1)]\\@


 IT IS THE BEHAVIOR AND DISTRIBUTION OF THE ELECTRONS 
 AROUND THE NUCLEUS THAT GIVES THE FUNDAMENTAL 
 CHARACTER OF AN ATOM:  IT MUST BE THE SAME FOR MOLECULES.

                               -- C. A. COULSON, 1951
 Job cpu time:       0 days  1 hours 37 minutes  7.5 seconds.
 Elapsed time:       0 days  0 hours  2 minutes 29.9 seconds.
 File lengths (MBytes):  RWF=    112 Int=      0 D2E=      0 Chk=      4 Scr=      1
 Normal termination of Gaussian 16 at Sat Apr 17 09:41:03 2021.
