 Entering Gaussian System, Link 0=/s/ls4/users/knvvv/bin/g16sse/g16
 Input=data/database/M062X--def2-QZVPPD--14a_cyanoacetamide_monB_3B-69.gjf
 Output=data/database/M062X--def2-QZVPPD--14a_cyanoacetamide_monB_3B-69.log
 Initial command:
 /s/ls4/users/knvvv/bin/g16sse/l1.exe "/s/ls4/users/knvvv/bin/scratch/Gau-31739.inp" -scrdir="/s/ls4/users/knvvv/bin/scratch/"
 Entering Link 1 = /s/ls4/users/knvvv/bin/g16sse/l1.exe PID=     31740.
  
 Copyright (c) 1988,1990,1992,1993,1995,1998,2003,2009,2016,
            Gaussian, Inc.  All Rights Reserved.
  
 This is part of the Gaussian(R) 16 program.  It is based on
 the Gaussian(R) 09 system (copyright 2009, Gaussian, Inc.),
 the Gaussian(R) 03 system (copyright 2003, Gaussian, Inc.),
 the Gaussian(R) 98 system (copyright 1998, Gaussian, Inc.),
 the Gaussian(R) 94 system (copyright 1995, Gaussian, Inc.),
 the Gaussian 92(TM) system (copyright 1992, Gaussian, Inc.),
 the Gaussian 90(TM) system (copyright 1990, Gaussian, Inc.),
 the Gaussian 88(TM) system (copyright 1988, Gaussian, Inc.),
 the Gaussian 86(TM) system (copyright 1986, Carnegie Mellon
 University), and the Gaussian 82(TM) system (copyright 1983,
 Carnegie Mellon University). Gaussian is a federally registered
 trademark of Gaussian, Inc.
  
 This software contains proprietary and confidential information,
 including trade secrets, belonging to Gaussian, Inc.
  
 This software is provided under written license and may be
 used, copied, transmitted, or stored only in accord with that
 written license.
  
 The following legend is applicable only to US Government
 contracts under FAR:
  
                    RESTRICTED RIGHTS LEGEND
  
 Use, reproduction and disclosure by the US Government is
 subject to restrictions as set forth in subparagraphs (a)
 and (c) of the Commercial Computer Software - Restricted
 Rights clause in FAR 52.227-19.
  
 Gaussian, Inc.
 340 Quinnipiac St., Bldg. 40, Wallingford CT 06492
  
  
 ---------------------------------------------------------------
 Warning -- This program may not be used in any manner that
 competes with the business of Gaussian, Inc. or will provide
 assistance to any competitor of Gaussian, Inc.  The licensee
 of this program is prohibited from giving any competitor of
 Gaussian, Inc. access to this program.  By using this program,
 the user acknowledges that Gaussian, Inc. is engaged in the
 business of creating and licensing software in the field of
 computational chemistry and represents and warrants to the
 licensee that it is not a competitor of Gaussian, Inc. and that
 it will not use this program in any manner prohibited above.
 ---------------------------------------------------------------
  

 Cite this work as:
 Gaussian 16, Revision A.03,
 M. J. Frisch, G. W. Trucks, H. B. Schlegel, G. E. Scuseria, 
 M. A. Robb, J. R. Cheeseman, G. Scalmani, V. Barone, 
 G. A. Petersson, H. Nakatsuji, X. Li, M. Caricato, A. V. Marenich, 
 J. Bloino, B. G. Janesko, R. Gomperts, B. Mennucci, H. P. Hratchian, 
 J. V. Ortiz, A. F. Izmaylov, J. L. Sonnenberg, D. Williams-Young, 
 F. Ding, F. Lipparini, F. Egidi, J. Goings, B. Peng, A. Petrone, 
 T. Henderson, D. Ranasinghe, V. G. Zakrzewski, J. Gao, N. Rega, 
 G. Zheng, W. Liang, M. Hada, M. Ehara, K. Toyota, R. Fukuda, 
 J. Hasegawa, M. Ishida, T. Nakajima, Y. Honda, O. Kitao, H. Nakai, 
 T. Vreven, K. Throssell, J. A. Montgomery, Jr., J. E. Peralta, 
 F. Ogliaro, M. J. Bearpark, J. J. Heyd, E. N. Brothers, K. N. Kudin, 
 V. N. Staroverov, T. A. Keith, R. Kobayashi, J. Normand, 
 K. Raghavachari, A. P. Rendell, J. C. Burant, S. S. Iyengar, 
 J. Tomasi, M. Cossi, J. M. Millam, M. Klene, C. Adamo, R. Cammi, 
 J. W. Ochterski, R. L. Martin, K. Morokuma, O. Farkas, 
 J. B. Foresman, and D. J. Fox, Gaussian, Inc., Wallingford CT, 2016.
 
 ******************************************
 Gaussian 16:  ES64L-G16RevA.03 25-Dec-2016
                17-Apr-2021 
 ******************************************
 %RWF=temp12_71346,70GB
 %nprocshared=48
 Will use up to   48 processors via shared memory.
 Default route: MaxDisk=80GB
 ----------------------------------------------------------------------
 #P M062X/GEN Integral=UltraFineGrid SCF=NoSymm Stable=(RExt, Opt) IOp(
 1/33=1)
 ----------------------------------------------------------------------
 1/33=1,38=1,172=1/1;
 2/12=2,17=6,18=5,40=1/2;
 3/5=7,11=2,25=1,30=1,74=-55,75=-5/1,2,3;
 4/9=2/1;
 5/5=2,38=5/2;
 6/7=2,8=2,9=2,10=2,28=1/1;
 8/6=1,10=90,11=11/1;
 9/8=-3,42=1,46=1/14;
 5/5=2,8=3,17=40,38=5/8(-2);
 6/7=2,8=2,9=2,10=2,28=1/1;
 99/5=1,9=1/99;
 Leave Link    1 at Sat Apr 17 08:38:03 2021, MaxMem=           0 cpu:              11.1 elap:               0.3
 (Enter /s/ls4/users/knvvv/bin/g16sse/l101.exe)
 ONIOM data not found on unit 2.
 ----------------------
 Database calculations.
 ----------------------
 TstMul:  ICh=     0
 TstMul:  Mul=     1
 TstMul:  ICh=     0
 TstMul:  Mul=     1
 Symbolic Z-matrix:
 Charge =  0 Multiplicity = 1
 C                     2.91435   23.78251   0.68305 
 C                     2.78729   26.25458   0.62805 
 C                     3.42728   25.1129   1.25166 
 H                     3.27504   25.17729   2.3295 
 H                     4.50521   25.19423   1.09385 
 H                     3.10311   21.77649   0.93823 
 H                     4.03997   22.76324   2.06395 
 N                     3.42313   22.69152   1.26259 
 N                     2.28241   27.16243   0.13552 
 O                     2.12195   23.75608  -0.26195 
 
 RdStrC is calling ZToCFu for IStruc=1 NZ=    10.
 PrtBox:  NBox=     2 Levels=  1 BoxLen=    8.00 SMaxX=       10.18
          Shift=           -4.009910          -41.151610            0.495018
 Box      1 Number                   0 centers from      1 to      8:
 Box      2 Number                   2 centers from      9 to     10:
 After GenITR:
 ITRead=  0  0  0  0  0  0  0  0  0  0
 MicOpt= -1 -1 -1 -1 -1 -1 -1 -1 -1 -1
 ITRead=  0  0  0  0  0  0  0  0  0  0
 MicOpt= -1 -1 -1 -1 -1 -1 -1 -1 -1 -1
 NAtoms=     10 NQM=       10 NQMF=       0 NMMI=      0 NMMIF=      0
                NMic=       0 NMicF=      0.
                    Isotopes and Nuclear Properties:
 (Nuclear quadrupole moments (NQMom) in fm**2, nuclear magnetic moments (NMagM)
  in nuclear magnetons)

  Atom         1           2           3           4           5           6           7           8           9          10
 IAtWgt=          12          12          12           1           1           1           1          14          14          16
 AtmWgt=  12.0000000  12.0000000  12.0000000   1.0078250   1.0078250   1.0078250   1.0078250  14.0030740  14.0030740  15.9949146
 NucSpn=           0           0           0           1           1           1           1           2           2           0
 AtZEff=  -0.0000000  -0.0000000  -0.0000000  -0.0000000  -0.0000000  -0.0000000  -0.0000000  -0.0000000  -0.0000000  -0.0000000
 NQMom=    0.0000000   0.0000000   0.0000000   0.0000000   0.0000000   0.0000000   0.0000000   2.0440000   2.0440000   0.0000000
 NMagM=    0.0000000   0.0000000   0.0000000   2.7928460   2.7928460   2.7928460   2.7928460   0.4037610   0.4037610   0.0000000
 AtZNuc=   6.0000000   6.0000000   6.0000000   1.0000000   1.0000000   1.0000000   1.0000000   7.0000000   7.0000000   8.0000000
 No MM parameters found.
 Leave Link  101 at Sat Apr 17 08:38:04 2021, MaxMem=   104857600 cpu:               9.9 elap:               0.2
 (Enter /s/ls4/users/knvvv/bin/g16sse/l202.exe)
                          Input orientation:                          
 ---------------------------------------------------------------------
 Center     Atomic      Atomic             Coordinates (Angstroms)
 Number     Number       Type             X           Y           Z
 ---------------------------------------------------------------------
      1          6           0        2.914349   23.782511    0.683048
      2          6           0        2.787287   26.254583    0.628049
      3          6           0        3.427280   25.112897    1.251656
      4          1           0        3.275043   25.177288    2.329501
      5          1           0        4.505214   25.194233    1.093851
      6          1           0        3.103105   21.776494    0.938231
      7          1           0        4.039968   22.763235    2.063953
      8          7           0        3.423129   22.691524    1.262585
      9          7           0        2.282408   27.162428    0.135524
     10          8           0        2.121953   23.756077   -0.261952
 ---------------------------------------------------------------------
                    Distance matrix (angstroms):
                    1          2          3          4          5
     1  C    0.000000
     2  C    2.475946   0.000000
     3  C    1.535038   1.449801   0.000000
     4  H    2.187764   2.072054   1.090446   0.000000
     5  H    2.166234   2.071856   1.092456   1.743685   0.000000
     6  H    2.030973   4.499915   3.366736   3.678396   3.697441
     7  H    2.052520   3.977504   2.560493   2.546228   2.658440
     8  N    1.336029   3.674550   2.421401   2.709107   2.731837
     9  N    3.481806   1.149637   2.599435   3.120840   3.119783
    10  O    1.233538   2.734466   2.415750   3.172552   3.096196
                    6          7          8          9         10
     6  H    0.000000
     7  H    1.765962   0.000000
     8  N    1.022204   1.013816   0.000000
     9  N    5.506920   5.114759   4.749789   0.000000
    10  O    2.514328   3.174012   2.269481   3.433214   0.000000
 Stoichiometry    C3H4N2O
 Framework group  C1[X(C3H4N2O)]
 Deg. of freedom    24
 Full point group                 C1      NOp   1
 Largest Abelian subgroup         C1      NOp   1
 Largest concise Abelian subgroup C1      NOp   1
                         Standard orientation:                         
 ---------------------------------------------------------------------
 Center     Atomic      Atomic             Coordinates (Angstroms)
 Number     Number       Type             X           Y           Z
 ---------------------------------------------------------------------
      1          6           0        0.860222    0.153186   -0.000512
      2          6           0       -1.582323   -0.252118   -0.003750
      3          6           0       -0.275612   -0.878562    0.040929
      4          1           0       -0.205207   -1.590482   -0.782045
      5          1           0       -0.208595   -1.469330    0.957423
      6          1           0        2.886460    0.271839   -0.072152
      7          1           0        2.234198   -1.369186   -0.086624
      8          7           0        2.090356   -0.367561   -0.024340
      9          7           0       -2.620270    0.240962   -0.038456
     10          8           0        0.623602    1.363540    0.025370
 ---------------------------------------------------------------------
 Rotational constants (GHZ):           9.9427891           2.3153501           1.9007879
 Leave Link  202 at Sat Apr 17 08:38:04 2021, MaxMem=   104857600 cpu:               6.7 elap:               0.2
 (Enter /s/ls4/users/knvvv/bin/g16sse/l301.exe)
 General basis read from cards:  (5D, 7F)
 Centers:       4      5      6      7
 S 4 1.00
     Exponent=  1.9069169000D+02 Coefficients=  7.0815167000D-04
     Exponent=  2.8605532000D+01 Coefficients=  5.4678827000D-03
     Exponent=  6.5095943000D+00 Coefficients=  2.7966605000D-02
     Exponent=  1.8412455000D+00 Coefficients=  1.0764538000D-01
 S 1 1.00
     Exponent=  5.9853725000D-01 Coefficients=  1.0000000000D+00
 S 1 1.00
     Exponent=  2.1397624000D-01 Coefficients=  1.0000000000D+00
 S 1 1.00
     Exponent=  8.0316286000D-02 Coefficients=  1.0000000000D+00
 P 1 1.00
     Exponent=  2.2920000000D+00 Coefficients=  1.0000000000D+00
 P 1 1.00
     Exponent=  8.3800000000D-01 Coefficients=  1.0000000000D+00
 P 1 1.00
     Exponent=  2.9200000000D-01 Coefficients=  1.0000000000D+00
 P 1 1.00
     Exponent=  8.4063199228D-02 Coefficients=  1.0000000000D+00
 D 1 1.00
     Exponent=  2.0620000000D+00 Coefficients=  1.0000000000D+00
 D 1 1.00
     Exponent=  6.6200000000D-01 Coefficients=  1.0000000000D+00
 F 1 1.00
     Exponent=  1.3970000000D+00 Coefficients=  1.0000000000D+00
 ****
 Centers:       1      2      3
 S 8 1.00
     Exponent=  6.7025071029D+04 Coefficients=  3.8736308501D-05
     Exponent=  1.0039986538D+04 Coefficients=  3.0107917575D-04
     Exponent=  2.2849316911D+03 Coefficients=  1.5787918095D-03
     Exponent=  6.4714122130D+02 Coefficients=  6.6087087195D-03
     Exponent=  2.1109472335D+02 Coefficients=  2.3367123250D-02
     Exponent=  7.6177643862D+01 Coefficients=  7.0420716898D-02
     Exponent=  2.9633839163D+01 Coefficients=  1.7360344953D-01
     Exponent=  1.2187785081D+01 Coefficients=  3.2292305648D-01
 S 2 1.00
     Exponent=  5.3026006299D+01 Coefficients=  7.4897404492D-02
     Exponent=  1.5258502776D+01 Coefficients=  7.6136220983D-01
 S 1 1.00
     Exponent=  5.2403957464D+00 Coefficients=  1.0000000000D+00
 S 1 1.00
     Exponent=  2.2905022379D+00 Coefficients=  1.0000000000D+00
 S 1 1.00
     Exponent=  6.9673283006D-01 Coefficients=  1.0000000000D+00
 S 1 1.00
     Exponent=  2.7599337363D-01 Coefficients=  1.0000000000D+00
 S 1 1.00
     Exponent=  1.0739884389D-01 Coefficients=  1.0000000000D+00
 S 1 1.00
     Exponent=  4.4981404899D-02 Coefficients=  1.0000000000D+00
 P 5 1.00
     Exponent=  1.0512555082D+02 Coefficients=  8.4647553844D-04
     Exponent=  2.4884461066D+01 Coefficients=  6.6274038534D-03
     Exponent=  7.8637230826D+00 Coefficients=  3.0120390419D-02
     Exponent=  2.8407001835D+00 Coefficients=  9.9951435476D-02
     Exponent=  1.1227137335D+00 Coefficients=  2.3826299282D-01
 P 1 1.00
     Exponent=  4.6050725555D-01 Coefficients=  1.0000000000D+00
 P 1 1.00
     Exponent=  1.8937530913D-01 Coefficients=  1.0000000000D+00
 P 1 1.00
     Exponent=  7.5983791611D-02 Coefficients=  1.0000000000D+00
 D 1 1.00
     Exponent=  1.8480000000D+00 Coefficients=  1.0000000000D+00
 D 1 1.00
     Exponent=  6.4900000000D-01 Coefficients=  1.0000000000D+00
 D 1 1.00
     Exponent=  2.2800000000D-01 Coefficients=  1.0000000000D+00
 D 1 1.00
     Exponent=  7.6889830417D-02 Coefficients=  1.0000000000D+00
 F 1 1.00
     Exponent=  1.4190000000D+00 Coefficients=  1.0000000000D+00
 F 1 1.00
     Exponent=  4.8500000000D-01 Coefficients=  1.0000000000D+00
 G 1 1.00
     Exponent=  1.0110000000D+00 Coefficients=  1.0000000000D+00
 ****
 Centers:       8      9
 S 8 1.00
     Exponent=  9.0726889210D+04 Coefficients=  3.9257887368D-05
     Exponent=  1.3590528801D+04 Coefficients=  3.0513316455D-04
     Exponent=  3.0929883781D+03 Coefficients=  1.6000560446D-03
     Exponent=  8.7599876362D+02 Coefficients=  6.6982937306D-03
     Exponent=  2.8574469982D+02 Coefficients=  2.3690078765D-02
     Exponent=  1.0311913417D+02 Coefficients=  7.1455405268D-02
     Exponent=  4.0128556777D+01 Coefficients=  1.7632774876D-01
     Exponent=  1.6528095704D+01 Coefficients=  3.2677592815D-01
 S 2 1.00
     Exponent=  6.9390960983D+01 Coefficients=  8.0052094386D-02
     Exponent=  2.0428200596D+01 Coefficients=  7.8268063538D-01
 S 1 1.00
     Exponent=  7.1292587972D+00 Coefficients=  1.0000000000D+00
 S 1 1.00
     Exponent=  3.1324304893D+00 Coefficients=  1.0000000000D+00
 S 1 1.00
     Exponent=  9.8755778723D-01 Coefficients=  1.0000000000D+00
 S 1 1.00
     Exponent=  3.8765721307D-01 Coefficients=  1.0000000000D+00
 S 1 1.00
     Exponent=  1.4909883075D-01 Coefficients=  1.0000000000D+00
 S 1 1.00
     Exponent=  6.2151630318D-02 Coefficients=  1.0000000000D+00
 P 5 1.00
     Exponent=  1.5005742670D+02 Coefficients= -8.6216165986D-04
     Exponent=  3.5491599483D+01 Coefficients= -6.8571273236D-03
     Exponent=  1.1247864223D+01 Coefficients= -3.1795688855D-02
     Exponent=  4.0900305195D+00 Coefficients= -1.0537396822D-01
     Exponent=  1.6220573146D+00 Coefficients= -2.4519708041D-01
 P 1 1.00
     Exponent=  6.6442261530D-01 Coefficients=  1.0000000000D+00
 P 1 1.00
     Exponent=  2.7099770070D-01 Coefficients=  1.0000000000D+00
 P 1 1.00
     Exponent=  1.0688749984D-01 Coefficients=  1.0000000000D+00
 D 1 1.00
     Exponent=  2.8370000000D+00 Coefficients=  1.0000000000D+00
 D 1 1.00
     Exponent=  9.6800000000D-01 Coefficients=  1.0000000000D+00
 D 1 1.00
     Exponent=  3.3500000000D-01 Coefficients=  1.0000000000D+00
 D 1 1.00
     Exponent=  1.0825280010D-01 Coefficients=  1.0000000000D+00
 F 1 1.00
     Exponent=  2.0270000000D+00 Coefficients=  1.0000000000D+00
 F 1 1.00
     Exponent=  6.8500000000D-01 Coefficients=  1.0000000000D+00
 G 1 1.00
     Exponent=  1.4270000000D+00 Coefficients=  1.0000000000D+00
 ****
 Centers:      10
 S 8 1.00
     Exponent=  1.1650646908D+05 Coefficients=  4.0383857939D-05
     Exponent=  1.7504349724D+04 Coefficients=  3.1255139004D-04
     Exponent=  3.9934513230D+03 Coefficients=  1.6341473495D-03
     Exponent=  1.1330063186D+03 Coefficients=  6.8283224757D-03
     Exponent=  3.6999569594D+02 Coefficients=  2.4124410221D-02
     Exponent=  1.3362074349D+02 Coefficients=  7.2730206154D-02
     Exponent=  5.2035643649D+01 Coefficients=  1.7934429892D-01
     Exponent=  2.1461939313D+01 Coefficients=  3.3059588895D-01
 S 2 1.00
     Exponent=  8.9835051252D+01 Coefficients=  9.6468652996D-02
     Exponent=  2.6428010844D+01 Coefficients=  9.4117481120D-01
 S 1 1.00
     Exponent=  9.2822824649D+00 Coefficients=  1.0000000000D+00
 S 1 1.00
     Exponent=  4.0947728533D+00 Coefficients=  1.0000000000D+00
 S 1 1.00
     Exponent=  1.3255349078D+00 Coefficients=  1.0000000000D+00
 S 1 1.00
     Exponent=  5.1877230787D-01 Coefficients=  1.0000000000D+00
 S 1 1.00
     Exponent=  1.9772676454D-01 Coefficients=  1.0000000000D+00
 S 1 1.00
     Exponent=  6.9638535104D-02 Coefficients=  1.0000000000D+00
 P 5 1.00
     Exponent=  1.9115255810D+02 Coefficients=  2.5115697705D-03
     Exponent=  4.5233356739D+01 Coefficients=  2.0039240864D-02
     Exponent=  1.4353465922D+01 Coefficients=  9.3609064762D-02
     Exponent=  5.2422371832D+00 Coefficients=  3.0618127124D-01
     Exponent=  2.0792418599D+00 Coefficients=  6.7810501439D-01
 P 1 1.00
     Exponent=  8.4282371424D-01 Coefficients=  1.0000000000D+00
 P 1 1.00
     Exponent=  3.3617694891D-01 Coefficients=  1.0000000000D+00
 P 1 1.00
     Exponent=  1.2863997974D-01 Coefficients=  1.0000000000D+00
 P 1 1.00
     Exponent=  4.3598162776D-02 Coefficients=  1.0000000000D+00
 D 1 1.00
     Exponent=  3.7750000000D+00 Coefficients=  1.0000000000D+00
 D 1 1.00
     Exponent=  1.3000000000D+00 Coefficients=  1.0000000000D+00
 D 1 1.00
     Exponent=  4.4400000000D-01 Coefficients=  1.0000000000D+00
 D 1 1.00
     Exponent=  1.2546378695D-01 Coefficients=  1.0000000000D+00
 F 1 1.00
     Exponent=  2.6660000000D+00 Coefficients=  1.0000000000D+00
 F 1 1.00
     Exponent=  8.5900000000D-01 Coefficients=  1.0000000000D+00
 G 1 1.00
     Exponent=  1.8460000000D+00 Coefficients=  1.0000000000D+00
 ****
 Ernie: Thresh=  0.10000D-02 Tol=  0.10000D-05 Strict=F.
 There are   629 symmetry adapted cartesian basis functions of A   symmetry.
 There are   513 symmetry adapted basis functions of A   symmetry.
   513 basis functions,   761 primitive gaussians,   629 cartesian basis functions
    22 alpha electrons       22 beta electrons
       nuclear repulsion energy       206.3017661672 Hartrees.
 IExCor= 4336 DFT=T Ex+Corr=M062X ExCW=0 ScaHFX=  0.540000
 ScaDFX=  1.000000  1.000000  1.000000  1.000000 ScalE2=  1.000000  1.000000
 IRadAn=      5 IRanWt=     -1 IRanGd=            0 ICorTp=0 IEmpDi=  4
 NAtoms=   10 NActive=   10 NUniq=   10 SFac= 1.00D+00 NAtFMM=   60 NAOKFM=F Big=F
 Integral buffers will be    131072 words long.
 Raffenetti 2 integral format.
 Two-electron integral symmetry is turned on.
 Leave Link  301 at Sat Apr 17 08:38:04 2021, MaxMem=   104857600 cpu:              12.1 elap:               0.3
 (Enter /s/ls4/users/knvvv/bin/g16sse/l302.exe)
 NPDir=0 NMtPBC=     1 NCelOv=     1 NCel=       1 NClECP=     1 NCelD=      1
         NCelK=      1 NCelE2=     1 NClLst=     1 CellRange=     0.0.
 One-electron integrals computed using PRISM.
 One-electron integral symmetry used in STVInt
 PrsmSu:  requested number of processors reduced to:   4 ShMem   1 Linda.
 PrsmSu:  requested number of processors reduced to:  20 ShMem   1 Linda.
 NBasis=   513 RedAO= T EigKep=  2.19D-06  NBF=   513
 NBsUse=   512 1.00D-06 EigRej=  5.62D-07 NBFU=   512
 Precomputing XC quadrature grid using
 IXCGrd= 4 IRadAn=           5 IRanWt=          -1 IRanGd=           0 AccXCQ= 0.00D+00.
 Generated NRdTot=       0 NPtTot=           0 NUsed=           0 NTot=          32
 NSgBfM=   627   627   627   627   627 MxSgAt=    10 MxSgA2=    10.
 Leave Link  302 at Sat Apr 17 08:38:14 2021, MaxMem=   104857600 cpu:             436.1 elap:               9.4
 (Enter /s/ls4/users/knvvv/bin/g16sse/l303.exe)
 DipDrv:  MaxL=1.
 Leave Link  303 at Sat Apr 17 08:38:18 2021, MaxMem=   104857600 cpu:             195.5 elap:               4.2
 (Enter /s/ls4/users/knvvv/bin/g16sse/l401.exe)
 SCF N**3 symmetry information disabled.
 ExpMin= 4.36D-02 ExpMax= 1.17D+05 ExpMxC= 1.13D+03 IAcc=3 IRadAn=         5 AccDes= 0.00D+00
 Harris functional with IExCor= 1009 and IRadAn=       5 diagonalized for initial guess.
 HarFok:  IExCor= 1009 AccDes= 0.00D+00 IRadAn=         5 IDoV= 1 UseB2=F ITyADJ=14
 ICtDFT=  3500011 ScaDFX=  1.000000  1.000000  1.000000  1.000000
 FoFCou: FMM=F IPFlag=           0 FMFlag=      100000 FMFlg1=           0
         NFxFlg=           0 DoJE=T BraDBF=F KetDBF=T FulRan=T
         wScrn=  0.000000 ICntrl=       500 IOpCl=  0 I1Cent=   200000004 NGrid=           0
         NMat0=    1 NMatS0=      1 NMatT0=    0 NMatD0=    1 NMtDS0=    0 NMtDT0=    0
 Petite list used in FoFCou.
 CoulSu:  requested number of processors reduced to:  18 ShMem   1 Linda.
 CoulSu:  requested number of processors reduced to:  19 ShMem   1 Linda.
 CoulSu:  requested number of processors reduced to:  21 ShMem   1 Linda.
 CoulSu:  requested number of processors reduced to:  21 ShMem   1 Linda.
 Harris En= -301.335495522087    
 JPrj=0 DoOrth=F DoCkMO=F.
 Leave Link  401 at Sat Apr 17 08:38:22 2021, MaxMem=   104857600 cpu:             155.5 elap:               3.6
 (Enter /s/ls4/users/knvvv/bin/g16sse/l502.exe)
 Integral symmetry usage will be decided dynamically.
 Closed shell SCF:
 Using DIIS extrapolation, IDIIS=  1040.
 NGot=   104857600 LenX=   104031198 LenY=   103634928
 Requested convergence on RMS density matrix=1.00D-08 within 128 cycles.
 Requested convergence on MAX density matrix=1.00D-06.
 Requested convergence on             energy=1.00D-06.
 No special actions if energy rises.
 Fock matrices will be formed incrementally for  20 cycles.

 Cycle   1  Pass 1  IDiag  1:
 FoFJK:  IHMeth= 1 ICntrl=       0 DoSepK=F KAlg= 0 I1Cent=           0 FoldK=F
 IRaf= 940000000 NMat=       1 IRICut=       1 DoRegI=T DoRafI=F ISym2E= 0 IDoP0=0 IntGTp=1.
 FoFCou: FMM=F IPFlag=           0 FMFlag=      100000 FMFlg1=           0
         NFxFlg=           0 DoJE=F BraDBF=F KetDBF=F FulRan=T
         wScrn=  0.000000 ICntrl=         0 IOpCl=  0 I1Cent=           0 NGrid=           0
         NMat0=    1 NMatS0=      1 NMatT0=    0 NMatD0=    1 NMtDS0=    0 NMtDT0=    0
 Symmetry not used in FoFCou.
 CoulSu:  requested number of processors reduced to:  20 ShMem   1 Linda.
 E= -301.284685261579    
 DIIS: error= 2.25D-02 at cycle   1 NSaved=   1.
 NSaved= 1 IEnMin= 1 EnMin= -301.284685261579     IErMin= 1 ErrMin= 2.25D-02
 ErrMax= 2.25D-02  0.00D+00 EMaxC= 1.00D-01 BMatC= 3.78D-01 BMatP= 3.78D-01
 IDIUse=3 WtCom= 7.75D-01 WtEn= 2.25D-01
 Coeff-Com:  0.100D+01
 Coeff-En:   0.100D+01
 Coeff:      0.100D+01
 Gap=     0.356 Goal=   None    Shift=    0.000
 GapD=    0.356 DampG=1.000 DampE=0.500 DampFc=0.5000 IDamp=-1.
 Damping current iteration by 5.00D-01
 RMSDP=1.96D-03 MaxDP=2.48D-01              OVMax= 2.55D-01

 Cycle   2  Pass 1  IDiag  1:
 RMSU=  8.66D-04    CP:  9.03D-01
 CoulSu:  requested number of processors reduced to:  20 ShMem   1 Linda.
 E= -301.359277492599     Delta-E=       -0.074592231020 Rises=F Damp=T
 DIIS: error= 1.30D-02 at cycle   2 NSaved=   2.
 NSaved= 2 IEnMin= 2 EnMin= -301.359277492599     IErMin= 2 ErrMin= 1.30D-02
 ErrMax= 1.30D-02  0.00D+00 EMaxC= 1.00D-01 BMatC= 6.06D-02 BMatP= 3.78D-01
 IDIUse=3 WtCom= 8.70D-01 WtEn= 1.30D-01
 Coeff-Com: -0.937D-02 0.101D+01
 Coeff-En:   0.167D+00 0.833D+00
 Coeff:      0.137D-01 0.986D+00
 Gap=     0.366 Goal=   None    Shift=    0.000
 RMSDP=1.06D-03 MaxDP=1.13D-01 DE=-7.46D-02 OVMax= 1.31D-01

 Cycle   3  Pass 1  IDiag  1:
 RMSU=  8.13D-04    CP:  8.15D-01  1.62D+00
 CoulSu:  requested number of processors reduced to:  20 ShMem   1 Linda.
 E= -301.444188353222     Delta-E=       -0.084910860623 Rises=F Damp=F
 DIIS: error= 1.01D-02 at cycle   3 NSaved=   3.
 NSaved= 3 IEnMin= 3 EnMin= -301.444188353222     IErMin= 3 ErrMin= 1.01D-02
 ErrMax= 1.01D-02  0.00D+00 EMaxC= 1.00D-01 BMatC= 3.79D-02 BMatP= 6.06D-02
 IDIUse=3 WtCom= 8.99D-01 WtEn= 1.01D-01
 Coeff-Com: -0.144D+00 0.504D+00 0.639D+00
 Coeff-En:   0.000D+00 0.000D+00 0.100D+01
 Coeff:     -0.129D+00 0.453D+00 0.676D+00
 Gap=     0.364 Goal=   None    Shift=    0.000
 RMSDP=3.00D-04 MaxDP=1.42D-02 DE=-8.49D-02 OVMax= 6.30D-02

 Cycle   4  Pass 1  IDiag  1:
 RMSU=  2.94D-04    CP:  8.13D-01  1.68D+00  9.72D-01
 CoulSu:  requested number of processors reduced to:  20 ShMem   1 Linda.
 E= -301.467174383631     Delta-E=       -0.022986030408 Rises=F Damp=F
 DIIS: error= 4.47D-03 at cycle   4 NSaved=   4.
 NSaved= 4 IEnMin= 4 EnMin= -301.467174383631     IErMin= 4 ErrMin= 4.47D-03
 ErrMax= 4.47D-03  0.00D+00 EMaxC= 1.00D-01 BMatC= 7.24D-03 BMatP= 3.79D-02
 IDIUse=3 WtCom= 9.55D-01 WtEn= 4.47D-02
 Coeff-Com: -0.538D-01 0.124D+00 0.366D+00 0.564D+00
 Coeff-En:   0.000D+00 0.000D+00 0.178D+00 0.822D+00
 Coeff:     -0.514D-01 0.118D+00 0.357D+00 0.575D+00
 Gap=     0.341 Goal=   None    Shift=    0.000
 RMSDP=1.07D-04 MaxDP=5.71D-03 DE=-2.30D-02 OVMax= 2.09D-02

 Cycle   5  Pass 1  IDiag  1:
 RMSU=  6.61D-05    CP:  8.10D-01  1.68D+00  9.80D-01  7.19D-01
 CoulSu:  requested number of processors reduced to:  20 ShMem   1 Linda.
 E= -301.472749085134     Delta-E=       -0.005574701503 Rises=F Damp=F
 DIIS: error= 8.99D-04 at cycle   5 NSaved=   5.
 NSaved= 5 IEnMin= 5 EnMin= -301.472749085134     IErMin= 5 ErrMin= 8.99D-04
 ErrMax= 8.99D-04  0.00D+00 EMaxC= 1.00D-01 BMatC= 2.58D-04 BMatP= 7.24D-03
 IDIUse=3 WtCom= 9.91D-01 WtEn= 8.99D-03
 Coeff-Com: -0.230D-01 0.479D-01 0.167D+00 0.302D+00 0.507D+00
 Coeff-En:   0.000D+00 0.000D+00 0.000D+00 0.000D+00 0.100D+01
 Coeff:     -0.228D-01 0.475D-01 0.165D+00 0.299D+00 0.511D+00
 Gap=     0.343 Goal=   None    Shift=    0.000
 RMSDP=2.04D-05 MaxDP=1.33D-03 DE=-5.57D-03 OVMax= 5.31D-03

 Cycle   6  Pass 1  IDiag  1:
 RMSU=  1.99D-05    CP:  8.09D-01  1.68D+00  9.80D-01  7.21D-01  9.43D-01
 CoulSu:  requested number of processors reduced to:  20 ShMem   1 Linda.
 E= -301.472933541092     Delta-E=       -0.000184455958 Rises=F Damp=F
 DIIS: error= 2.46D-04 at cycle   6 NSaved=   6.
 NSaved= 6 IEnMin= 6 EnMin= -301.472933541092     IErMin= 6 ErrMin= 2.46D-04
 ErrMax= 2.46D-04  0.00D+00 EMaxC= 1.00D-01 BMatC= 2.21D-05 BMatP= 2.58D-04
 IDIUse=3 WtCom= 9.98D-01 WtEn= 2.46D-03
 Coeff-Com: -0.188D-02 0.256D-02 0.199D-01 0.498D-01 0.242D+00 0.687D+00
 Coeff-En:   0.000D+00 0.000D+00 0.000D+00 0.000D+00 0.000D+00 0.100D+01
 Coeff:     -0.187D-02 0.256D-02 0.198D-01 0.496D-01 0.242D+00 0.688D+00
 Gap=     0.342 Goal=   None    Shift=    0.000
 RMSDP=1.21D-05 MaxDP=1.07D-03 DE=-1.84D-04 OVMax= 2.07D-03

 Cycle   7  Pass 1  IDiag  1:
 RMSU=  8.57D-06    CP:  8.09D-01  1.68D+00  9.81D-01  7.25D-01  1.06D+00
                    CP:  1.12D+00
 CoulSu:  requested number of processors reduced to:  20 ShMem   1 Linda.
 E= -301.472950517146     Delta-E=       -0.000016976054 Rises=F Damp=F
 DIIS: error= 7.44D-05 at cycle   7 NSaved=   7.
 NSaved= 7 IEnMin= 7 EnMin= -301.472950517146     IErMin= 7 ErrMin= 7.44D-05
 ErrMax= 7.44D-05  0.00D+00 EMaxC= 1.00D-01 BMatC= 3.81D-06 BMatP= 2.21D-05
 IDIUse=1 WtCom= 1.00D+00 WtEn= 0.00D+00
 Coeff-Com:  0.311D-02-0.699D-02-0.188D-01-0.297D-01 0.296D-01 0.356D+00
 Coeff-Com:  0.666D+00
 Coeff:      0.311D-02-0.699D-02-0.188D-01-0.297D-01 0.296D-01 0.356D+00
 Coeff:      0.666D+00
 Gap=     0.343 Goal=   None    Shift=    0.000
 RMSDP=5.17D-06 MaxDP=4.18D-04 DE=-1.70D-05 OVMax= 5.48D-04

 Cycle   8  Pass 1  IDiag  1:
 RMSU=  3.61D-06    CP:  8.09D-01  1.68D+00  9.82D-01  7.31D-01  1.10D+00
                    CP:  1.18D+00  1.07D+00
 CoulSu:  requested number of processors reduced to:  20 ShMem   1 Linda.
 E= -301.472953862489     Delta-E=       -0.000003345343 Rises=F Damp=F
 DIIS: error= 2.37D-05 at cycle   8 NSaved=   8.
 NSaved= 8 IEnMin= 8 EnMin= -301.472953862489     IErMin= 8 ErrMin= 2.37D-05
 ErrMax= 2.37D-05  0.00D+00 EMaxC= 1.00D-01 BMatC= 1.59D-07 BMatP= 3.81D-06
 IDIUse=1 WtCom= 1.00D+00 WtEn= 0.00D+00
 Coeff-Com:  0.109D-02-0.229D-02-0.613D-02-0.122D-01-0.132D-01 0.472D-01
 Coeff-Com:  0.154D+00 0.831D+00
 Coeff:      0.109D-02-0.229D-02-0.613D-02-0.122D-01-0.132D-01 0.472D-01
 Coeff:      0.154D+00 0.831D+00
 Gap=     0.343 Goal=   None    Shift=    0.000
 RMSDP=1.54D-06 MaxDP=9.55D-05 DE=-3.35D-06 OVMax= 2.23D-04

 Cycle   9  Pass 1  IDiag  1:
 RMSU=  1.28D-06    CP:  8.09D-01  1.68D+00  9.82D-01  7.31D-01  1.11D+00
                    CP:  1.17D+00  1.11D+00  1.14D+00
 CoulSu:  requested number of processors reduced to:  20 ShMem   1 Linda.
 E= -301.472954056568     Delta-E=       -0.000000194078 Rises=F Damp=F
 DIIS: error= 6.23D-06 at cycle   9 NSaved=   9.
 NSaved= 9 IEnMin= 9 EnMin= -301.472954056568     IErMin= 9 ErrMin= 6.23D-06
 ErrMax= 6.23D-06  0.00D+00 EMaxC= 1.00D-01 BMatC= 2.30D-08 BMatP= 1.59D-07
 IDIUse=1 WtCom= 1.00D+00 WtEn= 0.00D+00
 Coeff-Com: -0.806D-04 0.194D-03 0.819D-03 0.366D-03-0.676D-02-0.245D-01
 Coeff-Com: -0.512D-01 0.208D+00 0.873D+00
 Coeff:     -0.806D-04 0.194D-03 0.819D-03 0.366D-03-0.676D-02-0.245D-01
 Coeff:     -0.512D-01 0.208D+00 0.873D+00
 Gap=     0.343 Goal=   None    Shift=    0.000
 RMSDP=5.84D-07 MaxDP=4.14D-05 DE=-1.94D-07 OVMax= 7.61D-05

 Cycle  10  Pass 1  IDiag  1:
 RMSU=  3.98D-07    CP:  8.09D-01  1.68D+00  9.82D-01  7.31D-01  1.11D+00
                    CP:  1.17D+00  1.12D+00  1.19D+00  1.28D+00
 CoulSu:  requested number of processors reduced to:  20 ShMem   1 Linda.
 E= -301.472954084441     Delta-E=       -0.000000027874 Rises=F Damp=F
 DIIS: error= 2.03D-06 at cycle  10 NSaved=  10.
 NSaved=10 IEnMin=10 EnMin= -301.472954084441     IErMin=10 ErrMin= 2.03D-06
 ErrMax= 2.03D-06  0.00D+00 EMaxC= 1.00D-01 BMatC= 1.41D-09 BMatP= 2.30D-08
 IDIUse=1 WtCom= 1.00D+00 WtEn= 0.00D+00
 Coeff-Com: -0.116D-03 0.247D-03 0.741D-03 0.117D-02-0.155D-04-0.746D-02
 Coeff-Com: -0.267D-01-0.424D-01 0.185D+00 0.890D+00
 Coeff:     -0.116D-03 0.247D-03 0.741D-03 0.117D-02-0.155D-04-0.746D-02
 Coeff:     -0.267D-01-0.424D-01 0.185D+00 0.890D+00
 Gap=     0.343 Goal=   None    Shift=    0.000
 RMSDP=1.74D-07 MaxDP=1.27D-05 DE=-2.79D-08 OVMax= 2.85D-05

 Cycle  11  Pass 1  IDiag  1:
 RMSU=  1.08D-07    CP:  8.09D-01  1.68D+00  9.82D-01  7.31D-01  1.11D+00
                    CP:  1.17D+00  1.13D+00  1.20D+00  1.35D+00  1.02D+00
 CoulSu:  requested number of processors reduced to:  20 ShMem   1 Linda.
 E= -301.472954086550     Delta-E=       -0.000000002109 Rises=F Damp=F
 DIIS: error= 3.16D-07 at cycle  11 NSaved=  11.
 NSaved=11 IEnMin=11 EnMin= -301.472954086550     IErMin=11 ErrMin= 3.16D-07
 ErrMax= 3.16D-07  0.00D+00 EMaxC= 1.00D-01 BMatC= 7.46D-11 BMatP= 1.41D-09
 IDIUse=1 WtCom= 1.00D+00 WtEn= 0.00D+00
 Coeff-Com: -0.163D-04 0.350D-04 0.985D-04 0.178D-03 0.210D-03-0.273D-03
 Coeff-Com: -0.319D-02-0.183D-01-0.108D-01 0.176D+00 0.856D+00
 Coeff:     -0.163D-04 0.350D-04 0.985D-04 0.178D-03 0.210D-03-0.273D-03
 Coeff:     -0.319D-02-0.183D-01-0.108D-01 0.176D+00 0.856D+00
 Gap=     0.343 Goal=   None    Shift=    0.000
 RMSDP=3.97D-08 MaxDP=2.31D-06 DE=-2.11D-09 OVMax= 5.50D-06

 Cycle  12  Pass 1  IDiag  1:
 RMSU=  3.39D-08    CP:  8.09D-01  1.68D+00  9.82D-01  7.31D-01  1.11D+00
                    CP:  1.17D+00  1.13D+00  1.20D+00  1.35D+00  1.02D+00
                    CP:  1.10D+00
 CoulSu:  requested number of processors reduced to:  20 ShMem   1 Linda.
 E= -301.472954086633     Delta-E=       -0.000000000083 Rises=F Damp=F
 DIIS: error= 1.70D-07 at cycle  12 NSaved=  12.
 NSaved=12 IEnMin=12 EnMin= -301.472954086633     IErMin=12 ErrMin= 1.70D-07
 ErrMax= 1.70D-07  0.00D+00 EMaxC= 1.00D-01 BMatC= 9.88D-12 BMatP= 7.46D-11
 IDIUse=1 WtCom= 1.00D+00 WtEn= 0.00D+00
 Coeff-Com:  0.458D-05-0.938D-05-0.165D-04-0.301D-04 0.273D-04 0.492D-03
 Coeff-Com:  0.868D-03-0.714D-03-0.155D-01-0.281D-01 0.128D+00 0.915D+00
 Coeff:      0.458D-05-0.938D-05-0.165D-04-0.301D-04 0.273D-04 0.492D-03
 Coeff:      0.868D-03-0.714D-03-0.155D-01-0.281D-01 0.128D+00 0.915D+00
 Gap=     0.343 Goal=   None    Shift=    0.000
 RMSDP=1.43D-08 MaxDP=1.30D-06 DE=-8.28D-11 OVMax= 1.10D-06

 Cycle  13  Pass 1  IDiag  1:
 RMSU=  7.54D-09    CP:  8.09D-01  1.68D+00  9.82D-01  7.31D-01  1.11D+00
                    CP:  1.17D+00  1.13D+00  1.20D+00  1.35D+00  1.03D+00
                    CP:  1.15D+00  1.19D+00
 CoulSu:  requested number of processors reduced to:  20 ShMem   1 Linda.
 E= -301.472954086652     Delta-E=       -0.000000000019 Rises=F Damp=F
 DIIS: error= 4.10D-08 at cycle  13 NSaved=  13.
 NSaved=13 IEnMin=13 EnMin= -301.472954086652     IErMin=13 ErrMin= 4.10D-08
 ErrMax= 4.10D-08  0.00D+00 EMaxC= 1.00D-01 BMatC= 6.82D-13 BMatP= 9.88D-12
 IDIUse=1 WtCom= 1.00D+00 WtEn= 0.00D+00
 Coeff-Com:  0.199D-05-0.416D-05-0.669D-05-0.141D-04-0.672D-05 0.162D-03
 Coeff-Com:  0.356D-03 0.736D-03-0.370D-02-0.178D-01-0.128D-01 0.286D+00
 Coeff-Com:  0.747D+00
 Coeff:      0.199D-05-0.416D-05-0.669D-05-0.141D-04-0.672D-05 0.162D-03
 Coeff:      0.356D-03 0.736D-03-0.370D-02-0.178D-01-0.128D-01 0.286D+00
 Coeff:      0.747D+00
 Gap=     0.343 Goal=   None    Shift=    0.000
 RMSDP=3.00D-09 MaxDP=3.04D-07 DE=-1.88D-11 OVMax= 2.57D-07

 SCF Done:  E(RM062X) =  -301.472954087     A.U. after   13 cycles
            NFock= 13  Conv=0.30D-08     -V/T= 2.0041
 KE= 3.002362456707D+02 PE=-1.117162737318D+03 EE= 3.091517713930D+02
 Leave Link  502 at Sat Apr 17 08:43:13 2021, MaxMem=   104857600 cpu:            8770.7 elap:             291.7
 (Enter /s/ls4/users/knvvv/bin/g16sse/l601.exe)
 Copying SCF densities to generalized density rwf, IOpCl= 0 IROHF=0.

 **********************************************************************

            Population analysis using the SCF density.

 **********************************************************************

 Orbital symmetries:
       Occupied  (A) (A) (A) (A) (A) (A) (A) (A) (A) (A) (A) (A)
                 (A) (A) (A) (A) (A) (A) (A) (A) (A) (A)
       Virtual   (A) (A) (A) (A) (A) (A) (A) (A) (A) (A) (A) (A)
                 (A) (A) (A) (A) (A) (A) (A) (A) (A) (A) (A) (A)
                 (A) (A) (A) (A) (A) (A) (A) (A) (A) (A) (A) (A)
                 (A) (A) (A) (A) (A) (A) (A) (A) (A) (A) (A) (A)
                 (A) (A) (A) (A) (A) (A) (A) (A) (A) (A) (A) (A)
                 (A) (A) (A) (A) (A) (A) (A) (A) (A) (A) (A) (A)
                 (A) (A) (A) (A) (A) (A) (A) (A) (A) (A) (A) (A)
                 (A) (A) (A) (A) (A) (A) (A) (A) (A) (A) (A) (A)
                 (A) (A) (A) (A) (A) (A) (A) (A) (A) (A) (A) (A)
                 (A) (A) (A) (A) (A) (A) (A) (A) (A) (A) (A) (A)
                 (A) (A) (A) (A) (A) (A) (A) (A) (A) (A) (A) (A)
                 (A) (A) (A) (A) (A) (A) (A) (A) (A) (A) (A) (A)
                 (A) (A) (A) (A) (A) (A) (A) (A) (A) (A) (A) (A)
                 (A) (A) (A) (A) (A) (A) (A) (A) (A) (A) (A) (A)
                 (A) (A) (A) (A) (A) (A) (A) (A) (A) (A) (A) (A)
                 (A) (A) (A) (A) (A) (A) (A) (A) (A) (A) (A) (A)
                 (A) (A) (A) (A) (A) (A) (A) (A) (A) (A) (A) (A)
                 (A) (A) (A) (A) (A) (A) (A) (A) (A) (A) (A) (A)
                 (A) (A) (A) (A) (A) (A) (A) (A) (A) (A) (A) (A)
                 (A) (A) (A) (A) (A) (A) (A) (A) (A) (A) (A) (A)
                 (A) (A) (A) (A) (A) (A) (A) (A) (A) (A) (A) (A)
                 (A) (A) (A) (A) (A) (A) (A) (A) (A) (A) (A) (A)
                 (A) (A) (A) (A) (A) (A) (A) (A) (A) (A) (A) (A)
                 (A) (A) (A) (A) (A) (A) (A) (A) (A) (A) (A) (A)
                 (A) (A) (A) (A) (A) (A) (A) (A) (A) (A) (A) (A)
                 (A) (A) (A) (A) (A) (A) (A) (A) (A) (A) (A) (A)
                 (A) (A) (A) (A) (A) (A) (A) (A) (A) (A) (A) (A)
                 (A) (A) (A) (A) (A) (A) (A) (A) (A) (A) (A) (A)
                 (A) (A) (A) (A) (A) (A) (A) (A) (A) (A) (A) (A)
                 (A) (A) (A) (A) (A) (A) (A) (A) (A) (A) (A) (A)
                 (A) (A) (A) (A) (A) (A) (A) (A) (A) (A) (A) (A)
                 (A) (A) (A) (A) (A) (A) (A) (A) (A) (A) (A) (A)
                 (A) (A) (A) (A) (A) (A) (A) (A) (A) (A) (A) (A)
                 (A) (A) (A) (A) (A) (A) (A) (A) (A) (A) (A) (A)
                 (A) (A) (A) (A) (A) (A) (A) (A) (A) (A) (A) (A)
                 (A) (A) (A) (A) (A) (A) (A) (A) (A) (A) (A) (A)
                 (A) (A) (A) (A) (A) (A) (A) (A) (A) (A) (A) (A)
                 (A) (A) (A) (A) (A) (A) (A) (A) (A) (A) (A) (A)
                 (A) (A) (A) (A) (A) (A) (A) (A) (A) (A) (A) (A)
                 (A) (A) (A) (A) (A) (A) (A) (A) (A) (A) (A) (A)
                 (A) (A) (A) (A) (A) (A) (A) (A) (A) (A)
 The electronic state is 1-A.
 Alpha  occ. eigenvalues --  -19.61665 -14.80761 -14.75443 -10.68456 -10.61480
 Alpha  occ. eigenvalues --  -10.58342  -1.17994  -1.05160  -1.01951  -0.90268
 Alpha  occ. eigenvalues --   -0.72263  -0.66116  -0.60241  -0.57930  -0.57320
 Alpha  occ. eigenvalues --   -0.51285  -0.48985  -0.44385  -0.40479  -0.40104
 Alpha  occ. eigenvalues --   -0.36808  -0.36031
 Alpha virt. eigenvalues --   -0.01737   0.01528   0.01784   0.02783   0.04765
 Alpha virt. eigenvalues --    0.05380   0.06211   0.06393   0.06832   0.07312
 Alpha virt. eigenvalues --    0.09007   0.10322   0.10582   0.11425   0.12428
 Alpha virt. eigenvalues --    0.13974   0.14439   0.14851   0.15237   0.16216
 Alpha virt. eigenvalues --    0.18742   0.18977   0.19705   0.20290   0.20850
 Alpha virt. eigenvalues --    0.22418   0.22916   0.23566   0.24126   0.24761
 Alpha virt. eigenvalues --    0.25274   0.26179   0.26464   0.27464   0.28457
 Alpha virt. eigenvalues --    0.29608   0.30085   0.30374   0.31578   0.32892
 Alpha virt. eigenvalues --    0.33331   0.33625   0.34073   0.35309   0.36194
 Alpha virt. eigenvalues --    0.37058   0.37893   0.38228   0.39776   0.40398
 Alpha virt. eigenvalues --    0.41392   0.42419   0.42845   0.43438   0.44245
 Alpha virt. eigenvalues --    0.45238   0.46067   0.46548   0.47918   0.49328
 Alpha virt. eigenvalues --    0.49658   0.49846   0.50697   0.51266   0.52615
 Alpha virt. eigenvalues --    0.53332   0.54170   0.54649   0.55445   0.56478
 Alpha virt. eigenvalues --    0.56961   0.57255   0.59068   0.60190   0.61117
 Alpha virt. eigenvalues --    0.62611   0.63825   0.65665   0.66316   0.67334
 Alpha virt. eigenvalues --    0.68913   0.70540   0.72171   0.72620   0.74952
 Alpha virt. eigenvalues --    0.76288   0.76939   0.78158   0.79893   0.80271
 Alpha virt. eigenvalues --    0.82096   0.83202   0.84396   0.85406   0.86001
 Alpha virt. eigenvalues --    0.88911   0.89606   0.90014   0.91212   0.92975
 Alpha virt. eigenvalues --    0.95231   0.95551   0.98409   0.98861   1.02124
 Alpha virt. eigenvalues --    1.02840   1.04541   1.05681   1.06076   1.08763
 Alpha virt. eigenvalues --    1.11104   1.11916   1.12283   1.16161   1.18666
 Alpha virt. eigenvalues --    1.18938   1.19640   1.21288   1.21943   1.25516
 Alpha virt. eigenvalues --    1.27006   1.27833   1.29745   1.31263   1.32560
 Alpha virt. eigenvalues --    1.35297   1.36577   1.38026   1.39972   1.40775
 Alpha virt. eigenvalues --    1.41674   1.43701   1.44439   1.49614   1.51235
 Alpha virt. eigenvalues --    1.53725   1.55006   1.55700   1.61428   1.64776
 Alpha virt. eigenvalues --    1.66407   1.68108   1.70755   1.72536   1.72966
 Alpha virt. eigenvalues --    1.74732   1.76852   1.77573   1.80155   1.82064
 Alpha virt. eigenvalues --    1.83207   1.86100   1.87616   1.90129   1.92180
 Alpha virt. eigenvalues --    1.94554   1.97848   1.99885   2.00610   2.03194
 Alpha virt. eigenvalues --    2.04776   2.05931   2.06607   2.07623   2.10072
 Alpha virt. eigenvalues --    2.12156   2.12616   2.13797   2.15491   2.18779
 Alpha virt. eigenvalues --    2.22358   2.22784   2.24173   2.26663   2.27502
 Alpha virt. eigenvalues --    2.31190   2.33309   2.35409   2.36208   2.37711
 Alpha virt. eigenvalues --    2.41698   2.43182   2.45056   2.47146   2.49430
 Alpha virt. eigenvalues --    2.49953   2.53625   2.54358   2.58023   2.59433
 Alpha virt. eigenvalues --    2.59983   2.61553   2.63195   2.65632   2.68166
 Alpha virt. eigenvalues --    2.70302   2.70772   2.71969   2.73001   2.73823
 Alpha virt. eigenvalues --    2.75136   2.75811   2.78159   2.81979   2.83632
 Alpha virt. eigenvalues --    2.84823   2.87253   2.88138   2.90650   2.97221
 Alpha virt. eigenvalues --    2.98971   3.00099   3.00448   3.03394   3.06824
 Alpha virt. eigenvalues --    3.08173   3.11048   3.12165   3.12603   3.16009
 Alpha virt. eigenvalues --    3.18378   3.20132   3.24245   3.26334   3.27391
 Alpha virt. eigenvalues --    3.28706   3.33968   3.40328   3.40437   3.42681
 Alpha virt. eigenvalues --    3.47200   3.48455   3.50196   3.51064   3.52669
 Alpha virt. eigenvalues --    3.55615   3.56545   3.59419   3.63177   3.65518
 Alpha virt. eigenvalues --    3.66762   3.73912   3.74235   3.81004   3.82235
 Alpha virt. eigenvalues --    3.83106   3.88861   3.93493   3.94567   3.95675
 Alpha virt. eigenvalues --    3.99738   4.00046   4.01663   4.08032   4.09606
 Alpha virt. eigenvalues --    4.12341   4.17335   4.20152   4.26344   4.27685
 Alpha virt. eigenvalues --    4.35667   4.40565   4.44247   4.48817   4.52816
 Alpha virt. eigenvalues --    4.56237   4.63447   4.68862   4.74819   4.75948
 Alpha virt. eigenvalues --    4.78979   4.82437   4.85040   4.92552   4.96578
 Alpha virt. eigenvalues --    5.02608   5.04426   5.04927   5.08839   5.09517
 Alpha virt. eigenvalues --    5.11927   5.16056   5.17194   5.20999   5.24260
 Alpha virt. eigenvalues --    5.27115   5.32648   5.36915   5.38429   5.40881
 Alpha virt. eigenvalues --    5.45803   5.47018   5.50776   5.58053   5.60140
 Alpha virt. eigenvalues --    5.61879   5.65264   5.68038   5.68811   5.72524
 Alpha virt. eigenvalues --    5.73653   5.74549   5.76970   5.80500   5.86099
 Alpha virt. eigenvalues --    5.87428   5.87882   5.88527   5.89255   5.94000
 Alpha virt. eigenvalues --    5.96846   5.97850   6.02174   6.03918   6.05900
 Alpha virt. eigenvalues --    6.07693   6.08509   6.11129   6.16069   6.17600
 Alpha virt. eigenvalues --    6.21214   6.25637   6.26760   6.28728   6.33080
 Alpha virt. eigenvalues --    6.34801   6.37189   6.41431   6.48839   6.51930
 Alpha virt. eigenvalues --    6.54346   6.56333   6.60880   6.61800   6.64664
 Alpha virt. eigenvalues --    6.64811   6.66615   6.69339   6.74804   6.77263
 Alpha virt. eigenvalues --    6.79417   6.79592   6.79740   6.82821   6.87258
 Alpha virt. eigenvalues --    6.91269   7.00266   7.02481   7.03400   7.06573
 Alpha virt. eigenvalues --    7.08372   7.11283   7.13670   7.19140   7.22827
 Alpha virt. eigenvalues --    7.23705   7.24956   7.27662   7.30420   7.33683
 Alpha virt. eigenvalues --    7.34104   7.42044   7.43790   7.44510   7.47026
 Alpha virt. eigenvalues --    7.49534   7.54616   7.55359   7.57716   7.62645
 Alpha virt. eigenvalues --    7.65323   7.68770   7.69626   7.73707   7.74052
 Alpha virt. eigenvalues --    7.78608   7.82416   7.86795   7.90079   7.92514
 Alpha virt. eigenvalues --    7.96571   7.99034   8.06333   8.06844   8.10393
 Alpha virt. eigenvalues --    8.14469   8.15947   8.17792   8.18594   8.21392
 Alpha virt. eigenvalues --    8.24423   8.28152   8.33029   8.37155   8.37613
 Alpha virt. eigenvalues --    8.37802   8.38868   8.43007   8.44827   8.45465
 Alpha virt. eigenvalues --    8.49533   8.52291   8.54350   8.56779   8.57191
 Alpha virt. eigenvalues --    8.58557   8.64602   8.65962   8.71147   8.74756
 Alpha virt. eigenvalues --    8.75532   8.81309   8.83879   8.84467   8.84488
 Alpha virt. eigenvalues --    8.86709   8.89969   8.92912   8.99890   9.00908
 Alpha virt. eigenvalues --    9.04823   9.05678   9.10958   9.15323   9.19174
 Alpha virt. eigenvalues --    9.35588   9.36403   9.39436   9.42766   9.46482
 Alpha virt. eigenvalues --    9.54331   9.57440   9.62363   9.65326   9.71412
 Alpha virt. eigenvalues --    9.75236   9.80334   9.82668   9.84689   9.92245
 Alpha virt. eigenvalues --    9.94804   9.96650  10.05803  10.07110  10.14184
 Alpha virt. eigenvalues --   10.24530  10.27718  10.40438  10.51245  10.67996
 Alpha virt. eigenvalues --   10.91646  10.95088  11.15893  11.22007  11.24631
 Alpha virt. eigenvalues --   11.32064  11.38320  11.41459  11.50991  11.54251
 Alpha virt. eigenvalues --   11.57925  11.60245  11.69531  11.73358  11.84509
 Alpha virt. eigenvalues --   11.96000  12.04209  12.06351  12.16687  12.31052
 Alpha virt. eigenvalues --   12.80822  12.97076  13.20179  13.39032  14.12401
 Alpha virt. eigenvalues --   14.24843  14.39159  14.81749  28.48586  28.88924
 Alpha virt. eigenvalues --   29.33609  38.10373  38.24113  48.23898 145.92370
 Alpha virt. eigenvalues --  146.42936 146.88201 195.66599 195.83654 251.33825
          Condensed to atoms (all electrons):
               1          2          3          4          5          6
     1  C    4.471548  -0.092642   0.215216  -0.025342  -0.041646  -0.005085
     2  C   -0.092642   5.794081   0.010139  -0.040414  -0.046608  -0.002643
     3  C    0.215216   0.010139   5.496095   0.356716   0.355457  -0.000559
     4  H   -0.025342  -0.040414   0.356716   0.453028  -0.003574   0.000866
     5  H   -0.041646  -0.046608   0.355457  -0.003574   0.452663   0.001082
     6  H   -0.005085  -0.002643  -0.000559   0.000866   0.001082   0.320451
     7  H   -0.047812  -0.008740   0.017703  -0.009829  -0.007251  -0.028758
     8  N    0.569029   0.010217  -0.101222  -0.013532  -0.014341   0.317115
     9  N   -0.009607   0.200976   0.049941   0.005871   0.008438   0.000140
    10  O    0.447390   0.002515  -0.061925   0.002739   0.003546   0.031001
               7          8          9         10
     1  C   -0.047812   0.569029  -0.009607   0.447390
     2  C   -0.008740   0.010217   0.200976   0.002515
     3  C    0.017703  -0.101222   0.049941  -0.061925
     4  H   -0.009829  -0.013532   0.005871   0.002739
     5  H   -0.007251  -0.014341   0.008438   0.003546
     6  H   -0.028758   0.317115   0.000140   0.031001
     7  H    0.374555   0.348942   0.000233   0.010483
     8  N    0.348942   6.595508  -0.000648  -0.091496
     9  N    0.000233  -0.000648   7.252318  -0.000989
    10  O    0.010483  -0.091496  -0.000989   8.167570
 Mulliken charges:
               1
     1  C    0.518952
     2  C    0.173120
     3  C   -0.337561
     4  H    0.273471
     5  H    0.292234
     6  H    0.366390
     7  H    0.350472
     8  N   -0.619571
     9  N   -0.506673
    10  O   -0.510834
 Sum of Mulliken charges =  -0.00000
 Mulliken charges with hydrogens summed into heavy atoms:
               1
     1  C    0.518952
     2  C    0.173120
     3  C    0.228144
     8  N    0.097290
     9  N   -0.506673
    10  O   -0.510834
 Electronic spatial extent (au):  <R**2>=            596.2717
 Charge=              0.0000 electrons
 Dipole moment (field-independent basis, Debye):
    X=              5.3495    Y=             -5.0764    Z=             -0.0733  Tot=              7.3751
 Quadrupole moment (field-independent basis, Debye-Ang):
   XX=            -37.3292   YY=            -35.1842   ZZ=            -34.5972
   XY=             -0.6630   XZ=             -0.7765   YZ=              0.0155
 Traceless Quadrupole moment (field-independent basis, Debye-Ang):
   XX=             -1.6257   YY=              0.5193   ZZ=              1.1063
   XY=             -0.6630   XZ=             -0.7765   YZ=              0.0155
 Octapole moment (field-independent basis, Debye-Ang**2):
  XXX=             70.6788  YYY=            -11.0527  ZZZ=              0.4340  XYY=              5.7295
  XXY=             -5.5430  XXZ=             -0.9526  XZZ=              1.1355  YZZ=             -0.6369
  YYZ=             -0.4301  XYZ=              0.2342
 Hexadecapole moment (field-independent basis, Debye-Ang**3):
 XXXX=           -597.4214 YYYY=           -156.0935 ZZZZ=            -40.2857 XXXY=             11.1357
 XXXZ=             -6.4340 YYYX=            -11.9329 YYYZ=              0.8253 ZZZX=             -0.4109
 ZZZY=             -0.3642 XXYY=           -115.4572 XXZZ=           -110.2268 YYZZ=            -30.7160
 XXYZ=              0.8837 YYXZ=             -0.9340 ZZXY=              1.7561
 N-N= 2.063017661672D+02 E-N=-1.117162743147D+03  KE= 3.002362456707D+02
 PrsmSu:  requested number of processors reduced to:  20 ShMem   1 Linda.
 No NMR shielding tensors so no spin-rotation constants.
 Leave Link  601 at Sat Apr 17 08:43:20 2021, MaxMem=   104857600 cpu:             299.3 elap:               6.6
 (Enter /s/ls4/users/knvvv/bin/g16sse/l801.exe)
 DoSCS=F DFT=T ScalE2(SS,OS)=  1.000000  1.000000
 Range of M.O.s used for correlation:     1   512
 NBasis=   513 NAE=    22 NBE=    22 NFC=     0 NFV=     0
 NROrb=    512 NOA=    22 NOB=    22 NVA=   490 NVB=   490

 **** Warning!!: The largest alpha MO coefficient is  0.12028941D+03

 Leave Link  801 at Sat Apr 17 08:43:20 2021, MaxMem=   104857600 cpu:               4.6 elap:               0.2
 (Enter /s/ls4/users/knvvv/bin/g16sse/l914.exe)
 RHF ground state
 Doing stability rather than CIS.
 Two-electron integrals replicated using symmetry.
 MDV=   104857600 DFT=T DoStab=T Mixed=T DoRPA=F DoScal=F NonHer=F
 Making orbital integer symmetry assigments:
 Orbital symmetries:
       Occupied  (A) (A) (A) (A) (A) (A) (A) (A) (A) (A) (A) (A)
                 (A) (A) (A) (A) (A) (A) (A) (A) (A) (A)
       Virtual   (A) (A) (A) (A) (A) (A) (A) (A) (A) (A) (A) (A)
                 (A) (A) (A) (A) (A) (A) (A) (A) (A) (A) (A) (A)
                 (A) (A) (A) (A) (A) (A) (A) (A) (A) (A) (A) (A)
                 (A) (A) (A) (A) (A) (A) (A) (A) (A) (A) (A) (A)
                 (A) (A) (A) (A) (A) (A) (A) (A) (A) (A) (A) (A)
                 (A) (A) (A) (A) (A) (A) (A) (A) (A) (A) (A) (A)
                 (A) (A) (A) (A) (A) (A) (A) (A) (A) (A) (A) (A)
                 (A) (A) (A) (A) (A) (A) (A) (A) (A) (A) (A) (A)
                 (A) (A) (A) (A) (A) (A) (A) (A) (A) (A) (A) (A)
                 (A) (A) (A) (A) (A) (A) (A) (A) (A) (A) (A) (A)
                 (A) (A) (A) (A) (A) (A) (A) (A) (A) (A) (A) (A)
                 (A) (A) (A) (A) (A) (A) (A) (A) (A) (A) (A) (A)
                 (A) (A) (A) (A) (A) (A) (A) (A) (A) (A) (A) (A)
                 (A) (A) (A) (A) (A) (A) (A) (A) (A) (A) (A) (A)
                 (A) (A) (A) (A) (A) (A) (A) (A) (A) (A) (A) (A)
                 (A) (A) (A) (A) (A) (A) (A) (A) (A) (A) (A) (A)
                 (A) (A) (A) (A) (A) (A) (A) (A) (A) (A) (A) (A)
                 (A) (A) (A) (A) (A) (A) (A) (A) (A) (A) (A) (A)
                 (A) (A) (A) (A) (A) (A) (A) (A) (A) (A) (A) (A)
                 (A) (A) (A) (A) (A) (A) (A) (A) (A) (A) (A) (A)
                 (A) (A) (A) (A) (A) (A) (A) (A) (A) (A) (A) (A)
                 (A) (A) (A) (A) (A) (A) (A) (A) (A) (A) (A) (A)
                 (A) (A) (A) (A) (A) (A) (A) (A) (A) (A) (A) (A)
                 (A) (A) (A) (A) (A) (A) (A) (A) (A) (A) (A) (A)
                 (A) (A) (A) (A) (A) (A) (A) (A) (A) (A) (A) (A)
                 (A) (A) (A) (A) (A) (A) (A) (A) (A) (A) (A) (A)
                 (A) (A) (A) (A) (A) (A) (A) (A) (A) (A) (A) (A)
                 (A) (A) (A) (A) (A) (A) (A) (A) (A) (A) (A) (A)
                 (A) (A) (A) (A) (A) (A) (A) (A) (A) (A) (A) (A)
                 (A) (A) (A) (A) (A) (A) (A) (A) (A) (A) (A) (A)
                 (A) (A) (A) (A) (A) (A) (A) (A) (A) (A) (A) (A)
                 (A) (A) (A) (A) (A) (A) (A) (A) (A) (A) (A) (A)
                 (A) (A) (A) (A) (A) (A) (A) (A) (A) (A) (A) (A)
                 (A) (A) (A) (A) (A) (A) (A) (A) (A) (A) (A) (A)
                 (A) (A) (A) (A) (A) (A) (A) (A) (A) (A) (A) (A)
                 (A) (A) (A) (A) (A) (A) (A) (A) (A) (A) (A) (A)
                 (A) (A) (A) (A) (A) (A) (A) (A) (A) (A) (A) (A)
                 (A) (A) (A) (A) (A) (A) (A) (A) (A) (A) (A) (A)
                 (A) (A) (A) (A) (A) (A) (A) (A) (A) (A) (A) (A)
                 (A) (A) (A) (A) (A) (A) (A) (A) (A) (A) (A) (A)
                 (A) (A) (A) (A) (A) (A) (A) (A) (A) (A)
    24 initial guesses have been made.
 Convergence on wavefunction:    0.001000000000000
 Davidson Disk Diagonalization:  ConvIn= 1.00D-03 SkipCon=T Conv= 1.00D-03.
 Max sub-space:  2000 roots to seek:    24 dimension of matrix:        21560
 Iteration     1 Dimension    24 NMult     0 NNew     24
 Estimated number of processors is:   15
 CISAX will form     1 AO SS matrices at one time.
 NMat=     1 NSing=     1 JSym2X= 0.
 FoFJK:  IHMeth= 1 ICntrl=       0 DoSepK=F KAlg= 0 I1Cent=           0 FoldK=F
 IRaf= 940000000 NMat=       1 IRICut=       1 DoRegI=T DoRafI=F ISym2E= 0 IDoP0=0 IntGTp=1.
 FoFCou: FMM=F IPFlag=           0 FMFlag=      100000 FMFlg1=           0
         NFxFlg=           0 DoJE=F BraDBF=F KetDBF=F FulRan=T
         wScrn=  0.000000 ICntrl=         0 IOpCl=  0 I1Cent=           0 NGrid=           0
         NMat0=    1 NMatS0=      1 NMatT0=    0 NMatD0=    1 NMtDS0=    0 NMtDT0=    0
 Symmetry not used in FoFCou.
 CoulSu:  requested number of processors reduced to:  19 ShMem   1 Linda.
 CalDSu:  requested number of processors reduced to:  45 ShMem   1 Linda.
 NMat=     1 NSing=     1 JSym2X= 0.
 CoulSu:  requested number of processors reduced to:  19 ShMem   1 Linda.
 CalDSu:  requested number of processors reduced to:  45 ShMem   1 Linda.
 NMat=     1 NSing=     1 JSym2X= 0.
 CoulSu:  requested number of processors reduced to:  19 ShMem   1 Linda.
 CalDSu:  requested number of processors reduced to:  45 ShMem   1 Linda.
 NMat=     1 NSing=     1 JSym2X= 0.
 CoulSu:  requested number of processors reduced to:  19 ShMem   1 Linda.
 CalDSu:  requested number of processors reduced to:  45 ShMem   1 Linda.
 NMat=     1 NSing=     1 JSym2X= 0.
 CoulSu:  requested number of processors reduced to:  19 ShMem   1 Linda.
 CalDSu:  requested number of processors reduced to:  45 ShMem   1 Linda.
 NMat=     1 NSing=     1 JSym2X= 0.
 CoulSu:  requested number of processors reduced to:  19 ShMem   1 Linda.
 CalDSu:  requested number of processors reduced to:  45 ShMem   1 Linda.
 NMat=     1 NSing=     1 JSym2X= 0.
 CoulSu:  requested number of processors reduced to:  19 ShMem   1 Linda.
 CalDSu:  requested number of processors reduced to:  45 ShMem   1 Linda.
 NMat=     1 NSing=     1 JSym2X= 0.
 CoulSu:  requested number of processors reduced to:  19 ShMem   1 Linda.
 CalDSu:  requested number of processors reduced to:  45 ShMem   1 Linda.
 NMat=     1 NSing=     1 JSym2X= 0.
 CoulSu:  requested number of processors reduced to:  19 ShMem   1 Linda.
 CalDSu:  requested number of processors reduced to:  45 ShMem   1 Linda.
 NMat=     1 NSing=     1 JSym2X= 0.
 CoulSu:  requested number of processors reduced to:  19 ShMem   1 Linda.
 CalDSu:  requested number of processors reduced to:  45 ShMem   1 Linda.
 NMat=     1 NSing=     1 JSym2X= 0.
 CoulSu:  requested number of processors reduced to:  19 ShMem   1 Linda.
 CalDSu:  requested number of processors reduced to:  45 ShMem   1 Linda.
 NMat=     1 NSing=     1 JSym2X= 0.
 CoulSu:  requested number of processors reduced to:  19 ShMem   1 Linda.
 CalDSu:  requested number of processors reduced to:  45 ShMem   1 Linda.
 NMat=     1 NSing=     0 JSym2X= 0.
 CoulSu:  requested number of processors reduced to:  19 ShMem   1 Linda.
 CalDSu:  requested number of processors reduced to:  45 ShMem   1 Linda.
 NMat=     1 NSing=     0 JSym2X= 0.
 CoulSu:  requested number of processors reduced to:  19 ShMem   1 Linda.
 CalDSu:  requested number of processors reduced to:  45 ShMem   1 Linda.
 NMat=     1 NSing=     0 JSym2X= 0.
 CoulSu:  requested number of processors reduced to:  19 ShMem   1 Linda.
 CalDSu:  requested number of processors reduced to:  45 ShMem   1 Linda.
 NMat=     1 NSing=     0 JSym2X= 0.
 CoulSu:  requested number of processors reduced to:  19 ShMem   1 Linda.
 CalDSu:  requested number of processors reduced to:  45 ShMem   1 Linda.
 NMat=     1 NSing=     0 JSym2X= 0.
 CoulSu:  requested number of processors reduced to:  19 ShMem   1 Linda.
 CalDSu:  requested number of processors reduced to:  45 ShMem   1 Linda.
 NMat=     1 NSing=     0 JSym2X= 0.
 CoulSu:  requested number of processors reduced to:  19 ShMem   1 Linda.
 CalDSu:  requested number of processors reduced to:  45 ShMem   1 Linda.
 NMat=     1 NSing=     0 JSym2X= 0.
 CoulSu:  requested number of processors reduced to:  19 ShMem   1 Linda.
 CalDSu:  requested number of processors reduced to:  45 ShMem   1 Linda.
 NMat=     1 NSing=     0 JSym2X= 0.
 CoulSu:  requested number of processors reduced to:  19 ShMem   1 Linda.
 CalDSu:  requested number of processors reduced to:  45 ShMem   1 Linda.
 NMat=     1 NSing=     0 JSym2X= 0.
 CoulSu:  requested number of processors reduced to:  19 ShMem   1 Linda.
 CalDSu:  requested number of processors reduced to:  45 ShMem   1 Linda.
 NMat=     1 NSing=     0 JSym2X= 0.
 CoulSu:  requested number of processors reduced to:  19 ShMem   1 Linda.
 CalDSu:  requested number of processors reduced to:  45 ShMem   1 Linda.
 NMat=     1 NSing=     0 JSym2X= 0.
 CoulSu:  requested number of processors reduced to:  19 ShMem   1 Linda.
 CalDSu:  requested number of processors reduced to:  45 ShMem   1 Linda.
 NMat=     1 NSing=     0 JSym2X= 0.
 CoulSu:  requested number of processors reduced to:  19 ShMem   1 Linda.
 CalDSu:  requested number of processors reduced to:  45 ShMem   1 Linda.
 New state      1 was old state      8
 Excitation Energies [eV] at current iteration:
 Root      1 :     5.454782314079704
 Root      2 :     6.211220787912946
 Root      3 :     6.502751099809427
 Root      4 :     7.229174283657684
 Root      5 :     7.282284527467021
 Root      6 :     7.292090161165231
 Root      7 :     7.330033745644799
 Root      8 :     8.198357132025848
 Root      9 :     8.223394072287713
 Root     10 :     8.313251387273986
 Root     11 :     8.338971051916431
 Root     12 :     8.460049119310005
 Root     13 :     8.518334178169473
 Root     14 :     8.653221852431807
 Root     15 :     8.660858438087336
 Root     16 :     8.698913744974190
 Root     17 :     8.721626845478610
 Root     18 :     8.744462183211239
 Root     19 :     8.775661307195653
 Root     20 :     8.779524815149626
 Root     21 :     8.816930621273212
 Root     22 :     8.893713328968042
 Root     23 :     9.079111500122934
 Root     24 :    10.502720751778550
 Iteration     2 Dimension    48 NMult    24 NNew     24
 Estimated number of processors is:   15
 CISAX will form     1 AO SS matrices at one time.
 NMat=     1 NSing=     1 JSym2X= 0.
 CoulSu:  requested number of processors reduced to:  19 ShMem   1 Linda.
 CalDSu:  requested number of processors reduced to:  45 ShMem   1 Linda.
 NMat=     1 NSing=     1 JSym2X= 0.
 CoulSu:  requested number of processors reduced to:  19 ShMem   1 Linda.
 CalDSu:  requested number of processors reduced to:  45 ShMem   1 Linda.
 NMat=     1 NSing=     1 JSym2X= 0.
 CoulSu:  requested number of processors reduced to:  19 ShMem   1 Linda.
 CalDSu:  requested number of processors reduced to:  45 ShMem   1 Linda.
 NMat=     1 NSing=     1 JSym2X= 0.
 CoulSu:  requested number of processors reduced to:  19 ShMem   1 Linda.
 CalDSu:  requested number of processors reduced to:  45 ShMem   1 Linda.
 NMat=     1 NSing=     1 JSym2X= 0.
 CoulSu:  requested number of processors reduced to:  19 ShMem   1 Linda.
 CalDSu:  requested number of processors reduced to:  45 ShMem   1 Linda.
 NMat=     1 NSing=     1 JSym2X= 0.
 CoulSu:  requested number of processors reduced to:  19 ShMem   1 Linda.
 CalDSu:  requested number of processors reduced to:  45 ShMem   1 Linda.
 NMat=     1 NSing=     1 JSym2X= 0.
 CoulSu:  requested number of processors reduced to:  19 ShMem   1 Linda.
 CalDSu:  requested number of processors reduced to:  45 ShMem   1 Linda.
 NMat=     1 NSing=     1 JSym2X= 0.
 CoulSu:  requested number of processors reduced to:  19 ShMem   1 Linda.
 CalDSu:  requested number of processors reduced to:  45 ShMem   1 Linda.
 NMat=     1 NSing=     1 JSym2X= 0.
 CoulSu:  requested number of processors reduced to:  19 ShMem   1 Linda.
 CalDSu:  requested number of processors reduced to:  45 ShMem   1 Linda.
 NMat=     1 NSing=     1 JSym2X= 0.
 CoulSu:  requested number of processors reduced to:  19 ShMem   1 Linda.
 CalDSu:  requested number of processors reduced to:  45 ShMem   1 Linda.
 NMat=     1 NSing=     1 JSym2X= 0.
 CoulSu:  requested number of processors reduced to:  19 ShMem   1 Linda.
 CalDSu:  requested number of processors reduced to:  45 ShMem   1 Linda.
 NMat=     1 NSing=     1 JSym2X= 0.
 CoulSu:  requested number of processors reduced to:  19 ShMem   1 Linda.
 CalDSu:  requested number of processors reduced to:  45 ShMem   1 Linda.
 NMat=     1 NSing=     0 JSym2X= 0.
 CoulSu:  requested number of processors reduced to:  19 ShMem   1 Linda.
 CalDSu:  requested number of processors reduced to:  45 ShMem   1 Linda.
 NMat=     1 NSing=     0 JSym2X= 0.
 CoulSu:  requested number of processors reduced to:  19 ShMem   1 Linda.
 CalDSu:  requested number of processors reduced to:  45 ShMem   1 Linda.
 NMat=     1 NSing=     0 JSym2X= 0.
 CoulSu:  requested number of processors reduced to:  19 ShMem   1 Linda.
 CalDSu:  requested number of processors reduced to:  45 ShMem   1 Linda.
 NMat=     1 NSing=     0 JSym2X= 0.
 CoulSu:  requested number of processors reduced to:  19 ShMem   1 Linda.
 CalDSu:  requested number of processors reduced to:  45 ShMem   1 Linda.
 NMat=     1 NSing=     0 JSym2X= 0.
 CoulSu:  requested number of processors reduced to:  19 ShMem   1 Linda.
 CalDSu:  requested number of processors reduced to:  45 ShMem   1 Linda.
 NMat=     1 NSing=     0 JSym2X= 0.
 CoulSu:  requested number of processors reduced to:  19 ShMem   1 Linda.
 CalDSu:  requested number of processors reduced to:  45 ShMem   1 Linda.
 NMat=     1 NSing=     0 JSym2X= 0.
 CoulSu:  requested number of processors reduced to:  19 ShMem   1 Linda.
 CalDSu:  requested number of processors reduced to:  45 ShMem   1 Linda.
 NMat=     1 NSing=     0 JSym2X= 0.
 CoulSu:  requested number of processors reduced to:  19 ShMem   1 Linda.
 CalDSu:  requested number of processors reduced to:  45 ShMem   1 Linda.
 NMat=     1 NSing=     0 JSym2X= 0.
 CoulSu:  requested number of processors reduced to:  19 ShMem   1 Linda.
 CalDSu:  requested number of processors reduced to:  45 ShMem   1 Linda.
 NMat=     1 NSing=     0 JSym2X= 0.
 CoulSu:  requested number of processors reduced to:  19 ShMem   1 Linda.
 CalDSu:  requested number of processors reduced to:  45 ShMem   1 Linda.
 NMat=     1 NSing=     0 JSym2X= 0.
 CoulSu:  requested number of processors reduced to:  19 ShMem   1 Linda.
 CalDSu:  requested number of processors reduced to:  45 ShMem   1 Linda.
 NMat=     1 NSing=     0 JSym2X= 0.
 CoulSu:  requested number of processors reduced to:  19 ShMem   1 Linda.
 CalDSu:  requested number of processors reduced to:  45 ShMem   1 Linda.
 New state      1 was old state      3
 Root      1 not converged, maximum delta is    0.413268214751483
 Excitation Energies [eV] at current iteration:
 Root      1 :     4.259036792728280   Change is   -2.243714307081147
 Root      2 :     4.890032362244231   Change is   -0.564749951835474
 Root      3 :     5.820087258824866   Change is   -0.391133529088080
 Root      4 :     6.875137552092662   Change is   -0.416952609072569
 Root      5 :     7.053421869278815   Change is   -0.175752414378868
 Root      6 :     7.121610733660782   Change is   -0.160673793806239
 Root      7 :     7.202231697415725   Change is   -0.127802048229073
 Root      8 :     7.807135927268219   Change is   -0.391221204757629
 Root      9 :     7.943514706024726   Change is   -0.279879366262986
 Root     10 :     7.990205419123683   Change is   -0.323045968150303
 Root     11 :     8.111035802140609   Change is   -0.227935249775823
 Root     12 :     8.121858426002612   Change is   -0.338190693307392
 Root     13 :     8.277831170537480   Change is   -0.497830136658173
 Root     14 :     8.299734785125164   Change is   -0.353487067306644
 Root     15 :     8.367602737562660   Change is   -0.331311007411532
 Root     16 :     8.378405984472980   Change is   -0.139928193696494
 Root     17 :     8.437750827858657   Change is   -0.223107610228679
 Root     18 :     8.452937744224336   Change is   -0.440775584743705
 Root     19 :     8.498334775619583   Change is   -0.223292069859029
 Root     20 :     8.586967945148276   Change is   -1.915752806630271
 Root     21 :     8.601626824109792   Change is   -0.142835359101446
 Root     22 :     8.676309037784845   Change is   -0.103215777364780
 Root     23 :     8.705527253415706   Change is   -0.111403367857505
 Root     24 :     8.946439304227297   Change is   -0.132672195895637
 Iteration     3 Dimension    54 NMult    48 NNew      6
 Estimated number of processors is:   15
 CISAX will form     1 AO SS matrices at one time.
 NMat=     1 NSing=     1 JSym2X= 0.
 CoulSu:  requested number of processors reduced to:  19 ShMem   1 Linda.
 CalDSu:  requested number of processors reduced to:  45 ShMem   1 Linda.
 NMat=     1 NSing=     1 JSym2X= 0.
 CoulSu:  requested number of processors reduced to:  19 ShMem   1 Linda.
 CalDSu:  requested number of processors reduced to:  45 ShMem   1 Linda.
 NMat=     1 NSing=     1 JSym2X= 0.
 CoulSu:  requested number of processors reduced to:  19 ShMem   1 Linda.
 CalDSu:  requested number of processors reduced to:  45 ShMem   1 Linda.
 NMat=     1 NSing=     0 JSym2X= 0.
 CoulSu:  requested number of processors reduced to:  19 ShMem   1 Linda.
 CalDSu:  requested number of processors reduced to:  45 ShMem   1 Linda.
 NMat=     1 NSing=     0 JSym2X= 0.
 CoulSu:  requested number of processors reduced to:  19 ShMem   1 Linda.
 CalDSu:  requested number of processors reduced to:  45 ShMem   1 Linda.
 NMat=     1 NSing=     0 JSym2X= 0.
 CoulSu:  requested number of processors reduced to:  19 ShMem   1 Linda.
 CalDSu:  requested number of processors reduced to:  45 ShMem   1 Linda.
 Root      1 not converged, maximum delta is    0.034770754977777
 Excitation Energies [eV] at current iteration:
 Root      1 :     4.061747394900829   Change is   -0.197289397827450
 Root      2 :     4.869898071695465   Change is   -0.020134290548766
 Root      3 :     5.752911215385867   Change is   -0.067176043438999
 Root      4 :     6.817467251943075   Change is   -0.057670300149588
 Root      5 :     7.106213746455218   Change is   -0.015396987205564
 Root      6 :     7.176700766110587   Change is   -0.025530931305139
 Iteration     4 Dimension    60 NMult    54 NNew      6
 Estimated number of processors is:   15
 CISAX will form     1 AO SS matrices at one time.
 NMat=     1 NSing=     1 JSym2X= 0.
 CoulSu:  requested number of processors reduced to:  19 ShMem   1 Linda.
 CalDSu:  requested number of processors reduced to:  45 ShMem   1 Linda.
 NMat=     1 NSing=     1 JSym2X= 0.
 CoulSu:  requested number of processors reduced to:  19 ShMem   1 Linda.
 CalDSu:  requested number of processors reduced to:  45 ShMem   1 Linda.
 NMat=     1 NSing=     1 JSym2X= 0.
 CoulSu:  requested number of processors reduced to:  19 ShMem   1 Linda.
 CalDSu:  requested number of processors reduced to:  45 ShMem   1 Linda.
 NMat=     1 NSing=     0 JSym2X= 0.
 CoulSu:  requested number of processors reduced to:  19 ShMem   1 Linda.
 CalDSu:  requested number of processors reduced to:  45 ShMem   1 Linda.
 NMat=     1 NSing=     0 JSym2X= 0.
 CoulSu:  requested number of processors reduced to:  19 ShMem   1 Linda.
 CalDSu:  requested number of processors reduced to:  45 ShMem   1 Linda.
 NMat=     1 NSing=     0 JSym2X= 0.
 CoulSu:  requested number of processors reduced to:  19 ShMem   1 Linda.
 CalDSu:  requested number of processors reduced to:  45 ShMem   1 Linda.
 Root      1 not converged, maximum delta is    0.020002248323639
 Excitation Energies [eV] at current iteration:
 Root      1 :     4.037086500086077   Change is   -0.024660894814752
 Root      2 :     4.868517296843090   Change is   -0.001380774852374
 Root      3 :     5.748124784261784   Change is   -0.004786431124083
 Root      4 :     6.812846334874989   Change is   -0.004620917068086
 Root      5 :     7.104202345024453   Change is   -0.002011401430765
 Root      6 :     7.170482850450410   Change is   -0.006217915660176
 Iteration     5 Dimension    66 NMult    60 NNew      6
 Estimated number of processors is:   15
 CISAX will form     1 AO SS matrices at one time.
 NMat=     1 NSing=     1 JSym2X= 0.
 CoulSu:  requested number of processors reduced to:  19 ShMem   1 Linda.
 CalDSu:  requested number of processors reduced to:  45 ShMem   1 Linda.
 NMat=     1 NSing=     1 JSym2X= 0.
 CoulSu:  requested number of processors reduced to:  19 ShMem   1 Linda.
 CalDSu:  requested number of processors reduced to:  45 ShMem   1 Linda.
 NMat=     1 NSing=     1 JSym2X= 0.
 CoulSu:  requested number of processors reduced to:  19 ShMem   1 Linda.
 CalDSu:  requested number of processors reduced to:  45 ShMem   1 Linda.
 NMat=     1 NSing=     0 JSym2X= 0.
 CoulSu:  requested number of processors reduced to:  19 ShMem   1 Linda.
 CalDSu:  requested number of processors reduced to:  45 ShMem   1 Linda.
 NMat=     1 NSing=     0 JSym2X= 0.
 CoulSu:  requested number of processors reduced to:  19 ShMem   1 Linda.
 CalDSu:  requested number of processors reduced to:  45 ShMem   1 Linda.
 NMat=     1 NSing=     0 JSym2X= 0.
 CoulSu:  requested number of processors reduced to:  19 ShMem   1 Linda.
 CalDSu:  requested number of processors reduced to:  45 ShMem   1 Linda.
 Root      1 not converged, maximum delta is    0.008221714797549
 Excitation Energies [eV] at current iteration:
 Root      1 :     4.032696428141939   Change is   -0.004390071944138
 Root      2 :     4.868408744977215   Change is   -0.000108551865876
 Root      3 :     5.373988305047878
 Root      4 :     5.747532659437890   Change is   -0.000592124823894
 Root      5 :     7.103833163400664   Change is   -0.000369181623790
 Root      6 :     7.168836476963811   Change is   -0.001646373486599
 Iteration     6 Dimension    72 NMult    66 NNew      6
 Estimated number of processors is:   15
 CISAX will form     1 AO SS matrices at one time.
 NMat=     1 NSing=     1 JSym2X= 0.
 CoulSu:  requested number of processors reduced to:  19 ShMem   1 Linda.
 CalDSu:  requested number of processors reduced to:  45 ShMem   1 Linda.
 NMat=     1 NSing=     1 JSym2X= 0.
 CoulSu:  requested number of processors reduced to:  19 ShMem   1 Linda.
 CalDSu:  requested number of processors reduced to:  45 ShMem   1 Linda.
 NMat=     1 NSing=     1 JSym2X= 0.
 CoulSu:  requested number of processors reduced to:  19 ShMem   1 Linda.
 CalDSu:  requested number of processors reduced to:  45 ShMem   1 Linda.
 NMat=     1 NSing=     0 JSym2X= 0.
 CoulSu:  requested number of processors reduced to:  19 ShMem   1 Linda.
 CalDSu:  requested number of processors reduced to:  45 ShMem   1 Linda.
 NMat=     1 NSing=     0 JSym2X= 0.
 CoulSu:  requested number of processors reduced to:  19 ShMem   1 Linda.
 CalDSu:  requested number of processors reduced to:  45 ShMem   1 Linda.
 NMat=     1 NSing=     0 JSym2X= 0.
 CoulSu:  requested number of processors reduced to:  19 ShMem   1 Linda.
 CalDSu:  requested number of processors reduced to:  45 ShMem   1 Linda.
 Root      1 not converged, maximum delta is    0.004589892809010
 Excitation Energies [eV] at current iteration:
 Root      1 :     4.031916658186068   Change is   -0.000779769955871
 Root      2 :     4.844098748225905   Change is   -0.529889556821973
 Root      3 :     4.868543115440791   Change is    0.000134370463576
 Root      4 :     5.747457723107105   Change is   -0.000074936330785
 Root      5 :     7.103731547493507   Change is   -0.000101615907156
 Root      6 :     7.168518244033322   Change is   -0.000318232930490
 Iteration     7 Dimension    78 NMult    72 NNew      6
 Estimated number of processors is:   15
 CISAX will form     1 AO SS matrices at one time.
 NMat=     1 NSing=     1 JSym2X= 0.
 CoulSu:  requested number of processors reduced to:  19 ShMem   1 Linda.
 CalDSu:  requested number of processors reduced to:  45 ShMem   1 Linda.
 NMat=     1 NSing=     1 JSym2X= 0.
 CoulSu:  requested number of processors reduced to:  19 ShMem   1 Linda.
 CalDSu:  requested number of processors reduced to:  45 ShMem   1 Linda.
 NMat=     1 NSing=     1 JSym2X= 0.
 CoulSu:  requested number of processors reduced to:  19 ShMem   1 Linda.
 CalDSu:  requested number of processors reduced to:  45 ShMem   1 Linda.
 NMat=     1 NSing=     0 JSym2X= 0.
 CoulSu:  requested number of processors reduced to:  19 ShMem   1 Linda.
 CalDSu:  requested number of processors reduced to:  45 ShMem   1 Linda.
 NMat=     1 NSing=     0 JSym2X= 0.
 CoulSu:  requested number of processors reduced to:  19 ShMem   1 Linda.
 CalDSu:  requested number of processors reduced to:  45 ShMem   1 Linda.
 NMat=     1 NSing=     0 JSym2X= 0.
 CoulSu:  requested number of processors reduced to:  19 ShMem   1 Linda.
 CalDSu:  requested number of processors reduced to:  45 ShMem   1 Linda.
 Root      1 not converged, maximum delta is    0.003379842465015
 Excitation Energies [eV] at current iteration:
 Root      1 :     4.031691072900770   Change is   -0.000225585285298
 Root      2 :     4.662167781261711   Change is   -0.181930966964194
 Root      3 :     4.868417829400027   Change is   -0.000125286040764
 Root      4 :     5.747447967433068   Change is   -0.000009755674037
 Root      5 :     7.103696989346457   Change is   -0.000034558147050
 Root      6 :     7.168468319462426   Change is   -0.000049924570896
 Iteration     8 Dimension    84 NMult    78 NNew      6
 Estimated number of processors is:   15
 CISAX will form     1 AO SS matrices at one time.
 NMat=     1 NSing=     1 JSym2X= 0.
 CoulSu:  requested number of processors reduced to:  19 ShMem   1 Linda.
 CalDSu:  requested number of processors reduced to:  45 ShMem   1 Linda.
 NMat=     1 NSing=     1 JSym2X= 0.
 CoulSu:  requested number of processors reduced to:  19 ShMem   1 Linda.
 CalDSu:  requested number of processors reduced to:  45 ShMem   1 Linda.
 NMat=     1 NSing=     1 JSym2X= 0.
 CoulSu:  requested number of processors reduced to:  19 ShMem   1 Linda.
 CalDSu:  requested number of processors reduced to:  45 ShMem   1 Linda.
 NMat=     1 NSing=     0 JSym2X= 0.
 CoulSu:  requested number of processors reduced to:  19 ShMem   1 Linda.
 CalDSu:  requested number of processors reduced to:  45 ShMem   1 Linda.
 NMat=     1 NSing=     0 JSym2X= 0.
 CoulSu:  requested number of processors reduced to:  19 ShMem   1 Linda.
 CalDSu:  requested number of processors reduced to:  45 ShMem   1 Linda.
 NMat=     1 NSing=     0 JSym2X= 0.
 CoulSu:  requested number of processors reduced to:  19 ShMem   1 Linda.
 CalDSu:  requested number of processors reduced to:  45 ShMem   1 Linda.
 Root      1 not converged, maximum delta is    0.001066693345417
 Excitation Energies [eV] at current iteration:
 Root      1 :     4.031647761662645   Change is   -0.000043311238125
 Root      2 :     4.623429031922495   Change is   -0.038738749339216
 Root      3 :     4.868414489558397   Change is   -0.000003339841630
 Root      4 :     5.747446785559761   Change is   -0.000001181873307
 Root      5 :     7.103687765727292   Change is   -0.000009223619165
 Root      6 :     7.168454285429489   Change is   -0.000014034032937
 Iteration     9 Dimension    90 NMult    84 NNew      6
 Estimated number of processors is:   15
 CISAX will form     1 AO SS matrices at one time.
 NMat=     1 NSing=     1 JSym2X= 0.
 CoulSu:  requested number of processors reduced to:  19 ShMem   1 Linda.
 CalDSu:  requested number of processors reduced to:  45 ShMem   1 Linda.
 NMat=     1 NSing=     1 JSym2X= 0.
 CoulSu:  requested number of processors reduced to:  19 ShMem   1 Linda.
 CalDSu:  requested number of processors reduced to:  45 ShMem   1 Linda.
 NMat=     1 NSing=     1 JSym2X= 0.
 CoulSu:  requested number of processors reduced to:  19 ShMem   1 Linda.
 CalDSu:  requested number of processors reduced to:  45 ShMem   1 Linda.
 NMat=     1 NSing=     0 JSym2X= 0.
 CoulSu:  requested number of processors reduced to:  19 ShMem   1 Linda.
 CalDSu:  requested number of processors reduced to:  45 ShMem   1 Linda.
 NMat=     1 NSing=     0 JSym2X= 0.
 CoulSu:  requested number of processors reduced to:  19 ShMem   1 Linda.
 CalDSu:  requested number of processors reduced to:  45 ShMem   1 Linda.
 NMat=     1 NSing=     0 JSym2X= 0.
 CoulSu:  requested number of processors reduced to:  19 ShMem   1 Linda.
 CalDSu:  requested number of processors reduced to:  45 ShMem   1 Linda.
 Root      1 has converged.
 Excitation Energies [eV] at current iteration:
 Root      1 :     4.031645269139573   Change is   -0.000002492523072
 Root      2 :     4.620921357337370   Change is   -0.002507674585125
 Root      3 :     4.868414100184448   Change is   -0.000000389373950
 Root      4 :     5.747446717508596   Change is   -0.000000068051166
 Root      5 :     7.103685962544480   Change is   -0.000001803182812
 Root      6 :     7.168447884699070   Change is   -0.000006400730418
 Convergence achieved on expansion vectors.
 ***********************************************************************
 Stability analysis using <AA,BB:AA,BB> singles matrix:
 ***********************************************************************
 1PDM for each excited state written to RWF  633
 Ground to excited state transition densities written to RWF  633

 Eigenvectors of the stability matrix:
 
 Eigenvector   1:      Triplet-A    Eigenvalue= 0.1481602  <S**2>=2.000
      17 -> 25        -0.12288
      21 -> 24        -0.20893
      21 -> 25         0.45694
      21 -> 28         0.39972
 The wavefunction is stable under the perturbations considered.
 Leave Link  914 at Sat Apr 17 09:38:13 2021, MaxMem=   104857600 cpu:          113664.8 elap:            3292.6
 (Enter /s/ls4/users/knvvv/bin/g16sse/l508.exe)
 The wavefunction is already stable.
 Leave Link  508 at Sat Apr 17 09:38:13 2021, MaxMem=   104857600 cpu:               2.2 elap:               0.1
 (Enter /s/ls4/users/knvvv/bin/g16sse/l601.exe)
 Copying SCF densities to generalized density rwf, IOpCl= 0 IROHF=0.

 **********************************************************************

            Population analysis using the SCF density.

 **********************************************************************

 Orbital symmetries:
       Occupied  (A) (A) (A) (A) (A) (A) (A) (A) (A) (A) (A) (A)
                 (A) (A) (A) (A) (A) (A) (A) (A) (A) (A)
       Virtual   (A) (A) (A) (A) (A) (A) (A) (A) (A) (A) (A) (A)
                 (A) (A) (A) (A) (A) (A) (A) (A) (A) (A) (A) (A)
                 (A) (A) (A) (A) (A) (A) (A) (A) (A) (A) (A) (A)
                 (A) (A) (A) (A) (A) (A) (A) (A) (A) (A) (A) (A)
                 (A) (A) (A) (A) (A) (A) (A) (A) (A) (A) (A) (A)
                 (A) (A) (A) (A) (A) (A) (A) (A) (A) (A) (A) (A)
                 (A) (A) (A) (A) (A) (A) (A) (A) (A) (A) (A) (A)
                 (A) (A) (A) (A) (A) (A) (A) (A) (A) (A) (A) (A)
                 (A) (A) (A) (A) (A) (A) (A) (A) (A) (A) (A) (A)
                 (A) (A) (A) (A) (A) (A) (A) (A) (A) (A) (A) (A)
                 (A) (A) (A) (A) (A) (A) (A) (A) (A) (A) (A) (A)
                 (A) (A) (A) (A) (A) (A) (A) (A) (A) (A) (A) (A)
                 (A) (A) (A) (A) (A) (A) (A) (A) (A) (A) (A) (A)
                 (A) (A) (A) (A) (A) (A) (A) (A) (A) (A) (A) (A)
                 (A) (A) (A) (A) (A) (A) (A) (A) (A) (A) (A) (A)
                 (A) (A) (A) (A) (A) (A) (A) (A) (A) (A) (A) (A)
                 (A) (A) (A) (A) (A) (A) (A) (A) (A) (A) (A) (A)
                 (A) (A) (A) (A) (A) (A) (A) (A) (A) (A) (A) (A)
                 (A) (A) (A) (A) (A) (A) (A) (A) (A) (A) (A) (A)
                 (A) (A) (A) (A) (A) (A) (A) (A) (A) (A) (A) (A)
                 (A) (A) (A) (A) (A) (A) (A) (A) (A) (A) (A) (A)
                 (A) (A) (A) (A) (A) (A) (A) (A) (A) (A) (A) (A)
                 (A) (A) (A) (A) (A) (A) (A) (A) (A) (A) (A) (A)
                 (A) (A) (A) (A) (A) (A) (A) (A) (A) (A) (A) (A)
                 (A) (A) (A) (A) (A) (A) (A) (A) (A) (A) (A) (A)
                 (A) (A) (A) (A) (A) (A) (A) (A) (A) (A) (A) (A)
                 (A) (A) (A) (A) (A) (A) (A) (A) (A) (A) (A) (A)
                 (A) (A) (A) (A) (A) (A) (A) (A) (A) (A) (A) (A)
                 (A) (A) (A) (A) (A) (A) (A) (A) (A) (A) (A) (A)
                 (A) (A) (A) (A) (A) (A) (A) (A) (A) (A) (A) (A)
                 (A) (A) (A) (A) (A) (A) (A) (A) (A) (A) (A) (A)
                 (A) (A) (A) (A) (A) (A) (A) (A) (A) (A) (A) (A)
                 (A) (A) (A) (A) (A) (A) (A) (A) (A) (A) (A) (A)
                 (A) (A) (A) (A) (A) (A) (A) (A) (A) (A) (A) (A)
                 (A) (A) (A) (A) (A) (A) (A) (A) (A) (A) (A) (A)
                 (A) (A) (A) (A) (A) (A) (A) (A) (A) (A) (A) (A)
                 (A) (A) (A) (A) (A) (A) (A) (A) (A) (A) (A) (A)
                 (A) (A) (A) (A) (A) (A) (A) (A) (A) (A) (A) (A)
                 (A) (A) (A) (A) (A) (A) (A) (A) (A) (A) (A) (A)
                 (A) (A) (A) (A) (A) (A) (A) (A) (A) (A) (A) (A)
                 (A) (A) (A) (A) (A) (A) (A) (A) (A) (A)
 The electronic state is 1-A.
 Alpha  occ. eigenvalues --  -19.61665 -14.80761 -14.75443 -10.68456 -10.61480
 Alpha  occ. eigenvalues --  -10.58342  -1.17994  -1.05160  -1.01951  -0.90268
 Alpha  occ. eigenvalues --   -0.72263  -0.66116  -0.60241  -0.57930  -0.57320
 Alpha  occ. eigenvalues --   -0.51285  -0.48985  -0.44385  -0.40479  -0.40104
 Alpha  occ. eigenvalues --   -0.36808  -0.36031
 Alpha virt. eigenvalues --   -0.01737   0.01528   0.01784   0.02783   0.04765
 Alpha virt. eigenvalues --    0.05380   0.06211   0.06393   0.06832   0.07312
 Alpha virt. eigenvalues --    0.09007   0.10322   0.10582   0.11425   0.12428
 Alpha virt. eigenvalues --    0.13974   0.14439   0.14851   0.15237   0.16216
 Alpha virt. eigenvalues --    0.18742   0.18977   0.19705   0.20290   0.20850
 Alpha virt. eigenvalues --    0.22418   0.22916   0.23566   0.24126   0.24761
 Alpha virt. eigenvalues --    0.25274   0.26179   0.26464   0.27464   0.28457
 Alpha virt. eigenvalues --    0.29608   0.30085   0.30374   0.31578   0.32892
 Alpha virt. eigenvalues --    0.33331   0.33625   0.34073   0.35309   0.36194
 Alpha virt. eigenvalues --    0.37058   0.37893   0.38228   0.39776   0.40398
 Alpha virt. eigenvalues --    0.41392   0.42419   0.42845   0.43438   0.44245
 Alpha virt. eigenvalues --    0.45238   0.46067   0.46548   0.47918   0.49328
 Alpha virt. eigenvalues --    0.49658   0.49846   0.50697   0.51266   0.52615
 Alpha virt. eigenvalues --    0.53332   0.54170   0.54649   0.55445   0.56478
 Alpha virt. eigenvalues --    0.56961   0.57255   0.59068   0.60190   0.61117
 Alpha virt. eigenvalues --    0.62611   0.63825   0.65665   0.66316   0.67334
 Alpha virt. eigenvalues --    0.68913   0.70540   0.72171   0.72620   0.74952
 Alpha virt. eigenvalues --    0.76288   0.76939   0.78158   0.79893   0.80271
 Alpha virt. eigenvalues --    0.82096   0.83202   0.84396   0.85406   0.86001
 Alpha virt. eigenvalues --    0.88911   0.89606   0.90014   0.91212   0.92975
 Alpha virt. eigenvalues --    0.95231   0.95551   0.98409   0.98861   1.02124
 Alpha virt. eigenvalues --    1.02840   1.04541   1.05681   1.06076   1.08763
 Alpha virt. eigenvalues --    1.11104   1.11916   1.12283   1.16161   1.18666
 Alpha virt. eigenvalues --    1.18938   1.19640   1.21288   1.21943   1.25516
 Alpha virt. eigenvalues --    1.27006   1.27833   1.29745   1.31263   1.32560
 Alpha virt. eigenvalues --    1.35297   1.36577   1.38026   1.39972   1.40775
 Alpha virt. eigenvalues --    1.41674   1.43701   1.44439   1.49614   1.51235
 Alpha virt. eigenvalues --    1.53725   1.55006   1.55700   1.61428   1.64776
 Alpha virt. eigenvalues --    1.66407   1.68108   1.70755   1.72536   1.72966
 Alpha virt. eigenvalues --    1.74732   1.76852   1.77573   1.80155   1.82064
 Alpha virt. eigenvalues --    1.83207   1.86100   1.87616   1.90129   1.92180
 Alpha virt. eigenvalues --    1.94554   1.97848   1.99885   2.00610   2.03194
 Alpha virt. eigenvalues --    2.04776   2.05931   2.06607   2.07623   2.10072
 Alpha virt. eigenvalues --    2.12156   2.12616   2.13797   2.15491   2.18779
 Alpha virt. eigenvalues --    2.22358   2.22784   2.24173   2.26663   2.27502
 Alpha virt. eigenvalues --    2.31190   2.33309   2.35409   2.36208   2.37711
 Alpha virt. eigenvalues --    2.41698   2.43182   2.45056   2.47146   2.49430
 Alpha virt. eigenvalues --    2.49953   2.53625   2.54358   2.58023   2.59433
 Alpha virt. eigenvalues --    2.59983   2.61553   2.63195   2.65632   2.68166
 Alpha virt. eigenvalues --    2.70302   2.70772   2.71969   2.73001   2.73823
 Alpha virt. eigenvalues --    2.75136   2.75811   2.78159   2.81979   2.83632
 Alpha virt. eigenvalues --    2.84823   2.87253   2.88138   2.90650   2.97221
 Alpha virt. eigenvalues --    2.98971   3.00099   3.00448   3.03394   3.06824
 Alpha virt. eigenvalues --    3.08173   3.11048   3.12165   3.12603   3.16009
 Alpha virt. eigenvalues --    3.18378   3.20132   3.24245   3.26334   3.27391
 Alpha virt. eigenvalues --    3.28706   3.33968   3.40328   3.40437   3.42681
 Alpha virt. eigenvalues --    3.47200   3.48455   3.50196   3.51064   3.52669
 Alpha virt. eigenvalues --    3.55615   3.56545   3.59419   3.63177   3.65518
 Alpha virt. eigenvalues --    3.66762   3.73912   3.74235   3.81004   3.82235
 Alpha virt. eigenvalues --    3.83106   3.88861   3.93493   3.94567   3.95675
 Alpha virt. eigenvalues --    3.99738   4.00046   4.01663   4.08032   4.09606
 Alpha virt. eigenvalues --    4.12341   4.17335   4.20152   4.26344   4.27685
 Alpha virt. eigenvalues --    4.35667   4.40565   4.44247   4.48817   4.52816
 Alpha virt. eigenvalues --    4.56237   4.63447   4.68862   4.74819   4.75948
 Alpha virt. eigenvalues --    4.78979   4.82437   4.85040   4.92552   4.96578
 Alpha virt. eigenvalues --    5.02608   5.04426   5.04927   5.08839   5.09517
 Alpha virt. eigenvalues --    5.11927   5.16056   5.17194   5.20999   5.24260
 Alpha virt. eigenvalues --    5.27115   5.32648   5.36915   5.38429   5.40881
 Alpha virt. eigenvalues --    5.45803   5.47018   5.50776   5.58053   5.60140
 Alpha virt. eigenvalues --    5.61879   5.65264   5.68038   5.68811   5.72524
 Alpha virt. eigenvalues --    5.73653   5.74549   5.76970   5.80500   5.86099
 Alpha virt. eigenvalues --    5.87428   5.87882   5.88527   5.89255   5.94000
 Alpha virt. eigenvalues --    5.96846   5.97850   6.02174   6.03918   6.05900
 Alpha virt. eigenvalues --    6.07693   6.08509   6.11129   6.16069   6.17600
 Alpha virt. eigenvalues --    6.21214   6.25637   6.26760   6.28728   6.33080
 Alpha virt. eigenvalues --    6.34801   6.37189   6.41431   6.48839   6.51930
 Alpha virt. eigenvalues --    6.54346   6.56333   6.60880   6.61800   6.64664
 Alpha virt. eigenvalues --    6.64811   6.66615   6.69339   6.74804   6.77263
 Alpha virt. eigenvalues --    6.79417   6.79592   6.79740   6.82821   6.87258
 Alpha virt. eigenvalues --    6.91269   7.00266   7.02481   7.03400   7.06573
 Alpha virt. eigenvalues --    7.08372   7.11283   7.13670   7.19140   7.22827
 Alpha virt. eigenvalues --    7.23705   7.24956   7.27662   7.30420   7.33683
 Alpha virt. eigenvalues --    7.34104   7.42044   7.43790   7.44510   7.47026
 Alpha virt. eigenvalues --    7.49534   7.54616   7.55359   7.57716   7.62645
 Alpha virt. eigenvalues --    7.65323   7.68770   7.69626   7.73707   7.74052
 Alpha virt. eigenvalues --    7.78608   7.82416   7.86795   7.90079   7.92514
 Alpha virt. eigenvalues --    7.96571   7.99034   8.06333   8.06844   8.10393
 Alpha virt. eigenvalues --    8.14469   8.15947   8.17792   8.18594   8.21392
 Alpha virt. eigenvalues --    8.24423   8.28152   8.33029   8.37155   8.37613
 Alpha virt. eigenvalues --    8.37802   8.38868   8.43007   8.44827   8.45465
 Alpha virt. eigenvalues --    8.49533   8.52291   8.54350   8.56779   8.57191
 Alpha virt. eigenvalues --    8.58557   8.64602   8.65962   8.71147   8.74756
 Alpha virt. eigenvalues --    8.75532   8.81309   8.83879   8.84467   8.84488
 Alpha virt. eigenvalues --    8.86709   8.89969   8.92912   8.99890   9.00908
 Alpha virt. eigenvalues --    9.04823   9.05678   9.10958   9.15323   9.19174
 Alpha virt. eigenvalues --    9.35588   9.36403   9.39436   9.42766   9.46482
 Alpha virt. eigenvalues --    9.54331   9.57440   9.62363   9.65326   9.71412
 Alpha virt. eigenvalues --    9.75236   9.80334   9.82668   9.84689   9.92245
 Alpha virt. eigenvalues --    9.94804   9.96650  10.05803  10.07110  10.14184
 Alpha virt. eigenvalues --   10.24530  10.27718  10.40438  10.51245  10.67996
 Alpha virt. eigenvalues --   10.91646  10.95088  11.15893  11.22007  11.24631
 Alpha virt. eigenvalues --   11.32064  11.38320  11.41459  11.50991  11.54251
 Alpha virt. eigenvalues --   11.57925  11.60245  11.69531  11.73358  11.84509
 Alpha virt. eigenvalues --   11.96000  12.04209  12.06351  12.16687  12.31052
 Alpha virt. eigenvalues --   12.80822  12.97076  13.20179  13.39032  14.12401
 Alpha virt. eigenvalues --   14.24843  14.39159  14.81749  28.48586  28.88924
 Alpha virt. eigenvalues --   29.33609  38.10373  38.24113  48.23898 145.92370
 Alpha virt. eigenvalues --  146.42936 146.88201 195.66599 195.83654 251.33825
          Condensed to atoms (all electrons):
               1          2          3          4          5          6
     1  C    4.471548  -0.092642   0.215216  -0.025342  -0.041646  -0.005085
     2  C   -0.092642   5.794081   0.010139  -0.040414  -0.046608  -0.002643
     3  C    0.215216   0.010139   5.496095   0.356716   0.355457  -0.000559
     4  H   -0.025342  -0.040414   0.356716   0.453028  -0.003574   0.000866
     5  H   -0.041646  -0.046608   0.355457  -0.003574   0.452663   0.001082
     6  H   -0.005085  -0.002643  -0.000559   0.000866   0.001082   0.320451
     7  H   -0.047812  -0.008740   0.017703  -0.009829  -0.007251  -0.028758
     8  N    0.569029   0.010217  -0.101222  -0.013532  -0.014341   0.317115
     9  N   -0.009607   0.200976   0.049941   0.005871   0.008438   0.000140
    10  O    0.447390   0.002515  -0.061925   0.002739   0.003546   0.031001
               7          8          9         10
     1  C   -0.047812   0.569029  -0.009607   0.447390
     2  C   -0.008740   0.010217   0.200976   0.002515
     3  C    0.017703  -0.101222   0.049941  -0.061925
     4  H   -0.009829  -0.013532   0.005871   0.002739
     5  H   -0.007251  -0.014341   0.008438   0.003546
     6  H   -0.028758   0.317115   0.000140   0.031001
     7  H    0.374555   0.348942   0.000233   0.010483
     8  N    0.348942   6.595508  -0.000648  -0.091496
     9  N    0.000233  -0.000648   7.252318  -0.000989
    10  O    0.010483  -0.091496  -0.000989   8.167570
 Mulliken charges:
               1
     1  C    0.518952
     2  C    0.173120
     3  C   -0.337561
     4  H    0.273471
     5  H    0.292234
     6  H    0.366390
     7  H    0.350472
     8  N   -0.619571
     9  N   -0.506673
    10  O   -0.510834
 Sum of Mulliken charges =  -0.00000
 Mulliken charges with hydrogens summed into heavy atoms:
               1
     1  C    0.518952
     2  C    0.173120
     3  C    0.228144
     8  N    0.097290
     9  N   -0.506673
    10  O   -0.510834
 Electronic spatial extent (au):  <R**2>=            596.2717
 Charge=              0.0000 electrons
 Dipole moment (field-independent basis, Debye):
    X=              5.3495    Y=             -5.0764    Z=             -0.0733  Tot=              7.3751
 Quadrupole moment (field-independent basis, Debye-Ang):
   XX=            -37.3292   YY=            -35.1842   ZZ=            -34.5972
   XY=             -0.6630   XZ=             -0.7765   YZ=              0.0155
 Traceless Quadrupole moment (field-independent basis, Debye-Ang):
   XX=             -1.6257   YY=              0.5193   ZZ=              1.1063
   XY=             -0.6630   XZ=             -0.7765   YZ=              0.0155
 Octapole moment (field-independent basis, Debye-Ang**2):
  XXX=             70.6788  YYY=            -11.0527  ZZZ=              0.4340  XYY=              5.7295
  XXY=             -5.5430  XXZ=             -0.9526  XZZ=              1.1355  YZZ=             -0.6369
  YYZ=             -0.4301  XYZ=              0.2342
 Hexadecapole moment (field-independent basis, Debye-Ang**3):
 XXXX=           -597.4214 YYYY=           -156.0935 ZZZZ=            -40.2857 XXXY=             11.1357
 XXXZ=             -6.4340 YYYX=            -11.9329 YYYZ=              0.8253 ZZZX=             -0.4109
 ZZZY=             -0.3642 XXYY=           -115.4572 XXZZ=           -110.2268 YYZZ=            -30.7160
 XXYZ=              0.8837 YYXZ=             -0.9340 ZZXY=              1.7561
 N-N= 2.063017661672D+02 E-N=-1.117162743147D+03  KE= 3.002362456707D+02
 PrsmSu:  requested number of processors reduced to:  20 ShMem   1 Linda.
 No NMR shielding tensors so no spin-rotation constants.
 Leave Link  601 at Sat Apr 17 09:38:20 2021, MaxMem=   104857600 cpu:             312.8 elap:               6.9
 (Enter /s/ls4/users/knvvv/bin/g16sse/l9999.exe)

 Test job not archived.
 1\1\GINC-N178\Stability\RM062X\Gen\C3H4N2O1\KNVVV\17-Apr-2021\0\\#P M0
 62X/GEN Integral=UltraFineGrid SCF=NoSymm Stable=(RExt, Opt) IOp(1/33=
 1)\\Database calculations.\\0,1\C,0,2.914349,23.782511,0.683048\C,0,2.
 787287,26.254583,0.628049\C,0,3.42728,25.112897,1.251656\H,0,3.275043,
 25.177288,2.329501\H,0,4.505214,25.194233,1.093851\H,0,3.103105,21.776
 494,0.938231\H,0,4.039968,22.763235,2.063953\N,0,3.423129,22.691524,1.
 262585\N,0,2.282408,27.162428,0.135524\O,0,2.121953,23.756077,-0.26195
 2\\Version=ES64L-G16RevA.03\State=1-A\HF=-301.4729541\RMSD=3.004e-09\D
 ipole=1.5874875,-1.6303744,1.800289\Quadrupole=0.5451732,-1.3149605,0.
 7697872,0.380715,-0.1546165,-0.4912388\PG=C01 [X(C3H4N2O1)]\\@


 IF IT HAPPENS, IT MUST BE POSSIBLE.

 -- THE UNNAMED LAW FROM PAUL DICKSON'S 
    "THE OFFICIAL RULES"
 Job cpu time:       1 days 10 hours 24 minutes 51.5 seconds.
 Elapsed time:       0 days  1 hours  0 minutes 16.5 seconds.
 File lengths (MBytes):  RWF=    548 Int=      0 D2E=      0 Chk=     31 Scr=      1
 Normal termination of Gaussian 16 at Sat Apr 17 09:38:20 2021.
