 Entering Gaussian System, Link 0=/s/ls4/users/knvvv/bin/g16sse/g16
 Input=data/database/M062X--6-311pg_2df_2p--03_adamantane.gjf
 Output=data/database/M062X--6-311pg_2df_2p--03_adamantane.log
 Initial command:
 /s/ls4/users/knvvv/bin/g16sse/l1.exe "/s/ls4/users/knvvv/bin/scratch/Gau-44118.inp" -scrdir="/s/ls4/users/knvvv/bin/scratch/"
 Entering Link 1 = /s/ls4/users/knvvv/bin/g16sse/l1.exe PID=     44119.
  
 Copyright (c) 1988,1990,1992,1993,1995,1998,2003,2009,2016,
            Gaussian, Inc.  All Rights Reserved.
  
 This is part of the Gaussian(R) 16 program.  It is based on
 the Gaussian(R) 09 system (copyright 2009, Gaussian, Inc.),
 the Gaussian(R) 03 system (copyright 2003, Gaussian, Inc.),
 the Gaussian(R) 98 system (copyright 1998, Gaussian, Inc.),
 the Gaussian(R) 94 system (copyright 1995, Gaussian, Inc.),
 the Gaussian 92(TM) system (copyright 1992, Gaussian, Inc.),
 the Gaussian 90(TM) system (copyright 1990, Gaussian, Inc.),
 the Gaussian 88(TM) system (copyright 1988, Gaussian, Inc.),
 the Gaussian 86(TM) system (copyright 1986, Carnegie Mellon
 University), and the Gaussian 82(TM) system (copyright 1983,
 Carnegie Mellon University). Gaussian is a federally registered
 trademark of Gaussian, Inc.
  
 This software contains proprietary and confidential information,
 including trade secrets, belonging to Gaussian, Inc.
  
 This software is provided under written license and may be
 used, copied, transmitted, or stored only in accord with that
 written license.
  
 The following legend is applicable only to US Government
 contracts under FAR:
  
                    RESTRICTED RIGHTS LEGEND
  
 Use, reproduction and disclosure by the US Government is
 subject to restrictions as set forth in subparagraphs (a)
 and (c) of the Commercial Computer Software - Restricted
 Rights clause in FAR 52.227-19.
  
 Gaussian, Inc.
 340 Quinnipiac St., Bldg. 40, Wallingford CT 06492
  
  
 ---------------------------------------------------------------
 Warning -- This program may not be used in any manner that
 competes with the business of Gaussian, Inc. or will provide
 assistance to any competitor of Gaussian, Inc.  The licensee
 of this program is prohibited from giving any competitor of
 Gaussian, Inc. access to this program.  By using this program,
 the user acknowledges that Gaussian, Inc. is engaged in the
 business of creating and licensing software in the field of
 computational chemistry and represents and warrants to the
 licensee that it is not a competitor of Gaussian, Inc. and that
 it will not use this program in any manner prohibited above.
 ---------------------------------------------------------------
  

 Cite this work as:
 Gaussian 16, Revision A.03,
 M. J. Frisch, G. W. Trucks, H. B. Schlegel, G. E. Scuseria, 
 M. A. Robb, J. R. Cheeseman, G. Scalmani, V. Barone, 
 G. A. Petersson, H. Nakatsuji, X. Li, M. Caricato, A. V. Marenich, 
 J. Bloino, B. G. Janesko, R. Gomperts, B. Mennucci, H. P. Hratchian, 
 J. V. Ortiz, A. F. Izmaylov, J. L. Sonnenberg, D. Williams-Young, 
 F. Ding, F. Lipparini, F. Egidi, J. Goings, B. Peng, A. Petrone, 
 T. Henderson, D. Ranasinghe, V. G. Zakrzewski, J. Gao, N. Rega, 
 G. Zheng, W. Liang, M. Hada, M. Ehara, K. Toyota, R. Fukuda, 
 J. Hasegawa, M. Ishida, T. Nakajima, Y. Honda, O. Kitao, H. Nakai, 
 T. Vreven, K. Throssell, J. A. Montgomery, Jr., J. E. Peralta, 
 F. Ogliaro, M. J. Bearpark, J. J. Heyd, E. N. Brothers, K. N. Kudin, 
 V. N. Staroverov, T. A. Keith, R. Kobayashi, J. Normand, 
 K. Raghavachari, A. P. Rendell, J. C. Burant, S. S. Iyengar, 
 J. Tomasi, M. Cossi, J. M. Millam, M. Klene, C. Adamo, R. Cammi, 
 J. W. Ochterski, R. L. Martin, K. Morokuma, O. Farkas, 
 J. B. Foresman, and D. J. Fox, Gaussian, Inc., Wallingford CT, 2016.
 
 ******************************************
 Gaussian 16:  ES64L-G16RevA.03 25-Dec-2016
                16-Apr-2021 
 ******************************************
 %RWF=temp0_43220,70GB
 %nprocshared=48
 Will use up to   48 processors via shared memory.
 Default route: MaxDisk=80GB
 ----------------------------------------------------------------------
 #P M062X/GEN Integral=UltraFineGrid SCF=NoSymm Stable=(RExt, Opt) IOp(
 1/33=1)
 ----------------------------------------------------------------------
 1/33=1,38=1,172=1/1;
 2/12=2,17=6,18=5,40=1/2;
 3/5=7,11=2,25=1,30=1,74=-55,75=-5/1,2,3;
 4/9=2/1;
 5/5=2,38=5/2;
 6/7=2,8=2,9=2,10=2,28=1/1;
 8/6=1,10=90,11=11/1;
 9/8=-3,42=1,46=1/14;
 5/5=2,8=3,17=40,38=5/8(-2);
 6/7=2,8=2,9=2,10=2,28=1/1;
 99/5=1,9=1/99;
 Leave Link    1 at Fri Apr 16 22:49:57 2021, MaxMem=           0 cpu:               9.8 elap:               0.2
 (Enter /s/ls4/users/knvvv/bin/g16sse/l101.exe)
 ONIOM data not found on unit 2.
 ----------------------
 Database calculations.
 ----------------------
 TstMul:  ICh=     0
 TstMul:  Mul=     1
 TstMul:  ICh=     0
 TstMul:  Mul=     1
 Symbolic Z-matrix:
 Charge =  0 Multiplicity = 1
 C                     0.8883    0.8883    0.8883 
 C                    -0.8883   -0.8883    0.8883 
 C                    -0.8883    0.8883   -0.8883 
 C                     0.8883   -0.8883   -0.8883 
 C                     0.        0.        1.773 
 C                     0.        0.       -1.773 
 C                     0.        1.773     0. 
 C                     0.       -1.773     0. 
 C                     1.773     0.        0. 
 C                    -1.773     0.        0. 
 H                     1.5222    1.5222    1.5222 
 H                    -1.5222   -1.5222    1.5222 
 H                    -1.5222    1.5222   -1.5222 
 H                     1.5222   -1.5222   -1.5222 
 H                     2.4231   -0.6263    0.6263 
 H                     2.4231    0.6263   -0.6263 
 H                    -2.4231   -0.6263   -0.6263 
 H                    -2.4231    0.6263    0.6263 
 H                    -0.6263    2.4231    0.6263 
 H                     0.6263    2.4231   -0.6263 
 H                     0.6263   -2.4231    0.6263 
 H                    -0.6263   -2.4231   -0.6263 
 H                    -0.6263    0.6263    2.4231 
 H                     0.6263   -0.6263    2.4231 
 H                     0.6263    0.6263   -2.4231 
 H                    -0.6263   -0.6263   -2.4231 
 
 RdStrC is calling ZToCFu for IStruc=1 NZ=    26.
 PrtBox:  NBox=     4 Levels=  1 BoxLen=    8.00 SMaxX=        9.16
          Shift=            4.578995            4.578995            4.578995
 Box      1 Number                   0 centers from      1 to     20:
 Box      2 Number                   1 centers from     21 to     22:
 Box      3 Number                   2 centers from     23 to     24:
 Box      4 Number                   4 centers from     25 to     26:
 After GenITR:
 ITRead=  0  0  0  0  0  0  0  0  0  0  0  0  0  0  0  0  0  0  0  0
 ITRead=  0  0  0  0  0  0
 MicOpt= -1 -1 -1 -1 -1 -1 -1 -1 -1 -1 -1 -1 -1 -1 -1 -1 -1 -1 -1 -1
 MicOpt= -1 -1 -1 -1 -1 -1
 ITRead=  0  0  0  0  0  0  0  0  0  0  0  0  0  0  0  0  0  0  0  0
 ITRead=  0  0  0  0  0  0
 MicOpt= -1 -1 -1 -1 -1 -1 -1 -1 -1 -1 -1 -1 -1 -1 -1 -1 -1 -1 -1 -1
 MicOpt= -1 -1 -1 -1 -1 -1
 NAtoms=     26 NQM=       26 NQMF=       0 NMMI=      0 NMMIF=      0
                NMic=       0 NMicF=      0.
                    Isotopes and Nuclear Properties:
 (Nuclear quadrupole moments (NQMom) in fm**2, nuclear magnetic moments (NMagM)
  in nuclear magnetons)

  Atom         1           2           3           4           5           6           7           8           9          10
 IAtWgt=          12          12          12          12          12          12          12          12          12          12
 AtmWgt=  12.0000000  12.0000000  12.0000000  12.0000000  12.0000000  12.0000000  12.0000000  12.0000000  12.0000000  12.0000000
 NucSpn=           0           0           0           0           0           0           0           0           0           0
 AtZEff=  -0.0000000  -0.0000000  -0.0000000  -0.0000000  -0.0000000  -0.0000000  -0.0000000  -0.0000000  -0.0000000  -0.0000000
 NQMom=    0.0000000   0.0000000   0.0000000   0.0000000   0.0000000   0.0000000   0.0000000   0.0000000   0.0000000   0.0000000
 NMagM=    0.0000000   0.0000000   0.0000000   0.0000000   0.0000000   0.0000000   0.0000000   0.0000000   0.0000000   0.0000000
 AtZNuc=   6.0000000   6.0000000   6.0000000   6.0000000   6.0000000   6.0000000   6.0000000   6.0000000   6.0000000   6.0000000

  Atom        11          12          13          14          15          16          17          18          19          20
 IAtWgt=           1           1           1           1           1           1           1           1           1           1
 AtmWgt=   1.0078250   1.0078250   1.0078250   1.0078250   1.0078250   1.0078250   1.0078250   1.0078250   1.0078250   1.0078250
 NucSpn=           1           1           1           1           1           1           1           1           1           1
 AtZEff=  -0.0000000  -0.0000000  -0.0000000  -0.0000000  -0.0000000  -0.0000000  -0.0000000  -0.0000000  -0.0000000  -0.0000000
 NQMom=    0.0000000   0.0000000   0.0000000   0.0000000   0.0000000   0.0000000   0.0000000   0.0000000   0.0000000   0.0000000
 NMagM=    2.7928460   2.7928460   2.7928460   2.7928460   2.7928460   2.7928460   2.7928460   2.7928460   2.7928460   2.7928460
 AtZNuc=   1.0000000   1.0000000   1.0000000   1.0000000   1.0000000   1.0000000   1.0000000   1.0000000   1.0000000   1.0000000

  Atom        21          22          23          24          25          26
 IAtWgt=           1           1           1           1           1           1
 AtmWgt=   1.0078250   1.0078250   1.0078250   1.0078250   1.0078250   1.0078250
 NucSpn=           1           1           1           1           1           1
 AtZEff=  -0.0000000  -0.0000000  -0.0000000  -0.0000000  -0.0000000  -0.0000000
 NQMom=    0.0000000   0.0000000   0.0000000   0.0000000   0.0000000   0.0000000
 NMagM=    2.7928460   2.7928460   2.7928460   2.7928460   2.7928460   2.7928460
 AtZNuc=   1.0000000   1.0000000   1.0000000   1.0000000   1.0000000   1.0000000
 No MM parameters found.
 Leave Link  101 at Fri Apr 16 22:49:57 2021, MaxMem=   104857600 cpu:               7.9 elap:               0.2
 (Enter /s/ls4/users/knvvv/bin/g16sse/l202.exe)
                          Input orientation:                          
 ---------------------------------------------------------------------
 Center     Atomic      Atomic             Coordinates (Angstroms)
 Number     Number       Type             X           Y           Z
 ---------------------------------------------------------------------
      1          6           0        0.888300    0.888300    0.888300
      2          6           0       -0.888300   -0.888300    0.888300
      3          6           0       -0.888300    0.888300   -0.888300
      4          6           0        0.888300   -0.888300   -0.888300
      5          6           0        0.000000    0.000000    1.773000
      6          6           0        0.000000    0.000000   -1.773000
      7          6           0        0.000000    1.773000    0.000000
      8          6           0        0.000000   -1.773000    0.000000
      9          6           0        1.773000    0.000000    0.000000
     10          6           0       -1.773000    0.000000    0.000000
     11          1           0        1.522200    1.522200    1.522200
     12          1           0       -1.522200   -1.522200    1.522200
     13          1           0       -1.522200    1.522200   -1.522200
     14          1           0        1.522200   -1.522200   -1.522200
     15          1           0        2.423100   -0.626300    0.626300
     16          1           0        2.423100    0.626300   -0.626300
     17          1           0       -2.423100   -0.626300   -0.626300
     18          1           0       -2.423100    0.626300    0.626300
     19          1           0       -0.626300    2.423100    0.626300
     20          1           0        0.626300    2.423100   -0.626300
     21          1           0        0.626300   -2.423100    0.626300
     22          1           0       -0.626300   -2.423100   -0.626300
     23          1           0       -0.626300    0.626300    2.423100
     24          1           0        0.626300   -0.626300    2.423100
     25          1           0        0.626300    0.626300   -2.423100
     26          1           0       -0.626300   -0.626300   -2.423100
 ---------------------------------------------------------------------
                    Distance matrix (angstroms):
                    1          2          3          4          5
     1  C    0.000000
     2  C    2.512492   0.000000
     3  C    2.512492   2.512492   0.000000
     4  C    2.512492   2.512492   2.512492   0.000000
     5  C    1.536505   1.536505   2.942902   2.942902   0.000000
     6  C    2.942902   2.942902   1.536505   1.536505   3.546000
     7  C    1.536505   2.942902   1.536505   2.942902   2.507401
     8  C    2.942902   1.536505   2.942902   1.536505   2.507401
     9  C    1.536505   2.942902   2.942902   1.536505   2.507401
    10  C    2.942902   1.536505   1.536505   2.942902   2.507401
    11  H    1.097947   3.467398   3.467398   3.467398   2.167276
    12  H    3.467398   1.097947   3.467398   3.467398   2.167276
    13  H    3.467398   3.467398   1.097947   3.467398   3.936055
    14  H    3.467398   3.467398   3.467398   1.097947   3.936055
    15  H    2.172157   3.332065   3.943779   2.172157   2.752923
    16  H    2.172157   3.943779   3.332065   2.172157   3.467031
    17  H    3.943779   2.172157   2.172157   3.332065   3.467031
    18  H    3.332065   2.172157   2.172157   3.943779   2.752923
    19  H    2.172157   3.332065   2.172157   3.943779   2.752923
    20  H    2.172157   3.943779   2.172157   3.332065   3.467031
    21  H    3.332065   2.172157   3.943779   2.172157   2.752923
    22  H    3.943779   2.172157   3.332065   2.172157   3.467031
    23  H    2.172157   2.172157   3.332065   3.943779   1.098696
    24  H    2.172157   2.172157   3.943779   3.332065   1.098696
    25  H    3.332065   3.943779   2.172157   2.172157   4.288561
    26  H    3.943779   3.332065   2.172157   2.172157   4.288561
                    6          7          8          9         10
     6  C    0.000000
     7  C    2.507401   0.000000
     8  C    2.507401   3.546000   0.000000
     9  C    2.507401   2.507401   2.507401   0.000000
    10  C    2.507401   2.507401   2.507401   3.546000   0.000000
    11  H    3.936055   2.167276   3.936055   2.167276   3.936055
    12  H    3.936055   3.936055   2.167276   3.936055   2.167276
    13  H    2.167276   2.167276   3.936055   3.936055   2.167276
    14  H    2.167276   3.936055   2.167276   2.167276   3.936055
    15  H    3.467031   3.467031   2.752923   1.098696   4.288561
    16  H    2.752923   2.752923   3.467031   1.098696   4.288561
    17  H    2.752923   3.467031   2.752923   4.288561   1.098696
    18  H    3.467031   2.752923   3.467031   4.288561   1.098696
    19  H    3.467031   1.098696   4.288561   3.467031   2.752923
    20  H    2.752923   1.098696   4.288561   2.752923   3.467031
    21  H    3.467031   4.288561   1.098696   2.752923   3.467031
    22  H    2.752923   4.288561   1.098696   3.467031   2.752923
    23  H    4.288561   2.752923   3.467031   3.467031   2.752923
    24  H    4.288561   3.467031   2.752923   2.752923   3.467031
    25  H    1.098696   2.752923   3.467031   2.752923   3.467031
    26  H    1.098696   3.467031   2.752923   3.467031   2.752923
                   11         12         13         14         15
    11  H    0.000000
    12  H    4.305432   0.000000
    13  H    4.305432   4.305432   0.000000
    14  H    4.305432   4.305432   4.305432   0.000000
    15  H    2.496059   4.143750   4.979708   2.496059   0.000000
    16  H    2.496059   4.979708   4.143750   2.496059   1.771444
    17  H    4.979708   2.496059   2.496059   4.143750   5.005463
    18  H    4.143750   2.496059   2.496059   4.979708   5.005463
    19  H    2.496059   4.143750   2.496059   4.979708   4.312503
    20  H    2.496059   4.979708   2.496059   4.143750   3.754509
    21  H    4.143750   2.496059   4.979708   2.496059   2.541059
    22  H    4.979708   2.496059   4.143750   2.496059   3.754509
    23  H    2.496059   2.496059   4.143750   4.979708   3.754509
    24  H    2.496059   2.496059   4.979708   4.143750   2.541059
    25  H    4.143750   4.979708   2.496059   2.496059   3.754509
    26  H    4.979708   4.143750   2.496059   2.496059   4.312503
                   16         17         18         19         20
    16  H    0.000000
    17  H    5.005463   0.000000
    18  H    5.005463   1.771444   0.000000
    19  H    3.754509   3.754509   2.541059   0.000000
    20  H    2.541059   4.312503   3.754509   1.771444   0.000000
    21  H    3.754509   3.754509   4.312503   5.005463   5.005463
    22  H    4.312503   2.541059   3.754509   5.005463   5.005463
    23  H    4.312503   3.754509   2.541059   2.541059   3.754509
    24  H    3.754509   4.312503   3.754509   3.754509   4.312503
    25  H    2.541059   3.754509   4.312503   3.754509   2.541059
    26  H    3.754509   2.541059   3.754509   4.312503   3.754509
                   21         22         23         24         25
    21  H    0.000000
    22  H    1.771444   0.000000
    23  H    3.754509   4.312503   0.000000
    24  H    2.541059   3.754509   1.771444   0.000000
    25  H    4.312503   3.754509   5.005463   5.005463   0.000000
    26  H    3.754509   2.541059   5.005463   5.005463   1.771444
                   26
    26  H    0.000000
 Stoichiometry    C10H16
 Framework group  TD[4C3(.CH),3C2(C.C),6SGD(H2)]
 Deg. of freedom     4
 Full point group                 TD      NOp  24
 Largest Abelian subgroup         D2      NOp   4
 Largest concise Abelian subgroup D2      NOp   4
                         Standard orientation:                         
 ---------------------------------------------------------------------
 Center     Atomic      Atomic             Coordinates (Angstroms)
 Number     Number       Type             X           Y           Z
 ---------------------------------------------------------------------
      1          6           0        0.888300    0.888300    0.888300
      2          6           0       -0.888300   -0.888300    0.888300
      3          6           0       -0.888300    0.888300   -0.888300
      4          6           0        0.888300   -0.888300   -0.888300
      5          6           0        0.000000   -0.000000    1.773000
      6          6           0        0.000000   -0.000000   -1.773000
      7          6           0        0.000000    1.773000   -0.000000
      8          6           0       -0.000000   -1.773000    0.000000
      9          6           0        1.773000   -0.000000    0.000000
     10          6           0       -1.773000    0.000000   -0.000000
     11          1           0        1.522200    1.522200    1.522200
     12          1           0       -1.522200   -1.522200    1.522200
     13          1           0       -1.522200    1.522200   -1.522200
     14          1           0        1.522200   -1.522200   -1.522200
     15          1           0        2.423100   -0.626300    0.626300
     16          1           0        2.423100    0.626300   -0.626300
     17          1           0       -2.423100   -0.626300   -0.626300
     18          1           0       -2.423100    0.626300    0.626300
     19          1           0       -0.626300    2.423100    0.626300
     20          1           0        0.626300    2.423100   -0.626300
     21          1           0        0.626300   -2.423100    0.626300
     22          1           0       -0.626300   -2.423100   -0.626300
     23          1           0       -0.626300    0.626300    2.423100
     24          1           0        0.626300   -0.626300    2.423100
     25          1           0        0.626300    0.626300   -2.423100
     26          1           0       -0.626300   -0.626300   -2.423100
 ---------------------------------------------------------------------
 Rotational constants (GHZ):           1.6903067           1.6903067           1.6903067
 Leave Link  202 at Fri Apr 16 22:49:57 2021, MaxMem=   104857600 cpu:              24.9 elap:               0.5
 (Enter /s/ls4/users/knvvv/bin/g16sse/l301.exe)
 General basis read from cards:  (5D, 7F)
 Centers:      11     12     13     14     15     16     17     18     19     20
 Centers:      21     22     23     24     25     26
 S 3 1.00
     Exponent=  3.3865000000D+01 Coefficients=  2.5493800000D-02
     Exponent=  5.0947900000D+00 Coefficients=  1.9037300000D-01
     Exponent=  1.1587900000D+00 Coefficients=  8.5216100000D-01
 S 1 1.00
     Exponent=  3.2584000000D-01 Coefficients=  1.0000000000D+00
 S 1 1.00
     Exponent=  1.0274100000D-01 Coefficients=  1.0000000000D+00
 P 1 1.00
     Exponent=  1.5000000000D+00 Coefficients=  1.0000000000D+00
 P 1 1.00
     Exponent=  3.7500000000D-01 Coefficients=  1.0000000000D+00
 ****
 Centers:       1      2      3      4      5      6      7      8      9     10
 S 6 1.00
     Exponent=  4.5632400000D+03 Coefficients=  1.9666500000D-03
     Exponent=  6.8202400000D+02 Coefficients=  1.5230600000D-02
     Exponent=  1.5497300000D+02 Coefficients=  7.6126900000D-02
     Exponent=  4.4455300000D+01 Coefficients=  2.6080100000D-01
     Exponent=  1.3029000000D+01 Coefficients=  6.1646200000D-01
     Exponent=  1.8277300000D+00 Coefficients=  2.2100600000D-01
 S 3 1.00
     Exponent=  2.0964200000D+01 Coefficients=  1.1466000000D-01
     Exponent=  4.8033100000D+00 Coefficients=  9.1999900000D-01
     Exponent=  1.4593300000D+00 Coefficients= -3.0306800000D-03
 S 1 1.00
     Exponent=  4.8345600000D-01 Coefficients=  1.0000000000D+00
 S 1 1.00
     Exponent=  1.4558500000D-01 Coefficients=  1.0000000000D+00
 S 1 1.00
     Exponent=  4.3800000000D-02 Coefficients=  1.0000000000D+00
 P 3 1.00
     Exponent=  2.0964200000D+01 Coefficients=  4.0248700000D-02
     Exponent=  4.8033100000D+00 Coefficients=  2.3759400000D-01
     Exponent=  1.4593300000D+00 Coefficients=  8.1585400000D-01
 P 1 1.00
     Exponent=  4.8345600000D-01 Coefficients=  1.0000000000D+00
 P 1 1.00
     Exponent=  1.4558500000D-01 Coefficients=  1.0000000000D+00
 P 1 1.00
     Exponent=  4.3800000000D-02 Coefficients=  1.0000000000D+00
 D 1 1.00
     Exponent=  1.2520000000D+00 Coefficients=  1.0000000000D+00
 D 1 1.00
     Exponent=  3.1300000000D-01 Coefficients=  1.0000000000D+00
 F 1 1.00
     Exponent=  8.0000000000D-01 Coefficients=  1.0000000000D+00
 ****
 Ernie: Thresh=  0.10000D-02 Tol=  0.10000D-05 Strict=F.
 There are   138 symmetry adapted cartesian basis functions of A   symmetry.
 There are   132 symmetry adapted cartesian basis functions of B1  symmetry.
 There are   132 symmetry adapted cartesian basis functions of B2  symmetry.
 There are   132 symmetry adapted cartesian basis functions of B3  symmetry.
 There are   124 symmetry adapted basis functions of A   symmetry.
 There are   120 symmetry adapted basis functions of B1  symmetry.
 There are   120 symmetry adapted basis functions of B2  symmetry.
 There are   120 symmetry adapted basis functions of B3  symmetry.
   484 basis functions,   696 primitive gaussians,   534 cartesian basis functions
    38 alpha electrons       38 beta electrons
       nuclear repulsion energy       597.5067839366 Hartrees.
 IExCor= 4336 DFT=T Ex+Corr=M062X ExCW=0 ScaHFX=  0.540000
 ScaDFX=  1.000000  1.000000  1.000000  1.000000 ScalE2=  1.000000  1.000000
 IRadAn=      5 IRanWt=     -1 IRanGd=            0 ICorTp=0 IEmpDi=  4
 NAtoms=   26 NActive=   26 NUniq=    4 SFac= 4.00D+00 NAtFMM=   60 NAOKFM=F Big=F
 Integral buffers will be    131072 words long.
 Raffenetti 2 integral format.
 Two-electron integral symmetry is turned on.
 Leave Link  301 at Fri Apr 16 22:49:58 2021, MaxMem=   104857600 cpu:               8.9 elap:               0.2
 (Enter /s/ls4/users/knvvv/bin/g16sse/l302.exe)
 NPDir=0 NMtPBC=     1 NCelOv=     1 NCel=       1 NClECP=     1 NCelD=      1
         NCelK=      1 NCelE2=     1 NClLst=     1 CellRange=     0.0.
 One-electron integrals computed using PRISM.
 One-electron integral symmetry used in STVInt
 PrsmSu:  requested number of processors reduced to:  12 ShMem   1 Linda.
 PrsmSu:  requested number of processors reduced to:  40 ShMem   1 Linda.
 NBasis=   484 RedAO= T EigKep=  1.04D-05  NBF=   124   120   120   120
 NBsUse=   484 1.00D-06 EigRej= -1.00D+00 NBFU=   124   120   120   120
 Precomputing XC quadrature grid using
 IXCGrd= 4 IRadAn=           5 IRanWt=          -1 IRanGd=           0 AccXCQ= 0.00D+00.
 Generated NRdTot=       0 NPtTot=           0 NUsed=           0 NTot=          32
 NSgBfM=   534   534   534   534   534 MxSgAt=    26 MxSgA2=    26.
 Leave Link  302 at Fri Apr 16 22:50:37 2021, MaxMem=   104857600 cpu:            1831.9 elap:              39.0
 (Enter /s/ls4/users/knvvv/bin/g16sse/l303.exe)
 DipDrv:  MaxL=1.
 Leave Link  303 at Fri Apr 16 22:50:37 2021, MaxMem=   104857600 cpu:              25.4 elap:               0.6
 (Enter /s/ls4/users/knvvv/bin/g16sse/l401.exe)
 SCF N**3 symmetry information disabled.
 ExpMin= 4.38D-02 ExpMax= 4.56D+03 ExpMxC= 6.82D+02 IAcc=3 IRadAn=         5 AccDes= 0.00D+00
 Harris functional with IExCor= 1009 and IRadAn=       5 diagonalized for initial guess.
 HarFok:  IExCor= 1009 AccDes= 0.00D+00 IRadAn=         5 IDoV= 1 UseB2=F ITyADJ=14
 ICtDFT=  3500011 ScaDFX=  1.000000  1.000000  1.000000  1.000000
 FoFCou: FMM=F IPFlag=           0 FMFlag=      100000 FMFlg1=           0
         NFxFlg=           0 DoJE=T BraDBF=F KetDBF=T FulRan=T
         wScrn=  0.000000 ICntrl=       500 IOpCl=  0 I1Cent=   200000004 NGrid=           0
         NMat0=    1 NMatS0=      1 NMatT0=    0 NMatD0=    1 NMtDS0=    0 NMtDT0=    0
 Petite list used in FoFCou.
 CoulSu:  requested number of processors reduced to:  38 ShMem   1 Linda.
 CoulSu:  requested number of processors reduced to:  38 ShMem   1 Linda.
 DSYEVD-2 returned Info=      118339 IAlg= 4 N=   484 NDim=   484 NE2=      215461 trying  DSYEV.
 Harris En= -390.562034577095    
 JPrj=0 DoOrth=F DoCkMO=F.
 Initial guess orbital symmetries:
       Occupied  (E) (E) (A1) (T2) (T2) (T2) (T2) (T2) (T2) (A1)
                 (A1) (T2) (T2) (T2) (E) (E) (T2) (T2) (T2) (A1)
                 (A1) (T2) (T2) (T2) (T1) (T1) (T1) (T2) (T2) (T2)
                 (E) (E) (T1) (T1) (T1) (T2) (T2) (T2)
       Virtual   (A1) (T2) (T2) (T2) (T2) (T2) (T2) (E) (E) (A1)
                 (T2) (T2) (T2) (T1) (T1) (T1) (E) (E) (T2) (T2)
                 (T2) (A1) (T2) (T2) (T2) (T1) (T1) (T1) (T1) (T1)
                 (T1) (A1) (T2) (T2) (T2) (E) (E) (T2) (T2) (T2)
                 (E) (E) (T2) (T2) (T2) (A1) (T2) (T2) (T2) (T1)
                 (T1) (T1) (A1) (T2) (T2) (T2) (T1) (T1) (T1) (E)
                 (E) (T2) (T2) (T2) (T2) (T2) (T2) (A1) (T2) (T2)
                 (T2) (T1) (T1) (T1) (E) (E) (A1) (T2) (T2) (T2)
                 (T1) (T1) (T1) (T2) (T2) (T2) (E) (E) (A1) (T1)
                 (T1) (T1) (E) (E) (T2) (T2) (T2) (T2) (T2) (T2)
                 (T2) (T2) (T2) (A1) (E) (E) (T2) (T2) (T2) (A1)
                 (A2) (T1) (T1) (T1) (T2) (T2) (T2) (A1) (T2) (T2)
                 (T2) (A1) (T1) (T1) (T1) (T2) (T2) (T2) (E) (E)
                 (T2) (T2) (T2) (T1) (T1) (T1) (E) (E) (T2) (T2)
                 (T2) (T1) (T1) (T1) (A1) (T1) (T1) (T1) (E) (E)
                 (T2) (T2) (T2) (T2) (T2) (T2) (T1) (T1) (T1) (A1)
                 (T2) (T2) (T2) (T1) (T1) (T1) (T2) (T2) (T2) (E)
                 (E) (A2) (E) (E) (T2) (T2) (T2) (T2) (T2) (T2)
                 (A1) (T1) (T1) (T1) (E) (E) (T2) (T2) (T2) (A1)
                 (T2) (T2) (T2) (T1) (T1) (T1) (T2) (T2) (T2) (T1)
                 (T1) (T1) (E) (E) (A1) (T1) (T1) (T1) (T2) (T2)
                 (T2) (E) (E) (T2) (T2) (T2) (T2) (T2) (T2) (A1)
                 (E) (E) (E) (E) (A1) (T1) (T1) (T1) (T2) (T2)
                 (T2) (T2) (T2) (T2) (T1) (T1) (T1) (T1) (T1) (T1)
                 (T2) (T2) (T2) (T2) (T2) (T2) (T1) (T1) (T1) (E)
                 (E) (E) (E) (A2) (A1) (T2) (T2) (T2) (T2) (T2)
                 (T2) (T1) (T1) (T1) (T2) (T2) (T2) (T1) (T1) (T1)
                 (A1) (A1) (T2) (T2) (T2) (E) (E) (T2) (T2) (T2)
                 (T2) (T2) (T2) (T1) (T1) (T1) (T1) (T1) (T1) (T2)
                 (T2) (T2) (E) (E) (T2) (T2) (T2) (A1) (T1) (T1)
                 (T1) (A1) (T2) (T2) (T2) (A2) (E) (E) (T1) (T1)
                 (T1) (E) (E) (T2) (T2) (T2) (T1) (T1) (T1) (A1)
                 (T2) (T2) (T2) (T2) (T2) (T2) (E) (E) (T2) (T2)
                 (T2) (A1) (E) (E) (T1) (T1) (T1) (T2) (T2) (T2)
                 (A1) (E) (E) (T2) (T2) (T2) (T1) (T1) (T1) (E)
                 (E) (T2) (T2) (T2) (A1) (T1) (T1) (T1) (T2) (T2)
                 (T2) (A2) (A1) (T2) (T2) (T2) (E) (E) (A2) (T1)
                 (T1) (T1) (T2) (T2) (T2) (E) (E) (T1) (T1) (T1)
                 (T1) (T1) (T1) (T2) (T2) (T2) (T1) (T1) (T1) (T2)
                 (T2) (T2) (E) (E) (A1) (E) (E) (T2) (T2) (T2)
                 (T1) (T1) (T1) (T2) (T2) (T2) (T1) (T1) (T1) (T2)
                 (T2) (T2) (E) (E) (T2) (T2) (T2) (T1) (T1) (T1)
                 (T2) (T2) (T2) (E) (E) (A1) (T2) (T2) (T2) (A1)
                 (T1) (T1) (T1) (T2) (T2) (T2) (T2) (T2) (T2) (A1)
                 (E) (E) (A1) (T2) (T2) (T2)
 The electronic state of the initial guess is 1-A1.
 Leave Link  401 at Fri Apr 16 22:50:40 2021, MaxMem=   104857600 cpu:             120.8 elap:               2.7
 (Enter /s/ls4/users/knvvv/bin/g16sse/l502.exe)
 Integral symmetry usage will be decided dynamically.
 Closed shell SCF:
 Using DIIS extrapolation, IDIIS=  1040.
 NGot=   104857600 LenX=   104249136 LenY=   103963446
 Requested convergence on RMS density matrix=1.00D-08 within 128 cycles.
 Requested convergence on MAX density matrix=1.00D-06.
 Requested convergence on             energy=1.00D-06.
 No special actions if energy rises.
 Fock matrices will be formed incrementally for  20 cycles.

 Cycle   1  Pass 1  IDiag  1:
 FoFJK:  IHMeth= 1 ICntrl=       0 DoSepK=F KAlg= 0 I1Cent=           0 FoldK=F
 IRaf= 980000000 NMat=       1 IRICut=       1 DoRegI=T DoRafI=F ISym2E= 1 IDoP0=0 IntGTp=1.
 FoFCou: FMM=F IPFlag=           0 FMFlag=      100000 FMFlg1=           0
         NFxFlg=           0 DoJE=F BraDBF=F KetDBF=F FulRan=T
         wScrn=  0.000000 ICntrl=         0 IOpCl=  0 I1Cent=           0 NGrid=           0
         NMat0=    1 NMatS0=      1 NMatT0=    0 NMatD0=    1 NMtDS0=    0 NMtDT0=    0
 Petite list used in FoFCou.
 CoulSu:  requested number of processors reduced to:  40 ShMem   1 Linda.
 E= -390.307636375956    
 DIIS: error= 3.38D-02 at cycle   1 NSaved=   1.
 NSaved= 1 IEnMin= 1 EnMin= -390.307636375956     IErMin= 1 ErrMin= 3.38D-02
 ErrMax= 3.38D-02  0.00D+00 EMaxC= 1.00D-01 BMatC= 3.92D-01 BMatP= 3.92D-01
 IDIUse=3 WtCom= 6.62D-01 WtEn= 3.38D-01
 Coeff-Com:  0.100D+01
 Coeff-En:   0.100D+01
 Coeff:      0.100D+01
 Gap=     0.258 Goal=   None    Shift=    0.000
 DSYEVD-2 returned Info=      118339 IAlg= 4 N=   484 NDim=   484 NE2=      214799 trying  DSYEV.
 GapD=    0.258 DampG=1.000 DampE=0.500 DampFc=0.5000 IDamp=-1.
 Damping current iteration by 5.00D-01
 RMSDP=5.94D-03 MaxDP=2.23D-01              OVMax= 1.65D-01

 Cycle   2  Pass 1  IDiag  1:
 RMSU=  2.86D-03    CP:  8.81D-01
 CoulSu:  requested number of processors reduced to:  40 ShMem   1 Linda.
 E= -390.464453495092     Delta-E=       -0.156817119137 Rises=F Damp=T
 DIIS: error= 1.15D-02 at cycle   2 NSaved=   2.
 NSaved= 2 IEnMin= 2 EnMin= -390.464453495092     IErMin= 2 ErrMin= 1.15D-02
 ErrMax= 1.15D-02  0.00D+00 EMaxC= 1.00D-01 BMatC= 3.54D-02 BMatP= 3.92D-01
 IDIUse=3 WtCom= 8.85D-01 WtEn= 1.15D-01
 Coeff-Com:  0.105D-01 0.989D+00
 Coeff-En:   0.771D-01 0.923D+00
 Coeff:      0.182D-01 0.982D+00
 Gap=     0.354 Goal=   None    Shift=    0.000
 DSYEVD-2 returned Info=      118339 IAlg= 4 N=   484 NDim=   484 NE2=      214799 trying  DSYEV.
 RMSDP=2.67D-03 MaxDP=2.47D-01 DE=-1.57D-01 OVMax= 1.03D-01

 Cycle   3  Pass 1  IDiag  1:
 RMSU=  2.07D-03    CP:  8.62D-01  4.10D-01
 CoulSu:  requested number of processors reduced to:  40 ShMem   1 Linda.
 E= -390.653147664940     Delta-E=       -0.188694169848 Rises=F Damp=F
 DIIS: error= 1.24D-02 at cycle   3 NSaved=   3.
 NSaved= 3 IEnMin= 3 EnMin= -390.653147664940     IErMin= 2 ErrMin= 1.15D-02
 ErrMax= 1.24D-02  0.00D+00 EMaxC= 1.00D-01 BMatC= 1.51D-02 BMatP= 3.54D-02
 IDIUse=3 WtCom= 8.76D-01 WtEn= 1.24D-01
 Coeff-Com: -0.774D-01 0.402D+00 0.675D+00
 Coeff-En:   0.000D+00 0.000D+00 0.100D+01
 Coeff:     -0.678D-01 0.352D+00 0.715D+00
 Gap=     0.336 Goal=   None    Shift=    0.000
 DSYEVD-2 returned Info=         727 IAlg= 4 N=   484 NDim=   484 NE2=      214799 trying  DSYEV.
 RMSDP=5.88D-04 MaxDP=1.38D-02 DE=-1.89D-01 OVMax= 1.97D-02

 Cycle   4  Pass 1  IDiag  1:
 RMSU=  4.08D-04    CP:  8.36D-01  5.41D-01  9.50D-01
 CoulSu:  requested number of processors reduced to:  40 ShMem   1 Linda.
 E= -390.665204518239     Delta-E=       -0.012056853299 Rises=F Damp=F
 DIIS: error= 2.34D-03 at cycle   4 NSaved=   4.
 NSaved= 4 IEnMin= 4 EnMin= -390.665204518239     IErMin= 4 ErrMin= 2.34D-03
 ErrMax= 2.34D-03  0.00D+00 EMaxC= 1.00D-01 BMatC= 8.23D-04 BMatP= 1.51D-02
 IDIUse=3 WtCom= 9.77D-01 WtEn= 2.34D-02
 Coeff-Com: -0.169D-01 0.502D-01 0.231D+00 0.736D+00
 Coeff-En:   0.000D+00 0.000D+00 0.000D+00 0.100D+01
 Coeff:     -0.165D-01 0.490D-01 0.226D+00 0.742D+00
 Gap=     0.338 Goal=   None    Shift=    0.000
 RMSDP=2.17D-04 MaxDP=6.65D-03 DE=-1.21D-02 OVMax= 4.53D-03

 Cycle   5  Pass 1  IDiag  1:
 RMSU=  9.00D-05    CP:  8.45D-01  4.79D-01  9.47D-01  8.32D-01
 CoulSu:  requested number of processors reduced to:  40 ShMem   1 Linda.
 E= -390.665871188689     Delta-E=       -0.000666670450 Rises=F Damp=F
 DIIS: error= 4.91D-04 at cycle   5 NSaved=   5.
 NSaved= 5 IEnMin= 5 EnMin= -390.665871188689     IErMin= 5 ErrMin= 4.91D-04
 ErrMax= 4.91D-04  0.00D+00 EMaxC= 1.00D-01 BMatC= 4.73D-05 BMatP= 8.23D-04
 IDIUse=3 WtCom= 9.95D-01 WtEn= 4.91D-03
 Coeff-Com: -0.309D-02 0.230D-02 0.535D-01 0.293D+00 0.654D+00
 Coeff-En:   0.000D+00 0.000D+00 0.000D+00 0.000D+00 0.100D+01
 Coeff:     -0.308D-02 0.229D-02 0.532D-01 0.292D+00 0.656D+00
 Gap=     0.338 Goal=   None    Shift=    0.000
 RMSDP=2.99D-05 MaxDP=8.75D-04 DE=-6.67D-04 OVMax= 8.93D-04

 Cycle   6  Pass 1  IDiag  1:
 RMSU=  1.61D-05    CP:  8.46D-01  4.73D-01  9.43D-01  8.19D-01  1.12D+00
 CoulSu:  requested number of processors reduced to:  40 ShMem   1 Linda.
 E= -390.665912583723     Delta-E=       -0.000041395034 Rises=F Damp=F
 DIIS: error= 3.58D-05 at cycle   6 NSaved=   6.
 NSaved= 6 IEnMin= 6 EnMin= -390.665912583723     IErMin= 6 ErrMin= 3.58D-05
 ErrMax= 3.58D-05  0.00D+00 EMaxC= 1.00D-01 BMatC= 4.55D-07 BMatP= 4.73D-05
 IDIUse=1 WtCom= 1.00D+00 WtEn= 0.00D+00
 Coeff-Com:  0.137D-02-0.346D-02-0.168D-01-0.512D-01-0.165D-01 0.109D+01
 Coeff:      0.137D-02-0.346D-02-0.168D-01-0.512D-01-0.165D-01 0.109D+01
 Gap=     0.338 Goal=   None    Shift=    0.000
 RMSDP=1.61D-05 MaxDP=4.16D-04 DE=-4.14D-05 OVMax= 1.83D-04

 Cycle   7  Pass 1  IDiag  1:
 RMSU=  4.64D-06    CP:  8.47D-01  4.69D-01  9.42D-01  8.10D-01  1.20D+00
                    CP:  1.25D+00
 CoulSu:  requested number of processors reduced to:  41 ShMem   1 Linda.
 E= -390.665913229412     Delta-E=       -0.000000645689 Rises=F Damp=F
 DIIS: error= 3.14D-06 at cycle   7 NSaved=   7.
 NSaved= 7 IEnMin= 7 EnMin= -390.665913229412     IErMin= 7 ErrMin= 3.14D-06
 ErrMax= 3.14D-06  0.00D+00 EMaxC= 1.00D-01 BMatC= 3.41D-09 BMatP= 4.55D-07
 IDIUse=1 WtCom= 1.00D+00 WtEn= 0.00D+00
 Coeff-Com: -0.415D-04 0.786D-04-0.412D-03-0.270D-02-0.598D-02-0.426D-02
 Coeff-Com:  0.101D+01
 Coeff:     -0.415D-04 0.786D-04-0.412D-03-0.270D-02-0.598D-02-0.426D-02
 Coeff:      0.101D+01
 Gap=     0.338 Goal=   None    Shift=    0.000
 RMSDP=1.51D-06 MaxDP=5.74D-05 DE=-6.46D-07 OVMax= 1.83D-05

 Cycle   8  Pass 1  IDiag  1:
 RMSU=  4.18D-07    CP:  8.47D-01  4.69D-01  9.42D-01  8.09D-01  1.19D+00
                    CP:  1.25D+00  1.18D+00
 CoulSu:  requested number of processors reduced to:  41 ShMem   1 Linda.
 E= -390.665913235039     Delta-E=       -0.000000005626 Rises=F Damp=F
 DIIS: error= 4.24D-07 at cycle   8 NSaved=   8.
 NSaved= 8 IEnMin= 8 EnMin= -390.665913235039     IErMin= 8 ErrMin= 4.24D-07
 ErrMax= 4.24D-07  0.00D+00 EMaxC= 1.00D-01 BMatC= 6.90D-11 BMatP= 3.41D-09
 IDIUse=1 WtCom= 1.00D+00 WtEn= 0.00D+00
 Coeff-Com: -0.171D-04 0.439D-04 0.181D-03 0.360D-03 0.438D-04-0.135D-01
 Coeff-Com: -0.372D-02 0.102D+01
 Coeff:     -0.171D-04 0.439D-04 0.181D-03 0.360D-03 0.438D-04-0.135D-01
 Coeff:     -0.372D-02 0.102D+01
 Gap=     0.338 Goal=   None    Shift=    0.000
 RMSDP=1.58D-07 MaxDP=6.11D-06 DE=-5.63D-09 OVMax= 3.20D-06

 Cycle   9  Pass 1  IDiag  1:
 RMSU=  4.57D-08    CP:  8.47D-01  4.69D-01  9.42D-01  8.09D-01  1.19D+00
                    CP:  1.25D+00  1.20D+00  1.06D+00
 CoulSu:  requested number of processors reduced to:  41 ShMem   1 Linda.
 E= -390.665913234942     Delta-E=        0.000000000096 Rises=F Damp=F
 DIIS: error= 7.85D-08 at cycle   9 NSaved=   9.
 NSaved= 9 IEnMin= 8 EnMin= -390.665913235039     IErMin= 9 ErrMin= 7.85D-08
 ErrMax= 7.85D-08  0.00D+00 EMaxC= 1.00D-01 BMatC= 1.13D-12 BMatP= 6.90D-11
 IDIUse=1 WtCom= 1.00D+00 WtEn= 0.00D+00
 Coeff-Com:  0.144D-05-0.177D-05 0.151D-05-0.407D-06 0.153D-04 0.212D-04
 Coeff-Com: -0.149D-01 0.303D-02 0.101D+01
 Coeff:      0.144D-05-0.177D-05 0.151D-05-0.407D-06 0.153D-04 0.212D-04
 Coeff:     -0.149D-01 0.303D-02 0.101D+01
 Gap=     0.338 Goal=   None    Shift=    0.000
 DSYEVD-2 returned Info=         727 IAlg= 4 N=   484 NDim=   484 NE2=      214799 trying  DSYEV.
 RMSDP=1.01D-08 MaxDP=3.18D-07 DE= 9.63D-11 OVMax= 5.63D-07

 Cycle  10  Pass 1  IDiag  1:
 RMSU=  5.44D-09    CP:  8.47D-01  4.69D-01  9.42D-01  8.09D-01  1.19D+00
                    CP:  1.25D+00  1.20D+00  1.07D+00  1.13D+00
 CoulSu:  requested number of processors reduced to:  41 ShMem   1 Linda.
 E= -390.665913235041     Delta-E=       -0.000000000098 Rises=F Damp=F
 DIIS: error= 9.52D-09 at cycle  10 NSaved=  10.
 NSaved=10 IEnMin=10 EnMin= -390.665913235041     IErMin=10 ErrMin= 9.52D-09
 ErrMax= 9.52D-09  0.00D+00 EMaxC= 1.00D-01 BMatC= 2.22D-14 BMatP= 1.13D-12
 IDIUse=1 WtCom= 1.00D+00 WtEn= 0.00D+00
 Coeff-Com:  0.184D-06-0.538D-06-0.168D-05-0.124D-05 0.107D-04 0.153D-03
 Coeff-Com:  0.129D-02-0.168D-01-0.707D-01 0.109D+01
 Coeff:      0.184D-06-0.538D-06-0.168D-05-0.124D-05 0.107D-04 0.153D-03
 Coeff:      0.129D-02-0.168D-01-0.707D-01 0.109D+01
 Gap=     0.338 Goal=   None    Shift=    0.000
 DSYEVD-2 returned Info=         727 IAlg= 4 N=   484 NDim=   484 NE2=      214799 trying  DSYEV.
 RMSDP=1.54D-09 MaxDP=4.43D-08 DE=-9.83D-11 OVMax= 7.52D-08

 SCF Done:  E(RM062X) =  -390.665913235     A.U. after   10 cycles
            NFock= 10  Conv=0.15D-08     -V/T= 2.0049
 KE= 3.887449067737D+02 PE=-2.099936009173D+03 EE= 7.230184052280D+02
 Leave Link  502 at Fri Apr 16 22:51:50 2021, MaxMem=   104857600 cpu:            3278.8 elap:              70.2
 (Enter /s/ls4/users/knvvv/bin/g16sse/l601.exe)
 Copying SCF densities to generalized density rwf, IOpCl= 0 IROHF=0.

 **********************************************************************

            Population analysis using the SCF density.

 **********************************************************************

 Orbital symmetries:
       Occupied  (A1) (T2) (T2) (T2) (E) (E) (T2) (T2) (T2) (A1)
                 (A1) (T2) (T2) (T2) (E) (E) (T2) (T2) (T2) (A1)
                 (A1) (T2) (T2) (T2) (T1) (T1) (T1) (T2) (T2) (T2)
                 (E) (E) (T1) (T1) (T1) (T2) (T2) (T2)
       Virtual   (A1) (T2) (T2) (T2) (T2) (T2) (T2) (E) (E) (A1)
                 (T2) (T2) (T2) (T1) (T1) (T1) (A1) (T2) (T2) (T2)
                 (E) (E) (T1) (T1) (T1) (T2) (T2) (T2) (E) (E)
                 (T2) (T2) (T2) (A1) (T1) (T1) (T1) (T2) (T2) (T2)
                 (A1) (T2) (T2) (T2) (E) (E) (T1) (T1) (T1) (T2)
                 (T2) (T2) (T2) (T2) (T2) (A1) (E) (E) (T1) (T1)
                 (T1) (T2) (T2) (T2) (T2) (T2) (T2) (A1) (T2) (T2)
                 (T2) (T1) (T1) (T1) (E) (E) (A1) (T2) (T2) (T2)
                 (E) (E) (T2) (T2) (T2) (T2) (T2) (T2) (T1) (T1)
                 (T1) (T1) (T1) (T1) (A1) (T2) (T2) (T2) (E) (E)
                 (T2) (T2) (T2) (E) (E) (A1) (T2) (T2) (T2) (T1)
                 (T1) (T1) (A1) (A2) (T2) (T2) (T2) (A1) (A1) (T2)
                 (T2) (T2) (T1) (T1) (T1) (T2) (T2) (T2) (E) (E)
                 (T1) (T1) (T1) (T2) (T2) (T2) (E) (E) (T2) (T2)
                 (T2) (T1) (T1) (T1) (A1) (T1) (T1) (T1) (E) (E)
                 (T2) (T2) (T2) (T2) (T2) (T2) (A1) (T1) (T1) (T1)
                 (T2) (T2) (T2) (T1) (T1) (T1) (T2) (T2) (T2) (E)
                 (E) (E) (E) (A2) (T2) (T2) (T2) (T2) (T2) (T2)
                 (A1) (T1) (T1) (T1) (E) (E) (T2) (T2) (T2) (A1)
                 (T2) (T2) (T2) (T1) (T1) (T1) (T2) (T2) (T2) (T1)
                 (T1) (T1) (E) (E) (A1) (T1) (T1) (T1) (T2) (T2)
                 (T2) (E) (E) (T2) (T2) (T2) (A1) (T2) (T2) (T2)
                 (E) (E) (E) (E) (A1) (T1) (T1) (T1) (T2) (T2)
                 (T2) (T2) (T2) (T2) (T1) (T1) (T1) (T2) (T2) (T2)
                 (T1) (T1) (T1) (T2) (T2) (T2) (T1) (T1) (T1) (E)
                 (E) (A1) (E) (E) (A2) (T2) (T2) (T2) (T2) (T2)
                 (T2) (T1) (T1) (T1) (T2) (T2) (T2) (A1) (T1) (T1)
                 (T1) (A1) (T2) (T2) (T2) (E) (E) (T2) (T2) (T2)
                 (T2) (T2) (T2) (T1) (T1) (T1) (T1) (T1) (T1) (T2)
                 (T2) (T2) (E) (E) (T2) (T2) (T2) (A1) (T1) (T1)
                 (T1) (A1) (T2) (T2) (T2) (A2) (T1) (T1) (T1) (E)
                 (E) (E) (E) (T2) (T2) (T2) (T1) (T1) (T1) (A1)
                 (T2) (T2) (T2) (E) (E) (T2) (T2) (T2) (T2) (T2)
                 (T2) (A1) (T1) (T1) (T1) (E) (E) (T2) (T2) (T2)
                 (E) (E) (A1) (T2) (T2) (T2) (T1) (T1) (T1) (E)
                 (E) (T2) (T2) (T2) (A1) (T1) (T1) (T1) (A2) (A1)
                 (T2) (T2) (T2) (T2) (T2) (T2) (E) (E) (A2) (T1)
                 (T1) (T1) (E) (E) (T2) (T2) (T2) (T1) (T1) (T1)
                 (T2) (T2) (T2) (T1) (T1) (T1) (T1) (T1) (T1) (T2)
                 (T2) (T2) (E) (E) (A1) (E) (E) (T2) (T2) (T2)
                 (T1) (T1) (T1) (T2) (T2) (T2) (T1) (T1) (T1) (T2)
                 (T2) (T2) (E) (E) (T2) (T2) (T2) (T1) (T1) (T1)
                 (T2) (T2) (T2) (A1) (E) (E) (A1) (T2) (T2) (T2)
                 (T1) (T1) (T1) (T2) (T2) (T2) (T2) (T2) (T2) (A1)
                 (E) (E) (A1) (T2) (T2) (T2)
 The electronic state is 1-A1.
 Alpha  occ. eigenvalues --  -10.52956 -10.52955 -10.52955 -10.52955 -10.52212
 Alpha  occ. eigenvalues --  -10.52212 -10.52211 -10.52211 -10.52211 -10.52208
 Alpha  occ. eigenvalues --   -0.97175  -0.86152  -0.86152  -0.86152  -0.75081
 Alpha  occ. eigenvalues --   -0.75081  -0.65985  -0.65985  -0.65985  -0.59421
 Alpha  occ. eigenvalues --   -0.52516  -0.51623  -0.51623  -0.51623  -0.46798
 Alpha  occ. eigenvalues --   -0.46798  -0.46798  -0.45156  -0.45156  -0.45156
 Alpha  occ. eigenvalues --   -0.38215  -0.38215  -0.37974  -0.37974  -0.37974
 Alpha  occ. eigenvalues --   -0.33020  -0.33020  -0.33020
 Alpha virt. eigenvalues --    0.00785   0.02572   0.02572   0.02572   0.04163
 Alpha virt. eigenvalues --    0.04163   0.04163   0.04232   0.04232   0.08177
 Alpha virt. eigenvalues --    0.08724   0.08724   0.08724   0.08991   0.08991
 Alpha virt. eigenvalues --    0.08991   0.11059   0.13237   0.13237   0.13237
 Alpha virt. eigenvalues --    0.13649   0.13649   0.13776   0.13776   0.13776
 Alpha virt. eigenvalues --    0.17877   0.17877   0.17877   0.18447   0.18447
 Alpha virt. eigenvalues --    0.18858   0.18858   0.18858   0.19513   0.19515
 Alpha virt. eigenvalues --    0.19515   0.19515   0.20053   0.20053   0.20053
 Alpha virt. eigenvalues --    0.23097   0.23267   0.23267   0.23267   0.27309
 Alpha virt. eigenvalues --    0.27309   0.27488   0.27488   0.27488   0.29217
 Alpha virt. eigenvalues --    0.29217   0.29217   0.30446   0.30446   0.30446
 Alpha virt. eigenvalues --    0.30889   0.34646   0.34646   0.35125   0.35125
 Alpha virt. eigenvalues --    0.35125   0.35221   0.35221   0.35221   0.39768
 Alpha virt. eigenvalues --    0.39768   0.39768   0.46059   0.46086   0.46086
 Alpha virt. eigenvalues --    0.46086   0.48529   0.48529   0.48529   0.49375
 Alpha virt. eigenvalues --    0.49375   0.50648   0.54407   0.54407   0.54407
 Alpha virt. eigenvalues --    0.58718   0.58718   0.60074   0.60074   0.60074
 Alpha virt. eigenvalues --    0.62416   0.62416   0.62416   0.63073   0.63073
 Alpha virt. eigenvalues --    0.63073   0.63914   0.63914   0.63914   0.64571
 Alpha virt. eigenvalues --    0.66120   0.66120   0.66120   0.68354   0.68354
 Alpha virt. eigenvalues --    0.70708   0.70708   0.70708   0.72016   0.72016
 Alpha virt. eigenvalues --    0.72056   0.72355   0.72355   0.72355   0.75421
 Alpha virt. eigenvalues --    0.75421   0.75421   0.76664   0.76752   0.77344
 Alpha virt. eigenvalues --    0.77344   0.77344   0.84195   0.88834   0.91847
 Alpha virt. eigenvalues --    0.91847   0.91847   0.93695   0.93695   0.93695
 Alpha virt. eigenvalues --    0.99170   0.99170   0.99170   1.02549   1.02549
 Alpha virt. eigenvalues --    1.05639   1.05639   1.05639   1.06663   1.06663
 Alpha virt. eigenvalues --    1.06663   1.09105   1.09105   1.15456   1.15456
 Alpha virt. eigenvalues --    1.15456   1.19162   1.19162   1.19162   1.23428
 Alpha virt. eigenvalues --    1.26256   1.26256   1.26256   1.29576   1.29576
 Alpha virt. eigenvalues --    1.29862   1.29862   1.29862   1.30386   1.30386
 Alpha virt. eigenvalues --    1.30386   1.30388   1.32944   1.32944   1.32944
 Alpha virt. eigenvalues --    1.37956   1.37956   1.37956   1.38333   1.38333
 Alpha virt. eigenvalues --    1.38333   1.38927   1.38927   1.38927   1.40439
 Alpha virt. eigenvalues --    1.40439   1.43190   1.43190   1.44195   1.44297
 Alpha virt. eigenvalues --    1.44297   1.44297   1.46465   1.46465   1.46465
 Alpha virt. eigenvalues --    1.48536   1.50799   1.50799   1.50799   1.51563
 Alpha virt. eigenvalues --    1.51563   1.56241   1.56241   1.56241   1.56680
 Alpha virt. eigenvalues --    1.57606   1.57606   1.57606   1.61721   1.61721
 Alpha virt. eigenvalues --    1.61721   1.62745   1.62745   1.62745   1.67815
 Alpha virt. eigenvalues --    1.67815   1.67815   1.72054   1.72054   1.72193
 Alpha virt. eigenvalues --    1.76796   1.76796   1.76796   1.77676   1.77676
 Alpha virt. eigenvalues --    1.77676   1.84924   1.84924   1.94496   1.94496
 Alpha virt. eigenvalues --    1.94496   1.99027   2.02207   2.02207   2.02207
 Alpha virt. eigenvalues --    2.11705   2.11705   2.49869   2.49869   2.56598
 Alpha virt. eigenvalues --    2.62825   2.62825   2.62825   2.64725   2.64725
 Alpha virt. eigenvalues --    2.64725   2.73117   2.73117   2.73117   2.75131
 Alpha virt. eigenvalues --    2.75131   2.75131   2.79019   2.79019   2.79019
 Alpha virt. eigenvalues --    2.82685   2.82685   2.82685   2.88158   2.88158
 Alpha virt. eigenvalues --    2.88158   2.89087   2.89087   2.89087   2.89110
 Alpha virt. eigenvalues --    2.89110   2.91046   2.93073   2.93073   2.93349
 Alpha virt. eigenvalues --    2.93829   2.93829   2.93829   3.01356   3.01356
 Alpha virt. eigenvalues --    3.01356   3.02712   3.02712   3.02712   3.13566
 Alpha virt. eigenvalues --    3.13566   3.13566   3.18125   3.19992   3.19992
 Alpha virt. eigenvalues --    3.19992   3.21254   3.26000   3.26000   3.26000
 Alpha virt. eigenvalues --    3.26126   3.26126   3.35634   3.35634   3.35634
 Alpha virt. eigenvalues --    3.38126   3.38126   3.38126   3.40670   3.40670
 Alpha virt. eigenvalues --    3.40670   3.41583   3.41583   3.41583   3.42958
 Alpha virt. eigenvalues --    3.42958   3.42958   3.45884   3.45884   3.51697
 Alpha virt. eigenvalues --    3.51697   3.51697   3.53934   3.55674   3.55674
 Alpha virt. eigenvalues --    3.55674   3.58588   3.64565   3.64565   3.64565
 Alpha virt. eigenvalues --    3.65937   3.70238   3.70238   3.70238   3.70396
 Alpha virt. eigenvalues --    3.70396   3.74869   3.74869   3.75690   3.75690
 Alpha virt. eigenvalues --    3.75690   3.77430   3.77430   3.77430   3.78023
 Alpha virt. eigenvalues --    3.81543   3.81543   3.81543   3.88783   3.88783
 Alpha virt. eigenvalues --    3.91182   3.91182   3.91182   3.95110   3.95110
 Alpha virt. eigenvalues --    3.95110   3.96007   3.99583   3.99583   3.99583
 Alpha virt. eigenvalues --    4.00385   4.00385   4.00440   4.00440   4.00440
 Alpha virt. eigenvalues --    4.05100   4.05100   4.08132   4.08623   4.08623
 Alpha virt. eigenvalues --    4.08623   4.16086   4.16086   4.16086   4.16907
 Alpha virt. eigenvalues --    4.16907   4.17691   4.17691   4.17691   4.18608
 Alpha virt. eigenvalues --    4.24955   4.24955   4.24955   4.29040   4.29821
 Alpha virt. eigenvalues --    4.30245   4.30245   4.30245   4.33255   4.33255
 Alpha virt. eigenvalues --    4.33255   4.34844   4.34844   4.36420   4.43900
 Alpha virt. eigenvalues --    4.43900   4.43900   4.49549   4.49549   4.50096
 Alpha virt. eigenvalues --    4.50096   4.50096   4.50814   4.50814   4.50814
 Alpha virt. eigenvalues --    4.53345   4.53345   4.53345   4.54225   4.54225
 Alpha virt. eigenvalues --    4.54225   4.60826   4.60826   4.60826   4.65115
 Alpha virt. eigenvalues --    4.65115   4.65115   4.65304   4.65304   4.66212
 Alpha virt. eigenvalues --    4.70375   4.70375   4.75777   4.75777   4.75777
 Alpha virt. eigenvalues --    4.78681   4.78681   4.78681   4.80645   4.80645
 Alpha virt. eigenvalues --    4.80645   4.86821   4.86821   4.86821   4.95900
 Alpha virt. eigenvalues --    4.95900   4.95900   5.00760   5.00760   5.28622
 Alpha virt. eigenvalues --    5.28622   5.28622   5.35925   5.35925   5.35925
 Alpha virt. eigenvalues --    5.50394   5.50394   5.50394   5.53959   5.54464
 Alpha virt. eigenvalues --    5.54464   5.70655   5.70814   5.70814   5.70814
 Alpha virt. eigenvalues --    5.75562   5.75562   5.75562   5.84190   5.84190
 Alpha virt. eigenvalues --    5.84190  24.36060  24.36060  24.36060  24.42173
 Alpha virt. eigenvalues --   24.47243  24.47243  24.47918  24.57734  24.57734
 Alpha virt. eigenvalues --   24.57734
          Condensed to atoms (all electrons):
               1          2          3          4          5          6
     1  C    5.110993  -0.012134  -0.012134  -0.012134   0.185646  -0.006593
     2  C   -0.012134   5.110993  -0.012134  -0.012134   0.185646  -0.006593
     3  C   -0.012134  -0.012134   5.110993  -0.012134  -0.006593   0.185646
     4  C   -0.012134  -0.012134  -0.012134   5.110993  -0.006593   0.185646
     5  C    0.185646   0.185646  -0.006593  -0.006593   5.405861   0.016908
     6  C   -0.006593  -0.006593   0.185646   0.185646   0.016908   5.405861
     7  C    0.185646  -0.006593   0.185646  -0.006593  -0.009491  -0.009491
     8  C   -0.006593   0.185646  -0.006593   0.185646  -0.009491  -0.009491
     9  C    0.185646  -0.006593  -0.006593   0.185646  -0.009491  -0.009491
    10  C   -0.006593   0.185646   0.185646  -0.006593  -0.009491  -0.009491
    11  H    0.449431   0.011745   0.011745   0.011745  -0.034190  -0.003638
    12  H    0.011745   0.449431   0.011745   0.011745  -0.034190  -0.003638
    13  H    0.011745   0.011745   0.449431   0.011745  -0.003638  -0.034190
    14  H    0.011745   0.011745   0.011745   0.449431  -0.003638  -0.034190
    15  H   -0.042758   0.008811  -0.008301  -0.042758  -0.002876   0.009949
    16  H   -0.042758  -0.008301   0.008811  -0.042758   0.009949  -0.002876
    17  H   -0.008301  -0.042758  -0.042758   0.008811   0.009949  -0.002876
    18  H    0.008811  -0.042758  -0.042758  -0.008301  -0.002876   0.009949
    19  H   -0.042758   0.008811  -0.042758  -0.008301  -0.002876   0.009949
    20  H   -0.042758  -0.008301  -0.042758   0.008811   0.009949  -0.002876
    21  H    0.008811  -0.042758  -0.008301  -0.042758  -0.002876   0.009949
    22  H   -0.008301  -0.042758   0.008811  -0.042758   0.009949  -0.002876
    23  H   -0.042758  -0.042758   0.008811  -0.008301   0.448935  -0.002817
    24  H   -0.042758  -0.042758  -0.008301   0.008811   0.448935  -0.002817
    25  H    0.008811  -0.008301  -0.042758  -0.042758  -0.002817   0.448935
    26  H   -0.008301   0.008811  -0.042758  -0.042758  -0.002817   0.448935
               7          8          9         10         11         12
     1  C    0.185646  -0.006593   0.185646  -0.006593   0.449431   0.011745
     2  C   -0.006593   0.185646  -0.006593   0.185646   0.011745   0.449431
     3  C    0.185646  -0.006593  -0.006593   0.185646   0.011745   0.011745
     4  C   -0.006593   0.185646   0.185646  -0.006593   0.011745   0.011745
     5  C   -0.009491  -0.009491  -0.009491  -0.009491  -0.034190  -0.034190
     6  C   -0.009491  -0.009491  -0.009491  -0.009491  -0.003638  -0.003638
     7  C    5.405861   0.016908  -0.009491  -0.009491  -0.034190  -0.003638
     8  C    0.016908   5.405861  -0.009491  -0.009491  -0.003638  -0.034190
     9  C   -0.009491  -0.009491   5.405861   0.016908  -0.034190  -0.003638
    10  C   -0.009491  -0.009491   0.016908   5.405861  -0.003638  -0.034190
    11  H   -0.034190  -0.003638  -0.034190  -0.003638   0.490732  -0.000217
    12  H   -0.003638  -0.034190  -0.003638  -0.034190  -0.000217   0.490732
    13  H   -0.034190  -0.003638  -0.003638  -0.034190  -0.000217  -0.000217
    14  H   -0.003638  -0.034190  -0.034190  -0.003638  -0.000217  -0.000217
    15  H    0.009949  -0.002876   0.448935  -0.002817  -0.005123  -0.000151
    16  H   -0.002876   0.009949   0.448935  -0.002817  -0.005123   0.000100
    17  H    0.009949  -0.002876  -0.002817   0.448935   0.000100  -0.005123
    18  H   -0.002876   0.009949  -0.002817   0.448935  -0.000151  -0.005123
    19  H    0.448935  -0.002817   0.009949  -0.002876  -0.005123  -0.000151
    20  H    0.448935  -0.002817  -0.002876   0.009949  -0.005123   0.000100
    21  H   -0.002817   0.448935  -0.002876   0.009949  -0.000151  -0.005123
    22  H   -0.002817   0.448935   0.009949  -0.002876   0.000100  -0.005123
    23  H   -0.002876   0.009949   0.009949  -0.002876  -0.005123  -0.005123
    24  H    0.009949  -0.002876  -0.002876   0.009949  -0.005123  -0.005123
    25  H   -0.002876   0.009949  -0.002876   0.009949  -0.000151   0.000100
    26  H    0.009949  -0.002876   0.009949  -0.002876   0.000100  -0.000151
              13         14         15         16         17         18
     1  C    0.011745   0.011745  -0.042758  -0.042758  -0.008301   0.008811
     2  C    0.011745   0.011745   0.008811  -0.008301  -0.042758  -0.042758
     3  C    0.449431   0.011745  -0.008301   0.008811  -0.042758  -0.042758
     4  C    0.011745   0.449431  -0.042758  -0.042758   0.008811  -0.008301
     5  C   -0.003638  -0.003638  -0.002876   0.009949   0.009949  -0.002876
     6  C   -0.034190  -0.034190   0.009949  -0.002876  -0.002876   0.009949
     7  C   -0.034190  -0.003638   0.009949  -0.002876   0.009949  -0.002876
     8  C   -0.003638  -0.034190  -0.002876   0.009949  -0.002876   0.009949
     9  C   -0.003638  -0.034190   0.448935   0.448935  -0.002817  -0.002817
    10  C   -0.034190  -0.003638  -0.002817  -0.002817   0.448935   0.448935
    11  H   -0.000217  -0.000217  -0.005123  -0.005123   0.000100  -0.000151
    12  H   -0.000217  -0.000217  -0.000151   0.000100  -0.005123  -0.005123
    13  H    0.490732  -0.000217   0.000100  -0.000151  -0.005123  -0.005123
    14  H   -0.000217   0.490732  -0.005123  -0.005123  -0.000151   0.000100
    15  H    0.000100  -0.005123   0.466776  -0.014173   0.000017   0.000017
    16  H   -0.000151  -0.005123  -0.014173   0.466776   0.000017   0.000017
    17  H   -0.005123  -0.000151   0.000017   0.000017   0.466776  -0.014173
    18  H   -0.005123   0.000100   0.000017   0.000017  -0.014173   0.466776
    19  H   -0.005123   0.000100  -0.000223   0.000048   0.000048  -0.000913
    20  H   -0.005123  -0.000151   0.000048  -0.000913  -0.000223   0.000048
    21  H    0.000100  -0.005123  -0.000913   0.000048   0.000048  -0.000223
    22  H   -0.000151  -0.005123   0.000048  -0.000223  -0.000913   0.000048
    23  H   -0.000151   0.000100   0.000048  -0.000223   0.000048  -0.000913
    24  H    0.000100  -0.000151  -0.000913   0.000048  -0.000223   0.000048
    25  H   -0.005123  -0.005123   0.000048  -0.000913   0.000048  -0.000223
    26  H   -0.005123  -0.005123  -0.000223   0.000048  -0.000913   0.000048
              19         20         21         22         23         24
     1  C   -0.042758  -0.042758   0.008811  -0.008301  -0.042758  -0.042758
     2  C    0.008811  -0.008301  -0.042758  -0.042758  -0.042758  -0.042758
     3  C   -0.042758  -0.042758  -0.008301   0.008811   0.008811  -0.008301
     4  C   -0.008301   0.008811  -0.042758  -0.042758  -0.008301   0.008811
     5  C   -0.002876   0.009949  -0.002876   0.009949   0.448935   0.448935
     6  C    0.009949  -0.002876   0.009949  -0.002876  -0.002817  -0.002817
     7  C    0.448935   0.448935  -0.002817  -0.002817  -0.002876   0.009949
     8  C   -0.002817  -0.002817   0.448935   0.448935   0.009949  -0.002876
     9  C    0.009949  -0.002876  -0.002876   0.009949   0.009949  -0.002876
    10  C   -0.002876   0.009949   0.009949  -0.002876  -0.002876   0.009949
    11  H   -0.005123  -0.005123  -0.000151   0.000100  -0.005123  -0.005123
    12  H   -0.000151   0.000100  -0.005123  -0.005123  -0.005123  -0.005123
    13  H   -0.005123  -0.005123   0.000100  -0.000151  -0.000151   0.000100
    14  H    0.000100  -0.000151  -0.005123  -0.005123   0.000100  -0.000151
    15  H   -0.000223   0.000048  -0.000913   0.000048   0.000048  -0.000913
    16  H    0.000048  -0.000913   0.000048  -0.000223  -0.000223   0.000048
    17  H    0.000048  -0.000223   0.000048  -0.000913   0.000048  -0.000223
    18  H   -0.000913   0.000048  -0.000223   0.000048  -0.000913   0.000048
    19  H    0.466776  -0.014173   0.000017   0.000017  -0.000913   0.000048
    20  H   -0.014173   0.466776   0.000017   0.000017   0.000048  -0.000223
    21  H    0.000017   0.000017   0.466776  -0.014173   0.000048  -0.000913
    22  H    0.000017   0.000017  -0.014173   0.466776  -0.000223   0.000048
    23  H   -0.000913   0.000048   0.000048  -0.000223   0.466776  -0.014173
    24  H    0.000048  -0.000223  -0.000913   0.000048  -0.014173   0.466776
    25  H    0.000048  -0.000913  -0.000223   0.000048   0.000017   0.000017
    26  H   -0.000223   0.000048   0.000048  -0.000913   0.000017   0.000017
              25         26
     1  C    0.008811  -0.008301
     2  C   -0.008301   0.008811
     3  C   -0.042758  -0.042758
     4  C   -0.042758  -0.042758
     5  C   -0.002817  -0.002817
     6  C    0.448935   0.448935
     7  C   -0.002876   0.009949
     8  C    0.009949  -0.002876
     9  C   -0.002876   0.009949
    10  C    0.009949  -0.002876
    11  H   -0.000151   0.000100
    12  H    0.000100  -0.000151
    13  H   -0.005123  -0.005123
    14  H   -0.005123  -0.005123
    15  H    0.000048  -0.000223
    16  H   -0.000913   0.000048
    17  H    0.000048  -0.000913
    18  H   -0.000223   0.000048
    19  H    0.000048  -0.000223
    20  H   -0.000913   0.000048
    21  H   -0.000223   0.000048
    22  H    0.000048  -0.000913
    23  H    0.000017   0.000017
    24  H    0.000017   0.000017
    25  H    0.466776  -0.014173
    26  H   -0.014173   0.466776
 Mulliken charges:
               1
     1  C    0.158599
     2  C    0.158599
     3  C    0.158599
     4  C    0.158599
     5  C   -0.587783
     6  C   -0.587783
     7  C   -0.587783
     8  C   -0.587783
     9  C   -0.587783
    10  C   -0.587783
    11  H    0.169630
    12  H    0.169630
    13  H    0.169630
    14  H    0.169630
    15  H    0.184482
    16  H    0.184482
    17  H    0.184482
    18  H    0.184482
    19  H    0.184482
    20  H    0.184482
    21  H    0.184482
    22  H    0.184482
    23  H    0.184482
    24  H    0.184482
    25  H    0.184482
    26  H    0.184482
 Sum of Mulliken charges =  -0.00000
 Mulliken charges with hydrogens summed into heavy atoms:
               1
     1  C    0.328229
     2  C    0.328229
     3  C    0.328229
     4  C    0.328229
     5  C   -0.218819
     6  C   -0.218819
     7  C   -0.218819
     8  C   -0.218819
     9  C   -0.218819
    10  C   -0.218819
 Electronic spatial extent (au):  <R**2>=           1134.5523
 Charge=              0.0000 electrons
 Dipole moment (field-independent basis, Debye):
    X=              0.0000    Y=             -0.0000    Z=              0.0000  Tot=              0.0000
 Quadrupole moment (field-independent basis, Debye-Ang):
   XX=            -64.1233   YY=            -64.1233   ZZ=            -64.1233
   XY=              0.0000   XZ=             -0.0000   YZ=              0.0000
 Traceless Quadrupole moment (field-independent basis, Debye-Ang):
   XX=             -0.0000   YY=              0.0000   ZZ=              0.0000
   XY=              0.0000   XZ=             -0.0000   YZ=              0.0000
 Octapole moment (field-independent basis, Debye-Ang**2):
  XXX=             -0.0000  YYY=              0.0000  ZZZ=             -0.0000  XYY=              0.0000
  XXY=             -0.0000  XXZ=             -0.0000  XZZ=              0.0000  YZZ=              0.0000
  YYZ=              0.0000  XYZ=             -1.4165
 Hexadecapole moment (field-independent basis, Debye-Ang**3):
 XXXX=           -543.9531 YYYY=           -543.9531 ZZZZ=           -543.9531 XXXY=              0.0000
 XXXZ=             -0.0000 YYYX=             -0.0000 YYYZ=              0.0000 ZZZX=             -0.0000
 ZZZY=             -0.0000 XXYY=           -173.9644 XXZZ=           -173.9644 YYZZ=           -173.9644
 XXYZ=              0.0000 YYXZ=             -0.0000 ZZXY=             -0.0000
 N-N= 5.975067839366D+02 E-N=-2.099936010791D+03  KE= 3.887449067737D+02
 PrsmSu:  requested number of processors reduced to:  43 ShMem   1 Linda.
 No NMR shielding tensors so no spin-rotation constants.
 Leave Link  601 at Fri Apr 16 22:52:08 2021, MaxMem=   104857600 cpu:             834.1 elap:              17.9
 (Enter /s/ls4/users/knvvv/bin/g16sse/l801.exe)
 DoSCS=F DFT=T ScalE2(SS,OS)=  1.000000  1.000000
 Range of M.O.s used for correlation:     1   484
 NBasis=   484 NAE=    38 NBE=    38 NFC=     0 NFV=     0
 NROrb=    484 NOA=    38 NOB=    38 NVA=   446 NVB=   446

 **** Warning!!: The largest alpha MO coefficient is  0.92283460D+02

 Leave Link  801 at Fri Apr 16 22:52:08 2021, MaxMem=   104857600 cpu:               4.1 elap:               0.1
 (Enter /s/ls4/users/knvvv/bin/g16sse/l914.exe)
 RHF ground state
 Doing stability rather than CIS.
 Two-electron integrals replicated using symmetry.
 MDV=   104857600 DFT=T DoStab=T Mixed=T DoRPA=F DoScal=F NonHer=F
 Making orbital integer symmetry assigments:
 Orbital symmetries:
       Occupied  (A1) (T2) (T2) (T2) (E) (E) (T2) (T2) (T2) (A1)
                 (A1) (T2) (T2) (T2) (E) (E) (T2) (T2) (T2) (A1)
                 (A1) (T2) (T2) (T2) (T1) (T1) (T1) (T2) (T2) (T2)
                 (E) (E) (T1) (T1) (T1) (T2) (T2) (T2)
       Virtual   (A1) (T2) (T2) (T2) (T2) (T2) (T2) (E) (E) (A1)
                 (T2) (T2) (T2) (T1) (T1) (T1) (A1) (T2) (T2) (T2)
                 (E) (E) (T1) (T1) (T1) (T2) (T2) (T2) (E) (E)
                 (T2) (T2) (T2) (A1) (T1) (T1) (T1) (T2) (T2) (T2)
                 (A1) (T2) (T2) (T2) (E) (E) (T1) (T1) (T1) (T2)
                 (T2) (T2) (T2) (T2) (T2) (A1) (E) (E) (T1) (T1)
                 (T1) (T2) (T2) (T2) (T2) (T2) (T2) (A1) (T2) (T2)
                 (T2) (T1) (T1) (T1) (E) (E) (A1) (T2) (T2) (T2)
                 (E) (E) (T2) (T2) (T2) (T2) (T2) (T2) (T1) (T1)
                 (T1) (T1) (T1) (T1) (A1) (T2) (T2) (T2) (E) (E)
                 (T2) (T2) (T2) (E) (E) (A1) (T2) (T2) (T2) (T1)
                 (T1) (T1) (A1) (A2) (T2) (T2) (T2) (A1) (A1) (T2)
                 (T2) (T2) (T1) (T1) (T1) (T2) (T2) (T2) (E) (E)
                 (T1) (T1) (T1) (T2) (T2) (T2) (E) (E) (T2) (T2)
                 (T2) (T1) (T1) (T1) (A1) (T1) (T1) (T1) (E) (E)
                 (T2) (T2) (T2) (T2) (T2) (T2) (A1) (T1) (T1) (T1)
                 (T2) (T2) (T2) (T1) (T1) (T1) (T2) (T2) (T2) (E)
                 (E) (E) (E) (A2) (T2) (T2) (T2) (T2) (T2) (T2)
                 (A1) (T1) (T1) (T1) (E) (E) (T2) (T2) (T2) (A1)
                 (T2) (T2) (T2) (T1) (T1) (T1) (T2) (T2) (T2) (T1)
                 (T1) (T1) (E) (E) (A1) (T1) (T1) (T1) (T2) (T2)
                 (T2) (E) (E) (T2) (T2) (T2) (A1) (T2) (T2) (T2)
                 (E) (E) (E) (E) (A1) (T1) (T1) (T1) (T2) (T2)
                 (T2) (T2) (T2) (T2) (T1) (T1) (T1) (T2) (T2) (T2)
                 (T1) (T1) (T1) (T2) (T2) (T2) (T1) (T1) (T1) (E)
                 (E) (A1) (E) (E) (A2) (T2) (T2) (T2) (T2) (T2)
                 (T2) (T1) (T1) (T1) (T2) (T2) (T2) (A1) (T1) (T1)
                 (T1) (A1) (T2) (T2) (T2) (E) (E) (T2) (T2) (T2)
                 (T2) (T2) (T2) (T1) (T1) (T1) (T1) (T1) (T1) (T2)
                 (T2) (T2) (E) (E) (T2) (T2) (T2) (A1) (T1) (T1)
                 (T1) (A1) (T2) (T2) (T2) (A2) (T1) (T1) (T1) (E)
                 (E) (E) (E) (T2) (T2) (T2) (T1) (T1) (T1) (A1)
                 (T2) (T2) (T2) (E) (E) (T2) (T2) (T2) (T2) (T2)
                 (T2) (A1) (T1) (T1) (T1) (E) (E) (T2) (T2) (T2)
                 (E) (E) (A1) (T2) (T2) (T2) (T1) (T1) (T1) (E)
                 (E) (T2) (T2) (T2) (A1) (T1) (T1) (T1) (A2) (A1)
                 (T2) (T2) (T2) (T2) (T2) (T2) (E) (E) (A2) (T1)
                 (T1) (T1) (E) (E) (T2) (T2) (T2) (T1) (T1) (T1)
                 (T2) (T2) (T2) (T1) (T1) (T1) (T1) (T1) (T1) (T2)
                 (T2) (T2) (E) (E) (A1) (E) (E) (T2) (T2) (T2)
                 (T1) (T1) (T1) (T2) (T2) (T2) (T1) (T1) (T1) (T2)
                 (T2) (T2) (E) (E) (T2) (T2) (T2) (T1) (T1) (T1)
                 (T2) (T2) (T2) (A1) (E) (E) (A1) (T2) (T2) (T2)
                 (T1) (T1) (T1) (T2) (T2) (T2) (T2) (T2) (T2) (A1)
                 (E) (E) (A1) (T2) (T2) (T2)
    24 initial guesses have been made.
 Convergence on wavefunction:    0.001000000000000
 Davidson Disk Diagonalization:  ConvIn= 1.00D-03 SkipCon=T Conv= 1.00D-03.
 Max sub-space:  2000 roots to seek:    24 dimension of matrix:        33896
 Iteration     1 Dimension    24 NMult     0 NNew     24
 Estimated number of processors is:   29
 CISAX will form     1 AO SS matrices at one time.
 NMat=     1 NSing=     1 JSym2X= 2.
 FoFJK:  IHMeth= 1 ICntrl=       0 DoSepK=F KAlg= 0 I1Cent=           0 FoldK=F
 IRaf= 980000000 NMat=       1 IRICut=       1 DoRegI=T DoRafI=F ISym2E= 2 IDoP0=0 IntGTp=1.
 FoFCou: FMM=F IPFlag=           0 FMFlag=      100000 FMFlg1=           0
         NFxFlg=           0 DoJE=F BraDBF=F KetDBF=F FulRan=T
         wScrn=  0.000000 ICntrl=         0 IOpCl=  0 I1Cent=           0 NGrid=           0
         NMat0=    1 NMatS0=      1 NMatT0=    0 NMatD0=    1 NMtDS0=    0 NMtDT0=    0
 Integrals replicated using symmetry in FoFCou.
 CoulSu:  requested number of processors reduced to:  35 ShMem   1 Linda.
 NMat=     1 NSing=     1 JSym2X= 2.
 CoulSu:  requested number of processors reduced to:  35 ShMem   1 Linda.
 NMat=     1 NSing=     1 JSym2X= 2.
 CoulSu:  requested number of processors reduced to:  35 ShMem   1 Linda.
 NMat=     1 NSing=     1 JSym2X= 2.
 CoulSu:  requested number of processors reduced to:  35 ShMem   1 Linda.
 NMat=     1 NSing=     1 JSym2X= 2.
 CoulSu:  requested number of processors reduced to:  35 ShMem   1 Linda.
 NMat=     1 NSing=     1 JSym2X= 2.
 CoulSu:  requested number of processors reduced to:  35 ShMem   1 Linda.
 NMat=     1 NSing=     1 JSym2X= 2.
 CoulSu:  requested number of processors reduced to:  35 ShMem   1 Linda.
 NMat=     1 NSing=     1 JSym2X= 2.
 CoulSu:  requested number of processors reduced to:  35 ShMem   1 Linda.
 NMat=     1 NSing=     1 JSym2X= 2.
 CoulSu:  requested number of processors reduced to:  35 ShMem   1 Linda.
 NMat=     1 NSing=     1 JSym2X= 2.
 CoulSu:  requested number of processors reduced to:  35 ShMem   1 Linda.
 NMat=     1 NSing=     1 JSym2X= 2.
 CoulSu:  requested number of processors reduced to:  35 ShMem   1 Linda.
 NMat=     1 NSing=     1 JSym2X= 2.
 CoulSu:  requested number of processors reduced to:  35 ShMem   1 Linda.
 NMat=     1 NSing=     0 JSym2X= 2.
 CoulSu:  requested number of processors reduced to:  35 ShMem   1 Linda.
 NMat=     1 NSing=     0 JSym2X= 2.
 CoulSu:  requested number of processors reduced to:  35 ShMem   1 Linda.
 NMat=     1 NSing=     0 JSym2X= 2.
 CoulSu:  requested number of processors reduced to:  35 ShMem   1 Linda.
 NMat=     1 NSing=     0 JSym2X= 2.
 CoulSu:  requested number of processors reduced to:  35 ShMem   1 Linda.
 NMat=     1 NSing=     0 JSym2X= 2.
 CoulSu:  requested number of processors reduced to:  35 ShMem   1 Linda.
 NMat=     1 NSing=     0 JSym2X= 2.
 CoulSu:  requested number of processors reduced to:  35 ShMem   1 Linda.
 NMat=     1 NSing=     0 JSym2X= 2.
 CoulSu:  requested number of processors reduced to:  35 ShMem   1 Linda.
 NMat=     1 NSing=     0 JSym2X= 2.
 CoulSu:  requested number of processors reduced to:  35 ShMem   1 Linda.
 NMat=     1 NSing=     0 JSym2X= 2.
 CoulSu:  requested number of processors reduced to:  35 ShMem   1 Linda.
 NMat=     1 NSing=     0 JSym2X= 2.
 CoulSu:  requested number of processors reduced to:  35 ShMem   1 Linda.
 NMat=     1 NSing=     0 JSym2X= 2.
 CoulSu:  requested number of processors reduced to:  35 ShMem   1 Linda.
 NMat=     1 NSing=     0 JSym2X= 2.
 CoulSu:  requested number of processors reduced to:  35 ShMem   1 Linda.
 New state      1 was old state      6
 Excitation Energies [eV] at current iteration:
 Root      1 :     7.351880731950922
 Root      2 :     7.351880731957292
 Root      3 :     7.351880731960908
 Root      4 :     7.395099799728109
 Root      5 :     7.395099799735843
 Root      6 :     7.395099799737213
 Root      7 :     7.956803170609449
 Root      8 :     7.956803170619604
 Root      9 :     7.956803170635880
 Root     10 :     7.966546063613473
 Root     11 :     7.966546063643201
 Root     12 :     7.968800266926625
 Root     13 :     7.968800266936027
 Root     14 :     7.968800266953386
 Root     15 :     7.970986730953810
 Root     16 :     7.970986730983850
 Root     17 :     8.036221867625045
 Root     18 :     8.036221867626473
 Root     19 :     8.036221867629139
 Root     20 :     8.039162146283708
 Root     21 :     8.039162146287570
 Root     22 :     8.039162146289947
 Root     23 :     8.060145286684376
 Root     24 :     8.073168661236345
 Iteration     2 Dimension    48 NMult    24 NNew     24
 Estimated number of processors is:   29
 CISAX will form     1 AO SS matrices at one time.
 NMat=     1 NSing=     1 JSym2X= 2.
 CoulSu:  requested number of processors reduced to:  35 ShMem   1 Linda.
 NMat=     1 NSing=     1 JSym2X= 2.
 CoulSu:  requested number of processors reduced to:  35 ShMem   1 Linda.
 NMat=     1 NSing=     1 JSym2X= 2.
 CoulSu:  requested number of processors reduced to:  35 ShMem   1 Linda.
 NMat=     1 NSing=     1 JSym2X= 2.
 CoulSu:  requested number of processors reduced to:  35 ShMem   1 Linda.
 NMat=     1 NSing=     1 JSym2X= 2.
 CoulSu:  requested number of processors reduced to:  35 ShMem   1 Linda.
 NMat=     1 NSing=     1 JSym2X= 2.
 CoulSu:  requested number of processors reduced to:  35 ShMem   1 Linda.
 NMat=     1 NSing=     1 JSym2X= 2.
 CoulSu:  requested number of processors reduced to:  35 ShMem   1 Linda.
 NMat=     1 NSing=     1 JSym2X= 2.
 CoulSu:  requested number of processors reduced to:  35 ShMem   1 Linda.
 NMat=     1 NSing=     1 JSym2X= 2.
 CoulSu:  requested number of processors reduced to:  35 ShMem   1 Linda.
 NMat=     1 NSing=     1 JSym2X= 2.
 CoulSu:  requested number of processors reduced to:  35 ShMem   1 Linda.
 NMat=     1 NSing=     1 JSym2X= 2.
 CoulSu:  requested number of processors reduced to:  35 ShMem   1 Linda.
 NMat=     1 NSing=     1 JSym2X= 2.
 CoulSu:  requested number of processors reduced to:  35 ShMem   1 Linda.
 NMat=     1 NSing=     0 JSym2X= 2.
 CoulSu:  requested number of processors reduced to:  35 ShMem   1 Linda.
 NMat=     1 NSing=     0 JSym2X= 2.
 CoulSu:  requested number of processors reduced to:  35 ShMem   1 Linda.
 NMat=     1 NSing=     0 JSym2X= 2.
 CoulSu:  requested number of processors reduced to:  35 ShMem   1 Linda.
 NMat=     1 NSing=     0 JSym2X= 2.
 CoulSu:  requested number of processors reduced to:  35 ShMem   1 Linda.
 NMat=     1 NSing=     0 JSym2X= 2.
 CoulSu:  requested number of processors reduced to:  35 ShMem   1 Linda.
 NMat=     1 NSing=     0 JSym2X= 2.
 CoulSu:  requested number of processors reduced to:  35 ShMem   1 Linda.
 NMat=     1 NSing=     0 JSym2X= 2.
 CoulSu:  requested number of processors reduced to:  35 ShMem   1 Linda.
 NMat=     1 NSing=     0 JSym2X= 2.
 CoulSu:  requested number of processors reduced to:  35 ShMem   1 Linda.
 NMat=     1 NSing=     0 JSym2X= 2.
 CoulSu:  requested number of processors reduced to:  35 ShMem   1 Linda.
 NMat=     1 NSing=     0 JSym2X= 2.
 CoulSu:  requested number of processors reduced to:  35 ShMem   1 Linda.
 NMat=     1 NSing=     0 JSym2X= 2.
 CoulSu:  requested number of processors reduced to:  35 ShMem   1 Linda.
 NMat=     1 NSing=     0 JSym2X= 2.
 CoulSu:  requested number of processors reduced to:  35 ShMem   1 Linda.
 New state      1 was old state      3
 Root      1 not converged, maximum delta is    0.236957096482361
 Excitation Energies [eV] at current iteration:
 Root      1 :     7.148741620482010   Change is   -0.203139111478898
 Root      2 :     7.148741870227313   Change is   -0.203138861729979
 Root      3 :     7.148741936997342   Change is   -0.203138794953580
 Root      4 :     7.291834159905605   Change is   -0.103265639830238
 Root      5 :     7.291834207001795   Change is   -0.103265592735418
 Root      6 :     7.291834677565013   Change is   -0.103265122163096
 Root      7 :     7.794176749832949   Change is   -0.162626420802932
 Root      8 :     7.794177322587368   Change is   -0.162625848022081
 Root      9 :     7.794177393629401   Change is   -0.162625776990203
 Root     10 :     7.828646361438881   Change is   -0.137899702204320
 Root     11 :     7.828646575689095   Change is   -0.137899487924378
 Root     12 :     7.846483147219826   Change is   -0.122317119706800
 Root     13 :     7.846483584201216   Change is   -0.122316682752169
 Root     14 :     7.846483657238773   Change is   -0.122316609697254
 Root     15 :     7.857334037944432   Change is   -0.202811248739944
 Root     16 :     7.874909067632212   Change is   -0.161312799996927
 Root     17 :     7.874909352790863   Change is   -0.161312514834182
 Root     18 :     7.874909406676931   Change is   -0.161312460949543
 Root     19 :     7.879393208116181   Change is   -0.091593522837630
 Root     20 :     7.879393486638977   Change is   -0.091593244344874
 Root     21 :     7.967594358845793   Change is   -0.071567787437916
 Root     22 :     7.967594402901046   Change is   -0.071567743386523
 Root     23 :     7.967594506519924   Change is   -0.071567639770022
 Root     24 :     7.979309994801645   Change is   -0.093858666434699
 Iteration     3 Dimension    54 NMult    48 NNew      6
 Estimated number of processors is:   29
 CISAX will form     1 AO SS matrices at one time.
 NMat=     1 NSing=     1 JSym2X= 2.
 CoulSu:  requested number of processors reduced to:  35 ShMem   1 Linda.
 NMat=     1 NSing=     1 JSym2X= 2.
 CoulSu:  requested number of processors reduced to:  35 ShMem   1 Linda.
 NMat=     1 NSing=     1 JSym2X= 2.
 CoulSu:  requested number of processors reduced to:  35 ShMem   1 Linda.
 NMat=     1 NSing=     0 JSym2X= 2.
 CoulSu:  requested number of processors reduced to:  35 ShMem   1 Linda.
 NMat=     1 NSing=     0 JSym2X= 2.
 CoulSu:  requested number of processors reduced to:  35 ShMem   1 Linda.
 NMat=     1 NSing=     0 JSym2X= 2.
 CoulSu:  requested number of processors reduced to:  35 ShMem   1 Linda.
 New state      1 was old state      2
 Root      1 not converged, maximum delta is    0.405571099211405
 Excitation Energies [eV] at current iteration:
 Root      1 :     7.123647538607499   Change is   -0.025094331619813
 Root      2 :     7.123647722752637   Change is   -0.025094214244705
 Root      3 :     7.123647982687071   Change is   -0.025093637794939
 Root      4 :     7.267183552335058   Change is   -0.024650607570546
 Root      5 :     7.267183677382073   Change is   -0.024651000182940
 Root      6 :     7.267183877866494   Change is   -0.024650329135301
 Iteration     4 Dimension    60 NMult    54 NNew      6
 Estimated number of processors is:   29
 CISAX will form     1 AO SS matrices at one time.
 NMat=     1 NSing=     1 JSym2X= 2.
 CoulSu:  requested number of processors reduced to:  35 ShMem   1 Linda.
 NMat=     1 NSing=     1 JSym2X= 2.
 CoulSu:  requested number of processors reduced to:  35 ShMem   1 Linda.
 NMat=     1 NSing=     1 JSym2X= 2.
 CoulSu:  requested number of processors reduced to:  35 ShMem   1 Linda.
 NMat=     1 NSing=     0 JSym2X= 2.
 CoulSu:  requested number of processors reduced to:  35 ShMem   1 Linda.
 NMat=     1 NSing=     0 JSym2X= 2.
 CoulSu:  requested number of processors reduced to:  35 ShMem   1 Linda.
 NMat=     1 NSing=     0 JSym2X= 2.
 CoulSu:  requested number of processors reduced to:  35 ShMem   1 Linda.
 New state      1 was old state      2
 Root      1 not converged, maximum delta is    0.359089712853474
 Excitation Energies [eV] at current iteration:
 Root      1 :     7.119817949060522   Change is   -0.003829773692115
 Root      2 :     7.119818065840419   Change is   -0.003829916846652
 Root      3 :     7.119818162282083   Change is   -0.003829376325416
 Root      4 :     7.264367428277862   Change is   -0.002816249104211
 Root      5 :     7.264367520765335   Change is   -0.002816031569724
 Root      6 :     7.264367546652071   Change is   -0.002816331214423
 Iteration     5 Dimension    66 NMult    60 NNew      6
 Estimated number of processors is:   29
 CISAX will form     1 AO SS matrices at one time.
 NMat=     1 NSing=     1 JSym2X= 2.
 CoulSu:  requested number of processors reduced to:  35 ShMem   1 Linda.
 NMat=     1 NSing=     1 JSym2X= 2.
 CoulSu:  requested number of processors reduced to:  35 ShMem   1 Linda.
 NMat=     1 NSing=     1 JSym2X= 2.
 CoulSu:  requested number of processors reduced to:  35 ShMem   1 Linda.
 NMat=     1 NSing=     0 JSym2X= 2.
 CoulSu:  requested number of processors reduced to:  35 ShMem   1 Linda.
 NMat=     1 NSing=     0 JSym2X= 2.
 CoulSu:  requested number of processors reduced to:  35 ShMem   1 Linda.
 NMat=     1 NSing=     0 JSym2X= 2.
 CoulSu:  requested number of processors reduced to:  35 ShMem   1 Linda.
 Root      1 not converged, maximum delta is    0.500359470105849
 Excitation Energies [eV] at current iteration:
 Root      1 :     7.119120082484812   Change is   -0.000697866575710
 Root      2 :     7.119120138461818   Change is   -0.000697927378601
 Root      3 :     7.119120202749303   Change is   -0.000697959532780
 Root      4 :     7.263672594320836   Change is   -0.000694926444499
 Root      5 :     7.263672665667701   Change is   -0.000694880984370
 Root      6 :     7.263672693518052   Change is   -0.000694734759809
 Iteration     6 Dimension    72 NMult    66 NNew      6
 Estimated number of processors is:   29
 CISAX will form     1 AO SS matrices at one time.
 NMat=     1 NSing=     1 JSym2X= 2.
 CoulSu:  requested number of processors reduced to:  35 ShMem   1 Linda.
[...]
 Alpha virt. eigenvalues --    0.18858   0.18858   0.18858   0.19513   0.19515
 Alpha virt. eigenvalues --    0.19515   0.19515   0.20053   0.20053   0.20053
 Alpha virt. eigenvalues --    0.23097   0.23267   0.23267   0.23267   0.27309
 Alpha virt. eigenvalues --    0.27309   0.27488   0.27488   0.27488   0.29217
 Alpha virt. eigenvalues --    0.29217   0.29217   0.30446   0.30446   0.30446
 Alpha virt. eigenvalues --    0.30889   0.34646   0.34646   0.35125   0.35125
 Alpha virt. eigenvalues --    0.35125   0.35221   0.35221   0.35221   0.39768
 Alpha virt. eigenvalues --    0.39768   0.39768   0.46059   0.46086   0.46086
 Alpha virt. eigenvalues --    0.46086   0.48529   0.48529   0.48529   0.49375
 Alpha virt. eigenvalues --    0.49375   0.50648   0.54407   0.54407   0.54407
 Alpha virt. eigenvalues --    0.58718   0.58718   0.60074   0.60074   0.60074
 Alpha virt. eigenvalues --    0.62416   0.62416   0.62416   0.63073   0.63073
 Alpha virt. eigenvalues --    0.63073   0.63914   0.63914   0.63914   0.64571
 Alpha virt. eigenvalues --    0.66120   0.66120   0.66120   0.68354   0.68354
 Alpha virt. eigenvalues --    0.70708   0.70708   0.70708   0.72016   0.72016
 Alpha virt. eigenvalues --    0.72056   0.72355   0.72355   0.72355   0.75421
 Alpha virt. eigenvalues --    0.75421   0.75421   0.76664   0.76752   0.77344
 Alpha virt. eigenvalues --    0.77344   0.77344   0.84195   0.88834   0.91847
 Alpha virt. eigenvalues --    0.91847   0.91847   0.93695   0.93695   0.93695
 Alpha virt. eigenvalues --    0.99170   0.99170   0.99170   1.02549   1.02549
 Alpha virt. eigenvalues --    1.05639   1.05639   1.05639   1.06663   1.06663
 Alpha virt. eigenvalues --    1.06663   1.09105   1.09105   1.15456   1.15456
 Alpha virt. eigenvalues --    1.15456   1.19162   1.19162   1.19162   1.23428
 Alpha virt. eigenvalues --    1.26256   1.26256   1.26256   1.29576   1.29576
 Alpha virt. eigenvalues --    1.29862   1.29862   1.29862   1.30386   1.30386
 Alpha virt. eigenvalues --    1.30386   1.30388   1.32944   1.32944   1.32944
 Alpha virt. eigenvalues --    1.37956   1.37956   1.37956   1.38333   1.38333
 Alpha virt. eigenvalues --    1.38333   1.38927   1.38927   1.38927   1.40439
 Alpha virt. eigenvalues --    1.40439   1.43190   1.43190   1.44195   1.44297
 Alpha virt. eigenvalues --    1.44297   1.44297   1.46465   1.46465   1.46465
 Alpha virt. eigenvalues --    1.48536   1.50799   1.50799   1.50799   1.51563
 Alpha virt. eigenvalues --    1.51563   1.56241   1.56241   1.56241   1.56680
 Alpha virt. eigenvalues --    1.57606   1.57606   1.57606   1.61721   1.61721
 Alpha virt. eigenvalues --    1.61721   1.62745   1.62745   1.62745   1.67815
 Alpha virt. eigenvalues --    1.67815   1.67815   1.72054   1.72054   1.72193
 Alpha virt. eigenvalues --    1.76796   1.76796   1.76796   1.77676   1.77676
 Alpha virt. eigenvalues --    1.77676   1.84924   1.84924   1.94496   1.94496
 Alpha virt. eigenvalues --    1.94496   1.99027   2.02207   2.02207   2.02207
 Alpha virt. eigenvalues --    2.11705   2.11705   2.49869   2.49869   2.56598
 Alpha virt. eigenvalues --    2.62825   2.62825   2.62825   2.64725   2.64725
 Alpha virt. eigenvalues --    2.64725   2.73117   2.73117   2.73117   2.75131
 Alpha virt. eigenvalues --    2.75131   2.75131   2.79019   2.79019   2.79019
 Alpha virt. eigenvalues --    2.82685   2.82685   2.82685   2.88158   2.88158
 Alpha virt. eigenvalues --    2.88158   2.89087   2.89087   2.89087   2.89110
 Alpha virt. eigenvalues --    2.89110   2.91046   2.93073   2.93073   2.93349
 Alpha virt. eigenvalues --    2.93829   2.93829   2.93829   3.01356   3.01356
 Alpha virt. eigenvalues --    3.01356   3.02712   3.02712   3.02712   3.13566
 Alpha virt. eigenvalues --    3.13566   3.13566   3.18125   3.19992   3.19992
 Alpha virt. eigenvalues --    3.19992   3.21254   3.26000   3.26000   3.26000
 Alpha virt. eigenvalues --    3.26126   3.26126   3.35634   3.35634   3.35634
 Alpha virt. eigenvalues --    3.38126   3.38126   3.38126   3.40670   3.40670
 Alpha virt. eigenvalues --    3.40670   3.41583   3.41583   3.41583   3.42958
 Alpha virt. eigenvalues --    3.42958   3.42958   3.45884   3.45884   3.51697
 Alpha virt. eigenvalues --    3.51697   3.51697   3.53934   3.55674   3.55674
 Alpha virt. eigenvalues --    3.55674   3.58588   3.64565   3.64565   3.64565
 Alpha virt. eigenvalues --    3.65937   3.70238   3.70238   3.70238   3.70396
 Alpha virt. eigenvalues --    3.70396   3.74869   3.74869   3.75690   3.75690
 Alpha virt. eigenvalues --    3.75690   3.77430   3.77430   3.77430   3.78023
 Alpha virt. eigenvalues --    3.81543   3.81543   3.81543   3.88783   3.88783
 Alpha virt. eigenvalues --    3.91182   3.91182   3.91182   3.95110   3.95110
 Alpha virt. eigenvalues --    3.95110   3.96007   3.99583   3.99583   3.99583
 Alpha virt. eigenvalues --    4.00385   4.00385   4.00440   4.00440   4.00440
 Alpha virt. eigenvalues --    4.05100   4.05100   4.08132   4.08623   4.08623
 Alpha virt. eigenvalues --    4.08623   4.16086   4.16086   4.16086   4.16907
 Alpha virt. eigenvalues --    4.16907   4.17691   4.17691   4.17691   4.18608
 Alpha virt. eigenvalues --    4.24955   4.24955   4.24955   4.29040   4.29821
 Alpha virt. eigenvalues --    4.30245   4.30245   4.30245   4.33255   4.33255
 Alpha virt. eigenvalues --    4.33255   4.34844   4.34844   4.36420   4.43900
 Alpha virt. eigenvalues --    4.43900   4.43900   4.49549   4.49549   4.50096
 Alpha virt. eigenvalues --    4.50096   4.50096   4.50814   4.50814   4.50814
 Alpha virt. eigenvalues --    4.53345   4.53345   4.53345   4.54225   4.54225
 Alpha virt. eigenvalues --    4.54225   4.60826   4.60826   4.60826   4.65115
 Alpha virt. eigenvalues --    4.65115   4.65115   4.65304   4.65304   4.66212
 Alpha virt. eigenvalues --    4.70375   4.70375   4.75777   4.75777   4.75777
 Alpha virt. eigenvalues --    4.78681   4.78681   4.78681   4.80645   4.80645
 Alpha virt. eigenvalues --    4.80645   4.86821   4.86821   4.86821   4.95900
 Alpha virt. eigenvalues --    4.95900   4.95900   5.00760   5.00760   5.28622
 Alpha virt. eigenvalues --    5.28622   5.28622   5.35925   5.35925   5.35925
 Alpha virt. eigenvalues --    5.50394   5.50394   5.50394   5.53959   5.54464
 Alpha virt. eigenvalues --    5.54464   5.70655   5.70814   5.70814   5.70814
 Alpha virt. eigenvalues --    5.75562   5.75562   5.75562   5.84190   5.84190
 Alpha virt. eigenvalues --    5.84190  24.36060  24.36060  24.36060  24.42173
 Alpha virt. eigenvalues --   24.47243  24.47243  24.47918  24.57734  24.57734
 Alpha virt. eigenvalues --   24.57734
          Condensed to atoms (all electrons):
               1          2          3          4          5          6
     1  C    5.110993  -0.012134  -0.012134  -0.012134   0.185646  -0.006593
     2  C   -0.012134   5.110993  -0.012134  -0.012134   0.185646  -0.006593
     3  C   -0.012134  -0.012134   5.110993  -0.012134  -0.006593   0.185646
     4  C   -0.012134  -0.012134  -0.012134   5.110993  -0.006593   0.185646
     5  C    0.185646   0.185646  -0.006593  -0.006593   5.405861   0.016908
     6  C   -0.006593  -0.006593   0.185646   0.185646   0.016908   5.405861
     7  C    0.185646  -0.006593   0.185646  -0.006593  -0.009491  -0.009491
     8  C   -0.006593   0.185646  -0.006593   0.185646  -0.009491  -0.009491
     9  C    0.185646  -0.006593  -0.006593   0.185646  -0.009491  -0.009491
    10  C   -0.006593   0.185646   0.185646  -0.006593  -0.009491  -0.009491
    11  H    0.449431   0.011745   0.011745   0.011745  -0.034190  -0.003638
    12  H    0.011745   0.449431   0.011745   0.011745  -0.034190  -0.003638
    13  H    0.011745   0.011745   0.449431   0.011745  -0.003638  -0.034190
    14  H    0.011745   0.011745   0.011745   0.449431  -0.003638  -0.034190
    15  H   -0.042758   0.008811  -0.008301  -0.042758  -0.002876   0.009949
    16  H   -0.042758  -0.008301   0.008811  -0.042758   0.009949  -0.002876
    17  H   -0.008301  -0.042758  -0.042758   0.008811   0.009949  -0.002876
    18  H    0.008811  -0.042758  -0.042758  -0.008301  -0.002876   0.009949
    19  H   -0.042758   0.008811  -0.042758  -0.008301  -0.002876   0.009949
    20  H   -0.042758  -0.008301  -0.042758   0.008811   0.009949  -0.002876
    21  H    0.008811  -0.042758  -0.008301  -0.042758  -0.002876   0.009949
    22  H   -0.008301  -0.042758   0.008811  -0.042758   0.009949  -0.002876
    23  H   -0.042758  -0.042758   0.008811  -0.008301   0.448935  -0.002817
    24  H   -0.042758  -0.042758  -0.008301   0.008811   0.448935  -0.002817
    25  H    0.008811  -0.008301  -0.042758  -0.042758  -0.002817   0.448935
    26  H   -0.008301   0.008811  -0.042758  -0.042758  -0.002817   0.448935
               7          8          9         10         11         12
     1  C    0.185646  -0.006593   0.185646  -0.006593   0.449431   0.011745
     2  C   -0.006593   0.185646  -0.006593   0.185646   0.011745   0.449431
     3  C    0.185646  -0.006593  -0.006593   0.185646   0.011745   0.011745
     4  C   -0.006593   0.185646   0.185646  -0.006593   0.011745   0.011745
     5  C   -0.009491  -0.009491  -0.009491  -0.009491  -0.034190  -0.034190
     6  C   -0.009491  -0.009491  -0.009491  -0.009491  -0.003638  -0.003638
     7  C    5.405861   0.016908  -0.009491  -0.009491  -0.034190  -0.003638
     8  C    0.016908   5.405861  -0.009491  -0.009491  -0.003638  -0.034190
     9  C   -0.009491  -0.009491   5.405861   0.016908  -0.034190  -0.003638
    10  C   -0.009491  -0.009491   0.016908   5.405861  -0.003638  -0.034190
    11  H   -0.034190  -0.003638  -0.034190  -0.003638   0.490732  -0.000217
    12  H   -0.003638  -0.034190  -0.003638  -0.034190  -0.000217   0.490732
    13  H   -0.034190  -0.003638  -0.003638  -0.034190  -0.000217  -0.000217
    14  H   -0.003638  -0.034190  -0.034190  -0.003638  -0.000217  -0.000217
    15  H    0.009949  -0.002876   0.448935  -0.002817  -0.005123  -0.000151
    16  H   -0.002876   0.009949   0.448935  -0.002817  -0.005123   0.000100
    17  H    0.009949  -0.002876  -0.002817   0.448935   0.000100  -0.005123
    18  H   -0.002876   0.009949  -0.002817   0.448935  -0.000151  -0.005123
    19  H    0.448935  -0.002817   0.009949  -0.002876  -0.005123  -0.000151
    20  H    0.448935  -0.002817  -0.002876   0.009949  -0.005123   0.000100
    21  H   -0.002817   0.448935  -0.002876   0.009949  -0.000151  -0.005123
    22  H   -0.002817   0.448935   0.009949  -0.002876   0.000100  -0.005123
    23  H   -0.002876   0.009949   0.009949  -0.002876  -0.005123  -0.005123
    24  H    0.009949  -0.002876  -0.002876   0.009949  -0.005123  -0.005123
    25  H   -0.002876   0.009949  -0.002876   0.009949  -0.000151   0.000100
    26  H    0.009949  -0.002876   0.009949  -0.002876   0.000100  -0.000151
              13         14         15         16         17         18
     1  C    0.011745   0.011745  -0.042758  -0.042758  -0.008301   0.008811
     2  C    0.011745   0.011745   0.008811  -0.008301  -0.042758  -0.042758
     3  C    0.449431   0.011745  -0.008301   0.008811  -0.042758  -0.042758
     4  C    0.011745   0.449431  -0.042758  -0.042758   0.008811  -0.008301
     5  C   -0.003638  -0.003638  -0.002876   0.009949   0.009949  -0.002876
     6  C   -0.034190  -0.034190   0.009949  -0.002876  -0.002876   0.009949
     7  C   -0.034190  -0.003638   0.009949  -0.002876   0.009949  -0.002876
     8  C   -0.003638  -0.034190  -0.002876   0.009949  -0.002876   0.009949
     9  C   -0.003638  -0.034190   0.448935   0.448935  -0.002817  -0.002817
    10  C   -0.034190  -0.003638  -0.002817  -0.002817   0.448935   0.448935
    11  H   -0.000217  -0.000217  -0.005123  -0.005123   0.000100  -0.000151
    12  H   -0.000217  -0.000217  -0.000151   0.000100  -0.005123  -0.005123
    13  H    0.490732  -0.000217   0.000100  -0.000151  -0.005123  -0.005123
    14  H   -0.000217   0.490732  -0.005123  -0.005123  -0.000151   0.000100
    15  H    0.000100  -0.005123   0.466776  -0.014173   0.000017   0.000017
    16  H   -0.000151  -0.005123  -0.014173   0.466776   0.000017   0.000017
    17  H   -0.005123  -0.000151   0.000017   0.000017   0.466776  -0.014173
    18  H   -0.005123   0.000100   0.000017   0.000017  -0.014173   0.466776
    19  H   -0.005123   0.000100  -0.000223   0.000048   0.000048  -0.000913
    20  H   -0.005123  -0.000151   0.000048  -0.000913  -0.000223   0.000048
    21  H    0.000100  -0.005123  -0.000913   0.000048   0.000048  -0.000223
    22  H   -0.000151  -0.005123   0.000048  -0.000223  -0.000913   0.000048
    23  H   -0.000151   0.000100   0.000048  -0.000223   0.000048  -0.000913
    24  H    0.000100  -0.000151  -0.000913   0.000048  -0.000223   0.000048
    25  H   -0.005123  -0.005123   0.000048  -0.000913   0.000048  -0.000223
    26  H   -0.005123  -0.005123  -0.000223   0.000048  -0.000913   0.000048
              19         20         21         22         23         24
     1  C   -0.042758  -0.042758   0.008811  -0.008301  -0.042758  -0.042758
     2  C    0.008811  -0.008301  -0.042758  -0.042758  -0.042758  -0.042758
     3  C   -0.042758  -0.042758  -0.008301   0.008811   0.008811  -0.008301
     4  C   -0.008301   0.008811  -0.042758  -0.042758  -0.008301   0.008811
     5  C   -0.002876   0.009949  -0.002876   0.009949   0.448935   0.448935
     6  C    0.009949  -0.002876   0.009949  -0.002876  -0.002817  -0.002817
     7  C    0.448935   0.448935  -0.002817  -0.002817  -0.002876   0.009949
     8  C   -0.002817  -0.002817   0.448935   0.448935   0.009949  -0.002876
     9  C    0.009949  -0.002876  -0.002876   0.009949   0.009949  -0.002876
    10  C   -0.002876   0.009949   0.009949  -0.002876  -0.002876   0.009949
    11  H   -0.005123  -0.005123  -0.000151   0.000100  -0.005123  -0.005123
    12  H   -0.000151   0.000100  -0.005123  -0.005123  -0.005123  -0.005123
    13  H   -0.005123  -0.005123   0.000100  -0.000151  -0.000151   0.000100
    14  H    0.000100  -0.000151  -0.005123  -0.005123   0.000100  -0.000151
    15  H   -0.000223   0.000048  -0.000913   0.000048   0.000048  -0.000913
    16  H    0.000048  -0.000913   0.000048  -0.000223  -0.000223   0.000048
    17  H    0.000048  -0.000223   0.000048  -0.000913   0.000048  -0.000223
    18  H   -0.000913   0.000048  -0.000223   0.000048  -0.000913   0.000048
    19  H    0.466776  -0.014173   0.000017   0.000017  -0.000913   0.000048
    20  H   -0.014173   0.466776   0.000017   0.000017   0.000048  -0.000223
    21  H    0.000017   0.000017   0.466776  -0.014173   0.000048  -0.000913
    22  H    0.000017   0.000017  -0.014173   0.466776  -0.000223   0.000048
    23  H   -0.000913   0.000048   0.000048  -0.000223   0.466776  -0.014173
    24  H    0.000048  -0.000223  -0.000913   0.000048  -0.014173   0.466776
    25  H    0.000048  -0.000913  -0.000223   0.000048   0.000017   0.000017
    26  H   -0.000223   0.000048   0.000048  -0.000913   0.000017   0.000017
              25         26
     1  C    0.008811  -0.008301
     2  C   -0.008301   0.008811
     3  C   -0.042758  -0.042758
     4  C   -0.042758  -0.042758
     5  C   -0.002817  -0.002817
     6  C    0.448935   0.448935
     7  C   -0.002876   0.009949
     8  C    0.009949  -0.002876
     9  C   -0.002876   0.009949
    10  C    0.009949  -0.002876
    11  H   -0.000151   0.000100
    12  H    0.000100  -0.000151
    13  H   -0.005123  -0.005123
    14  H   -0.005123  -0.005123
    15  H    0.000048  -0.000223
    16  H   -0.000913   0.000048
    17  H    0.000048  -0.000913
    18  H   -0.000223   0.000048
    19  H    0.000048  -0.000223
    20  H   -0.000913   0.000048
    21  H   -0.000223   0.000048
    22  H    0.000048  -0.000913
    23  H    0.000017   0.000017
    24  H    0.000017   0.000017
    25  H    0.466776  -0.014173
    26  H   -0.014173   0.466776
 Mulliken charges:
               1
     1  C    0.158599
     2  C    0.158599
     3  C    0.158599
     4  C    0.158599
     5  C   -0.587783
     6  C   -0.587783
     7  C   -0.587783
     8  C   -0.587783
     9  C   -0.587783
    10  C   -0.587783
    11  H    0.169630
    12  H    0.169630
    13  H    0.169630
    14  H    0.169630
    15  H    0.184482
    16  H    0.184482
    17  H    0.184482
    18  H    0.184482
    19  H    0.184482
    20  H    0.184482
    21  H    0.184482
    22  H    0.184482
    23  H    0.184482
    24  H    0.184482
    25  H    0.184482
    26  H    0.184482
 Sum of Mulliken charges =  -0.00000
 Mulliken charges with hydrogens summed into heavy atoms:
               1
     1  C    0.328229
     2  C    0.328229
     3  C    0.328229
     4  C    0.328229
     5  C   -0.218819
     6  C   -0.218819
     7  C   -0.218819
     8  C   -0.218819
     9  C   -0.218819
    10  C   -0.218819
 Electronic spatial extent (au):  <R**2>=           1134.5523
 Charge=              0.0000 electrons
 Dipole moment (field-independent basis, Debye):
    X=              0.0000    Y=             -0.0000    Z=              0.0000  Tot=              0.0000
 Quadrupole moment (field-independent basis, Debye-Ang):
   XX=            -64.1233   YY=            -64.1233   ZZ=            -64.1233
   XY=              0.0000   XZ=             -0.0000   YZ=              0.0000
 Traceless Quadrupole moment (field-independent basis, Debye-Ang):
   XX=             -0.0000   YY=              0.0000   ZZ=              0.0000
   XY=              0.0000   XZ=             -0.0000   YZ=              0.0000
 Octapole moment (field-independent basis, Debye-Ang**2):
  XXX=             -0.0000  YYY=              0.0000  ZZZ=             -0.0000  XYY=              0.0000
  XXY=             -0.0000  XXZ=             -0.0000  XZZ=              0.0000  YZZ=              0.0000
  YYZ=              0.0000  XYZ=             -1.4165
 Hexadecapole moment (field-independent basis, Debye-Ang**3):
 XXXX=           -543.9531 YYYY=           -543.9531 ZZZZ=           -543.9531 XXXY=              0.0000
 XXXZ=             -0.0000 YYYX=             -0.0000 YYYZ=              0.0000 ZZZX=             -0.0000
 ZZZY=             -0.0000 XXYY=           -173.9644 XXZZ=           -173.9644 YYZZ=           -173.9644
 XXYZ=              0.0000 YYXZ=             -0.0000 ZZXY=             -0.0000
 N-N= 5.975067839366D+02 E-N=-2.099936010791D+03  KE= 3.887449067737D+02
 PrsmSu:  requested number of processors reduced to:  43 ShMem   1 Linda.
 No NMR shielding tensors so no spin-rotation constants.
 Leave Link  601 at Fri Apr 16 23:59:33 2021, MaxMem=   104857600 cpu:             680.0 elap:              14.6
 (Enter /s/ls4/users/knvvv/bin/g16sse/l9999.exe)

 Test job not archived.
 1\1\GINC-N146\Stability\RM062X\Gen\C10H16\KNVVV\16-Apr-2021\0\\#P M062
 X/GEN Integral=UltraFineGrid SCF=NoSymm Stable=(RExt, Opt) IOp(1/33=1)
 \\Database calculations.\\0,1\C,0,0.8883,0.8883,0.8883\C,0,-0.8883,-0.
 8883,0.8883\C,0,-0.8883,0.8883,-0.8883\C,0,0.8883,-0.8883,-0.8883\C,0,
 0.,0.,1.773\C,0,0.,0.,-1.773\C,0,0.,1.773,0.\C,0,0.,-1.773,0.\C,0,1.77
 3,0.,0.\C,0,-1.773,0.,0.\H,0,1.5222,1.5222,1.5222\H,0,-1.5222,-1.5222,
 1.5222\H,0,-1.5222,1.5222,-1.5222\H,0,1.5222,-1.5222,-1.5222\H,0,2.423
 1,-0.6263,0.6263\H,0,2.4231,0.6263,-0.6263\H,0,-2.4231,-0.6263,-0.6263
 \H,0,-2.4231,0.6263,0.6263\H,0,-0.6263,2.4231,0.6263\H,0,0.6263,2.4231
 ,-0.6263\H,0,0.6263,-2.4231,0.6263\H,0,-0.6263,-2.4231,-0.6263\H,0,-0.
 6263,0.6263,2.4231\H,0,0.6263,-0.6263,2.4231\H,0,0.6263,0.6263,-2.4231
 \H,0,-0.6263,-0.6263,-2.4231\\Version=ES64L-G16RevA.03\State=1-A1\HF=-
 390.6659132\RMSD=1.536e-09\Dipole=0.,0.,0.\Quadrupole=0.,0.,0.,0.,0.,0
 .\PG=TD [4C3(.C1H1),3C2(C1.C1),6SGD(H2)]\\@


 If your ship doesn't come in, swim out to it!
                          -- Jonathan Winters
 Job cpu time:       2 days  4 hours 57 minutes 22.2 seconds.
 Elapsed time:       0 days  1 hours  9 minutes 36.8 seconds.
 File lengths (MBytes):  RWF=    865 Int=      0 D2E=      0 Chk=     56 Scr=      1
 Normal termination of Gaussian 16 at Fri Apr 16 23:59:33 2021.
