 Entering Gaussian System, Link 0=/s/ls4/users/knvvv/bin/g16sse/g16
 Input=data/database/M062X--def2-QZVPPD--232_s2_W4-11.gjf
 Output=data/database/M062X--def2-QZVPPD--232_s2_W4-11.log
 Initial command:
 /s/ls4/users/knvvv/bin/g16sse/l1.exe "/s/ls4/users/knvvv/bin/scratch/Gau-22003.inp" -scrdir="/s/ls4/users/knvvv/bin/scratch/"
 Entering Link 1 = /s/ls4/users/knvvv/bin/g16sse/l1.exe PID=     22004.
  
 Copyright (c) 1988,1990,1992,1993,1995,1998,2003,2009,2016,
            Gaussian, Inc.  All Rights Reserved.
  
 This is part of the Gaussian(R) 16 program.  It is based on
 the Gaussian(R) 09 system (copyright 2009, Gaussian, Inc.),
 the Gaussian(R) 03 system (copyright 2003, Gaussian, Inc.),
 the Gaussian(R) 98 system (copyright 1998, Gaussian, Inc.),
 the Gaussian(R) 94 system (copyright 1995, Gaussian, Inc.),
 the Gaussian 92(TM) system (copyright 1992, Gaussian, Inc.),
 the Gaussian 90(TM) system (copyright 1990, Gaussian, Inc.),
 the Gaussian 88(TM) system (copyright 1988, Gaussian, Inc.),
 the Gaussian 86(TM) system (copyright 1986, Carnegie Mellon
 University), and the Gaussian 82(TM) system (copyright 1983,
 Carnegie Mellon University). Gaussian is a federally registered
 trademark of Gaussian, Inc.
  
 This software contains proprietary and confidential information,
 including trade secrets, belonging to Gaussian, Inc.
  
 This software is provided under written license and may be
 used, copied, transmitted, or stored only in accord with that
 written license.
  
 The following legend is applicable only to US Government
 contracts under FAR:
  
                    RESTRICTED RIGHTS LEGEND
  
 Use, reproduction and disclosure by the US Government is
 subject to restrictions as set forth in subparagraphs (a)
 and (c) of the Commercial Computer Software - Restricted
 Rights clause in FAR 52.227-19.
  
 Gaussian, Inc.
 340 Quinnipiac St., Bldg. 40, Wallingford CT 06492
  
  
 ---------------------------------------------------------------
 Warning -- This program may not be used in any manner that
 competes with the business of Gaussian, Inc. or will provide
 assistance to any competitor of Gaussian, Inc.  The licensee
 of this program is prohibited from giving any competitor of
 Gaussian, Inc. access to this program.  By using this program,
 the user acknowledges that Gaussian, Inc. is engaged in the
 business of creating and licensing software in the field of
 computational chemistry and represents and warrants to the
 licensee that it is not a competitor of Gaussian, Inc. and that
 it will not use this program in any manner prohibited above.
 ---------------------------------------------------------------
  

 Cite this work as:
 Gaussian 16, Revision A.03,
 M. J. Frisch, G. W. Trucks, H. B. Schlegel, G. E. Scuseria, 
 M. A. Robb, J. R. Cheeseman, G. Scalmani, V. Barone, 
 G. A. Petersson, H. Nakatsuji, X. Li, M. Caricato, A. V. Marenich, 
 J. Bloino, B. G. Janesko, R. Gomperts, B. Mennucci, H. P. Hratchian, 
 J. V. Ortiz, A. F. Izmaylov, J. L. Sonnenberg, D. Williams-Young, 
 F. Ding, F. Lipparini, F. Egidi, J. Goings, B. Peng, A. Petrone, 
 T. Henderson, D. Ranasinghe, V. G. Zakrzewski, J. Gao, N. Rega, 
 G. Zheng, W. Liang, M. Hada, M. Ehara, K. Toyota, R. Fukuda, 
 J. Hasegawa, M. Ishida, T. Nakajima, Y. Honda, O. Kitao, H. Nakai, 
 T. Vreven, K. Throssell, J. A. Montgomery, Jr., J. E. Peralta, 
 F. Ogliaro, M. J. Bearpark, J. J. Heyd, E. N. Brothers, K. N. Kudin, 
 V. N. Staroverov, T. A. Keith, R. Kobayashi, J. Normand, 
 K. Raghavachari, A. P. Rendell, J. C. Burant, S. S. Iyengar, 
 J. Tomasi, M. Cossi, J. M. Millam, M. Klene, C. Adamo, R. Cammi, 
 J. W. Ochterski, R. L. Martin, K. Morokuma, O. Farkas, 
 J. B. Foresman, and D. J. Fox, Gaussian, Inc., Wallingford CT, 2016.
 
 ******************************************
 Gaussian 16:  ES64L-G16RevA.03 25-Dec-2016
                17-Apr-2021 
 ******************************************
 %RWF=temp7_64895,70GB
 %nprocshared=48
 Will use up to   48 processors via shared memory.
 Default route: MaxDisk=80GB
 ----------------------------------------------------------------------
 #P M062X/GEN Integral=UltraFineGrid SCF=NoSymm Stable=(RExt, Opt) IOp(
 1/33=1)
 ----------------------------------------------------------------------
 1/33=1,38=1,172=1/1;
 2/12=2,17=6,18=5,40=1/2;
 3/5=7,11=2,25=1,30=1,74=-55,75=-5/1,2,3;
 4/9=2/1;
 5/5=2,38=5/2;
 6/7=2,8=2,9=2,10=2,28=1/1;
 8/6=1,10=90,11=11/1;
 9/8=-3,42=1,46=1/14;
 5/5=2,8=3,17=40,38=5/8(-2);
 6/7=2,8=2,9=2,10=2,28=1/1;
 99/5=1,9=1/99;
 Leave Link    1 at Sat Apr 17 20:31:05 2021, MaxMem=           0 cpu:               8.2 elap:               0.2
 (Enter /s/ls4/users/knvvv/bin/g16sse/l101.exe)
 ONIOM data not found on unit 2.
 ----------------------
 Database calculations.
 ----------------------
 TstMul:  ICh=     0
 TstMul:  Mul=     3
 TstMul:  ICh=     0
 TstMul:  Mul=     3
 Symbolic Z-matrix:
 Charge =  0 Multiplicity = 3
 S                     0.        0.        0. 
 S                     0.        0.        1.89688 
 
 RdStrC is calling ZToCFu for IStruc=1 NZ=     2.
 PrtBox:  NBox=     1 Levels=  1 BoxLen=    8.00 SMaxX=        3.58
          Shift=            0.000000            0.000000            0.000000
 Box      1 Number                   0 centers from      1 to      2:
 After GenITR:
 ITRead=  0  0
 MicOpt= -1 -1
 ITRead=  0  0
 MicOpt= -1 -1
 NAtoms=      2 NQM=        2 NQMF=       0 NMMI=      0 NMMIF=      0
                NMic=       0 NMicF=      0.
                    Isotopes and Nuclear Properties:
 (Nuclear quadrupole moments (NQMom) in fm**2, nuclear magnetic moments (NMagM)
  in nuclear magnetons)

  Atom         1           2
 IAtWgt=          32          32
 AtmWgt=  31.9720718  31.9720718
 NucSpn=           0           0
 AtZEff=  -0.0000000  -0.0000000
 NQMom=    0.0000000   0.0000000
 NMagM=    0.0000000   0.0000000
 AtZNuc=  16.0000000  16.0000000
 No MM parameters found.
 Leave Link  101 at Sat Apr 17 20:31:06 2021, MaxMem=   104857600 cpu:               6.9 elap:               0.2
 (Enter /s/ls4/users/knvvv/bin/g16sse/l202.exe)
                          Input orientation:                          
 ---------------------------------------------------------------------
 Center     Atomic      Atomic             Coordinates (Angstroms)
 Number     Number       Type             X           Y           Z
 ---------------------------------------------------------------------
      1         16           0        0.000000    0.000000    0.000000
      2         16           0        0.000000    0.000000    1.896885
 ---------------------------------------------------------------------
 Stoichiometry    S2(3)
 Framework group  D*H[C*(S.S)]
 Deg. of freedom     1
 Full point group                 D*H     NOp   8
 Largest Abelian subgroup         D2H     NOp   8
 Largest concise Abelian subgroup C2      NOp   2
                         Standard orientation:                         
 ---------------------------------------------------------------------
 Center     Atomic      Atomic             Coordinates (Angstroms)
 Number     Number       Type             X           Y           Z
 ---------------------------------------------------------------------
      1         16           0        0.000000    0.000000    0.948442
      2         16           0        0.000000    0.000000   -0.948442
 ---------------------------------------------------------------------
 Rotational constants (GHZ):           0.0000000           8.7860688           8.7860688
 Leave Link  202 at Sat Apr 17 20:31:06 2021, MaxMem=   104857600 cpu:              11.7 elap:               0.3
 (Enter /s/ls4/users/knvvv/bin/g16sse/l301.exe)
 General basis read from cards:  (5D, 7F)
 Centers:       1      2
 S 10 1.00
     Exponent=  1.2734109023D+06 Coefficients=  1.1767088246D-05
     Exponent=  1.9069783007D+05 Coefficients=  9.1478610166D-05
     Exponent=  4.3397885330D+04 Coefficients=  4.8090078640D-04
     Exponent=  1.2291809677D+04 Coefficients=  2.0257193592D-03
     Exponent=  4.0097420824D+03 Coefficients=  7.3190096406D-03
     Exponent=  1.4473531030D+03 Coefficients=  2.3300499900D-02
     Exponent=  5.6430102913D+02 Coefficients=  6.5386213610D-02
     Exponent=  2.3374506243D+02 Coefficients=  1.5614449910D-01
     Exponent=  1.0156402814D+02 Coefficients=  2.9318563787D-01
     Exponent=  4.5805907187D+01 Coefficients=  3.6287914289D-01
 S 3 1.00
     Exponent=  3.9427281503D+02 Coefficients=  1.8753305081D-02
     Exponent=  1.2172249591D+02 Coefficients=  1.6870726663D-01
     Exponent=  4.6754125963D+01 Coefficients=  6.3806830653D-01
 S 1 1.00
     Exponent=  2.0923008254D+01 Coefficients=  1.0000000000D+00
 S 1 1.00
     Exponent=  8.2685567800D+00 Coefficients=  1.0000000000D+00
 S 1 1.00
     Exponent=  3.8629345671D+00 Coefficients=  1.0000000000D+00
 S 1 1.00
     Exponent=  1.7794684781D+00 Coefficients=  1.0000000000D+00
 S 1 1.00
     Exponent=  6.1064260103D-01 Coefficients=  1.0000000000D+00
 S 1 1.00
     Exponent=  2.7412269445D-01 Coefficients=  1.0000000000D+00
 S 1 1.00
     Exponent=  1.1325939107D-01 Coefficients=  1.0000000000D+00
 S 1 1.00
     Exponent=  4.4392624881D-02 Coefficients=  1.0000000000D+00
 P 8 1.00
     Exponent=  2.1898930459D+03 Coefficients=  2.3912552864D-04
     Exponent=  5.1894596592D+02 Coefficients=  2.0772032158D-03
     Exponent=  1.6819560151D+02 Coefficients=  1.1242420571D-02
     Exponent=  6.3745282788D+01 Coefficients=  4.4069933941D-02
     Exponent=  2.6597033077D+01 Coefficients=  1.2918778608D-01
     Exponent=  1.1774251449D+01 Coefficients=  2.6910820167D-01
     Exponent=  5.3534379024D+00 Coefficients=  3.7855928620D-01
     Exponent=  2.4701911802D+00 Coefficients=  2.9692134655D-01
 P 2 1.00
     Exponent=  8.2120288349D+01 Coefficients= -3.9420318847D-02
     Exponent=  4.9523532869D+00 Coefficients=  6.4048403090D-01
 P 1 1.00
     Exponent=  1.0828262029D+00 Coefficients=  1.0000000000D+00
 P 1 1.00
     Exponent=  4.9271277356D-01 Coefficients=  1.0000000000D+00
 P 1 1.00
     Exponent=  2.0483450942D-01 Coefficients=  1.0000000000D+00
 P 1 1.00
     Exponent=  8.0743615716D-02 Coefficients=  1.0000000000D+00
 P 1 1.00
     Exponent=  2.5661157833D-02 Coefficients=  1.0000000000D+00
 D 1 1.00
     Exponent=  4.1590000000D+00 Coefficients=  1.0000000000D+00
 D 1 1.00
     Exponent=  1.0190000000D+00 Coefficients=  1.0000000000D+00
 D 1 1.00
     Exponent=  4.6400000000D-01 Coefficients=  1.0000000000D+00
 D 1 1.00
     Exponent=  1.9400000000D-01 Coefficients=  1.0000000000D+00
 D 1 1.00
     Exponent=  6.7889829366D-02 Coefficients=  1.0000000000D+00
 F 1 1.00
     Exponent=  8.6900000000D-01 Coefficients=  1.0000000000D+00
 F 1 1.00
     Exponent=  3.3500000000D-01 Coefficients=  1.0000000000D+00
 G 1 1.00
     Exponent=  6.8300000000D-01 Coefficients=  1.0000000000D+00
 ****
 Ernie: Thresh=  0.10000D-02 Tol=  0.10000D-05 Strict=F.
 There are    44 symmetry adapted cartesian basis functions of AG  symmetry.
 There are    10 symmetry adapted cartesian basis functions of B1G symmetry.
 There are    21 symmetry adapted cartesian basis functions of B2G symmetry.
 There are    21 symmetry adapted cartesian basis functions of B3G symmetry.
 There are    10 symmetry adapted cartesian basis functions of AU  symmetry.
 There are    44 symmetry adapted cartesian basis functions of B1U symmetry.
 There are    21 symmetry adapted cartesian basis functions of B2U symmetry.
 There are    21 symmetry adapted cartesian basis functions of B3U symmetry.
 There are    34 symmetry adapted basis functions of AG  symmetry.
 There are     9 symmetry adapted basis functions of B1G symmetry.
 There are    18 symmetry adapted basis functions of B2G symmetry.
 There are    18 symmetry adapted basis functions of B3G symmetry.
 There are     9 symmetry adapted basis functions of AU  symmetry.
 There are    34 symmetry adapted basis functions of B1U symmetry.
 There are    18 symmetry adapted basis functions of B2U symmetry.
 There are    18 symmetry adapted basis functions of B3U symmetry.
   158 basis functions,   262 primitive gaussians,   192 cartesian basis functions
    17 alpha electrons       15 beta electrons
       nuclear repulsion energy        71.4167676356 Hartrees.
 IExCor= 4336 DFT=T Ex+Corr=M062X ExCW=0 ScaHFX=  0.540000
 ScaDFX=  1.000000  1.000000  1.000000  1.000000 ScalE2=  1.000000  1.000000
 IRadAn=      5 IRanWt=     -1 IRanGd=            0 ICorTp=0 IEmpDi=  4
 NAtoms=    2 NActive=    2 NUniq=    1 SFac= 4.00D+00 NAtFMM=   60 NAOKFM=F Big=F
 Integral buffers will be    131072 words long.
 Raffenetti 2 integral format.
 Two-electron integral symmetry is turned on.
 Leave Link  301 at Sat Apr 17 20:31:06 2021, MaxMem=   104857600 cpu:               6.9 elap:               0.2
 (Enter /s/ls4/users/knvvv/bin/g16sse/l302.exe)
 NPDir=0 NMtPBC=     1 NCelOv=     1 NCel=       1 NClECP=     1 NCelD=      1
         NCelK=      1 NCelE2=     1 NClLst=     1 CellRange=     0.0.
 One-electron integrals computed using PRISM.
 One-electron integral symmetry used in STVInt
 PrsmSu:  requested number of processors reduced to:   4 ShMem   1 Linda.
 PrsmSu:  requested number of processors reduced to:  21 ShMem   1 Linda.
 NBasis=   158 RedAO= T EigKep=  8.76D-05  NBF=    34     9    18    18     9    34    18    18
 NBsUse=   158 1.00D-06 EigRej= -1.00D+00 NBFU=    34     9    18    18     9    34    18    18
 Precomputing XC quadrature grid using
 IXCGrd= 4 IRadAn=           5 IRanWt=          -1 IRanGd=           0 AccXCQ= 0.00D+00.
 Generated NRdTot=       0 NPtTot=           0 NUsed=           0 NTot=          32
 NSgBfM=   188   188   188   188   188 MxSgAt=     2 MxSgA2=     2.
 Leave Link  302 at Sat Apr 17 20:31:14 2021, MaxMem=   104857600 cpu:             381.7 elap:               8.2
 (Enter /s/ls4/users/knvvv/bin/g16sse/l303.exe)
 DipDrv:  MaxL=1.
 Leave Link  303 at Sat Apr 17 20:31:15 2021, MaxMem=   104857600 cpu:              27.9 elap:               0.6
 (Enter /s/ls4/users/knvvv/bin/g16sse/l401.exe)
 SCF N**3 symmetry information disabled.
 ExpMin= 2.57D-02 ExpMax= 1.27D+06 ExpMxC= 1.45D+03 IAcc=3 IRadAn=         5 AccDes= 0.00D+00
 Harris functional with IExCor= 1009 and IRadAn=       5 diagonalized for initial guess.
 HarFok:  IExCor= 1009 AccDes= 0.00D+00 IRadAn=         5 IDoV= 1 UseB2=F ITyADJ=14
 ICtDFT=  3500011 ScaDFX=  1.000000  1.000000  1.000000  1.000000
 FoFCou: FMM=F IPFlag=           0 FMFlag=      100000 FMFlg1=           0
         NFxFlg=           0 DoJE=T BraDBF=F KetDBF=T FulRan=T
         wScrn=  0.000000 ICntrl=       500 IOpCl=  0 I1Cent=   200000004 NGrid=           0
         NMat0=    1 NMatS0=      1 NMatT0=    0 NMatD0=    1 NMtDS0=    0 NMtDT0=    0
 Petite list used in FoFCou.
 CoulSu:  requested number of processors reduced to:  21 ShMem   1 Linda.
 CoulSu:  requested number of processors reduced to:  21 ShMem   1 Linda.
 CoulSu:  requested number of processors reduced to:  21 ShMem   1 Linda.
 CoulSu:  requested number of processors reduced to:  21 ShMem   1 Linda.
 Harris En= -795.975433424124    
 JPrj=0 DoOrth=F DoCkMO=F.
 Initial guess orbital symmetries:
 Alpha Orbitals:
       Occupied  (SGU) (SGG) (SGG) (SGU) (SGG) (SGU) (PIU) (PIU)
                 (PIG) (PIG) (SGG) (SGU) (SGG) (PIU) (PIU) (PIG)
                 (PIG)
       Virtual   (SGU) (SGG) (PIU) (PIU) (SGU) (SGG) (PIG) (PIG)
                 (DLTG) (DLTG) (PIU) (PIU) (SGU) (SGG) (DLTU) (DLTU)
                 (SGU) (PIG) (PIG) (PIU) (PIU) (SGG) (PIU) (PIU)
                 (DLTG) (DLTG) (SGU) (PIG) (PIG) (SGG) (DLTU) (DLTU)
                 (SGG) (PIG) (PIG) (SGU) (SGU) (DLTG) (DLTG) (PHIU)
                 (PHIU) (PIU) (PIU) (SGG) (PIU) (PIU) (DLTG) (DLTG)
                 (SGG) (PIG) (PIG) (DLTU) (DLTU) (PHIG) (PHIG)
                 (SGU) (PIG) (PIG) (SGU) (PIU) (PIU) (DLTU) (DLTU)
                 (SGU) (SGG) (PIG) (PIG) (SGG) (SGU) (DLTG) (DLTG)
                 (PIU) (PIU) (SGG) (DLTU) (DLTU) (PHIU) (PHIU)
                 (DLTG) (DLTG) (PIU) (PIU) (PIG) (PIG) (?A) (?A)
                 (?B) (?B) (SGG) (PHIU) (PHIU) (PHIG) (PHIG) (DLTG)
                 (DLTG) (PHIG) (PHIG) (SGU) (DLTU) (DLTU) (PIG)
                 (PIG) (SGU) (PIU) (PIU) (SGG) (SGU) (PIG) (PIG)
                 (DLTU) (DLTU) (PIU) (PIU) (SGG) (PIG) (PIG) (SGU)
                 (SGG) (SGU) (DLTG) (DLTG) (DLTU) (DLTU) (PIU)
                 (PIU) (PIG) (PIG) (SGG) (SGU) (SGG) (SGU) (PIU)
                 (PIU) (PIG) (PIG) (SGG) (SGU) (SGG) (SGU) (SGG)
                 (SGU)
 Beta  Orbitals:
       Occupied  (SGU) (SGG) (SGG) (SGU) (SGG) (SGU) (PIU) (PIU)
                 (PIG) (PIG) (SGG) (SGU) (SGG) (PIU) (PIU)
       Virtual   (PIG) (PIG) (SGU) (SGG) (PIU) (PIU) (SGU) (SGG)
                 (PIG) (PIG) (DLTG) (DLTG) (PIU) (PIU) (SGU) (SGG)
                 (DLTU) (DLTU) (SGU) (PIG) (PIG) (PIU) (PIU) (SGG)
                 (PIU) (PIU) (DLTG) (DLTG) (SGU) (PIG) (PIG) (SGG)
                 (DLTU) (DLTU) (SGG) (PIG) (PIG) (SGU) (SGU) (DLTG)
                 (DLTG) (PHIU) (PHIU) (PIU) (PIU) (SGG) (PIU) (PIU)
                 (DLTG) (DLTG) (SGG) (PIG) (PIG) (DLTU) (DLTU)
                 (PHIG) (PHIG) (SGU) (PIG) (PIG) (SGU) (PIU) (PIU)
                 (DLTU) (DLTU) (SGU) (SGG) (PIG) (PIG) (SGG) (SGU)
                 (DLTG) (DLTG) (PIU) (PIU) (SGG) (DLTU) (DLTU)
                 (PHIU) (PHIU) (DLTG) (DLTG) (PIU) (PIU) (PIG)
                 (PIG) (?A) (?A) (?B) (?B) (SGG) (PHIU) (PHIU)
                 (PHIG) (PHIG) (DLTG) (DLTG) (PHIG) (PHIG) (SGU)
                 (DLTU) (DLTU) (PIG) (PIG) (SGU) (PIU) (PIU) (SGG)
                 (SGU) (PIG) (PIG) (DLTU) (DLTU) (PIU) (PIU) (SGG)
                 (PIG) (PIG) (SGU) (SGG) (SGU) (DLTG) (DLTG) (DLTU)
                 (DLTU) (PIU) (PIU) (PIG) (PIG) (SGG) (SGU) (SGG)
                 (SGU) (PIU) (PIU) (PIG) (PIG) (SGG) (SGU) (SGG)
                 (SGU) (SGG) (SGU)
 The electronic state of the initial guess is 3-SGG.
 Initial guess <Sx>= 0.0000 <Sy>= 0.0000 <Sz>= 1.0000 <S**2>= 2.0000 S= 1.0000
 Leave Link  401 at Sat Apr 17 20:31:19 2021, MaxMem=   104857600 cpu:             161.1 elap:               3.6
 (Enter /s/ls4/users/knvvv/bin/g16sse/l502.exe)
 Integral symmetry usage will be decided dynamically.
 UHF open shell SCF:
 Using DIIS extrapolation, IDIIS=  1040.
 NGot=   104857600 LenX=   104770274 LenY=   104732969
 Requested convergence on RMS density matrix=1.00D-08 within 128 cycles.
 Requested convergence on MAX density matrix=1.00D-06.
 Requested convergence on             energy=1.00D-06.
 No special actions if energy rises.
 Fock matrices will be formed incrementally for  20 cycles.

 Cycle   1  Pass 1  IDiag  1:
 FoFJK:  IHMeth= 1 ICntrl=       0 DoSepK=F KAlg= 0 I1Cent=           0 FoldK=F
 IRaf= 980000000 NMat=       1 IRICut=       1 DoRegI=T DoRafI=F ISym2E= 1 IDoP0=0 IntGTp=1.
 FoFCou: FMM=F IPFlag=           0 FMFlag=      100000 FMFlg1=           0
         NFxFlg=           0 DoJE=F BraDBF=F KetDBF=F FulRan=T
         wScrn=  0.000000 ICntrl=         0 IOpCl=  1 I1Cent=           0 NGrid=           0
         NMat0=    1 NMatS0=      1 NMatT0=    0 NMatD0=    1 NMtDS0=    0 NMtDT0=    0
 Petite list used in FoFCou.
 CoulSu:  requested number of processors reduced to:  20 ShMem   1 Linda.
 E= -796.367469779159    
 DIIS: error= 5.06D-02 at cycle   1 NSaved=   1.
 NSaved= 1 IEnMin= 1 EnMin= -796.367469779159     IErMin= 1 ErrMin= 5.06D-02
 ErrMax= 5.06D-02  0.00D+00 EMaxC= 1.00D-01 BMatC= 5.10D-01 BMatP= 5.10D-01
 IDIUse=3 WtCom= 4.94D-01 WtEn= 5.06D-01
 Coeff-Com:  0.100D+01
 Coeff-En:   0.100D+01
 Coeff:      0.100D+01
 Gap=     0.312 Goal=   None    Shift=    0.000
 Gap=     0.274 Goal=   None    Shift=    0.000
 GapD=    0.274 DampG=1.000 DampE=0.500 DampFc=0.5000 IDamp=-1.
 Damping current iteration by 5.00D-01
 RMSDP=2.07D-03 MaxDP=1.43D-01              OVMax= 3.64D-02

 Cycle   2  Pass 1  IDiag  1:
 RMSU=  1.04D-03    CP:  9.98D-01
 CoulSu:  requested number of processors reduced to:  20 ShMem   1 Linda.
 E= -796.375113070023     Delta-E=       -0.007643290864 Rises=F Damp=T
 DIIS: error= 2.60D-02 at cycle   2 NSaved=   2.
 NSaved= 2 IEnMin= 2 EnMin= -796.375113070023     IErMin= 2 ErrMin= 2.60D-02
 ErrMax= 2.60D-02  0.00D+00 EMaxC= 1.00D-01 BMatC= 1.07D-01 BMatP= 5.10D-01
 IDIUse=3 WtCom= 7.40D-01 WtEn= 2.60D-01
 Coeff-Com: -0.754D+00 0.175D+01
 Coeff-En:   0.000D+00 0.100D+01
 Coeff:     -0.558D+00 0.156D+01
 Gap=     0.298 Goal=   None    Shift=    0.000
 Gap=     0.276 Goal=   None    Shift=    0.000
 RMSDP=9.60D-04 MaxDP=6.71D-02 DE=-7.64D-03 OVMax= 1.17D-02

 Cycle   3  Pass 1  IDiag  1:
 RMSU=  1.81D-04    CP:  9.94D-01  1.91D+00
 CoulSu:  requested number of processors reduced to:  20 ShMem   1 Linda.
 E= -796.382772368838     Delta-E=       -0.007659298815 Rises=F Damp=F
 DIIS: error= 6.66D-04 at cycle   3 NSaved=   3.
 NSaved= 3 IEnMin= 3 EnMin= -796.382772368838     IErMin= 3 ErrMin= 6.66D-04
 ErrMax= 6.66D-04  0.00D+00 EMaxC= 1.00D-01 BMatC= 1.97D-04 BMatP= 1.07D-01
 IDIUse=3 WtCom= 9.93D-01 WtEn= 6.66D-03
 Coeff-Com: -0.397D-01 0.723D-01 0.967D+00
 Coeff-En:   0.000D+00 0.000D+00 0.100D+01
 Coeff:     -0.394D-01 0.718D-01 0.968D+00
 Gap=     0.300 Goal=   None    Shift=    0.000
 Gap=     0.276 Goal=   None    Shift=    0.000
 RMSDP=5.66D-05 MaxDP=1.81D-03 DE=-7.66D-03 OVMax= 3.44D-03

 Cycle   4  Pass 1  IDiag  1:
 RMSU=  5.47D-05    CP:  9.94D-01  1.92D+00  1.06D+00
 CoulSu:  requested number of processors reduced to:  20 ShMem   1 Linda.
 E= -796.382843444779     Delta-E=       -0.000071075941 Rises=F Damp=F
 DIIS: error= 1.99D-04 at cycle   4 NSaved=   4.
 NSaved= 4 IEnMin= 4 EnMin= -796.382843444779     IErMin= 4 ErrMin= 1.99D-04
 ErrMax= 1.99D-04  0.00D+00 EMaxC= 1.00D-01 BMatC= 1.38D-05 BMatP= 1.97D-04
 IDIUse=3 WtCom= 9.98D-01 WtEn= 1.99D-03
 Coeff-Com:  0.204D-01-0.415D-01-0.190D+00 0.121D+01
 Coeff-En:   0.000D+00 0.000D+00 0.000D+00 0.100D+01
 Coeff:      0.204D-01-0.414D-01-0.189D+00 0.121D+01
 Gap=     0.300 Goal=   None    Shift=    0.000
 Gap=     0.277 Goal=   None    Shift=    0.000
 RMSDP=2.75D-05 MaxDP=1.42D-03 DE=-7.11D-05 OVMax= 1.53D-03

 Cycle   5  Pass 1  IDiag  1:
 RMSU=  1.30D-05    CP:  9.94D-01  1.90D+00  1.12D+00  1.32D+00
 CoulSu:  requested number of processors reduced to:  20 ShMem   1 Linda.
 E= -796.382850097483     Delta-E=       -0.000006652704 Rises=F Damp=F
 DIIS: error= 4.30D-05 at cycle   5 NSaved=   5.
 NSaved= 5 IEnMin= 5 EnMin= -796.382850097483     IErMin= 5 ErrMin= 4.30D-05
 ErrMax= 4.30D-05  0.00D+00 EMaxC= 1.00D-01 BMatC= 7.70D-07 BMatP= 1.38D-05
 IDIUse=1 WtCom= 1.00D+00 WtEn= 0.00D+00
 Coeff-Com:  0.220D-02-0.427D-02-0.745D-01 0.161D+00 0.916D+00
 Coeff:      0.220D-02-0.427D-02-0.745D-01 0.161D+00 0.916D+00
 Gap=     0.300 Goal=   None    Shift=    0.000
 Gap=     0.277 Goal=   None    Shift=    0.000
 RMSDP=4.17D-06 MaxDP=1.48D-04 DE=-6.65D-06 OVMax= 2.21D-04

 Cycle   6  Pass 1  IDiag  1:
 RMSU=  1.69D-06    CP:  9.94D-01  1.90D+00  1.12D+00  1.39D+00  9.91D-01
 CoulSu:  requested number of processors reduced to:  20 ShMem   1 Linda.
 E= -796.382850329592     Delta-E=       -0.000000232109 Rises=F Damp=F
 DIIS: error= 1.58D-05 at cycle   6 NSaved=   6.
 NSaved= 6 IEnMin= 6 EnMin= -796.382850329592     IErMin= 6 ErrMin= 1.58D-05
 ErrMax= 1.58D-05  0.00D+00 EMaxC= 1.00D-01 BMatC= 5.17D-08 BMatP= 7.70D-07
 IDIUse=1 WtCom= 1.00D+00 WtEn= 0.00D+00
 Coeff-Com:  0.901D-03-0.173D-02-0.261D-01 0.524D-01 0.317D+00 0.657D+00
 Coeff:      0.901D-03-0.173D-02-0.261D-01 0.524D-01 0.317D+00 0.657D+00
 Gap=     0.300 Goal=   None    Shift=    0.000
 Gap=     0.277 Goal=   None    Shift=    0.000
 RMSDP=5.59D-07 MaxDP=2.14D-05 DE=-2.32D-07 OVMax= 3.52D-05

 Cycle   7  Pass 1  IDiag  1:
 RMSU=  3.36D-07    CP:  9.94D-01  1.90D+00  1.12D+00  1.39D+00  1.01D+00
                    CP:  9.39D-01
 CoulSu:  requested number of processors reduced to:  20 ShMem   1 Linda.
 E= -796.382850339074     Delta-E=       -0.000000009482 Rises=F Damp=F
 DIIS: error= 2.73D-06 at cycle   7 NSaved=   7.
 NSaved= 7 IEnMin= 7 EnMin= -796.382850339074     IErMin= 7 ErrMin= 2.73D-06
 ErrMax= 2.73D-06  0.00D+00 EMaxC= 1.00D-01 BMatC= 1.51D-09 BMatP= 5.17D-08
 IDIUse=1 WtCom= 1.00D+00 WtEn= 0.00D+00
 Coeff-Com: -0.770D-04 0.149D-03 0.316D-02-0.988D-02-0.365D-01 0.985D-01
 Coeff-Com:  0.945D+00
 Coeff:     -0.770D-04 0.149D-03 0.316D-02-0.988D-02-0.365D-01 0.985D-01
 Coeff:      0.945D+00
 Gap=     0.300 Goal=   None    Shift=    0.000
 Gap=     0.277 Goal=   None    Shift=    0.000
 RMSDP=2.78D-07 MaxDP=1.51D-05 DE=-9.48D-09 OVMax= 1.10D-05

 Cycle   8  Pass 1  IDiag  1:
 RMSU=  1.07D-07    CP:  9.94D-01  1.90D+00  1.12D+00  1.39D+00  1.02D+00
                    CP:  1.02D+00  1.10D+00
 CoulSu:  requested number of processors reduced to:  20 ShMem   1 Linda.
 E= -796.382850339550     Delta-E=       -0.000000000476 Rises=F Damp=F
 DIIS: error= 3.23D-07 at cycle   8 NSaved=   8.
 NSaved= 8 IEnMin= 8 EnMin= -796.382850339550     IErMin= 8 ErrMin= 3.23D-07
 ErrMax= 3.23D-07  0.00D+00 EMaxC= 1.00D-01 BMatC= 2.94D-11 BMatP= 1.51D-09
 IDIUse=1 WtCom= 1.00D+00 WtEn= 0.00D+00
 Coeff-Com: -0.707D-05 0.147D-04-0.172D-03 0.109D-02-0.204D-03-0.356D-01
 Coeff-Com: -0.112D+00 0.115D+01
 Coeff:     -0.707D-05 0.147D-04-0.172D-03 0.109D-02-0.204D-03-0.356D-01
 Coeff:     -0.112D+00 0.115D+01
 Gap=     0.300 Goal=   None    Shift=    0.000
 Gap=     0.277 Goal=   None    Shift=    0.000
 RMSDP=3.87D-08 MaxDP=1.47D-06 DE=-4.76D-10 OVMax= 1.72D-06

 Cycle   9  Pass 1  IDiag  1:
 RMSU=  7.57D-09    CP:  9.94D-01  1.90D+00  1.12D+00  1.39D+00  1.02D+00
                    CP:  1.03D+00  1.15D+00  1.20D+00
 CoulSu:  requested number of processors reduced to:  20 ShMem   1 Linda.
 E= -796.382850339559     Delta-E=       -0.000000000009 Rises=F Damp=F
 DIIS: error= 3.44D-08 at cycle   9 NSaved=   9.
 NSaved= 9 IEnMin= 9 EnMin= -796.382850339559     IErMin= 9 ErrMin= 3.44D-08
 ErrMax= 3.44D-08  0.00D+00 EMaxC= 1.00D-01 BMatC= 1.62D-13 BMatP= 2.94D-11
 IDIUse=1 WtCom= 1.00D+00 WtEn= 0.00D+00
 Coeff-Com:  0.310D-05-0.621D-05-0.672D-05-0.695D-04 0.436D-03 0.533D-02
 Coeff-Com:  0.969D-02-0.204D+00 0.119D+01
 Coeff:      0.310D-05-0.621D-05-0.672D-05-0.695D-04 0.436D-03 0.533D-02
 Coeff:      0.969D-02-0.204D+00 0.119D+01
 Gap=     0.300 Goal=   None    Shift=    0.000
 Gap=     0.277 Goal=   None    Shift=    0.000
 RMSDP=3.33D-09 MaxDP=1.00D-07 DE=-8.98D-12 OVMax= 2.54D-07

 SCF Done:  E(UM062X) =  -796.382850340     A.U. after    9 cycles
            NFock=  9  Conv=0.33D-08     -V/T= 2.0014
 <Sx>= 0.0000 <Sy>= 0.0000 <Sz>= 1.0000 <S**2>= 2.0127 S= 1.0042
 <L.S>= 0.000000000000E+00
 KE= 7.952410300969D+02 PE=-2.037052081982D+03 EE= 3.740114339101D+02
 Annihilation of the first spin contaminant:
 S**2 before annihilation     2.0127,   after     2.0001
 Leave Link  502 at Sat Apr 17 20:34:45 2021, MaxMem=   104857600 cpu:            9547.5 elap:             206.1
 (Enter /s/ls4/users/knvvv/bin/g16sse/l601.exe)
 Copying SCF densities to generalized density rwf, IOpCl= 1 IROHF=0.

 **********************************************************************

            Population analysis using the SCF density.

 **********************************************************************

 Orbital symmetries:
 Alpha Orbitals:
       Occupied  (SGG) (SGU) (SGG) (SGU) (PIU) (PIU) (PIG) (PIG)
                 (SGG) (SGU) (SGG) (SGU) (SGG) (PIU) (PIU) (PIG)
                 (PIG)
       Virtual   (SGU) (PIU) (PIU) (SGG) (SGG) (PIG) (PIG) (SGU)
                 (DLTG) (DLTG) (SGU) (PIU) (PIU) (SGG) (DLTU) (DLTU)
                 (SGU) (PIG) (PIG) (PIU) (PIU) (SGG) (PIU) (PIU)
                 (DLTG) (DLTG) (SGU) (PIG) (PIG) (SGG) (DLTU) (DLTU)
                 (SGG) (PIG) (PIG) (SGU) (SGU) (DLTG) (DLTG) (PHIU)
                 (PHIU) (SGG) (PIU) (PIU) (PIU) (PIU) (DLTG) (DLTG)
                 (SGG) (PIG) (PIG) (DLTU) (DLTU) (PHIG) (PHIG)
                 (PIG) (PIG) (SGU) (SGU) (PIU) (PIU) (DLTU) (DLTU)
                 (SGU) (SGG) (PIG) (PIG) (SGG) (SGU) (DLTG) (DLTG)
                 (PIU) (PIU) (SGG) (PHIU) (PHIU) (DLTU) (DLTU)
                 (DLTG) (DLTG) (PIU) (PIU) (PIG) (PIG) (?A) (?A)
                 (?B) (?B) (SGG) (PHIU) (PHIU) (PHIG) (PHIG) (DLTG)
                 (DLTG) (PHIG) (PHIG) (DLTU) (DLTU) (SGU) (PIG)
                 (PIG) (SGU) (PIU) (PIU) (SGU) (SGG) (DLTU) (DLTU)
                 (PIU) (PIU) (PIG) (PIG) (SGG) (PIG) (PIG) (SGU)
                 (SGG) (SGU) (DLTG) (DLTG) (DLTU) (DLTU) (PIU)
                 (PIU) (PIG) (PIG) (SGG) (SGU) (SGG) (SGU) (PIU)
                 (PIU) (PIG) (PIG) (SGG) (SGU) (SGG) (SGU) (SGG)
                 (SGU)
 Beta  Orbitals:
       Occupied  (SGG) (SGU) (SGG) (SGU) (SGG) (SGU) (PIU) (PIU)
                 (PIG) (PIG) (SGG) (SGU) (SGG) (PIU) (PIU)
       Virtual   (PIG) (PIG) (SGU) (SGG) (PIU) (PIU) (SGG) (PIG)
                 (PIG) (SGU) (DLTG) (DLTG) (SGU) (PIU) (PIU) (SGG)
                 (DLTU) (DLTU) (SGU) (PIG) (PIG) (PIU) (PIU) (SGG)
                 (PIU) (PIU) (DLTG) (DLTG) (SGU) (PIG) (PIG) (SGG)
                 (DLTU) (DLTU) (SGG) (PIG) (PIG) (SGU) (SGU) (DLTG)
                 (DLTG) (PHIU) (PHIU) (SGG) (PIU) (PIU) (PIU) (PIU)
                 (DLTG) (DLTG) (SGG) (PIG) (PIG) (DLTU) (DLTU)
                 (PHIG) (PHIG) (PIG) (PIG) (SGU) (SGU) (PIU) (PIU)
                 (DLTU) (DLTU) (SGU) (SGG) (PIG) (PIG) (SGG) (SGU)
                 (DLTG) (DLTG) (PIU) (PIU) (SGG) (PHIU) (PHIU)
                 (DLTU) (DLTU) (DLTG) (DLTG) (PIU) (PIU) (PIG)
                 (PIG) (?A) (?A) (?B) (?B) (SGG) (PHIG) (PHIG)
                 (PHIU) (PHIU) (DLTG) (DLTG) (SGU) (PHIG) (PHIG)
                 (DLTU) (DLTU) (PIG) (PIG) (SGU) (PIU) (PIU) (SGU)
                 (SGG) (DLTU) (DLTU) (PIU) (PIU) (PIG) (PIG) (SGG)
                 (PIG) (PIG) (SGU) (SGG) (SGU) (DLTG) (DLTG) (PIU)
                 (PIU) (DLTU) (DLTU) (PIG) (PIG) (SGG) (SGU) (SGG)
                 (SGU) (PIU) (PIU) (PIG) (PIG) (SGG) (SGU) (SGG)
                 (SGU) (SGG) (SGU)
 The electronic state is 3-SGG.
 Alpha  occ. eigenvalues --  -89.96148 -89.96147  -8.31146  -8.31122  -6.23619
 Alpha  occ. eigenvalues --   -6.23619  -6.23614  -6.23614  -6.23179  -6.23104
 Alpha  occ. eigenvalues --   -0.93124  -0.71506  -0.45900  -0.44328  -0.44328
 Alpha  occ. eigenvalues --   -0.29941  -0.29941
 Alpha virt. eigenvalues --    0.00094   0.02506   0.02506   0.02945   0.04340
 Alpha virt. eigenvalues --    0.04698   0.04698   0.04886   0.11243   0.11244
 Alpha virt. eigenvalues --    0.14003   0.16493   0.16493   0.17413   0.20190
 Alpha virt. eigenvalues --    0.20190   0.21583   0.22564   0.22564   0.25530
 Alpha virt. eigenvalues --    0.25530   0.31016   0.34337   0.34337   0.34385
 Alpha virt. eigenvalues --    0.34388   0.38005   0.39553   0.39553   0.41025
 Alpha virt. eigenvalues --    0.44192   0.44195   0.51079   0.57482   0.57482
 Alpha virt. eigenvalues --    0.62047   0.77094   0.97004   0.97004   0.97411
 Alpha virt. eigenvalues --    0.97411   0.98696   0.98714   0.98714   1.03606
 Alpha virt. eigenvalues --    1.03606   1.06584   1.06584   1.09873   1.10573
 Alpha virt. eigenvalues --    1.10573   1.11387   1.11388   1.12720   1.12720
 Alpha virt. eigenvalues --    1.18951   1.18951   1.20793   1.29258   1.32067
 Alpha virt. eigenvalues --    1.32067   1.38463   1.38469   1.62965   1.65476
 Alpha virt. eigenvalues --    1.76189   1.76189   1.84981   2.30855   2.56709
 Alpha virt. eigenvalues --    2.56715   2.60851   2.60851   2.69751   2.72059
 Alpha virt. eigenvalues --    2.72059   2.73501   2.73512   2.75626   2.75631
 Alpha virt. eigenvalues --    2.76293   2.76293   2.80121   2.80121   2.86065
 Alpha virt. eigenvalues --    2.86066   2.92629   2.92630   2.99266   3.03868
 Alpha virt. eigenvalues --    3.03868   3.05379   3.05379   3.12606   3.12610
 Alpha virt. eigenvalues --    3.16484   3.16484   3.18882   3.18890   3.20490
 Alpha virt. eigenvalues --    3.37090   3.37090   3.41925   3.45574   3.45574
 Alpha virt. eigenvalues --    3.57139   3.61726   3.64333   3.64336   3.66204
 Alpha virt. eigenvalues --    3.66204   3.66499   3.66499   4.13115   4.38576
 Alpha virt. eigenvalues --    4.38576   5.64256   6.95149   7.30289   8.66465
 Alpha virt. eigenvalues --    8.66466   8.71253   8.71254   8.72401   8.72401
 Alpha virt. eigenvalues --    8.88541   8.88541   9.14027   9.22623  23.92325
 Alpha virt. eigenvalues --   24.35393  28.85020  28.85020  28.93119  28.93119
 Alpha virt. eigenvalues --   28.98798  29.55577  83.67496  84.09238 449.14379
 Alpha virt. eigenvalues --  449.84989
  Beta  occ. eigenvalues --  -89.95111 -89.95111  -8.30814  -8.30783  -6.22876
  Beta  occ. eigenvalues --   -6.22799  -6.22005  -6.22005  -6.21998  -6.21998
  Beta  occ. eigenvalues --   -0.89565  -0.64731  -0.42864  -0.38071  -0.38071
  Beta virt. eigenvalues --   -0.10417  -0.10417   0.00599   0.02654   0.02966
  Beta virt. eigenvalues --    0.02966   0.04695   0.06062   0.06062   0.06666
  Beta virt. eigenvalues --    0.10916   0.10916   0.13755   0.15956   0.15956
  Beta virt. eigenvalues --    0.17106   0.18263   0.18263   0.21136   0.21173
  Beta virt. eigenvalues --    0.21173   0.25747   0.25747   0.30459   0.35607
  Beta virt. eigenvalues --    0.35607   0.36053   0.36053   0.37858   0.38130
  Beta virt. eigenvalues --    0.38130   0.40606   0.46732   0.46732   0.51782
  Beta virt. eigenvalues --    0.58709   0.58709   0.61669   0.75863   0.97288
  Beta virt. eigenvalues --    0.97289   0.97749   0.97749   0.97866   0.99260
  Beta virt. eigenvalues --    0.99260   1.06355   1.06355   1.08384   1.08385
  Beta virt. eigenvalues --    1.10469   1.12114   1.12114   1.12720   1.12720
  Beta virt. eigenvalues --    1.13481   1.13481   1.20284   1.20284   1.21684
  Beta virt. eigenvalues --    1.29399   1.32583   1.32583   1.38768   1.38769
  Beta virt. eigenvalues --    1.63203   1.67746   1.75696   1.75696   1.85284
  Beta virt. eigenvalues --    2.32492   2.60233   2.60233   2.62884   2.62884
  Beta virt. eigenvalues --    2.70777   2.74604   2.74604   2.75848   2.75850
  Beta virt. eigenvalues --    2.76699   2.76700   2.77601   2.77601   2.81258
  Beta virt. eigenvalues --    2.81258   2.89841   2.89843   2.96549   2.96552
  Beta virt. eigenvalues --    3.01776   3.10134   3.10134   3.12862   3.12862
  Beta virt. eigenvalues --    3.18032   3.18032   3.21513   3.23556   3.23556
  Beta virt. eigenvalues --    3.24275   3.24276   3.40621   3.40621   3.44292
  Beta virt. eigenvalues --    3.48892   3.48892   3.60698   3.62148   3.66578
  Beta virt. eigenvalues --    3.66581   3.70035   3.70035   3.70351   3.70351
  Beta virt. eigenvalues --    4.16150   4.39932   4.39932   5.64906   6.99737
  Beta virt. eigenvalues --    7.35650   8.72548   8.72550   8.75924   8.75924
  Beta virt. eigenvalues --    8.77527   8.77529   8.92759   8.92759   9.17328
  Beta virt. eigenvalues --    9.25685  23.99869  24.43294  28.90170  28.90170
  Beta virt. eigenvalues --   28.98308  28.98308  29.00233  29.57239  83.70581
  Beta virt. eigenvalues --   84.12473 449.13566 449.84206
          Condensed to atoms (all electrons):
               1          2
     1  S   15.678979   0.321021
     2  S    0.321021  15.678979
          Atomic-Atomic Spin Densities.
               1          2
     1  S    1.333257  -0.333257
     2  S   -0.333257   1.333257
 Mulliken charges and spin densities:
               1          2
     1  S   -0.000000   1.000000
     2  S   -0.000000   1.000000
 Sum of Mulliken charges =  -0.00000   2.00000
 Mulliken charges and spin densities with hydrogens summed into heavy atoms:
               1          2
     1  S   -0.000000   1.000000
     2  S   -0.000000   1.000000
 Electronic spatial extent (au):  <R**2>=            159.2197
 Charge=             -0.0000 electrons
 Dipole moment (field-independent basis, Debye):
    X=              0.0000    Y=              0.0000    Z=             -0.0000  Tot=              0.0000
 Quadrupole moment (field-independent basis, Debye-Ang):
   XX=            -25.9539   YY=            -25.9539   ZZ=            -23.9861
   XY=              0.0000   XZ=              0.0000   YZ=              0.0000
 Traceless Quadrupole moment (field-independent basis, Debye-Ang):
   XX=             -0.6559   YY=             -0.6559   ZZ=              1.3119
   XY=              0.0000   XZ=              0.0000   YZ=              0.0000
 Octapole moment (field-independent basis, Debye-Ang**2):
  XXX=             -0.0000  YYY=              0.0000  ZZZ=              0.0000  XYY=             -0.0000
  XXY=              0.0000  XXZ=             -0.0000  XZZ=             -0.0000  YZZ=              0.0000
  YYZ=             -0.0000  XYZ=             -0.0000
 Hexadecapole moment (field-independent basis, Debye-Ang**3):
 XXXX=            -34.9264 YYYY=            -34.9264 ZZZZ=           -159.2763 XXXY=              0.0000
 XXXZ=              0.0000 YYYX=              0.0000 YYYZ=              0.0000 ZZZX=              0.0000
 ZZZY=              0.0000 XXYY=            -11.6421 XXZZ=            -34.6453 YYZZ=            -34.6453
 XXYZ=              0.0000 YYXZ=              0.0000 ZZXY=              0.0000
 N-N= 7.141676763557D+01 E-N=-2.037052082059D+03  KE= 7.952410300969D+02
                          Isotropic Fermi Contact Couplings
        Atom                 a.u.       MegaHertz       Gauss      10(-4) cm-1
     1  S(33)              0.06108      10.48892       3.74271       3.49873
     2  S(33)              0.06108      10.48892       3.74271       3.49873
 PrsmSu:  requested number of processors reduced to:  21 ShMem   1 Linda.
 --------------------------------------------------------
       Center         ----  Spin Dipole Couplings  ----
                      3XX-RR        3YY-RR        3ZZ-RR
 --------------------------------------------------------
     1   Atom        1.332752      1.332752     -2.665504
     2   Atom        1.332752      1.332752     -2.665504
 --------------------------------------------------------
                        XY            XZ            YZ
 --------------------------------------------------------
     1   Atom        0.000000     -0.000000      0.000000
     2   Atom        0.000000     -0.000000      0.000000
 --------------------------------------------------------


 ---------------------------------------------------------------------------------
              Anisotropic Spin Dipole Couplings in Principal Axis System
 ---------------------------------------------------------------------------------

       Atom             a.u.   MegaHertz   Gauss  10(-4) cm-1        Axes

              Baa    -2.6655  -109.283   -38.995   -36.453  0.0000  0.0000  1.0000
     1 S(33)  Bbb     1.3328    54.642    19.497    18.226  1.0000 -0.0011 -0.0000
              Bcc     1.3328    54.642    19.497    18.226  0.0011  1.0000  0.0000
 
              Baa    -2.6655  -109.283   -38.995   -36.453  0.0000  0.0000  1.0000
     2 S(33)  Bbb     1.3328    54.642    19.497    18.226  1.0000 -0.0017 -0.0000
              Bcc     1.3328    54.642    19.497    18.226  0.0017  1.0000  0.0000
 

 ---------------------------------------------------------------------------------

 PrsmSu:  requested number of processors reduced to:  21 ShMem   1 Linda.
 No NMR shielding tensors so no spin-rotation constants.
 Leave Link  601 at Sat Apr 17 20:34:51 2021, MaxMem=   104857600 cpu:             284.9 elap:               6.3
 (Enter /s/ls4/users/knvvv/bin/g16sse/l801.exe)
 DoSCS=F DFT=T ScalE2(SS,OS)=  1.000000  1.000000
 Range of M.O.s used for correlation:     1   158
 NBasis=   158 NAE=    17 NBE=    15 NFC=     0 NFV=     0
 NROrb=    158 NOA=    17 NOB=    15 NVA=   141 NVB=   143

 **** Warning!!: The largest alpha MO coefficient is  0.30412568D+02


 **** Warning!!: The largest beta MO coefficient is  0.30031511D+02

 Leave Link  801 at Sat Apr 17 20:34:51 2021, MaxMem=   104857600 cpu:               3.0 elap:               0.2
 (Enter /s/ls4/users/knvvv/bin/g16sse/l914.exe)
 UHF ground state
 Doing stability rather than CIS.
 Two-electron integrals replicated using symmetry.
 MDV=   104857600 DFT=T DoStab=T Mixed=T DoRPA=F DoScal=F NonHer=F
 Making orbital integer symmetry assigments:
 Orbital symmetries:
 Alpha Orbitals:
       Occupied  (SGG) (SGU) (SGG) (SGU) (PIU) (PIU) (PIG) (PIG)
                 (SGG) (SGU) (SGG) (SGU) (SGG) (PIU) (PIU) (PIG)
                 (PIG)
       Virtual   (SGU) (PIU) (PIU) (SGG) (SGG) (PIG) (PIG) (SGU)
                 (DLTG) (DLTG) (SGU) (PIU) (PIU) (SGG) (DLTU) (DLTU)
                 (SGU) (PIG) (PIG) (PIU) (PIU) (SGG) (PIU) (PIU)
                 (DLTG) (DLTG) (SGU) (PIG) (PIG) (SGG) (DLTU) (DLTU)
                 (SGG) (PIG) (PIG) (SGU) (SGU) (DLTG) (DLTG) (PHIU)
                 (PHIU) (SGG) (PIU) (PIU) (PIU) (PIU) (DLTG) (DLTG)
                 (SGG) (PIG) (PIG) (DLTU) (DLTU) (PHIG) (PHIG)
                 (PIG) (PIG) (SGU) (SGU) (PIU) (PIU) (DLTU) (DLTU)
                 (SGU) (SGG) (PIG) (PIG) (SGG) (SGU) (DLTG) (DLTG)
                 (PIU) (PIU) (SGG) (PHIU) (PHIU) (DLTU) (DLTU)
                 (DLTG) (DLTG) (PIU) (PIU) (PIG) (PIG) (?A) (?A)
                 (?B) (?B) (SGG) (PHIU) (PHIU) (PHIG) (PHIG) (DLTG)
                 (DLTG) (PHIG) (PHIG) (DLTU) (DLTU) (SGU) (PIG)
                 (PIG) (SGU) (PIU) (PIU) (SGU) (SGG) (DLTU) (DLTU)
                 (PIU) (PIU) (PIG) (PIG) (SGG) (PIG) (PIG) (SGU)
                 (SGG) (SGU) (DLTG) (DLTG) (DLTU) (DLTU) (PIU)
                 (PIU) (PIG) (PIG) (SGG) (SGU) (SGG) (SGU) (PIU)
                 (PIU) (PIG) (PIG) (SGG) (SGU) (SGG) (SGU) (SGG)
                 (SGU)
 Beta  Orbitals:
       Occupied  (SGG) (SGU) (SGG) (SGU) (SGG) (SGU) (PIU) (PIU)
                 (PIG) (PIG) (SGG) (SGU) (SGG) (PIU) (PIU)
       Virtual   (PIG) (PIG) (SGU) (SGG) (PIU) (PIU) (SGG) (PIG)
                 (PIG) (SGU) (DLTG) (DLTG) (SGU) (PIU) (PIU) (SGG)
                 (DLTU) (DLTU) (SGU) (PIG) (PIG) (PIU) (PIU) (SGG)
                 (PIU) (PIU) (DLTG) (DLTG) (SGU) (PIG) (PIG) (SGG)
                 (DLTU) (DLTU) (SGG) (PIG) (PIG) (SGU) (SGU) (DLTG)
                 (DLTG) (PHIU) (PHIU) (SGG) (PIU) (PIU) (PIU) (PIU)
                 (DLTG) (DLTG) (SGG) (PIG) (PIG) (DLTU) (DLTU)
                 (PHIG) (PHIG) (PIG) (PIG) (SGU) (SGU) (PIU) (PIU)
                 (DLTU) (DLTU) (SGU) (SGG) (PIG) (PIG) (SGG) (SGU)
                 (DLTG) (DLTG) (PIU) (PIU) (SGG) (PHIU) (PHIU)
                 (DLTU) (DLTU) (DLTG) (DLTG) (PIU) (PIU) (PIG)
                 (PIG) (?A) (?A) (?B) (?B) (SGG) (PHIG) (PHIG)
                 (PHIU) (PHIU) (DLTG) (DLTG) (SGU) (PHIG) (PHIG)
                 (DLTU) (DLTU) (PIG) (PIG) (SGU) (PIU) (PIU) (SGU)
                 (SGG) (DLTU) (DLTU) (PIU) (PIU) (PIG) (PIG) (SGG)
                 (PIG) (PIG) (SGU) (SGG) (SGU) (DLTG) (DLTG) (PIU)
                 (PIU) (DLTU) (DLTU) (PIG) (PIG) (SGG) (SGU) (SGG)
                 (SGU) (PIU) (PIU) (PIG) (PIG) (SGG) (SGU) (SGG)
                 (SGU) (SGG) (SGU)
    24 initial guesses have been made.
 Convergence on wavefunction:    0.001000000000000
 Davidson Disk Diagonalization:  ConvIn= 1.00D-03 SkipCon=T Conv= 1.00D-03.
 Max sub-space:  2000 roots to seek:    24 dimension of matrix:         4542
 Iteration     1 Dimension    24 NMult     0 NNew     24
 Estimated number of processors is:   20
 CISAX will form     1 AO SS matrices at one time.
 NMat=     1 NSing=     1 JSym2X= 2.
 FoFJK:  IHMeth= 1 ICntrl=       0 DoSepK=F KAlg= 0 I1Cent=           0 FoldK=F
 IRaf= 980000000 NMat=       1 IRICut=       1 DoRegI=T DoRafI=F ISym2E= 2 IDoP0=0 IntGTp=1.
 FoFCou: FMM=F IPFlag=           0 FMFlag=      100000 FMFlg1=           0
         NFxFlg=           0 DoJE=F BraDBF=F KetDBF=F FulRan=T
         wScrn=  0.000000 ICntrl=         0 IOpCl=  1 I1Cent=           0 NGrid=           0
         NMat0=    1 NMatS0=      1 NMatT0=    0 NMatD0=    1 NMtDS0=    0 NMtDT0=    0
 Integrals replicated using symmetry in FoFCou.
 CoulSu:  requested number of processors reduced to:  18 ShMem   1 Linda.
 NMat=     1 NSing=     1 JSym2X= 2.
 CoulSu:  requested number of processors reduced to:  18 ShMem   1 Linda.
 NMat=     1 NSing=     1 JSym2X= 2.
 CoulSu:  requested number of processors reduced to:  18 ShMem   1 Linda.
 NMat=     1 NSing=     1 JSym2X= 2.
 CoulSu:  requested number of processors reduced to:  18 ShMem   1 Linda.
 NMat=     1 NSing=     1 JSym2X= 2.
 CoulSu:  requested number of processors reduced to:  18 ShMem   1 Linda.
 NMat=     1 NSing=     1 JSym2X= 2.
 CoulSu:  requested number of processors reduced to:  18 ShMem   1 Linda.
 NMat=     1 NSing=     1 JSym2X= 2.
 CoulSu:  requested number of processors reduced to:  18 ShMem   1 Linda.
 NMat=     1 NSing=     1 JSym2X= 2.
 CoulSu:  requested number of processors reduced to:  18 ShMem   1 Linda.
 NMat=     1 NSing=     1 JSym2X= 2.
 CoulSu:  requested number of processors reduced to:  18 ShMem   1 Linda.
 NMat=     1 NSing=     1 JSym2X= 2.
 CoulSu:  requested number of processors reduced to:  18 ShMem   1 Linda.
 NMat=     1 NSing=     1 JSym2X= 2.
 CoulSu:  requested number of processors reduced to:  18 ShMem   1 Linda.
 NMat=     1 NSing=     1 JSym2X= 2.
 CoulSu:  requested number of processors reduced to:  18 ShMem   1 Linda.
 NMat=     1 NSing=     1 JSym2X= 2.
 CoulSu:  requested number of processors reduced to:  18 ShMem   1 Linda.
 NMat=     1 NSing=     1 JSym2X= 2.
 CoulSu:  requested number of processors reduced to:  18 ShMem   1 Linda.
 NMat=     1 NSing=     1 JSym2X= 2.
 CoulSu:  requested number of processors reduced to:  18 ShMem   1 Linda.
 NMat=     1 NSing=     1 JSym2X= 2.
 CoulSu:  requested number of processors reduced to:  18 ShMem   1 Linda.
 NMat=     1 NSing=     1 JSym2X= 2.
 CoulSu:  requested number of processors reduced to:  18 ShMem   1 Linda.
 NMat=     1 NSing=     1 JSym2X= 2.
 CoulSu:  requested number of processors reduced to:  18 ShMem   1 Linda.
 NMat=     1 NSing=     1 JSym2X= 2.
 CoulSu:  requested number of processors reduced to:  18 ShMem   1 Linda.
 NMat=     1 NSing=     1 JSym2X= 2.
 CoulSu:  requested number of processors reduced to:  18 ShMem   1 Linda.
 NMat=     1 NSing=     1 JSym2X= 2.
 CoulSu:  requested number of processors reduced to:  18 ShMem   1 Linda.
 NMat=     1 NSing=     1 JSym2X= 2.
 CoulSu:  requested number of processors reduced to:  18 ShMem   1 Linda.
 NMat=     1 NSing=     1 JSym2X= 2.
 CoulSu:  requested number of processors reduced to:  18 ShMem   1 Linda.
 NMat=     1 NSing=     1 JSym2X= 2.
 CoulSu:  requested number of processors reduced to:  18 ShMem   1 Linda.
 Excitation Energies [eV] at current iteration:
 Root      1 :     3.202745741070996
 Root      2 :     3.202874730528227
 Root      3 :     4.073567598718149
 Root      4 :     5.112987477316538
 Root      5 :     5.112987477318066
 Root      6 :     5.231918930663871
 Root      7 :     5.231918930668487
 Root      8 :     6.495867950789749
 Root      9 :     6.495867950790402
 Root     10 :     6.877349207845542
 Root     11 :     6.965458492259629
 Root     12 :     6.965541543329830
 Root     13 :     7.013225555506136
 Root     14 :     7.235766022988238
 Root     15 :     7.235766023051657
 Root     16 :     7.381618861521416
 Root     17 :     7.381618861573457
 Root     18 :     7.731354459612268
 Root     19 :     7.784835765543581
 Root     20 :     7.784839173550279
 Root     21 :     7.978873919745324
 Root     22 :     8.296284645857412
 Root     23 :     8.296284645891761
 Root     24 :    10.497335558785620
 Iteration     2 Dimension    48 NMult    24 NNew     24
 Estimated number of processors is:   20
 CISAX will form     1 AO SS matrices at one time.
 NMat=     1 NSing=     1 JSym2X= 2.
 CoulSu:  requested number of processors reduced to:  18 ShMem   1 Linda.
 NMat=     1 NSing=     1 JSym2X= 2.
 CoulSu:  requested number of processors reduced to:  18 ShMem   1 Linda.
 NMat=     1 NSing=     1 JSym2X= 2.
 CoulSu:  requested number of processors reduced to:  18 ShMem   1 Linda.
 NMat=     1 NSing=     1 JSym2X= 2.
 CoulSu:  requested number of processors reduced to:  18 ShMem   1 Linda.
 NMat=     1 NSing=     1 JSym2X= 2.
 CoulSu:  requested number of processors reduced to:  18 ShMem   1 Linda.
 NMat=     1 NSing=     1 JSym2X= 2.
 CoulSu:  requested number of processors reduced to:  18 ShMem   1 Linda.
 NMat=     1 NSing=     1 JSym2X= 2.
 CoulSu:  requested number of processors reduced to:  18 ShMem   1 Linda.
 NMat=     1 NSing=     1 JSym2X= 2.
 CoulSu:  requested number of processors reduced to:  18 ShMem   1 Linda.
 NMat=     1 NSing=     1 JSym2X= 2.
 CoulSu:  requested number of processors reduced to:  18 ShMem   1 Linda.
 NMat=     1 NSing=     1 JSym2X= 2.
 CoulSu:  requested number of processors reduced to:  18 ShMem   1 Linda.
 NMat=     1 NSing=     1 JSym2X= 2.
 CoulSu:  requested number of processors reduced to:  18 ShMem   1 Linda.
 NMat=     1 NSing=     1 JSym2X= 2.
 CoulSu:  requested number of processors reduced to:  18 ShMem   1 Linda.
 NMat=     1 NSing=     1 JSym2X= 2.
 CoulSu:  requested number of processors reduced to:  18 ShMem   1 Linda.
 NMat=     1 NSing=     1 JSym2X= 2.
 CoulSu:  requested number of processors reduced to:  18 ShMem   1 Linda.
 NMat=     1 NSing=     1 JSym2X= 2.
 CoulSu:  requested number of processors reduced to:  18 ShMem   1 Linda.
 NMat=     1 NSing=     1 JSym2X= 2.
 CoulSu:  requested number of processors reduced to:  18 ShMem   1 Linda.
 NMat=     1 NSing=     1 JSym2X= 2.
 CoulSu:  requested number of processors reduced to:  18 ShMem   1 Linda.
 NMat=     1 NSing=     1 JSym2X= 2.
 CoulSu:  requested number of processors reduced to:  18 ShMem   1 Linda.
 NMat=     1 NSing=     1 JSym2X= 2.
 CoulSu:  requested number of processors reduced to:  18 ShMem   1 Linda.
 NMat=     1 NSing=     1 JSym2X= 2.
 CoulSu:  requested number of processors reduced to:  18 ShMem   1 Linda.
 NMat=     1 NSing=     1 JSym2X= 2.
 CoulSu:  requested number of processors reduced to:  18 ShMem   1 Linda.
 NMat=     1 NSing=     1 JSym2X= 2.
 CoulSu:  requested number of processors reduced to:  18 ShMem   1 Linda.
 NMat=     1 NSing=     1 JSym2X= 2.
 CoulSu:  requested number of processors reduced to:  18 ShMem   1 Linda.
 NMat=     1 NSing=     1 JSym2X= 2.
 CoulSu:  requested number of processors reduced to:  18 ShMem   1 Linda.
 Root      1 not converged, maximum delta is    0.029124167911749
 Excitation Energies [eV] at current iteration:
 Root      1 :     2.927319855661347   Change is   -0.275425885409649
 Root      2 :     2.927574457942659   Change is   -0.275300272585569
 Root      3 :     4.040955354057485   Change is   -0.032612244660664
 Root      4 :     4.509624334861648   Change is   -0.603363142456418
 Root      5 :     4.509624334864561   Change is   -0.603363142451977
 Root      6 :     4.870133092474129   Change is   -0.361785838189742
 Root      7 :     4.870133092480081   Change is   -0.361785838188407
 Root      8 :     5.076690791962816   Change is   -5.420644766822805
 Root      9 :     6.304714993517341   Change is   -0.191152957272408
 Root     10 :     6.304714993518496   Change is   -0.191152957271906
 Root     11 :     6.817130682386430   Change is   -0.060218525459112
 Root     12 :     6.859683690954859   Change is   -0.105774801304770
 Root     13 :     6.859865077576899   Change is   -0.105676465752932
 Root     14 :     7.074421798036080   Change is   -0.161344224952157
 Root     15 :     7.074421798082261   Change is   -0.161344224969396
 Root     16 :     7.099921427204242   Change is    0.086695871698106
 Root     17 :     7.196953661859342   Change is   -0.184665199662074
 Root     18 :     7.196953661887372   Change is   -0.184665199686086
 Root     19 :     7.539069551237248   Change is   -0.757215094620164
 Root     20 :     7.539069551242813   Change is   -0.757215094648949
 Root     21 :     7.688097003015130   Change is   -0.043257456597137
 Root     22 :     7.717384127123727   Change is   -0.067451638419854
 Root     23 :     7.717391293741238   Change is   -0.067447879809041
 Root     24 :     7.890347691084781   Change is   -0.088526228660544
 Iteration     3 Dimension    51 NMult    48 NNew      3
 Estimated number of processors is:   20
 CISAX will form     1 AO SS matrices at one time.
 NMat=     1 NSing=     1 JSym2X= 2.
 CoulSu:  requested number of processors reduced to:  18 ShMem   1 Linda.
 NMat=     1 NSing=     1 JSym2X= 2.
 CoulSu:  requested number of processors reduced to:  18 ShMem   1 Linda.
 NMat=     1 NSing=     1 JSym2X= 2.
 CoulSu:  requested number of processors reduced to:  18 ShMem   1 Linda.
 Root      1 not converged, maximum delta is    0.007034763724135
 Excitation Energies [eV] at current iteration:
 Root      1 :     2.917462300502848   Change is   -0.009857555158499
 Root      2 :     2.917722861656432   Change is   -0.009851596286226
 Root      3 :     4.040930337567883   Change is   -0.000025016489602
 Iteration     4 Dimension    54 NMult    51 NNew      3
 Estimated number of processors is:   20
 CISAX will form     1 AO SS matrices at one time.
 NMat=     1 NSing=     1 JSym2X= 2.
 CoulSu:  requested number of processors reduced to:  18 ShMem   1 Linda.
 NMat=     1 NSing=     1 JSym2X= 2.
 CoulSu:  requested number of processors reduced to:  18 ShMem   1 Linda.
 NMat=     1 NSing=     1 JSym2X= 2.
 CoulSu:  requested number of processors reduced to:  18 ShMem   1 Linda.
 Root      1 not converged, maximum delta is    0.001912787720203
 Excitation Energies [eV] at current iteration:
 Root      1 :     2.917311616841876   Change is   -0.000150683660972
 Root      2 :     2.917571889599304   Change is   -0.000150972057128
 Root      3 :     4.040930291401985   Change is   -0.000000046165899
 Iteration     5 Dimension    56 NMult    54 NNew      2
 Estimated number of processors is:   20
 CISAX will form     1 AO SS matrices at one time.
 NMat=     1 NSing=     1 JSym2X= 2.
 CoulSu:  requested number of processors reduced to:  18 ShMem   1 Linda.
 NMat=     1 NSing=     1 JSym2X= 2.
 CoulSu:  requested number of processors reduced to:  18 ShMem   1 Linda.
 Root      1 has converged.
 Excitation Energies [eV] at current iteration:
 Root      1 :     2.917307676065586   Change is   -0.000003940776290
 Root      2 :     2.917567936378620   Change is   -0.000003953220684
 Root      3 :     4.040930291401997   Change is    0.000000000000012
 Convergence achieved on expansion vectors.
 ***********************************************************************
 Stability analysis using <AA,BB:AA,BB> singles matrix:
 ***********************************************************************
 1PDM for each excited state written to RWF  633
 Ground to excited state transition densities written to RWF  633

 Eigenvectors of the stability matrix:
 
 Excited state symmetry could not be determined.
 Eigenvector   1:  3.008-?Sym  Eigenvalue= 0.1072091  <S**2>=2.012
     14B -> 16B        0.17407
     14B -> 17B       -0.67936
     15B -> 16B        0.67936
     15B -> 17B        0.17407
 The wavefunction is stable under the perturbations considered.
 Leave Link  914 at Sat Apr 17 20:37:02 2021, MaxMem=   104857600 cpu:            4990.5 elap:             130.7
 (Enter /s/ls4/users/knvvv/bin/g16sse/l508.exe)
 The wavefunction is already stable.
 Leave Link  508 at Sat Apr 17 20:37:02 2021, MaxMem=   104857600 cpu:               2.2 elap:               0.1
 (Enter /s/ls4/users/knvvv/bin/g16sse/l601.exe)
 Copying SCF densities to generalized density rwf, IOpCl= 1 IROHF=0.

 **********************************************************************

            Population analysis using the SCF density.

 **********************************************************************

 Orbital symmetries:
 Alpha Orbitals:
       Occupied  (SGG) (SGU) (SGG) (SGU) (PIU) (PIU) (PIG) (PIG)
                 (SGG) (SGU) (SGG) (SGU) (SGG) (PIU) (PIU) (PIG)
                 (PIG)
       Virtual   (SGU) (PIU) (PIU) (SGG) (SGG) (PIG) (PIG) (SGU)
                 (DLTG) (DLTG) (SGU) (PIU) (PIU) (SGG) (DLTU) (DLTU)
                 (SGU) (PIG) (PIG) (PIU) (PIU) (SGG) (PIU) (PIU)
                 (DLTG) (DLTG) (SGU) (PIG) (PIG) (SGG) (DLTU) (DLTU)
                 (SGG) (PIG) (PIG) (SGU) (SGU) (DLTG) (DLTG) (PHIU)
                 (PHIU) (SGG) (PIU) (PIU) (PIU) (PIU) (DLTG) (DLTG)
                 (SGG) (PIG) (PIG) (DLTU) (DLTU) (PHIG) (PHIG)
                 (PIG) (PIG) (SGU) (SGU) (PIU) (PIU) (DLTU) (DLTU)
                 (SGU) (SGG) (PIG) (PIG) (SGG) (SGU) (DLTG) (DLTG)
                 (PIU) (PIU) (SGG) (PHIU) (PHIU) (DLTU) (DLTU)
                 (DLTG) (DLTG) (PIU) (PIU) (PIG) (PIG) (?A) (?A)
                 (?B) (?B) (SGG) (PHIU) (PHIU) (PHIG) (PHIG) (DLTG)
                 (DLTG) (PHIG) (PHIG) (DLTU) (DLTU) (SGU) (PIG)
                 (PIG) (SGU) (PIU) (PIU) (SGU) (SGG) (DLTU) (DLTU)
                 (PIU) (PIU) (PIG) (PIG) (SGG) (PIG) (PIG) (SGU)
                 (SGG) (SGU) (DLTG) (DLTG) (DLTU) (DLTU) (PIU)
                 (PIU) (PIG) (PIG) (SGG) (SGU) (SGG) (SGU) (PIU)
                 (PIU) (PIG) (PIG) (SGG) (SGU) (SGG) (SGU) (SGG)
                 (SGU)
 Beta  Orbitals:
       Occupied  (SGG) (SGU) (SGG) (SGU) (SGG) (SGU) (PIU) (PIU)
                 (PIG) (PIG) (SGG) (SGU) (SGG) (PIU) (PIU)
       Virtual   (PIG) (PIG) (SGU) (SGG) (PIU) (PIU) (SGG) (PIG)
                 (PIG) (SGU) (DLTG) (DLTG) (SGU) (PIU) (PIU) (SGG)
                 (DLTU) (DLTU) (SGU) (PIG) (PIG) (PIU) (PIU) (SGG)
                 (PIU) (PIU) (DLTG) (DLTG) (SGU) (PIG) (PIG) (SGG)
                 (DLTU) (DLTU) (SGG) (PIG) (PIG) (SGU) (SGU) (DLTG)
                 (DLTG) (PHIU) (PHIU) (SGG) (PIU) (PIU) (PIU) (PIU)
                 (DLTG) (DLTG) (SGG) (PIG) (PIG) (DLTU) (DLTU)
                 (PHIG) (PHIG) (PIG) (PIG) (SGU) (SGU) (PIU) (PIU)
                 (DLTU) (DLTU) (SGU) (SGG) (PIG) (PIG) (SGG) (SGU)
                 (DLTG) (DLTG) (PIU) (PIU) (SGG) (PHIU) (PHIU)
                 (DLTU) (DLTU) (DLTG) (DLTG) (PIU) (PIU) (PIG)
                 (PIG) (?A) (?A) (?B) (?B) (SGG) (PHIG) (PHIG)
                 (PHIU) (PHIU) (DLTG) (DLTG) (SGU) (PHIG) (PHIG)
                 (DLTU) (DLTU) (PIG) (PIG) (SGU) (PIU) (PIU) (SGU)
                 (SGG) (DLTU) (DLTU) (PIU) (PIU) (PIG) (PIG) (SGG)
                 (PIG) (PIG) (SGU) (SGG) (SGU) (DLTG) (DLTG) (PIU)
                 (PIU) (DLTU) (DLTU) (PIG) (PIG) (SGG) (SGU) (SGG)
                 (SGU) (PIU) (PIU) (PIG) (PIG) (SGG) (SGU) (SGG)
                 (SGU) (SGG) (SGU)
 The electronic state is 3-SGG.
 Alpha  occ. eigenvalues --  -89.96148 -89.96147  -8.31146  -8.31122  -6.23619
 Alpha  occ. eigenvalues --   -6.23619  -6.23614  -6.23614  -6.23179  -6.23104
 Alpha  occ. eigenvalues --   -0.93124  -0.71506  -0.45900  -0.44328  -0.44328
 Alpha  occ. eigenvalues --   -0.29941  -0.29941
 Alpha virt. eigenvalues --    0.00094   0.02506   0.02506   0.02945   0.04340
 Alpha virt. eigenvalues --    0.04698   0.04698   0.04886   0.11243   0.11244
 Alpha virt. eigenvalues --    0.14003   0.16493   0.16493   0.17413   0.20190
 Alpha virt. eigenvalues --    0.20190   0.21583   0.22564   0.22564   0.25530
 Alpha virt. eigenvalues --    0.25530   0.31016   0.34337   0.34337   0.34385
 Alpha virt. eigenvalues --    0.34388   0.38005   0.39553   0.39553   0.41025
 Alpha virt. eigenvalues --    0.44192   0.44195   0.51079   0.57482   0.57482
 Alpha virt. eigenvalues --    0.62047   0.77094   0.97004   0.97004   0.97411
 Alpha virt. eigenvalues --    0.97411   0.98696   0.98714   0.98714   1.03606
 Alpha virt. eigenvalues --    1.03606   1.06584   1.06584   1.09873   1.10573
 Alpha virt. eigenvalues --    1.10573   1.11387   1.11388   1.12720   1.12720
 Alpha virt. eigenvalues --    1.18951   1.18951   1.20793   1.29258   1.32067
 Alpha virt. eigenvalues --    1.32067   1.38463   1.38469   1.62965   1.65476
 Alpha virt. eigenvalues --    1.76189   1.76189   1.84981   2.30855   2.56709
 Alpha virt. eigenvalues --    2.56715   2.60851   2.60851   2.69751   2.72059
 Alpha virt. eigenvalues --    2.72059   2.73501   2.73512   2.75626   2.75631
 Alpha virt. eigenvalues --    2.76293   2.76293   2.80121   2.80121   2.86065
 Alpha virt. eigenvalues --    2.86066   2.92629   2.92630   2.99266   3.03868
 Alpha virt. eigenvalues --    3.03868   3.05379   3.05379   3.12606   3.12610
 Alpha virt. eigenvalues --    3.16484   3.16484   3.18882   3.18890   3.20490
 Alpha virt. eigenvalues --    3.37090   3.37090   3.41925   3.45574   3.45574
 Alpha virt. eigenvalues --    3.57139   3.61726   3.64333   3.64336   3.66204
 Alpha virt. eigenvalues --    3.66204   3.66499   3.66499   4.13115   4.38576
 Alpha virt. eigenvalues --    4.38576   5.64256   6.95149   7.30289   8.66465
 Alpha virt. eigenvalues --    8.66466   8.71253   8.71254   8.72401   8.72401
 Alpha virt. eigenvalues --    8.88541   8.88541   9.14027   9.22623  23.92325
 Alpha virt. eigenvalues --   24.35393  28.85020  28.85020  28.93119  28.93119
 Alpha virt. eigenvalues --   28.98798  29.55577  83.67496  84.09238 449.14379
 Alpha virt. eigenvalues --  449.84989
  Beta  occ. eigenvalues --  -89.95111 -89.95111  -8.30814  -8.30783  -6.22876
  Beta  occ. eigenvalues --   -6.22799  -6.22005  -6.22005  -6.21998  -6.21998
  Beta  occ. eigenvalues --   -0.89565  -0.64731  -0.42864  -0.38071  -0.38071
  Beta virt. eigenvalues --   -0.10417  -0.10417   0.00599   0.02654   0.02966
  Beta virt. eigenvalues --    0.02966   0.04695   0.06062   0.06062   0.06666
  Beta virt. eigenvalues --    0.10916   0.10916   0.13755   0.15956   0.15956
  Beta virt. eigenvalues --    0.17106   0.18263   0.18263   0.21136   0.21173
  Beta virt. eigenvalues --    0.21173   0.25747   0.25747   0.30459   0.35607
  Beta virt. eigenvalues --    0.35607   0.36053   0.36053   0.37858   0.38130
  Beta virt. eigenvalues --    0.38130   0.40606   0.46732   0.46732   0.51782
  Beta virt. eigenvalues --    0.58709   0.58709   0.61669   0.75863   0.97288
  Beta virt. eigenvalues --    0.97289   0.97749   0.97749   0.97866   0.99260
  Beta virt. eigenvalues --    0.99260   1.06355   1.06355   1.08384   1.08385
  Beta virt. eigenvalues --    1.10469   1.12114   1.12114   1.12720   1.12720
  Beta virt. eigenvalues --    1.13481   1.13481   1.20284   1.20284   1.21684
  Beta virt. eigenvalues --    1.29399   1.32583   1.32583   1.38768   1.38769
  Beta virt. eigenvalues --    1.63203   1.67746   1.75696   1.75696   1.85284
  Beta virt. eigenvalues --    2.32492   2.60233   2.60233   2.62884   2.62884
  Beta virt. eigenvalues --    2.70777   2.74604   2.74604   2.75848   2.75850
  Beta virt. eigenvalues --    2.76699   2.76700   2.77601   2.77601   2.81258
  Beta virt. eigenvalues --    2.81258   2.89841   2.89843   2.96549   2.96552
  Beta virt. eigenvalues --    3.01776   3.10134   3.10134   3.12862   3.12862
  Beta virt. eigenvalues --    3.18032   3.18032   3.21513   3.23556   3.23556
  Beta virt. eigenvalues --    3.24275   3.24276   3.40621   3.40621   3.44292
  Beta virt. eigenvalues --    3.48892   3.48892   3.60698   3.62148   3.66578
  Beta virt. eigenvalues --    3.66581   3.70035   3.70035   3.70351   3.70351
  Beta virt. eigenvalues --    4.16150   4.39932   4.39932   5.64906   6.99737
  Beta virt. eigenvalues --    7.35650   8.72548   8.72550   8.75924   8.75924
  Beta virt. eigenvalues --    8.77527   8.77529   8.92759   8.92759   9.17328
  Beta virt. eigenvalues --    9.25685  23.99869  24.43294  28.90170  28.90170
  Beta virt. eigenvalues --   28.98308  28.98308  29.00233  29.57239  83.70581
  Beta virt. eigenvalues --   84.12473 449.13566 449.84206
          Condensed to atoms (all electrons):
               1          2
     1  S   15.678979   0.321021
     2  S    0.321021  15.678979
          Atomic-Atomic Spin Densities.
               1          2
     1  S    1.333257  -0.333257
     2  S   -0.333257   1.333257
 Mulliken charges and spin densities:
               1          2
     1  S   -0.000000   1.000000
     2  S   -0.000000   1.000000
 Sum of Mulliken charges =  -0.00000   2.00000
 Mulliken charges and spin densities with hydrogens summed into heavy atoms:
               1          2
     1  S   -0.000000   1.000000
     2  S   -0.000000   1.000000
 Electronic spatial extent (au):  <R**2>=            159.2197
 Charge=             -0.0000 electrons
 Dipole moment (field-independent basis, Debye):
    X=              0.0000    Y=              0.0000    Z=             -0.0000  Tot=              0.0000
 Quadrupole moment (field-independent basis, Debye-Ang):
   XX=            -25.9539   YY=            -25.9539   ZZ=            -23.9861
   XY=              0.0000   XZ=              0.0000   YZ=              0.0000
 Traceless Quadrupole moment (field-independent basis, Debye-Ang):
   XX=             -0.6559   YY=             -0.6559   ZZ=              1.3119
   XY=              0.0000   XZ=              0.0000   YZ=              0.0000
 Octapole moment (field-independent basis, Debye-Ang**2):
  XXX=             -0.0000  YYY=              0.0000  ZZZ=              0.0000  XYY=             -0.0000
  XXY=              0.0000  XXZ=             -0.0000  XZZ=             -0.0000  YZZ=              0.0000
  YYZ=             -0.0000  XYZ=             -0.0000
 Hexadecapole moment (field-independent basis, Debye-Ang**3):
 XXXX=            -34.9264 YYYY=            -34.9264 ZZZZ=           -159.2763 XXXY=              0.0000
 XXXZ=              0.0000 YYYX=              0.0000 YYYZ=              0.0000 ZZZX=              0.0000
 ZZZY=              0.0000 XXYY=            -11.6421 XXZZ=            -34.6453 YYZZ=            -34.6453
 XXYZ=              0.0000 YYXZ=              0.0000 ZZXY=              0.0000
 N-N= 7.141676763557D+01 E-N=-2.037052082059D+03  KE= 7.952410300969D+02
                          Isotropic Fermi Contact Couplings
        Atom                 a.u.       MegaHertz       Gauss      10(-4) cm-1
     1  S(33)              0.06108      10.48892       3.74271       3.49873
     2  S(33)              0.06108      10.48892       3.74271       3.49873
 PrsmSu:  requested number of processors reduced to:  21 ShMem   1 Linda.
 --------------------------------------------------------
       Center         ----  Spin Dipole Couplings  ----
                      3XX-RR        3YY-RR        3ZZ-RR
 --------------------------------------------------------
     1   Atom        1.332752      1.332752     -2.665504
     2   Atom        1.332752      1.332752     -2.665504
 --------------------------------------------------------
                        XY            XZ            YZ
 --------------------------------------------------------
     1   Atom        0.000000     -0.000000      0.000000
     2   Atom        0.000000     -0.000000      0.000000
 --------------------------------------------------------


 ---------------------------------------------------------------------------------
              Anisotropic Spin Dipole Couplings in Principal Axis System
 ---------------------------------------------------------------------------------

       Atom             a.u.   MegaHertz   Gauss  10(-4) cm-1        Axes

              Baa    -2.6655  -109.283   -38.995   -36.453  0.0000  0.0000  1.0000
     1 S(33)  Bbb     1.3328    54.642    19.497    18.226  1.0000 -0.0011 -0.0000
              Bcc     1.3328    54.642    19.497    18.226  0.0011  1.0000  0.0000
 
              Baa    -2.6655  -109.283   -38.995   -36.453  0.0000  0.0000  1.0000
     2 S(33)  Bbb     1.3328    54.642    19.497    18.226  1.0000 -0.0017 -0.0000
              Bcc     1.3328    54.642    19.497    18.226  0.0017  1.0000  0.0000
 

 ---------------------------------------------------------------------------------

 PrsmSu:  requested number of processors reduced to:  21 ShMem   1 Linda.
 No NMR shielding tensors so no spin-rotation constants.
 Leave Link  601 at Sat Apr 17 20:37:08 2021, MaxMem=   104857600 cpu:             280.6 elap:               6.2
 (Enter /s/ls4/users/knvvv/bin/g16sse/l9999.exe)

 Test job not archived.
 1\1\GINC-N153\Stability\UM062X\Gen\S2(3)\KNVVV\17-Apr-2021\0\\#P M062X
 /GEN Integral=UltraFineGrid SCF=NoSymm Stable=(RExt, Opt) IOp(1/33=1)\
 \Database calculations.\\0,3\S,0,0.,0.,0.\S,0,0.,0.,1.89688459\\Versio
 n=ES64L-G16RevA.03\State=3-SGG\HF=-796.3828503\S2=2.012733\S2-1=0.\S2A
 =2.000077\RMSD=3.332e-09\Dipole=0.,0.,0.\Quadrupole=-0.4876732,-0.4876
 732,0.9753464,0.,0.,0.\PG=D*H [C*(S1.S1)]\\@


 OF ALL THE WONDERS OF THE UNIVERSE, THE GREATEST IS MAN.

                                    -- ARISTOTLE
 Job cpu time:       0 days  4 hours 22 minutes  6.6 seconds.
 Elapsed time:       0 days  0 hours  6 minutes  3.1 seconds.
 File lengths (MBytes):  RWF=    137 Int=      0 D2E=      0 Chk=      5 Scr=      1
 Normal termination of Gaussian 16 at Sat Apr 17 20:37:08 2021.
