 Entering Gaussian System, Link 0=/s/ls4/users/knvvv/bin/g16sse/g16
 Input=data/database/M062X--BE4--Z_005_BE4_O.gjf
 Output=data/database/M062X--BE4--Z_005_BE4_O.log
 Initial command:
 /s/ls4/users/knvvv/bin/g16sse/l1.exe "/s/ls4/users/knvvv/bin/scratch/Gau-39648.inp" -scrdir="/s/ls4/users/knvvv/bin/scratch/"
 Entering Link 1 = /s/ls4/users/knvvv/bin/g16sse/l1.exe PID=     39649.
  
 Copyright (c) 1988,1990,1992,1993,1995,1998,2003,2009,2016,
            Gaussian, Inc.  All Rights Reserved.
  
 This is part of the Gaussian(R) 16 program.  It is based on
 the Gaussian(R) 09 system (copyright 2009, Gaussian, Inc.),
 the Gaussian(R) 03 system (copyright 2003, Gaussian, Inc.),
 the Gaussian(R) 98 system (copyright 1998, Gaussian, Inc.),
 the Gaussian(R) 94 system (copyright 1995, Gaussian, Inc.),
 the Gaussian 92(TM) system (copyright 1992, Gaussian, Inc.),
 the Gaussian 90(TM) system (copyright 1990, Gaussian, Inc.),
 the Gaussian 88(TM) system (copyright 1988, Gaussian, Inc.),
 the Gaussian 86(TM) system (copyright 1986, Carnegie Mellon
 University), and the Gaussian 82(TM) system (copyright 1983,
 Carnegie Mellon University). Gaussian is a federally registered
 trademark of Gaussian, Inc.
  
 This software contains proprietary and confidential information,
 including trade secrets, belonging to Gaussian, Inc.
  
 This software is provided under written license and may be
 used, copied, transmitted, or stored only in accord with that
 written license.
  
 The following legend is applicable only to US Government
 contracts under FAR:
  
                    RESTRICTED RIGHTS LEGEND
  
 Use, reproduction and disclosure by the US Government is
 subject to restrictions as set forth in subparagraphs (a)
 and (c) of the Commercial Computer Software - Restricted
 Rights clause in FAR 52.227-19.
  
 Gaussian, Inc.
 340 Quinnipiac St., Bldg. 40, Wallingford CT 06492
  
  
 ---------------------------------------------------------------
 Warning -- This program may not be used in any manner that
 competes with the business of Gaussian, Inc. or will provide
 assistance to any competitor of Gaussian, Inc.  The licensee
 of this program is prohibited from giving any competitor of
 Gaussian, Inc. access to this program.  By using this program,
 the user acknowledges that Gaussian, Inc. is engaged in the
 business of creating and licensing software in the field of
 computational chemistry and represents and warrants to the
 licensee that it is not a competitor of Gaussian, Inc. and that
 it will not use this program in any manner prohibited above.
 ---------------------------------------------------------------
  

 Cite this work as:
 Gaussian 16, Revision A.03,
 M. J. Frisch, G. W. Trucks, H. B. Schlegel, G. E. Scuseria, 
 M. A. Robb, J. R. Cheeseman, G. Scalmani, V. Barone, 
 G. A. Petersson, H. Nakatsuji, X. Li, M. Caricato, A. V. Marenich, 
 J. Bloino, B. G. Janesko, R. Gomperts, B. Mennucci, H. P. Hratchian, 
 J. V. Ortiz, A. F. Izmaylov, J. L. Sonnenberg, D. Williams-Young, 
 F. Ding, F. Lipparini, F. Egidi, J. Goings, B. Peng, A. Petrone, 
 T. Henderson, D. Ranasinghe, V. G. Zakrzewski, J. Gao, N. Rega, 
 G. Zheng, W. Liang, M. Hada, M. Ehara, K. Toyota, R. Fukuda, 
 J. Hasegawa, M. Ishida, T. Nakajima, Y. Honda, O. Kitao, H. Nakai, 
 T. Vreven, K. Throssell, J. A. Montgomery, Jr., J. E. Peralta, 
 F. Ogliaro, M. J. Bearpark, J. J. Heyd, E. N. Brothers, K. N. Kudin, 
 V. N. Staroverov, T. A. Keith, R. Kobayashi, J. Normand, 
 K. Raghavachari, A. P. Rendell, J. C. Burant, S. S. Iyengar, 
 J. Tomasi, M. Cossi, J. M. Millam, M. Klene, C. Adamo, R. Cammi, 
 J. W. Ochterski, R. L. Martin, K. Morokuma, O. Farkas, 
 J. B. Foresman, and D. J. Fox, Gaussian, Inc., Wallingford CT, 2016.
 
 ******************************************
 Gaussian 16:  ES64L-G16RevA.03 25-Dec-2016
                16-Apr-2021 
 ******************************************
 %RWF=temp16_51798,70GB
 %nprocshared=48
 Will use up to   48 processors via shared memory.
 Default route: MaxDisk=80GB
 ----------------------------------------------------------------------
 #P M062X/GEN Integral=UltraFineGrid SCF=NoSymm Stable=(RExt, Opt) IOp(
 1/33=1)
 ----------------------------------------------------------------------
 1/33=1,38=1,172=1/1;
 2/12=2,17=6,18=5,40=1/2;
 3/5=7,11=2,25=1,30=1,74=-55,75=-5/1,2,3;
 4/9=2/1;
 5/5=2,38=5/2;
 6/7=2,8=2,9=2,10=2,28=1/1;
 8/6=1,10=90,11=11/1;
 9/8=-3,42=1,46=1/14;
 5/5=2,8=3,17=40,38=5/8(-2);
 6/7=2,8=2,9=2,10=2,28=1/1;
 99/5=1,9=1/99;
 Leave Link    1 at Fri Apr 16 22:49:57 2021, MaxMem=           0 cpu:               8.2 elap:               0.2
 (Enter /s/ls4/users/knvvv/bin/g16sse/l101.exe)
 ONIOM data not found on unit 2.
 ----------------------
 Database calculations.
 ----------------------
 TstMul:  ICh=     0
 TstMul:  Mul=     3
 TstMul:  ICh=     0
 TstMul:  Mul=     3
 Symbolic Z-matrix:
 Charge =  0 Multiplicity = 3
 O                     0.        0.        0. 
 
 RdStrC is calling ZToCFu for IStruc=1 NZ=     1.
 PrtBox:  NBox=     1 Levels=  0 BoxLen=    8.00 SMaxX=        0.00
          Shift=            0.000000            0.000000            0.000000
 Box      1 Number                   0 centers from      1 to      1:
 After GenITR:
 ITRead=  0
 MicOpt= -1
 ITRead=  0
 MicOpt= -1
 NAtoms=      1 NQM=        1 NQMF=       0 NMMI=      0 NMMIF=      0
                NMic=       0 NMicF=      0.
                    Isotopes and Nuclear Properties:
 (Nuclear quadrupole moments (NQMom) in fm**2, nuclear magnetic moments (NMagM)
  in nuclear magnetons)

  Atom         1
 IAtWgt=          16
 AtmWgt=  15.9949146
 NucSpn=           0
 AtZEff=  -0.0000000
 NQMom=    0.0000000
 NMagM=    0.0000000
 AtZNuc=   8.0000000
 No MM parameters found.
 Leave Link  101 at Fri Apr 16 22:49:57 2021, MaxMem=   104857600 cpu:               6.8 elap:               0.2
 (Enter /s/ls4/users/knvvv/bin/g16sse/l202.exe)
                          Input orientation:                          
 ---------------------------------------------------------------------
 Center     Atomic      Atomic             Coordinates (Angstroms)
 Number     Number       Type             X           Y           Z
 ---------------------------------------------------------------------
      1          8           0        0.000000    0.000000    0.000000
 ---------------------------------------------------------------------
 Stoichiometry    O(3)
 Framework group  OH[O(O)]
 Deg. of freedom     0
 Full point group                 OH      NOp  48
 Largest Abelian subgroup         D2H     NOp   8
 Largest concise Abelian subgroup C1      NOp   1
                         Standard orientation:                         
 ---------------------------------------------------------------------
 Center     Atomic      Atomic             Coordinates (Angstroms)
 Number     Number       Type             X           Y           Z
 ---------------------------------------------------------------------
      1          8           0        0.000000    0.000000    0.000000
 ---------------------------------------------------------------------
 Leave Link  202 at Fri Apr 16 22:49:57 2021, MaxMem=   104857600 cpu:              30.8 elap:               0.7
 (Enter /s/ls4/users/knvvv/bin/g16sse/l301.exe)
 General basis read from cards:  (5D, 7F)
 Centers:       1
 S 12 1.00
     Exponent=  6.1420000000D+04 Coefficients=  9.0000000000D-05
     Exponent=  9.1990000000D+03 Coefficients=  6.9800000000D-04
     Exponent=  2.0910000000D+03 Coefficients=  3.6640000000D-03
     Exponent=  5.9090000000D+02 Coefficients=  1.5218000000D-02
     Exponent=  1.9230000000D+02 Coefficients=  5.2423000000D-02
     Exponent=  6.9320000000D+01 Coefficients=  1.4592100000D-01
     Exponent=  2.6970000000D+01 Coefficients=  3.0525800000D-01
     Exponent=  1.1100000000D+01 Coefficients=  3.9850800000D-01
     Exponent=  4.6820000000D+00 Coefficients=  2.1698000000D-01
     Exponent=  1.4280000000D+00 Coefficients=  1.7594000000D-02
     Exponent=  5.5470000000D-01 Coefficients= -2.5020000000D-03
     Exponent=  2.0670000000D-01 Coefficients=  9.5400000000D-04
 S 12 1.00
     Exponent=  6.1420000000D+04 Coefficients= -2.0000000000D-05
     Exponent=  9.1990000000D+03 Coefficients= -1.5900000000D-04
     Exponent=  2.0910000000D+03 Coefficients= -8.2900000000D-04
     Exponent=  5.9090000000D+02 Coefficients= -3.5080000000D-03
     Exponent=  1.9230000000D+02 Coefficients= -1.2156000000D-02
     Exponent=  6.9320000000D+01 Coefficients= -3.6261000000D-02
     Exponent=  2.6970000000D+01 Coefficients= -8.2992000000D-02
     Exponent=  1.1100000000D+01 Coefficients= -1.5209000000D-01
     Exponent=  4.6820000000D+00 Coefficients= -1.1533100000D-01
     Exponent=  1.4280000000D+00 Coefficients=  2.8897900000D-01
     Exponent=  5.5470000000D-01 Coefficients=  5.8612800000D-01
     Exponent=  2.0670000000D-01 Coefficients=  2.7762400000D-01
 S 1 1.00
     Exponent=  9.3881000000D+01 Coefficients=  1.0000000000D+00
 S 1 1.00
     Exponent=  3.4900000000D+01 Coefficients=  1.0000000000D+00
 S 1 1.00
     Exponent=  1.2974000000D+01 Coefficients=  1.0000000000D+00
 S 1 1.00
     Exponent=  1.4280000000D+00 Coefficients=  1.0000000000D+00
 S 1 1.00
     Exponent=  5.5470000000D-01 Coefficients=  1.0000000000D+00
 S 1 1.00
     Exponent=  2.0670000000D-01 Coefficients=  1.0000000000D+00
 S 1 1.00
     Exponent=  6.9590000000D-02 Coefficients=  1.0000000000D+00
 P 6 1.00
     Exponent=  6.3420000000D+01 Coefficients=  6.0440000000D-03
     Exponent=  1.4660000000D+01 Coefficients=  4.1799000000D-02
     Exponent=  4.4590000000D+00 Coefficients=  1.6114300000D-01
     Exponent=  1.5310000000D+00 Coefficients=  3.5673100000D-01
     Exponent=  5.3020000000D-01 Coefficients=  4.4830900000D-01
     Exponent=  1.7500000000D-01 Coefficients=  2.4494000000D-01
 P 1 1.00
     Exponent=  1.2614000000D+02 Coefficients=  1.0000000000D+00
 P 1 1.00
     Exponent=  4.2730000000D+01 Coefficients=  1.0000000000D+00
 P 1 1.00
     Exponent=  1.4475000000D+01 Coefficients=  1.0000000000D+00
 P 1 1.00
     Exponent=  1.5310000000D+00 Coefficients=  1.0000000000D+00
 P 1 1.00
     Exponent=  5.3020000000D-01 Coefficients=  1.0000000000D+00
 P 1 1.00
     Exponent=  1.7500000000D-01 Coefficients=  1.0000000000D+00
 P 1 1.00
     Exponent=  5.3480000000D-02 Coefficients=  1.0000000000D+00
 D 1 1.00
     Exponent=  5.7544000000D+01 Coefficients=  1.0000000000D+00
 D 1 1.00
     Exponent=  1.4927000000D+01 Coefficients=  1.0000000000D+00
 D 1 1.00
     Exponent=  3.7750000000D+00 Coefficients=  1.0000000000D+00
 D 1 1.00
     Exponent=  1.3000000000D+00 Coefficients=  1.0000000000D+00
 D 1 1.00
     Exponent=  4.4400000000D-01 Coefficients=  1.0000000000D+00
 D 1 1.00
     Exponent=  1.5400000000D-01 Coefficients=  1.0000000000D+00
 F 1 1.00
     Exponent=  2.6483000000D+01 Coefficients=  1.0000000000D+00
 F 1 1.00
     Exponent=  2.6660000000D+00 Coefficients=  1.0000000000D+00
 F 1 1.00
     Exponent=  8.5900000000D-01 Coefficients=  1.0000000000D+00
 F 1 1.00
     Exponent=  3.2400000000D-01 Coefficients=  1.0000000000D+00
 G 1 1.00
     Exponent=  1.8460000000D+00 Coefficients=  1.0000000000D+00
 G 1 1.00
     Exponent=  7.1400000000D-01 Coefficients=  1.0000000000D+00
 ****
 Ernie: Thresh=  0.10000D-02 Tol=  0.10000D-05 Strict=F.
 Ernie:  8 primitive shells out of 56 were deleted.
 There are    39 symmetry adapted cartesian basis functions of AG  symmetry.
 There are    12 symmetry adapted cartesian basis functions of B1G symmetry.
 There are    12 symmetry adapted cartesian basis functions of B2G symmetry.
 There are    12 symmetry adapted cartesian basis functions of B3G symmetry.
 There are     4 symmetry adapted cartesian basis functions of AU  symmetry.
 There are    20 symmetry adapted cartesian basis functions of B1U symmetry.
 There are    20 symmetry adapted cartesian basis functions of B2U symmetry.
 There are    20 symmetry adapted cartesian basis functions of B3U symmetry.
 There are    27 symmetry adapted basis functions of AG  symmetry.
 There are    10 symmetry adapted basis functions of B1G symmetry.
 There are    10 symmetry adapted basis functions of B2G symmetry.
 There are    10 symmetry adapted basis functions of B3G symmetry.
 There are     4 symmetry adapted basis functions of AU  symmetry.
 There are    16 symmetry adapted basis functions of B1U symmetry.
 There are    16 symmetry adapted basis functions of B2U symmetry.
 There are    16 symmetry adapted basis functions of B3U symmetry.
   109 basis functions,   168 primitive gaussians,   139 cartesian basis functions
     5 alpha electrons        3 beta electrons
       nuclear repulsion energy         0.0000000000 Hartrees.
 IExCor= 4336 DFT=T Ex+Corr=M062X ExCW=0 ScaHFX=  0.540000
 ScaDFX=  1.000000  1.000000  1.000000  1.000000 ScalE2=  1.000000  1.000000
 IRadAn=      5 IRanWt=     -1 IRanGd=            0 ICorTp=0 IEmpDi=  4
 NAtoms=    1 NActive=    1 NUniq=    1 SFac= 1.00D+00 NAtFMM=   60 NAOKFM=F Big=F
 Integral buffers will be    131072 words long.
 Raffenetti 2 integral format.
 Two-electron integral symmetry is turned on.
 Leave Link  301 at Fri Apr 16 22:49:58 2021, MaxMem=   104857600 cpu:               8.6 elap:               0.2
 (Enter /s/ls4/users/knvvv/bin/g16sse/l302.exe)
 NPDir=0 NMtPBC=     1 NCelOv=     1 NCel=       1 NClECP=     1 NCelD=      1
         NCelK=      1 NCelE2=     1 NClLst=     1 CellRange=     0.0.
 One-electron integrals computed using PRISM.
 One-electron integral symmetry used in STVInt
 PrsmSu:  requested number of processors reduced to:   4 ShMem   1 Linda.
 PrsmSu:  requested number of processors reduced to:  21 ShMem   1 Linda.
 NBasis=   109 RedAO= T EigKep=  4.43D-04  NBF=    27    10    10    10     4    16    16    16
 NBsUse=   109 1.00D-06 EigRej= -1.00D+00 NBFU=    27    10    10    10     4    16    16    16
 Precomputing XC quadrature grid using
 IXCGrd= 4 IRadAn=           5 IRanWt=          -1 IRanGd=           0 AccXCQ= 0.00D+00.
 Generated NRdTot=       0 NPtTot=           0 NUsed=           0 NTot=          32
 NSgBfM=   139   139   139   139   139 MxSgAt=     1 MxSgA2=     1.
 Leave Link  302 at Fri Apr 16 22:50:13 2021, MaxMem=   104857600 cpu:             716.1 elap:              15.3
 (Enter /s/ls4/users/knvvv/bin/g16sse/l303.exe)
 DipDrv:  MaxL=1.
 Leave Link  303 at Fri Apr 16 22:50:14 2021, MaxMem=   104857600 cpu:              30.8 elap:               0.7
 (Enter /s/ls4/users/knvvv/bin/g16sse/l401.exe)
 SCF N**3 symmetry information disabled.
 ExpMin= 5.35D-02 ExpMax= 6.14D+04 ExpMxC= 5.91D+02 IAcc=3 IRadAn=         5 AccDes= 0.00D+00
 Harris functional with IExCor= 1009 and IRadAn=       5 diagonalized for initial guess.
 HarFok:  IExCor= 1009 AccDes= 0.00D+00 IRadAn=         5 IDoV= 1 UseB2=F ITyADJ=14
 ICtDFT=  3500011 ScaDFX=  1.000000  1.000000  1.000000  1.000000
 FoFCou: FMM=F IPFlag=           0 FMFlag=      100000 FMFlg1=           0
         NFxFlg=           0 DoJE=T BraDBF=F KetDBF=T FulRan=T
         wScrn=  0.000000 ICntrl=       500 IOpCl=  0 I1Cent=   200000004 NGrid=           0
         NMat0=    1 NMatS0=      1 NMatT0=    0 NMatD0=    1 NMtDS0=    0 NMtDT0=    0
 Petite list used in FoFCou.
 CoulSu:  requested number of processors reduced to:  21 ShMem   1 Linda.
 CoulSu:  requested number of processors reduced to:  21 ShMem   1 Linda.
 CoulSu:  requested number of processors reduced to:  21 ShMem   1 Linda.
 CoulSu:  requested number of processors reduced to:  21 ShMem   1 Linda.
 DSYEVD-2 returned Info=        9349 IAlg= 4 N=   109 NDim=   109 NE2=      961608 trying  DSYEV.
 Harris En= -74.9352748583825    
 JPrj=0 DoOrth=F DoCkMO=F.
 Initial guess orbital symmetries:
 Alpha Orbitals:
       Occupied  (A1G) (A1G) (T1U) (T1U) (T1U)
       Virtual   (A1G) (T1U) (T1U) (T1U) (T2G) (T2G) (T2G) (EG)
                 (EG) (T1U) (T1U) (T1U) (A1G) (T2U) (T2U) (T2U)
                 (A2U) (T1U) (T1U) (T1U) (T2G) (T2G) (T2G) (EG)
                 (EG) (T1U) (T1U) (T1U) (A1G) (T1G) (T1G) (T1G)
                 (T2G) (T2G) (T2G) (EG) (EG) (A1G) (T2U) (T2U)
                 (T2U) (A2U) (T1U) (T1U) (T1U) (T2G) (T2G) (T2G)
                 (EG) (EG) (T1U) (T1U) (T1U) (T1G) (T1G) (T1G)
                 (T2G) (T2G) (T2G) (EG) (EG) (A1G) (T2U) (T2U)
                 (T2U) (A2U) (T1U) (T1U) (T1U) (T2G) (T2G) (T2G)
                 (EG) (EG) (A1G) (T1U) (T1U) (T1U) (T2G) (T2G)
                 (T2G) (EG) (EG) (A1G) (?A) (?A) (?A) (?A) (?A)
                 (?A) (?A) (T1U) (T1U) (T1U) (?B) (?B) (?B) (?B)
                 (?B) (A1G) (T1U) (T1U) (T1U) (A1G)
 Beta  Orbitals:
       Occupied  (A1G) (A1G) (T1U)
       Virtual   (T1U) (T1U) (A1G) (T1U) (T1U) (T1U) (T2G) (T2G)
                 (T2G) (EG) (EG) (T1U) (T1U) (T1U) (A1G) (T2U)
                 (T2U) (T2U) (A2U) (T1U) (T1U) (T1U) (T2G) (T2G)
                 (T2G) (EG) (EG) (T1U) (T1U) (T1U) (A1G) (T1G)
                 (T1G) (T1G) (T2G) (T2G) (T2G) (EG) (EG) (A1G)
                 (T2U) (T2U) (T2U) (A2U) (T1U) (T1U) (T1U) (T2G)
                 (T2G) (T2G) (EG) (EG) (T1U) (T1U) (T1U) (T1G)
                 (T1G) (T1G) (T2G) (T2G) (T2G) (EG) (EG) (A1G)
                 (T2U) (T2U) (T2U) (A2U) (T1U) (T1U) (T1U) (T2G)
                 (T2G) (T2G) (EG) (EG) (A1G) (T1U) (T1U) (T1U)
                 (T2G) (T2G) (T2G) (EG) (EG) (A1G) (?A) (?A) (?A)
                 (?A) (?A) (?A) (?A) (T1U) (T1U) (T1U) (?B) (?B)
                 (?B) (?B) (?B) (A1G) (T1U) (T1U) (T1U) (A1G)
 Initial guess <Sx>= 0.0000 <Sy>= 0.0000 <Sz>= 1.0000 <S**2>= 2.0000 S= 1.0000
 Leave Link  401 at Fri Apr 16 22:50:25 2021, MaxMem=   104857600 cpu:             525.1 elap:              11.4
 (Enter /s/ls4/users/knvvv/bin/g16sse/l502.exe)
 Keep R1 and R2 ints in memory in symmetry-blocked form, NReq=72211395.
 FoFCou: FMM=F IPFlag=           0 FMFlag=           0 FMFlg1=           0
         NFxFlg=           0 DoJE=F BraDBF=F KetDBF=F FulRan=T
         wScrn=  0.000000 ICntrl=       600 IOpCl=  0 I1Cent=           0 NGrid=           0
         NMat0=    1 NMatS0=   5995 NMatT0=    0 NMatD0=    1 NMtDS0=    0 NMtDT0=    0
 Petite list used in FoFCou.
 CoulSu:  requested number of processors reduced to:  19 ShMem   1 Linda.
 UHF open shell SCF:
 Using DIIS extrapolation, IDIIS=  1040.
 NGot=   104857600 LenX=   100199449 LenY=   100179687
 Requested convergence on RMS density matrix=1.00D-08 within 128 cycles.
 Requested convergence on MAX density matrix=1.00D-06.
 Requested convergence on             energy=1.00D-06.
 No special actions if energy rises.
 Integral accuracy reduced to 1.0D-05 until final iterations.

 Cycle   1  Pass 0  IDiag  1:
 Density matrix breaks symmetry, PCut= 1.00D-04
 Density has only Abelian symmetry.
 E= -75.0577582855321    
 DIIS: error= 1.06D-01 at cycle   1 NSaved=   1.
 NSaved= 1 IEnMin= 1 EnMin= -75.0577582855321     IErMin= 1 ErrMin= 1.06D-01
 ErrMax= 1.06D-01  0.00D+00 EMaxC= 1.00D-01 BMatC= 4.35D-01 BMatP= 4.35D-01
 IDIUse=3 WtCom= 0.00D+00 WtEn= 1.00D+00
 Coeff-Com:  0.100D+01
 Coeff-En:   0.100D+01
 Coeff:      0.100D+01
 Gap=     0.674 Goal=   None    Shift=    0.000
 Gap=     0.320 Goal=   None    Shift=    0.000
 GapD=    0.320 DampG=1.000 DampE=0.250 DampFc=0.2500 IDamp=-1.
 Damping current iteration by 2.50D-01
 RMSDP=1.92D-03 MaxDP=1.48D-01              OVMax= 6.09D-02

 Cycle   2  Pass 0  IDiag  1:
 Density matrix breaks symmetry, PCut= 1.00D-04
 Density has only Abelian symmetry.
 E= -75.0608203877862     Delta-E=       -0.003062102254 Rises=F Damp=T
 DIIS: error= 7.98D-02 at cycle   2 NSaved=   2.
 NSaved= 2 IEnMin= 2 EnMin= -75.0608203877862     IErMin= 2 ErrMin= 7.98D-02
 ErrMax= 7.98D-02  0.00D+00 EMaxC= 1.00D-01 BMatC= 2.43D-01 BMatP= 4.35D-01
 IDIUse=3 WtCom= 2.02D-01 WtEn= 7.98D-01
 Coeff-Com: -0.284D+01 0.384D+01
 Coeff-En:   0.000D+00 0.100D+01
 Coeff:     -0.573D+00 0.157D+01
 Gap=     0.583 Goal=   None    Shift=    0.000
 Gap=     0.304 Goal=   None    Shift=    0.000
 RMSDP=1.25D-03 MaxDP=9.74D-02 DE=-3.06D-03 OVMax= 1.27D-02

 Cycle   3  Pass 0  IDiag  1:
 Density matrix breaks symmetry, PCut= 1.00D-04
 Density has only Abelian symmetry.
 E= -75.0697485260934     Delta-E=       -0.008928138307 Rises=F Damp=F
 DIIS: error= 6.22D-03 at cycle   3 NSaved=   3.
 NSaved= 3 IEnMin= 3 EnMin= -75.0697485260934     IErMin= 3 ErrMin= 6.22D-03
 ErrMax= 6.22D-03  0.00D+00 EMaxC= 1.00D-01 BMatC= 1.87D-03 BMatP= 2.43D-01
 IDIUse=3 WtCom= 9.38D-01 WtEn= 6.22D-02
 Coeff-Com:  0.181D+01-0.242D+01 0.161D+01
 Coeff-En:   0.000D+00 0.000D+00 0.100D+01
 Coeff:      0.170D+01-0.227D+01 0.157D+01
 Gap=     0.570 Goal=   None    Shift=    0.000
 Gap=     0.303 Goal=   None    Shift=    0.000
 RMSDP=2.89D-04 MaxDP=3.39D-02 DE=-8.93D-03 OVMax= 1.39D-02

 Cycle   4  Pass 0  IDiag  1:
 Density matrix breaks symmetry, PCut= 1.00D-04
 Density has only Abelian symmetry.
 E= -75.0701747093834     Delta-E=       -0.000426183290 Rises=F Damp=F
 DIIS: error= 9.56D-04 at cycle   4 NSaved=   4.
 NSaved= 4 IEnMin= 4 EnMin= -75.0701747093834     IErMin= 4 ErrMin= 9.56D-04
 ErrMax= 9.56D-04  0.00D+00 EMaxC= 1.00D-01 BMatC= 4.51D-05 BMatP= 1.87D-03
 IDIUse=3 WtCom= 9.90D-01 WtEn= 9.56D-03
 Coeff-Com: -0.523D+00 0.697D+00-0.512D+00 0.134D+01
 Coeff-En:   0.000D+00 0.000D+00 0.000D+00 0.100D+01
 Coeff:     -0.518D+00 0.691D+00-0.507D+00 0.133D+01
 Gap=     0.569 Goal=   None    Shift=    0.000
 Gap=     0.301 Goal=   None    Shift=    0.000
 RMSDP=1.01D-04 MaxDP=9.04D-03 DE=-4.26D-04 OVMax= 3.78D-03

 Cycle   5  Pass 0  IDiag  1:
 Density matrix breaks symmetry, PCut= 1.00D-04
 Density has only Abelian symmetry.
 E= -75.0701968760935     Delta-E=       -0.000022166710 Rises=F Damp=F
 DIIS: error= 1.76D-04 at cycle   5 NSaved=   5.
 NSaved= 5 IEnMin= 5 EnMin= -75.0701968760935     IErMin= 5 ErrMin= 1.76D-04
 ErrMax= 1.76D-04  0.00D+00 EMaxC= 1.00D-01 BMatC= 1.38D-06 BMatP= 4.51D-05
 IDIUse=3 WtCom= 9.98D-01 WtEn= 1.76D-03
 Coeff-Com: -0.480D-01 0.646D-01-0.448D-01-0.369D-01 0.107D+01
 Coeff-En:   0.000D+00 0.000D+00 0.000D+00 0.000D+00 0.100D+01
 Coeff:     -0.479D-01 0.645D-01-0.447D-01-0.368D-01 0.106D+01
 Gap=     0.570 Goal=   None    Shift=    0.000
 Gap=     0.301 Goal=   None    Shift=    0.000
 RMSDP=1.30D-05 MaxDP=1.47D-03 DE=-2.22D-05 OVMax= 6.94D-04

 Cycle   6  Pass 0  IDiag  1:
 Density matrix breaks symmetry, PCut= 1.00D-04
 Density has only Abelian symmetry.
 E= -75.0701974166229     Delta-E=       -0.000000540529 Rises=F Damp=F
 DIIS: error= 2.69D-05 at cycle   6 NSaved=   6.
 NSaved= 6 IEnMin= 6 EnMin= -75.0701974166229     IErMin= 6 ErrMin= 2.69D-05
 ErrMax= 2.69D-05  0.00D+00 EMaxC= 1.00D-01 BMatC= 5.64D-08 BMatP= 1.38D-06
 IDIUse=1 WtCom= 1.00D+00 WtEn= 0.00D+00
 Coeff-Com:  0.584D-02-0.783D-02 0.873D-02-0.782D-02-0.247D+00 0.125D+01
 Coeff:      0.584D-02-0.783D-02 0.873D-02-0.782D-02-0.247D+00 0.125D+01
 Gap=     0.570 Goal=   None    Shift=    0.000
 Gap=     0.301 Goal=   None    Shift=    0.000
 RMSDP=2.59D-06 MaxDP=2.50D-04 DE=-5.41D-07 OVMax= 1.26D-04

 Initial convergence to 1.0D-05 achieved.  Increase integral accuracy.
 Cycle   7  Pass 1  IDiag  1:
 Density matrix breaks symmetry, PCut= 1.00D-04
 Density has only Abelian symmetry.
 E= -75.0702038597125     Delta-E=       -0.000006443090 Rises=F Damp=F
 DIIS: error= 1.73D-04 at cycle   1 NSaved=   1.
 NSaved= 1 IEnMin= 1 EnMin= -75.0702038597125     IErMin= 1 ErrMin= 1.73D-04
 ErrMax= 1.73D-04  0.00D+00 EMaxC= 1.00D-01 BMatC= 8.46D-07 BMatP= 8.46D-07
 IDIUse=3 WtCom= 9.98D-01 WtEn= 1.73D-03
 Coeff-Com:  0.100D+01
 Coeff-En:   0.100D+01
 Coeff:      0.100D+01
 Gap=     0.570 Goal=   None    Shift=    0.000
 Gap=     0.301 Goal=   None    Shift=    0.000
 RMSDP=2.59D-06 MaxDP=2.50D-04 DE=-6.44D-06 OVMax= 5.76D-05

 Cycle   8  Pass 1  IDiag  1:
 Density matrix breaks symmetry, PCut= 1.00D-04
 Density has only Abelian symmetry.
 E= -75.0702038972677     Delta-E=       -0.000000037555 Rises=F Damp=F
 DIIS: error= 6.23D-06 at cycle   2 NSaved=   2.
 NSaved= 2 IEnMin= 2 EnMin= -75.0702038972677     IErMin= 2 ErrMin= 6.23D-06
 ErrMax= 6.23D-06  0.00D+00 EMaxC= 1.00D-01 BMatC= 3.70D-09 BMatP= 8.46D-07
 IDIUse=1 WtCom= 1.00D+00 WtEn= 0.00D+00
 Coeff-Com: -0.314D-01 0.103D+01
 Coeff:     -0.314D-01 0.103D+01
 Gap=     0.570 Goal=   None    Shift=    0.000
 Gap=     0.301 Goal=   None    Shift=    0.000
 RMSDP=1.73D-07 MaxDP=1.19D-05 DE=-3.76D-08 OVMax= 6.55D-06

 Cycle   9  Pass 1  IDiag  1:
 Density matrix breaks symmetry, PCut= 1.00D-04
 Density has only Abelian symmetry.
 E= -75.0702038975507     Delta-E=       -0.000000000283 Rises=F Damp=F
 DIIS: error= 9.44D-07 at cycle   3 NSaved=   3.
 NSaved= 3 IEnMin= 3 EnMin= -75.0702038975507     IErMin= 3 ErrMin= 9.44D-07
 ErrMax= 9.44D-07  0.00D+00 EMaxC= 1.00D-01 BMatC= 8.60D-11 BMatP= 3.70D-09
 IDIUse=1 WtCom= 1.00D+00 WtEn= 0.00D+00
 Coeff-Com: -0.259D-02-0.165D-01 0.102D+01
 Coeff:     -0.259D-02-0.165D-01 0.102D+01
 Gap=     0.570 Goal=   None    Shift=    0.000
 Gap=     0.301 Goal=   None    Shift=    0.000
 RMSDP=8.28D-08 MaxDP=6.47D-06 DE=-2.83D-10 OVMax= 3.00D-06

 Cycle  10  Pass 1  IDiag  1:
 Density matrix breaks symmetry, PCut= 1.00D-04
 Density has only Abelian symmetry.
 E= -75.0702038975598     Delta-E=       -0.000000000009 Rises=F Damp=F
 DIIS: error= 7.04D-07 at cycle   4 NSaved=   4.
 NSaved= 4 IEnMin= 4 EnMin= -75.0702038975598     IErMin= 4 ErrMin= 7.04D-07
 ErrMax= 7.04D-07  0.00D+00 EMaxC= 1.00D-01 BMatC= 2.74D-11 BMatP= 8.60D-11
 IDIUse=1 WtCom= 1.00D+00 WtEn= 0.00D+00
 Coeff-Com:  0.442D-03-0.413D-01 0.370D+00 0.671D+00
 Coeff:      0.442D-03-0.413D-01 0.370D+00 0.671D+00
 Gap=     0.570 Goal=   None    Shift=    0.000
 Gap=     0.301 Goal=   None    Shift=    0.000
 RMSDP=2.76D-08 MaxDP=1.81D-06 DE=-9.12D-12 OVMax= 6.57D-07

 Cycle  11  Pass 1  IDiag  1:
 Density matrix breaks symmetry, PCut= 1.00D-04
 Density has only Abelian symmetry.
 E= -75.0702038975637     Delta-E=       -0.000000000004 Rises=F Damp=F
 DIIS: error= 5.03D-08 at cycle   5 NSaved=   5.
 NSaved= 5 IEnMin= 5 EnMin= -75.0702038975637     IErMin= 5 ErrMin= 5.03D-08
 ErrMax= 5.03D-08  0.00D+00 EMaxC= 1.00D-01 BMatC= 7.75D-14 BMatP= 2.74D-11
 IDIUse=1 WtCom= 1.00D+00 WtEn= 0.00D+00
 Coeff-Com:  0.245D-04 0.466D-02-0.567D-01-0.786D-01 0.113D+01
 Coeff:      0.245D-04 0.466D-02-0.567D-01-0.786D-01 0.113D+01
 Gap=     0.570 Goal=   None    Shift=    0.000
 Gap=     0.301 Goal=   None    Shift=    0.000
 RMSDP=2.71D-09 MaxDP=3.33D-07 DE=-3.92D-12 OVMax= 1.71D-07

 Density matrix breaks symmetry, PCut= 1.00D-04
 Density has only Abelian symmetry.
 SCF Done:  E(UM062X) =  -75.0702038976     A.U. after   11 cycles
            NFock= 11  Conv=0.27D-08     -V/T= 2.0024
 <Sx>= 0.0000 <Sy>= 0.0000 <Sz>= 1.0000 <S**2>= 2.0054 S= 1.0018
 <L.S>= 0.000000000000E+00
 KE= 7.489074854845D+01 PE=-1.780877631142D+02 EE= 2.812681066822D+01
 Annihilation of the first spin contaminant:
 S**2 before annihilation     2.0054,   after     2.0000
 Leave Link  502 at Fri Apr 16 22:53:17 2021, MaxMem=   104857600 cpu:            8050.3 elap:             171.6
 (Enter /s/ls4/users/knvvv/bin/g16sse/l601.exe)
 Copying SCF densities to generalized density rwf, IOpCl= 1 IROHF=0.
 SCF density gives NOpUse=  8 NOpAll= 48.
 Marking SCF density as not fully symmetric.

 **********************************************************************

            Population analysis using the SCF density.

 **********************************************************************

 Orbital symmetries:
 Alpha Orbitals:
       Occupied  (A1G) (?A) (?B) (?B) (?B)
       Virtual   (?B) (?B) (?A) (?B) (?A) (?C) (?C) (?C) (?A) (?B)
                 (?B) (?B) (?A) (?B) (?B) (?B) (?B) (A2U) (?B)
                 (?B) (?C) (?A) (?C) (?C) (?A) (?B) (?B) (?B) (?A)
                 (?C) (?A) (?C) (?C) (?A) (?C) (?C) (?C) (?A) (?D)
                 (?D) (?D) (A2U) (?D) (?D) (?D) (T2G) (?A) (T2G)
                 (T2G) (?A) (?E) (?E) (?E) (?F) (T2G) (?F) (?F)
                 (?F) (T2G) (?F) (?F) (T2G) (?E) (?E) (?E) (A2U)
                 (?E) (?E) (?E) (T2G) (T2G) (T2G) (T2G) (T2G) (T2G)
                 (T1U) (T1U) (T1U) (T2G) (EG) (T2G) (T2G) (EG)
                 (A1G) (?D) (?D) (?D) (A2U) (?D) (?D) (?D) (T1U)
                 (T1U) (T1U) (T2G) (EG) (T2G) (T2G) (EG) (A1G)
                 (T1U) (T1U) (T1U) (A1G)
 Beta  Orbitals:
       Occupied  (A1G) (?A) (?B)
       Virtual   (?B) (?B) (?A) (?B) (?B) (?B) (?A) (T2G) (?A)
                 (T2G) (T2G) (?B) (?B) (?B) (?A) (?B) (?B) (?B)
                 (?B) (A2U) (?B) (?B) (?C) (?A) (?C) (?C) (?A)
                 (?B) (?B) (?B) (?C) (?A) (?C) (?C) (?A) (?C) (?A)
                 (?C) (?C) (?A) (?B) (?B) (A2U) (?B) (?B) (?B)
                 (?B) (?C) (?A) (?A) (?C) (?C) (?D) (?D) (?D) (?E)
                 (?E) (?A) (?E) (?E) (?A) (?E) (?A) (?E) (?D) (?D)
                 (?D) (A2U) (?D) (?D) (?D) (?E) (?E) (?A) (?E)
                 (?A) (?A) (T1U) (T1U) (T1U) (EG) (T2G) (T2G) (T2G)
                 (EG) (A1G) (?F) (?F) (?F) (?F) (A2U) (?F) (?F)
                 (T1U) (T1U) (T1U) (T2G) (EG) (T2G) (T2G) (EG)
                 (A1G) (T1U) (T1U) (T1U) (A1G)
 Unable to determine electronic state:  an orbital has unidentified symmetry.
 Alpha  occ. eigenvalues --  -19.76725  -1.14836  -0.55031  -0.55031  -0.48416
 Alpha virt. eigenvalues --    0.08591   0.08591   0.08882   0.09308   0.41113
 Alpha virt. eigenvalues --    0.41226   0.41226   0.41660   0.41660   0.59464
 Alpha virt. eigenvalues --    0.59464   0.60605   0.74150   1.22659   1.22659
 Alpha virt. eigenvalues --    1.22665   1.22748   1.22748   1.23284   1.23284
 Alpha virt. eigenvalues --    1.32155   1.32155   1.34582   1.34582   1.35100
 Alpha virt. eigenvalues --    2.35800   2.35800   2.39899   3.34899   3.39026
 Alpha virt. eigenvalues --    3.39026   3.39488   3.39488   3.39882   3.39882
 Alpha virt. eigenvalues --    3.40165   3.40165   3.40283   3.69721   3.69721
 Alpha virt. eigenvalues --    3.71247   3.71247   3.72150   3.72150   3.72619
 Alpha virt. eigenvalues --    3.91595   3.91595   3.95612   3.95612   3.97088
 Alpha virt. eigenvalues --    8.63740   8.63740   8.72291   9.91282   9.91282
 Alpha virt. eigenvalues --    9.93989   9.93989   9.96333   9.96333   9.97867
 Alpha virt. eigenvalues --    9.97867   9.98348  10.98453  10.98453  11.03414
 Alpha virt. eigenvalues --   11.03414  11.06514  11.06514  11.07733  11.73810
 Alpha virt. eigenvalues --   11.73810  11.80461  11.80461  11.82359  15.55092
 Alpha virt. eigenvalues --   31.90438  31.90438  31.96972  45.86136  45.86136
 Alpha virt. eigenvalues --   45.91432  45.91432  45.93820  61.43501 101.67006
 Alpha virt. eigenvalues --  101.67006 101.69240 101.69240 101.71005 101.71005
 Alpha virt. eigenvalues --  101.71633 114.83871 114.83871 114.87567 196.07020
 Alpha virt. eigenvalues --  196.07020 196.09100 196.09100 196.09975 212.21059
 Alpha virt. eigenvalues --  389.64528 389.64528 389.66188 881.73998
  Beta  occ. eigenvalues --  -19.73055  -0.96274  -0.41218
  Beta virt. eigenvalues --   -0.11143  -0.11143   0.06688   0.09300   0.10841
  Beta virt. eigenvalues --    0.10841   0.33750   0.33750   0.37517   0.38837
  Beta virt. eigenvalues --    0.38837   0.58049   0.58049   0.60130   0.74126
  Beta virt. eigenvalues --    1.08117   1.08117   1.16203   1.16203   1.16977
  Beta virt. eigenvalues --    1.16977   1.18617   1.34428   1.34428   1.36253
  Beta virt. eigenvalues --    1.36253   1.36512   2.41999   2.45176   2.45176
  Beta virt. eigenvalues --    3.24937   3.24937   3.32595   3.32595   3.33037
  Beta virt. eigenvalues --    3.33037   3.34134   3.34246   3.34246   3.44807
  Beta virt. eigenvalues --    3.67240   3.67240   3.69607   3.69607   3.69948
  Beta virt. eigenvalues --    3.69948   3.71236   3.96654   3.96654   3.99117
  Beta virt. eigenvalues --    3.99405   3.99405   8.72714   8.76512   8.76512
  Beta virt. eigenvalues --    9.93962   9.93962   9.96726   9.97151   9.97151
  Beta virt. eigenvalues --    9.99153   9.99153   9.99488   9.99488  11.15160
  Beta virt. eigenvalues --   11.20496  11.20496  11.24251  11.24251  11.29221
  Beta virt. eigenvalues --   11.29221  11.96945  11.96945  11.99930  12.13862
  Beta virt. eigenvalues --   12.13863  15.71513  32.08045  32.27899  32.27899
  Beta virt. eigenvalues --   45.99355  46.00337  46.00337  46.04794  46.04794
  Beta virt. eigenvalues --   61.74549 101.82305 101.82936 101.82936 101.85675
  Beta virt. eigenvalues --  101.85675 101.90285 101.90285 114.82319 114.82319
  Beta virt. eigenvalues --  114.87367 195.99863 195.99863 196.03466 196.03466
  Beta virt. eigenvalues --  196.06230 212.15072 389.58492 389.58492 389.61551
  Beta virt. eigenvalues --  881.89638
          Condensed to atoms (all electrons):
               1
     1  O    8.000000
          Atomic-Atomic Spin Densities.
               1
     1  O    2.000000
 Mulliken charges and spin densities:
               1          2
     1  O   -0.000000   2.000000
 Sum of Mulliken charges =  -0.00000   2.00000
 Mulliken charges and spin densities with hydrogens summed into heavy atoms:
               1          2
     1  O   -0.000000   2.000000
 Electronic spatial extent (au):  <R**2>=             11.4966
 Charge=             -0.0000 electrons
 Dipole moment (field-independent basis, Debye):
    X=              0.0000    Y=              0.0000    Z=             -0.0000  Tot=              0.0000
 Quadrupole moment (field-independent basis, Debye-Ang):
   XX=             -5.9882   YY=             -4.7376   ZZ=             -4.7376
   XY=             -0.0000   XZ=              0.0000   YZ=             -0.0000
 Traceless Quadrupole moment (field-independent basis, Debye-Ang):
   XX=             -0.8338   YY=              0.4169   ZZ=              0.4169
   XY=             -0.0000   XZ=              0.0000   YZ=             -0.0000
 Octapole moment (field-independent basis, Debye-Ang**2):
  XXX=             -0.0000  YYY=              0.0000  ZZZ=              0.0000  XYY=              0.0000
  XXY=              0.0000  XXZ=             -0.0000  XZZ=              0.0000  YZZ=             -0.0000
  YYZ=              0.0000  XYZ=             -0.0000
 Hexadecapole moment (field-independent basis, Debye-Ang**3):
 XXXX=             -5.4186 YYYY=             -3.3703 ZZZZ=             -3.3703 XXXY=             -0.0000
 XXXZ=              0.0000 YYYX=             -0.0000 YYYZ=             -0.0000 ZZZX=              0.0000
 ZZZY=              0.0000 XXYY=             -1.4690 XXZZ=             -1.4690 YYZZ=             -1.1234
 XXYZ=             -0.0000 YYXZ=              0.0000 ZZXY=             -0.0000
 N-N= 0.000000000000D+00 E-N=-1.780877634067D+02  KE= 7.489074854845D+01
                          Isotropic Fermi Contact Couplings
        Atom                 a.u.       MegaHertz       Gauss      10(-4) cm-1
     1  O(17)              0.25902     -78.50809     -28.01364     -26.18748
 PrsmSu:  requested number of processors reduced to:  21 ShMem   1 Linda.
 --------------------------------------------------------
       Center         ----  Spin Dipole Couplings  ----
                      3XX-RR        3YY-RR        3ZZ-RR
 --------------------------------------------------------
     1   Atom       -4.013889      2.006944      2.006944
 --------------------------------------------------------
                        XY            XZ            YZ
 --------------------------------------------------------
     1   Atom        0.000000      0.000000      0.000000
 --------------------------------------------------------


 ---------------------------------------------------------------------------------
              Anisotropic Spin Dipole Couplings in Principal Axis System
 ---------------------------------------------------------------------------------

       Atom             a.u.   MegaHertz   Gauss  10(-4) cm-1        Axes

              Baa    -4.0139   290.442   103.637    96.881  1.0000  0.0000  0.0000
     1 O(17)  Bbb     2.0069  -145.221   -51.818   -48.441 -0.0000  1.0000  0.0000
              Bcc     2.0069  -145.221   -51.818   -48.441  0.0000  0.0000  1.0000
 

 ---------------------------------------------------------------------------------

 PrsmSu:  requested number of processors reduced to:  21 ShMem   1 Linda.
 No NMR shielding tensors so no spin-rotation constants.
 Leave Link  601 at Fri Apr 16 22:53:29 2021, MaxMem=   104857600 cpu:             589.7 elap:              12.7
 (Enter /s/ls4/users/knvvv/bin/g16sse/l801.exe)
 DoSCS=F DFT=T ScalE2(SS,OS)=  1.000000  1.000000
 Range of M.O.s used for correlation:     1   109
 NBasis=   109 NAE=     5 NBE=     3 NFC=     0 NFV=     0
 NROrb=    109 NOA=     5 NOB=     3 NVA=   104 NVB=   106

 **** Warning!!: The largest alpha MO coefficient is  0.40872995D+02


 **** Warning!!: The largest beta MO coefficient is  0.40873016D+02

 Leave Link  801 at Fri Apr 16 22:53:29 2021, MaxMem=   104857600 cpu:               5.1 elap:               0.1
 (Enter /s/ls4/users/knvvv/bin/g16sse/l914.exe)
 UHF ground state
 Doing stability rather than CIS.
 Two-electron integrals replicated using symmetry.
 MDV=   104857600 DFT=T DoStab=T Mixed=T DoRPA=F DoScal=F NonHer=F
 Making orbital integer symmetry assigments:
 Orbital symmetries:
 Alpha Orbitals:
       Occupied  (A1G) (?A) (?B) (?B) (?B)
       Virtual   (?B) (?B) (?A) (?B) (?A) (?C) (?C) (?C) (?A) (?B)
                 (?B) (?B) (?A) (?B) (?B) (?B) (?B) (A2U) (?B)
                 (?B) (?C) (?A) (?C) (?C) (?A) (?B) (?B) (?B) (?A)
                 (?C) (?A) (?C) (?C) (?A) (?C) (?C) (?C) (?A) (?D)
                 (?D) (?D) (A2U) (?D) (?D) (?D) (T2G) (?A) (T2G)
                 (T2G) (?A) (?E) (?E) (?E) (?F) (T2G) (?F) (?F)
                 (?F) (T2G) (?F) (?F) (T2G) (?E) (?E) (?E) (A2U)
                 (?E) (?E) (?E) (T2G) (T2G) (T2G) (T2G) (T2G) (T2G)
                 (T1U) (T1U) (T1U) (T2G) (EG) (T2G) (T2G) (EG)
                 (A1G) (?D) (?D) (?D) (A2U) (?D) (?D) (?D) (T1U)
                 (T1U) (T1U) (T2G) (EG) (T2G) (T2G) (EG) (A1G)
                 (T1U) (T1U) (T1U) (A1G)
 Beta  Orbitals:
       Occupied  (A1G) (?A) (?B)
       Virtual   (?B) (?B) (?A) (?B) (?B) (?B) (?A) (T2G) (?A)
                 (T2G) (T2G) (?B) (?B) (?B) (?A) (?B) (?B) (?B)
                 (?B) (A2U) (?B) (?B) (?C) (?A) (?C) (?C) (?A)
                 (?B) (?B) (?B) (?C) (?A) (?C) (?C) (?A) (?C) (?A)
                 (?C) (?C) (?A) (?B) (?B) (A2U) (?B) (?B) (?B)
                 (?B) (?C) (?A) (?A) (?C) (?C) (?D) (?D) (?D) (?E)
                 (?E) (?A) (?E) (?E) (?A) (?E) (?A) (?E) (?D) (?D)
                 (?D) (A2U) (?D) (?D) (?D) (?E) (?E) (?A) (?E)
                 (?A) (?A) (T1U) (T1U) (T1U) (EG) (T2G) (T2G) (T2G)
                 (EG) (A1G) (?F) (?F) (?F) (?F) (A2U) (?F) (?F)
                 (T1U) (T1U) (T1U) (T2G) (EG) (T2G) (T2G) (EG)
                 (A1G) (T1U) (T1U) (T1U) (A1G)
    24 initial guesses have been made.
 Convergence on wavefunction:    0.001000000000000
 Davidson Disk Diagonalization:  ConvIn= 1.00D-03 SkipCon=T Conv= 1.00D-03.
 Max sub-space:  1676 roots to seek:    24 dimension of matrix:          838
 Iteration     1 Dimension    24 NMult     0 NNew     24
 Estimated number of processors is:   20
 CISAX will form     1 AO SS matrices at one time.
 NMat=     1 NSing=     1 JSym2X= 2.
 FoFJK:  IHMeth= 1 ICntrl=       0 DoSepK=F KAlg= 0 I1Cent=           0 FoldK=F
 IRaf= 990000000 NMat=       1 IRICut=       1 DoRegI=T DoRafI=F ISym2E= 2 IDoP0=0 IntGTp=1.
 FoFCou: FMM=F IPFlag=           0 FMFlag=      100000 FMFlg1=           0
         NFxFlg=           0 DoJE=F BraDBF=F KetDBF=F FulRan=T
         wScrn=  0.000000 ICntrl=         0 IOpCl=  1 I1Cent=           0 NGrid=           0
         NMat0=    1 NMatS0=      1 NMatT0=    0 NMatD0=    1 NMtDS0=    0 NMtDT0=    0
 Integrals replicated using symmetry in FoFCou.
 CoulSu:  requested number of processors reduced to:  20 ShMem   1 Linda.
 NMat=     1 NSing=     1 JSym2X= 2.
 CoulSu:  requested number of processors reduced to:  20 ShMem   1 Linda.
 NMat=     1 NSing=     1 JSym2X= 2.
 CoulSu:  requested number of processors reduced to:  20 ShMem   1 Linda.
 NMat=     1 NSing=     1 JSym2X= 2.
 CoulSu:  requested number of processors reduced to:  20 ShMem   1 Linda.
 NMat=     1 NSing=     1 JSym2X= 2.
 CoulSu:  requested number of processors reduced to:  20 ShMem   1 Linda.
 NMat=     1 NSing=     1 JSym2X= 2.
 CoulSu:  requested number of processors reduced to:  20 ShMem   1 Linda.
 NMat=     1 NSing=     1 JSym2X= 2.
 CoulSu:  requested number of processors reduced to:  20 ShMem   1 Linda.
 NMat=     1 NSing=     1 JSym2X= 2.
 CoulSu:  requested number of processors reduced to:  20 ShMem   1 Linda.
 NMat=     1 NSing=     1 JSym2X= 2.
 CoulSu:  requested number of processors reduced to:  20 ShMem   1 Linda.
 NMat=     1 NSing=     1 JSym2X= 2.
 CoulSu:  requested number of processors reduced to:  20 ShMem   1 Linda.
 NMat=     1 NSing=     1 JSym2X= 2.
 CoulSu:  requested number of processors reduced to:  20 ShMem   1 Linda.
 NMat=     1 NSing=     1 JSym2X= 2.
 CoulSu:  requested number of processors reduced to:  20 ShMem   1 Linda.
 NMat=     1 NSing=     1 JSym2X= 2.
 CoulSu:  requested number of processors reduced to:  20 ShMem   1 Linda.
 NMat=     1 NSing=     1 JSym2X= 2.
 CoulSu:  requested number of processors reduced to:  20 ShMem   1 Linda.
 NMat=     1 NSing=     1 JSym2X= 2.
 CoulSu:  requested number of processors reduced to:  20 ShMem   1 Linda.
 NMat=     1 NSing=     1 JSym2X= 2.
 CoulSu:  requested number of processors reduced to:  20 ShMem   1 Linda.
 NMat=     1 NSing=     1 JSym2X= 2.
 CoulSu:  requested number of processors reduced to:  20 ShMem   1 Linda.
 NMat=     1 NSing=     1 JSym2X= 2.
 CoulSu:  requested number of processors reduced to:  20 ShMem   1 Linda.
 NMat=     1 NSing=     1 JSym2X= 2.
 CoulSu:  requested number of processors reduced to:  20 ShMem   1 Linda.
 NMat=     1 NSing=     1 JSym2X= 2.
 CoulSu:  requested number of processors reduced to:  20 ShMem   1 Linda.
 NMat=     1 NSing=     1 JSym2X= 2.
 CoulSu:  requested number of processors reduced to:  20 ShMem   1 Linda.
 NMat=     1 NSing=     1 JSym2X= 2.
 CoulSu:  requested number of processors reduced to:  20 ShMem   1 Linda.
 NMat=     1 NSing=     1 JSym2X= 2.
 CoulSu:  requested number of processors reduced to:  20 ShMem   1 Linda.
 NMat=     1 NSing=     1 JSym2X= 2.
 CoulSu:  requested number of processors reduced to:  20 ShMem   1 Linda.
 Excitation Energies [eV] at current iteration:
 Root      1 :     0.454929238002603
 Root      2 :     0.454929238003014
 Root      3 :     9.761888113254299
 Root      4 :    10.852092969843490
 Root      5 :    10.852092969860730
 Root      6 :    11.159440218299650
 Root      7 :    11.984538860289760
 Root      8 :    12.512398393727690
 Root      9 :    12.512398393730770
 Root     10 :    13.033876504914290
 Root     11 :    13.489995119973710
 Root     12 :    13.616150962009040
 Root     13 :    14.298380035014190
 Root     14 :    14.298382320094710
 Root     15 :    14.317439438112010
 Root     16 :    14.451220382655710
 Root     17 :    14.451220382659470
 Root     18 :    15.912708433541380
 Root     19 :    16.025361740641210
 Root     20 :    17.132475569750200
 Root     21 :    17.132689957883650
 Root     22 :    17.795932398815070
 Root     23 :    18.362392942946570
 Root     24 :    18.797435807842560
 Iteration     2 Dimension    48 NMult    24 NNew     24
 Estimated number of processors is:   20
 CISAX will form     1 AO SS matrices at one time.
 NMat=     1 NSing=     1 JSym2X= 2.
 CoulSu:  requested number of processors reduced to:  20 ShMem   1 Linda.
 NMat=     1 NSing=     1 JSym2X= 2.
 CoulSu:  requested number of processors reduced to:  20 ShMem   1 Linda.
 NMat=     1 NSing=     1 JSym2X= 2.
 CoulSu:  requested number of processors reduced to:  20 ShMem   1 Linda.
 NMat=     1 NSing=     1 JSym2X= 2.
 CoulSu:  requested number of processors reduced to:  20 ShMem   1 Linda.
 NMat=     1 NSing=     1 JSym2X= 2.
 CoulSu:  requested number of processors reduced to:  20 ShMem   1 Linda.
 NMat=     1 NSing=     1 JSym2X= 2.
 CoulSu:  requested number of processors reduced to:  20 ShMem   1 Linda.
 NMat=     1 NSing=     1 JSym2X= 2.
 CoulSu:  requested number of processors reduced to:  20 ShMem   1 Linda.
 NMat=     1 NSing=     1 JSym2X= 2.
 CoulSu:  requested number of processors reduced to:  20 ShMem   1 Linda.
 NMat=     1 NSing=     1 JSym2X= 2.
 CoulSu:  requested number of processors reduced to:  20 ShMem   1 Linda.
 NMat=     1 NSing=     1 JSym2X= 2.
 CoulSu:  requested number of processors reduced to:  20 ShMem   1 Linda.
 NMat=     1 NSing=     1 JSym2X= 2.
 CoulSu:  requested number of processors reduced to:  20 ShMem   1 Linda.
 NMat=     1 NSing=     1 JSym2X= 2.
 CoulSu:  requested number of processors reduced to:  20 ShMem   1 Linda.
 NMat=     1 NSing=     1 JSym2X= 2.
 CoulSu:  requested number of processors reduced to:  20 ShMem   1 Linda.
 NMat=     1 NSing=     1 JSym2X= 2.
 CoulSu:  requested number of processors reduced to:  20 ShMem   1 Linda.
 NMat=     1 NSing=     1 JSym2X= 2.
 CoulSu:  requested number of processors reduced to:  20 ShMem   1 Linda.
 NMat=     1 NSing=     1 JSym2X= 2.
 CoulSu:  requested number of processors reduced to:  20 ShMem   1 Linda.
 NMat=     1 NSing=     1 JSym2X= 2.
 CoulSu:  requested number of processors reduced to:  20 ShMem   1 Linda.
 NMat=     1 NSing=     1 JSym2X= 2.
 CoulSu:  requested number of processors reduced to:  20 ShMem   1 Linda.
 NMat=     1 NSing=     1 JSym2X= 2.
 CoulSu:  requested number of processors reduced to:  20 ShMem   1 Linda.
 NMat=     1 NSing=     1 JSym2X= 2.
 CoulSu:  requested number of processors reduced to:  20 ShMem   1 Linda.
 NMat=     1 NSing=     1 JSym2X= 2.
 CoulSu:  requested number of processors reduced to:  20 ShMem   1 Linda.
 NMat=     1 NSing=     1 JSym2X= 2.
 CoulSu:  requested number of processors reduced to:  20 ShMem   1 Linda.
 NMat=     1 NSing=     1 JSym2X= 2.
 CoulSu:  requested number of processors reduced to:  20 ShMem   1 Linda.
 NMat=     1 NSing=     1 JSym2X= 2.
 CoulSu:  requested number of processors reduced to:  20 ShMem   1 Linda.
 Root      1 not converged, maximum delta is    0.094715155465319
 Excitation Energies [eV] at current iteration:
 Root      1 :     0.001379386633014   Change is   -0.453549851369589
 Root      2 :     0.001379386633503   Change is   -0.453549851369511
 Root      3 :     9.605952027373938   Change is   -0.155936085880360
 Root      4 :    10.679505594574770   Change is   -0.479934623724875
 Root      5 :    10.753998839959190   Change is   -0.098094129884296
 Root      6 :    10.753998839974070   Change is   -0.098094129886659
 Root      7 :    11.739952186966190   Change is   -0.244586673323573
 Root      8 :    11.829954676599730   Change is   -4.082753756941651
 Root      9 :    12.335731932200670   Change is   -0.176666461527021
 Root     10 :    12.335731932202830   Change is   -0.176666461527945
 Root     11 :    12.673283738743220   Change is   -0.360592766171070
 Root     12 :    13.269562344348980   Change is   -0.346588617660052
 Root     13 :    13.688394495742270   Change is    0.198399375768550
 Root     14 :    13.944971814367760   Change is   -0.353408220646429
 Root     15 :    13.944973458721400   Change is   -0.353408861373309
 Root     16 :    14.264398606998230   Change is   -0.186821775657483
 Root     17 :    14.264398607001170   Change is   -0.186821775658305
 Root     18 :    14.266335779153230   Change is   -0.051103658958777
 Root     19 :    15.285225283617720   Change is   -0.740136457023491
 Root     20 :    17.044328948467780   Change is   -0.088146621282419
 Root     21 :    17.044529910994240   Change is   -0.088160046889407
 Root     22 :    17.521861746559790   Change is   -0.274070652255288
 Root     23 :    17.560083780626130   Change is   -0.802309162320440
 Root     24 :    18.264835535811250   Change is   -0.532600272031319
 Iteration     3 Dimension    51 NMult    48 NNew      3
 Estimated number of processors is:   20
 CISAX will form     1 AO SS matrices at one time.
 NMat=     1 NSing=     1 JSym2X= 2.
 CoulSu:  requested number of processors reduced to:  20 ShMem   1 Linda.
 NMat=     1 NSing=     1 JSym2X= 2.
 CoulSu:  requested number of processors reduced to:  20 ShMem   1 Linda.
 NMat=     1 NSing=     1 JSym2X= 2.
 CoulSu:  requested number of processors reduced to:  20 ShMem   1 Linda.
 Root      1 not converged, maximum delta is    0.061176686368216
 Excitation Energies [eV] at current iteration:
 Root      1 :     0.000074073006638   Change is   -0.001305313626376
 Root      2 :     0.000074073007097   Change is   -0.001305313626406
 Root      3 :     9.602207628965541   Change is   -0.003744398408398
 Iteration     4 Dimension    54 NMult    51 NNew      3
 Estimated number of processors is:   20
 CISAX will form     1 AO SS matrices at one time.
 NMat=     1 NSing=     1 JSym2X= 2.
 CoulSu:  requested number of processors reduced to:  20 ShMem   1 Linda.
 NMat=     1 NSing=     1 JSym2X= 2.
 CoulSu:  requested number of processors reduced to:  20 ShMem   1 Linda.
 NMat=     1 NSing=     1 JSym2X= 2.
 CoulSu:  requested number of processors reduced to:  20 ShMem   1 Linda.
 Root      1 not converged, maximum delta is    0.028192888239960
 Excitation Energies [eV] at current iteration:
 Root      1 :     0.000072415643284   Change is   -0.000001657363354
 Root      2 :     0.000072415643731   Change is   -0.000001657363366
 Root      3 :     9.602168606498681   Change is   -0.000039022466859
 Iteration     5 Dimension    57 NMult    54 NNew      3
 Estimated number of processors is:   20
 CISAX will form     1 AO SS matrices at one time.
 NMat=     1 NSing=     1 JSym2X= 2.
 CoulSu:  requested number of processors reduced to:  20 ShMem   1 Linda.
 NMat=     1 NSing=     1 JSym2X= 2.
 CoulSu:  requested number of processors reduced to:  20 ShMem   1 Linda.
 NMat=     1 NSing=     1 JSym2X= 2.
 CoulSu:  requested number of processors reduced to:  20 ShMem   1 Linda.
 Root      1 not converged, maximum delta is    0.017310171978844
 Excitation Energies [eV] at current iteration:
 Root      1 :     0.000072412265914   Change is   -0.000000003377370
 Root      2 :     0.000072412266374   Change is   -0.000000003377358
 Root      3 :     9.602168262920603   Change is   -0.000000343578078
 Iteration     6 Dimension    58 NMult    57 NNew      1
 Estimated number of processors is:   20
 CISAX will form     1 AO SS matrices at one time.
 NMat=     1 NSing=     1 JSym2X= 2.
 CoulSu:  requested number of processors reduced to:  20 ShMem   1 Linda.
 Root      1 not converged, maximum delta is    0.009880550661366
 Excitation Energies [eV] at current iteration:
 Root      1 :     0.000072412265872   Change is   -0.000000000000042
 Root      2 :     0.000072412266337   Change is   -0.000000000000036
 Root      3 :     9.602168257791496   Change is   -0.000000005129107
 Convergence on energies, max DE= 5.13D-09.
 Convergence achieved on expansion vectors.
 ***********************************************************************
 Stability analysis using <AA,BB:AA,BB> singles matrix:
 ***********************************************************************
 1PDM for each excited state written to RWF  633
 Ground to excited state transition densities written to RWF  633

 Eigenvectors of the stability matrix:
 
 Excited state symmetry could not be determined.
 Eigenvector   1:  3.005-?Sym  Eigenvalue= 0.0000027  <S**2>=2.007
      3B ->  4B       -0.67324
      3B ->  5B        0.70192
      3B ->  9B        0.19017
 
 Excited state symmetry could not be determined.
 Eigenvector   2:  3.005-?Sym  Eigenvalue= 0.0000027  <S**2>=2.007
      3B ->  4B        0.70192
      3B ->  5B        0.67324
      3B ->  8B       -0.19017
 
 Excited state symmetry could not be determined.
 Eigenvector   3:  3.658-?Sym  Eigenvalue= 0.3528732  <S**2>=3.095
      3B ->  6B        0.99450
 The wavefunction is stable under the perturbations considered.
 Leave Link  914 at Fri Apr 16 22:55:13 2021, MaxMem=   104857600 cpu:            3937.8 elap:             103.7
 (Enter /s/ls4/users/knvvv/bin/g16sse/l508.exe)
 The wavefunction is already stable.
 Leave Link  508 at Fri Apr 16 22:55:13 2021, MaxMem=   104857600 cpu:               2.4 elap:               0.1
 (Enter /s/ls4/users/knvvv/bin/g16sse/l601.exe)
 Copying SCF densities to generalized density rwf, IOpCl= 1 IROHF=0.
 SCF density gives NOpUse=  8 NOpAll= 48.
 Marking SCF density as not fully symmetric.

 **********************************************************************

            Population analysis using the SCF density.

 **********************************************************************

 Orbital symmetries:
 Alpha Orbitals:
       Occupied  (A1G) (?A) (?B) (?B) (?B)
       Virtual   (?B) (?B) (?A) (?B) (?A) (?C) (?C) (?C) (?A) (?B)
                 (?B) (?B) (?A) (?B) (?B) (?B) (?B) (A2U) (?B)
                 (?B) (?C) (?A) (?C) (?C) (?A) (?B) (?B) (?B) (?A)
                 (?C) (?A) (?C) (?C) (?A) (?C) (?C) (?C) (?A) (?D)
                 (?D) (?D) (A2U) (?D) (?D) (?D) (T2G) (?A) (T2G)
                 (T2G) (?A) (?E) (?E) (?E) (?F) (T2G) (?F) (?F)
                 (?F) (T2G) (?F) (?F) (T2G) (?E) (?E) (?E) (A2U)
                 (?E) (?E) (?E) (T2G) (T2G) (T2G) (T2G) (T2G) (T2G)
                 (T1U) (T1U) (T1U) (T2G) (EG) (T2G) (T2G) (EG)
                 (A1G) (?D) (?D) (?D) (A2U) (?D) (?D) (?D) (T1U)
                 (T1U) (T1U) (T2G) (EG) (T2G) (T2G) (EG) (A1G)
                 (T1U) (T1U) (T1U) (A1G)
 Beta  Orbitals:
       Occupied  (A1G) (?A) (?B)
       Virtual   (?B) (?B) (?A) (?B) (?B) (?B) (?A) (T2G) (?A)
                 (T2G) (T2G) (?B) (?B) (?B) (?A) (?B) (?B) (?B)
                 (?B) (A2U) (?B) (?B) (?C) (?A) (?C) (?C) (?A)
                 (?B) (?B) (?B) (?C) (?A) (?C) (?C) (?A) (?C) (?A)
                 (?C) (?C) (?A) (?B) (?B) (A2U) (?B) (?B) (?B)
                 (?B) (?C) (?A) (?A) (?C) (?C) (?D) (?D) (?D) (?E)
                 (?E) (?A) (?E) (?E) (?A) (?E) (?A) (?E) (?D) (?D)
                 (?D) (A2U) (?D) (?D) (?D) (?E) (?E) (?A) (?E)
                 (?A) (?A) (T1U) (T1U) (T1U) (EG) (T2G) (T2G) (T2G)
                 (EG) (A1G) (?F) (?F) (?F) (?F) (A2U) (?F) (?F)
                 (T1U) (T1U) (T1U) (T2G) (EG) (T2G) (T2G) (EG)
                 (A1G) (T1U) (T1U) (T1U) (A1G)
 Unable to determine electronic state:  an orbital has unidentified symmetry.
 Alpha  occ. eigenvalues --  -19.76725  -1.14836  -0.55031  -0.55031  -0.48416
 Alpha virt. eigenvalues --    0.08591   0.08591   0.08882   0.09308   0.41113
 Alpha virt. eigenvalues --    0.41226   0.41226   0.41660   0.41660   0.59464
 Alpha virt. eigenvalues --    0.59464   0.60605   0.74150   1.22659   1.22659
 Alpha virt. eigenvalues --    1.22665   1.22748   1.22748   1.23284   1.23284
 Alpha virt. eigenvalues --    1.32155   1.32155   1.34582   1.34582   1.35100
 Alpha virt. eigenvalues --    2.35800   2.35800   2.39899   3.34899   3.39026
 Alpha virt. eigenvalues --    3.39026   3.39488   3.39488   3.39882   3.39882
 Alpha virt. eigenvalues --    3.40165   3.40165   3.40283   3.69721   3.69721
 Alpha virt. eigenvalues --    3.71247   3.71247   3.72150   3.72150   3.72619
 Alpha virt. eigenvalues --    3.91595   3.91595   3.95612   3.95612   3.97088
 Alpha virt. eigenvalues --    8.63740   8.63740   8.72291   9.91282   9.91282
 Alpha virt. eigenvalues --    9.93989   9.93989   9.96333   9.96333   9.97867
 Alpha virt. eigenvalues --    9.97867   9.98348  10.98453  10.98453  11.03414
 Alpha virt. eigenvalues --   11.03414  11.06514  11.06514  11.07733  11.73810
 Alpha virt. eigenvalues --   11.73810  11.80461  11.80461  11.82359  15.55092
 Alpha virt. eigenvalues --   31.90438  31.90438  31.96972  45.86136  45.86136
 Alpha virt. eigenvalues --   45.91432  45.91432  45.93820  61.43501 101.67006
 Alpha virt. eigenvalues --  101.67006 101.69240 101.69240 101.71005 101.71005
 Alpha virt. eigenvalues --  101.71633 114.83871 114.83871 114.87567 196.07020
 Alpha virt. eigenvalues --  196.07020 196.09100 196.09100 196.09975 212.21059
 Alpha virt. eigenvalues --  389.64528 389.64528 389.66188 881.73998
  Beta  occ. eigenvalues --  -19.73055  -0.96274  -0.41218
  Beta virt. eigenvalues --   -0.11143  -0.11143   0.06688   0.09300   0.10841
  Beta virt. eigenvalues --    0.10841   0.33750   0.33750   0.37517   0.38837
  Beta virt. eigenvalues --    0.38837   0.58049   0.58049   0.60130   0.74126
  Beta virt. eigenvalues --    1.08117   1.08117   1.16203   1.16203   1.16977
  Beta virt. eigenvalues --    1.16977   1.18617   1.34428   1.34428   1.36253
  Beta virt. eigenvalues --    1.36253   1.36512   2.41999   2.45176   2.45176
  Beta virt. eigenvalues --    3.24937   3.24937   3.32595   3.32595   3.33037
  Beta virt. eigenvalues --    3.33037   3.34134   3.34246   3.34246   3.44807
  Beta virt. eigenvalues --    3.67240   3.67240   3.69607   3.69607   3.69948
  Beta virt. eigenvalues --    3.69948   3.71236   3.96654   3.96654   3.99117
  Beta virt. eigenvalues --    3.99405   3.99405   8.72714   8.76512   8.76512
  Beta virt. eigenvalues --    9.93962   9.93962   9.96726   9.97151   9.97151
  Beta virt. eigenvalues --    9.99153   9.99153   9.99488   9.99488  11.15160
  Beta virt. eigenvalues --   11.20496  11.20496  11.24251  11.24251  11.29221
  Beta virt. eigenvalues --   11.29221  11.96945  11.96945  11.99930  12.13862
  Beta virt. eigenvalues --   12.13863  15.71513  32.08045  32.27899  32.27899
  Beta virt. eigenvalues --   45.99355  46.00337  46.00337  46.04794  46.04794
  Beta virt. eigenvalues --   61.74549 101.82305 101.82936 101.82936 101.85675
  Beta virt. eigenvalues --  101.85675 101.90285 101.90285 114.82319 114.82319
  Beta virt. eigenvalues --  114.87367 195.99863 195.99863 196.03466 196.03466
  Beta virt. eigenvalues --  196.06230 212.15072 389.58492 389.58492 389.61551
  Beta virt. eigenvalues --  881.89638
          Condensed to atoms (all electrons):
               1
     1  O    8.000000
          Atomic-Atomic Spin Densities.
               1
     1  O    2.000000
 Mulliken charges and spin densities:
               1          2
     1  O   -0.000000   2.000000
 Sum of Mulliken charges =  -0.00000   2.00000
 Mulliken charges and spin densities with hydrogens summed into heavy atoms:
               1          2
     1  O   -0.000000   2.000000
 Electronic spatial extent (au):  <R**2>=             11.4966
 Charge=             -0.0000 electrons
 Dipole moment (field-independent basis, Debye):
    X=              0.0000    Y=              0.0000    Z=             -0.0000  Tot=              0.0000
 Quadrupole moment (field-independent basis, Debye-Ang):
   XX=             -5.9882   YY=             -4.7376   ZZ=             -4.7376
   XY=             -0.0000   XZ=              0.0000   YZ=             -0.0000
 Traceless Quadrupole moment (field-independent basis, Debye-Ang):
   XX=             -0.8338   YY=              0.4169   ZZ=              0.4169
   XY=             -0.0000   XZ=              0.0000   YZ=             -0.0000
 Octapole moment (field-independent basis, Debye-Ang**2):
  XXX=             -0.0000  YYY=              0.0000  ZZZ=              0.0000  XYY=              0.0000
  XXY=              0.0000  XXZ=             -0.0000  XZZ=              0.0000  YZZ=             -0.0000
  YYZ=              0.0000  XYZ=             -0.0000
 Hexadecapole moment (field-independent basis, Debye-Ang**3):
 XXXX=             -5.4186 YYYY=             -3.3703 ZZZZ=             -3.3703 XXXY=             -0.0000
 XXXZ=              0.0000 YYYX=             -0.0000 YYYZ=             -0.0000 ZZZX=              0.0000
 ZZZY=              0.0000 XXYY=             -1.4690 XXZZ=             -1.4690 YYZZ=             -1.1234
 XXYZ=             -0.0000 YYXZ=              0.0000 ZZXY=             -0.0000
 N-N= 0.000000000000D+00 E-N=-1.780877634067D+02  KE= 7.489074854845D+01
                          Isotropic Fermi Contact Couplings
        Atom                 a.u.       MegaHertz       Gauss      10(-4) cm-1
     1  O(17)              0.25902     -78.50809     -28.01364     -26.18748
 PrsmSu:  requested number of processors reduced to:  21 ShMem   1 Linda.
 --------------------------------------------------------
       Center         ----  Spin Dipole Couplings  ----
                      3XX-RR        3YY-RR        3ZZ-RR
 --------------------------------------------------------
     1   Atom       -4.013889      2.006944      2.006944
 --------------------------------------------------------
                        XY            XZ            YZ
 --------------------------------------------------------
     1   Atom        0.000000      0.000000      0.000000
 --------------------------------------------------------


 ---------------------------------------------------------------------------------
              Anisotropic Spin Dipole Couplings in Principal Axis System
 ---------------------------------------------------------------------------------

       Atom             a.u.   MegaHertz   Gauss  10(-4) cm-1        Axes

              Baa    -4.0139   290.442   103.637    96.881  1.0000  0.0000  0.0000
     1 O(17)  Bbb     2.0069  -145.221   -51.818   -48.441 -0.0000  1.0000  0.0000
              Bcc     2.0069  -145.221   -51.818   -48.441  0.0000  0.0000  1.0000
 

 ---------------------------------------------------------------------------------

 PrsmSu:  requested number of processors reduced to:  21 ShMem   1 Linda.
 No NMR shielding tensors so no spin-rotation constants.
 Leave Link  601 at Fri Apr 16 22:55:24 2021, MaxMem=   104857600 cpu:             486.6 elap:              10.6
 (Enter /s/ls4/users/knvvv/bin/g16sse/l9999.exe)

 Test job not archived.
 1\1\GINC-N182\Stability\UM062X\Gen\O1(3)\KNVVV\16-Apr-2021\0\\#P M062X
 /GEN Integral=UltraFineGrid SCF=NoSymm Stable=(RExt, Opt) IOp(1/33=1)\
 \Database calculations.\\0,3\O,0,0.,0.,0.\\Version=ES64L-G16RevA.03\HF
 =-75.0702039\S2=2.005363\S2-1=0.\S2A=2.00001\RMSD=2.714e-09\Dipole=0.,
 0.,0.\Quadrupole=0.3099475,0.3099475,-0.6198949,0.,0.,0.\PG=OH [O(O1)]
 \\@


 E PUR SI MUOVE    -- GALILEO GALILEI
 Job cpu time:       0 days  4 hours  0 minutes  5.8 seconds.
 Elapsed time:       0 days  0 hours  5 minutes 27.7 seconds.
 File lengths (MBytes):  RWF=     37 Int=      0 D2E=      0 Chk=      3 Scr=      1
 Normal termination of Gaussian 16 at Fri Apr 16 22:55:24 2021.
