 Entering Gaussian System, Link 0=/s/ls4/users/knvvv/bin/g16sse/g16
 Input=data/database/M062X--def2-QZVPPD--21_OH-_EA13.gjf
 Output=data/database/M062X--def2-QZVPPD--21_OH-_EA13.log
 Initial command:
 /s/ls4/users/knvvv/bin/g16sse/l1.exe "/s/ls4/users/knvvv/bin/scratch/Gau-29698.inp" -scrdir="/s/ls4/users/knvvv/bin/scratch/"
 Entering Link 1 = /s/ls4/users/knvvv/bin/g16sse/l1.exe PID=     29699.
  
 Copyright (c) 1988,1990,1992,1993,1995,1998,2003,2009,2016,
            Gaussian, Inc.  All Rights Reserved.
  
 This is part of the Gaussian(R) 16 program.  It is based on
 the Gaussian(R) 09 system (copyright 2009, Gaussian, Inc.),
 the Gaussian(R) 03 system (copyright 2003, Gaussian, Inc.),
 the Gaussian(R) 98 system (copyright 1998, Gaussian, Inc.),
 the Gaussian(R) 94 system (copyright 1995, Gaussian, Inc.),
 the Gaussian 92(TM) system (copyright 1992, Gaussian, Inc.),
 the Gaussian 90(TM) system (copyright 1990, Gaussian, Inc.),
 the Gaussian 88(TM) system (copyright 1988, Gaussian, Inc.),
 the Gaussian 86(TM) system (copyright 1986, Carnegie Mellon
 University), and the Gaussian 82(TM) system (copyright 1983,
 Carnegie Mellon University). Gaussian is a federally registered
 trademark of Gaussian, Inc.
  
 This software contains proprietary and confidential information,
 including trade secrets, belonging to Gaussian, Inc.
  
 This software is provided under written license and may be
 used, copied, transmitted, or stored only in accord with that
 written license.
  
 The following legend is applicable only to US Government
 contracts under FAR:
  
                    RESTRICTED RIGHTS LEGEND
  
 Use, reproduction and disclosure by the US Government is
 subject to restrictions as set forth in subparagraphs (a)
 and (c) of the Commercial Computer Software - Restricted
 Rights clause in FAR 52.227-19.
  
 Gaussian, Inc.
 340 Quinnipiac St., Bldg. 40, Wallingford CT 06492
  
  
 ---------------------------------------------------------------
 Warning -- This program may not be used in any manner that
 competes with the business of Gaussian, Inc. or will provide
 assistance to any competitor of Gaussian, Inc.  The licensee
 of this program is prohibited from giving any competitor of
 Gaussian, Inc. access to this program.  By using this program,
 the user acknowledges that Gaussian, Inc. is engaged in the
 business of creating and licensing software in the field of
 computational chemistry and represents and warrants to the
 licensee that it is not a competitor of Gaussian, Inc. and that
 it will not use this program in any manner prohibited above.
 ---------------------------------------------------------------
  

 Cite this work as:
 Gaussian 16, Revision A.03,
 M. J. Frisch, G. W. Trucks, H. B. Schlegel, G. E. Scuseria, 
 M. A. Robb, J. R. Cheeseman, G. Scalmani, V. Barone, 
 G. A. Petersson, H. Nakatsuji, X. Li, M. Caricato, A. V. Marenich, 
 J. Bloino, B. G. Janesko, R. Gomperts, B. Mennucci, H. P. Hratchian, 
 J. V. Ortiz, A. F. Izmaylov, J. L. Sonnenberg, D. Williams-Young, 
 F. Ding, F. Lipparini, F. Egidi, J. Goings, B. Peng, A. Petrone, 
 T. Henderson, D. Ranasinghe, V. G. Zakrzewski, J. Gao, N. Rega, 
 G. Zheng, W. Liang, M. Hada, M. Ehara, K. Toyota, R. Fukuda, 
 J. Hasegawa, M. Ishida, T. Nakajima, Y. Honda, O. Kitao, H. Nakai, 
 T. Vreven, K. Throssell, J. A. Montgomery, Jr., J. E. Peralta, 
 F. Ogliaro, M. J. Bearpark, J. J. Heyd, E. N. Brothers, K. N. Kudin, 
 V. N. Staroverov, T. A. Keith, R. Kobayashi, J. Normand, 
 K. Raghavachari, A. P. Rendell, J. C. Burant, S. S. Iyengar, 
 J. Tomasi, M. Cossi, J. M. Millam, M. Klene, C. Adamo, R. Cammi, 
 J. W. Ochterski, R. L. Martin, K. Morokuma, O. Farkas, 
 J. B. Foresman, and D. J. Fox, Gaussian, Inc., Wallingford CT, 2016.
 
 ******************************************
 Gaussian 16:  ES64L-G16RevA.03 25-Dec-2016
                17-Apr-2021 
 ******************************************
 %RWF=temp23_99387,70GB
 %nprocshared=48
 Will use up to   48 processors via shared memory.
 Default route: MaxDisk=80GB
 ----------------------------------------------------------------------
 #P M062X/GEN Integral=UltraFineGrid SCF=NoSymm Stable=(RExt, Opt) IOp(
 1/33=1)
 ----------------------------------------------------------------------
 1/33=1,38=1,172=1/1;
 2/12=2,17=6,18=5,40=1/2;
 3/5=7,11=2,25=1,30=1,74=-55,75=-5/1,2,3;
 4/9=2/1;
 5/5=2,38=5/2;
 6/7=2,8=2,9=2,10=2,28=1/1;
 8/6=1,10=90,11=11/1;
 9/8=-3,42=1,46=1/14;
 5/5=2,8=3,17=40,38=5/8(-2);
 6/7=2,8=2,9=2,10=2,28=1/1;
 99/5=1,9=1/99;
 Leave Link    1 at Sat Apr 17 19:24:23 2021, MaxMem=           0 cpu:               9.2 elap:               0.2
 (Enter /s/ls4/users/knvvv/bin/g16sse/l101.exe)
 ONIOM data not found on unit 2.
 ----------------------
 Database calculations.
 ----------------------
 TstMul:  ICh=    -1
 TstMul:  Mul=     1
 TstMul:  ICh=    -1
 TstMul:  Mul=     1
 Symbolic Z-matrix:
 Charge = -1 Multiplicity = 1
 O                     0.        0.        0. 
 H                     0.        0.        0.96204 
 
 RdStrC is calling ZToCFu for IStruc=1 NZ=     2.
 PrtBox:  NBox=     1 Levels=  0 BoxLen=    8.00 SMaxX=        1.82
          Shift=            0.000000            0.000000            0.000000
 Box      1 Number                   0 centers from      1 to      2:
 After GenITR:
 ITRead=  0  0
 MicOpt= -1 -1
 ITRead=  0  0
 MicOpt= -1 -1
 NAtoms=      2 NQM=        2 NQMF=       0 NMMI=      0 NMMIF=      0
                NMic=       0 NMicF=      0.
                    Isotopes and Nuclear Properties:
 (Nuclear quadrupole moments (NQMom) in fm**2, nuclear magnetic moments (NMagM)
  in nuclear magnetons)

  Atom         1           2
 IAtWgt=          16           1
 AtmWgt=  15.9949146   1.0078250
 NucSpn=           0           1
 AtZEff=  -0.0000000  -0.0000000
 NQMom=    0.0000000   0.0000000
 NMagM=    0.0000000   2.7928460
 AtZNuc=   8.0000000   1.0000000
 No MM parameters found.
 Leave Link  101 at Sat Apr 17 19:24:23 2021, MaxMem=   104857600 cpu:               8.2 elap:               0.2
 (Enter /s/ls4/users/knvvv/bin/g16sse/l202.exe)
                          Input orientation:                          
 ---------------------------------------------------------------------
 Center     Atomic      Atomic             Coordinates (Angstroms)
 Number     Number       Type             X           Y           Z
 ---------------------------------------------------------------------
      1          8           0        0.000000    0.000000    0.000000
      2          1           0        0.000000    0.000000    0.962043
 ---------------------------------------------------------------------
 Stoichiometry    HO(1-)
 Framework group  C*V[C*(HO)]
 Deg. of freedom     1
 Full point group                 C*V     NOp   4
 Largest Abelian subgroup         C2V     NOp   4
 Largest concise Abelian subgroup C1      NOp   1
                         Standard orientation:                         
 ---------------------------------------------------------------------
 Center     Atomic      Atomic             Coordinates (Angstroms)
 Number     Number       Type             X           Y           Z
 ---------------------------------------------------------------------
      1          8           0        0.000000    0.000000    0.106894
      2          1           0        0.000000    0.000000   -0.855149
 ---------------------------------------------------------------------
 Rotational constants (GHZ):           0.0000000         575.9435433         575.9435433
 Leave Link  202 at Sat Apr 17 19:24:23 2021, MaxMem=   104857600 cpu:               5.6 elap:               0.1
 (Enter /s/ls4/users/knvvv/bin/g16sse/l301.exe)
 General basis read from cards:  (5D, 7F)
 Centers:       2
 S 4 1.00
     Exponent=  1.9069169000D+02 Coefficients=  7.0815167000D-04
     Exponent=  2.8605532000D+01 Coefficients=  5.4678827000D-03
     Exponent=  6.5095943000D+00 Coefficients=  2.7966605000D-02
     Exponent=  1.8412455000D+00 Coefficients=  1.0764538000D-01
 S 1 1.00
     Exponent=  5.9853725000D-01 Coefficients=  1.0000000000D+00
 S 1 1.00
     Exponent=  2.1397624000D-01 Coefficients=  1.0000000000D+00
 S 1 1.00
     Exponent=  8.0316286000D-02 Coefficients=  1.0000000000D+00
 P 1 1.00
     Exponent=  2.2920000000D+00 Coefficients=  1.0000000000D+00
 P 1 1.00
     Exponent=  8.3800000000D-01 Coefficients=  1.0000000000D+00
 P 1 1.00
     Exponent=  2.9200000000D-01 Coefficients=  1.0000000000D+00
 P 1 1.00
     Exponent=  8.4063199228D-02 Coefficients=  1.0000000000D+00
 D 1 1.00
     Exponent=  2.0620000000D+00 Coefficients=  1.0000000000D+00
 D 1 1.00
     Exponent=  6.6200000000D-01 Coefficients=  1.0000000000D+00
 F 1 1.00
     Exponent=  1.3970000000D+00 Coefficients=  1.0000000000D+00
 ****
 Centers:       1
 S 8 1.00
     Exponent=  1.1650646908D+05 Coefficients=  4.0383857939D-05
     Exponent=  1.7504349724D+04 Coefficients=  3.1255139004D-04
     Exponent=  3.9934513230D+03 Coefficients=  1.6341473495D-03
     Exponent=  1.1330063186D+03 Coefficients=  6.8283224757D-03
     Exponent=  3.6999569594D+02 Coefficients=  2.4124410221D-02
     Exponent=  1.3362074349D+02 Coefficients=  7.2730206154D-02
     Exponent=  5.2035643649D+01 Coefficients=  1.7934429892D-01
     Exponent=  2.1461939313D+01 Coefficients=  3.3059588895D-01
 S 2 1.00
     Exponent=  8.9835051252D+01 Coefficients=  9.6468652996D-02
     Exponent=  2.6428010844D+01 Coefficients=  9.4117481120D-01
 S 1 1.00
     Exponent=  9.2822824649D+00 Coefficients=  1.0000000000D+00
 S 1 1.00
     Exponent=  4.0947728533D+00 Coefficients=  1.0000000000D+00
 S 1 1.00
     Exponent=  1.3255349078D+00 Coefficients=  1.0000000000D+00
 S 1 1.00
     Exponent=  5.1877230787D-01 Coefficients=  1.0000000000D+00
 S 1 1.00
     Exponent=  1.9772676454D-01 Coefficients=  1.0000000000D+00
 S 1 1.00
     Exponent=  6.9638535104D-02 Coefficients=  1.0000000000D+00
 P 5 1.00
     Exponent=  1.9115255810D+02 Coefficients=  2.5115697705D-03
     Exponent=  4.5233356739D+01 Coefficients=  2.0039240864D-02
     Exponent=  1.4353465922D+01 Coefficients=  9.3609064762D-02
     Exponent=  5.2422371832D+00 Coefficients=  3.0618127124D-01
     Exponent=  2.0792418599D+00 Coefficients=  6.7810501439D-01
 P 1 1.00
     Exponent=  8.4282371424D-01 Coefficients=  1.0000000000D+00
 P 1 1.00
     Exponent=  3.3617694891D-01 Coefficients=  1.0000000000D+00
 P 1 1.00
     Exponent=  1.2863997974D-01 Coefficients=  1.0000000000D+00
 P 1 1.00
     Exponent=  4.3598162776D-02 Coefficients=  1.0000000000D+00
 D 1 1.00
     Exponent=  3.7750000000D+00 Coefficients=  1.0000000000D+00
 D 1 1.00
     Exponent=  1.3000000000D+00 Coefficients=  1.0000000000D+00
 D 1 1.00
     Exponent=  4.4400000000D-01 Coefficients=  1.0000000000D+00
 D 1 1.00
     Exponent=  1.2546378695D-01 Coefficients=  1.0000000000D+00
 F 1 1.00
     Exponent=  2.6660000000D+00 Coefficients=  1.0000000000D+00
 F 1 1.00
     Exponent=  8.5900000000D-01 Coefficients=  1.0000000000D+00
 G 1 1.00
     Exponent=  1.8460000000D+00 Coefficients=  1.0000000000D+00
 ****
 Ernie: Thresh=  0.10000D-02 Tol=  0.10000D-05 Strict=F.
 There are    54 symmetry adapted cartesian basis functions of A1  symmetry.
 There are    12 symmetry adapted cartesian basis functions of A2  symmetry.
 There are    27 symmetry adapted cartesian basis functions of B1  symmetry.
 There are    27 symmetry adapted cartesian basis functions of B2  symmetry.
 There are    42 symmetry adapted basis functions of A1  symmetry.
 There are    11 symmetry adapted basis functions of A2  symmetry.
 There are    23 symmetry adapted basis functions of B1  symmetry.
 There are    23 symmetry adapted basis functions of B2  symmetry.
    99 basis functions,   143 primitive gaussians,   120 cartesian basis functions
     5 alpha electrons        5 beta electrons
       nuclear repulsion energy         4.4004446156 Hartrees.
 IExCor= 4336 DFT=T Ex+Corr=M062X ExCW=0 ScaHFX=  0.540000
 ScaDFX=  1.000000  1.000000  1.000000  1.000000 ScalE2=  1.000000  1.000000
 IRadAn=      5 IRanWt=     -1 IRanGd=            0 ICorTp=0 IEmpDi=  4
 NAtoms=    2 NActive=    2 NUniq=    2 SFac= 1.00D+00 NAtFMM=   60 NAOKFM=F Big=F
 Integral buffers will be    131072 words long.
 Raffenetti 2 integral format.
 Two-electron integral symmetry is turned on.
 Leave Link  301 at Sat Apr 17 19:24:24 2021, MaxMem=   104857600 cpu:               9.6 elap:               0.2
 (Enter /s/ls4/users/knvvv/bin/g16sse/l302.exe)
 NPDir=0 NMtPBC=     1 NCelOv=     1 NCel=       1 NClECP=     1 NCelD=      1
         NCelK=      1 NCelE2=     1 NClLst=     1 CellRange=     0.0.
 One-electron integrals computed using PRISM.
 One-electron integral symmetry used in STVInt
 PrsmSu:  requested number of processors reduced to:   4 ShMem   1 Linda.
 PrsmSu:  requested number of processors reduced to:  21 ShMem   1 Linda.
 NBasis=    99 RedAO= T EigKep=  1.84D-04  NBF=    42    11    23    23
 NBsUse=    99 1.00D-06 EigRej= -1.00D+00 NBFU=    42    11    23    23
 Precomputing XC quadrature grid using
 IXCGrd= 4 IRadAn=           5 IRanWt=          -1 IRanGd=           0 AccXCQ= 0.00D+00.
 Generated NRdTot=       0 NPtTot=           0 NUsed=           0 NTot=          32
 NSgBfM=   120   120   120   120   120 MxSgAt=     2 MxSgA2=     2.
 Leave Link  302 at Sat Apr 17 19:24:24 2021, MaxMem=   104857600 cpu:              12.2 elap:               0.3
 (Enter /s/ls4/users/knvvv/bin/g16sse/l303.exe)
 DipDrv:  MaxL=1.
 Leave Link  303 at Sat Apr 17 19:24:25 2021, MaxMem=   104857600 cpu:              20.4 elap:               0.5
 (Enter /s/ls4/users/knvvv/bin/g16sse/l401.exe)
 SCF N**3 symmetry information disabled.
 ExpMin= 4.36D-02 ExpMax= 1.17D+05 ExpMxC= 1.13D+03 IAcc=3 IRadAn=         5 AccDes= 0.00D+00
 Harris functional with IExCor= 1009 and IRadAn=       5 diagonalized for initial guess.
 HarFok:  IExCor= 1009 AccDes= 0.00D+00 IRadAn=         5 IDoV= 1 UseB2=F ITyADJ=14
 ICtDFT=  3500011 ScaDFX=  1.000000  1.000000  1.000000  1.000000
 FoFCou: FMM=F IPFlag=           0 FMFlag=      100000 FMFlg1=           0
         NFxFlg=           0 DoJE=T BraDBF=F KetDBF=T FulRan=T
         wScrn=  0.000000 ICntrl=       500 IOpCl=  0 I1Cent=   200000004 NGrid=           0
         NMat0=    1 NMatS0=      1 NMatT0=    0 NMatD0=    1 NMtDS0=    0 NMtDT0=    0
 Petite list used in FoFCou.
 CoulSu:  requested number of processors reduced to:  21 ShMem   1 Linda.
 CoulSu:  requested number of processors reduced to:  21 ShMem   1 Linda.
 CoulSu:  requested number of processors reduced to:  21 ShMem   1 Linda.
 CoulSu:  requested number of processors reduced to:  21 ShMem   1 Linda.
 Harris En= -76.0258593778470    
 JPrj=0 DoOrth=F DoCkMO=F.
 Initial guess orbital symmetries:
       Occupied  (SG) (SG) (SG) (PI) (PI)
       Virtual   (SG) (SG) (PI) (PI) (SG) (PI) (PI) (SG) (DLTA)
                 (DLTA) (SG) (PI) (PI) (PI) (PI) (SG) (SG) (PI)
                 (PI) (SG) (SG) (SG) (DLTA) (DLTA) (PI) (PI) (PI)
                 (PI) (SG) (SG) (DLTA) (DLTA) (PI) (PI) (SG) (PI)
                 (PI) (PHI) (PHI) (SG) (SG) (DLTA) (DLTA) (PI)
                 (PI) (DLTA) (DLTA) (SG) (PI) (PI) (SG) (PI) (PI)
                 (SG) (PHI) (PHI) (DLTA) (DLTA) (SG) (PI) (PI)
                 (SG) (PI) (PI) (DLTA) (DLTA) (SG) (PI) (PI) (?A)
                 (?A) (PHI) (PHI) (DLTA) (DLTA) (SG) (PI) (PI)
                 (PHI) (PHI) (DLTA) (DLTA) (SG) (PI) (PI) (SG)
                 (DLTA) (DLTA) (SG) (PI) (PI) (SG) (SG) (SG)
 The electronic state of the initial guess is 1-SG.
 Leave Link  401 at Sat Apr 17 19:24:26 2021, MaxMem=   104857600 cpu:              60.0 elap:               1.4
 (Enter /s/ls4/users/knvvv/bin/g16sse/l502.exe)
 Keep R1 ints in memory in symmetry-blocked form, NReq=66468029.
 FoFCou: FMM=F IPFlag=           0 FMFlag=           0 FMFlg1=           0
         NFxFlg=           0 DoJE=F BraDBF=F KetDBF=F FulRan=T
         wScrn=  0.000000 ICntrl=       600 IOpCl=  0 I1Cent=           0 NGrid=           0
         NMat0=    1 NMatS0=   4950 NMatT0=    0 NMatD0=    1 NMtDS0=    0 NMtDT0=    0
 Petite list used in FoFCou.
 CoulSu:  requested number of processors reduced to:  20 ShMem   1 Linda.
 Closed shell SCF:
 Using DIIS extrapolation, IDIIS=  1040.
 NGot=   104857600 LenX=   101671656 LenY=   101656815
 Requested convergence on RMS density matrix=1.00D-08 within 128 cycles.
 Requested convergence on MAX density matrix=1.00D-06.
 Requested convergence on             energy=1.00D-06.
 No special actions if energy rises.

 Cycle   1  Pass 1  IDiag  1:
 E= -75.5800640136263    
 DIIS: error= 6.47D-02 at cycle   1 NSaved=   1.
 NSaved= 1 IEnMin= 1 EnMin= -75.5800640136263     IErMin= 1 ErrMin= 6.47D-02
 ErrMax= 6.47D-02  0.00D+00 EMaxC= 1.00D-01 BMatC= 2.93D-01 BMatP= 2.93D-01
 IDIUse=3 WtCom= 3.53D-01 WtEn= 6.47D-01
 Coeff-Com:  0.100D+01
 Coeff-En:   0.100D+01
 Coeff:      0.100D+01
 Gap=     0.000 Goal=   None    Shift=    0.000
 GapD=    0.000 DampG=0.250 DampE=0.500 DampFc=0.2500 IDamp=-1.
 Damping current iteration by 2.50D-01
 RMSDP=1.79D-02 MaxDP=1.00D+00              OVMax= 7.73D-01

 Cycle   2  Pass 1  IDiag  1:
 E= -75.5802770284453     Delta-E=       -0.000213014819 Rises=F Damp=T
 DIIS: error= 4.36D-02 at cycle   2 NSaved=   2.
 NSaved= 2 IEnMin= 2 EnMin= -75.5802770284453     IErMin= 2 ErrMin= 4.36D-02
 ErrMax= 4.36D-02  0.00D+00 EMaxC= 1.00D-01 BMatC= 2.85D-02 BMatP= 2.93D-01
 IDIUse=3 WtCom= 5.64D-01 WtEn= 4.36D-01
 Coeff-Com: -0.127D+00 0.113D+01
 Coeff-En:   0.499D+00 0.501D+00
 Coeff:      0.146D+00 0.854D+00
 Gap=     0.098 Goal=   None    Shift=    0.000
 RMSDP=4.20D-03 MaxDP=2.37D-01 DE=-2.13D-04 OVMax= 6.71D-01

 Cycle   3  Pass 1  IDiag  1:
 E= -75.8000364846552     Delta-E=       -0.219759456210 Rises=F Damp=F
 DIIS: error= 7.25D-03 at cycle   3 NSaved=   3.
 NSaved= 3 IEnMin= 3 EnMin= -75.8000364846552     IErMin= 3 ErrMin= 7.25D-03
 ErrMax= 7.25D-03  0.00D+00 EMaxC= 1.00D-01 BMatC= 4.18D-03 BMatP= 2.85D-02
 IDIUse=3 WtCom= 9.27D-01 WtEn= 7.25D-02
 Coeff-Com:  0.641D-01 0.239D-01 0.912D+00
 Coeff-En:   0.000D+00 0.000D+00 0.100D+01
 Coeff:      0.595D-01 0.222D-01 0.918D+00
 Gap=     0.215 Goal=   None    Shift=    0.000
 RMSDP=8.51D-04 MaxDP=3.52D-02 DE=-2.20D-01 OVMax= 1.82D-02

 Cycle   4  Pass 1  IDiag  1:
 E= -75.8015509829454     Delta-E=       -0.001514498290 Rises=F Damp=F
 DIIS: error= 3.62D-03 at cycle   4 NSaved=   4.
 NSaved= 4 IEnMin= 4 EnMin= -75.8015509829454     IErMin= 4 ErrMin= 3.62D-03
 ErrMax= 3.62D-03  0.00D+00 EMaxC= 1.00D-01 BMatC= 7.66D-04 BMatP= 4.18D-03
 IDIUse=3 WtCom= 9.64D-01 WtEn= 3.62D-02
 Coeff-Com:  0.608D-01-0.769D-01 0.531D-01 0.963D+00
 Coeff-En:   0.000D+00 0.000D+00 0.000D+00 0.100D+01
 Coeff:      0.586D-01-0.741D-01 0.512D-01 0.964D+00
 Gap=     0.222 Goal=   None    Shift=    0.000
 RMSDP=3.65D-04 MaxDP=6.43D-03 DE=-1.51D-03 OVMax= 3.06D-03

 Cycle   5  Pass 1  IDiag  1:
 E= -75.8018617165078     Delta-E=       -0.000310733562 Rises=F Damp=F
 DIIS: error= 2.28D-03 at cycle   5 NSaved=   5.
 NSaved= 5 IEnMin= 5 EnMin= -75.8018617165078     IErMin= 5 ErrMin= 2.28D-03
 ErrMax= 2.28D-03  0.00D+00 EMaxC= 1.00D-01 BMatC= 2.76D-04 BMatP= 7.66D-04
 IDIUse=3 WtCom= 9.77D-01 WtEn= 2.28D-02
 Coeff-Com:  0.423D-01-0.548D-01 0.345D-01 0.164D+00 0.814D+00
 Coeff-En:   0.000D+00 0.000D+00 0.000D+00 0.000D+00 0.100D+01
 Coeff:      0.413D-01-0.536D-01 0.338D-01 0.160D+00 0.818D+00
 Gap=     0.224 Goal=   None    Shift=    0.000
 RMSDP=4.52D-05 MaxDP=1.36D-03 DE=-3.11D-04 OVMax= 2.17D-03

 Cycle   6  Pass 1  IDiag  1:
 E= -75.8020033164761     Delta-E=       -0.000141599968 Rises=F Damp=F
 DIIS: error= 1.39D-03 at cycle   6 NSaved=   6.
 NSaved= 6 IEnMin= 6 EnMin= -75.8020033164761     IErMin= 6 ErrMin= 1.39D-03
 ErrMax= 1.39D-03  0.00D+00 EMaxC= 1.00D-01 BMatC= 1.10D-04 BMatP= 2.76D-04
 IDIUse=3 WtCom= 9.86D-01 WtEn= 1.39D-02
 Coeff-Com:  0.199D-01-0.274D-01 0.386D-01-0.730D-01-0.241D+00 0.128D+01
 Coeff-En:   0.000D+00 0.000D+00 0.000D+00 0.000D+00 0.000D+00 0.100D+01
 Coeff:      0.196D-01-0.270D-01 0.380D-01-0.720D-01-0.237D+00 0.128D+01
 Gap=     0.226 Goal=   None    Shift=    0.000
 RMSDP=5.27D-05 MaxDP=1.65D-03 DE=-1.42D-04 OVMax= 2.00D-03

 Cycle   7  Pass 1  IDiag  1:
 E= -75.8020742976971     Delta-E=       -0.000070981221 Rises=F Damp=F
 DIIS: error= 7.53D-04 at cycle   7 NSaved=   7.
 NSaved= 7 IEnMin= 7 EnMin= -75.8020742976971     IErMin= 7 ErrMin= 7.53D-04
 ErrMax= 7.53D-04  0.00D+00 EMaxC= 1.00D-01 BMatC= 3.14D-05 BMatP= 1.10D-04
 IDIUse=3 WtCom= 9.92D-01 WtEn= 7.53D-03
 Coeff-Com:  0.135D-03 0.307D-03-0.495D-03 0.674D-02-0.125D+00-0.878D+00
 Coeff-Com:  0.200D+01
 Coeff-En:   0.000D+00 0.000D+00 0.000D+00 0.000D+00 0.000D+00 0.000D+00
 Coeff-En:   0.100D+01
 Coeff:      0.134D-03 0.305D-03-0.491D-03 0.669D-02-0.124D+00-0.871D+00
 Coeff:      0.199D+01
 Gap=     0.228 Goal=   None    Shift=    0.000
 RMSDP=6.15D-05 MaxDP=1.76D-03 DE=-7.10D-05 OVMax= 2.30D-03

 Cycle   8  Pass 1  IDiag  1:
 E= -75.8021025926166     Delta-E=       -0.000028294919 Rises=F Damp=F
 DIIS: error= 2.42D-05 at cycle   8 NSaved=   8.
 NSaved= 8 IEnMin= 8 EnMin= -75.8021025926166     IErMin= 8 ErrMin= 2.42D-05
 ErrMax= 2.42D-05  0.00D+00 EMaxC= 1.00D-01 BMatC= 3.55D-08 BMatP= 3.14D-05
 IDIUse=1 WtCom= 1.00D+00 WtEn= 0.00D+00
 Coeff-Com: -0.116D-03 0.124D-03-0.698D-04 0.336D-02 0.188D-01 0.562D-02
 Coeff-Com: -0.566D-01 0.103D+01
 Coeff:     -0.116D-03 0.124D-03-0.698D-04 0.336D-02 0.188D-01 0.562D-02
 Coeff:     -0.566D-01 0.103D+01
 Gap=     0.228 Goal=   None    Shift=    0.000
 RMSDP=2.81D-06 MaxDP=5.21D-05 DE=-2.83D-05 OVMax= 5.29D-05

 Cycle   9  Pass 1  IDiag  1:
 E= -75.8021026192933     Delta-E=       -0.000000026677 Rises=F Damp=F
 DIIS: error= 3.84D-06 at cycle   9 NSaved=   9.
 NSaved= 9 IEnMin= 9 EnMin= -75.8021026192933     IErMin= 9 ErrMin= 3.84D-06
 ErrMax= 3.84D-06  0.00D+00 EMaxC= 1.00D-01 BMatC= 8.57D-10 BMatP= 3.55D-08
 IDIUse=1 WtCom= 1.00D+00 WtEn= 0.00D+00
 Coeff-Com: -0.632D-05 0.529D-05-0.810D-05-0.104D-03 0.591D-03 0.746D-02
 Coeff-Com: -0.116D-01-0.403D-01 0.104D+01
 Coeff:     -0.632D-05 0.529D-05-0.810D-05-0.104D-03 0.591D-03 0.746D-02
 Coeff:     -0.116D-01-0.403D-01 0.104D+01
 Gap=     0.228 Goal=   None    Shift=    0.000
 RMSDP=2.79D-07 MaxDP=1.02D-05 DE=-2.67D-08 OVMax= 1.10D-05

 Cycle  10  Pass 1  IDiag  1:
 E= -75.8021026200368     Delta-E=       -0.000000000744 Rises=F Damp=F
 DIIS: error= 2.51D-07 at cycle  10 NSaved=  10.
 NSaved=10 IEnMin=10 EnMin= -75.8021026200368     IErMin=10 ErrMin= 2.51D-07
 ErrMax= 2.51D-07  0.00D+00 EMaxC= 1.00D-01 BMatC= 2.80D-12 BMatP= 8.57D-10
 IDIUse=1 WtCom= 1.00D+00 WtEn= 0.00D+00
 Coeff-Com: -0.189D-06 0.698D-06-0.830D-06-0.144D-04-0.563D-04-0.104D-02
 Coeff-Com:  0.187D-02-0.133D-02-0.112D+00 0.111D+01
 Coeff:     -0.189D-06 0.698D-06-0.830D-06-0.144D-04-0.563D-04-0.104D-02
 Coeff:      0.187D-02-0.133D-02-0.112D+00 0.111D+01
 Gap=     0.228 Goal=   None    Shift=    0.000
 RMSDP=3.05D-08 MaxDP=6.19D-07 DE=-7.44D-10 OVMax= 5.74D-07

 Cycle  11  Pass 1  IDiag  1:
 E= -75.8021026200397     Delta-E=       -0.000000000003 Rises=F Damp=F
 DIIS: error= 3.38D-08 at cycle  11 NSaved=  11.
 NSaved=11 IEnMin=11 EnMin= -75.8021026200397     IErMin=11 ErrMin= 3.38D-08
 ErrMax= 3.38D-08  0.00D+00 EMaxC= 1.00D-01 BMatC= 4.65D-14 BMatP= 2.80D-12
 IDIUse=1 WtCom= 1.00D+00 WtEn= 0.00D+00
 Coeff-Com: -0.350D-06 0.357D-06-0.143D-06 0.429D-05 0.198D-04 0.596D-04
 Coeff-Com: -0.181D-03 0.201D-02-0.490D-02-0.162D+00 0.116D+01
 Coeff:     -0.350D-06 0.357D-06-0.143D-06 0.429D-05 0.198D-04 0.596D-04
 Coeff:     -0.181D-03 0.201D-02-0.490D-02-0.162D+00 0.116D+01
 Gap=     0.228 Goal=   None    Shift=    0.000
 RMSDP=4.05D-09 MaxDP=7.09D-08 DE=-2.81D-12 OVMax= 9.08D-08

 SCF Done:  E(RM062X) =  -75.8021026200     A.U. after   11 cycles
            NFock= 11  Conv=0.41D-08     -V/T= 2.0031
 KE= 7.556669107114D+01 PE=-1.919539891054D+02 EE= 3.618475079870D+01
 Leave Link  502 at Sat Apr 17 19:24:29 2021, MaxMem=   104857600 cpu:             113.9 elap:               2.8
 (Enter /s/ls4/users/knvvv/bin/g16sse/l601.exe)
 Copying SCF densities to generalized density rwf, IOpCl= 0 IROHF=0.

 **********************************************************************

            Population analysis using the SCF density.

 **********************************************************************

 Orbital symmetries:
       Occupied  (SG) (SG) (SG) (PI) (PI)
       Virtual   (SG) (PI) (PI) (SG) (SG) (PI) (PI) (SG) (DLTA)
                 (DLTA) (SG) (PI) (PI) (SG) (PI) (PI) (SG) (PI)
                 (PI) (SG) (SG) (SG) (DLTA) (DLTA) (PI) (PI) (PI)
                 (PI) (SG) (SG) (DLTA) (DLTA) (PI) (PI) (SG) (PI)
                 (PI) (SG) (PHI) (PHI) (SG) (DLTA) (DLTA) (PI)
                 (PI) (DLTA) (DLTA) (SG) (PI) (PI) (SG) (PI) (PI)
                 (SG) (PHI) (PHI) (DLTA) (DLTA) (SG) (PI) (PI)
                 (SG) (PI) (PI) (DLTA) (DLTA) (SG) (PI) (PI) (?A)
                 (?A) (PHI) (PHI) (DLTA) (DLTA) (SG) (PI) (PI)
                 (PHI) (PHI) (DLTA) (DLTA) (SG) (PI) (PI) (SG)
                 (DLTA) (DLTA) (PI) (PI) (SG) (SG) (SG) (SG)
 The electronic state is 1-SG.
 Alpha  occ. eigenvalues --  -19.26358  -0.70720  -0.16515  -0.02808  -0.02808
 Alpha virt. eigenvalues --    0.19976   0.24657   0.24657   0.25905   0.37240
 Alpha virt. eigenvalues --    0.38651   0.38651   0.46809   0.57718   0.57718
 Alpha virt. eigenvalues --    0.60870   0.65073   0.65073   0.72320   0.73831
 Alpha virt. eigenvalues --    0.73831   0.79171   1.06312   1.06312   1.26785
 Alpha virt. eigenvalues --    1.35191   1.45829   1.61603   1.61603   1.73122
 Alpha virt. eigenvalues --    1.73122   1.86777   1.86777   1.89229   2.27306
 Alpha virt. eigenvalues --    2.33525   2.33525   2.70692   2.70692   2.90103
 Alpha virt. eigenvalues --    2.97330   2.97330   3.44910   3.48991   3.48991
 Alpha virt. eigenvalues --    3.73001   3.82627   3.82627   4.26732   4.26732
 Alpha virt. eigenvalues --    4.34395   4.34396   4.61116   4.73791   4.73791
 Alpha virt. eigenvalues --    4.88682   5.60321   5.60321   5.68516   6.02892
 Alpha virt. eigenvalues --    6.02892   6.75824   6.75824   7.39221   7.49131
 Alpha virt. eigenvalues --    7.49131   7.62903   7.89734   7.89734   7.95203
 Alpha virt. eigenvalues --    7.95203   8.66726   8.85214   8.85214   9.17301
 Alpha virt. eigenvalues --    9.17302   9.33274   9.33274  10.38645  10.38646
 Alpha virt. eigenvalues --   10.59682  11.06569  11.06569  11.17931  11.17931
 Alpha virt. eigenvalues --   11.32574  11.32576  11.32789  11.93944  11.93944
 Alpha virt. eigenvalues --   12.31787  12.39775  12.39778  14.00128  14.00128
 Alpha virt. eigenvalues --   14.00296  16.73842  48.20906 251.21325
          Condensed to atoms (all electrons):
               1          2
     1  O    8.894454   0.380890
     2  H    0.380890   0.343767
 Mulliken charges:
               1
     1  O   -1.275343
     2  H    0.275343
 Sum of Mulliken charges =  -1.00000
 Mulliken charges with hydrogens summed into heavy atoms:
               1
     1  O   -1.000000
 Electronic spatial extent (au):  <R**2>=             24.9887
 Charge=             -1.0000 electrons
 Dipole moment (field-independent basis, Debye):
    X=              0.0000    Y=              0.0000    Z=             -1.3734  Tot=              1.3734
 Quadrupole moment (field-independent basis, Debye-Ang):
   XX=            -10.7206   YY=            -10.7206   ZZ=             -8.2179
   XY=              0.0000   XZ=              0.0000   YZ=              0.0000
 Traceless Quadrupole moment (field-independent basis, Debye-Ang):
   XX=             -0.8342   YY=             -0.8342   ZZ=              1.6685
   XY=              0.0000   XZ=              0.0000   YZ=              0.0000
 Octapole moment (field-independent basis, Debye-Ang**2):
  XXX=              0.0000  YYY=             -0.0000  ZZZ=             -0.9020  XYY=              0.0000
  XXY=              0.0000  XXZ=             -0.1111  XZZ=              0.0000  YZZ=              0.0000
  YYZ=             -0.1111  XYZ=              0.0000
 Hexadecapole moment (field-independent basis, Debye-Ang**3):
 XXXX=            -20.4720 YYYY=            -20.4720 ZZZZ=            -15.4644 XXXY=              0.0000
 XXXZ=              0.0000 YYYX=              0.0000 YYYZ=             -0.0000 ZZZX=              0.0000
 ZZZY=              0.0000 XXYY=             -6.8240 XXZZ=             -6.2087 YYZZ=             -6.2087
 XXYZ=              0.0000 YYXZ=              0.0000 ZZXY=              0.0000
 N-N= 4.400444615557D+00 E-N=-1.919539883169D+02  KE= 7.556669107114D+01
 PrsmSu:  requested number of processors reduced to:  21 ShMem   1 Linda.
 No NMR shielding tensors so no spin-rotation constants.
 Leave Link  601 at Sat Apr 17 19:24:30 2021, MaxMem=   104857600 cpu:              47.8 elap:               1.1
 (Enter /s/ls4/users/knvvv/bin/g16sse/l801.exe)
 DoSCS=F DFT=T ScalE2(SS,OS)=  1.000000  1.000000
 Range of M.O.s used for correlation:     1    99
 NBasis=    99 NAE=     5 NBE=     5 NFC=     0 NFV=     0
 NROrb=     99 NOA=     5 NOB=     5 NVA=    94 NVB=    94

 **** Warning!!: The largest alpha MO coefficient is  0.25557934D+02

 Leave Link  801 at Sat Apr 17 19:24:30 2021, MaxMem=   104857600 cpu:               3.1 elap:               0.1
 (Enter /s/ls4/users/knvvv/bin/g16sse/l914.exe)
 RHF ground state
 Doing stability rather than CIS.
 Two-electron integrals replicated using symmetry.
 MDV=   104857600 DFT=T DoStab=T Mixed=T DoRPA=F DoScal=F NonHer=F
 Making orbital integer symmetry assigments:
 Orbital symmetries:
       Occupied  (SG) (SG) (SG) (PI) (PI)
       Virtual   (SG) (PI) (PI) (SG) (SG) (PI) (PI) (SG) (DLTA)
                 (DLTA) (SG) (PI) (PI) (SG) (PI) (PI) (SG) (PI)
                 (PI) (SG) (SG) (SG) (DLTA) (DLTA) (PI) (PI) (PI)
                 (PI) (SG) (SG) (DLTA) (DLTA) (PI) (PI) (SG) (PI)
                 (PI) (SG) (PHI) (PHI) (SG) (DLTA) (DLTA) (PI)
                 (PI) (DLTA) (DLTA) (SG) (PI) (PI) (SG) (PI) (PI)
                 (SG) (PHI) (PHI) (DLTA) (DLTA) (SG) (PI) (PI)
                 (SG) (PI) (PI) (DLTA) (DLTA) (SG) (PI) (PI) (?A)
                 (?A) (PHI) (PHI) (DLTA) (DLTA) (SG) (PI) (PI)
                 (PHI) (PHI) (DLTA) (DLTA) (SG) (PI) (PI) (SG)
                 (DLTA) (DLTA) (PI) (PI) (SG) (SG) (SG) (SG)
    24 initial guesses have been made.
 Convergence on wavefunction:    0.001000000000000
 Davidson Disk Diagonalization:  ConvIn= 1.00D-03 SkipCon=T Conv= 1.00D-03.
 Max sub-space:  1880 roots to seek:    24 dimension of matrix:          940
 Iteration     1 Dimension    24 NMult     0 NNew     24
 Estimated number of processors is:   20
 CISAX will form     1 AO SS matrices at one time.
 NMat=     1 NSing=     1 JSym2X= 2.
 FoFJK:  IHMeth= 1 ICntrl=       0 DoSepK=F KAlg= 0 I1Cent=           0 FoldK=F
 IRaf= 990000000 NMat=       1 IRICut=       1 DoRegI=T DoRafI=F ISym2E= 2 IDoP0=0 IntGTp=1.
 FoFCou: FMM=F IPFlag=           0 FMFlag=      100000 FMFlg1=           0
         NFxFlg=           0 DoJE=F BraDBF=F KetDBF=F FulRan=T
         wScrn=  0.000000 ICntrl=         0 IOpCl=  0 I1Cent=           0 NGrid=           0
         NMat0=    1 NMatS0=      1 NMatT0=    0 NMatD0=    1 NMtDS0=    0 NMtDT0=    0
 Integrals replicated using symmetry in FoFCou.
 CoulSu:  requested number of processors reduced to:  21 ShMem   1 Linda.
 NMat=     1 NSing=     1 JSym2X= 2.
 CoulSu:  requested number of processors reduced to:  21 ShMem   1 Linda.
 NMat=     1 NSing=     1 JSym2X= 2.
 CoulSu:  requested number of processors reduced to:  21 ShMem   1 Linda.
 NMat=     1 NSing=     1 JSym2X= 2.
 CoulSu:  requested number of processors reduced to:  21 ShMem   1 Linda.
 NMat=     1 NSing=     1 JSym2X= 2.
 CoulSu:  requested number of processors reduced to:  21 ShMem   1 Linda.
 NMat=     1 NSing=     1 JSym2X= 2.
 CoulSu:  requested number of processors reduced to:  21 ShMem   1 Linda.
 NMat=     1 NSing=     1 JSym2X= 2.
 CoulSu:  requested number of processors reduced to:  21 ShMem   1 Linda.
 NMat=     1 NSing=     1 JSym2X= 2.
 CoulSu:  requested number of processors reduced to:  21 ShMem   1 Linda.
 NMat=     1 NSing=     1 JSym2X= 2.
 CoulSu:  requested number of processors reduced to:  21 ShMem   1 Linda.
 NMat=     1 NSing=     1 JSym2X= 2.
 CoulSu:  requested number of processors reduced to:  21 ShMem   1 Linda.
 NMat=     1 NSing=     1 JSym2X= 2.
 CoulSu:  requested number of processors reduced to:  21 ShMem   1 Linda.
 NMat=     1 NSing=     1 JSym2X= 2.
 CoulSu:  requested number of processors reduced to:  21 ShMem   1 Linda.
 NMat=     1 NSing=     0 JSym2X= 2.
 CoulSu:  requested number of processors reduced to:  21 ShMem   1 Linda.
 NMat=     1 NSing=     0 JSym2X= 2.
 CoulSu:  requested number of processors reduced to:  21 ShMem   1 Linda.
 NMat=     1 NSing=     0 JSym2X= 2.
 CoulSu:  requested number of processors reduced to:  21 ShMem   1 Linda.
 NMat=     1 NSing=     0 JSym2X= 2.
 CoulSu:  requested number of processors reduced to:  21 ShMem   1 Linda.
 NMat=     1 NSing=     0 JSym2X= 2.
 CoulSu:  requested number of processors reduced to:  21 ShMem   1 Linda.
 NMat=     1 NSing=     0 JSym2X= 2.
 CoulSu:  requested number of processors reduced to:  21 ShMem   1 Linda.
 NMat=     1 NSing=     0 JSym2X= 2.
 CoulSu:  requested number of processors reduced to:  21 ShMem   1 Linda.
 NMat=     1 NSing=     0 JSym2X= 2.
 CoulSu:  requested number of processors reduced to:  21 ShMem   1 Linda.
 NMat=     1 NSing=     0 JSym2X= 2.
 CoulSu:  requested number of processors reduced to:  21 ShMem   1 Linda.
 NMat=     1 NSing=     0 JSym2X= 2.
 CoulSu:  requested number of processors reduced to:  21 ShMem   1 Linda.
 NMat=     1 NSing=     0 JSym2X= 2.
 CoulSu:  requested number of processors reduced to:  21 ShMem   1 Linda.
 NMat=     1 NSing=     0 JSym2X= 2.
 CoulSu:  requested number of processors reduced to:  21 ShMem   1 Linda.
 Excitation Energies [eV] at current iteration:
 Root      1 :     3.846415398431192
 Root      2 :     3.846689591227396
 Root      3 :     4.091098821511644
 Root      4 :     4.092784954577139
 Root      5 :     4.511737184336349
 Root      6 :     4.511772274211319
 Root      7 :     5.010556185622309
 Root      8 :     5.010591772285304
 Root      9 :     5.026226720998379
 Root     10 :     5.026226720999067
 Root     11 :     5.115078954629348
 Root     12 :     5.115524612295100
 Root     13 :     5.370574035998532
 Root     14 :     5.371884823773584
 Root     15 :     5.940794273339683
 Root     16 :     6.774590653618370
 Root     17 :     7.636738627724514
 Root     18 :     7.686578989437205
 Root     19 :     7.776027766695655
 Root     20 :     7.802246215236901
 Root     21 :     7.894931544110472
 Root     22 :     8.587304103264305
 Root     23 :     8.641865603786970
 Root     24 :     9.749429965071943
 Iteration     2 Dimension    48 NMult    24 NNew     24
 Estimated number of processors is:   20
 CISAX will form     1 AO SS matrices at one time.
 NMat=     1 NSing=     1 JSym2X= 2.
 CoulSu:  requested number of processors reduced to:  21 ShMem   1 Linda.
 NMat=     1 NSing=     1 JSym2X= 2.
 CoulSu:  requested number of processors reduced to:  21 ShMem   1 Linda.
 NMat=     1 NSing=     1 JSym2X= 2.
 CoulSu:  requested number of processors reduced to:  21 ShMem   1 Linda.
 NMat=     1 NSing=     1 JSym2X= 2.
 CoulSu:  requested number of processors reduced to:  21 ShMem   1 Linda.
 NMat=     1 NSing=     1 JSym2X= 2.
 CoulSu:  requested number of processors reduced to:  21 ShMem   1 Linda.
 NMat=     1 NSing=     1 JSym2X= 2.
 CoulSu:  requested number of processors reduced to:  21 ShMem   1 Linda.
 NMat=     1 NSing=     1 JSym2X= 2.
 CoulSu:  requested number of processors reduced to:  21 ShMem   1 Linda.
 NMat=     1 NSing=     1 JSym2X= 2.
 CoulSu:  requested number of processors reduced to:  21 ShMem   1 Linda.
 NMat=     1 NSing=     1 JSym2X= 2.
 CoulSu:  requested number of processors reduced to:  21 ShMem   1 Linda.
 NMat=     1 NSing=     1 JSym2X= 2.
 CoulSu:  requested number of processors reduced to:  21 ShMem   1 Linda.
 NMat=     1 NSing=     1 JSym2X= 2.
 CoulSu:  requested number of processors reduced to:  21 ShMem   1 Linda.
 NMat=     1 NSing=     1 JSym2X= 2.
 CoulSu:  requested number of processors reduced to:  21 ShMem   1 Linda.
 NMat=     1 NSing=     0 JSym2X= 2.
 CoulSu:  requested number of processors reduced to:  21 ShMem   1 Linda.
 NMat=     1 NSing=     0 JSym2X= 2.
 CoulSu:  requested number of processors reduced to:  21 ShMem   1 Linda.
 NMat=     1 NSing=     0 JSym2X= 2.
 CoulSu:  requested number of processors reduced to:  21 ShMem   1 Linda.
 NMat=     1 NSing=     0 JSym2X= 2.
 CoulSu:  requested number of processors reduced to:  21 ShMem   1 Linda.
 NMat=     1 NSing=     0 JSym2X= 2.
 CoulSu:  requested number of processors reduced to:  21 ShMem   1 Linda.
 NMat=     1 NSing=     0 JSym2X= 2.
 CoulSu:  requested number of processors reduced to:  21 ShMem   1 Linda.
 NMat=     1 NSing=     0 JSym2X= 2.
 CoulSu:  requested number of processors reduced to:  21 ShMem   1 Linda.
 NMat=     1 NSing=     0 JSym2X= 2.
 CoulSu:  requested number of processors reduced to:  21 ShMem   1 Linda.
 NMat=     1 NSing=     0 JSym2X= 2.
 CoulSu:  requested number of processors reduced to:  21 ShMem   1 Linda.
 NMat=     1 NSing=     0 JSym2X= 2.
 CoulSu:  requested number of processors reduced to:  21 ShMem   1 Linda.
 NMat=     1 NSing=     0 JSym2X= 2.
 CoulSu:  requested number of processors reduced to:  21 ShMem   1 Linda.
 NMat=     1 NSing=     0 JSym2X= 2.
 CoulSu:  requested number of processors reduced to:  21 ShMem   1 Linda.
 New state      1 was old state      3
 Root      1 not converged, maximum delta is    0.150386746891534
 Excitation Energies [eV] at current iteration:
 Root      1 :     3.655371205770531   Change is   -0.435727615741113
 Root      2 :     3.659567621491161   Change is   -0.433217333085978
 Root      3 :     3.719043006146837   Change is   -0.127372392284354
 Root      4 :     3.719244879105249   Change is   -0.127444712122147
 Root      5 :     4.262857194477186   Change is   -0.248879989859164
 Root      6 :     4.262920011817049   Change is   -0.248852262394271
 Root      7 :     4.365138548285151   Change is   -0.645417637337159
 Root      8 :     4.365239874012103   Change is   -0.645351898273201
 Root      9 :     4.942798739127565   Change is   -0.997995534212117
 Root     10 :     4.989104761370697   Change is   -0.037121959628370
 Root     11 :     4.989104761383826   Change is   -0.037121959614552
 Root     12 :     5.038636355250892   Change is   -0.076442599378456
 Root     13 :     5.039295034682442   Change is   -0.076229577612658
 Root     14 :     5.105694395535143   Change is   -0.264879640463388
 Root     15 :     5.108892828510576   Change is   -0.262991995263008
 Root     16 :     5.940106136365792   Change is   -0.834484517252578
 Root     17 :     7.169532012672280   Change is   -0.606495754023374
 Root     18 :     7.221010971943891   Change is   -0.581235243293010
 Root     19 :     7.331254685210494   Change is   -0.563676858899977
 Root     20 :     7.376650957076496   Change is   -0.260087670648018
 Root     21 :     7.419158437165597   Change is   -0.267420552271608
 Root     22 :     7.837413911541375   Change is   -1.912016053530569
 Root     23 :     8.448323951032402   Change is   -0.138980152231904
 Root     24 :     8.544698054219197   Change is   -0.097167549567773
 Iteration     3 Dimension    54 NMult    48 NNew      6
 Estimated number of processors is:   20
 CISAX will form     1 AO SS matrices at one time.
 NMat=     1 NSing=     1 JSym2X= 2.
 CoulSu:  requested number of processors reduced to:  21 ShMem   1 Linda.
 NMat=     1 NSing=     1 JSym2X= 2.
 CoulSu:  requested number of processors reduced to:  21 ShMem   1 Linda.
 NMat=     1 NSing=     1 JSym2X= 2.
 CoulSu:  requested number of processors reduced to:  21 ShMem   1 Linda.
 NMat=     1 NSing=     0 JSym2X= 2.
 CoulSu:  requested number of processors reduced to:  21 ShMem   1 Linda.
 NMat=     1 NSing=     0 JSym2X= 2.
 CoulSu:  requested number of processors reduced to:  21 ShMem   1 Linda.
 NMat=     1 NSing=     0 JSym2X= 2.
 CoulSu:  requested number of processors reduced to:  21 ShMem   1 Linda.
 Vector  10 SDiff=9.06D-01 TDiff=1.12D-04 assumed to be triplet.
 Vector  11 SDiff=1.12D-04 TDiff=9.06D-01 assumed to be singlet.
 Root      1 not converged, maximum delta is    0.008179910916517
 Excitation Energies [eV] at current iteration:
 Root      1 :     3.636011476393399   Change is   -0.019359729377132
 Root      2 :     3.636088602164098   Change is   -0.023479019327063
 Root      3 :     3.717642068298189   Change is   -0.001400937848648
 Root      4 :     3.717656786601296   Change is   -0.001588092503953
 Root      5 :     4.250218071495442   Change is   -0.012639122981744
 Root      6 :     4.332777753943052   Change is   -0.032360794342099
 Iteration     4 Dimension    60 NMult    54 NNew      6
 Estimated number of processors is:   20
 CISAX will form     1 AO SS matrices at one time.
 NMat=     1 NSing=     1 JSym2X= 2.
 CoulSu:  requested number of processors reduced to:  21 ShMem   1 Linda.
 NMat=     1 NSing=     1 JSym2X= 2.
 CoulSu:  requested number of processors reduced to:  21 ShMem   1 Linda.
 NMat=     1 NSing=     1 JSym2X= 2.
 CoulSu:  requested number of processors reduced to:  21 ShMem   1 Linda.
 NMat=     1 NSing=     0 JSym2X= 2.
 CoulSu:  requested number of processors reduced to:  21 ShMem   1 Linda.
 NMat=     1 NSing=     0 JSym2X= 2.
 CoulSu:  requested number of processors reduced to:  21 ShMem   1 Linda.
 NMat=     1 NSing=     0 JSym2X= 2.
 CoulSu:  requested number of processors reduced to:  21 ShMem   1 Linda.
 Root      1 not converged, maximum delta is    0.001409285535310
 Excitation Energies [eV] at current iteration:
 Root      1 :     3.635789012664602   Change is   -0.000222463728797
 Root      2 :     3.635789676654626   Change is   -0.000298925509472
 Root      3 :     3.717614366782559   Change is   -0.000027701515630
 Root      4 :     3.717615017579205   Change is   -0.000041769022091
 Root      5 :     4.249580687675556   Change is   -0.000637383819885
 Root      6 :     4.331635262432356   Change is   -0.001142491510695
 Iteration     5 Dimension    66 NMult    60 NNew      6
 Estimated number of processors is:   20
 CISAX will form     1 AO SS matrices at one time.
 NMat=     1 NSing=     1 JSym2X= 2.
 CoulSu:  requested number of processors reduced to:  21 ShMem   1 Linda.
 NMat=     1 NSing=     1 JSym2X= 2.
 CoulSu:  requested number of processors reduced to:  21 ShMem   1 Linda.
 NMat=     1 NSing=     1 JSym2X= 2.
 CoulSu:  requested number of processors reduced to:  21 ShMem   1 Linda.
 NMat=     1 NSing=     0 JSym2X= 2.
 CoulSu:  requested number of processors reduced to:  21 ShMem   1 Linda.
 NMat=     1 NSing=     0 JSym2X= 2.
 CoulSu:  requested number of processors reduced to:  21 ShMem   1 Linda.
 NMat=     1 NSing=     0 JSym2X= 2.
 CoulSu:  requested number of processors reduced to:  21 ShMem   1 Linda.
 Root      1 not converged, maximum delta is    0.051370503619446
 Excitation Energies [eV] at current iteration:
 Root      1 :     3.635784913365426   Change is   -0.000004099299177
 Root      2 :     3.635784931101189   Change is   -0.000004745553438
 Root      3 :     3.717613992375917   Change is   -0.000000374406641
 Root      4 :     3.717614031012094   Change is   -0.000000986567111
 Root      5 :     4.249569475238278   Change is   -0.000011212437279
 Root      6 :     4.331617520275143   Change is   -0.000017742157214
 Iteration     6 Dimension    72 NMult    66 NNew      6
 Estimated number of processors is:   20
 CISAX will form     1 AO SS matrices at one time.
 NMat=     1 NSing=     1 JSym2X= 2.
 CoulSu:  requested number of processors reduced to:  21 ShMem   1 Linda.
 NMat=     1 NSing=     1 JSym2X= 2.
 CoulSu:  requested number of processors reduced to:  21 ShMem   1 Linda.
 NMat=     1 NSing=     1 JSym2X= 2.
 CoulSu:  requested number of processors reduced to:  21 ShMem   1 Linda.
 NMat=     1 NSing=     0 JSym2X= 2.
 CoulSu:  requested number of processors reduced to:  21 ShMem   1 Linda.
 NMat=     1 NSing=     0 JSym2X= 2.
 CoulSu:  requested number of processors reduced to:  21 ShMem   1 Linda.
 NMat=     1 NSing=     0 JSym2X= 2.
 CoulSu:  requested number of processors reduced to:  21 ShMem   1 Linda.
 Root      1 not converged, maximum delta is    0.271894970431297
 Excitation Energies [eV] at current iteration:
 Root      1 :     3.635784857817870   Change is   -0.000000055547555
 Root      2 :     3.635784860238853   Change is   -0.000000070862335
 Root      3 :     3.717613989463376   Change is   -0.000000002912542
 Root      4 :     3.717613993674543   Change is   -0.000000037337551
 Root      5 :     4.249569418040402   Change is   -0.000000057197876
 Root      6 :     4.331617293983268   Change is   -0.000000226291875
 Iteration     7 Dimension    77 NMult    72 NNew      5
 Estimated number of processors is:   20
 CISAX will form     1 AO SS matrices at one time.
 NMat=     1 NSing=     1 JSym2X= 2.
 CoulSu:  requested number of processors reduced to:  21 ShMem   1 Linda.
 NMat=     1 NSing=     1 JSym2X= 2.
 CoulSu:  requested number of processors reduced to:  21 ShMem   1 Linda.
 NMat=     1 NSing=     1 JSym2X= 2.
 CoulSu:  requested number of processors reduced to:  21 ShMem   1 Linda.
 NMat=     1 NSing=     0 JSym2X= 2.
 CoulSu:  requested number of processors reduced to:  21 ShMem   1 Linda.
 NMat=     1 NSing=     0 JSym2X= 2.
 CoulSu:  requested number of processors reduced to:  21 ShMem   1 Linda.
 Root      1 not converged, maximum delta is    0.108391776228318
 Excitation Energies [eV] at current iteration:
 Root      1 :     3.635784854860635   Change is   -0.000000002957235
 Root      2 :     3.635784858040692   Change is   -0.000000002198161
 Root      3 :     3.717613988822504   Change is   -0.000000000640872
 Root      4 :     3.717613992596504   Change is   -0.000000001078039
 Root      5 :     4.249569417096354   Change is   -0.000000000944048
 Root      6 :     4.331617293983286   Change is    0.000000000000018
 Convergence achieved on expansion vectors.
 ***********************************************************************
 Stability analysis using <AA,BB:AA,BB> singles matrix:
 ***********************************************************************
 1PDM for each excited state written to RWF  633
 Ground to excited state transition densities written to RWF  633

 Eigenvectors of the stability matrix:
 
 Excited state symmetry could not be determined.
 Eigenvector   1:      Triplet-?Sym  Eigenvalue= 0.1336126  <S**2>=2.000
       4 ->  6         0.18458
       4 ->  9        -0.10604
       5 ->  6         0.55702
       5 ->  9        -0.32003
       5 -> 13        -0.16453
 
 Excited state symmetry could not be determined.
 Eigenvector   2:      Triplet-?Sym  Eigenvalue= 0.1336126  <S**2>=2.000
       4 ->  6         0.55702
       4 ->  9        -0.32003
       4 -> 13        -0.16453
       5 ->  6        -0.18458
       5 ->  9         0.10604
 
 Excited state symmetry could not be determined.
 Eigenvector   3:      Singlet-?Sym  Eigenvalue= 0.1366198  <S**2>=0.000
       5 ->  6         0.66752
       5 ->  9        -0.20144
 
 Excited state symmetry could not be determined.
 Eigenvector   4:      Singlet-?Sym  Eigenvalue= 0.1366198  <S**2>=0.000
       4 ->  6         0.66752
       4 ->  9        -0.20144
 
 Excited state symmetry could not be determined.
 Eigenvector   5:      Singlet-?Sym  Eigenvalue= 0.1561688  <S**2>=0.000
       4 ->  7         0.37668
       4 ->  8         0.31048
       5 ->  7        -0.31048
       5 ->  8         0.37668
 
 Excited state symmetry could not be determined.
 Eigenvector   6:      Triplet-?Sym  Eigenvalue= 0.1591840  <S**2>=2.000
       4 ->  7         0.36337
       4 ->  8         0.29954
       4 -> 11         0.11126
       5 ->  7        -0.29954
       5 ->  8         0.36337
       5 -> 12        -0.11126
 The wavefunction is stable under the perturbations considered.
 Leave Link  914 at Sat Apr 17 19:26:05 2021, MaxMem=   104857600 cpu:            3438.7 elap:              95.4
 (Enter /s/ls4/users/knvvv/bin/g16sse/l508.exe)
 The wavefunction is already stable.
 Leave Link  508 at Sat Apr 17 19:26:05 2021, MaxMem=   104857600 cpu:               2.2 elap:               0.1
 (Enter /s/ls4/users/knvvv/bin/g16sse/l601.exe)
 Copying SCF densities to generalized density rwf, IOpCl= 0 IROHF=0.

 **********************************************************************

            Population analysis using the SCF density.

 **********************************************************************

 Orbital symmetries:
       Occupied  (SG) (SG) (SG) (PI) (PI)
       Virtual   (SG) (PI) (PI) (SG) (SG) (PI) (PI) (SG) (DLTA)
                 (DLTA) (SG) (PI) (PI) (SG) (PI) (PI) (SG) (PI)
                 (PI) (SG) (SG) (SG) (DLTA) (DLTA) (PI) (PI) (PI)
                 (PI) (SG) (SG) (DLTA) (DLTA) (PI) (PI) (SG) (PI)
                 (PI) (SG) (PHI) (PHI) (SG) (DLTA) (DLTA) (PI)
                 (PI) (DLTA) (DLTA) (SG) (PI) (PI) (SG) (PI) (PI)
                 (SG) (PHI) (PHI) (DLTA) (DLTA) (SG) (PI) (PI)
                 (SG) (PI) (PI) (DLTA) (DLTA) (SG) (PI) (PI) (?A)
                 (?A) (PHI) (PHI) (DLTA) (DLTA) (SG) (PI) (PI)
                 (PHI) (PHI) (DLTA) (DLTA) (SG) (PI) (PI) (SG)
                 (DLTA) (DLTA) (PI) (PI) (SG) (SG) (SG) (SG)
 The electronic state is 1-SG.
 Alpha  occ. eigenvalues --  -19.26358  -0.70720  -0.16515  -0.02808  -0.02808
 Alpha virt. eigenvalues --    0.19976   0.24657   0.24657   0.25905   0.37240
 Alpha virt. eigenvalues --    0.38651   0.38651   0.46809   0.57718   0.57718
 Alpha virt. eigenvalues --    0.60870   0.65073   0.65073   0.72320   0.73831
 Alpha virt. eigenvalues --    0.73831   0.79171   1.06312   1.06312   1.26785
 Alpha virt. eigenvalues --    1.35191   1.45829   1.61603   1.61603   1.73122
 Alpha virt. eigenvalues --    1.73122   1.86777   1.86777   1.89229   2.27306
 Alpha virt. eigenvalues --    2.33525   2.33525   2.70692   2.70692   2.90103
 Alpha virt. eigenvalues --    2.97330   2.97330   3.44910   3.48991   3.48991
 Alpha virt. eigenvalues --    3.73001   3.82627   3.82627   4.26732   4.26732
 Alpha virt. eigenvalues --    4.34395   4.34396   4.61116   4.73791   4.73791
 Alpha virt. eigenvalues --    4.88682   5.60321   5.60321   5.68516   6.02892
 Alpha virt. eigenvalues --    6.02892   6.75824   6.75824   7.39221   7.49131
 Alpha virt. eigenvalues --    7.49131   7.62903   7.89734   7.89734   7.95203
 Alpha virt. eigenvalues --    7.95203   8.66726   8.85214   8.85214   9.17301
 Alpha virt. eigenvalues --    9.17302   9.33274   9.33274  10.38645  10.38646
 Alpha virt. eigenvalues --   10.59682  11.06569  11.06569  11.17931  11.17931
 Alpha virt. eigenvalues --   11.32574  11.32576  11.32789  11.93944  11.93944
 Alpha virt. eigenvalues --   12.31787  12.39775  12.39778  14.00128  14.00128
 Alpha virt. eigenvalues --   14.00296  16.73842  48.20906 251.21325
          Condensed to atoms (all electrons):
               1          2
     1  O    8.894454   0.380890
     2  H    0.380890   0.343767
 Mulliken charges:
               1
     1  O   -1.275343
     2  H    0.275343
 Sum of Mulliken charges =  -1.00000
 Mulliken charges with hydrogens summed into heavy atoms:
               1
     1  O   -1.000000
 Electronic spatial extent (au):  <R**2>=             24.9887
 Charge=             -1.0000 electrons
 Dipole moment (field-independent basis, Debye):
    X=              0.0000    Y=              0.0000    Z=             -1.3734  Tot=              1.3734
 Quadrupole moment (field-independent basis, Debye-Ang):
   XX=            -10.7206   YY=            -10.7206   ZZ=             -8.2179
   XY=              0.0000   XZ=              0.0000   YZ=              0.0000
 Traceless Quadrupole moment (field-independent basis, Debye-Ang):
   XX=             -0.8342   YY=             -0.8342   ZZ=              1.6685
   XY=              0.0000   XZ=              0.0000   YZ=              0.0000
 Octapole moment (field-independent basis, Debye-Ang**2):
  XXX=              0.0000  YYY=             -0.0000  ZZZ=             -0.9020  XYY=              0.0000
  XXY=              0.0000  XXZ=             -0.1111  XZZ=              0.0000  YZZ=              0.0000
  YYZ=             -0.1111  XYZ=              0.0000
 Hexadecapole moment (field-independent basis, Debye-Ang**3):
 XXXX=            -20.4720 YYYY=            -20.4720 ZZZZ=            -15.4644 XXXY=              0.0000
 XXXZ=              0.0000 YYYX=              0.0000 YYYZ=             -0.0000 ZZZX=              0.0000
 ZZZY=              0.0000 XXYY=             -6.8240 XXZZ=             -6.2087 YYZZ=             -6.2087
 XXYZ=              0.0000 YYXZ=              0.0000 ZZXY=              0.0000
 N-N= 4.400444615557D+00 E-N=-1.919539883169D+02  KE= 7.556669107114D+01
 PrsmSu:  requested number of processors reduced to:  21 ShMem   1 Linda.
 No NMR shielding tensors so no spin-rotation constants.
 Leave Link  601 at Sat Apr 17 19:26:07 2021, MaxMem=   104857600 cpu:              47.2 elap:               1.1
 (Enter /s/ls4/users/knvvv/bin/g16sse/l9999.exe)

 Test job not archived.
 1\1\GINC-N305\Stability\RM062X\Gen\H1O1(1-)\KNVVV\17-Apr-2021\0\\#P M0
 62X/GEN Integral=UltraFineGrid SCF=NoSymm Stable=(RExt, Opt) IOp(1/33=
 1)\\Database calculations.\\-1,1\O,0,0.,0.,0.\H,0,0.,0.,0.96204317\\Ve
 rsion=ES64L-G16RevA.03\State=1-SG\HF=-75.8021026\RMSD=4.052e-09\Dipole
 =0.,0.,0.5403213\Quadrupole=-0.6202436,-0.6202436,1.2404872,0.,0.,0.\P
 G=C*V [C*(H1O1)]\\@


 THE FIRST MORNING OF CREATION WROTE WHAT THE LAST DAWN OF
 RECKONING SHALL READ. -- OMAR KHAYYAM
 Job cpu time:       0 days  1 hours  3 minutes 12.3 seconds.
 Elapsed time:       0 days  0 hours  1 minutes 43.9 seconds.
 File lengths (MBytes):  RWF=     44 Int=      0 D2E=      0 Chk=      3 Scr=      1
 Normal termination of Gaussian 16 at Sat Apr 17 19:26:07 2021.
