 Entering Gaussian System, Link 0=/s/ls4/users/knvvv/bin/g16sse/g16
 Input=data/database/M062X--def2-QZVPPD--5_10_0-1_SW49.gjf
 Output=data/database/M062X--def2-QZVPPD--5_10_0-1_SW49.log
 Initial command:
 /s/ls4/users/knvvv/bin/g16sse/l1.exe "/s/ls4/users/knvvv/bin/scratch/Gau-33913.inp" -scrdir="/s/ls4/users/knvvv/bin/scratch/"
 Entering Link 1 = /s/ls4/users/knvvv/bin/g16sse/l1.exe PID=     33914.
  
 Copyright (c) 1988,1990,1992,1993,1995,1998,2003,2009,2016,
            Gaussian, Inc.  All Rights Reserved.
  
 This is part of the Gaussian(R) 16 program.  It is based on
 the Gaussian(R) 09 system (copyright 2009, Gaussian, Inc.),
 the Gaussian(R) 03 system (copyright 2003, Gaussian, Inc.),
 the Gaussian(R) 98 system (copyright 1998, Gaussian, Inc.),
 the Gaussian(R) 94 system (copyright 1995, Gaussian, Inc.),
 the Gaussian 92(TM) system (copyright 1992, Gaussian, Inc.),
 the Gaussian 90(TM) system (copyright 1990, Gaussian, Inc.),
 the Gaussian 88(TM) system (copyright 1988, Gaussian, Inc.),
 the Gaussian 86(TM) system (copyright 1986, Carnegie Mellon
 University), and the Gaussian 82(TM) system (copyright 1983,
 Carnegie Mellon University). Gaussian is a federally registered
 trademark of Gaussian, Inc.
  
 This software contains proprietary and confidential information,
 including trade secrets, belonging to Gaussian, Inc.
  
 This software is provided under written license and may be
 used, copied, transmitted, or stored only in accord with that
 written license.
  
 The following legend is applicable only to US Government
 contracts under FAR:
  
                    RESTRICTED RIGHTS LEGEND
  
 Use, reproduction and disclosure by the US Government is
 subject to restrictions as set forth in subparagraphs (a)
 and (c) of the Commercial Computer Software - Restricted
 Rights clause in FAR 52.227-19.
  
 Gaussian, Inc.
 340 Quinnipiac St., Bldg. 40, Wallingford CT 06492
  
  
 ---------------------------------------------------------------
 Warning -- This program may not be used in any manner that
 competes with the business of Gaussian, Inc. or will provide
 assistance to any competitor of Gaussian, Inc.  The licensee
 of this program is prohibited from giving any competitor of
 Gaussian, Inc. access to this program.  By using this program,
 the user acknowledges that Gaussian, Inc. is engaged in the
 business of creating and licensing software in the field of
 computational chemistry and represents and warrants to the
 licensee that it is not a competitor of Gaussian, Inc. and that
 it will not use this program in any manner prohibited above.
 ---------------------------------------------------------------
  

 Cite this work as:
 Gaussian 16, Revision A.03,
 M. J. Frisch, G. W. Trucks, H. B. Schlegel, G. E. Scuseria, 
 M. A. Robb, J. R. Cheeseman, G. Scalmani, V. Barone, 
 G. A. Petersson, H. Nakatsuji, X. Li, M. Caricato, A. V. Marenich, 
 J. Bloino, B. G. Janesko, R. Gomperts, B. Mennucci, H. P. Hratchian, 
 J. V. Ortiz, A. F. Izmaylov, J. L. Sonnenberg, D. Williams-Young, 
 F. Ding, F. Lipparini, F. Egidi, J. Goings, B. Peng, A. Petrone, 
 T. Henderson, D. Ranasinghe, V. G. Zakrzewski, J. Gao, N. Rega, 
 G. Zheng, W. Liang, M. Hada, M. Ehara, K. Toyota, R. Fukuda, 
 J. Hasegawa, M. Ishida, T. Nakajima, Y. Honda, O. Kitao, H. Nakai, 
 T. Vreven, K. Throssell, J. A. Montgomery, Jr., J. E. Peralta, 
 F. Ogliaro, M. J. Bearpark, J. J. Heyd, E. N. Brothers, K. N. Kudin, 
 V. N. Staroverov, T. A. Keith, R. Kobayashi, J. Normand, 
 K. Raghavachari, A. P. Rendell, J. C. Burant, S. S. Iyengar, 
 J. Tomasi, M. Cossi, J. M. Millam, M. Klene, C. Adamo, R. Cammi, 
 J. W. Ochterski, R. L. Martin, K. Morokuma, O. Farkas, 
 J. B. Foresman, and D. J. Fox, Gaussian, Inc., Wallingford CT, 2016.
 
 ******************************************
 Gaussian 16:  ES64L-G16RevA.03 25-Dec-2016
                18-Apr-2021 
 ******************************************
 %RWF=temp9_5628,70GB
 %nprocshared=48
 Will use up to   48 processors via shared memory.
 Default route: MaxDisk=80GB
 ----------------------------------------------------------------------
 #P M062X/GEN Integral=UltraFineGrid SCF=NoSymm Stable=(RExt, Opt) IOp(
 1/33=1)
 ----------------------------------------------------------------------
 1/33=1,38=1,172=1/1;
 2/12=2,17=6,18=5,40=1/2;
 3/5=7,11=2,25=1,30=1,74=-55,75=-5/1,2,3;
 4/9=2/1;
 5/5=2,38=5/2;
 6/7=2,8=2,9=2,10=2,28=1/1;
 8/6=1,10=90,11=11/1;
 9/8=-3,42=1,46=1/14;
 5/5=2,8=3,17=40,38=5/8(-2);
 6/7=2,8=2,9=2,10=2,28=1/1;
 99/5=1,9=1/99;
 Leave Link    1 at Sun Apr 18 11:17:24 2021, MaxMem=           0 cpu:              10.8 elap:               0.2
 (Enter /s/ls4/users/knvvv/bin/g16sse/l101.exe)
 ONIOM data not found on unit 2.
 ----------------------
 Database calculations.
 ----------------------
 TstMul:  ICh=    -2
 TstMul:  Mul=     1
 TstMul:  ICh=    -2
 TstMul:  Mul=     1
 Symbolic Z-matrix:
 Charge = -2 Multiplicity = 1
 O                     0.00019   1.23123   1.12687 
 S                    -0.00001   0.00001   0.26779 
 O                     1.23252  -0.00023  -0.60849 
 O                    -1.23254   0.00016  -0.60849 
 O                    -0.0002   -1.2311    1.12701 
 H                    -1.62663  -2.24252   0.8882 
 O                    -2.48489  -2.37357   0.44073 
 H                    -2.41612  -1.59079  -0.13248 
 H                     1.62662   2.24262   0.88793 
 O                     2.48488   2.37362   0.44044 
 H                     2.4161    1.59077  -0.13268 
 H                    -0.72269  -0.00004  -2.52698 
 O                    -0.00001  -0.00019  -3.18054 
 H                     0.72267  -0.00027  -2.52699 
 H                    -2.41562   1.59155  -0.13268 
 O                    -2.48414   2.37441   0.44045 
 H                    -1.62591   2.24313   0.88793 
 H                     1.6259   -2.24302   0.8882 
 O                     2.48413  -2.37436   0.44073 
 H                     2.41561  -1.59156  -0.1325 
 
 RdStrC is calling ZToCFu for IStruc=1 NZ=    20.
 PrtBox:  NBox=     5 Levels=  1 BoxLen=    8.00 SMaxX=        9.39
          Shift=            4.695765            4.486892            6.010346
 Box      1 Number                   0 centers from      1 to     11:
 Box      2 Number                   1 centers from     12 to     13:
 Box      3 Number                   2 centers from     14 to     16:
 Box      4 Number                   4 centers from     17 to     19:
 Box      5 Number                   6 centers from     20 to     20:
 After GenITR:
 ITRead=  0  0  0  0  0  0  0  0  0  0  0  0  0  0  0  0  0  0  0  0
 MicOpt= -1 -1 -1 -1 -1 -1 -1 -1 -1 -1 -1 -1 -1 -1 -1 -1 -1 -1 -1 -1
 ITRead=  0  0  0  0  0  0  0  0  0  0  0  0  0  0  0  0  0  0  0  0
 MicOpt= -1 -1 -1 -1 -1 -1 -1 -1 -1 -1 -1 -1 -1 -1 -1 -1 -1 -1 -1 -1
 NAtoms=     20 NQM=       20 NQMF=       0 NMMI=      0 NMMIF=      0
                NMic=       0 NMicF=      0.
                    Isotopes and Nuclear Properties:
 (Nuclear quadrupole moments (NQMom) in fm**2, nuclear magnetic moments (NMagM)
  in nuclear magnetons)

  Atom         1           2           3           4           5           6           7           8           9          10
 IAtWgt=          16          32          16          16          16           1          16           1           1          16
 AtmWgt=  15.9949146  31.9720718  15.9949146  15.9949146  15.9949146   1.0078250  15.9949146   1.0078250   1.0078250  15.9949146
 NucSpn=           0           0           0           0           0           1           0           1           1           0
 AtZEff=  -0.0000000  -0.0000000  -0.0000000  -0.0000000  -0.0000000  -0.0000000  -0.0000000  -0.0000000  -0.0000000  -0.0000000
 NQMom=    0.0000000   0.0000000   0.0000000   0.0000000   0.0000000   0.0000000   0.0000000   0.0000000   0.0000000   0.0000000
 NMagM=    0.0000000   0.0000000   0.0000000   0.0000000   0.0000000   2.7928460   0.0000000   2.7928460   2.7928460   0.0000000
 AtZNuc=   8.0000000  16.0000000   8.0000000   8.0000000   8.0000000   1.0000000   8.0000000   1.0000000   1.0000000   8.0000000

  Atom        11          12          13          14          15          16          17          18          19          20
 IAtWgt=           1           1          16           1           1          16           1           1          16           1
 AtmWgt=   1.0078250   1.0078250  15.9949146   1.0078250   1.0078250  15.9949146   1.0078250   1.0078250  15.9949146   1.0078250
 NucSpn=           1           1           0           1           1           0           1           1           0           1
 AtZEff=  -0.0000000  -0.0000000  -0.0000000  -0.0000000  -0.0000000  -0.0000000  -0.0000000  -0.0000000  -0.0000000  -0.0000000
 NQMom=    0.0000000   0.0000000   0.0000000   0.0000000   0.0000000   0.0000000   0.0000000   0.0000000   0.0000000   0.0000000
 NMagM=    2.7928460   2.7928460   0.0000000   2.7928460   2.7928460   0.0000000   2.7928460   2.7928460   0.0000000   2.7928460
 AtZNuc=   1.0000000   1.0000000   8.0000000   1.0000000   1.0000000   8.0000000   1.0000000   1.0000000   8.0000000   1.0000000
 No MM parameters found.
 Leave Link  101 at Sun Apr 18 11:17:24 2021, MaxMem=   104857600 cpu:               9.5 elap:               0.2
 (Enter /s/ls4/users/knvvv/bin/g16sse/l202.exe)
                          Input orientation:                          
 ---------------------------------------------------------------------
 Center     Atomic      Atomic             Coordinates (Angstroms)
 Number     Number       Type             X           Y           Z
 ---------------------------------------------------------------------
      1          8           0        0.000189    1.231231    1.126870
      2         16           0       -0.000007    0.000014    0.267789
      3          8           0        1.232521   -0.000232   -0.608490
      4          8           0       -1.232538    0.000158   -0.608487
      5          8           0       -0.000201   -1.231104    1.127013
      6          1           0       -1.626628   -2.242521    0.888201
      7          8           0       -2.484892   -2.373574    0.440729
      8          1           0       -2.416123   -1.590793   -0.132484
      9          1           0        1.626618    2.242623    0.887932
     10          8           0        2.484879    2.373621    0.440438
     11          1           0        2.416103    1.590772   -0.132681
     12          1           0       -0.722690   -0.000037   -2.526983
     13          8           0       -0.000010   -0.000192   -3.180538
     14          1           0        0.722672   -0.000269   -2.526986
     15          1           0       -2.415624    1.591545   -0.132679
     16          8           0       -2.484136    2.374411    0.440449
     17          1           0       -1.625914    2.243126    0.887933
     18          1           0        1.625904   -2.243022    0.888195
     19          8           0        2.484126   -2.374361    0.440726
     20          1           0        2.415613   -1.591564   -0.132496
 ---------------------------------------------------------------------
                    Distance matrix (angstroms):
                    1          2          3          4          5
     1  O    0.000000
     2  S    1.501305   0.000000
     3  O    2.458987   1.512280   0.000000
     4  O    2.458988   1.512281   2.465059   0.000000
     5  O    2.462335   1.501305   2.458988   2.458988   0.000000
     6  H    3.843234   2.838973   3.929717   2.724884   1.930093
     7  O    4.431821   3.440709   4.533517   2.881640   2.819559
     8  H    3.922799   2.920360   4.008624   2.039259   2.748161
     9  H    1.930098   2.838975   2.724883   3.929719   3.843238
    10  O    2.819562   3.440709   2.881636   4.533515   4.431822
    11  H    2.748159   2.920355   2.039253   4.008619   3.922797
    12  H    3.922909   2.886697   2.739245   1.985087   3.922907
    13  O    4.479974   3.448327   2.852116   2.852117   4.479971
    14  H    3.922912   2.886699   1.985088   2.739249   3.922908
    15  H    2.748171   2.920368   4.008630   2.039264   3.922810
    16  O    2.819558   3.440708   4.533513   2.881639   4.431821
    17  H    1.930086   2.838962   3.929706   2.724871   3.843225
    18  H    3.843221   2.838961   2.724871   3.929708   1.930085
    19  O    4.431820   3.440709   2.881642   4.533517   2.819558
    20  H    3.922811   2.920371   2.039268   4.008635   2.748172
                    6          7          8          9         10
     6  H    0.000000
     7  O    0.976741   0.000000
     8  H    1.445631   0.972650   0.000000
     9  H    5.540769   6.197885   5.663928   0.000000
    10  O    6.197883   6.872735   6.329663   0.976741   0.000000
    11  H    5.663922   6.329660   5.785565   1.445630   0.972650
    12  H    4.184414   4.188836   3.336442   4.712793   4.972760
    13  O    4.922252   4.992109   4.202172   4.922254   4.992107
    14  H    4.712792   4.972763   4.256224   4.184417   4.188834
    15  H    4.045340   4.006964   3.182338   4.219629   4.995502
    16  O    4.717188   4.747985   4.006959   4.137138   4.969015
    17  H    4.485647   4.717176   4.045320   3.252532   4.137137
    18  H    3.252532   4.137138   4.219617   4.485645   4.717173
    19  O    4.137138   4.969018   4.995497   4.717187   4.747982
    20  H    4.219630   4.995506   4.831736   4.045340   4.006962
                   11         12         13         14         15
    11  H    0.000000
    12  H    4.256216   0.000000
    13  O    4.202166   0.974372   0.000000
    14  H    3.336438   1.445362   0.974371   0.000000
    15  H    4.831727   3.336443   4.202174   4.256228   0.000000
    16  O    4.995489   4.188836   4.992111   4.972765   0.972650
    17  H    4.219611   4.184405   4.922245   4.712786   1.445631
    18  H    4.045316   4.712782   4.922242   4.184403   5.663924
    19  O    4.006957   4.972764   4.992110   4.188836   6.329672
    20  H    3.182336   4.256227   4.202173   3.336443   5.785588
                   16         17         18         19         20
    16  O    0.000000
    17  H    0.976741   0.000000
    18  H    6.197870   5.540744   0.000000
    19  O    6.872733   6.197871   0.976741   0.000000
    20  H    6.329673   5.663926   1.445631   0.972650   0.000000
 Stoichiometry    H10O9S(2-)
 Framework group  C1[X(H10O9S)]
 Deg. of freedom    54
 Full point group                 C1      NOp   1
 Largest Abelian subgroup         C1      NOp   1
 Largest concise Abelian subgroup C1      NOp   1
                         Standard orientation:                         
 ---------------------------------------------------------------------
 Center     Atomic      Atomic             Coordinates (Angstroms)
 Number     Number       Type             X           Y           Z
 ---------------------------------------------------------------------
      1          8           0       -0.000003    1.231234   -1.135010
      2         16           0        0.000000    0.000017   -0.275929
      3          8           0       -1.232528   -0.000036    0.600350
      4          8           0        1.232531   -0.000033    0.600347
      5          8           0        0.000001   -1.231101   -1.135153
      6          1           0        1.626269   -2.242774   -0.896341
      7          8           0        2.484513   -2.373961   -0.448869
      8          1           0        2.415867   -1.591169    0.124344
      9          1           0       -1.626273    2.242881   -0.896072
     10          8           0       -2.484514    2.374013   -0.448578
     11          1           0       -2.415860    1.591154    0.124541
     12          1           0        0.722683   -0.000148    2.518843
     13          8           0        0.000003   -0.000189    3.172398
     14          1           0       -0.722679   -0.000153    2.518846
     15          1           0        2.415867    1.591169    0.124539
     16          8           0        2.484502    2.374024   -0.448589
     17          1           0        1.626259    2.242874   -0.896073
     18          1           0       -1.626263   -2.242764   -0.896335
     19          8           0       -2.484505   -2.373969   -0.448866
     20          1           0       -2.415870   -1.591183    0.124356
 ---------------------------------------------------------------------
 Rotational constants (GHZ):           0.7381469           0.6981552           0.5503269
 Leave Link  202 at Sun Apr 18 11:17:24 2021, MaxMem=   104857600 cpu:               6.7 elap:               0.2
 (Enter /s/ls4/users/knvvv/bin/g16sse/l301.exe)
 General basis read from cards:  (5D, 7F)
 Centers:       6      8      9     11     12     14     15     17     18     20
 S 4 1.00
     Exponent=  1.9069169000D+02 Coefficients=  7.0815167000D-04
     Exponent=  2.8605532000D+01 Coefficients=  5.4678827000D-03
     Exponent=  6.5095943000D+00 Coefficients=  2.7966605000D-02
     Exponent=  1.8412455000D+00 Coefficients=  1.0764538000D-01
 S 1 1.00
     Exponent=  5.9853725000D-01 Coefficients=  1.0000000000D+00
 S 1 1.00
     Exponent=  2.1397624000D-01 Coefficients=  1.0000000000D+00
 S 1 1.00
     Exponent=  8.0316286000D-02 Coefficients=  1.0000000000D+00
 P 1 1.00
     Exponent=  2.2920000000D+00 Coefficients=  1.0000000000D+00
 P 1 1.00
     Exponent=  8.3800000000D-01 Coefficients=  1.0000000000D+00
 P 1 1.00
     Exponent=  2.9200000000D-01 Coefficients=  1.0000000000D+00
 P 1 1.00
     Exponent=  8.4063199228D-02 Coefficients=  1.0000000000D+00
 D 1 1.00
     Exponent=  2.0620000000D+00 Coefficients=  1.0000000000D+00
 D 1 1.00
     Exponent=  6.6200000000D-01 Coefficients=  1.0000000000D+00
 F 1 1.00
     Exponent=  1.3970000000D+00 Coefficients=  1.0000000000D+00
 ****
 Centers:       1      3      4      5      7     10     13     16     19
 S 8 1.00
     Exponent=  1.1650646908D+05 Coefficients=  4.0383857939D-05
     Exponent=  1.7504349724D+04 Coefficients=  3.1255139004D-04
     Exponent=  3.9934513230D+03 Coefficients=  1.6341473495D-03
     Exponent=  1.1330063186D+03 Coefficients=  6.8283224757D-03
     Exponent=  3.6999569594D+02 Coefficients=  2.4124410221D-02
     Exponent=  1.3362074349D+02 Coefficients=  7.2730206154D-02
     Exponent=  5.2035643649D+01 Coefficients=  1.7934429892D-01
     Exponent=  2.1461939313D+01 Coefficients=  3.3059588895D-01
 S 2 1.00
     Exponent=  8.9835051252D+01 Coefficients=  9.6468652996D-02
     Exponent=  2.6428010844D+01 Coefficients=  9.4117481120D-01
 S 1 1.00
     Exponent=  9.2822824649D+00 Coefficients=  1.0000000000D+00
 S 1 1.00
     Exponent=  4.0947728533D+00 Coefficients=  1.0000000000D+00
 S 1 1.00
     Exponent=  1.3255349078D+00 Coefficients=  1.0000000000D+00
 S 1 1.00
     Exponent=  5.1877230787D-01 Coefficients=  1.0000000000D+00
 S 1 1.00
     Exponent=  1.9772676454D-01 Coefficients=  1.0000000000D+00
 S 1 1.00
     Exponent=  6.9638535104D-02 Coefficients=  1.0000000000D+00
 P 5 1.00
     Exponent=  1.9115255810D+02 Coefficients=  2.5115697705D-03
     Exponent=  4.5233356739D+01 Coefficients=  2.0039240864D-02
     Exponent=  1.4353465922D+01 Coefficients=  9.3609064762D-02
     Exponent=  5.2422371832D+00 Coefficients=  3.0618127124D-01
     Exponent=  2.0792418599D+00 Coefficients=  6.7810501439D-01
 P 1 1.00
     Exponent=  8.4282371424D-01 Coefficients=  1.0000000000D+00
 P 1 1.00
     Exponent=  3.3617694891D-01 Coefficients=  1.0000000000D+00
 P 1 1.00
     Exponent=  1.2863997974D-01 Coefficients=  1.0000000000D+00
 P 1 1.00
     Exponent=  4.3598162776D-02 Coefficients=  1.0000000000D+00
 D 1 1.00
     Exponent=  3.7750000000D+00 Coefficients=  1.0000000000D+00
 D 1 1.00
     Exponent=  1.3000000000D+00 Coefficients=  1.0000000000D+00
 D 1 1.00
     Exponent=  4.4400000000D-01 Coefficients=  1.0000000000D+00
 D 1 1.00
     Exponent=  1.2546378695D-01 Coefficients=  1.0000000000D+00
 F 1 1.00
     Exponent=  2.6660000000D+00 Coefficients=  1.0000000000D+00
 F 1 1.00
     Exponent=  8.5900000000D-01 Coefficients=  1.0000000000D+00
 G 1 1.00
     Exponent=  1.8460000000D+00 Coefficients=  1.0000000000D+00
 ****
 Centers:       2
 S 10 1.00
     Exponent=  1.2734109023D+06 Coefficients=  1.1767088246D-05
     Exponent=  1.9069783007D+05 Coefficients=  9.1478610166D-05
     Exponent=  4.3397885330D+04 Coefficients=  4.8090078640D-04
     Exponent=  1.2291809677D+04 Coefficients=  2.0257193592D-03
     Exponent=  4.0097420824D+03 Coefficients=  7.3190096406D-03
     Exponent=  1.4473531030D+03 Coefficients=  2.3300499900D-02
     Exponent=  5.6430102913D+02 Coefficients=  6.5386213610D-02
     Exponent=  2.3374506243D+02 Coefficients=  1.5614449910D-01
     Exponent=  1.0156402814D+02 Coefficients=  2.9318563787D-01
     Exponent=  4.5805907187D+01 Coefficients=  3.6287914289D-01
 S 3 1.00
     Exponent=  3.9427281503D+02 Coefficients=  1.8753305081D-02
     Exponent=  1.2172249591D+02 Coefficients=  1.6870726663D-01
     Exponent=  4.6754125963D+01 Coefficients=  6.3806830653D-01
 S 1 1.00
     Exponent=  2.0923008254D+01 Coefficients=  1.0000000000D+00
 S 1 1.00
     Exponent=  8.2685567800D+00 Coefficients=  1.0000000000D+00
 S 1 1.00
     Exponent=  3.8629345671D+00 Coefficients=  1.0000000000D+00
 S 1 1.00
     Exponent=  1.7794684781D+00 Coefficients=  1.0000000000D+00
 S 1 1.00
     Exponent=  6.1064260103D-01 Coefficients=  1.0000000000D+00
 S 1 1.00
     Exponent=  2.7412269445D-01 Coefficients=  1.0000000000D+00
 S 1 1.00
     Exponent=  1.1325939107D-01 Coefficients=  1.0000000000D+00
 S 1 1.00
     Exponent=  4.4392624881D-02 Coefficients=  1.0000000000D+00
 P 8 1.00
     Exponent=  2.1898930459D+03 Coefficients=  2.3912552864D-04
     Exponent=  5.1894596592D+02 Coefficients=  2.0772032158D-03
     Exponent=  1.6819560151D+02 Coefficients=  1.1242420571D-02
     Exponent=  6.3745282788D+01 Coefficients=  4.4069933941D-02
     Exponent=  2.6597033077D+01 Coefficients=  1.2918778608D-01
     Exponent=  1.1774251449D+01 Coefficients=  2.6910820167D-01
     Exponent=  5.3534379024D+00 Coefficients=  3.7855928620D-01
     Exponent=  2.4701911802D+00 Coefficients=  2.9692134655D-01
 P 2 1.00
     Exponent=  8.2120288349D+01 Coefficients= -3.9420318847D-02
     Exponent=  4.9523532869D+00 Coefficients=  6.4048403090D-01
 P 1 1.00
     Exponent=  1.0828262029D+00 Coefficients=  1.0000000000D+00
 P 1 1.00
     Exponent=  4.9271277356D-01 Coefficients=  1.0000000000D+00
 P 1 1.00
     Exponent=  2.0483450942D-01 Coefficients=  1.0000000000D+00
 P 1 1.00
     Exponent=  8.0743615716D-02 Coefficients=  1.0000000000D+00
 P 1 1.00
     Exponent=  2.5661157833D-02 Coefficients=  1.0000000000D+00
 D 1 1.00
     Exponent=  4.1590000000D+00 Coefficients=  1.0000000000D+00
 D 1 1.00
     Exponent=  1.0190000000D+00 Coefficients=  1.0000000000D+00
 D 1 1.00
     Exponent=  4.6400000000D-01 Coefficients=  1.0000000000D+00
 D 1 1.00
     Exponent=  1.9400000000D-01 Coefficients=  1.0000000000D+00
 D 1 1.00
     Exponent=  6.7889829366D-02 Coefficients=  1.0000000000D+00
 F 1 1.00
     Exponent=  8.6900000000D-01 Coefficients=  1.0000000000D+00
 F 1 1.00
     Exponent=  3.3500000000D-01 Coefficients=  1.0000000000D+00
 G 1 1.00
     Exponent=  6.8300000000D-01 Coefficients=  1.0000000000D+00
 ****
 Ernie: Thresh=  0.10000D-02 Tol=  0.10000D-05 Strict=F.
 There are  1214 symmetry adapted cartesian basis functions of A   symmetry.
 There are  1003 symmetry adapted basis functions of A   symmetry.
  1003 basis functions,  1459 primitive gaussians,  1214 cartesian basis functions
    50 alpha electrons       50 beta electrons
       nuclear repulsion energy       793.6891219617 Hartrees.
 IExCor= 4336 DFT=T Ex+Corr=M062X ExCW=0 ScaHFX=  0.540000
 ScaDFX=  1.000000  1.000000  1.000000  1.000000 ScalE2=  1.000000  1.000000
 IRadAn=      5 IRanWt=     -1 IRanGd=            0 ICorTp=0 IEmpDi=  4
 NAtoms=   20 NActive=   20 NUniq=   20 SFac= 1.00D+00 NAtFMM=   60 NAOKFM=F Big=F
 Integral buffers will be    131072 words long.
 Raffenetti 2 integral format.
 Two-electron integral symmetry is turned on.
 Leave Link  301 at Sun Apr 18 11:17:24 2021, MaxMem=   104857600 cpu:               8.2 elap:               0.2
 (Enter /s/ls4/users/knvvv/bin/g16sse/l302.exe)
 NPDir=0 NMtPBC=     1 NCelOv=     1 NCel=       1 NClECP=     1 NCelD=      1
         NCelK=      1 NCelE2=     1 NClLst=     1 CellRange=     0.0.
 One-electron integrals computed using PRISM.
 One-electron integral symmetry used in STVInt
 PrsmSu:  requested number of processors reduced to:   3 ShMem   1 Linda.
 PrsmSu:  requested number of processors reduced to:  16 ShMem   1 Linda.
 NBasis=  1003 RedAO= T EigKep=  5.37D-06  NBF=  1003
 NBsUse=  1003 1.00D-06 EigRej= -1.00D+00 NBFU=  1003
 Precomputing XC quadrature grid using
 IXCGrd= 4 IRadAn=           5 IRanWt=          -1 IRanGd=           0 AccXCQ= 0.00D+00.
 Generated NRdTot=       0 NPtTot=           0 NUsed=           0 NTot=          32
 NSgBfM=  1192  1191  1191  1192  1192 MxSgAt=    20 MxSgA2=    20.
 Leave Link  302 at Sun Apr 18 11:17:49 2021, MaxMem=   104857600 cpu:            1130.8 elap:              24.2
 (Enter /s/ls4/users/knvvv/bin/g16sse/l303.exe)
 DipDrv:  MaxL=1.
 Leave Link  303 at Sun Apr 18 11:18:01 2021, MaxMem=   104857600 cpu:             597.6 elap:              12.8
 (Enter /s/ls4/users/knvvv/bin/g16sse/l401.exe)
 SCF N**3 symmetry information disabled.
 ExpMin= 2.57D-02 ExpMax= 1.27D+06 ExpMxC= 1.45D+03 IAcc=3 IRadAn=         5 AccDes= 0.00D+00
 Harris functional with IExCor= 1009 and IRadAn=       5 diagonalized for initial guess.
 HarFok:  IExCor= 1009 AccDes= 0.00D+00 IRadAn=         5 IDoV= 1 UseB2=F ITyADJ=14
 ICtDFT=  3500011 ScaDFX=  1.000000  1.000000  1.000000  1.000000
 CalDSu:  requested number of processors reduced to:  37 ShMem   1 Linda.
 FoFCou: FMM=F IPFlag=           0 FMFlag=      100000 FMFlg1=           0
         NFxFlg=           0 DoJE=T BraDBF=F KetDBF=T FulRan=T
         wScrn=  0.000000 ICntrl=       500 IOpCl=  0 I1Cent=   200000004 NGrid=           0
         NMat0=    1 NMatS0=      1 NMatT0=    0 NMatD0=    1 NMtDS0=    0 NMtDT0=    0
 Petite list used in FoFCou.
 CoulSu:  requested number of processors reduced to:  14 ShMem   1 Linda.
 CoulSu:  requested number of processors reduced to:  15 ShMem   1 Linda.
 CoulSu:  requested number of processors reduced to:  20 ShMem   1 Linda.
 CoulSu:  requested number of processors reduced to:  20 ShMem   1 Linda.
 Harris En= -1081.50126783792    
 JPrj=0 DoOrth=F DoCkMO=F.
 Leave Link  401 at Sun Apr 18 11:18:18 2021, MaxMem=   104857600 cpu:             698.8 elap:              16.2
 (Enter /s/ls4/users/knvvv/bin/g16sse/l502.exe)
 Integral symmetry usage will be decided dynamically.
 Closed shell SCF:
 Using DIIS extrapolation, IDIIS=  1040.
 NGot=   104857600 LenX=   101842342 LenY=   100367332
 Requested convergence on RMS density matrix=1.00D-08 within 128 cycles.
 Requested convergence on MAX density matrix=1.00D-06.
 Requested convergence on             energy=1.00D-06.
 No special actions if energy rises.
 Fock matrices will be formed incrementally for  20 cycles.

 Cycle   1  Pass 1  IDiag  1:
 FoFJK:  IHMeth= 1 ICntrl=       0 DoSepK=F KAlg= 0 I1Cent=           0 FoldK=F
 IRaf= 840000000 NMat=       1 IRICut=       1 DoRegI=T DoRafI=F ISym2E= 0 IDoP0=0 IntGTp=1.
 FoFCou: FMM=F IPFlag=           0 FMFlag=      100000 FMFlg1=           0
         NFxFlg=           0 DoJE=F BraDBF=F KetDBF=F FulRan=T
         wScrn=  0.000000 ICntrl=         0 IOpCl=  0 I1Cent=           0 NGrid=           0
         NMat0=    1 NMatS0=      1 NMatT0=    0 NMatD0=    1 NMtDS0=    0 NMtDT0=    0
 Symmetry not used in FoFCou.
 CoulSu:  requested number of processors reduced to:  16 ShMem   1 Linda.
 CalDSu:  requested number of processors reduced to:  36 ShMem   1 Linda.
 E= -1080.82381865551    
 DIIS: error= 3.89D-02 at cycle   1 NSaved=   1.
 NSaved= 1 IEnMin= 1 EnMin= -1080.82381865551     IErMin= 1 ErrMin= 3.89D-02
 ErrMax= 3.89D-02  0.00D+00 EMaxC= 1.00D-01 BMatC= 1.35D+00 BMatP= 1.35D+00
 IDIUse=3 WtCom= 6.11D-01 WtEn= 3.89D-01
 Coeff-Com:  0.100D+01
 Coeff-En:   0.100D+01
 Coeff:      0.100D+01
 Gap=     0.251 Goal=   None    Shift=    0.000
 GapD=    0.251 DampG=1.000 DampE=0.500 DampFc=0.5000 IDamp=-1.
 Damping current iteration by 5.00D-01
 RMSDP=1.20D-03 MaxDP=9.15D-02              OVMax= 1.96D-01

 Cycle   2  Pass 1  IDiag  1:
 RMSU=  5.93D-04    CP:  9.79D-01
 CoulSu:  requested number of processors reduced to:  16 ShMem   1 Linda.
 CalDSu:  requested number of processors reduced to:  36 ShMem   1 Linda.
 E= -1081.10881916034     Delta-E=       -0.285000504824 Rises=F Damp=T
 DIIS: error= 2.24D-02 at cycle   2 NSaved=   2.
 NSaved= 2 IEnMin= 2 EnMin= -1081.10881916034     IErMin= 2 ErrMin= 2.24D-02
 ErrMax= 2.24D-02  0.00D+00 EMaxC= 1.00D-01 BMatC= 1.31D-01 BMatP= 1.35D+00
 IDIUse=3 WtCom= 7.76D-01 WtEn= 2.24D-01
 Coeff-Com:  0.262D-01 0.974D+00
 Coeff-En:   0.156D+00 0.844D+00
 Coeff:      0.552D-01 0.945D+00
 Gap=     0.249 Goal=   None    Shift=    0.000
 RMSDP=5.82D-04 MaxDP=3.85D-02 DE=-2.85D-01 OVMax= 1.14D-01

 Cycle   3  Pass 1  IDiag  1:
 RMSU=  5.62D-04    CP:  9.57D-01  7.82D-01
 CoulSu:  requested number of processors reduced to:  16 ShMem   1 Linda.
 CalDSu:  requested number of processors reduced to:  36 ShMem   1 Linda.
 E= -1081.48338417633     Delta-E=       -0.374565015995 Rises=F Damp=F
 DIIS: error= 4.07D-03 at cycle   3 NSaved=   3.
 NSaved= 3 IEnMin= 3 EnMin= -1081.48338417633     IErMin= 3 ErrMin= 4.07D-03
 ErrMax= 4.07D-03  0.00D+00 EMaxC= 1.00D-01 BMatC= 8.89D-03 BMatP= 1.31D-01
 IDIUse=3 WtCom= 9.59D-01 WtEn= 4.07D-02
 Coeff-Com: -0.495D-01 0.140D+00 0.909D+00
 Coeff-En:   0.000D+00 0.000D+00 0.100D+01
 Coeff:     -0.475D-01 0.134D+00 0.913D+00
 Gap=     0.278 Goal=   None    Shift=    0.000
 RMSDP=1.36D-04 MaxDP=1.41D-02 DE=-3.75D-01 OVMax= 1.67D-02

 Cycle   4  Pass 1  IDiag  1:
 RMSU=  1.30D-04    CP:  9.60D-01  8.21D-01  9.46D-01
 CoulSu:  requested number of processors reduced to:  16 ShMem   1 Linda.
 CalDSu:  requested number of processors reduced to:  36 ShMem   1 Linda.
 E= -1081.48817964088     Delta-E=       -0.004795464546 Rises=F Damp=F
 DIIS: error= 2.35D-03 at cycle   4 NSaved=   4.
 NSaved= 4 IEnMin= 4 EnMin= -1081.48817964088     IErMin= 4 ErrMin= 2.35D-03
 ErrMax= 2.35D-03  0.00D+00 EMaxC= 1.00D-01 BMatC= 2.49D-03 BMatP= 8.89D-03
 IDIUse=3 WtCom= 9.76D-01 WtEn= 2.35D-02
 Coeff-Com: -0.190D-01 0.395D-01 0.422D+00 0.557D+00
 Coeff-En:   0.000D+00 0.000D+00 0.179D+00 0.821D+00
 Coeff:     -0.185D-01 0.386D-01 0.416D+00 0.564D+00
 Gap=     0.265 Goal=   None    Shift=    0.000
 RMSDP=6.04D-05 MaxDP=8.83D-03 DE=-4.80D-03 OVMax= 7.48D-03

 Cycle   5  Pass 1  IDiag  1:
 RMSU=  3.38D-05    CP:  9.56D-01  8.46D-01  9.56D-01  6.51D-01
 CoulSu:  requested number of processors reduced to:  16 ShMem   1 Linda.
 CalDSu:  requested number of processors reduced to:  36 ShMem   1 Linda.
 E= -1081.49008422542     Delta-E=       -0.001904584543 Rises=F Damp=F
 DIIS: error= 2.39D-04 at cycle   5 NSaved=   5.
 NSaved= 5 IEnMin= 5 EnMin= -1081.49008422542     IErMin= 5 ErrMin= 2.39D-04
 ErrMax= 2.39D-04  0.00D+00 EMaxC= 1.00D-01 BMatC= 5.84D-05 BMatP= 2.49D-03
 IDIUse=3 WtCom= 9.98D-01 WtEn= 2.39D-03
 Coeff-Com: -0.455D-02 0.910D-02 0.123D+00 0.206D+00 0.667D+00
 Coeff-En:   0.000D+00 0.000D+00 0.000D+00 0.000D+00 0.100D+01
 Coeff:     -0.454D-02 0.907D-02 0.123D+00 0.205D+00 0.668D+00
 Gap=     0.264 Goal=   None    Shift=    0.000
 RMSDP=8.42D-06 MaxDP=7.51D-04 DE=-1.90D-03 OVMax= 1.67D-03

 Cycle   6  Pass 1  IDiag  1:
 RMSU=  7.43D-06    CP:  9.56D-01  8.48D-01  9.56D-01  6.63D-01  1.10D+00
 CoulSu:  requested number of processors reduced to:  16 ShMem   1 Linda.
 CalDSu:  requested number of processors reduced to:  36 ShMem   1 Linda.
 E= -1081.49010943739     Delta-E=       -0.000025211965 Rises=F Damp=F
 DIIS: error= 1.46D-04 at cycle   6 NSaved=   6.
 NSaved= 6 IEnMin= 6 EnMin= -1081.49010943739     IErMin= 6 ErrMin= 1.46D-04
 ErrMax= 1.46D-04  0.00D+00 EMaxC= 1.00D-01 BMatC= 1.85D-05 BMatP= 5.84D-05
 IDIUse=3 WtCom= 9.99D-01 WtEn= 1.46D-03
 Coeff-Com: -0.490D-04-0.683D-04 0.138D-01 0.437D-01 0.384D+00 0.558D+00
 Coeff-En:   0.000D+00 0.000D+00 0.000D+00 0.000D+00 0.245D+00 0.755D+00
 Coeff:     -0.489D-04-0.682D-04 0.138D-01 0.437D-01 0.384D+00 0.558D+00
 Gap=     0.265 Goal=   None    Shift=    0.000
 RMSDP=3.37D-06 MaxDP=2.53D-04 DE=-2.52D-05 OVMax= 6.60D-04

 Cycle   7  Pass 1  IDiag  1:
 RMSU=  2.43D-06    CP:  9.56D-01  8.48D-01  9.55D-01  6.68D-01  1.15D+00
                    CP:  8.44D-01
 CoulSu:  requested number of processors reduced to:  16 ShMem   1 Linda.
 CalDSu:  requested number of processors reduced to:  36 ShMem   1 Linda.
 E= -1081.49012175038     Delta-E=       -0.000012312991 Rises=F Damp=F
 DIIS: error= 1.45D-05 at cycle   7 NSaved=   7.
 NSaved= 7 IEnMin= 7 EnMin= -1081.49012175038     IErMin= 7 ErrMin= 1.45D-05
 ErrMax= 1.45D-05  0.00D+00 EMaxC= 1.00D-01 BMatC= 2.04D-07 BMatP= 1.85D-05
 IDIUse=1 WtCom= 1.00D+00 WtEn= 0.00D+00
 Coeff-Com:  0.343D-03-0.689D-03-0.982D-02-0.101D-01-0.377D-02 0.595D-01
 Coeff-Com:  0.965D+00
 Coeff:      0.343D-03-0.689D-03-0.982D-02-0.101D-01-0.377D-02 0.595D-01
 Coeff:      0.965D+00
 Gap=     0.265 Goal=   None    Shift=    0.000
 RMSDP=1.10D-06 MaxDP=1.17D-04 DE=-1.23D-05 OVMax= 9.27D-05

 Cycle   8  Pass 1  IDiag  1:
 RMSU=  4.44D-07    CP:  9.56D-01  8.49D-01  9.55D-01  6.69D-01  1.18D+00
                    CP:  8.90D-01  1.07D+00
 CoulSu:  requested number of processors reduced to:  16 ShMem   1 Linda.
 CalDSu:  requested number of processors reduced to:  36 ShMem   1 Linda.
 E= -1081.49012190556     Delta-E=       -0.000000155187 Rises=F Damp=F
 DIIS: error= 7.41D-06 at cycle   8 NSaved=   8.
 NSaved= 8 IEnMin= 8 EnMin= -1081.49012190556     IErMin= 8 ErrMin= 7.41D-06
 ErrMax= 7.41D-06  0.00D+00 EMaxC= 1.00D-01 BMatC= 4.31D-08 BMatP= 2.04D-07
 IDIUse=1 WtCom= 1.00D+00 WtEn= 0.00D+00
 Coeff-Com:  0.140D-03-0.278D-03-0.467D-02-0.526D-02-0.939D-02 0.135D-01
 Coeff-Com:  0.423D+00 0.583D+00
 Coeff:      0.140D-03-0.278D-03-0.467D-02-0.526D-02-0.939D-02 0.135D-01
 Coeff:      0.423D+00 0.583D+00
 Gap=     0.265 Goal=   None    Shift=    0.000
 RMSDP=1.97D-07 MaxDP=2.87D-05 DE=-1.55D-07 OVMax= 2.86D-05

 Cycle   9  Pass 1  IDiag  1:
 RMSU=  1.67D-07    CP:  9.56D-01  8.49D-01  9.55D-01  6.70D-01  1.18D+00
                    CP:  8.85D-01  1.07D+00  9.88D-01
 CoulSu:  requested number of processors reduced to:  16 ShMem   1 Linda.
 CalDSu:  requested number of processors reduced to:  36 ShMem   1 Linda.
 E= -1081.49012193261     Delta-E=       -0.000000027049 Rises=F Damp=F
 DIIS: error= 1.79D-06 at cycle   9 NSaved=   9.
 NSaved= 9 IEnMin= 9 EnMin= -1081.49012193261     IErMin= 9 ErrMin= 1.79D-06
 ErrMax= 1.79D-06  0.00D+00 EMaxC= 1.00D-01 BMatC= 4.47D-09 BMatP= 4.31D-08
 IDIUse=1 WtCom= 1.00D+00 WtEn= 0.00D+00
 Coeff-Com: -0.305D-04 0.550D-04 0.207D-03-0.591D-04-0.381D-02-0.877D-02
 Coeff-Com: -0.484D-01 0.207D+00 0.854D+00
 Coeff:     -0.305D-04 0.550D-04 0.207D-03-0.591D-04-0.381D-02-0.877D-02
 Coeff:     -0.484D-01 0.207D+00 0.854D+00
 Gap=     0.265 Goal=   None    Shift=    0.000
 RMSDP=9.14D-08 MaxDP=1.20D-05 DE=-2.70D-08 OVMax= 1.32D-05

 Cycle  10  Pass 1  IDiag  1:
 RMSU=  4.00D-08    CP:  9.56D-01  8.49D-01  9.55D-01  6.70D-01  1.18D+00
                    CP:  8.84D-01  1.07D+00  1.14D+00  1.15D+00
 CoulSu:  requested number of processors reduced to:  16 ShMem   1 Linda.
 CalDSu:  requested number of processors reduced to:  36 ShMem   1 Linda.
 E= -1081.49012193626     Delta-E=       -0.000000003649 Rises=F Damp=F
 DIIS: error= 2.46D-07 at cycle  10 NSaved=  10.
 NSaved=10 IEnMin=10 EnMin= -1081.49012193626     IErMin=10 ErrMin= 2.46D-07
 ErrMax= 2.46D-07  0.00D+00 EMaxC= 1.00D-01 BMatC= 4.81D-11 BMatP= 4.47D-09
 IDIUse=1 WtCom= 1.00D+00 WtEn= 0.00D+00
 Coeff-Com: -0.700D-05 0.146D-04 0.158D-03 0.121D-03 0.736D-04-0.982D-03
 Coeff-Com: -0.221D-01-0.908D-02 0.723D-01 0.960D+00
 Coeff:     -0.700D-05 0.146D-04 0.158D-03 0.121D-03 0.736D-04-0.982D-03
 Coeff:     -0.221D-01-0.908D-02 0.723D-01 0.960D+00
 Gap=     0.265 Goal=   None    Shift=    0.000
 RMSDP=1.82D-08 MaxDP=3.16D-06 DE=-3.65D-09 OVMax= 2.39D-06

 Cycle  11  Pass 1  IDiag  1:
 RMSU=  9.37D-09    CP:  9.56D-01  8.49D-01  9.55D-01  6.70D-01  1.18D+00
                    CP:  8.84D-01  1.07D+00  1.15D+00  1.19D+00  1.12D+00
 CoulSu:  requested number of processors reduced to:  16 ShMem   1 Linda.
 CalDSu:  requested number of processors reduced to:  36 ShMem   1 Linda.
 E= -1081.49012193635     Delta-E=       -0.000000000091 Rises=F Damp=F
 DIIS: error= 7.30D-08 at cycle  11 NSaved=  11.
 NSaved=11 IEnMin=11 EnMin= -1081.49012193635     IErMin=11 ErrMin= 7.30D-08
 ErrMax= 7.30D-08  0.00D+00 EMaxC= 1.00D-01 BMatC= 3.62D-12 BMatP= 4.81D-11
 IDIUse=1 WtCom= 1.00D+00 WtEn= 0.00D+00
 Coeff-Com: -0.269D-06 0.116D-05 0.270D-04 0.255D-04 0.127D-03 0.135D-04
 Coeff-Com: -0.333D-02-0.835D-02-0.139D-01 0.222D+00 0.803D+00
 Coeff:     -0.269D-06 0.116D-05 0.270D-04 0.255D-04 0.127D-03 0.135D-04
 Coeff:     -0.333D-02-0.835D-02-0.139D-01 0.222D+00 0.803D+00
 Gap=     0.265 Goal=   None    Shift=    0.000
 RMSDP=3.38D-09 MaxDP=4.50D-07 DE=-9.14D-11 OVMax= 3.85D-07

 SCF Done:  E(RM062X) =  -1081.49012194     A.U. after   11 cycles
            NFock= 11  Conv=0.34D-08     -V/T= 2.0028
 KE= 1.078439046156D+03 PE=-4.179583342432D+03 EE= 1.225965052378D+03
 Leave Link  502 at Sun Apr 18 11:43:53 2021, MaxMem=   104857600 cpu:           32887.1 elap:            1535.8
 (Enter /s/ls4/users/knvvv/bin/g16sse/l601.exe)
 Copying SCF densities to generalized density rwf, IOpCl= 0 IROHF=0.

 **********************************************************************

            Population analysis using the SCF density.

 **********************************************************************

 Orbital symmetries:
       Occupied  (A) (A) (A) (A) (A) (A) (A) (A) (A) (A) (A) (A)
                 (A) (A) (A) (A) (A) (A) (A) (A) (A) (A) (A) (A)
                 (A) (A) (A) (A) (A) (A) (A) (A) (A) (A) (A) (A)
                 (A) (A) (A) (A) (A) (A) (A) (A) (A) (A) (A) (A)
                 (A) (A)
       Virtual   (A) (A) (A) (A) (A) (A) (A) (A) (A) (A) (A) (A)
                 (A) (A) (A) (A) (A) (A) (A) (A) (A) (A) (A) (A)
                 (A) (A) (A) (A) (A) (A) (A) (A) (A) (A) (A) (A)
                 (A) (A) (A) (A) (A) (A) (A) (A) (A) (A) (A) (A)
                 (A) (A) (A) (A) (A) (A) (A) (A) (A) (A) (A) (A)
                 (A) (A) (A) (A) (A) (A) (A) (A) (A) (A) (A) (A)
                 (A) (A) (A) (A) (A) (A) (A) (A) (A) (A) (A) (A)
                 (A) (A) (A) (A) (A) (A) (A) (A) (A) (A) (A) (A)
                 (A) (A) (A) (A) (A) (A) (A) (A) (A) (A) (A) (A)
                 (A) (A) (A) (A) (A) (A) (A) (A) (A) (A) (A) (A)
                 (A) (A) (A) (A) (A) (A) (A) (A) (A) (A) (A) (A)
                 (A) (A) (A) (A) (A) (A) (A) (A) (A) (A) (A) (A)
                 (A) (A) (A) (A) (A) (A) (A) (A) (A) (A) (A) (A)
                 (A) (A) (A) (A) (A) (A) (A) (A) (A) (A) (A) (A)
                 (A) (A) (A) (A) (A) (A) (A) (A) (A) (A) (A) (A)
                 (A) (A) (A) (A) (A) (A) (A) (A) (A) (A) (A) (A)
                 (A) (A) (A) (A) (A) (A) (A) (A) (A) (A) (A) (A)
                 (A) (A) (A) (A) (A) (A) (A) (A) (A) (A) (A) (A)
                 (A) (A) (A) (A) (A) (A) (A) (A) (A) (A) (A) (A)
                 (A) (A) (A) (A) (A) (A) (A) (A) (A) (A) (A) (A)
                 (A) (A) (A) (A) (A) (A) (A) (A) (A) (A) (A) (A)
                 (A) (A) (A) (A) (A) (A) (A) (A) (A) (A) (A) (A)
                 (A) (A) (A) (A) (A) (A) (A) (A) (A) (A) (A) (A)
                 (A) (A) (A) (A) (A) (A) (A) (A) (A) (A) (A) (A)
                 (A) (A) (A) (A) (A) (A) (A) (A) (A) (A) (A) (A)
                 (A) (A) (A) (A) (A) (A) (A) (A) (A) (A) (A) (A)
                 (A) (A) (A) (A) (A) (A) (A) (A) (A) (A) (A) (A)
                 (A) (A) (A) (A) (A) (A) (A) (A) (A) (A) (A) (A)
                 (A) (A) (A) (A) (A) (A) (A) (A) (A) (A) (A) (A)
                 (A) (A) (A) (A) (A) (A) (A) (A) (A) (A) (A) (A)
                 (A) (A) (A) (A) (A) (A) (A) (A) (A) (A) (A) (A)
                 (A) (A) (A) (A) (A) (A) (A) (A) (A) (A) (A) (A)
                 (A) (A) (A) (A) (A) (A) (A) (A) (A) (A) (A) (A)
                 (A) (A) (A) (A) (A) (A) (A) (A) (A) (A) (A) (A)
                 (A) (A) (A) (A) (A) (A) (A) (A) (A) (A) (A) (A)
                 (A) (A) (A) (A) (A) (A) (A) (A) (A) (A) (A) (A)
                 (A) (A) (A) (A) (A) (A) (A) (A) (A) (A) (A) (A)
                 (A) (A) (A) (A) (A) (A) (A) (A) (A) (A) (A) (A)
                 (A) (A) (A) (A) (A) (A) (A) (A) (A) (A) (A) (A)
                 (A) (A) (A) (A) (A) (A) (A) (A) (A) (A) (A) (A)
                 (A) (A) (A) (A) (A) (A) (A) (A) (A) (A) (A) (A)
                 (A) (A) (A) (A) (A) (A) (A) (A) (A) (A) (A) (A)
                 (A) (A) (A) (A) (A) (A) (A) (A) (A) (A) (A) (A)
                 (A) (A) (A) (A) (A) (A) (A) (A) (A) (A) (A) (A)
                 (A) (A) (A) (A) (A) (A) (A) (A) (A) (A) (A) (A)
                 (A) (A) (A) (A) (A) (A) (A) (A) (A) (A) (A) (A)
                 (A) (A) (A) (A) (A) (A) (A) (A) (A) (A) (A) (A)
                 (A) (A) (A) (A) (A) (A) (A) (A) (A) (A) (A) (A)
                 (A) (A) (A) (A) (A) (A) (A) (A) (A) (A) (A) (A)
                 (A) (A) (A) (A) (A) (A) (A) (A) (A) (A) (A) (A)
                 (A) (A) (A) (A) (A) (A) (A) (A) (A) (A) (A) (A)
                 (A) (A) (A) (A) (A) (A) (A) (A) (A) (A) (A) (A)
                 (A) (A) (A) (A) (A) (A) (A) (A) (A) (A) (A) (A)
                 (A) (A) (A) (A) (A) (A) (A) (A) (A) (A) (A) (A)
                 (A) (A) (A) (A) (A) (A) (A) (A) (A) (A) (A) (A)
                 (A) (A) (A) (A) (A) (A) (A) (A) (A) (A) (A) (A)
                 (A) (A) (A) (A) (A) (A) (A) (A) (A) (A) (A) (A)
                 (A) (A) (A) (A) (A) (A) (A) (A) (A) (A) (A) (A)
                 (A) (A) (A) (A) (A) (A) (A) (A) (A) (A) (A) (A)
                 (A) (A) (A) (A) (A) (A) (A) (A) (A) (A) (A) (A)
                 (A) (A) (A) (A) (A) (A) (A) (A) (A) (A) (A) (A)
                 (A) (A) (A) (A) (A) (A) (A) (A) (A) (A) (A) (A)
                 (A) (A) (A) (A) (A) (A) (A) (A) (A) (A) (A) (A)
                 (A) (A) (A) (A) (A) (A) (A) (A) (A) (A) (A) (A)
                 (A) (A) (A) (A) (A) (A) (A) (A) (A) (A) (A) (A)
                 (A) (A) (A) (A) (A) (A) (A) (A) (A) (A) (A) (A)
                 (A) (A) (A) (A) (A) (A) (A) (A) (A) (A) (A) (A)
                 (A) (A) (A) (A) (A) (A) (A) (A) (A) (A) (A) (A)
                 (A) (A) (A) (A) (A) (A) (A) (A) (A) (A) (A) (A)
                 (A) (A) (A) (A) (A) (A) (A) (A) (A) (A) (A) (A)
                 (A) (A) (A) (A) (A) (A) (A) (A) (A) (A) (A) (A)
                 (A) (A) (A) (A) (A) (A) (A) (A) (A) (A) (A) (A)
                 (A) (A) (A) (A) (A) (A) (A) (A) (A) (A) (A) (A)
                 (A) (A) (A) (A) (A) (A) (A) (A) (A) (A) (A) (A)
                 (A) (A) (A) (A) (A) (A) (A) (A) (A) (A) (A) (A)
                 (A) (A) (A) (A) (A) (A) (A) (A) (A) (A) (A) (A)
                 (A) (A) (A) (A) (A) (A) (A) (A) (A) (A) (A) (A)
                 (A) (A) (A) (A) (A) (A) (A) (A) (A) (A) (A) (A)
                 (A) (A) (A) (A) (A) (A) (A) (A) (A) (A) (A) (A)
                 (A) (A) (A) (A) (A)
 The electronic state is 1-A.
 Alpha  occ. eigenvalues --  -89.83666 -19.34841 -19.34833 -19.34833 -19.34833
 Alpha  occ. eigenvalues --  -19.34833 -19.32681 -19.32680 -19.32318 -19.32316
 Alpha  occ. eigenvalues --   -8.15381  -6.07834  -6.07822  -6.07802  -0.97200
 Alpha  occ. eigenvalues --   -0.85631  -0.85594  -0.85539  -0.85431  -0.85357
 Alpha  occ. eigenvalues --   -0.81068  -0.81039  -0.81022  -0.39627  -0.32428
 Alpha  occ. eigenvalues --   -0.32342  -0.31786  -0.31130  -0.31086  -0.27023
 Alpha  occ. eigenvalues --   -0.26928  -0.26741  -0.23664  -0.23347  -0.22738
 Alpha  occ. eigenvalues --   -0.22644  -0.21580  -0.14892  -0.14481  -0.13832
 Alpha  occ. eigenvalues --   -0.13806  -0.13414  -0.12867  -0.12843  -0.12344
 Alpha  occ. eigenvalues --   -0.12257  -0.12177  -0.07278  -0.07112  -0.06733
 Alpha virt. eigenvalues --    0.19753   0.19863   0.19953   0.19995   0.21390
 Alpha virt. eigenvalues --    0.22162   0.23378   0.23390   0.23916   0.24733
 Alpha virt. eigenvalues --    0.25222   0.25855   0.25947   0.25950   0.27742
 Alpha virt. eigenvalues --    0.28449   0.29462   0.29678   0.30078   0.30269
 Alpha virt. eigenvalues --    0.30483   0.31579   0.31850   0.32219   0.32705
 Alpha virt. eigenvalues --    0.33494   0.34405   0.34429   0.35149   0.35945
 Alpha virt. eigenvalues --    0.36937   0.38273   0.38581   0.39272   0.39535
 Alpha virt. eigenvalues --    0.39679   0.40914   0.41647   0.41684   0.42400
 Alpha virt. eigenvalues --    0.43217   0.44422   0.45490   0.45594   0.45628
 Alpha virt. eigenvalues --    0.47369   0.47642   0.47957   0.48138   0.48539
 Alpha virt. eigenvalues --    0.48749   0.49325   0.49429   0.49715   0.50497
 Alpha virt. eigenvalues --    0.50701   0.51172   0.51546   0.52004   0.52622
 Alpha virt. eigenvalues --    0.53397   0.53409   0.53879   0.54143   0.54504
 Alpha virt. eigenvalues --    0.54511   0.54547   0.54691   0.54717   0.55171
 Alpha virt. eigenvalues --    0.55621   0.55987   0.56071   0.56182   0.56793
 Alpha virt. eigenvalues --    0.57111   0.58849   0.59644   0.59986   0.61294
 Alpha virt. eigenvalues --    0.61470   0.62202   0.63233   0.63250   0.64979
 Alpha virt. eigenvalues --    0.65021   0.65544   0.65802   0.66329   0.66472
 Alpha virt. eigenvalues --    0.66771   0.66944   0.67664   0.67761   0.68102
 Alpha virt. eigenvalues --    0.69719   0.69888   0.70175   0.72144   0.72254
 Alpha virt. eigenvalues --    0.72385   0.73291   0.74366   0.74655   0.74762
 Alpha virt. eigenvalues --    0.75560   0.75868   0.77491   0.77569   0.77830
 Alpha virt. eigenvalues --    0.78907   0.78998   0.79390   0.79881   0.80809
 Alpha virt. eigenvalues --    0.81573   0.82618   0.82949   0.83252   0.83513
 Alpha virt. eigenvalues --    0.83752   0.84911   0.84958   0.85726   0.85789
 Alpha virt. eigenvalues --    0.86094   0.87113   0.87201   0.87645   0.88126
 Alpha virt. eigenvalues --    0.88128   0.88738   0.88823   0.88857   0.89699
 Alpha virt. eigenvalues --    0.89711   0.90451   0.90465   0.91012   0.91156
 Alpha virt. eigenvalues --    0.91961   0.92250   0.93019   0.93026   0.93807
 Alpha virt. eigenvalues --    0.94055   0.94628   0.94806   0.95157   0.95847
 Alpha virt. eigenvalues --    0.95981   0.96130   0.98986   0.99257   1.00610
 Alpha virt. eigenvalues --    1.01834   1.02877   1.02882   1.03825   1.04161
 Alpha virt. eigenvalues --    1.04596   1.05524   1.05646   1.06518   1.06650
 Alpha virt. eigenvalues --    1.08200   1.08973   1.09110   1.09595   1.10071
 Alpha virt. eigenvalues --    1.11463   1.11811   1.12984   1.15463   1.16697
 Alpha virt. eigenvalues --    1.17054   1.17347   1.18214   1.19231   1.20717
 Alpha virt. eigenvalues --    1.23484   1.23522   1.23598   1.24697   1.26897
 Alpha virt. eigenvalues --    1.27157   1.27500   1.29443   1.29966   1.30110
 Alpha virt. eigenvalues --    1.31478   1.35965   1.36243   1.36667   1.37154
 Alpha virt. eigenvalues --    1.38231   1.38792   1.39492   1.40067   1.42215
 Alpha virt. eigenvalues --    1.42576   1.43497   1.44077   1.44392   1.46019
 Alpha virt. eigenvalues --    1.46169   1.46646   1.47828   1.49623   1.50653
 Alpha virt. eigenvalues --    1.51294   1.51352   1.51708   1.52717   1.55985
 Alpha virt. eigenvalues --    1.56352   1.56930   1.57533   1.58610   1.61014
 Alpha virt. eigenvalues --    1.61362   1.62352   1.62802   1.64772   1.66255
 Alpha virt. eigenvalues --    1.66509   1.66543   1.68283   1.69554   1.69888
 Alpha virt. eigenvalues --    1.70449   1.71066   1.71508   1.72783   1.72829
 Alpha virt. eigenvalues --    1.74460   1.75363   1.76118   1.76187   1.77786
 Alpha virt. eigenvalues --    1.78201   1.80723   1.80748   1.81398   1.82944
 Alpha virt. eigenvalues --    1.83742   1.84399   1.86434   1.87182   1.87882
 Alpha virt. eigenvalues --    1.88070   1.88775   1.90421   1.90591   1.91931
 Alpha virt. eigenvalues --    1.92957   1.93275   1.93860   1.94479   1.95175
 Alpha virt. eigenvalues --    1.95540   1.95640   1.96299   1.97177   1.98144
 Alpha virt. eigenvalues --    1.99208   2.00238   2.00539   2.00621   2.01350
 Alpha virt. eigenvalues --    2.01983   2.05700   2.05874   2.07114   2.07849
 Alpha virt. eigenvalues --    2.08353   2.08676   2.09023   2.09101   2.10078
 Alpha virt. eigenvalues --    2.11275   2.13858   2.14578   2.14688   2.16289
 Alpha virt. eigenvalues --    2.16619   2.18789   2.21326   2.22043   2.24879
 Alpha virt. eigenvalues --    2.25283   2.26652   2.28773   2.29754   2.30344
 Alpha virt. eigenvalues --    2.30774   2.32328   2.33000   2.33054   2.33608
 Alpha virt. eigenvalues --    2.34079   2.37701   2.38080   2.38162   2.40242
 Alpha virt. eigenvalues --    2.41930   2.43053   2.44402   2.44468   2.44785
 Alpha virt. eigenvalues --    2.46227   2.47140   2.47302   2.47361   2.48164
 Alpha virt. eigenvalues --    2.48239   2.53572   2.55649   2.57394   2.58919
 Alpha virt. eigenvalues --    2.59711   2.60655   2.61966   2.63182   2.64575
 Alpha virt. eigenvalues --    2.64866   2.66876   2.69303   2.71342   2.71731
 Alpha virt. eigenvalues --    2.72732   2.75908   2.75992   2.77419   2.78287
 Alpha virt. eigenvalues --    2.80406   2.81031   2.83707   2.83880   2.84554
 Alpha virt. eigenvalues --    2.85057   2.89103   2.89599   2.89747   2.90623
 Alpha virt. eigenvalues --    2.90742   2.90840   2.91382   2.91940   2.94857
 Alpha virt. eigenvalues --    2.95875   2.96086   2.98969   2.99408   2.99588
 Alpha virt. eigenvalues --    3.00595   3.02548   3.02750   3.03119   3.03877
 Alpha virt. eigenvalues --    3.03979   3.04250   3.06488   3.06779   3.06798
 Alpha virt. eigenvalues --    3.08361   3.09329   3.10280   3.10472   3.11557
 Alpha virt. eigenvalues --    3.12390   3.16886   3.18048   3.18330   3.19654
 Alpha virt. eigenvalues --    3.21960   3.23340   3.24092   3.24376   3.26793
 Alpha virt. eigenvalues --    3.28072   3.31184   3.32930   3.34718   3.35792
 Alpha virt. eigenvalues --    3.43744   3.43799   3.45624   3.45727   3.46077
 Alpha virt. eigenvalues --    3.47562   3.48184   3.49636   3.51913   3.55867
 Alpha virt. eigenvalues --    3.57454   3.58251   3.58758   3.59047   3.59126
 Alpha virt. eigenvalues --    3.59652   3.60769   3.63222   3.64481   3.65061
 Alpha virt. eigenvalues --    3.65841   3.66955   3.69187   3.70689   3.71071
 Alpha virt. eigenvalues --    3.72039   3.72811   3.74520   3.75429   3.75622
 Alpha virt. eigenvalues --    3.78020   3.78039   3.83421   3.84261   3.85806
 Alpha virt. eigenvalues --    3.87013   3.91415   3.93303   3.94781   3.94809
 Alpha virt. eigenvalues --    3.95865   3.96215   3.97011   3.97315   3.97663
 Alpha virt. eigenvalues --    3.97912   3.98820   4.01616   4.02401   4.02956
 Alpha virt. eigenvalues --    4.13108   4.14284   4.15113   4.21478   4.23461
 Alpha virt. eigenvalues --    4.24104   4.24890   4.25356   4.25655   4.25841
 Alpha virt. eigenvalues --    4.27845   4.28475   4.28633   4.29413   4.30515
 Alpha virt. eigenvalues --    4.30787   4.34326   4.34696   4.35050   4.35137
 Alpha virt. eigenvalues --    4.35844   4.36223   4.37139   4.38130   4.38997
 Alpha virt. eigenvalues --    4.40105   4.40647   4.41054   4.43492   4.44261
 Alpha virt. eigenvalues --    4.47273   4.52214   4.52847   4.54516   4.58340
 Alpha virt. eigenvalues --    4.58367   4.59124   4.59815   4.59994   4.61056
 Alpha virt. eigenvalues --    4.61570   4.63093   4.63504   4.63543   4.64822
 Alpha virt. eigenvalues --    4.66603   4.67202   4.67306   4.70622   4.71164
 Alpha virt. eigenvalues --    4.71752   4.72675   4.73920   4.74160   4.81368
 Alpha virt. eigenvalues --    4.81776   4.82579   4.85103   4.86001   4.86017
 Alpha virt. eigenvalues --    4.87090   4.88294   4.88527   4.89122   4.89774
 Alpha virt. eigenvalues --    4.89947   4.91035   4.93190   4.93291   4.93336
 Alpha virt. eigenvalues --    4.94997   4.95744   4.96599   5.04592   5.05543
 Alpha virt. eigenvalues --    5.06534   5.08243   5.10897   5.13636   5.14871
 Alpha virt. eigenvalues --    5.17719   5.26862   5.27077   5.28324   5.30507
 Alpha virt. eigenvalues --    5.31621   5.32297   5.32654   5.35253   5.38900
 Alpha virt. eigenvalues --    5.38969   5.41433   5.41440   5.41540   5.45156
 Alpha virt. eigenvalues --    5.46937   5.55625   5.56780   5.59586   5.60414
 Alpha virt. eigenvalues --    5.61820   5.64260   5.66778   5.66825   5.67550
 Alpha virt. eigenvalues --    5.68595   5.69332   5.70150   5.70476   5.75795
 Alpha virt. eigenvalues --    5.75815   5.77039   5.77453   5.77794   5.87131
 Alpha virt. eigenvalues --    5.87625   5.89414   5.90000   5.91489   5.93974
 Alpha virt. eigenvalues --    5.96718   5.99412   6.04332   6.06981   6.12570
 Alpha virt. eigenvalues --    6.12755   6.14118   6.14414   6.15806   6.18663
 Alpha virt. eigenvalues --    6.19042   6.19707   6.21037   6.26702   6.26732
 Alpha virt. eigenvalues --    6.26924   6.30501   6.30984   6.32971   6.33110
 Alpha virt. eigenvalues --    6.39261   6.39526   6.41639   6.43718   6.50129
 Alpha virt. eigenvalues --    6.51070   6.68519   6.69703   6.70612   6.70918
 Alpha virt. eigenvalues --    6.72668   6.79609   6.79642   6.79700   6.79817
 Alpha virt. eigenvalues --    6.79831   6.97436   6.97544   6.97923   6.98011
 Alpha virt. eigenvalues --    6.98171   6.98504   6.98569   6.98584   6.98748
 Alpha virt. eigenvalues --    6.99557   7.08803   7.35146   7.36322   7.36632
 Alpha virt. eigenvalues --    7.37068   7.37669   7.41358   7.41841   7.41873
 Alpha virt. eigenvalues --    7.43841   7.45462   7.45776   7.47678   7.47706
 Alpha virt. eigenvalues --    7.50770   7.51828   7.53007   7.53437   7.54021
 Alpha virt. eigenvalues --    7.57058   7.57982   7.59021   7.59650   7.60097
 Alpha virt. eigenvalues --    7.60435   7.60812   7.61373   7.61404   7.61679
 Alpha virt. eigenvalues --    7.76510   7.77240   7.77938   7.78079   7.78248
 Alpha virt. eigenvalues --    7.85804   7.86011   7.87651   7.88503   7.89325
 Alpha virt. eigenvalues --    7.90647   7.90874   7.90941   7.91416   7.93241
 Alpha virt. eigenvalues --    7.94005   7.94794   7.95007   7.95532   7.98668
 Alpha virt. eigenvalues --    7.98945   8.00629   8.03582   8.04709   8.04915
 Alpha virt. eigenvalues --    8.06068   8.06587   8.06682   8.07654   8.08761
 Alpha virt. eigenvalues --    8.13328   8.17480   8.19117   8.19776   8.20250
 Alpha virt. eigenvalues --    8.20256   8.20481   8.20861   8.22115   8.23184
 Alpha virt. eigenvalues --    8.23221   8.24811   8.25531   8.26028   8.27700
 Alpha virt. eigenvalues --    8.29530   8.42884   8.43152   8.44779   8.44813
 Alpha virt. eigenvalues --    8.47570   8.56204   8.56646   8.56891   8.57755
 Alpha virt. eigenvalues --    8.58035   8.59902   8.60322   8.60538   8.61868
 Alpha virt. eigenvalues --    8.61970   8.65197   8.66328   8.66974   8.66982
 Alpha virt. eigenvalues --    8.68631   8.79162   8.80115   8.80234   8.80249
 Alpha virt. eigenvalues --    8.80728   8.82076   8.82283   8.82737   8.82820
 Alpha virt. eigenvalues --    8.83586   8.88746   8.92680   8.92757   8.97895
 Alpha virt. eigenvalues --    8.98215   8.99534   8.99547   8.99708   9.05949
 Alpha virt. eigenvalues --    9.08146   9.08773   9.09054   9.09939   9.11644
 Alpha virt. eigenvalues --    9.12857   9.13063   9.13710   9.14675   9.15598
 Alpha virt. eigenvalues --    9.18017   9.20482   9.21614   9.23126   9.23820
 Alpha virt. eigenvalues --    9.24904   9.27351   9.28665   9.28918   9.29262
 Alpha virt. eigenvalues --    9.29313   9.33103   9.34939   9.54209   9.56665
 Alpha virt. eigenvalues --    9.60946   9.61270   9.62154   9.65390   9.65628
 Alpha virt. eigenvalues --    9.69701   9.75739   9.78345   9.78592   9.79031
 Alpha virt. eigenvalues --    9.81071   9.86629   9.86998  10.08153  10.14349
 Alpha virt. eigenvalues --   10.15534  10.15646  10.15694  10.15734  10.16213
 Alpha virt. eigenvalues --   10.16421  10.16892  10.17238  10.17478  10.18875
 Alpha virt. eigenvalues --   10.18879  10.18948  10.19170  10.19242  10.38755
 Alpha virt. eigenvalues --   10.38820  10.39679  10.40119  10.40178  10.40246
 Alpha virt. eigenvalues --   10.40580  10.41253  10.79343  10.79446  10.79698
 Alpha virt. eigenvalues --   10.81990  10.82776  10.89494  10.90651  10.91194
 Alpha virt. eigenvalues --   10.92094  10.92354  11.12561  11.12872  11.13534
 Alpha virt. eigenvalues --   11.13704  11.14443  11.15191  11.15381  11.15818
 Alpha virt. eigenvalues --   11.17540  11.18090  11.18982  11.19307  11.20659
 Alpha virt. eigenvalues --   11.22467  11.23997  11.24300  11.26273  11.28556
 Alpha virt. eigenvalues --   11.29944  11.39659  11.39810  11.43376  11.43395
 Alpha virt. eigenvalues --   11.43490  11.43495  11.43557  11.46563  11.47808
 Alpha virt. eigenvalues --   11.48216  11.50698  11.52455  11.52616  11.55965
 Alpha virt. eigenvalues --   11.56661  11.58124  11.61496  11.71094  11.72369
 Alpha virt. eigenvalues --   11.72738  11.73379  11.73491  11.74312  11.75251
 Alpha virt. eigenvalues --   11.75790  11.77040  11.77230  11.77425  11.78239
 Alpha virt. eigenvalues --   11.78403  11.78526  11.78708  11.82289  11.82469
 Alpha virt. eigenvalues --   11.83589  11.84302  11.85772  11.91787  11.92274
 Alpha virt. eigenvalues --   11.93025  11.94879  11.94940  11.96930  11.96969
 Alpha virt. eigenvalues --   11.97454  11.99029  11.99192  12.05690  12.06817
 Alpha virt. eigenvalues --   12.08466  12.16998  12.30764  12.30797  12.30816
 Alpha virt. eigenvalues --   12.48339  12.49450  12.50133  12.53434  12.54050
 Alpha virt. eigenvalues --   12.63552  12.67401  12.70156  12.72281  12.72592
 Alpha virt. eigenvalues --   12.72922  12.74909  12.76070  12.77868  12.77900
 Alpha virt. eigenvalues --   12.78408  12.79393  12.83758  12.86916  12.96520
 Alpha virt. eigenvalues --   12.99938  13.01148  13.01174  13.02552  13.04577
 Alpha virt. eigenvalues --   13.05659  13.11354  13.11680  13.12314  13.21240
 Alpha virt. eigenvalues --   13.51126  13.51391  13.51433  13.52355  13.52493
 Alpha virt. eigenvalues --   13.72972  13.73032  13.73404  13.73517  13.73793
 Alpha virt. eigenvalues --   13.94664  13.94781  13.96625  13.96981  13.98137
 Alpha virt. eigenvalues --   13.98791  13.99058  13.99530  14.00298  14.01354
 Alpha virt. eigenvalues --   14.45546  14.47322  14.47723  14.47797  14.48334
 Alpha virt. eigenvalues --   14.48999  14.49967  14.50874  14.51360  16.54843
 Alpha virt. eigenvalues --   16.55451  16.55509  16.57011  16.57407  16.84465
 Alpha virt. eigenvalues --   16.85429  16.85697  16.85754  16.87122  25.42775
 Alpha virt. eigenvalues --   30.05850  30.06683  30.08524  48.51643  48.52520
 Alpha virt. eigenvalues --   48.53135  48.56523  48.69742  48.70179  48.70593
 Alpha virt. eigenvalues --   48.71059  48.71652  85.00505 251.61542 251.62955
 Alpha virt. eigenvalues --  251.63229 251.66660 251.79481 251.80120 251.80733
 Alpha virt. eigenvalues --  251.81229 251.81914 451.21668
          Condensed to atoms (all electrons):
               1          2          3          4          5          6
     1  O    8.312354   0.512657  -0.144961  -0.144960  -0.081570   0.001548
     2  S    0.512657  14.157987   0.313043   0.313044   0.512654   0.008105
     3  O   -0.144961   0.313043   8.750306  -0.201371  -0.144960  -0.001848
     4  O   -0.144960   0.313044  -0.201371   8.750306  -0.144961  -0.005054
     5  O   -0.081570   0.512654  -0.144960  -0.144961   8.312355   0.040499
     6  H    0.001548   0.008105  -0.001848  -0.005054   0.040499   0.332642
     7  O   -0.002204  -0.038541  -0.004982  -0.017456  -0.011408   0.253399
     8  H   -0.000041   0.014040   0.001070   0.003489  -0.010406   0.006516
     9  H    0.040498   0.008105  -0.005054  -0.001848   0.001548  -0.000101
    10  O   -0.011408  -0.038541  -0.017456  -0.004982  -0.002204  -0.000053
    11  H   -0.010406   0.014040   0.003489   0.001070  -0.000041  -0.000009
    12  H   -0.000625   0.016848  -0.001721   0.016418  -0.000625  -0.000039
    13  O   -0.003383  -0.034916  -0.012392  -0.012392  -0.003383   0.000273
    14  H   -0.000625   0.016848   0.016418  -0.001722  -0.000625   0.000004
    15  H   -0.010407   0.014040   0.001069   0.003488  -0.000041   0.000136
    16  O   -0.011409  -0.038541  -0.004982  -0.017455  -0.002204   0.000542
    17  H    0.040500   0.008105  -0.001848  -0.005054   0.001548   0.000004
    18  H    0.001548   0.008105  -0.005054  -0.001848   0.040501   0.000295
    19  O   -0.002204  -0.038541  -0.017455  -0.004982  -0.011409  -0.000341
    20  H   -0.000041   0.014040   0.003488   0.001069  -0.010407  -0.000075
               7          8          9         10         11         12
     1  O   -0.002204  -0.000041   0.040498  -0.011408  -0.010406  -0.000625
     2  S   -0.038541   0.014040   0.008105  -0.038541   0.014040   0.016848
     3  O   -0.004982   0.001070  -0.005054  -0.017456   0.003489  -0.001721
     4  O   -0.017456   0.003489  -0.001848  -0.004982   0.001070   0.016418
     5  O   -0.011408  -0.010406   0.001548  -0.002204  -0.000041  -0.000625
     6  H    0.253399   0.006516  -0.000101  -0.000053  -0.000009  -0.000039
     7  O    8.341119   0.263518  -0.000053  -0.000106   0.000031  -0.000057
     8  H    0.263518   0.347423  -0.000009   0.000031  -0.000003   0.001361
     9  H   -0.000053  -0.000009   0.332643   0.253399   0.006516   0.000004
    10  O   -0.000106   0.000031   0.253399   8.341119   0.263518   0.000268
    11  H    0.000031  -0.000003   0.006516   0.263518   0.347422  -0.000238
    12  H   -0.000057   0.001361   0.000004   0.000268  -0.000238   0.336265
    13  O   -0.000157  -0.000623   0.000273  -0.000157  -0.000623   0.252774
    14  H    0.000268  -0.000238  -0.000039  -0.000057   0.001361   0.009994
    15  H   -0.000712   0.000797  -0.000075   0.000193  -0.000080   0.001361
    16  O   -0.000057  -0.000712  -0.000341   0.000036   0.000193  -0.000057
    17  H    0.000542   0.000136   0.000295  -0.000341  -0.000075  -0.000039
    18  H   -0.000341  -0.000075   0.000004   0.000542   0.000136   0.000004
    19  O    0.000036   0.000193   0.000542  -0.000057  -0.000712   0.000268
    20  H    0.000193  -0.000080   0.000136  -0.000712   0.000797  -0.000238
              13         14         15         16         17         18
     1  O   -0.003383  -0.000625  -0.010407  -0.011409   0.040500   0.001548
     2  S   -0.034916   0.016848   0.014040  -0.038541   0.008105   0.008105
     3  O   -0.012392   0.016418   0.001069  -0.004982  -0.001848  -0.005054
     4  O   -0.012392  -0.001722   0.003488  -0.017455  -0.005054  -0.001848
     5  O   -0.003383  -0.000625  -0.000041  -0.002204   0.001548   0.040501
     6  H    0.000273   0.000004   0.000136   0.000542   0.000004   0.000295
     7  O   -0.000157   0.000268  -0.000712  -0.000057   0.000542  -0.000341
     8  H   -0.000623  -0.000238   0.000797  -0.000712   0.000136  -0.000075
     9  H    0.000273  -0.000039  -0.000075  -0.000341   0.000295   0.000004
    10  O   -0.000157  -0.000057   0.000193   0.000036  -0.000341   0.000542
    11  H   -0.000623   0.001361  -0.000080   0.000193  -0.000075   0.000136
    12  H    0.252774   0.009994   0.001361  -0.000057  -0.000039   0.000004
    13  O    8.353747   0.252774  -0.000623  -0.000157   0.000273   0.000273
    14  H    0.252774   0.336264  -0.000238   0.000268   0.000004  -0.000039
    15  H   -0.000623  -0.000238   0.347423   0.263518   0.006515  -0.000009
    16  O   -0.000157   0.000268   0.263518   8.341117   0.253400  -0.000053
    17  H    0.000273   0.000004   0.006515   0.253400   0.332642  -0.000101
    18  H    0.000273  -0.000039  -0.000009  -0.000053  -0.000101   0.332642
    19  O   -0.000157  -0.000057   0.000031  -0.000106  -0.000053   0.253400
    20  H   -0.000623   0.001361  -0.000003   0.000031  -0.000009   0.006515
              19         20
     1  O   -0.002204  -0.000041
     2  S   -0.038541   0.014040
     3  O   -0.017455   0.003488
     4  O   -0.004982   0.001069
     5  O   -0.011409  -0.010407
     6  H   -0.000341  -0.000075
     7  O    0.000036   0.000193
     8  H    0.000193  -0.000080
     9  H    0.000542   0.000136
    10  O   -0.000057  -0.000712
    11  H   -0.000712   0.000797
    12  H    0.000268  -0.000238
    13  O   -0.000157  -0.000623
    14  H   -0.000057   0.001361
    15  H    0.000031  -0.000003
    16  O   -0.000106   0.000031
    17  H   -0.000053  -0.000009
    18  H    0.253400   0.006515
    19  O    8.341117   0.263517
    20  H    0.263517   0.347424
 Mulliken charges:
               1
     1  O   -0.484861
     2  S    0.257419
     3  O   -0.524798
     4  O   -0.524800
     5  O   -0.484860
     6  H    0.363556
     7  O   -0.783032
     8  H    0.373615
     9  H    0.363557
    10  O   -0.783032
    11  H    0.373614
    12  H    0.368073
    13  O   -0.790801
    14  H    0.368074
    15  H    0.373616
    16  O   -0.783031
    17  H    0.363554
    18  H    0.363554
    19  O   -0.783031
    20  H    0.373616
 Sum of Mulliken charges =  -2.00000
 Mulliken charges with hydrogens summed into heavy atoms:
               1
     1  O   -0.484861
     2  S    0.257419
     3  O   -0.524798
     4  O   -0.524800
     5  O   -0.484860
     7  O   -0.045861
    10  O   -0.045861
    13  O   -0.054654
    16  O   -0.045861
    19  O   -0.045861
 Electronic spatial extent (au):  <R**2>=           2475.4026
 Charge=             -2.0000 electrons
 Dipole moment (field-independent basis, Debye):
    X=             -0.0000    Y=              0.0000    Z=             -0.2325  Tot=              0.2325
 Quadrupole moment (field-independent basis, Debye-Ang):
   XX=           -120.6322   YY=           -121.0526   ZZ=            -99.4013
   XY=              0.0000   XZ=              0.0000   YZ=             -0.0013
 Traceless Quadrupole moment (field-independent basis, Debye-Ang):
   XX=             -6.9369   YY=             -7.3572   ZZ=             14.2941
   XY=              0.0000   XZ=              0.0000   YZ=             -0.0013
 Octapole moment (field-independent basis, Debye-Ang**2):
  XXX=              0.0003  YYY=             -0.0021  ZZZ=            -69.4586  XYY=             -0.0001
  XXY=             -0.0024  XXZ=             40.2142  XZZ=             -0.0002  YZZ=              0.0056
  YYZ=             12.2230  XYZ=              0.0004
 Hexadecapole moment (field-independent basis, Debye-Ang**3):
 XXXX=          -1617.6909 YYYY=          -1489.0630 ZZZZ=           -964.4475 XXXY=              0.0027
 XXXZ=              0.0009 YYYX=             -0.0022 YYYZ=             -0.0336 ZZZX=              0.0002
 ZZZY=              0.0020 XXYY=           -779.0118 XXZZ=           -323.0067 YYZZ=           -310.0928
 XXYZ=             -0.0274 YYXZ=              0.0008 ZZXY=             -0.0002
 N-N= 7.936891219617D+02 E-N=-4.179583344554D+03  KE= 1.078439046156D+03
 PrsmSu:  requested number of processors reduced to:  18 ShMem   1 Linda.
 No NMR shielding tensors so no spin-rotation constants.
 Leave Link  601 at Sun Apr 18 11:44:11 2021, MaxMem=   104857600 cpu:             810.5 elap:              17.6
 (Enter /s/ls4/users/knvvv/bin/g16sse/l801.exe)
 DoSCS=F DFT=T ScalE2(SS,OS)=  1.000000  1.000000
 Range of M.O.s used for correlation:     1  1003
 NBasis=  1003 NAE=    50 NBE=    50 NFC=     0 NFV=     0
 NROrb=   1003 NOA=    50 NOB=    50 NVA=   953 NVB=   953

 **** Warning!!: The largest alpha MO coefficient is  0.80918315D+02

 Leave Link  801 at Sun Apr 18 11:44:11 2021, MaxMem=   104857600 cpu:               5.3 elap:               0.1
 (Enter /s/ls4/users/knvvv/bin/g16sse/l914.exe)
 RHF ground state
 Doing stability rather than CIS.
 Two-electron integrals replicated using symmetry.
 MDV=   104857600 DFT=T DoStab=T Mixed=T DoRPA=F DoScal=F NonHer=F
 Making orbital integer symmetry assigments:
 Orbital symmetries:
       Occupied  (A) (A) (A) (A) (A) (A) (A) (A) (A) (A) (A) (A)
                 (A) (A) (A) (A) (A) (A) (A) (A) (A) (A) (A) (A)
                 (A) (A) (A) (A) (A) (A) (A) (A) (A) (A) (A) (A)
                 (A) (A) (A) (A) (A) (A) (A) (A) (A) (A) (A) (A)
                 (A) (A)
       Virtual   (A) (A) (A) (A) (A) (A) (A) (A) (A) (A) (A) (A)
                 (A) (A) (A) (A) (A) (A) (A) (A) (A) (A) (A) (A)
                 (A) (A) (A) (A) (A) (A) (A) (A) (A) (A) (A) (A)
                 (A) (A) (A) (A) (A) (A) (A) (A) (A) (A) (A) (A)
                 (A) (A) (A) (A) (A) (A) (A) (A) (A) (A) (A) (A)
                 (A) (A) (A) (A) (A) (A) (A) (A) (A) (A) (A) (A)
                 (A) (A) (A) (A) (A) (A) (A) (A) (A) (A) (A) (A)
                 (A) (A) (A) (A) (A) (A) (A) (A) (A) (A) (A) (A)
                 (A) (A) (A) (A) (A) (A) (A) (A) (A) (A) (A) (A)
                 (A) (A) (A) (A) (A) (A) (A) (A) (A) (A) (A) (A)
                 (A) (A) (A) (A) (A) (A) (A) (A) (A) (A) (A) (A)
                 (A) (A) (A) (A) (A) (A) (A) (A) (A) (A) (A) (A)
                 (A) (A) (A) (A) (A) (A) (A) (A) (A) (A) (A) (A)
                 (A) (A) (A) (A) (A) (A) (A) (A) (A) (A) (A) (A)
                 (A) (A) (A) (A) (A) (A) (A) (A) (A) (A) (A) (A)
                 (A) (A) (A) (A) (A) (A) (A) (A) (A) (A) (A) (A)
                 (A) (A) (A) (A) (A) (A) (A) (A) (A) (A) (A) (A)
                 (A) (A) (A) (A) (A) (A) (A) (A) (A) (A) (A) (A)
                 (A) (A) (A) (A) (A) (A) (A) (A) (A) (A) (A) (A)
                 (A) (A) (A) (A) (A) (A) (A) (A) (A) (A) (A) (A)
                 (A) (A) (A) (A) (A) (A) (A) (A) (A) (A) (A) (A)
                 (A) (A) (A) (A) (A) (A) (A) (A) (A) (A) (A) (A)
                 (A) (A) (A) (A) (A) (A) (A) (A) (A) (A) (A) (A)
                 (A) (A) (A) (A) (A) (A) (A) (A) (A) (A) (A) (A)
                 (A) (A) (A) (A) (A) (A) (A) (A) (A) (A) (A) (A)
                 (A) (A) (A) (A) (A) (A) (A) (A) (A) (A) (A) (A)
                 (A) (A) (A) (A) (A) (A) (A) (A) (A) (A) (A) (A)
                 (A) (A) (A) (A) (A) (A) (A) (A) (A) (A) (A) (A)
                 (A) (A) (A) (A) (A) (A) (A) (A) (A) (A) (A) (A)
                 (A) (A) (A) (A) (A) (A) (A) (A) (A) (A) (A) (A)
                 (A) (A) (A) (A) (A) (A) (A) (A) (A) (A) (A) (A)
                 (A) (A) (A) (A) (A) (A) (A) (A) (A) (A) (A) (A)
                 (A) (A) (A) (A) (A) (A) (A) (A) (A) (A) (A) (A)
                 (A) (A) (A) (A) (A) (A) (A) (A) (A) (A) (A) (A)
                 (A) (A) (A) (A) (A) (A) (A) (A) (A) (A) (A) (A)
                 (A) (A) (A) (A) (A) (A) (A) (A) (A) (A) (A) (A)
                 (A) (A) (A) (A) (A) (A) (A) (A) (A) (A) (A) (A)
                 (A) (A) (A) (A) (A) (A) (A) (A) (A) (A) (A) (A)
                 (A) (A) (A) (A) (A) (A) (A) (A) (A) (A) (A) (A)
                 (A) (A) (A) (A) (A) (A) (A) (A) (A) (A) (A) (A)
                 (A) (A) (A) (A) (A) (A) (A) (A) (A) (A) (A) (A)
                 (A) (A) (A) (A) (A) (A) (A) (A) (A) (A) (A) (A)
                 (A) (A) (A) (A) (A) (A) (A) (A) (A) (A) (A) (A)
                 (A) (A) (A) (A) (A) (A) (A) (A) (A) (A) (A) (A)
                 (A) (A) (A) (A) (A) (A) (A) (A) (A) (A) (A) (A)
                 (A) (A) (A) (A) (A) (A) (A) (A) (A) (A) (A) (A)
                 (A) (A) (A) (A) (A) (A) (A) (A) (A) (A) (A) (A)
                 (A) (A) (A) (A) (A) (A) (A) (A) (A) (A) (A) (A)
                 (A) (A) (A) (A) (A) (A) (A) (A) (A) (A) (A) (A)
                 (A) (A) (A) (A) (A) (A) (A) (A) (A) (A) (A) (A)
                 (A) (A) (A) (A) (A) (A) (A) (A) (A) (A) (A) (A)
                 (A) (A) (A) (A) (A) (A) (A) (A) (A) (A) (A) (A)
                 (A) (A) (A) (A) (A) (A) (A) (A) (A) (A) (A) (A)
                 (A) (A) (A) (A) (A) (A) (A) (A) (A) (A) (A) (A)
                 (A) (A) (A) (A) (A) (A) (A) (A) (A) (A) (A) (A)
                 (A) (A) (A) (A) (A) (A) (A) (A) (A) (A) (A) (A)
                 (A) (A) (A) (A) (A) (A) (A) (A) (A) (A) (A) (A)
                 (A) (A) (A) (A) (A) (A) (A) (A) (A) (A) (A) (A)
                 (A) (A) (A) (A) (A) (A) (A) (A) (A) (A) (A) (A)
                 (A) (A) (A) (A) (A) (A) (A) (A) (A) (A) (A) (A)
                 (A) (A) (A) (A) (A) (A) (A) (A) (A) (A) (A) (A)
                 (A) (A) (A) (A) (A) (A) (A) (A) (A) (A) (A) (A)
                 (A) (A) (A) (A) (A) (A) (A) (A) (A) (A) (A) (A)
                 (A) (A) (A) (A) (A) (A) (A) (A) (A) (A) (A) (A)
                 (A) (A) (A) (A) (A) (A) (A) (A) (A) (A) (A) (A)
                 (A) (A) (A) (A) (A) (A) (A) (A) (A) (A) (A) (A)
                 (A) (A) (A) (A) (A) (A) (A) (A) (A) (A) (A) (A)
                 (A) (A) (A) (A) (A) (A) (A) (A) (A) (A) (A) (A)
                 (A) (A) (A) (A) (A) (A) (A) (A) (A) (A) (A) (A)
                 (A) (A) (A) (A) (A) (A) (A) (A) (A) (A) (A) (A)
                 (A) (A) (A) (A) (A) (A) (A) (A) (A) (A) (A) (A)
                 (A) (A) (A) (A) (A) (A) (A) (A) (A) (A) (A) (A)
                 (A) (A) (A) (A) (A) (A) (A) (A) (A) (A) (A) (A)
                 (A) (A) (A) (A) (A) (A) (A) (A) (A) (A) (A) (A)
                 (A) (A) (A) (A) (A) (A) (A) (A) (A) (A) (A) (A)
                 (A) (A) (A) (A) (A) (A) (A) (A) (A) (A) (A) (A)
                 (A) (A) (A) (A) (A) (A) (A) (A) (A) (A) (A) (A)
                 (A) (A) (A) (A) (A) (A) (A) (A) (A) (A) (A) (A)
                 (A) (A) (A) (A) (A) (A) (A) (A) (A) (A) (A) (A)
                 (A) (A) (A) (A) (A)
    24 initial guesses have been made.
 Convergence on wavefunction:    0.001000000000000
 Davidson Disk Diagonalization:  ConvIn= 1.00D-03 SkipCon=T Conv= 1.00D-03.
 Max sub-space:  2000 roots to seek:    24 dimension of matrix:        95300
 Iteration     1 Dimension    24 NMult     0 NNew     24
 Estimated number of processors is:    8
 CISAX will form     1 AO SS matrices at one time.
 NMat=     1 NSing=     1 JSym2X= 0.
 FoFJK:  IHMeth= 1 ICntrl=       0 DoSepK=F KAlg= 0 I1Cent=           0 FoldK=F
 IRaf= 840000000 NMat=       1 IRICut=       1 DoRegI=T DoRafI=F ISym2E= 0 IDoP0=0 IntGTp=1.
 FoFCou: FMM=F IPFlag=           0 FMFlag=      100000 FMFlg1=           0
         NFxFlg=           0 DoJE=F BraDBF=F KetDBF=F FulRan=T
         wScrn=  0.000000 ICntrl=         0 IOpCl=  0 I1Cent=           0 NGrid=           0
         NMat0=    1 NMatS0=      1 NMatT0=    0 NMatD0=    1 NMtDS0=    0 NMtDT0=    0
 Symmetry not used in FoFCou.
 CoulSu:  requested number of processors reduced to:  15 ShMem   1 Linda.
 CalDSu:  requested number of processors reduced to:  26 ShMem   1 Linda.
 NMat=     1 NSing=     1 JSym2X= 0.
 CoulSu:  requested number of processors reduced to:  15 ShMem   1 Linda.
 CalDSu:  requested number of processors reduced to:  26 ShMem   1 Linda.
 NMat=     1 NSing=     1 JSym2X= 0.
 CoulSu:  requested number of processors reduced to:  15 ShMem   1 Linda.
 CalDSu:  requested number of processors reduced to:  26 ShMem   1 Linda.
 NMat=     1 NSing=     1 JSym2X= 0.
 CoulSu:  requested number of processors reduced to:  15 ShMem   1 Linda.
 CalDSu:  requested number of processors reduced to:  26 ShMem   1 Linda.
 NMat=     1 NSing=     1 JSym2X= 0.
 CoulSu:  requested number of processors reduced to:  15 ShMem   1 Linda.
 CalDSu:  requested number of processors reduced to:  26 ShMem   1 Linda.
 NMat=     1 NSing=     1 JSym2X= 0.
 CoulSu:  requested number of processors reduced to:  15 ShMem   1 Linda.
 CalDSu:  requested number of processors reduced to:  26 ShMem   1 Linda.
 NMat=     1 NSing=     1 JSym2X= 0.
 CoulSu:  requested number of processors reduced to:  15 ShMem   1 Linda.
 CalDSu:  requested number of processors reduced to:  26 ShMem   1 Linda.
 NMat=     1 NSing=     1 JSym2X= 0.
 CoulSu:  requested number of processors reduced to:  15 ShMem   1 Linda.
 CalDSu:  requested number of processors reduced to:  26 ShMem   1 Linda.
 NMat=     1 NSing=     1 JSym2X= 0.
 CoulSu:  requested number of processors reduced to:  15 ShMem   1 Linda.
 CalDSu:  requested number of processors reduced to:  26 ShMem   1 Linda.
 NMat=     1 NSing=     1 JSym2X= 0.
 CoulSu:  requested number of processors reduced to:  15 ShMem   1 Linda.
 CalDSu:  requested number of processors reduced to:  26 ShMem   1 Linda.
 NMat=     1 NSing=     1 JSym2X= 0.
 CoulSu:  requested number of processors reduced to:  15 ShMem   1 Linda.
 CalDSu:  requested number of processors reduced to:  26 ShMem   1 Linda.
 NMat=     1 NSing=     1 JSym2X= 0.
 CoulSu:  requested number of processors reduced to:  15 ShMem   1 Linda.
 CalDSu:  requested number of processors reduced to:  26 ShMem   1 Linda.
 NMat=     1 NSing=     0 JSym2X= 0.
 CoulSu:  requested number of processors reduced to:  15 ShMem   1 Linda.
 CalDSu:  requested number of processors reduced to:  26 ShMem   1 Linda.
 NMat=     1 NSing=     0 JSym2X= 0.
 CoulSu:  requested number of processors reduced to:  15 ShMem   1 Linda.
 CalDSu:  requested number of processors reduced to:  26 ShMem   1 Linda.
 NMat=     1 NSing=     0 JSym2X= 0.
 CoulSu:  requested number of processors reduced to:  15 ShMem   1 Linda.
 CalDSu:  requested number of processors reduced to:  26 ShMem   1 Linda.
 NMat=     1 NSing=     0 JSym2X= 0.
 CoulSu:  requested number of processors reduced to:  15 ShMem   1 Linda.
 CalDSu:  requested number of processors reduced to:  26 ShMem   1 Linda.
 NMat=     1 NSing=     0 JSym2X= 0.
 CoulSu:  requested number of processors reduced to:  15 ShMem   1 Linda.
 CalDSu:  requested number of processors reduced to:  26 ShMem   1 Linda.
 NMat=     1 NSing=     0 JSym2X= 0.
 CoulSu:  requested number of processors reduced to:  15 ShMem   1 Linda.
 CalDSu:  requested number of processors reduced to:  26 ShMem   1 Linda.
 NMat=     1 NSing=     0 JSym2X= 0.
 CoulSu:  requested number of processors reduced to:  15 ShMem   1 Linda.
 CalDSu:  requested number of processors reduced to:  26 ShMem   1 Linda.
 NMat=     1 NSing=     0 JSym2X= 0.
 CoulSu:  requested number of processors reduced to:  15 ShMem   1 Linda.
 CalDSu:  requested number of processors reduced to:  26 ShMem   1 Linda.
 NMat=     1 NSing=     0 JSym2X= 0.
 CoulSu:  requested number of processors reduced to:  15 ShMem   1 Linda.
 CalDSu:  requested number of processors reduced to:  26 ShMem   1 Linda.
 NMat=     1 NSing=     0 JSym2X= 0.
 CoulSu:  requested number of processors reduced to:  15 ShMem   1 Linda.
 CalDSu:  requested number of processors reduced to:  26 ShMem   1 Linda.
 NMat=     1 NSing=     0 JSym2X= 0.
 CoulSu:  requested number of processors reduced to:  15 ShMem   1 Linda.
 CalDSu:  requested number of processors reduced to:  26 ShMem   1 Linda.
 NMat=     1 NSing=     0 JSym2X= 0.
 CoulSu:  requested number of processors reduced to:  15 ShMem   1 Linda.
 CalDSu:  requested number of processors reduced to:  26 ShMem   1 Linda.
 New state      1 was old state      4
 Excitation Energies [eV] at current iteration:
 Root      1 :     5.748337144407705
 Root      2 :     5.768390806200072
 Root      3 :     5.808573973431407
 Root      4 :     5.816945683134089
 Root      5 :     5.902075583319837
 Root      6 :     5.902367760453295
 Root      7 :     5.906701583883054
 Root      8 :     5.913346811035243
 Root      9 :     5.916669991369387
 Root     10 :     5.932607977957990
 Root     11 :     5.935664944386741
 Root     12 :     5.938826454609630
 Root     13 :     5.993539374668243
 Root     14 :     5.999145455151204
 Root     15 :     6.001888625341911
 Root     16 :     6.001939454790009
 Root     17 :     6.004000099042750
 Root     18 :     6.004730123404908
 Root     19 :     6.017539647546188
 Root     20 :     6.030439734972407
 Root     21 :     6.076414009849189
 Root     22 :     6.080389357756206
 Root     23 :     6.105853319451693
 Root     24 :     6.107916108779299
[...]
 Alpha virt. eigenvalues --    2.46227   2.47140   2.47302   2.47361   2.48164
 Alpha virt. eigenvalues --    2.48239   2.53572   2.55649   2.57394   2.58919
 Alpha virt. eigenvalues --    2.59711   2.60655   2.61966   2.63182   2.64575
 Alpha virt. eigenvalues --    2.64866   2.66876   2.69303   2.71342   2.71731
 Alpha virt. eigenvalues --    2.72732   2.75908   2.75992   2.77419   2.78287
 Alpha virt. eigenvalues --    2.80406   2.81031   2.83707   2.83880   2.84554
 Alpha virt. eigenvalues --    2.85057   2.89103   2.89599   2.89747   2.90623
 Alpha virt. eigenvalues --    2.90742   2.90840   2.91382   2.91940   2.94857
 Alpha virt. eigenvalues --    2.95875   2.96086   2.98969   2.99408   2.99588
 Alpha virt. eigenvalues --    3.00595   3.02548   3.02750   3.03119   3.03877
 Alpha virt. eigenvalues --    3.03979   3.04250   3.06488   3.06779   3.06798
 Alpha virt. eigenvalues --    3.08361   3.09329   3.10280   3.10472   3.11557
 Alpha virt. eigenvalues --    3.12390   3.16886   3.18048   3.18330   3.19654
 Alpha virt. eigenvalues --    3.21960   3.23340   3.24092   3.24376   3.26793
 Alpha virt. eigenvalues --    3.28072   3.31184   3.32930   3.34718   3.35792
 Alpha virt. eigenvalues --    3.43744   3.43799   3.45624   3.45727   3.46077
 Alpha virt. eigenvalues --    3.47562   3.48184   3.49636   3.51913   3.55867
 Alpha virt. eigenvalues --    3.57454   3.58251   3.58758   3.59047   3.59126
 Alpha virt. eigenvalues --    3.59652   3.60769   3.63222   3.64481   3.65061
 Alpha virt. eigenvalues --    3.65841   3.66955   3.69187   3.70689   3.71071
 Alpha virt. eigenvalues --    3.72039   3.72811   3.74520   3.75429   3.75622
 Alpha virt. eigenvalues --    3.78020   3.78039   3.83421   3.84261   3.85806
 Alpha virt. eigenvalues --    3.87013   3.91415   3.93303   3.94781   3.94809
 Alpha virt. eigenvalues --    3.95865   3.96215   3.97011   3.97315   3.97663
 Alpha virt. eigenvalues --    3.97912   3.98820   4.01616   4.02401   4.02956
 Alpha virt. eigenvalues --    4.13108   4.14284   4.15113   4.21478   4.23461
 Alpha virt. eigenvalues --    4.24104   4.24890   4.25356   4.25655   4.25841
 Alpha virt. eigenvalues --    4.27845   4.28475   4.28633   4.29413   4.30515
 Alpha virt. eigenvalues --    4.30787   4.34326   4.34696   4.35050   4.35137
 Alpha virt. eigenvalues --    4.35844   4.36223   4.37139   4.38130   4.38997
 Alpha virt. eigenvalues --    4.40105   4.40647   4.41054   4.43492   4.44261
 Alpha virt. eigenvalues --    4.47273   4.52214   4.52847   4.54516   4.58340
 Alpha virt. eigenvalues --    4.58367   4.59124   4.59815   4.59994   4.61056
 Alpha virt. eigenvalues --    4.61570   4.63093   4.63504   4.63543   4.64822
 Alpha virt. eigenvalues --    4.66603   4.67202   4.67306   4.70622   4.71164
 Alpha virt. eigenvalues --    4.71752   4.72675   4.73920   4.74160   4.81368
 Alpha virt. eigenvalues --    4.81776   4.82579   4.85103   4.86001   4.86017
 Alpha virt. eigenvalues --    4.87090   4.88294   4.88527   4.89122   4.89774
 Alpha virt. eigenvalues --    4.89947   4.91035   4.93190   4.93291   4.93336
 Alpha virt. eigenvalues --    4.94997   4.95744   4.96599   5.04592   5.05543
 Alpha virt. eigenvalues --    5.06534   5.08243   5.10897   5.13636   5.14871
 Alpha virt. eigenvalues --    5.17719   5.26862   5.27077   5.28324   5.30507
 Alpha virt. eigenvalues --    5.31621   5.32297   5.32654   5.35253   5.38900
 Alpha virt. eigenvalues --    5.38969   5.41433   5.41440   5.41540   5.45156
 Alpha virt. eigenvalues --    5.46937   5.55625   5.56780   5.59586   5.60414
 Alpha virt. eigenvalues --    5.61820   5.64260   5.66778   5.66825   5.67550
 Alpha virt. eigenvalues --    5.68595   5.69332   5.70150   5.70476   5.75795
 Alpha virt. eigenvalues --    5.75815   5.77039   5.77453   5.77794   5.87131
 Alpha virt. eigenvalues --    5.87625   5.89414   5.90000   5.91489   5.93974
 Alpha virt. eigenvalues --    5.96718   5.99412   6.04332   6.06981   6.12570
 Alpha virt. eigenvalues --    6.12755   6.14118   6.14414   6.15806   6.18663
 Alpha virt. eigenvalues --    6.19042   6.19707   6.21037   6.26702   6.26732
 Alpha virt. eigenvalues --    6.26924   6.30501   6.30984   6.32971   6.33110
 Alpha virt. eigenvalues --    6.39261   6.39526   6.41639   6.43718   6.50129
 Alpha virt. eigenvalues --    6.51070   6.68519   6.69703   6.70612   6.70918
 Alpha virt. eigenvalues --    6.72668   6.79609   6.79642   6.79700   6.79817
 Alpha virt. eigenvalues --    6.79831   6.97436   6.97544   6.97923   6.98011
 Alpha virt. eigenvalues --    6.98171   6.98504   6.98569   6.98584   6.98748
 Alpha virt. eigenvalues --    6.99557   7.08803   7.35146   7.36322   7.36632
 Alpha virt. eigenvalues --    7.37068   7.37669   7.41358   7.41841   7.41873
 Alpha virt. eigenvalues --    7.43841   7.45462   7.45776   7.47678   7.47706
 Alpha virt. eigenvalues --    7.50770   7.51828   7.53007   7.53437   7.54021
 Alpha virt. eigenvalues --    7.57058   7.57982   7.59021   7.59650   7.60097
 Alpha virt. eigenvalues --    7.60435   7.60812   7.61373   7.61404   7.61679
 Alpha virt. eigenvalues --    7.76510   7.77240   7.77938   7.78079   7.78248
 Alpha virt. eigenvalues --    7.85804   7.86011   7.87651   7.88503   7.89325
 Alpha virt. eigenvalues --    7.90647   7.90874   7.90941   7.91416   7.93241
 Alpha virt. eigenvalues --    7.94005   7.94794   7.95007   7.95532   7.98668
 Alpha virt. eigenvalues --    7.98945   8.00629   8.03582   8.04709   8.04915
 Alpha virt. eigenvalues --    8.06068   8.06587   8.06682   8.07654   8.08761
 Alpha virt. eigenvalues --    8.13328   8.17480   8.19117   8.19776   8.20250
 Alpha virt. eigenvalues --    8.20256   8.20481   8.20861   8.22115   8.23184
 Alpha virt. eigenvalues --    8.23221   8.24811   8.25531   8.26028   8.27700
 Alpha virt. eigenvalues --    8.29530   8.42884   8.43152   8.44779   8.44813
 Alpha virt. eigenvalues --    8.47570   8.56204   8.56646   8.56891   8.57755
 Alpha virt. eigenvalues --    8.58035   8.59902   8.60322   8.60538   8.61868
 Alpha virt. eigenvalues --    8.61970   8.65197   8.66328   8.66974   8.66982
 Alpha virt. eigenvalues --    8.68631   8.79162   8.80115   8.80234   8.80249
 Alpha virt. eigenvalues --    8.80728   8.82076   8.82283   8.82737   8.82820
 Alpha virt. eigenvalues --    8.83586   8.88746   8.92680   8.92757   8.97895
 Alpha virt. eigenvalues --    8.98215   8.99534   8.99547   8.99708   9.05949
 Alpha virt. eigenvalues --    9.08146   9.08773   9.09054   9.09939   9.11644
 Alpha virt. eigenvalues --    9.12857   9.13063   9.13710   9.14675   9.15598
 Alpha virt. eigenvalues --    9.18017   9.20482   9.21614   9.23126   9.23820
 Alpha virt. eigenvalues --    9.24904   9.27351   9.28665   9.28918   9.29262
 Alpha virt. eigenvalues --    9.29313   9.33103   9.34939   9.54209   9.56665
 Alpha virt. eigenvalues --    9.60946   9.61270   9.62154   9.65390   9.65628
 Alpha virt. eigenvalues --    9.69701   9.75739   9.78345   9.78592   9.79031
 Alpha virt. eigenvalues --    9.81071   9.86629   9.86998  10.08153  10.14349
 Alpha virt. eigenvalues --   10.15534  10.15646  10.15694  10.15734  10.16213
 Alpha virt. eigenvalues --   10.16421  10.16892  10.17238  10.17478  10.18875
 Alpha virt. eigenvalues --   10.18879  10.18948  10.19170  10.19242  10.38755
 Alpha virt. eigenvalues --   10.38820  10.39679  10.40119  10.40178  10.40246
 Alpha virt. eigenvalues --   10.40580  10.41253  10.79343  10.79446  10.79698
 Alpha virt. eigenvalues --   10.81990  10.82776  10.89494  10.90651  10.91194
 Alpha virt. eigenvalues --   10.92094  10.92354  11.12561  11.12872  11.13534
 Alpha virt. eigenvalues --   11.13704  11.14443  11.15191  11.15381  11.15818
 Alpha virt. eigenvalues --   11.17540  11.18090  11.18982  11.19307  11.20659
 Alpha virt. eigenvalues --   11.22467  11.23997  11.24300  11.26273  11.28556
 Alpha virt. eigenvalues --   11.29944  11.39659  11.39810  11.43376  11.43395
 Alpha virt. eigenvalues --   11.43490  11.43495  11.43557  11.46563  11.47808
 Alpha virt. eigenvalues --   11.48216  11.50698  11.52455  11.52616  11.55965
 Alpha virt. eigenvalues --   11.56661  11.58124  11.61496  11.71094  11.72369
 Alpha virt. eigenvalues --   11.72738  11.73379  11.73491  11.74312  11.75251
 Alpha virt. eigenvalues --   11.75790  11.77040  11.77230  11.77425  11.78239
 Alpha virt. eigenvalues --   11.78403  11.78526  11.78708  11.82289  11.82469
 Alpha virt. eigenvalues --   11.83589  11.84302  11.85772  11.91787  11.92274
 Alpha virt. eigenvalues --   11.93025  11.94879  11.94940  11.96930  11.96969
 Alpha virt. eigenvalues --   11.97454  11.99029  11.99192  12.05690  12.06817
 Alpha virt. eigenvalues --   12.08466  12.16998  12.30764  12.30797  12.30816
 Alpha virt. eigenvalues --   12.48339  12.49450  12.50133  12.53434  12.54050
 Alpha virt. eigenvalues --   12.63552  12.67401  12.70156  12.72281  12.72592
 Alpha virt. eigenvalues --   12.72922  12.74909  12.76070  12.77868  12.77900
 Alpha virt. eigenvalues --   12.78408  12.79393  12.83758  12.86916  12.96520
 Alpha virt. eigenvalues --   12.99938  13.01148  13.01174  13.02552  13.04577
 Alpha virt. eigenvalues --   13.05659  13.11354  13.11680  13.12314  13.21240
 Alpha virt. eigenvalues --   13.51126  13.51391  13.51433  13.52355  13.52493
 Alpha virt. eigenvalues --   13.72972  13.73032  13.73404  13.73517  13.73793
 Alpha virt. eigenvalues --   13.94664  13.94781  13.96625  13.96981  13.98137
 Alpha virt. eigenvalues --   13.98791  13.99058  13.99530  14.00298  14.01354
 Alpha virt. eigenvalues --   14.45546  14.47322  14.47723  14.47797  14.48334
 Alpha virt. eigenvalues --   14.48999  14.49967  14.50874  14.51360  16.54843
 Alpha virt. eigenvalues --   16.55451  16.55509  16.57011  16.57407  16.84465
 Alpha virt. eigenvalues --   16.85429  16.85697  16.85754  16.87122  25.42775
 Alpha virt. eigenvalues --   30.05850  30.06683  30.08524  48.51643  48.52520
 Alpha virt. eigenvalues --   48.53135  48.56523  48.69742  48.70179  48.70593
 Alpha virt. eigenvalues --   48.71059  48.71652  85.00505 251.61542 251.62955
 Alpha virt. eigenvalues --  251.63229 251.66660 251.79481 251.80120 251.80733
 Alpha virt. eigenvalues --  251.81229 251.81914 451.21668
          Condensed to atoms (all electrons):
               1          2          3          4          5          6
     1  O    8.312354   0.512657  -0.144961  -0.144960  -0.081570   0.001548
     2  S    0.512657  14.157987   0.313043   0.313044   0.512654   0.008105
     3  O   -0.144961   0.313043   8.750306  -0.201371  -0.144960  -0.001848
     4  O   -0.144960   0.313044  -0.201371   8.750306  -0.144961  -0.005054
     5  O   -0.081570   0.512654  -0.144960  -0.144961   8.312355   0.040499
     6  H    0.001548   0.008105  -0.001848  -0.005054   0.040499   0.332642
     7  O   -0.002204  -0.038541  -0.004982  -0.017456  -0.011408   0.253399
     8  H   -0.000041   0.014040   0.001070   0.003489  -0.010406   0.006516
     9  H    0.040498   0.008105  -0.005054  -0.001848   0.001548  -0.000101
    10  O   -0.011408  -0.038541  -0.017456  -0.004982  -0.002204  -0.000053
    11  H   -0.010406   0.014040   0.003489   0.001070  -0.000041  -0.000009
    12  H   -0.000625   0.016848  -0.001721   0.016418  -0.000625  -0.000039
    13  O   -0.003383  -0.034916  -0.012392  -0.012392  -0.003383   0.000273
    14  H   -0.000625   0.016848   0.016418  -0.001722  -0.000625   0.000004
    15  H   -0.010407   0.014040   0.001069   0.003488  -0.000041   0.000136
    16  O   -0.011409  -0.038541  -0.004982  -0.017455  -0.002204   0.000542
    17  H    0.040500   0.008105  -0.001848  -0.005054   0.001548   0.000004
    18  H    0.001548   0.008105  -0.005054  -0.001848   0.040501   0.000295
    19  O   -0.002204  -0.038541  -0.017455  -0.004982  -0.011409  -0.000341
    20  H   -0.000041   0.014040   0.003488   0.001069  -0.010407  -0.000075
               7          8          9         10         11         12
     1  O   -0.002204  -0.000041   0.040498  -0.011408  -0.010406  -0.000625
     2  S   -0.038541   0.014040   0.008105  -0.038541   0.014040   0.016848
     3  O   -0.004982   0.001070  -0.005054  -0.017456   0.003489  -0.001721
     4  O   -0.017456   0.003489  -0.001848  -0.004982   0.001070   0.016418
     5  O   -0.011408  -0.010406   0.001548  -0.002204  -0.000041  -0.000625
     6  H    0.253399   0.006516  -0.000101  -0.000053  -0.000009  -0.000039
     7  O    8.341119   0.263518  -0.000053  -0.000106   0.000031  -0.000057
     8  H    0.263518   0.347423  -0.000009   0.000031  -0.000003   0.001361
     9  H   -0.000053  -0.000009   0.332643   0.253399   0.006516   0.000004
    10  O   -0.000106   0.000031   0.253399   8.341119   0.263518   0.000268
    11  H    0.000031  -0.000003   0.006516   0.263518   0.347422  -0.000238
    12  H   -0.000057   0.001361   0.000004   0.000268  -0.000238   0.336265
    13  O   -0.000157  -0.000623   0.000273  -0.000157  -0.000623   0.252774
    14  H    0.000268  -0.000238  -0.000039  -0.000057   0.001361   0.009994
    15  H   -0.000712   0.000797  -0.000075   0.000193  -0.000080   0.001361
    16  O   -0.000057  -0.000712  -0.000341   0.000036   0.000193  -0.000057
    17  H    0.000542   0.000136   0.000295  -0.000341  -0.000075  -0.000039
    18  H   -0.000341  -0.000075   0.000004   0.000542   0.000136   0.000004
    19  O    0.000036   0.000193   0.000542  -0.000057  -0.000712   0.000268
    20  H    0.000193  -0.000080   0.000136  -0.000712   0.000797  -0.000238
              13         14         15         16         17         18
     1  O   -0.003383  -0.000625  -0.010407  -0.011409   0.040500   0.001548
     2  S   -0.034916   0.016848   0.014040  -0.038541   0.008105   0.008105
     3  O   -0.012392   0.016418   0.001069  -0.004982  -0.001848  -0.005054
     4  O   -0.012392  -0.001722   0.003488  -0.017455  -0.005054  -0.001848
     5  O   -0.003383  -0.000625  -0.000041  -0.002204   0.001548   0.040501
     6  H    0.000273   0.000004   0.000136   0.000542   0.000004   0.000295
     7  O   -0.000157   0.000268  -0.000712  -0.000057   0.000542  -0.000341
     8  H   -0.000623  -0.000238   0.000797  -0.000712   0.000136  -0.000075
     9  H    0.000273  -0.000039  -0.000075  -0.000341   0.000295   0.000004
    10  O   -0.000157  -0.000057   0.000193   0.000036  -0.000341   0.000542
    11  H   -0.000623   0.001361  -0.000080   0.000193  -0.000075   0.000136
    12  H    0.252774   0.009994   0.001361  -0.000057  -0.000039   0.000004
    13  O    8.353747   0.252774  -0.000623  -0.000157   0.000273   0.000273
    14  H    0.252774   0.336264  -0.000238   0.000268   0.000004  -0.000039
    15  H   -0.000623  -0.000238   0.347423   0.263518   0.006515  -0.000009
    16  O   -0.000157   0.000268   0.263518   8.341117   0.253400  -0.000053
    17  H    0.000273   0.000004   0.006515   0.253400   0.332642  -0.000101
    18  H    0.000273  -0.000039  -0.000009  -0.000053  -0.000101   0.332642
    19  O   -0.000157  -0.000057   0.000031  -0.000106  -0.000053   0.253400
    20  H   -0.000623   0.001361  -0.000003   0.000031  -0.000009   0.006515
              19         20
     1  O   -0.002204  -0.000041
     2  S   -0.038541   0.014040
     3  O   -0.017455   0.003488
     4  O   -0.004982   0.001069
     5  O   -0.011409  -0.010407
     6  H   -0.000341  -0.000075
     7  O    0.000036   0.000193
     8  H    0.000193  -0.000080
     9  H    0.000542   0.000136
    10  O   -0.000057  -0.000712
    11  H   -0.000712   0.000797
    12  H    0.000268  -0.000238
    13  O   -0.000157  -0.000623
    14  H   -0.000057   0.001361
    15  H    0.000031  -0.000003
    16  O   -0.000106   0.000031
    17  H   -0.000053  -0.000009
    18  H    0.253400   0.006515
    19  O    8.341117   0.263517
    20  H    0.263517   0.347424
 Mulliken charges:
               1
     1  O   -0.484861
     2  S    0.257419
     3  O   -0.524798
     4  O   -0.524800
     5  O   -0.484860
     6  H    0.363556
     7  O   -0.783032
     8  H    0.373615
     9  H    0.363557
    10  O   -0.783032
    11  H    0.373614
    12  H    0.368073
    13  O   -0.790801
    14  H    0.368074
    15  H    0.373616
    16  O   -0.783031
    17  H    0.363554
    18  H    0.363554
    19  O   -0.783031
    20  H    0.373616
 Sum of Mulliken charges =  -2.00000
 Mulliken charges with hydrogens summed into heavy atoms:
               1
     1  O   -0.484861
     2  S    0.257419
     3  O   -0.524798
     4  O   -0.524800
     5  O   -0.484860
     7  O   -0.045861
    10  O   -0.045861
    13  O   -0.054654
    16  O   -0.045861
    19  O   -0.045861
 Electronic spatial extent (au):  <R**2>=           2475.4026
 Charge=             -2.0000 electrons
 Dipole moment (field-independent basis, Debye):
    X=             -0.0000    Y=              0.0000    Z=             -0.2325  Tot=              0.2325
 Quadrupole moment (field-independent basis, Debye-Ang):
   XX=           -120.6322   YY=           -121.0526   ZZ=            -99.4013
   XY=              0.0000   XZ=              0.0000   YZ=             -0.0013
 Traceless Quadrupole moment (field-independent basis, Debye-Ang):
   XX=             -6.9369   YY=             -7.3572   ZZ=             14.2941
   XY=              0.0000   XZ=              0.0000   YZ=             -0.0013
 Octapole moment (field-independent basis, Debye-Ang**2):
  XXX=              0.0003  YYY=             -0.0021  ZZZ=            -69.4586  XYY=             -0.0001
  XXY=             -0.0024  XXZ=             40.2142  XZZ=             -0.0002  YZZ=              0.0056
  YYZ=             12.2230  XYZ=              0.0004
 Hexadecapole moment (field-independent basis, Debye-Ang**3):
 XXXX=          -1617.6909 YYYY=          -1489.0630 ZZZZ=           -964.4475 XXXY=              0.0027
 XXXZ=              0.0009 YYYX=             -0.0022 YYYZ=             -0.0336 ZZZX=              0.0002
 ZZZY=              0.0020 XXYY=           -779.0118 XXZZ=           -323.0067 YYZZ=           -310.0928
 XXYZ=             -0.0274 YYXZ=              0.0008 ZZXY=             -0.0002
 N-N= 7.936891219617D+02 E-N=-4.179583344554D+03  KE= 1.078439046156D+03
 PrsmSu:  requested number of processors reduced to:  18 ShMem   1 Linda.
 No NMR shielding tensors so no spin-rotation constants.
 Leave Link  601 at Sun Apr 18 15:45:53 2021, MaxMem=   104857600 cpu:             807.8 elap:              17.7
 (Enter /s/ls4/users/knvvv/bin/g16sse/l9999.exe)

 Test job not archived.
 1\1\GINC-N155\Stability\RM062X\Gen\H10O9S1(2-)\KNVVV\18-Apr-2021\0\\#P
  M062X/GEN Integral=UltraFineGrid SCF=NoSymm Stable=(RExt, Opt) IOp(1/
 33=1)\\Database calculations.\\-2,1\O,0,0.000189,1.231231,1.12687\S,0,
 -0.000007,0.000014,0.267789\O,0,1.232521,-0.000232,-0.60849\O,0,-1.232
 538,0.000158,-0.608487\O,0,-0.000201,-1.231104,1.127013\H,0,-1.626628,
 -2.242521,0.888201\O,0,-2.484892,-2.373574,0.440729\H,0,-2.416123,-1.5
 90793,-0.132484\H,0,1.626618,2.242623,0.887932\O,0,2.484879,2.373621,0
 .440438\H,0,2.416103,1.590772,-0.132681\H,0,-0.72269,-0.000037,-2.5269
 83\O,0,-0.00001,-0.000192,-3.180538\H,0,0.722672,-0.000269,-2.526986\H
 ,0,-2.415624,1.591545,-0.132679\O,0,-2.484136,2.374411,0.440449\H,0,-1
 .625914,2.243126,0.887933\H,0,1.625904,-2.243022,0.888195\O,0,2.484126
 ,-2.374361,0.440726\H,0,2.415613,-1.591564,-0.132496\\Version=ES64L-G1
 6RevA.03\State=1-A\HF=-1081.4901219\RMSD=3.380e-09\Dipole=0.0000012,0.
 0000073,0.0914901\Quadrupole=-5.157387,-5.4699165,10.6273035,-0.000069
 1,0.0000283,0.000982\PG=C01 [X(H10O9S1)]\\@


 NOTHING WILL BE ATTEMPTED IF ALL POSSIBLE OBJECTIONS
 MUST FIRST BE OVERCOME.

                               -- THE GOLDEN PRINCIPLE,
                    PAUL DICKSON'S "THE OFFICIAL RULES"
 Job cpu time:       4 days  0 hours 21 minutes 56.5 seconds.
 Elapsed time:       0 days  4 hours 28 minutes 29.9 seconds.
 File lengths (MBytes):  RWF=   2274 Int=      0 D2E=      0 Chk=    121 Scr=      1
 Normal termination of Gaussian 16 at Sun Apr 18 15:45:54 2021.
