 Entering Gaussian System, Link 0=/s/ls4/users/knvvv/bin/g16sse/g16
 Input=data/database/M062X--def2-QZVPPD--4190_water5FRB_Shields38.gjf
 Output=data/database/M062X--def2-QZVPPD--4190_water5FRB_Shields38.log
 Initial command:
 /s/ls4/users/knvvv/bin/g16sse/l1.exe "/s/ls4/users/knvvv/bin/scratch/Gau-32340.inp" -scrdir="/s/ls4/users/knvvv/bin/scratch/"
 Entering Link 1 = /s/ls4/users/knvvv/bin/g16sse/l1.exe PID=     32341.
  
 Copyright (c) 1988,1990,1992,1993,1995,1998,2003,2009,2016,
            Gaussian, Inc.  All Rights Reserved.
  
 This is part of the Gaussian(R) 16 program.  It is based on
 the Gaussian(R) 09 system (copyright 2009, Gaussian, Inc.),
 the Gaussian(R) 03 system (copyright 2003, Gaussian, Inc.),
 the Gaussian(R) 98 system (copyright 1998, Gaussian, Inc.),
 the Gaussian(R) 94 system (copyright 1995, Gaussian, Inc.),
 the Gaussian 92(TM) system (copyright 1992, Gaussian, Inc.),
 the Gaussian 90(TM) system (copyright 1990, Gaussian, Inc.),
 the Gaussian 88(TM) system (copyright 1988, Gaussian, Inc.),
 the Gaussian 86(TM) system (copyright 1986, Carnegie Mellon
 University), and the Gaussian 82(TM) system (copyright 1983,
 Carnegie Mellon University). Gaussian is a federally registered
 trademark of Gaussian, Inc.
  
 This software contains proprietary and confidential information,
 including trade secrets, belonging to Gaussian, Inc.
  
 This software is provided under written license and may be
 used, copied, transmitted, or stored only in accord with that
 written license.
  
 The following legend is applicable only to US Government
 contracts under FAR:
  
                    RESTRICTED RIGHTS LEGEND
  
 Use, reproduction and disclosure by the US Government is
 subject to restrictions as set forth in subparagraphs (a)
 and (c) of the Commercial Computer Software - Restricted
 Rights clause in FAR 52.227-19.
  
 Gaussian, Inc.
 340 Quinnipiac St., Bldg. 40, Wallingford CT 06492
  
  
 ---------------------------------------------------------------
 Warning -- This program may not be used in any manner that
 competes with the business of Gaussian, Inc. or will provide
 assistance to any competitor of Gaussian, Inc.  The licensee
 of this program is prohibited from giving any competitor of
 Gaussian, Inc. access to this program.  By using this program,
 the user acknowledges that Gaussian, Inc. is engaged in the
 business of creating and licensing software in the field of
 computational chemistry and represents and warrants to the
 licensee that it is not a competitor of Gaussian, Inc. and that
 it will not use this program in any manner prohibited above.
 ---------------------------------------------------------------
  

 Cite this work as:
 Gaussian 16, Revision A.03,
 M. J. Frisch, G. W. Trucks, H. B. Schlegel, G. E. Scuseria, 
 M. A. Robb, J. R. Cheeseman, G. Scalmani, V. Barone, 
 G. A. Petersson, H. Nakatsuji, X. Li, M. Caricato, A. V. Marenich, 
 J. Bloino, B. G. Janesko, R. Gomperts, B. Mennucci, H. P. Hratchian, 
 J. V. Ortiz, A. F. Izmaylov, J. L. Sonnenberg, D. Williams-Young, 
 F. Ding, F. Lipparini, F. Egidi, J. Goings, B. Peng, A. Petrone, 
 T. Henderson, D. Ranasinghe, V. G. Zakrzewski, J. Gao, N. Rega, 
 G. Zheng, W. Liang, M. Hada, M. Ehara, K. Toyota, R. Fukuda, 
 J. Hasegawa, M. Ishida, T. Nakajima, Y. Honda, O. Kitao, H. Nakai, 
 T. Vreven, K. Throssell, J. A. Montgomery, Jr., J. E. Peralta, 
 F. Ogliaro, M. J. Bearpark, J. J. Heyd, E. N. Brothers, K. N. Kudin, 
 V. N. Staroverov, T. A. Keith, R. Kobayashi, J. Normand, 
 K. Raghavachari, A. P. Rendell, J. C. Burant, S. S. Iyengar, 
 J. Tomasi, M. Cossi, J. M. Millam, M. Klene, C. Adamo, R. Cammi, 
 J. W. Ochterski, R. L. Martin, K. Morokuma, O. Farkas, 
 J. B. Foresman, and D. J. Fox, Gaussian, Inc., Wallingford CT, 2016.
 
 ******************************************
 Gaussian 16:  ES64L-G16RevA.03 25-Dec-2016
                18-Apr-2021 
 ******************************************
 %RWF=temp7_51864,70GB
 %nprocshared=48
 Will use up to   48 processors via shared memory.
 Default route: MaxDisk=80GB
 ----------------------------------------------------------------------
 #P M062X/GEN Integral=UltraFineGrid SCF=NoSymm Stable=(RExt, Opt) IOp(
 1/33=1)
 ----------------------------------------------------------------------
 1/33=1,38=1,172=1/1;
 2/12=2,17=6,18=5,40=1/2;
 3/5=7,11=2,25=1,30=1,74=-55,75=-5/1,2,3;
 4/9=2/1;
 5/5=2,38=5/2;
 6/7=2,8=2,9=2,10=2,28=1/1;
 8/6=1,10=90,11=11/1;
 9/8=-3,42=1,46=1/14;
 5/5=2,8=3,17=40,38=5/8(-2);
 6/7=2,8=2,9=2,10=2,28=1/1;
 99/5=1,9=1/99;
 Leave Link    1 at Sun Apr 18 03:18:53 2021, MaxMem=           0 cpu:              11.7 elap:               0.3
 (Enter /s/ls4/users/knvvv/bin/g16sse/l101.exe)
 ONIOM data not found on unit 2.
 ----------------------
 Database calculations.
 ----------------------
 TstMul:  ICh=     0
 TstMul:  Mul=     1
 TstMul:  ICh=     0
 TstMul:  Mul=     1
 Symbolic Z-matrix:
 Charge =  0 Multiplicity = 1
 O                    -1.32243   0.59037   0.90663 
 H                    -1.45523  -0.20793   0.33723 
 H                    -2.04913   0.57577   1.54073 
 O                    -1.39863  -1.63223  -0.64977 
 H                    -0.44823  -1.89543  -0.67967 
 H                    -1.64863  -1.52953  -1.57657 
 O                     1.30577  -2.00243  -0.72337 
 H                     1.80877  -2.69053  -0.27147 
 H                     1.55767  -1.16063  -0.27377 
 O                     1.60977   0.35717   0.62673 
 H                     1.46147   1.16127   0.09423 
 H                     0.78327   0.32217   1.13713 
 O                     0.16347   2.58237  -0.45147 
 H                     0.16867   3.44907  -0.02697 
 H                    -0.53653   2.08057   0.01033 
 
 RdStrC is calling ZToCFu for IStruc=1 NZ=    15.
 PrtBox:  NBox=     2 Levels=  2 BoxLen=    8.00 SMaxX=       11.60
          Shift=            3.872295            5.084365            2.979286
 Box      1 Number                   0 centers from      1 to     12:
 Box      2 Number                   2 centers from     13 to     15:
 After GenITR:
 ITRead=  0  0  0  0  0  0  0  0  0  0  0  0  0  0  0
 MicOpt= -1 -1 -1 -1 -1 -1 -1 -1 -1 -1 -1 -1 -1 -1 -1
 ITRead=  0  0  0  0  0  0  0  0  0  0  0  0  0  0  0
 MicOpt= -1 -1 -1 -1 -1 -1 -1 -1 -1 -1 -1 -1 -1 -1 -1
 NAtoms=     15 NQM=       15 NQMF=       0 NMMI=      0 NMMIF=      0
                NMic=       0 NMicF=      0.
                    Isotopes and Nuclear Properties:
 (Nuclear quadrupole moments (NQMom) in fm**2, nuclear magnetic moments (NMagM)
  in nuclear magnetons)

  Atom         1           2           3           4           5           6           7           8           9          10
 IAtWgt=          16           1           1          16           1           1          16           1           1          16
 AtmWgt=  15.9949146   1.0078250   1.0078250  15.9949146   1.0078250   1.0078250  15.9949146   1.0078250   1.0078250  15.9949146
 NucSpn=           0           1           1           0           1           1           0           1           1           0
 AtZEff=  -0.0000000  -0.0000000  -0.0000000  -0.0000000  -0.0000000  -0.0000000  -0.0000000  -0.0000000  -0.0000000  -0.0000000
 NQMom=    0.0000000   0.0000000   0.0000000   0.0000000   0.0000000   0.0000000   0.0000000   0.0000000   0.0000000   0.0000000
 NMagM=    0.0000000   2.7928460   2.7928460   0.0000000   2.7928460   2.7928460   0.0000000   2.7928460   2.7928460   0.0000000
 AtZNuc=   8.0000000   1.0000000   1.0000000   8.0000000   1.0000000   1.0000000   8.0000000   1.0000000   1.0000000   8.0000000

  Atom        11          12          13          14          15
 IAtWgt=           1           1          16           1           1
 AtmWgt=   1.0078250   1.0078250  15.9949146   1.0078250   1.0078250
 NucSpn=           1           1           0           1           1
 AtZEff=  -0.0000000  -0.0000000  -0.0000000  -0.0000000  -0.0000000
 NQMom=    0.0000000   0.0000000   0.0000000   0.0000000   0.0000000
 NMagM=    2.7928460   2.7928460   0.0000000   2.7928460   2.7928460
 AtZNuc=   1.0000000   1.0000000   8.0000000   1.0000000   1.0000000
 No MM parameters found.
 Leave Link  101 at Sun Apr 18 03:18:53 2021, MaxMem=   104857600 cpu:               9.6 elap:               0.2
 (Enter /s/ls4/users/knvvv/bin/g16sse/l202.exe)
                          Input orientation:                          
 ---------------------------------------------------------------------
 Center     Atomic      Atomic             Coordinates (Angstroms)
 Number     Number       Type             X           Y           Z
 ---------------------------------------------------------------------
      1          8           0       -1.322430    0.590370    0.906630
      2          1           0       -1.455230   -0.207930    0.337230
      3          1           0       -2.049130    0.575770    1.540730
      4          8           0       -1.398630   -1.632230   -0.649770
      5          1           0       -0.448230   -1.895430   -0.679670
      6          1           0       -1.648630   -1.529530   -1.576570
      7          8           0        1.305770   -2.002430   -0.723370
      8          1           0        1.808770   -2.690530   -0.271470
      9          1           0        1.557670   -1.160630   -0.273770
     10          8           0        1.609770    0.357170    0.626730
     11          1           0        1.461470    1.161270    0.094230
     12          1           0        0.783270    0.322170    1.137130
     13          8           0        0.163470    2.582370   -0.451470
     14          1           0        0.168670    3.449070   -0.026970
     15          1           0       -0.536530    2.080570    0.010330
 ---------------------------------------------------------------------
                    Distance matrix (angstroms):
                    1          2          3          4          5
     1  O    0.000000
     2  H    0.989513   0.000000
     3  H    0.964567   1.554128   0.000000
     4  O    2.714431   1.733783   3.177531   0.000000
     5  H    3.075675   2.212643   3.687802   0.986625   0.000000
     6  H    3.281260   2.333808   3.782889   0.965404   1.542489
     7  O    4.035709   3.459512   4.798814   2.730612   1.757804
     8  H    4.685791   4.145783   5.369933   3.398606   2.427521
     9  H    3.571319   3.218466   4.395054   3.017199   2.174470
    10  O    2.954746   3.130076   3.777662   3.825916   3.319074
    11  H    2.955676   3.231238   3.841807   4.066614   3.686365
    12  H    2.135189   2.435514   2.872228   3.431236   3.120113
    13  O    2.832031   3.320845   3.590390   4.499148   4.525146
    14  H    3.356658   4.017878   3.953754   5.353870   5.419434
    15  H    1.908321   2.487590   2.625739   3.868311   4.036394
                    6          7          8          9         10
     6  H    0.000000
     7  O    3.111280   0.000000
     8  H    3.873606   0.964730   0.000000
     9  H    3.480479   0.987026   1.550371   0.000000
    10  O    4.362492   2.735489   3.183526   1.765597   0.000000
    11  H    4.438998   3.271347   3.884677   2.352849   0.975769
    12  H    4.087432   3.022951   3.480254   2.188385   0.972026
    13  O    4.632200   4.732776   5.526562   3.998177   2.864579
    14  H    5.521802   5.612203   6.359591   4.820743   3.473318
    15  H    4.097297   4.539083   5.323837   3.869336   2.820755
                   11         12         13         14         15
    11  H    0.000000
    12  H    1.500561   0.000000
    13  O    2.000529   2.831308   0.000000
    14  H    2.630599   3.392693   0.965089   0.000000
    15  H    2.200944   2.470530   0.977273   1.539964   0.000000
 Stoichiometry    H10O5
 Framework group  C1[X(H10O5)]
 Deg. of freedom    39
 Full point group                 C1      NOp   1
 Largest Abelian subgroup         C1      NOp   1
 Largest concise Abelian subgroup C1      NOp   1
                         Standard orientation:                         
 ---------------------------------------------------------------------
 Center     Atomic      Atomic             Coordinates (Angstroms)
 Number     Number       Type             X           Y           Z
 ---------------------------------------------------------------------
      1          8           0        0.854705    1.350485    0.770189
      2          1           0       -0.025020    1.523817    0.351648
      3          1           0        1.003186    2.091708    1.369297
      4          8           0       -1.607735    1.541015   -0.355967
      5          1           0       -1.931222    0.610461   -0.302542
      6          1           0       -1.662365    1.760727   -1.294448
      7          8           0       -2.154638   -1.132611   -0.261818
      8          1           0       -2.777760   -1.576068    0.326203
      9          1           0       -1.261861   -1.430629    0.035430
     10          8           0        0.389748   -1.564760    0.644960
     11          1           0        1.089437   -1.484982   -0.030464
     12          1           0        0.501667   -0.725617    1.122608
     13          8           0        2.464206   -0.301197   -0.873542
     14          1           0        3.392299   -0.355490   -0.614521
     15          1           0        2.101355    0.442617   -0.353790
 ---------------------------------------------------------------------
 Rotational constants (GHZ):           2.7573029           1.6933314           1.2403359
 Leave Link  202 at Sun Apr 18 03:18:53 2021, MaxMem=   104857600 cpu:               7.4 elap:               0.2
 (Enter /s/ls4/users/knvvv/bin/g16sse/l301.exe)
 General basis read from cards:  (5D, 7F)
 Centers:       2      3      5      6      8      9     11     12     14     15
 S 4 1.00
     Exponent=  1.9069169000D+02 Coefficients=  7.0815167000D-04
     Exponent=  2.8605532000D+01 Coefficients=  5.4678827000D-03
     Exponent=  6.5095943000D+00 Coefficients=  2.7966605000D-02
     Exponent=  1.8412455000D+00 Coefficients=  1.0764538000D-01
 S 1 1.00
     Exponent=  5.9853725000D-01 Coefficients=  1.0000000000D+00
 S 1 1.00
     Exponent=  2.1397624000D-01 Coefficients=  1.0000000000D+00
 S 1 1.00
     Exponent=  8.0316286000D-02 Coefficients=  1.0000000000D+00
 P 1 1.00
     Exponent=  2.2920000000D+00 Coefficients=  1.0000000000D+00
 P 1 1.00
     Exponent=  8.3800000000D-01 Coefficients=  1.0000000000D+00
 P 1 1.00
     Exponent=  2.9200000000D-01 Coefficients=  1.0000000000D+00
 P 1 1.00
     Exponent=  8.4063199228D-02 Coefficients=  1.0000000000D+00
 D 1 1.00
     Exponent=  2.0620000000D+00 Coefficients=  1.0000000000D+00
 D 1 1.00
     Exponent=  6.6200000000D-01 Coefficients=  1.0000000000D+00
 F 1 1.00
     Exponent=  1.3970000000D+00 Coefficients=  1.0000000000D+00
 ****
 Centers:       1      4      7     10     13
 S 8 1.00
     Exponent=  1.1650646908D+05 Coefficients=  4.0383857939D-05
     Exponent=  1.7504349724D+04 Coefficients=  3.1255139004D-04
     Exponent=  3.9934513230D+03 Coefficients=  1.6341473495D-03
     Exponent=  1.1330063186D+03 Coefficients=  6.8283224757D-03
     Exponent=  3.6999569594D+02 Coefficients=  2.4124410221D-02
     Exponent=  1.3362074349D+02 Coefficients=  7.2730206154D-02
     Exponent=  5.2035643649D+01 Coefficients=  1.7934429892D-01
     Exponent=  2.1461939313D+01 Coefficients=  3.3059588895D-01
 S 2 1.00
     Exponent=  8.9835051252D+01 Coefficients=  9.6468652996D-02
     Exponent=  2.6428010844D+01 Coefficients=  9.4117481120D-01
 S 1 1.00
     Exponent=  9.2822824649D+00 Coefficients=  1.0000000000D+00
 S 1 1.00
     Exponent=  4.0947728533D+00 Coefficients=  1.0000000000D+00
 S 1 1.00
     Exponent=  1.3255349078D+00 Coefficients=  1.0000000000D+00
 S 1 1.00
     Exponent=  5.1877230787D-01 Coefficients=  1.0000000000D+00
 S 1 1.00
     Exponent=  1.9772676454D-01 Coefficients=  1.0000000000D+00
 S 1 1.00
     Exponent=  6.9638535104D-02 Coefficients=  1.0000000000D+00
 P 5 1.00
     Exponent=  1.9115255810D+02 Coefficients=  2.5115697705D-03
     Exponent=  4.5233356739D+01 Coefficients=  2.0039240864D-02
     Exponent=  1.4353465922D+01 Coefficients=  9.3609064762D-02
     Exponent=  5.2422371832D+00 Coefficients=  3.0618127124D-01
     Exponent=  2.0792418599D+00 Coefficients=  6.7810501439D-01
 P 1 1.00
     Exponent=  8.4282371424D-01 Coefficients=  1.0000000000D+00
 P 1 1.00
     Exponent=  3.3617694891D-01 Coefficients=  1.0000000000D+00
 P 1 1.00
     Exponent=  1.2863997974D-01 Coefficients=  1.0000000000D+00
 P 1 1.00
     Exponent=  4.3598162776D-02 Coefficients=  1.0000000000D+00
 D 1 1.00
     Exponent=  3.7750000000D+00 Coefficients=  1.0000000000D+00
 D 1 1.00
     Exponent=  1.3000000000D+00 Coefficients=  1.0000000000D+00
 D 1 1.00
     Exponent=  4.4400000000D-01 Coefficients=  1.0000000000D+00
 D 1 1.00
     Exponent=  1.2546378695D-01 Coefficients=  1.0000000000D+00
 F 1 1.00
     Exponent=  2.6660000000D+00 Coefficients=  1.0000000000D+00
 F 1 1.00
     Exponent=  8.5900000000D-01 Coefficients=  1.0000000000D+00
 G 1 1.00
     Exponent=  1.8460000000D+00 Coefficients=  1.0000000000D+00
 ****
 Ernie: Thresh=  0.10000D-02 Tol=  0.10000D-05 Strict=F.
 There are   790 symmetry adapted cartesian basis functions of A   symmetry.
 There are   660 symmetry adapted basis functions of A   symmetry.
   660 basis functions,   920 primitive gaussians,   790 cartesian basis functions
    25 alpha electrons       25 beta electrons
       nuclear repulsion energy       209.3844926201 Hartrees.
 IExCor= 4336 DFT=T Ex+Corr=M062X ExCW=0 ScaHFX=  0.540000
 ScaDFX=  1.000000  1.000000  1.000000  1.000000 ScalE2=  1.000000  1.000000
 IRadAn=      5 IRanWt=     -1 IRanGd=            0 ICorTp=0 IEmpDi=  4
 NAtoms=   15 NActive=   15 NUniq=   15 SFac= 1.00D+00 NAtFMM=   60 NAOKFM=F Big=F
 Integral buffers will be    131072 words long.
 Raffenetti 2 integral format.
 Two-electron integral symmetry is turned on.
 Leave Link  301 at Sun Apr 18 03:18:54 2021, MaxMem=   104857600 cpu:               9.6 elap:               0.2
 (Enter /s/ls4/users/knvvv/bin/g16sse/l302.exe)
 NPDir=0 NMtPBC=     1 NCelOv=     1 NCel=       1 NClECP=     1 NCelD=      1
         NCelK=      1 NCelE2=     1 NClLst=     1 CellRange=     0.0.
 One-electron integrals computed using PRISM.
 One-electron integral symmetry used in STVInt
 PrsmSu:  requested number of processors reduced to:   4 ShMem   1 Linda.
 PrsmSu:  requested number of processors reduced to:  19 ShMem   1 Linda.
 NBasis=   660 RedAO= T EigKep=  1.67D-05  NBF=   660
 NBsUse=   660 1.00D-06 EigRej= -1.00D+00 NBFU=   660
 Precomputing XC quadrature grid using
 IXCGrd= 4 IRadAn=           5 IRanWt=          -1 IRanGd=           0 AccXCQ= 0.00D+00.
 Generated NRdTot=       0 NPtTot=           0 NUsed=           0 NTot=          32
 NSgBfM=   785   785   785   785   785 MxSgAt=    15 MxSgA2=    15.
 Leave Link  302 at Sun Apr 18 03:19:05 2021, MaxMem=   104857600 cpu:             507.0 elap:              10.9
 (Enter /s/ls4/users/knvvv/bin/g16sse/l303.exe)
 DipDrv:  MaxL=1.
 Leave Link  303 at Sun Apr 18 03:19:09 2021, MaxMem=   104857600 cpu:             203.9 elap:               4.4
 (Enter /s/ls4/users/knvvv/bin/g16sse/l401.exe)
 SCF N**3 symmetry information disabled.
 ExpMin= 4.36D-02 ExpMax= 1.17D+05 ExpMxC= 1.13D+03 IAcc=3 IRadAn=         5 AccDes= 0.00D+00
 Harris functional with IExCor= 1009 and IRadAn=       5 diagonalized for initial guess.
 HarFok:  IExCor= 1009 AccDes= 0.00D+00 IRadAn=         5 IDoV= 1 UseB2=F ITyADJ=14
 ICtDFT=  3500011 ScaDFX=  1.000000  1.000000  1.000000  1.000000
 FoFCou: FMM=F IPFlag=           0 FMFlag=      100000 FMFlg1=           0
         NFxFlg=           0 DoJE=T BraDBF=F KetDBF=T FulRan=T
         wScrn=  0.000000 ICntrl=       500 IOpCl=  0 I1Cent=   200000004 NGrid=           0
         NMat0=    1 NMatS0=      1 NMatT0=    0 NMatD0=    1 NMtDS0=    0 NMtDT0=    0
 Petite list used in FoFCou.
 CoulSu:  requested number of processors reduced to:  17 ShMem   1 Linda.
 CoulSu:  requested number of processors reduced to:  18 ShMem   1 Linda.
 CoulSu:  requested number of processors reduced to:  21 ShMem   1 Linda.
 CoulSu:  requested number of processors reduced to:  21 ShMem   1 Linda.
 Harris En= -382.161662946342    
 JPrj=0 DoOrth=F DoCkMO=F.
 Leave Link  401 at Sun Apr 18 03:19:16 2021, MaxMem=   104857600 cpu:             298.4 elap:               6.7
 (Enter /s/ls4/users/knvvv/bin/g16sse/l502.exe)
 Integral symmetry usage will be decided dynamically.
 Closed shell SCF:
 Using DIIS extrapolation, IDIIS=  1040.
 NGot=   104857600 LenX=   103565293 LenY=   102940403
 Requested convergence on RMS density matrix=1.00D-08 within 128 cycles.
 Requested convergence on MAX density matrix=1.00D-06.
 Requested convergence on             energy=1.00D-06.
 No special actions if energy rises.
 Fock matrices will be formed incrementally for  20 cycles.

 Cycle   1  Pass 1  IDiag  1:
 FoFJK:  IHMeth= 1 ICntrl=       0 DoSepK=F KAlg= 0 I1Cent=           0 FoldK=F
 IRaf= 900000000 NMat=       1 IRICut=       1 DoRegI=T DoRafI=F ISym2E= 0 IDoP0=0 IntGTp=1.
 FoFCou: FMM=F IPFlag=           0 FMFlag=      100000 FMFlg1=           0
         NFxFlg=           0 DoJE=F BraDBF=F KetDBF=F FulRan=T
         wScrn=  0.000000 ICntrl=         0 IOpCl=  0 I1Cent=           0 NGrid=           0
         NMat0=    1 NMatS0=      1 NMatT0=    0 NMatD0=    1 NMtDS0=    0 NMtDT0=    0
 Symmetry not used in FoFCou.
 CoulSu:  requested number of processors reduced to:  19 ShMem   1 Linda.
 E= -381.919527855422    
 DIIS: error= 2.54D-02 at cycle   1 NSaved=   1.
 NSaved= 1 IEnMin= 1 EnMin= -381.919527855422     IErMin= 1 ErrMin= 2.54D-02
 ErrMax= 2.54D-02  0.00D+00 EMaxC= 1.00D-01 BMatC= 6.39D-01 BMatP= 6.39D-01
 IDIUse=3 WtCom= 7.46D-01 WtEn= 2.54D-01
 Coeff-Com:  0.100D+01
 Coeff-En:   0.100D+01
 Coeff:      0.100D+01
 Gap=     0.286 Goal=   None    Shift=    0.000
 GapD=    0.286 DampG=1.000 DampE=0.500 DampFc=0.5000 IDamp=-1.
 Damping current iteration by 5.00D-01
 RMSDP=1.00D-03 MaxDP=7.45D-02              OVMax= 1.59D-01

 Cycle   2  Pass 1  IDiag  1:
 RMSU=  4.90D-04    CP:  9.67D-01
 CoulSu:  requested number of processors reduced to:  19 ShMem   1 Linda.
 E= -382.064759188042     Delta-E=       -0.145231332620 Rises=F Damp=T
 DIIS: error= 9.55D-03 at cycle   2 NSaved=   2.
 NSaved= 2 IEnMin= 2 EnMin= -382.064759188042     IErMin= 2 ErrMin= 9.55D-03
 ErrMax= 9.55D-03  0.00D+00 EMaxC= 1.00D-01 BMatC= 6.05D-02 BMatP= 6.39D-01
 IDIUse=3 WtCom= 9.05D-01 WtEn= 9.55D-02
 Coeff-Com:  0.305D-02 0.997D+00
 Coeff-En:   0.110D+00 0.890D+00
 Coeff:      0.132D-01 0.987D+00
 Gap=     0.395 Goal=   None    Shift=    0.000
 RMSDP=5.17D-04 MaxDP=3.57D-02 DE=-1.45D-01 OVMax= 9.22D-02

 Cycle   3  Pass 1  IDiag  1:
 RMSU=  5.11D-04    CP:  9.43D-01  1.02D+00
 CoulSu:  requested number of processors reduced to:  19 ShMem   1 Linda.
 E= -382.239277243059     Delta-E=       -0.174518055017 Rises=F Damp=F
 DIIS: error= 1.65D-03 at cycle   3 NSaved=   3.
 NSaved= 3 IEnMin= 3 EnMin= -382.239277243059     IErMin= 3 ErrMin= 1.65D-03
 ErrMax= 1.65D-03  0.00D+00 EMaxC= 1.00D-01 BMatC= 3.11D-03 BMatP= 6.05D-02
 IDIUse=3 WtCom= 9.83D-01 WtEn= 1.65D-02
 Coeff-Com: -0.633D-01 0.124D+00 0.939D+00
 Coeff-En:   0.000D+00 0.000D+00 0.100D+01
 Coeff:     -0.623D-01 0.122D+00 0.940D+00
 Gap=     0.390 Goal=   None    Shift=    0.000
 RMSDP=7.41D-05 MaxDP=4.54D-03 DE=-1.75D-01 OVMax= 7.77D-03

 Cycle   4  Pass 1  IDiag  1:
 RMSU=  4.85D-05    CP:  9.41D-01  1.13D+00  9.67D-01
 CoulSu:  requested number of processors reduced to:  19 ShMem   1 Linda.
 E= -382.241162681961     Delta-E=       -0.001885438902 Rises=F Damp=F
 DIIS: error= 4.27D-04 at cycle   4 NSaved=   4.
 NSaved= 4 IEnMin= 4 EnMin= -382.241162681961     IErMin= 4 ErrMin= 4.27D-04
 ErrMax= 4.27D-04  0.00D+00 EMaxC= 1.00D-01 BMatC= 1.43D-04 BMatP= 3.11D-03
 IDIUse=3 WtCom= 9.96D-01 WtEn= 4.27D-03
 Coeff-Com: -0.274D-01 0.524D-01 0.419D+00 0.556D+00
 Coeff-En:   0.000D+00 0.000D+00 0.000D+00 0.100D+01
 Coeff:     -0.273D-01 0.522D-01 0.418D+00 0.557D+00
 Gap=     0.390 Goal=   None    Shift=    0.000
 RMSDP=1.72D-05 MaxDP=1.44D-03 DE=-1.89D-03 OVMax= 2.59D-03

 Cycle   5  Pass 1  IDiag  1:
 RMSU=  1.63D-05    CP:  9.41D-01  1.14D+00  9.71D-01  1.07D+00
 CoulSu:  requested number of processors reduced to:  19 ShMem   1 Linda.
 E= -382.241244467441     Delta-E=       -0.000081785480 Rises=F Damp=F
 DIIS: error= 1.20D-04 at cycle   5 NSaved=   5.
 NSaved= 5 IEnMin= 5 EnMin= -382.241244467441     IErMin= 5 ErrMin= 1.20D-04
 ErrMax= 1.20D-04  0.00D+00 EMaxC= 1.00D-01 BMatC= 9.62D-06 BMatP= 1.43D-04
 IDIUse=3 WtCom= 9.99D-01 WtEn= 1.20D-03
 Coeff-Com:  0.276D-02-0.477D-02-0.347D-01 0.169D+00 0.868D+00
 Coeff-En:   0.000D+00 0.000D+00 0.000D+00 0.000D+00 0.100D+01
 Coeff:      0.275D-02-0.476D-02-0.347D-01 0.169D+00 0.868D+00
 Gap=     0.389 Goal=   None    Shift=    0.000
 RMSDP=1.06D-05 MaxDP=6.20D-04 DE=-8.18D-05 OVMax= 5.47D-04

 Cycle   6  Pass 1  IDiag  1:
 RMSU=  6.04D-06    CP:  9.40D-01  1.14D+00  9.74D-01  1.21D+00  1.23D+00
 CoulSu:  requested number of processors reduced to:  19 ShMem   1 Linda.
 E= -382.241250762792     Delta-E=       -0.000006295351 Rises=F Damp=F
 DIIS: error= 1.20D-05 at cycle   6 NSaved=   6.
 NSaved= 6 IEnMin= 6 EnMin= -382.241250762792     IErMin= 6 ErrMin= 1.20D-05
 ErrMax= 1.20D-05  0.00D+00 EMaxC= 1.00D-01 BMatC= 2.00D-07 BMatP= 9.62D-06
 IDIUse=1 WtCom= 1.00D+00 WtEn= 0.00D+00
 Coeff-Com:  0.132D-02-0.253D-02-0.194D-01-0.649D-02 0.117D+00 0.911D+00
 Coeff:      0.132D-02-0.253D-02-0.194D-01-0.649D-02 0.117D+00 0.911D+00
 Gap=     0.388 Goal=   None    Shift=    0.000
 RMSDP=1.28D-06 MaxDP=6.12D-05 DE=-6.30D-06 OVMax= 1.13D-04

 Cycle   7  Pass 1  IDiag  1:
 RMSU=  7.26D-07    CP:  9.40D-01  1.14D+00  9.74D-01  1.23D+00  1.27D+00
                    CP:  1.04D+00
 CoulSu:  requested number of processors reduced to:  19 ShMem   1 Linda.
 E= -382.241250918460     Delta-E=       -0.000000155668 Rises=F Damp=F
 DIIS: error= 4.92D-06 at cycle   7 NSaved=   7.
 NSaved= 7 IEnMin= 7 EnMin= -382.241250918460     IErMin= 7 ErrMin= 4.92D-06
 ErrMax= 4.92D-06  0.00D+00 EMaxC= 1.00D-01 BMatC= 3.92D-08 BMatP= 2.00D-07
 IDIUse=1 WtCom= 1.00D+00 WtEn= 0.00D+00
 Coeff-Com:  0.273D-03-0.571D-03-0.453D-02-0.823D-02 0.881D-02 0.329D+00
 Coeff-Com:  0.675D+00
 Coeff:      0.273D-03-0.571D-03-0.453D-02-0.823D-02 0.881D-02 0.329D+00
 Coeff:      0.675D+00
 Gap=     0.388 Goal=   None    Shift=    0.000
 RMSDP=2.78D-07 MaxDP=3.66D-05 DE=-1.56D-07 OVMax= 3.90D-05

 Cycle   8  Pass 1  IDiag  1:
 RMSU=  2.63D-07    CP:  9.41D-01  1.14D+00  9.74D-01  1.23D+00  1.27D+00
                    CP:  1.04D+00  1.06D+00
 CoulSu:  requested number of processors reduced to:  19 ShMem   1 Linda.
 E= -382.241250941298     Delta-E=       -0.000000022838 Rises=F Damp=F
 DIIS: error= 1.97D-06 at cycle   8 NSaved=   8.
 NSaved= 8 IEnMin= 8 EnMin= -382.241250941298     IErMin= 8 ErrMin= 1.97D-06
 ErrMax= 1.97D-06  0.00D+00 EMaxC= 1.00D-01 BMatC= 6.60D-09 BMatP= 3.92D-08
 IDIUse=1 WtCom= 1.00D+00 WtEn= 0.00D+00
 Coeff-Com: -0.101D-03 0.163D-03 0.104D-02-0.272D-02-0.143D-01 0.375D-02
 Coeff-Com:  0.286D+00 0.726D+00
 Coeff:     -0.101D-03 0.163D-03 0.104D-02-0.272D-02-0.143D-01 0.375D-02
 Coeff:      0.286D+00 0.726D+00
 Gap=     0.388 Goal=   None    Shift=    0.000
 RMSDP=1.37D-07 MaxDP=1.29D-05 DE=-2.28D-08 OVMax= 1.69D-05

 Cycle   9  Pass 1  IDiag  1:
 RMSU=  7.75D-08    CP:  9.41D-01  1.14D+00  9.74D-01  1.23D+00  1.27D+00
                    CP:  1.04D+00  1.20D+00  1.03D+00
 CoulSu:  requested number of processors reduced to:  19 ShMem   1 Linda.
 E= -382.241250945933     Delta-E=       -0.000000004635 Rises=F Damp=F
 DIIS: error= 4.72D-07 at cycle   9 NSaved=   9.
 NSaved= 9 IEnMin= 9 EnMin= -382.241250945933     IErMin= 9 ErrMin= 4.72D-07
 ErrMax= 4.72D-07  0.00D+00 EMaxC= 1.00D-01 BMatC= 2.18D-10 BMatP= 6.60D-09
 IDIUse=1 WtCom= 1.00D+00 WtEn= 0.00D+00
 Coeff-Com: -0.324D-04 0.640D-04 0.366D-03-0.375D-04-0.344D-02-0.255D-01
 Coeff-Com: -0.101D-01 0.131D+00 0.908D+00
 Coeff:     -0.324D-04 0.640D-04 0.366D-03-0.375D-04-0.344D-02-0.255D-01
 Coeff:     -0.101D-01 0.131D+00 0.908D+00
 Gap=     0.388 Goal=   None    Shift=    0.000
 RMSDP=3.67D-08 MaxDP=3.54D-06 DE=-4.64D-09 OVMax= 4.23D-06

 Cycle  10  Pass 1  IDiag  1:
 RMSU=  1.84D-08    CP:  9.41D-01  1.14D+00  9.74D-01  1.23D+00  1.27D+00
                    CP:  1.05D+00  1.22D+00  1.09D+00  9.67D-01
 CoulSu:  requested number of processors reduced to:  19 ShMem   1 Linda.
 E= -382.241250946171     Delta-E=       -0.000000000238 Rises=F Damp=F
 DIIS: error= 1.09D-07 at cycle  10 NSaved=  10.
 NSaved=10 IEnMin=10 EnMin= -382.241250946171     IErMin=10 ErrMin= 1.09D-07
 ErrMax= 1.09D-07  0.00D+00 EMaxC= 1.00D-01 BMatC= 1.61D-11 BMatP= 2.18D-10
 IDIUse=1 WtCom= 1.00D+00 WtEn= 0.00D+00
 Coeff-Com: -0.539D-05 0.132D-04 0.731D-04 0.684D-04-0.520D-03-0.692D-02
 Coeff-Com: -0.143D-01 0.395D-02 0.236D+00 0.782D+00
 Coeff:     -0.539D-05 0.132D-04 0.731D-04 0.684D-04-0.520D-03-0.692D-02
 Coeff:     -0.143D-01 0.395D-02 0.236D+00 0.782D+00
 Gap=     0.388 Goal=   None    Shift=    0.000
 RMSDP=7.03D-09 MaxDP=6.38D-07 DE=-2.38D-10 OVMax= 1.05D-06

 SCF Done:  E(RM062X) =  -382.241250946     A.U. after   10 cycles
            NFock= 10  Conv=0.70D-08     -V/T= 2.0036
 KE= 3.808714014725D+02 PE=-1.323052470876D+03 EE= 3.505553258377D+02
 Leave Link  502 at Sun Apr 18 03:24:00 2021, MaxMem=   104857600 cpu:            7354.8 elap:             283.9
 (Enter /s/ls4/users/knvvv/bin/g16sse/l601.exe)
 Copying SCF densities to generalized density rwf, IOpCl= 0 IROHF=0.

 **********************************************************************

            Population analysis using the SCF density.

 **********************************************************************

 Orbital symmetries:
       Occupied  (A) (A) (A) (A) (A) (A) (A) (A) (A) (A) (A) (A)
                 (A) (A) (A) (A) (A) (A) (A) (A) (A) (A) (A) (A)
                 (A)
       Virtual   (A) (A) (A) (A) (A) (A) (A) (A) (A) (A) (A) (A)
                 (A) (A) (A) (A) (A) (A) (A) (A) (A) (A) (A) (A)
                 (A) (A) (A) (A) (A) (A) (A) (A) (A) (A) (A) (A)
                 (A) (A) (A) (A) (A) (A) (A) (A) (A) (A) (A) (A)
                 (A) (A) (A) (A) (A) (A) (A) (A) (A) (A) (A) (A)
                 (A) (A) (A) (A) (A) (A) (A) (A) (A) (A) (A) (A)
                 (A) (A) (A) (A) (A) (A) (A) (A) (A) (A) (A) (A)
                 (A) (A) (A) (A) (A) (A) (A) (A) (A) (A) (A) (A)
                 (A) (A) (A) (A) (A) (A) (A) (A) (A) (A) (A) (A)
                 (A) (A) (A) (A) (A) (A) (A) (A) (A) (A) (A) (A)
                 (A) (A) (A) (A) (A) (A) (A) (A) (A) (A) (A) (A)
                 (A) (A) (A) (A) (A) (A) (A) (A) (A) (A) (A) (A)
                 (A) (A) (A) (A) (A) (A) (A) (A) (A) (A) (A) (A)
                 (A) (A) (A) (A) (A) (A) (A) (A) (A) (A) (A) (A)
                 (A) (A) (A) (A) (A) (A) (A) (A) (A) (A) (A) (A)
                 (A) (A) (A) (A) (A) (A) (A) (A) (A) (A) (A) (A)
                 (A) (A) (A) (A) (A) (A) (A) (A) (A) (A) (A) (A)
                 (A) (A) (A) (A) (A) (A) (A) (A) (A) (A) (A) (A)
                 (A) (A) (A) (A) (A) (A) (A) (A) (A) (A) (A) (A)
                 (A) (A) (A) (A) (A) (A) (A) (A) (A) (A) (A) (A)
                 (A) (A) (A) (A) (A) (A) (A) (A) (A) (A) (A) (A)
                 (A) (A) (A) (A) (A) (A) (A) (A) (A) (A) (A) (A)
                 (A) (A) (A) (A) (A) (A) (A) (A) (A) (A) (A) (A)
                 (A) (A) (A) (A) (A) (A) (A) (A) (A) (A) (A) (A)
                 (A) (A) (A) (A) (A) (A) (A) (A) (A) (A) (A) (A)
                 (A) (A) (A) (A) (A) (A) (A) (A) (A) (A) (A) (A)
                 (A) (A) (A) (A) (A) (A) (A) (A) (A) (A) (A) (A)
                 (A) (A) (A) (A) (A) (A) (A) (A) (A) (A) (A) (A)
                 (A) (A) (A) (A) (A) (A) (A) (A) (A) (A) (A) (A)
                 (A) (A) (A) (A) (A) (A) (A) (A) (A) (A) (A) (A)
                 (A) (A) (A) (A) (A) (A) (A) (A) (A) (A) (A) (A)
                 (A) (A) (A) (A) (A) (A) (A) (A) (A) (A) (A) (A)
                 (A) (A) (A) (A) (A) (A) (A) (A) (A) (A) (A) (A)
                 (A) (A) (A) (A) (A) (A) (A) (A) (A) (A) (A) (A)
                 (A) (A) (A) (A) (A) (A) (A) (A) (A) (A) (A) (A)
                 (A) (A) (A) (A) (A) (A) (A) (A) (A) (A) (A) (A)
                 (A) (A) (A) (A) (A) (A) (A) (A) (A) (A) (A) (A)
                 (A) (A) (A) (A) (A) (A) (A) (A) (A) (A) (A) (A)
                 (A) (A) (A) (A) (A) (A) (A) (A) (A) (A) (A) (A)
                 (A) (A) (A) (A) (A) (A) (A) (A) (A) (A) (A) (A)
                 (A) (A) (A) (A) (A) (A) (A) (A) (A) (A) (A) (A)
                 (A) (A) (A) (A) (A) (A) (A) (A) (A) (A) (A) (A)
                 (A) (A) (A) (A) (A) (A) (A) (A) (A) (A) (A) (A)
                 (A) (A) (A) (A) (A) (A) (A) (A) (A) (A) (A) (A)
                 (A) (A) (A) (A) (A) (A) (A) (A) (A) (A) (A) (A)
                 (A) (A) (A) (A) (A) (A) (A) (A) (A) (A) (A) (A)
                 (A) (A) (A) (A) (A) (A) (A) (A) (A) (A) (A) (A)
                 (A) (A) (A) (A) (A) (A) (A) (A) (A) (A) (A) (A)
                 (A) (A) (A) (A) (A) (A) (A) (A) (A) (A) (A) (A)
                 (A) (A) (A) (A) (A) (A) (A) (A) (A) (A) (A) (A)
                 (A) (A) (A) (A) (A) (A) (A) (A) (A) (A) (A) (A)
                 (A) (A) (A) (A) (A) (A) (A) (A) (A) (A) (A) (A)
                 (A) (A) (A) (A) (A) (A) (A) (A) (A) (A) (A)
 The electronic state is 1-A.
 Alpha  occ. eigenvalues --  -19.63456 -19.62760 -19.62412 -19.62284 -19.61956
 Alpha  occ. eigenvalues --   -1.14753  -1.13445  -1.13260  -1.12351  -1.11634
 Alpha  occ. eigenvalues --   -0.62318  -0.61479  -0.60734  -0.60174  -0.59051
 Alpha  occ. eigenvalues --   -0.51838  -0.49566  -0.48359  -0.47230  -0.44843
 Alpha  occ. eigenvalues --   -0.41451  -0.40730  -0.40238  -0.39967  -0.39401
 Alpha virt. eigenvalues --   -0.00556   0.01073   0.01764   0.02210   0.04294
 Alpha virt. eigenvalues --    0.04721   0.05341   0.05761   0.06152   0.08259
 Alpha virt. eigenvalues --    0.08488   0.08634   0.09150   0.09426   0.10976
 Alpha virt. eigenvalues --    0.12875   0.13391   0.13419   0.13995   0.15031
 Alpha virt. eigenvalues --    0.16367   0.17478   0.18174   0.18458   0.18679
 Alpha virt. eigenvalues --    0.19721   0.20400   0.20539   0.21879   0.22343
 Alpha virt. eigenvalues --    0.22988   0.23472   0.23654   0.24609   0.25064
 Alpha virt. eigenvalues --    0.25163   0.25914   0.26858   0.27251   0.27865
 Alpha virt. eigenvalues --    0.28427   0.29018   0.29539   0.30226   0.30584
 Alpha virt. eigenvalues --    0.31040   0.31569   0.31713   0.32694   0.33492
 Alpha virt. eigenvalues --    0.34004   0.34579   0.34922   0.35593   0.36058
 Alpha virt. eigenvalues --    0.36950   0.37594   0.38958   0.39461   0.40013
 Alpha virt. eigenvalues --    0.40693   0.41404   0.41937   0.43078   0.43795
 Alpha virt. eigenvalues --    0.46035   0.46991   0.47707   0.48934   0.50370
 Alpha virt. eigenvalues --    0.50895   0.51395   0.52492   0.53290   0.53550
 Alpha virt. eigenvalues --    0.54245   0.54674   0.55642   0.56733   0.57572
 Alpha virt. eigenvalues --    0.58206   0.58500   0.58909   0.59904   0.60706
 Alpha virt. eigenvalues --    0.61274   0.61623   0.62662   0.62872   0.63377
 Alpha virt. eigenvalues --    0.64370   0.65090   0.65623   0.66380   0.66976
 Alpha virt. eigenvalues --    0.67679   0.69539   0.70045   0.71337   0.72504
 Alpha virt. eigenvalues --    0.72957   0.74384   0.75924   0.76919   0.77778
 Alpha virt. eigenvalues --    0.78425   0.81334   0.82611   0.84399   0.86266
 Alpha virt. eigenvalues --    0.90854   0.92479   0.94413   0.94469   0.95411
 Alpha virt. eigenvalues --    0.96255   0.97190   0.98110   0.98783   1.00316
 Alpha virt. eigenvalues --    1.01400   1.03090   1.04535   1.06604   1.06984
 Alpha virt. eigenvalues --    1.08532   1.09695   1.10297   1.10549   1.12409
 Alpha virt. eigenvalues --    1.13299   1.13646   1.15028   1.17171   1.18209
 Alpha virt. eigenvalues --    1.19249   1.21212   1.22279   1.22815   1.24539
 Alpha virt. eigenvalues --    1.25460   1.27655   1.28661   1.30139   1.32274
 Alpha virt. eigenvalues --    1.33792   1.37942   1.38591   1.40290   1.40563
 Alpha virt. eigenvalues --    1.42403   1.44212   1.46101   1.47042   1.48588
 Alpha virt. eigenvalues --    1.49736   1.51194   1.52689   1.55282   1.56154
 Alpha virt. eigenvalues --    1.58380   1.58823   1.60749   1.61424   1.62308
 Alpha virt. eigenvalues --    1.63185   1.64408   1.65619   1.67818   1.69300
 Alpha virt. eigenvalues --    1.69737   1.70934   1.71661   1.72918   1.73899
 Alpha virt. eigenvalues --    1.75789   1.76616   1.78128   1.78771   1.82285
 Alpha virt. eigenvalues --    1.86302   1.89560   1.93354   1.96431   1.99200
 Alpha virt. eigenvalues --    1.99892   2.00620   2.01320   2.04788   2.06842
 Alpha virt. eigenvalues --    2.08809   2.09801   2.11878   2.14123   2.15144
 Alpha virt. eigenvalues --    2.17571   2.19251   2.22087   2.23713   2.24078
 Alpha virt. eigenvalues --    2.25950   2.28192   2.29485   2.30245   2.31634
 Alpha virt. eigenvalues --    2.32076   2.33520   2.37805   2.38482   2.39798
 Alpha virt. eigenvalues --    2.42165   2.43060   2.47178   2.47422   2.48042
 Alpha virt. eigenvalues --    2.50004   2.52608   2.52899   2.54856   2.55486
 Alpha virt. eigenvalues --    2.57097   2.59140   2.60272   2.62467   2.62875
 Alpha virt. eigenvalues --    2.64391   2.64670   2.66019   2.66830   2.67810
 Alpha virt. eigenvalues --    2.68095   2.68832   2.70448   2.72455   2.74235
 Alpha virt. eigenvalues --    2.74700   2.76251   2.77332   2.77992   2.80068
 Alpha virt. eigenvalues --    2.80491   2.81063   2.83563   2.84063   2.86954
 Alpha virt. eigenvalues --    2.88072   2.90084   2.90559   2.94251   2.95326
 Alpha virt. eigenvalues --    2.96897   2.99697   3.01695   3.02151   3.04521
 Alpha virt. eigenvalues --    3.07652   3.08718   3.15126   3.15883   3.19071
 Alpha virt. eigenvalues --    3.22336   3.27544   3.30118   3.33262   3.37253
 Alpha virt. eigenvalues --    3.39373   3.41130   3.41286   3.42979   3.45229
 Alpha virt. eigenvalues --    3.46137   3.50073   3.52038   3.53702   3.56021
 Alpha virt. eigenvalues --    3.61678   3.65430   3.70239   3.71798   3.73395
 Alpha virt. eigenvalues --    3.74175   3.81473   3.84481   3.85666   3.90365
 Alpha virt. eigenvalues --    3.93198   3.95027   3.96335   3.97563   3.98933
 Alpha virt. eigenvalues --    4.00183   4.02101   4.03162   4.05308   4.06929
 Alpha virt. eigenvalues --    4.10776   4.10900   4.15063   4.16245   4.18768
 Alpha virt. eigenvalues --    4.19971   4.21432   4.21681   4.25333   4.28690
 Alpha virt. eigenvalues --    4.29273   4.32897   4.35118   4.36122   4.37940
 Alpha virt. eigenvalues --    4.40662   4.42953   4.45095   4.46964   4.49265
 Alpha virt. eigenvalues --    4.50826   4.52539   4.53602   4.55536   4.57614
 Alpha virt. eigenvalues --    4.61276   4.63071   4.65618   4.66976   4.67942
 Alpha virt. eigenvalues --    4.74746   4.77235   4.79691   4.81797   4.84766
 Alpha virt. eigenvalues --    4.87063   4.92034   4.92834   4.93096   4.97784
 Alpha virt. eigenvalues --    5.04007   5.06544   5.10447   5.14235   5.26405
 Alpha virt. eigenvalues --    5.38075   5.38850   5.39558   5.41273   5.49549
 Alpha virt. eigenvalues --    5.52189   5.54026   5.55708   5.57619   5.59317
 Alpha virt. eigenvalues --    5.60011   5.62176   5.62566   5.64334   5.65571
 Alpha virt. eigenvalues --    5.68017   5.72450   5.74360   5.79396   5.82708
 Alpha virt. eigenvalues --    5.83901   5.85265   5.86370   5.87626   5.88810
 Alpha virt. eigenvalues --    5.91487   5.93143   5.93833   5.95403   5.96282
 Alpha virt. eigenvalues --    6.02053   6.05150   6.14312   6.16675   6.21059
 Alpha virt. eigenvalues --    6.24871   6.29380   6.31018   6.32762   6.38253
 Alpha virt. eigenvalues --    6.40184   6.40885   6.43089   6.44540   6.45436
 Alpha virt. eigenvalues --    6.65501   6.67425   6.69675   6.71628   6.75547
 Alpha virt. eigenvalues --    6.83836   6.86010   6.90682   6.93361   6.94695
 Alpha virt. eigenvalues --    7.04288   7.04567   7.08853   7.09966   7.14315
 Alpha virt. eigenvalues --    7.21311   7.22396   7.23619   7.24264   7.25528
 Alpha virt. eigenvalues --    7.26750   7.27405   7.28371   7.29070   7.29686
 Alpha virt. eigenvalues --    7.30805   7.31719   7.32238   7.34146   7.35329
 Alpha virt. eigenvalues --    7.35692   7.36823   7.37028   7.40161   7.40630
 Alpha virt. eigenvalues --    7.41119   7.42856   7.44028   7.46113   7.50702
 Alpha virt. eigenvalues --    7.53691   7.54761   7.55449   7.58267   7.59802
 Alpha virt. eigenvalues --    7.60944   7.62023   7.63231   7.63896   7.66745
 Alpha virt. eigenvalues --    7.67664   7.68076   7.70362   7.70673   7.72386
 Alpha virt. eigenvalues --    7.73585   7.74383   7.76706   7.77224   7.78082
 Alpha virt. eigenvalues --    7.79802   7.81386   7.82089   7.83110   7.84572
 Alpha virt. eigenvalues --    7.85263   7.88101   7.89664   7.91016   7.93221
 Alpha virt. eigenvalues --    7.93674   7.95405   7.97282   7.99587   8.00391
 Alpha virt. eigenvalues --    8.00576   8.03579   8.06666   8.09231   8.10519
 Alpha virt. eigenvalues --    8.12735   8.17323   8.20508   8.21322   8.24043
 Alpha virt. eigenvalues --    8.28392   8.28846   8.32280   8.32594   8.37124
 Alpha virt. eigenvalues --    8.39378   8.41411   8.42146   8.43093   8.45010
 Alpha virt. eigenvalues --    8.47690   8.49522   8.51386   8.53586   8.57311
 Alpha virt. eigenvalues --    8.58825   8.59574   8.60953   8.62471   8.64821
 Alpha virt. eigenvalues --    8.65993   8.66284   8.67424   8.70005   8.71214
 Alpha virt. eigenvalues --    8.84228   8.87382   8.88891   8.90209   8.93078
 Alpha virt. eigenvalues --    8.98883   9.00294   9.01029   9.04593   9.15086
 Alpha virt. eigenvalues --    9.65902   9.67152   9.68255   9.70025   9.76478
 Alpha virt. eigenvalues --    9.78089   9.79313   9.80909   9.85546   9.90550
 Alpha virt. eigenvalues --   10.06186  10.13327  10.14322  10.14590  10.16414
 Alpha virt. eigenvalues --   10.16523  10.17247  10.18201  10.18800  10.19768
 Alpha virt. eigenvalues --   10.50502  10.53328  10.54149  10.56355  10.58009
 Alpha virt. eigenvalues --   10.58845  10.61885  10.65050  10.71184  10.74096
 Alpha virt. eigenvalues --   10.77848  10.80695  10.82108  10.82359  10.84637
 Alpha virt. eigenvalues --   10.94008  10.96251  10.98640  10.99816  11.00878
 Alpha virt. eigenvalues --   11.05189  11.07083  11.07701  11.09246  11.12263
 Alpha virt. eigenvalues --   11.19611  11.24424  11.26778  11.29184  11.32109
 Alpha virt. eigenvalues --   11.34427  11.39465  11.48134  11.50306  11.52908
 Alpha virt. eigenvalues --   11.53950  11.55686  11.56373  11.59397  11.59973
 Alpha virt. eigenvalues --   11.64633  11.65560  11.67863  11.68611  11.69954
 Alpha virt. eigenvalues --   11.70664  11.73128  11.74625  11.75460  11.79636
 Alpha virt. eigenvalues --   11.80373  11.86348  11.90045  11.93997  12.05532
 Alpha virt. eigenvalues --   12.25168  12.28279  12.30410  12.37783  12.42529
 Alpha virt. eigenvalues --   12.57574  12.60415  12.60817  12.63082  12.67608
 Alpha virt. eigenvalues --   13.12575  13.13625  13.16955  13.19733  13.23928
 Alpha virt. eigenvalues --   13.39262  13.42641  13.44836  13.45254  13.50686
 Alpha virt. eigenvalues --   13.52220  13.58744  13.61691  13.66486  13.68785
 Alpha virt. eigenvalues --   13.77412  13.79934  13.82778  13.85093  13.88159
 Alpha virt. eigenvalues --   14.27749  14.32873  14.35790  14.42686  14.51793
 Alpha virt. eigenvalues --   16.23108  16.28110  16.35904  16.40759  16.43081
 Alpha virt. eigenvalues --   16.49543  16.51622  16.52397  16.54389  16.57084
 Alpha virt. eigenvalues --   48.46115  48.47325  48.52463  48.59210  48.66991
 Alpha virt. eigenvalues --  251.56662 251.57989 251.64642 251.72569 251.82115
          Condensed to atoms (all electrons):
               1          2          3          4          5          6
     1  O    8.276389   0.305501   0.243167  -0.035123   0.005170   0.003473
     2  H    0.305501   0.316811  -0.023566   0.080248   0.002759  -0.004345
     3  H    0.243167  -0.023566   0.381510  -0.006635  -0.002785  -0.001099
     4  O   -0.035123   0.080248  -0.006635   8.169309   0.265651   0.283620
     5  H    0.005170   0.002759  -0.002785   0.265651   0.345089  -0.003528
     6  H    0.003473  -0.004345  -0.001099   0.283620  -0.003528   0.323376
     7  O    0.001843  -0.004667  -0.000165  -0.039075   0.082555  -0.006895
     8  H    0.000263   0.000418  -0.000103   0.000177  -0.004196  -0.000488
     9  H    0.001177   0.001760  -0.000591   0.003770  -0.001297   0.000814
    10  O   -0.033922   0.002443   0.005265  -0.001631  -0.003672   0.000304
    11  H    0.005435   0.000217  -0.000851   0.000305   0.000080   0.000222
    12  H    0.015236  -0.007720  -0.001853  -0.003654   0.000568   0.000417
    13  O   -0.030770   0.001546   0.002911  -0.000419   0.000619  -0.000096
    14  H    0.000068  -0.001320   0.000482   0.000010  -0.000057   0.000001
    15  H    0.036546  -0.000136  -0.000252  -0.000898  -0.000897  -0.000106
               7          8          9         10         11         12
     1  O    0.001843   0.000263   0.001177  -0.033922   0.005435   0.015236
     2  H   -0.004667   0.000418   0.001760   0.002443   0.000217  -0.007720
     3  H   -0.000165  -0.000103  -0.000591   0.005265  -0.000851  -0.001853
     4  O   -0.039075   0.000177   0.003770  -0.001631   0.000305  -0.003654
     5  H    0.082555  -0.004196  -0.001297  -0.003672   0.000080   0.000568
     6  H   -0.006895  -0.000488   0.000814   0.000304   0.000222   0.000417
     7  O    8.194493   0.282913   0.252420  -0.031867  -0.002284   0.006047
     8  H    0.282913   0.338974  -0.008042  -0.001937  -0.000555   0.000849
     9  H    0.252420  -0.008042   0.343633   0.076750  -0.005055   0.004364
    10  O   -0.031867  -0.001937   0.076750   8.370448   0.230240   0.155726
    11  H   -0.002284  -0.000555  -0.005055   0.230240   0.351252   0.005874
    12  H    0.006047   0.000849   0.004364   0.155726   0.005874   0.400895
    13  O   -0.000388   0.000070   0.000490  -0.016615   0.019700  -0.000673
    14  H    0.000071  -0.000014  -0.000420   0.001301  -0.002062   0.000800
    15  H    0.000166  -0.000073   0.000146  -0.001814   0.003512  -0.002444
              13         14         15
     1  O   -0.030770   0.000068   0.036546
     2  H    0.001546  -0.001320  -0.000136
     3  H    0.002911   0.000482  -0.000252
     4  O   -0.000419   0.000010  -0.000898
     5  H    0.000619  -0.000057  -0.000897
     6  H   -0.000096   0.000001  -0.000106
     7  O   -0.000388   0.000071   0.000166
     8  H    0.000070  -0.000014  -0.000073
     9  H    0.000490  -0.000420   0.000146
    10  O   -0.016615   0.001301  -0.001814
    11  H    0.019700  -0.002062   0.003512
    12  H   -0.000673   0.000800  -0.002444
    13  O    8.268226   0.281963   0.259693
    14  H    0.281963   0.345203  -0.016725
    15  H    0.259693  -0.016725   0.325685
 Mulliken charges:
               1
     1  O   -0.794452
     2  H    0.330050
     3  H    0.404566
     4  O   -0.715654
     5  H    0.313942
     6  H    0.404331
     7  O   -0.735167
     8  H    0.391743
     9  H    0.330082
    10  O   -0.751019
    11  H    0.393970
    12  H    0.425568
    13  O   -0.786255
    14  H    0.390699
    15  H    0.397596
 Sum of Mulliken charges =  -0.00000
 Mulliken charges with hydrogens summed into heavy atoms:
               1
     1  O   -0.059836
     4  O    0.002619
     7  O   -0.013342
    10  O    0.068519
    13  O    0.002040
 Electronic spatial extent (au):  <R**2>=            963.3912
 Charge=             -0.0000 electrons
 Dipole moment (field-independent basis, Debye):
    X=              0.7125    Y=              1.7094    Z=              1.1744  Tot=              2.1929
 Quadrupole moment (field-independent basis, Debye-Ang):
   XX=            -25.4408   YY=            -32.4198   ZZ=            -32.7000
   XY=              3.9255   XZ=              1.7339   YZ=             -0.2870
 Traceless Quadrupole moment (field-independent basis, Debye-Ang):
   XX=              4.7461   YY=             -2.2329   ZZ=             -2.5132
   XY=              3.9255   XZ=              1.7339   YZ=             -0.2870
 Octapole moment (field-independent basis, Debye-Ang**2):
  XXX=             22.6023  YYY=             12.4915  ZZZ=              3.4871  XYY=              0.8210
  XXY=            -11.2585  XXZ=              8.3900  XZZ=             -6.9303  YZZ=             12.1818
  YYZ=              0.7312  XYZ=             13.7532
 Hexadecapole moment (field-independent basis, Debye-Ang**3):
 XXXX=           -444.5769 YYYY=           -346.8039 ZZZZ=           -109.1078 XXXY=             25.1132
 XXXZ=            -16.9271 YYYX=             27.4479 YYYZ=             15.6582 ZZZX=             17.6773
 ZZZY=             -0.1097 XXYY=           -150.0632 XXZZ=           -127.6222 YYZZ=            -63.4954
 XXYZ=            -17.0798 YYXZ=              5.2668 ZZXY=             -2.0114
 N-N= 2.093844926201D+02 E-N=-1.323052475186D+03  KE= 3.808714014725D+02
 PrsmSu:  requested number of processors reduced to:  20 ShMem   1 Linda.
 No NMR shielding tensors so no spin-rotation constants.
 Leave Link  601 at Sun Apr 18 03:24:06 2021, MaxMem=   104857600 cpu:             308.3 elap:               6.8
 (Enter /s/ls4/users/knvvv/bin/g16sse/l801.exe)
 DoSCS=F DFT=T ScalE2(SS,OS)=  1.000000  1.000000
 Range of M.O.s used for correlation:     1   660
 NBasis=   660 NAE=    25 NBE=    25 NFC=     0 NFV=     0
 NROrb=    660 NOA=    25 NOB=    25 NVA=   635 NVB=   635

 **** Warning!!: The largest alpha MO coefficient is  0.46951423D+02

 Leave Link  801 at Sun Apr 18 03:24:07 2021, MaxMem=   104857600 cpu:               4.6 elap:               0.1
 (Enter /s/ls4/users/knvvv/bin/g16sse/l914.exe)
 RHF ground state
 Doing stability rather than CIS.
 Two-electron integrals replicated using symmetry.
 MDV=   104857600 DFT=T DoStab=T Mixed=T DoRPA=F DoScal=F NonHer=F
 Making orbital integer symmetry assigments:
 Orbital symmetries:
       Occupied  (A) (A) (A) (A) (A) (A) (A) (A) (A) (A) (A) (A)
                 (A) (A) (A) (A) (A) (A) (A) (A) (A) (A) (A) (A)
                 (A)
       Virtual   (A) (A) (A) (A) (A) (A) (A) (A) (A) (A) (A) (A)
                 (A) (A) (A) (A) (A) (A) (A) (A) (A) (A) (A) (A)
                 (A) (A) (A) (A) (A) (A) (A) (A) (A) (A) (A) (A)
                 (A) (A) (A) (A) (A) (A) (A) (A) (A) (A) (A) (A)
                 (A) (A) (A) (A) (A) (A) (A) (A) (A) (A) (A) (A)
                 (A) (A) (A) (A) (A) (A) (A) (A) (A) (A) (A) (A)
                 (A) (A) (A) (A) (A) (A) (A) (A) (A) (A) (A) (A)
                 (A) (A) (A) (A) (A) (A) (A) (A) (A) (A) (A) (A)
                 (A) (A) (A) (A) (A) (A) (A) (A) (A) (A) (A) (A)
                 (A) (A) (A) (A) (A) (A) (A) (A) (A) (A) (A) (A)
                 (A) (A) (A) (A) (A) (A) (A) (A) (A) (A) (A) (A)
                 (A) (A) (A) (A) (A) (A) (A) (A) (A) (A) (A) (A)
                 (A) (A) (A) (A) (A) (A) (A) (A) (A) (A) (A) (A)
                 (A) (A) (A) (A) (A) (A) (A) (A) (A) (A) (A) (A)
                 (A) (A) (A) (A) (A) (A) (A) (A) (A) (A) (A) (A)
                 (A) (A) (A) (A) (A) (A) (A) (A) (A) (A) (A) (A)
                 (A) (A) (A) (A) (A) (A) (A) (A) (A) (A) (A) (A)
                 (A) (A) (A) (A) (A) (A) (A) (A) (A) (A) (A) (A)
                 (A) (A) (A) (A) (A) (A) (A) (A) (A) (A) (A) (A)
                 (A) (A) (A) (A) (A) (A) (A) (A) (A) (A) (A) (A)
                 (A) (A) (A) (A) (A) (A) (A) (A) (A) (A) (A) (A)
                 (A) (A) (A) (A) (A) (A) (A) (A) (A) (A) (A) (A)
                 (A) (A) (A) (A) (A) (A) (A) (A) (A) (A) (A) (A)
                 (A) (A) (A) (A) (A) (A) (A) (A) (A) (A) (A) (A)
                 (A) (A) (A) (A) (A) (A) (A) (A) (A) (A) (A) (A)
                 (A) (A) (A) (A) (A) (A) (A) (A) (A) (A) (A) (A)
                 (A) (A) (A) (A) (A) (A) (A) (A) (A) (A) (A) (A)
                 (A) (A) (A) (A) (A) (A) (A) (A) (A) (A) (A) (A)
                 (A) (A) (A) (A) (A) (A) (A) (A) (A) (A) (A) (A)
                 (A) (A) (A) (A) (A) (A) (A) (A) (A) (A) (A) (A)
                 (A) (A) (A) (A) (A) (A) (A) (A) (A) (A) (A) (A)
                 (A) (A) (A) (A) (A) (A) (A) (A) (A) (A) (A) (A)
                 (A) (A) (A) (A) (A) (A) (A) (A) (A) (A) (A) (A)
                 (A) (A) (A) (A) (A) (A) (A) (A) (A) (A) (A) (A)
                 (A) (A) (A) (A) (A) (A) (A) (A) (A) (A) (A) (A)
                 (A) (A) (A) (A) (A) (A) (A) (A) (A) (A) (A) (A)
                 (A) (A) (A) (A) (A) (A) (A) (A) (A) (A) (A) (A)
                 (A) (A) (A) (A) (A) (A) (A) (A) (A) (A) (A) (A)
                 (A) (A) (A) (A) (A) (A) (A) (A) (A) (A) (A) (A)
                 (A) (A) (A) (A) (A) (A) (A) (A) (A) (A) (A) (A)
                 (A) (A) (A) (A) (A) (A) (A) (A) (A) (A) (A) (A)
                 (A) (A) (A) (A) (A) (A) (A) (A) (A) (A) (A) (A)
                 (A) (A) (A) (A) (A) (A) (A) (A) (A) (A) (A) (A)
                 (A) (A) (A) (A) (A) (A) (A) (A) (A) (A) (A) (A)
                 (A) (A) (A) (A) (A) (A) (A) (A) (A) (A) (A) (A)
                 (A) (A) (A) (A) (A) (A) (A) (A) (A) (A) (A) (A)
                 (A) (A) (A) (A) (A) (A) (A) (A) (A) (A) (A) (A)
                 (A) (A) (A) (A) (A) (A) (A) (A) (A) (A) (A) (A)
                 (A) (A) (A) (A) (A) (A) (A) (A) (A) (A) (A) (A)
                 (A) (A) (A) (A) (A) (A) (A) (A) (A) (A) (A) (A)
                 (A) (A) (A) (A) (A) (A) (A) (A) (A) (A) (A) (A)
                 (A) (A) (A) (A) (A) (A) (A) (A) (A) (A) (A) (A)
                 (A) (A) (A) (A) (A) (A) (A) (A) (A) (A) (A)
    24 initial guesses have been made.
 Convergence on wavefunction:    0.001000000000000
 Davidson Disk Diagonalization:  ConvIn= 1.00D-03 SkipCon=T Conv= 1.00D-03.
 Max sub-space:  2000 roots to seek:    24 dimension of matrix:        31750
 Iteration     1 Dimension    24 NMult     0 NNew     24
 Estimated number of processors is:   13
 CISAX will form     1 AO SS matrices at one time.
 NMat=     1 NSing=     1 JSym2X= 0.
 FoFJK:  IHMeth= 1 ICntrl=       0 DoSepK=F KAlg= 0 I1Cent=           0 FoldK=F
 IRaf= 900000000 NMat=       1 IRICut=       1 DoRegI=T DoRafI=F ISym2E= 0 IDoP0=0 IntGTp=1.
 FoFCou: FMM=F IPFlag=           0 FMFlag=      100000 FMFlg1=           0
         NFxFlg=           0 DoJE=F BraDBF=F KetDBF=F FulRan=T
         wScrn=  0.000000 ICntrl=         0 IOpCl=  0 I1Cent=           0 NGrid=           0
         NMat0=    1 NMatS0=      1 NMatT0=    0 NMatD0=    1 NMtDS0=    0 NMtDT0=    0
 Symmetry not used in FoFCou.
 CoulSu:  requested number of processors reduced to:  18 ShMem   1 Linda.
 CalDSu:  requested number of processors reduced to:  39 ShMem   1 Linda.
 NMat=     1 NSing=     1 JSym2X= 0.
 CoulSu:  requested number of processors reduced to:  18 ShMem   1 Linda.
 CalDSu:  requested number of processors reduced to:  39 ShMem   1 Linda.
 NMat=     1 NSing=     1 JSym2X= 0.
 CoulSu:  requested number of processors reduced to:  18 ShMem   1 Linda.
 CalDSu:  requested number of processors reduced to:  39 ShMem   1 Linda.
 NMat=     1 NSing=     1 JSym2X= 0.
 CoulSu:  requested number of processors reduced to:  18 ShMem   1 Linda.
 CalDSu:  requested number of processors reduced to:  39 ShMem   1 Linda.
 NMat=     1 NSing=     1 JSym2X= 0.
 CoulSu:  requested number of processors reduced to:  18 ShMem   1 Linda.
 CalDSu:  requested number of processors reduced to:  39 ShMem   1 Linda.
 NMat=     1 NSing=     1 JSym2X= 0.
 CoulSu:  requested number of processors reduced to:  18 ShMem   1 Linda.
 CalDSu:  requested number of processors reduced to:  39 ShMem   1 Linda.
 NMat=     1 NSing=     1 JSym2X= 0.
 CoulSu:  requested number of processors reduced to:  18 ShMem   1 Linda.
 CalDSu:  requested number of processors reduced to:  39 ShMem   1 Linda.
 NMat=     1 NSing=     1 JSym2X= 0.
 CoulSu:  requested number of processors reduced to:  18 ShMem   1 Linda.
 CalDSu:  requested number of processors reduced to:  39 ShMem   1 Linda.
 NMat=     1 NSing=     1 JSym2X= 0.
 CoulSu:  requested number of processors reduced to:  18 ShMem   1 Linda.
 CalDSu:  requested number of processors reduced to:  39 ShMem   1 Linda.
 NMat=     1 NSing=     1 JSym2X= 0.
 CoulSu:  requested number of processors reduced to:  18 ShMem   1 Linda.
 CalDSu:  requested number of processors reduced to:  39 ShMem   1 Linda.
 NMat=     1 NSing=     1 JSym2X= 0.
 CoulSu:  requested number of processors reduced to:  18 ShMem   1 Linda.
 CalDSu:  requested number of processors reduced to:  39 ShMem   1 Linda.
 NMat=     1 NSing=     1 JSym2X= 0.
 CoulSu:  requested number of processors reduced to:  18 ShMem   1 Linda.
 CalDSu:  requested number of processors reduced to:  39 ShMem   1 Linda.
 NMat=     1 NSing=     0 JSym2X= 0.
 CoulSu:  requested number of processors reduced to:  18 ShMem   1 Linda.
 CalDSu:  requested number of processors reduced to:  39 ShMem   1 Linda.
 NMat=     1 NSing=     0 JSym2X= 0.
 CoulSu:  requested number of processors reduced to:  18 ShMem   1 Linda.
 CalDSu:  requested number of processors reduced to:  39 ShMem   1 Linda.
 NMat=     1 NSing=     0 JSym2X= 0.
 CoulSu:  requested number of processors reduced to:  18 ShMem   1 Linda.
 CalDSu:  requested number of processors reduced to:  39 ShMem   1 Linda.
 NMat=     1 NSing=     0 JSym2X= 0.
 CoulSu:  requested number of processors reduced to:  18 ShMem   1 Linda.
 CalDSu:  requested number of processors reduced to:  39 ShMem   1 Linda.
 NMat=     1 NSing=     0 JSym2X= 0.
 CoulSu:  requested number of processors reduced to:  18 ShMem   1 Linda.
 CalDSu:  requested number of processors reduced to:  39 ShMem   1 Linda.
 NMat=     1 NSing=     0 JSym2X= 0.
 CoulSu:  requested number of processors reduced to:  18 ShMem   1 Linda.
 CalDSu:  requested number of processors reduced to:  39 ShMem   1 Linda.
 NMat=     1 NSing=     0 JSym2X= 0.
 CoulSu:  requested number of processors reduced to:  18 ShMem   1 Linda.
 CalDSu:  requested number of processors reduced to:  39 ShMem   1 Linda.
 NMat=     1 NSing=     0 JSym2X= 0.
 CoulSu:  requested number of processors reduced to:  18 ShMem   1 Linda.
 CalDSu:  requested number of processors reduced to:  39 ShMem   1 Linda.
 NMat=     1 NSing=     0 JSym2X= 0.
 CoulSu:  requested number of processors reduced to:  18 ShMem   1 Linda.
 CalDSu:  requested number of processors reduced to:  39 ShMem   1 Linda.
 NMat=     1 NSing=     0 JSym2X= 0.
 CoulSu:  requested number of processors reduced to:  18 ShMem   1 Linda.
 CalDSu:  requested number of processors reduced to:  39 ShMem   1 Linda.
 NMat=     1 NSing=     0 JSym2X= 0.
 CoulSu:  requested number of processors reduced to:  18 ShMem   1 Linda.
 CalDSu:  requested number of processors reduced to:  39 ShMem   1 Linda.
 NMat=     1 NSing=     0 JSym2X= 0.
 CoulSu:  requested number of processors reduced to:  18 ShMem   1 Linda.
 CalDSu:  requested number of processors reduced to:  39 ShMem   1 Linda.
 New state      1 was old state      4
 Excitation Energies [eV] at current iteration:
 Root      1 :     8.277778474169795
 Root      2 :     8.406533390501457
 Root      3 :     8.501144678523300
 Root      4 :     8.595020266954602
 Root      5 :     8.617326598361778
 Root      6 :     8.709222524168339
 Root      7 :     8.721255463016623
 Root      8 :     8.768039591622271
 Root      9 :     8.793530990678569
 Root     10 :     8.856594438688376
 Root     11 :     9.258880949925718
 Root     12 :     9.304482557414845
 Root     13 :     9.387582401731123
 Root     14 :     9.406692693255584
 Root     15 :     9.518773533957916
 Root     16 :     9.560978363725528
 Root     17 :     9.615517536514933
 Root     18 :     9.632311063735603
 Root     19 :     9.658317396743101
 Root     20 :     9.668682902657945
 Root     21 :     9.696097228830364
 Root     22 :     9.750768300115448
 Root     23 :     9.821375525924765
 Root     24 :     9.861654953792087
 Iteration     2 Dimension    48 NMult    24 NNew     24
 Estimated number of processors is:   13
 CISAX will form     1 AO SS matrices at one time.
 NMat=     1 NSing=     1 JSym2X= 0.
 CoulSu:  requested number of processors reduced to:  18 ShMem   1 Linda.
 CalDSu:  requested number of processors reduced to:  39 ShMem   1 Linda.
 NMat=     1 NSing=     1 JSym2X= 0.
 CoulSu:  requested number of processors reduced to:  18 ShMem   1 Linda.
 CalDSu:  requested number of processors reduced to:  39 ShMem   1 Linda.
 NMat=     1 NSing=     1 JSym2X= 0.
 CoulSu:  requested number of processors reduced to:  18 ShMem   1 Linda.
 CalDSu:  requested number of processors reduced to:  39 ShMem   1 Linda.
 NMat=     1 NSing=     1 JSym2X= 0.
 CoulSu:  requested number of processors reduced to:  18 ShMem   1 Linda.
 CalDSu:  requested number of processors reduced to:  39 ShMem   1 Linda.
 NMat=     1 NSing=     1 JSym2X= 0.
 CoulSu:  requested number of processors reduced to:  18 ShMem   1 Linda.
 CalDSu:  requested number of processors reduced to:  39 ShMem   1 Linda.
 NMat=     1 NSing=     1 JSym2X= 0.
 CoulSu:  requested number of processors reduced to:  18 ShMem   1 Linda.
 CalDSu:  requested number of processors reduced to:  39 ShMem   1 Linda.
 NMat=     1 NSing=     1 JSym2X= 0.
 CoulSu:  requested number of processors reduced to:  18 ShMem   1 Linda.
 CalDSu:  requested number of processors reduced to:  39 ShMem   1 Linda.
 NMat=     1 NSing=     1 JSym2X= 0.
 CoulSu:  requested number of processors reduced to:  18 ShMem   1 Linda.
 CalDSu:  requested number of processors reduced to:  39 ShMem   1 Linda.
 NMat=     1 NSing=     1 JSym2X= 0.
 CoulSu:  requested number of processors reduced to:  18 ShMem   1 Linda.
 CalDSu:  requested number of processors reduced to:  39 ShMem   1 Linda.
 NMat=     1 NSing=     1 JSym2X= 0.
 CoulSu:  requested number of processors reduced to:  18 ShMem   1 Linda.
 CalDSu:  requested number of processors reduced to:  39 ShMem   1 Linda.
 NMat=     1 NSing=     1 JSym2X= 0.
 CoulSu:  requested number of processors reduced to:  18 ShMem   1 Linda.
 CalDSu:  requested number of processors reduced to:  39 ShMem   1 Linda.
 NMat=     1 NSing=     1 JSym2X= 0.
 CoulSu:  requested number of processors reduced to:  18 ShMem   1 Linda.
 CalDSu:  requested number of processors reduced to:  39 ShMem   1 Linda.
 NMat=     1 NSing=     0 JSym2X= 0.
 CoulSu:  requested number of processors reduced to:  18 ShMem   1 Linda.
 CalDSu:  requested number of processors reduced to:  39 ShMem   1 Linda.
 NMat=     1 NSing=     0 JSym2X= 0.
 CoulSu:  requested number of processors reduced to:  18 ShMem   1 Linda.
 CalDSu:  requested number of processors reduced to:  39 ShMem   1 Linda.
 NMat=     1 NSing=     0 JSym2X= 0.
 CoulSu:  requested number of processors reduced to:  18 ShMem   1 Linda.
 CalDSu:  requested number of processors reduced to:  39 ShMem   1 Linda.
 NMat=     1 NSing=     0 JSym2X= 0.
 CoulSu:  requested number of processors reduced to:  18 ShMem   1 Linda.
 CalDSu:  requested number of processors reduced to:  39 ShMem   1 Linda.
 NMat=     1 NSing=     0 JSym2X= 0.
 CoulSu:  requested number of processors reduced to:  18 ShMem   1 Linda.
 CalDSu:  requested number of processors reduced to:  39 ShMem   1 Linda.
 NMat=     1 NSing=     0 JSym2X= 0.
 CoulSu:  requested number of processors reduced to:  18 ShMem   1 Linda.
 CalDSu:  requested number of processors reduced to:  39 ShMem   1 Linda.
 NMat=     1 NSing=     0 JSym2X= 0.
 CoulSu:  requested number of processors reduced to:  18 ShMem   1 Linda.
 CalDSu:  requested number of processors reduced to:  39 ShMem   1 Linda.
 NMat=     1 NSing=     0 JSym2X= 0.
 CoulSu:  requested number of processors reduced to:  18 ShMem   1 Linda.
 CalDSu:  requested number of processors reduced to:  39 ShMem   1 Linda.
 NMat=     1 NSing=     0 JSym2X= 0.
 CoulSu:  requested number of processors reduced to:  18 ShMem   1 Linda.
 CalDSu:  requested number of processors reduced to:  39 ShMem   1 Linda.
 NMat=     1 NSing=     0 JSym2X= 0.
 CoulSu:  requested number of processors reduced to:  18 ShMem   1 Linda.
 CalDSu:  requested number of processors reduced to:  39 ShMem   1 Linda.
 NMat=     1 NSing=     0 JSym2X= 0.
 CoulSu:  requested number of processors reduced to:  18 ShMem   1 Linda.
 CalDSu:  requested number of processors reduced to:  39 ShMem   1 Linda.
 NMat=     1 NSing=     0 JSym2X= 0.
 CoulSu:  requested number of processors reduced to:  18 ShMem   1 Linda.
 CalDSu:  requested number of processors reduced to:  39 ShMem   1 Linda.
 Root      1 not converged, maximum delta is    0.142390611390760
 Excitation Energies [eV] at current iteration:
 Root      1 :     7.494014000685604   Change is   -0.783764473484190
 Root      2 :     7.771299961467797   Change is   -0.823720305486805
 Root      3 :     7.786924213491457   Change is   -0.714220465031842
 Root      4 :     7.930512760389931   Change is   -0.778709763778409
 Root      5 :     7.959934693906803   Change is   -0.808104897715469
 Root      6 :     8.049510621721145   Change is   -0.357022768780312
 Root      7 :     8.328988060668665   Change is   -0.288338537693114
 Root      8 :     8.365572515026468   Change is   -0.355682947990154
 Root      9 :     8.443349519052488   Change is   -0.350181471626082
 Root     10 :     8.496234000346771   Change is   -0.360360438341606
 Root     11 :     8.991943853242379   Change is   -0.266937096683340
 Root     12 :     9.096542784552357   Change is   -0.291039617178766
 Root     13 :     9.144592121972705   Change is   -0.470925414542226
 Root     14 :     9.152673143931013   Change is   -0.151809413483833
 Root     15 :     9.192357674693914   Change is   -0.214335018561669
 Root     16 :     9.226643921630247   Change is   -0.292129612327668
 Root     17 :     9.352796394500514   Change is   -0.279514669235090
 Root     18 :     9.384890301078725   Change is   -0.176088062646804
 Root     19 :     9.412030979827179   Change is   -0.284066249003185
 Root     20 :     9.435788082475437   Change is   -0.222529314267663
 Root     21 :     9.464731547837793   Change is   -0.356643978086972
 Root     22 :     9.551402885380229   Change is   -0.117280017277717
 Root     23 :     9.579028269411118   Change is   -0.171740030704329
 Root     24 :     9.750249591365568   Change is   -0.111405362426520
 Iteration     3 Dimension    54 NMult    48 NNew      6
 Estimated number of processors is:   13
 CISAX will form     1 AO SS matrices at one time.
 NMat=     1 NSing=     1 JSym2X= 0.
 CoulSu:  requested number of processors reduced to:  18 ShMem   1 Linda.
 CalDSu:  requested number of processors reduced to:  39 ShMem   1 Linda.
 NMat=     1 NSing=     1 JSym2X= 0.
 CoulSu:  requested number of processors reduced to:  18 ShMem   1 Linda.
 CalDSu:  requested number of processors reduced to:  39 ShMem   1 Linda.
 NMat=     1 NSing=     1 JSym2X= 0.
 CoulSu:  requested number of processors reduced to:  18 ShMem   1 Linda.
 CalDSu:  requested number of processors reduced to:  39 ShMem   1 Linda.
 NMat=     1 NSing=     0 JSym2X= 0.
 CoulSu:  requested number of processors reduced to:  18 ShMem   1 Linda.
 CalDSu:  requested number of processors reduced to:  39 ShMem   1 Linda.
 NMat=     1 NSing=     0 JSym2X= 0.
 CoulSu:  requested number of processors reduced to:  18 ShMem   1 Linda.
 CalDSu:  requested number of processors reduced to:  39 ShMem   1 Linda.
 NMat=     1 NSing=     0 JSym2X= 0.
 CoulSu:  requested number of processors reduced to:  18 ShMem   1 Linda.
 CalDSu:  requested number of processors reduced to:  39 ShMem   1 Linda.
 Root      1 not converged, maximum delta is    0.030612788495399
 Excitation Energies [eV] at current iteration:
 Root      1 :     7.399824652919144   Change is   -0.094189347766459
 Root      2 :     7.635581322387710   Change is   -0.135718639080087
 Root      3 :     7.649784364672658   Change is   -0.137139848818800
 Root      4 :     8.016036391176780   Change is   -0.033474230544366
 Root      5 :     8.258237866671299   Change is   -0.070750193997365
 Root      6 :     8.303655502950583   Change is   -0.061917012075885
 Iteration     4 Dimension    60 NMult    54 NNew      6
 Estimated number of processors is:   13
 CISAX will form     1 AO SS matrices at one time.
 NMat=     1 NSing=     1 JSym2X= 0.
 CoulSu:  requested number of processors reduced to:  18 ShMem   1 Linda.
 CalDSu:  requested number of processors reduced to:  39 ShMem   1 Linda.
 NMat=     1 NSing=     1 JSym2X= 0.
 CoulSu:  requested number of processors reduced to:  18 ShMem   1 Linda.
 CalDSu:  requested number of processors reduced to:  39 ShMem   1 Linda.
 NMat=     1 NSing=     1 JSym2X= 0.
 CoulSu:  requested number of processors reduced to:  18 ShMem   1 Linda.
 CalDSu:  requested number of processors reduced to:  39 ShMem   1 Linda.
 NMat=     1 NSing=     0 JSym2X= 0.
 CoulSu:  requested number of processors reduced to:  18 ShMem   1 Linda.
 CalDSu:  requested number of processors reduced to:  39 ShMem   1 Linda.
 NMat=     1 NSing=     0 JSym2X= 0.
 CoulSu:  requested number of processors reduced to:  18 ShMem   1 Linda.
 CalDSu:  requested number of processors reduced to:  39 ShMem   1 Linda.
 NMat=     1 NSing=     0 JSym2X= 0.
 CoulSu:  requested number of processors reduced to:  18 ShMem   1 Linda.
 CalDSu:  requested number of processors reduced to:  39 ShMem   1 Linda.
 Root      1 not converged, maximum delta is    0.006984766413839
 Excitation Energies [eV] at current iteration:
 Root      1 :     7.393017424415744   Change is   -0.006807228503400
 Root      2 :     7.615350836789319   Change is   -0.020230485598390
 Root      3 :     7.631232528795726   Change is   -0.018551835876931
 Root      4 :     8.011381421943154   Change is   -0.004654969233626
 Root      5 :     8.244354333461832   Change is   -0.013883533209467
 Root      6 :     8.284509585284697   Change is   -0.019145917665886
 Iteration     5 Dimension    66 NMult    60 NNew      6
 Estimated number of processors is:   13
 CISAX will form     1 AO SS matrices at one time.
 NMat=     1 NSing=     1 JSym2X= 0.
 CoulSu:  requested number of processors reduced to:  18 ShMem   1 Linda.
 CalDSu:  requested number of processors reduced to:  39 ShMem   1 Linda.
 NMat=     1 NSing=     1 JSym2X= 0.
 CoulSu:  requested number of processors reduced to:  18 ShMem   1 Linda.
 CalDSu:  requested number of processors reduced to:  39 ShMem   1 Linda.
 NMat=     1 NSing=     1 JSym2X= 0.
 CoulSu:  requested number of processors reduced to:  18 ShMem   1 Linda.
 CalDSu:  requested number of processors reduced to:  39 ShMem   1 Linda.
 NMat=     1 NSing=     0 JSym2X= 0.
 CoulSu:  requested number of processors reduced to:  18 ShMem   1 Linda.
 CalDSu:  requested number of processors reduced to:  39 ShMem   1 Linda.
 NMat=     1 NSing=     0 JSym2X= 0.
 CoulSu:  requested number of processors reduced to:  18 ShMem   1 Linda.
 CalDSu:  requested number of processors reduced to:  39 ShMem   1 Linda.
 NMat=     1 NSing=     0 JSym2X= 0.
 CoulSu:  requested number of processors reduced to:  18 ShMem   1 Linda.
 CalDSu:  requested number of processors reduced to:  39 ShMem   1 Linda.
 Root      1 not converged, maximum delta is    0.001385373897086
 Excitation Energies [eV] at current iteration:
 Root      1 :     7.392375323536001   Change is   -0.000642100879743
 Root      2 :     7.612035706903441   Change is   -0.003315129885878
 Root      3 :     7.627123090087958   Change is   -0.004109438707768
 Root      4 :     8.010842723085966   Change is   -0.000538698857187
 Root      5 :     8.240394718393105   Change is   -0.003959615068727
 Root      6 :     8.277324045164217   Change is   -0.007185540120481
 Iteration     6 Dimension    72 NMult    66 NNew      6
 Estimated number of processors is:   13
 CISAX will form     1 AO SS matrices at one time.
 NMat=     1 NSing=     1 JSym2X= 0.
 CoulSu:  requested number of processors reduced to:  18 ShMem   1 Linda.
 CalDSu:  requested number of processors reduced to:  39 ShMem   1 Linda.
 NMat=     1 NSing=     1 JSym2X= 0.
 CoulSu:  requested number of processors reduced to:  18 ShMem   1 Linda.
 CalDSu:  requested number of processors reduced to:  39 ShMem   1 Linda.
 NMat=     1 NSing=     1 JSym2X= 0.
 CoulSu:  requested number of processors reduced to:  18 ShMem   1 Linda.
 CalDSu:  requested number of processors reduced to:  39 ShMem   1 Linda.
 NMat=     1 NSing=     0 JSym2X= 0.
 CoulSu:  requested number of processors reduced to:  18 ShMem   1 Linda.
 CalDSu:  requested number of processors reduced to:  39 ShMem   1 Linda.
 NMat=     1 NSing=     0 JSym2X= 0.
 CoulSu:  requested number of processors reduced to:  18 ShMem   1 Linda.
 CalDSu:  requested number of processors reduced to:  39 ShMem   1 Linda.
 NMat=     1 NSing=     0 JSym2X= 0.
 CoulSu:  requested number of processors reduced to:  18 ShMem   1 Linda.
 CalDSu:  requested number of processors reduced to:  39 ShMem   1 Linda.
 Root      1 has converged.
 Excitation Energies [eV] at current iteration:
 Root      1 :     7.392271742249362   Change is   -0.000103581286639
 Root      2 :     7.611472478606023   Change is   -0.000563228297418
 Root      3 :     7.625991315992025   Change is   -0.001131774095934
 Root      4 :     8.010741784491596   Change is   -0.000100938594371
 Root      5 :     8.239625222769298   Change is   -0.000769495623807
 Root      6 :     8.275785909769681   Change is   -0.001538135394536
 Convergence achieved on expansion vectors.
 ***********************************************************************
 Stability analysis using <AA,BB:AA,BB> singles matrix:
 ***********************************************************************
 1PDM for each excited state written to RWF  633
 Ground to excited state transition densities written to RWF  633

 Eigenvectors of the stability matrix:
 
 Eigenvector   1:      Triplet-A    Eigenvalue= 0.2716610  <S**2>=2.000
      24 -> 26         0.36492
      24 -> 27         0.25077
      24 -> 28        -0.22564
      24 -> 29        -0.14218
      24 -> 37        -0.10270
      24 -> 42        -0.15066
      25 -> 26        -0.27453
      25 -> 27        -0.11187
      25 -> 28         0.15633
 The wavefunction is stable under the perturbations considered.
 Leave Link  914 at Sun Apr 18 04:26:40 2021, MaxMem=   104857600 cpu:          113207.5 elap:            3753.9
 (Enter /s/ls4/users/knvvv/bin/g16sse/l508.exe)
 The wavefunction is already stable.
 Leave Link  508 at Sun Apr 18 04:26:41 2021, MaxMem=   104857600 cpu:               2.5 elap:               0.1
 (Enter /s/ls4/users/knvvv/bin/g16sse/l601.exe)
 Copying SCF densities to generalized density rwf, IOpCl= 0 IROHF=0.

 **********************************************************************

            Population analysis using the SCF density.

 **********************************************************************

 Orbital symmetries:
       Occupied  (A) (A) (A) (A) (A) (A) (A) (A) (A) (A) (A) (A)
                 (A) (A) (A) (A) (A) (A) (A) (A) (A) (A) (A) (A)
                 (A)
       Virtual   (A) (A) (A) (A) (A) (A) (A) (A) (A) (A) (A) (A)
                 (A) (A) (A) (A) (A) (A) (A) (A) (A) (A) (A) (A)
                 (A) (A) (A) (A) (A) (A) (A) (A) (A) (A) (A) (A)
                 (A) (A) (A) (A) (A) (A) (A) (A) (A) (A) (A) (A)
                 (A) (A) (A) (A) (A) (A) (A) (A) (A) (A) (A) (A)
                 (A) (A) (A) (A) (A) (A) (A) (A) (A) (A) (A) (A)
                 (A) (A) (A) (A) (A) (A) (A) (A) (A) (A) (A) (A)
                 (A) (A) (A) (A) (A) (A) (A) (A) (A) (A) (A) (A)
                 (A) (A) (A) (A) (A) (A) (A) (A) (A) (A) (A) (A)
                 (A) (A) (A) (A) (A) (A) (A) (A) (A) (A) (A) (A)
                 (A) (A) (A) (A) (A) (A) (A) (A) (A) (A) (A) (A)
                 (A) (A) (A) (A) (A) (A) (A) (A) (A) (A) (A) (A)
                 (A) (A) (A) (A) (A) (A) (A) (A) (A) (A) (A) (A)
                 (A) (A) (A) (A) (A) (A) (A) (A) (A) (A) (A) (A)
                 (A) (A) (A) (A) (A) (A) (A) (A) (A) (A) (A) (A)
                 (A) (A) (A) (A) (A) (A) (A) (A) (A) (A) (A) (A)
                 (A) (A) (A) (A) (A) (A) (A) (A) (A) (A) (A) (A)
                 (A) (A) (A) (A) (A) (A) (A) (A) (A) (A) (A) (A)
                 (A) (A) (A) (A) (A) (A) (A) (A) (A) (A) (A) (A)
                 (A) (A) (A) (A) (A) (A) (A) (A) (A) (A) (A) (A)
                 (A) (A) (A) (A) (A) (A) (A) (A) (A) (A) (A) (A)
                 (A) (A) (A) (A) (A) (A) (A) (A) (A) (A) (A) (A)
                 (A) (A) (A) (A) (A) (A) (A) (A) (A) (A) (A) (A)
                 (A) (A) (A) (A) (A) (A) (A) (A) (A) (A) (A) (A)
                 (A) (A) (A) (A) (A) (A) (A) (A) (A) (A) (A) (A)
                 (A) (A) (A) (A) (A) (A) (A) (A) (A) (A) (A) (A)
                 (A) (A) (A) (A) (A) (A) (A) (A) (A) (A) (A) (A)
                 (A) (A) (A) (A) (A) (A) (A) (A) (A) (A) (A) (A)
                 (A) (A) (A) (A) (A) (A) (A) (A) (A) (A) (A) (A)
                 (A) (A) (A) (A) (A) (A) (A) (A) (A) (A) (A) (A)
                 (A) (A) (A) (A) (A) (A) (A) (A) (A) (A) (A) (A)
                 (A) (A) (A) (A) (A) (A) (A) (A) (A) (A) (A) (A)
                 (A) (A) (A) (A) (A) (A) (A) (A) (A) (A) (A) (A)
                 (A) (A) (A) (A) (A) (A) (A) (A) (A) (A) (A) (A)
                 (A) (A) (A) (A) (A) (A) (A) (A) (A) (A) (A) (A)
                 (A) (A) (A) (A) (A) (A) (A) (A) (A) (A) (A) (A)
                 (A) (A) (A) (A) (A) (A) (A) (A) (A) (A) (A) (A)
                 (A) (A) (A) (A) (A) (A) (A) (A) (A) (A) (A) (A)
                 (A) (A) (A) (A) (A) (A) (A) (A) (A) (A) (A) (A)
                 (A) (A) (A) (A) (A) (A) (A) (A) (A) (A) (A) (A)
                 (A) (A) (A) (A) (A) (A) (A) (A) (A) (A) (A) (A)
                 (A) (A) (A) (A) (A) (A) (A) (A) (A) (A) (A) (A)
                 (A) (A) (A) (A) (A) (A) (A) (A) (A) (A) (A) (A)
                 (A) (A) (A) (A) (A) (A) (A) (A) (A) (A) (A) (A)
                 (A) (A) (A) (A) (A) (A) (A) (A) (A) (A) (A) (A)
                 (A) (A) (A) (A) (A) (A) (A) (A) (A) (A) (A) (A)
                 (A) (A) (A) (A) (A) (A) (A) (A) (A) (A) (A) (A)
                 (A) (A) (A) (A) (A) (A) (A) (A) (A) (A) (A) (A)
                 (A) (A) (A) (A) (A) (A) (A) (A) (A) (A) (A) (A)
                 (A) (A) (A) (A) (A) (A) (A) (A) (A) (A) (A) (A)
                 (A) (A) (A) (A) (A) (A) (A) (A) (A) (A) (A) (A)
                 (A) (A) (A) (A) (A) (A) (A) (A) (A) (A) (A) (A)
                 (A) (A) (A) (A) (A) (A) (A) (A) (A) (A) (A)
 The electronic state is 1-A.
 Alpha  occ. eigenvalues --  -19.63456 -19.62760 -19.62412 -19.62284 -19.61956
 Alpha  occ. eigenvalues --   -1.14753  -1.13445  -1.13260  -1.12351  -1.11634
 Alpha  occ. eigenvalues --   -0.62318  -0.61479  -0.60734  -0.60174  -0.59051
 Alpha  occ. eigenvalues --   -0.51838  -0.49566  -0.48359  -0.47230  -0.44843
 Alpha  occ. eigenvalues --   -0.41451  -0.40730  -0.40238  -0.39967  -0.39401
 Alpha virt. eigenvalues --   -0.00556   0.01073   0.01764   0.02210   0.04294
 Alpha virt. eigenvalues --    0.04721   0.05341   0.05761   0.06152   0.08259
 Alpha virt. eigenvalues --    0.08488   0.08634   0.09150   0.09426   0.10976
 Alpha virt. eigenvalues --    0.12875   0.13391   0.13419   0.13995   0.15031
 Alpha virt. eigenvalues --    0.16367   0.17478   0.18174   0.18458   0.18679
 Alpha virt. eigenvalues --    0.19721   0.20400   0.20539   0.21879   0.22343
 Alpha virt. eigenvalues --    0.22988   0.23472   0.23654   0.24609   0.25064
 Alpha virt. eigenvalues --    0.25163   0.25914   0.26858   0.27251   0.27865
 Alpha virt. eigenvalues --    0.28427   0.29018   0.29539   0.30226   0.30584
 Alpha virt. eigenvalues --    0.31040   0.31569   0.31713   0.32694   0.33492
 Alpha virt. eigenvalues --    0.34004   0.34579   0.34922   0.35593   0.36058
 Alpha virt. eigenvalues --    0.36950   0.37594   0.38958   0.39461   0.40013
 Alpha virt. eigenvalues --    0.40693   0.41404   0.41937   0.43078   0.43795
 Alpha virt. eigenvalues --    0.46035   0.46991   0.47707   0.48934   0.50370
 Alpha virt. eigenvalues --    0.50895   0.51395   0.52492   0.53290   0.53550
 Alpha virt. eigenvalues --    0.54245   0.54674   0.55642   0.56733   0.57572
 Alpha virt. eigenvalues --    0.58206   0.58500   0.58909   0.59904   0.60706
 Alpha virt. eigenvalues --    0.61274   0.61623   0.62662   0.62872   0.63377
 Alpha virt. eigenvalues --    0.64370   0.65090   0.65623   0.66380   0.66976
 Alpha virt. eigenvalues --    0.67679   0.69539   0.70045   0.71337   0.72504
 Alpha virt. eigenvalues --    0.72957   0.74384   0.75924   0.76919   0.77778
 Alpha virt. eigenvalues --    0.78425   0.81334   0.82611   0.84399   0.86266
 Alpha virt. eigenvalues --    0.90854   0.92479   0.94413   0.94469   0.95411
 Alpha virt. eigenvalues --    0.96255   0.97190   0.98110   0.98783   1.00316
 Alpha virt. eigenvalues --    1.01400   1.03090   1.04535   1.06604   1.06984
 Alpha virt. eigenvalues --    1.08532   1.09695   1.10297   1.10549   1.12409
 Alpha virt. eigenvalues --    1.13299   1.13646   1.15028   1.17171   1.18209
 Alpha virt. eigenvalues --    1.19249   1.21212   1.22279   1.22815   1.24539
 Alpha virt. eigenvalues --    1.25460   1.27655   1.28661   1.30139   1.32274
 Alpha virt. eigenvalues --    1.33792   1.37942   1.38591   1.40290   1.40563
 Alpha virt. eigenvalues --    1.42403   1.44212   1.46101   1.47042   1.48588
 Alpha virt. eigenvalues --    1.49736   1.51194   1.52689   1.55282   1.56154
 Alpha virt. eigenvalues --    1.58380   1.58823   1.60749   1.61424   1.62308
 Alpha virt. eigenvalues --    1.63185   1.64408   1.65619   1.67818   1.69300
 Alpha virt. eigenvalues --    1.69737   1.70934   1.71661   1.72918   1.73899
 Alpha virt. eigenvalues --    1.75789   1.76616   1.78128   1.78771   1.82285
 Alpha virt. eigenvalues --    1.86302   1.89560   1.93354   1.96431   1.99200
 Alpha virt. eigenvalues --    1.99892   2.00620   2.01320   2.04788   2.06842
 Alpha virt. eigenvalues --    2.08809   2.09801   2.11878   2.14123   2.15144
 Alpha virt. eigenvalues --    2.17571   2.19251   2.22087   2.23713   2.24078
 Alpha virt. eigenvalues --    2.25950   2.28192   2.29485   2.30245   2.31634
 Alpha virt. eigenvalues --    2.32076   2.33520   2.37805   2.38482   2.39798
 Alpha virt. eigenvalues --    2.42165   2.43060   2.47178   2.47422   2.48042
 Alpha virt. eigenvalues --    2.50004   2.52608   2.52899   2.54856   2.55486
 Alpha virt. eigenvalues --    2.57097   2.59140   2.60272   2.62467   2.62875
 Alpha virt. eigenvalues --    2.64391   2.64670   2.66019   2.66830   2.67810
 Alpha virt. eigenvalues --    2.68095   2.68832   2.70448   2.72455   2.74235
 Alpha virt. eigenvalues --    2.74700   2.76251   2.77332   2.77992   2.80068
 Alpha virt. eigenvalues --    2.80491   2.81063   2.83563   2.84063   2.86954
 Alpha virt. eigenvalues --    2.88072   2.90084   2.90559   2.94251   2.95326
 Alpha virt. eigenvalues --    2.96897   2.99697   3.01695   3.02151   3.04521
 Alpha virt. eigenvalues --    3.07652   3.08718   3.15126   3.15883   3.19071
 Alpha virt. eigenvalues --    3.22336   3.27544   3.30118   3.33262   3.37253
 Alpha virt. eigenvalues --    3.39373   3.41130   3.41286   3.42979   3.45229
 Alpha virt. eigenvalues --    3.46137   3.50073   3.52038   3.53702   3.56021
 Alpha virt. eigenvalues --    3.61678   3.65430   3.70239   3.71798   3.73395
 Alpha virt. eigenvalues --    3.74175   3.81473   3.84481   3.85666   3.90365
 Alpha virt. eigenvalues --    3.93198   3.95027   3.96335   3.97563   3.98933
 Alpha virt. eigenvalues --    4.00183   4.02101   4.03162   4.05308   4.06929
 Alpha virt. eigenvalues --    4.10776   4.10900   4.15063   4.16245   4.18768
 Alpha virt. eigenvalues --    4.19971   4.21432   4.21681   4.25333   4.28690
 Alpha virt. eigenvalues --    4.29273   4.32897   4.35118   4.36122   4.37940
 Alpha virt. eigenvalues --    4.40662   4.42953   4.45095   4.46964   4.49265
 Alpha virt. eigenvalues --    4.50826   4.52539   4.53602   4.55536   4.57614
 Alpha virt. eigenvalues --    4.61276   4.63071   4.65618   4.66976   4.67942
 Alpha virt. eigenvalues --    4.74746   4.77235   4.79691   4.81797   4.84766
 Alpha virt. eigenvalues --    4.87063   4.92034   4.92834   4.93096   4.97784
 Alpha virt. eigenvalues --    5.04007   5.06544   5.10447   5.14235   5.26405
 Alpha virt. eigenvalues --    5.38075   5.38850   5.39558   5.41273   5.49549
 Alpha virt. eigenvalues --    5.52189   5.54026   5.55708   5.57619   5.59317
 Alpha virt. eigenvalues --    5.60011   5.62176   5.62566   5.64334   5.65571
 Alpha virt. eigenvalues --    5.68017   5.72450   5.74360   5.79396   5.82708
 Alpha virt. eigenvalues --    5.83901   5.85265   5.86370   5.87626   5.88810
 Alpha virt. eigenvalues --    5.91487   5.93143   5.93833   5.95403   5.96282
 Alpha virt. eigenvalues --    6.02053   6.05150   6.14312   6.16675   6.21059
 Alpha virt. eigenvalues --    6.24871   6.29380   6.31018   6.32762   6.38253
 Alpha virt. eigenvalues --    6.40184   6.40885   6.43089   6.44540   6.45436
 Alpha virt. eigenvalues --    6.65501   6.67425   6.69675   6.71628   6.75547
 Alpha virt. eigenvalues --    6.83836   6.86010   6.90682   6.93361   6.94695
 Alpha virt. eigenvalues --    7.04288   7.04567   7.08853   7.09966   7.14315
 Alpha virt. eigenvalues --    7.21311   7.22396   7.23619   7.24264   7.25528
 Alpha virt. eigenvalues --    7.26750   7.27405   7.28371   7.29070   7.29686
 Alpha virt. eigenvalues --    7.30805   7.31719   7.32238   7.34146   7.35329
 Alpha virt. eigenvalues --    7.35692   7.36823   7.37028   7.40161   7.40630
 Alpha virt. eigenvalues --    7.41119   7.42856   7.44028   7.46113   7.50702
 Alpha virt. eigenvalues --    7.53691   7.54761   7.55449   7.58267   7.59802
 Alpha virt. eigenvalues --    7.60944   7.62023   7.63231   7.63896   7.66745
 Alpha virt. eigenvalues --    7.67664   7.68076   7.70362   7.70673   7.72386
 Alpha virt. eigenvalues --    7.73585   7.74383   7.76706   7.77224   7.78082
 Alpha virt. eigenvalues --    7.79802   7.81386   7.82089   7.83110   7.84572
 Alpha virt. eigenvalues --    7.85263   7.88101   7.89664   7.91016   7.93221
 Alpha virt. eigenvalues --    7.93674   7.95405   7.97282   7.99587   8.00391
 Alpha virt. eigenvalues --    8.00576   8.03579   8.06666   8.09231   8.10519
 Alpha virt. eigenvalues --    8.12735   8.17323   8.20508   8.21322   8.24043
 Alpha virt. eigenvalues --    8.28392   8.28846   8.32280   8.32594   8.37124
 Alpha virt. eigenvalues --    8.39378   8.41411   8.42146   8.43093   8.45010
 Alpha virt. eigenvalues --    8.47690   8.49522   8.51386   8.53586   8.57311
 Alpha virt. eigenvalues --    8.58825   8.59574   8.60953   8.62471   8.64821
 Alpha virt. eigenvalues --    8.65993   8.66284   8.67424   8.70005   8.71214
 Alpha virt. eigenvalues --    8.84228   8.87382   8.88891   8.90209   8.93078
 Alpha virt. eigenvalues --    8.98883   9.00294   9.01029   9.04593   9.15086
 Alpha virt. eigenvalues --    9.65902   9.67152   9.68255   9.70025   9.76478
 Alpha virt. eigenvalues --    9.78089   9.79313   9.80909   9.85546   9.90550
 Alpha virt. eigenvalues --   10.06186  10.13327  10.14322  10.14590  10.16414
 Alpha virt. eigenvalues --   10.16523  10.17247  10.18201  10.18800  10.19768
 Alpha virt. eigenvalues --   10.50502  10.53328  10.54149  10.56355  10.58009
 Alpha virt. eigenvalues --   10.58845  10.61885  10.65050  10.71184  10.74096
 Alpha virt. eigenvalues --   10.77848  10.80695  10.82108  10.82359  10.84637
 Alpha virt. eigenvalues --   10.94008  10.96251  10.98640  10.99816  11.00878
 Alpha virt. eigenvalues --   11.05189  11.07083  11.07701  11.09246  11.12263
 Alpha virt. eigenvalues --   11.19611  11.24424  11.26778  11.29184  11.32109
 Alpha virt. eigenvalues --   11.34427  11.39465  11.48134  11.50306  11.52908
 Alpha virt. eigenvalues --   11.53950  11.55686  11.56373  11.59397  11.59973
 Alpha virt. eigenvalues --   11.64633  11.65560  11.67863  11.68611  11.69954
 Alpha virt. eigenvalues --   11.70664  11.73128  11.74625  11.75460  11.79636
 Alpha virt. eigenvalues --   11.80373  11.86348  11.90045  11.93997  12.05532
 Alpha virt. eigenvalues --   12.25168  12.28279  12.30410  12.37783  12.42529
 Alpha virt. eigenvalues --   12.57574  12.60415  12.60817  12.63082  12.67608
 Alpha virt. eigenvalues --   13.12575  13.13625  13.16955  13.19733  13.23928
 Alpha virt. eigenvalues --   13.39262  13.42641  13.44836  13.45254  13.50686
 Alpha virt. eigenvalues --   13.52220  13.58744  13.61691  13.66486  13.68785
 Alpha virt. eigenvalues --   13.77412  13.79934  13.82778  13.85093  13.88159
 Alpha virt. eigenvalues --   14.27749  14.32873  14.35790  14.42686  14.51793
 Alpha virt. eigenvalues --   16.23108  16.28110  16.35904  16.40759  16.43081
 Alpha virt. eigenvalues --   16.49543  16.51622  16.52397  16.54389  16.57084
 Alpha virt. eigenvalues --   48.46115  48.47325  48.52463  48.59210  48.66991
 Alpha virt. eigenvalues --  251.56662 251.57989 251.64642 251.72569 251.82115
          Condensed to atoms (all electrons):
               1          2          3          4          5          6
     1  O    8.276389   0.305501   0.243167  -0.035123   0.005170   0.003473
     2  H    0.305501   0.316811  -0.023566   0.080248   0.002759  -0.004345
     3  H    0.243167  -0.023566   0.381510  -0.006635  -0.002785  -0.001099
     4  O   -0.035123   0.080248  -0.006635   8.169309   0.265651   0.283620
     5  H    0.005170   0.002759  -0.002785   0.265651   0.345089  -0.003528
     6  H    0.003473  -0.004345  -0.001099   0.283620  -0.003528   0.323376
     7  O    0.001843  -0.004667  -0.000165  -0.039075   0.082555  -0.006895
     8  H    0.000263   0.000418  -0.000103   0.000177  -0.004196  -0.000488
     9  H    0.001177   0.001760  -0.000591   0.003770  -0.001297   0.000814
    10  O   -0.033922   0.002443   0.005265  -0.001631  -0.003672   0.000304
    11  H    0.005435   0.000217  -0.000851   0.000305   0.000080   0.000222
    12  H    0.015236  -0.007720  -0.001853  -0.003654   0.000568   0.000417
    13  O   -0.030770   0.001546   0.002911  -0.000419   0.000619  -0.000096
    14  H    0.000068  -0.001320   0.000482   0.000010  -0.000057   0.000001
    15  H    0.036546  -0.000136  -0.000252  -0.000898  -0.000897  -0.000106
               7          8          9         10         11         12
     1  O    0.001843   0.000263   0.001177  -0.033922   0.005435   0.015236
     2  H   -0.004667   0.000418   0.001760   0.002443   0.000217  -0.007720
     3  H   -0.000165  -0.000103  -0.000591   0.005265  -0.000851  -0.001853
     4  O   -0.039075   0.000177   0.003770  -0.001631   0.000305  -0.003654
     5  H    0.082555  -0.004196  -0.001297  -0.003672   0.000080   0.000568
     6  H   -0.006895  -0.000488   0.000814   0.000304   0.000222   0.000417
     7  O    8.194493   0.282913   0.252420  -0.031867  -0.002284   0.006047
     8  H    0.282913   0.338974  -0.008042  -0.001937  -0.000555   0.000849
     9  H    0.252420  -0.008042   0.343633   0.076750  -0.005055   0.004364
    10  O   -0.031867  -0.001937   0.076750   8.370448   0.230240   0.155726
    11  H   -0.002284  -0.000555  -0.005055   0.230240   0.351252   0.005874
    12  H    0.006047   0.000849   0.004364   0.155726   0.005874   0.400895
    13  O   -0.000388   0.000070   0.000490  -0.016615   0.019700  -0.000673
    14  H    0.000071  -0.000014  -0.000420   0.001301  -0.002062   0.000800
    15  H    0.000166  -0.000073   0.000146  -0.001814   0.003512  -0.002444
              13         14         15
     1  O   -0.030770   0.000068   0.036546
     2  H    0.001546  -0.001320  -0.000136
     3  H    0.002911   0.000482  -0.000252
     4  O   -0.000419   0.000010  -0.000898
     5  H    0.000619  -0.000057  -0.000897
     6  H   -0.000096   0.000001  -0.000106
     7  O   -0.000388   0.000071   0.000166
     8  H    0.000070  -0.000014  -0.000073
     9  H    0.000490  -0.000420   0.000146
    10  O   -0.016615   0.001301  -0.001814
    11  H    0.019700  -0.002062   0.003512
    12  H   -0.000673   0.000800  -0.002444
    13  O    8.268226   0.281963   0.259693
    14  H    0.281963   0.345203  -0.016725
    15  H    0.259693  -0.016725   0.325685
 Mulliken charges:
               1
     1  O   -0.794452
     2  H    0.330050
     3  H    0.404566
     4  O   -0.715654
     5  H    0.313942
     6  H    0.404331
     7  O   -0.735167
     8  H    0.391743
     9  H    0.330082
    10  O   -0.751019
    11  H    0.393970
    12  H    0.425568
    13  O   -0.786255
    14  H    0.390699
    15  H    0.397596
 Sum of Mulliken charges =  -0.00000
 Mulliken charges with hydrogens summed into heavy atoms:
               1
     1  O   -0.059836
     4  O    0.002619
     7  O   -0.013342
    10  O    0.068519
    13  O    0.002040
 Electronic spatial extent (au):  <R**2>=            963.3912
 Charge=             -0.0000 electrons
 Dipole moment (field-independent basis, Debye):
    X=              0.7125    Y=              1.7094    Z=              1.1744  Tot=              2.1929
 Quadrupole moment (field-independent basis, Debye-Ang):
   XX=            -25.4408   YY=            -32.4198   ZZ=            -32.7000
   XY=              3.9255   XZ=              1.7339   YZ=             -0.2870
 Traceless Quadrupole moment (field-independent basis, Debye-Ang):
   XX=              4.7461   YY=             -2.2329   ZZ=             -2.5132
   XY=              3.9255   XZ=              1.7339   YZ=             -0.2870
 Octapole moment (field-independent basis, Debye-Ang**2):
  XXX=             22.6023  YYY=             12.4915  ZZZ=              3.4871  XYY=              0.8210
  XXY=            -11.2585  XXZ=              8.3900  XZZ=             -6.9303  YZZ=             12.1818
  YYZ=              0.7312  XYZ=             13.7532
 Hexadecapole moment (field-independent basis, Debye-Ang**3):
 XXXX=           -444.5769 YYYY=           -346.8039 ZZZZ=           -109.1078 XXXY=             25.1132
 XXXZ=            -16.9271 YYYX=             27.4479 YYYZ=             15.6582 ZZZX=             17.6773
 ZZZY=             -0.1097 XXYY=           -150.0632 XXZZ=           -127.6222 YYZZ=            -63.4954
 XXYZ=            -17.0798 YYXZ=              5.2668 ZZXY=             -2.0114
 N-N= 2.093844926201D+02 E-N=-1.323052475186D+03  KE= 3.808714014725D+02
 PrsmSu:  requested number of processors reduced to:  20 ShMem   1 Linda.
 No NMR shielding tensors so no spin-rotation constants.
 Leave Link  601 at Sun Apr 18 04:26:47 2021, MaxMem=   104857600 cpu:             298.0 elap:               6.6
 (Enter /s/ls4/users/knvvv/bin/g16sse/l9999.exe)

 Test job not archived.
 1\1\GINC-N153\Stability\RM062X\Gen\H10O5\KNVVV\18-Apr-2021\0\\#P M062X
 /GEN Integral=UltraFineGrid SCF=NoSymm Stable=(RExt, Opt) IOp(1/33=1)\
 \Database calculations.\\0,1\O,0,-1.32243,0.59037,0.90663\H,0,-1.45523
 ,-0.20793,0.33723\H,0,-2.04913,0.57577,1.54073\O,0,-1.39863,-1.63223,-
 0.64977\H,0,-0.44823,-1.89543,-0.67967\H,0,-1.64863,-1.52953,-1.57657\
 O,0,1.30577,-2.00243,-0.72337\H,0,1.80877,-2.69053,-0.27147\H,0,1.5576
 7,-1.16063,-0.27377\O,0,1.60977,0.35717,0.62673\H,0,1.46147,1.16127,0.
 09423\H,0,0.78327,0.32217,1.13713\O,0,0.16347,2.58237,-0.45147\H,0,0.1
 6867,3.44907,-0.02697\H,0,-0.53653,2.08057,0.01033\\Version=ES64L-G16R
 evA.03\State=1-A\HF=-382.2412509\RMSD=7.032e-09\Dipole=-0.6714872,0.14
 44504,0.5220906\Quadrupole=-1.2637758,2.4645326,-1.2007568,-3.1384796,
 -0.4717488,2.2237731\PG=C01 [X(H10O5)]\\@


 ALL SCIENCE IS EITHER PHYSICS, OR STAMP COLLECTING.
   --ERNEST RUTHERFORD, 1871-1937.
 Job cpu time:       1 days  9 hours 57 minutes 14.8 seconds.
 Elapsed time:       0 days  1 hours  7 minutes 54.6 seconds.
 File lengths (MBytes):  RWF=    783 Int=      0 D2E=      0 Chk=     49 Scr=      1
 Normal termination of Gaussian 16 at Sun Apr 18 04:26:47 2021.
