 Entering Gaussian System, Link 0=/s/ls4/users/knvvv/bin/g16sse/g16
 Input=data/database/M062X--def2-QZVPPD--4217_waterC2v_Shields38.gjf
 Output=data/database/M062X--def2-QZVPPD--4217_waterC2v_Shields38.log
 Initial command:
 /s/ls4/users/knvvv/bin/g16sse/l1.exe "/s/ls4/users/knvvv/bin/scratch/Gau-33660.inp" -scrdir="/s/ls4/users/knvvv/bin/scratch/"
 Entering Link 1 = /s/ls4/users/knvvv/bin/g16sse/l1.exe PID=     33661.
  
 Copyright (c) 1988,1990,1992,1993,1995,1998,2003,2009,2016,
            Gaussian, Inc.  All Rights Reserved.
  
 This is part of the Gaussian(R) 16 program.  It is based on
 the Gaussian(R) 09 system (copyright 2009, Gaussian, Inc.),
 the Gaussian(R) 03 system (copyright 2003, Gaussian, Inc.),
 the Gaussian(R) 98 system (copyright 1998, Gaussian, Inc.),
 the Gaussian(R) 94 system (copyright 1995, Gaussian, Inc.),
 the Gaussian 92(TM) system (copyright 1992, Gaussian, Inc.),
 the Gaussian 90(TM) system (copyright 1990, Gaussian, Inc.),
 the Gaussian 88(TM) system (copyright 1988, Gaussian, Inc.),
 the Gaussian 86(TM) system (copyright 1986, Carnegie Mellon
 University), and the Gaussian 82(TM) system (copyright 1983,
 Carnegie Mellon University). Gaussian is a federally registered
 trademark of Gaussian, Inc.
  
 This software contains proprietary and confidential information,
 including trade secrets, belonging to Gaussian, Inc.
  
 This software is provided under written license and may be
 used, copied, transmitted, or stored only in accord with that
 written license.
  
 The following legend is applicable only to US Government
 contracts under FAR:
  
                    RESTRICTED RIGHTS LEGEND
  
 Use, reproduction and disclosure by the US Government is
 subject to restrictions as set forth in subparagraphs (a)
 and (c) of the Commercial Computer Software - Restricted
 Rights clause in FAR 52.227-19.
  
 Gaussian, Inc.
 340 Quinnipiac St., Bldg. 40, Wallingford CT 06492
  
  
 ---------------------------------------------------------------
 Warning -- This program may not be used in any manner that
 competes with the business of Gaussian, Inc. or will provide
 assistance to any competitor of Gaussian, Inc.  The licensee
 of this program is prohibited from giving any competitor of
 Gaussian, Inc. access to this program.  By using this program,
 the user acknowledges that Gaussian, Inc. is engaged in the
 business of creating and licensing software in the field of
 computational chemistry and represents and warrants to the
 licensee that it is not a competitor of Gaussian, Inc. and that
 it will not use this program in any manner prohibited above.
 ---------------------------------------------------------------
  

 Cite this work as:
 Gaussian 16, Revision A.03,
 M. J. Frisch, G. W. Trucks, H. B. Schlegel, G. E. Scuseria, 
 M. A. Robb, J. R. Cheeseman, G. Scalmani, V. Barone, 
 G. A. Petersson, H. Nakatsuji, X. Li, M. Caricato, A. V. Marenich, 
 J. Bloino, B. G. Janesko, R. Gomperts, B. Mennucci, H. P. Hratchian, 
 J. V. Ortiz, A. F. Izmaylov, J. L. Sonnenberg, D. Williams-Young, 
 F. Ding, F. Lipparini, F. Egidi, J. Goings, B. Peng, A. Petrone, 
 T. Henderson, D. Ranasinghe, V. G. Zakrzewski, J. Gao, N. Rega, 
 G. Zheng, W. Liang, M. Hada, M. Ehara, K. Toyota, R. Fukuda, 
 J. Hasegawa, M. Ishida, T. Nakajima, Y. Honda, O. Kitao, H. Nakai, 
 T. Vreven, K. Throssell, J. A. Montgomery, Jr., J. E. Peralta, 
 F. Ogliaro, M. J. Bearpark, J. J. Heyd, E. N. Brothers, K. N. Kudin, 
 V. N. Staroverov, T. A. Keith, R. Kobayashi, J. Normand, 
 K. Raghavachari, A. P. Rendell, J. C. Burant, S. S. Iyengar, 
 J. Tomasi, M. Cossi, J. M. Millam, M. Klene, C. Adamo, R. Cammi, 
 J. W. Ochterski, R. L. Martin, K. Morokuma, O. Farkas, 
 J. B. Foresman, and D. J. Fox, Gaussian, Inc., Wallingford CT, 2016.
 
 ******************************************
 Gaussian 16:  ES64L-G16RevA.03 25-Dec-2016
                18-Apr-2021 
 ******************************************
 %RWF=temp22_22806,70GB
 %nprocshared=48
 Will use up to   48 processors via shared memory.
 Default route: MaxDisk=80GB
 ----------------------------------------------------------------------
 #P M062X/GEN Integral=UltraFineGrid SCF=NoSymm Stable=(RExt, Opt) IOp(
 1/33=1)
 ----------------------------------------------------------------------
 1/33=1,38=1,172=1/1;
 2/12=2,17=6,18=5,40=1/2;
 3/5=7,11=2,25=1,30=1,74=-55,75=-5/1,2,3;
 4/9=2/1;
 5/5=2,38=5/2;
 6/7=2,8=2,9=2,10=2,28=1/1;
 8/6=1,10=90,11=11/1;
 9/8=-3,42=1,46=1/14;
 5/5=2,8=3,17=40,38=5/8(-2);
 6/7=2,8=2,9=2,10=2,28=1/1;
 99/5=1,9=1/99;
 Leave Link    1 at Sun Apr 18 01:24:41 2021, MaxMem=           0 cpu:              10.8 elap:               0.3
 (Enter /s/ls4/users/knvvv/bin/g16sse/l101.exe)
 ONIOM data not found on unit 2.
 ----------------------
 Database calculations.
 ----------------------
 TstMul:  ICh=     0
 TstMul:  Mul=     1
 TstMul:  ICh=     0
 TstMul:  Mul=     1
 Symbolic Z-matrix:
 Charge =  0 Multiplicity = 1
 O                    -1.62664  -0.0398    0.3722 
 H                    -0.7035   -0.09359   0.09304 
 H                    -2.06345  -0.73464  -0.13713 
 
 RdStrC is calling ZToCFu for IStruc=1 NZ=     3.
 PrtBox:  NBox=     1 Levels=  1 BoxLen=    8.00 SMaxX=        2.57
          Shift=            3.899354            1.388274            0.259132
 Box      1 Number                   0 centers from      1 to      3:
 After GenITR:
 ITRead=  0  0  0
 MicOpt= -1 -1 -1
 ITRead=  0  0  0
 MicOpt= -1 -1 -1
 NAtoms=      3 NQM=        3 NQMF=       0 NMMI=      0 NMMIF=      0
                NMic=       0 NMicF=      0.
                    Isotopes and Nuclear Properties:
 (Nuclear quadrupole moments (NQMom) in fm**2, nuclear magnetic moments (NMagM)
  in nuclear magnetons)

  Atom         1           2           3
 IAtWgt=          16           1           1
 AtmWgt=  15.9949146   1.0078250   1.0078250
 NucSpn=           0           1           1
 AtZEff=  -0.0000000  -0.0000000  -0.0000000
 NQMom=    0.0000000   0.0000000   0.0000000
 NMagM=    0.0000000   2.7928460   2.7928460
 AtZNuc=   8.0000000   1.0000000   1.0000000
 No MM parameters found.
 Leave Link  101 at Sun Apr 18 01:24:41 2021, MaxMem=   104857600 cpu:               6.6 elap:               0.2
 (Enter /s/ls4/users/knvvv/bin/g16sse/l202.exe)
                          Input orientation:                          
 ---------------------------------------------------------------------
 Center     Atomic      Atomic             Coordinates (Angstroms)
 Number     Number       Type             X           Y           Z
 ---------------------------------------------------------------------
      1          8           0       -1.626641   -0.039803    0.372201
      2          1           0       -0.703499   -0.093593    0.093036
      3          1           0       -2.063449   -0.734643   -0.137127
 ---------------------------------------------------------------------
                    Distance matrix (angstroms):
                    1          2          3
     1  O    0.000000
     2  H    0.965928   0.000000
     3  H    0.965928   1.520981   0.000000
 Stoichiometry    H2O
 Framework group  C2V[C2(O),SGV(H2)]
 Deg. of freedom     2
 Full point group                 C2V     NOp   4
 Largest Abelian subgroup         C2V     NOp   4
 Largest concise Abelian subgroup C2      NOp   2
                         Standard orientation:                         
 ---------------------------------------------------------------------
 Center     Atomic      Atomic             Coordinates (Angstroms)
 Number     Number       Type             X           Y           Z
 ---------------------------------------------------------------------
      1          8           0       -0.000000   -0.000000    0.119109
      2          1           0       -0.000000   -0.760490   -0.476435
      3          1           0        0.000000    0.760490   -0.476435
 ---------------------------------------------------------------------
 Rotational constants (GHZ):         796.0140232         433.5254538         280.6679632
 Leave Link  202 at Sun Apr 18 01:24:42 2021, MaxMem=   104857600 cpu:              13.0 elap:               0.3
 (Enter /s/ls4/users/knvvv/bin/g16sse/l301.exe)
 General basis read from cards:  (5D, 7F)
 Centers:       2      3
 S 4 1.00
     Exponent=  1.9069169000D+02 Coefficients=  7.0815167000D-04
     Exponent=  2.8605532000D+01 Coefficients=  5.4678827000D-03
     Exponent=  6.5095943000D+00 Coefficients=  2.7966605000D-02
     Exponent=  1.8412455000D+00 Coefficients=  1.0764538000D-01
 S 1 1.00
     Exponent=  5.9853725000D-01 Coefficients=  1.0000000000D+00
 S 1 1.00
     Exponent=  2.1397624000D-01 Coefficients=  1.0000000000D+00
 S 1 1.00
     Exponent=  8.0316286000D-02 Coefficients=  1.0000000000D+00
 P 1 1.00
     Exponent=  2.2920000000D+00 Coefficients=  1.0000000000D+00
 P 1 1.00
     Exponent=  8.3800000000D-01 Coefficients=  1.0000000000D+00
 P 1 1.00
     Exponent=  2.9200000000D-01 Coefficients=  1.0000000000D+00
 P 1 1.00
     Exponent=  8.4063199228D-02 Coefficients=  1.0000000000D+00
 D 1 1.00
     Exponent=  2.0620000000D+00 Coefficients=  1.0000000000D+00
 D 1 1.00
     Exponent=  6.6200000000D-01 Coefficients=  1.0000000000D+00
 F 1 1.00
     Exponent=  1.3970000000D+00 Coefficients=  1.0000000000D+00
 ****
 Centers:       1
 S 8 1.00
     Exponent=  1.1650646908D+05 Coefficients=  4.0383857939D-05
     Exponent=  1.7504349724D+04 Coefficients=  3.1255139004D-04
     Exponent=  3.9934513230D+03 Coefficients=  1.6341473495D-03
     Exponent=  1.1330063186D+03 Coefficients=  6.8283224757D-03
     Exponent=  3.6999569594D+02 Coefficients=  2.4124410221D-02
     Exponent=  1.3362074349D+02 Coefficients=  7.2730206154D-02
     Exponent=  5.2035643649D+01 Coefficients=  1.7934429892D-01
     Exponent=  2.1461939313D+01 Coefficients=  3.3059588895D-01
 S 2 1.00
     Exponent=  8.9835051252D+01 Coefficients=  9.6468652996D-02
     Exponent=  2.6428010844D+01 Coefficients=  9.4117481120D-01
 S 1 1.00
     Exponent=  9.2822824649D+00 Coefficients=  1.0000000000D+00
 S 1 1.00
     Exponent=  4.0947728533D+00 Coefficients=  1.0000000000D+00
 S 1 1.00
     Exponent=  1.3255349078D+00 Coefficients=  1.0000000000D+00
 S 1 1.00
     Exponent=  5.1877230787D-01 Coefficients=  1.0000000000D+00
 S 1 1.00
     Exponent=  1.9772676454D-01 Coefficients=  1.0000000000D+00
 S 1 1.00
     Exponent=  6.9638535104D-02 Coefficients=  1.0000000000D+00
 P 5 1.00
     Exponent=  1.9115255810D+02 Coefficients=  2.5115697705D-03
     Exponent=  4.5233356739D+01 Coefficients=  2.0039240864D-02
     Exponent=  1.4353465922D+01 Coefficients=  9.3609064762D-02
     Exponent=  5.2422371832D+00 Coefficients=  3.0618127124D-01
     Exponent=  2.0792418599D+00 Coefficients=  6.7810501439D-01
 P 1 1.00
     Exponent=  8.4282371424D-01 Coefficients=  1.0000000000D+00
 P 1 1.00
     Exponent=  3.3617694891D-01 Coefficients=  1.0000000000D+00
 P 1 1.00
     Exponent=  1.2863997974D-01 Coefficients=  1.0000000000D+00
 P 1 1.00
     Exponent=  4.3598162776D-02 Coefficients=  1.0000000000D+00
 D 1 1.00
     Exponent=  3.7750000000D+00 Coefficients=  1.0000000000D+00
 D 1 1.00
     Exponent=  1.3000000000D+00 Coefficients=  1.0000000000D+00
 D 1 1.00
     Exponent=  4.4400000000D-01 Coefficients=  1.0000000000D+00
 D 1 1.00
     Exponent=  1.2546378695D-01 Coefficients=  1.0000000000D+00
 F 1 1.00
     Exponent=  2.6660000000D+00 Coefficients=  1.0000000000D+00
 F 1 1.00
     Exponent=  8.5900000000D-01 Coefficients=  1.0000000000D+00
 G 1 1.00
     Exponent=  1.8460000000D+00 Coefficients=  1.0000000000D+00
 ****
 Ernie: Thresh=  0.10000D-02 Tol=  0.10000D-05 Strict=F.
 There are    63 symmetry adapted cartesian basis functions of A1  symmetry.
 There are    21 symmetry adapted cartesian basis functions of A2  symmetry.
 There are    30 symmetry adapted cartesian basis functions of B1  symmetry.
 There are    44 symmetry adapted cartesian basis functions of B2  symmetry.
 There are    50 symmetry adapted basis functions of A1  symmetry.
 There are    19 symmetry adapted basis functions of A2  symmetry.
 There are    26 symmetry adapted basis functions of B1  symmetry.
 There are    37 symmetry adapted basis functions of B2  symmetry.
   132 basis functions,   184 primitive gaussians,   158 cartesian basis functions
     5 alpha electrons        5 beta electrons
       nuclear repulsion energy         9.1134088478 Hartrees.
 IExCor= 4336 DFT=T Ex+Corr=M062X ExCW=0 ScaHFX=  0.540000
 ScaDFX=  1.000000  1.000000  1.000000  1.000000 ScalE2=  1.000000  1.000000
 IRadAn=      5 IRanWt=     -1 IRanGd=            0 ICorTp=0 IEmpDi=  4
 NAtoms=    3 NActive=    3 NUniq=    2 SFac= 2.25D+00 NAtFMM=   60 NAOKFM=F Big=F
 Integral buffers will be    131072 words long.
 Raffenetti 2 integral format.
 Two-electron integral symmetry is turned on.
 Leave Link  301 at Sun Apr 18 01:24:42 2021, MaxMem=   104857600 cpu:               7.3 elap:               0.2
 (Enter /s/ls4/users/knvvv/bin/g16sse/l302.exe)
 NPDir=0 NMtPBC=     1 NCelOv=     1 NCel=       1 NClECP=     1 NCelD=      1
         NCelK=      1 NCelE2=     1 NClLst=     1 CellRange=     0.0.
 One-electron integrals computed using PRISM.
 One-electron integral symmetry used in STVInt
 PrsmSu:  requested number of processors reduced to:   4 ShMem   1 Linda.
 PrsmSu:  requested number of processors reduced to:  21 ShMem   1 Linda.
 NBasis=   132 RedAO= T EigKep=  1.40D-04  NBF=    50    19    26    37
 NBsUse=   132 1.00D-06 EigRej= -1.00D+00 NBFU=    50    19    26    37
 Precomputing XC quadrature grid using
 IXCGrd= 4 IRadAn=           5 IRanWt=          -1 IRanGd=           0 AccXCQ= 0.00D+00.
 Generated NRdTot=       0 NPtTot=           0 NUsed=           0 NTot=          32
 NSgBfM=   158   158   158   158   158 MxSgAt=     3 MxSgA2=     3.
 Leave Link  302 at Sun Apr 18 01:24:45 2021, MaxMem=   104857600 cpu:             163.7 elap:               3.6
 (Enter /s/ls4/users/knvvv/bin/g16sse/l303.exe)
 DipDrv:  MaxL=1.
 Leave Link  303 at Sun Apr 18 01:24:46 2021, MaxMem=   104857600 cpu:              18.9 elap:               0.5
 (Enter /s/ls4/users/knvvv/bin/g16sse/l401.exe)
 SCF N**3 symmetry information disabled.
 ExpMin= 4.36D-02 ExpMax= 1.17D+05 ExpMxC= 1.13D+03 IAcc=3 IRadAn=         5 AccDes= 0.00D+00
 Harris functional with IExCor= 1009 and IRadAn=       5 diagonalized for initial guess.
 HarFok:  IExCor= 1009 AccDes= 0.00D+00 IRadAn=         5 IDoV= 1 UseB2=F ITyADJ=14
 ICtDFT=  3500011 ScaDFX=  1.000000  1.000000  1.000000  1.000000
 FoFCou: FMM=F IPFlag=           0 FMFlag=      100000 FMFlg1=           0
         NFxFlg=           0 DoJE=T BraDBF=F KetDBF=T FulRan=T
         wScrn=  0.000000 ICntrl=       500 IOpCl=  0 I1Cent=   200000004 NGrid=           0
         NMat0=    1 NMatS0=      1 NMatT0=    0 NMatD0=    1 NMtDS0=    0 NMtDT0=    0
 Petite list used in FoFCou.
 CoulSu:  requested number of processors reduced to:  21 ShMem   1 Linda.
 CoulSu:  requested number of processors reduced to:  21 ShMem   1 Linda.
 CoulSu:  requested number of processors reduced to:  21 ShMem   1 Linda.
 CoulSu:  requested number of processors reduced to:  21 ShMem   1 Linda.
 Harris En= -76.4314063591575    
 JPrj=0 DoOrth=F DoCkMO=F.
 Initial guess orbital symmetries:
       Occupied  (A1) (A1) (B2) (A1) (B1)
       Virtual   (A1) (B2) (A1) (B1) (B2) (A1) (A1) (A2) (B1) (B2)
                 (A1) (B2) (B2) (A1) (B1) (A1) (A2) (A1) (B1) (A1)
                 (B2) (B2) (A2) (B1) (A1) (B2) (A1) (B2) (A1) (A1)
                 (B1) (B2) (A2) (A1) (A1) (B1) (B2) (B1) (A1) (B2)
                 (A1) (A2) (B2) (B2) (B1) (A2) (A1) (B2) (A2) (B1)
                 (A1) (A1) (B2) (A1) (B2) (A1) (B1) (A2) (A1) (B1)
                 (B2) (A1) (B1) (A1) (B2) (A2) (A1) (B2) (B1) (A1)
                 (B2) (B1) (A1) (A2) (B2) (A2) (A1) (B2) (B1) (B2)
                 (A1) (A2) (B2) (B1) (A1) (B2) (A1) (B1) (B1) (A2)
                 (A1) (B2) (A2) (A1) (B2) (A1) (A2) (B1) (B2) (A1)
                 (B2) (B1) (A1) (A1) (A2) (B2) (A1) (A2) (B1) (B2)
                 (B1) (A1) (B1) (A1) (A2) (B2) (A1) (B2) (B2) (A1)
                 (B1) (A2) (A1) (A1) (B2) (A1) (A1)
 The electronic state of the initial guess is 1-A1.
 Leave Link  401 at Sun Apr 18 01:24:49 2021, MaxMem=   104857600 cpu:             120.7 elap:               2.8
 (Enter /s/ls4/users/knvvv/bin/g16sse/l502.exe)
 Keep R1 ints in memory in symmetry-blocked form, NReq=92809239.
 FoFCou: FMM=F IPFlag=           0 FMFlag=           0 FMFlg1=           0
         NFxFlg=           0 DoJE=F BraDBF=F KetDBF=F FulRan=T
         wScrn=  0.000000 ICntrl=       600 IOpCl=  0 I1Cent=           0 NGrid=           0
         NMat0=    1 NMatS0=   8778 NMatT0=    0 NMatD0=    1 NMtDS0=    0 NMtDT0=    0
 Petite list used in FoFCou.
 CoulSu:  requested number of processors reduced to:  14 ShMem   1 Linda.
 Closed shell SCF:
 Using DIIS extrapolation, IDIIS=  1040.
 NGot=   104857600 LenX=    95018483 LenY=    94993078
 Requested convergence on RMS density matrix=1.00D-08 within 128 cycles.
 Requested convergence on MAX density matrix=1.00D-06.
 Requested convergence on             energy=1.00D-06.
 No special actions if energy rises.

 Cycle   1  Pass 1  IDiag  1:
 E= -76.3581965616956    
 DIIS: error= 4.37D-02 at cycle   1 NSaved=   1.
 NSaved= 1 IEnMin= 1 EnMin= -76.3581965616956     IErMin= 1 ErrMin= 4.37D-02
 ErrMax= 4.37D-02  0.00D+00 EMaxC= 1.00D-01 BMatC= 1.44D-01 BMatP= 1.44D-01
 IDIUse=3 WtCom= 5.63D-01 WtEn= 4.37D-01
 Coeff-Com:  0.100D+01
 Coeff-En:   0.100D+01
 Coeff:      0.100D+01
 Gap=     0.274 Goal=   None    Shift=    0.000
 GapD=    0.274 DampG=1.000 DampE=0.500 DampFc=0.5000 IDamp=-1.
 Damping current iteration by 5.00D-01
 RMSDP=1.89D-03 MaxDP=6.64D-02              OVMax= 1.75D-01

 Cycle   2  Pass 1  IDiag  1:
 E= -76.3905575315637     Delta-E=       -0.032360969868 Rises=F Damp=T
 DIIS: error= 2.15D-02 at cycle   2 NSaved=   2.
 NSaved= 2 IEnMin= 2 EnMin= -76.3905575315637     IErMin= 2 ErrMin= 2.15D-02
 ErrMax= 2.15D-02  0.00D+00 EMaxC= 1.00D-01 BMatC= 1.36D-02 BMatP= 1.44D-01
 IDIUse=3 WtCom= 7.85D-01 WtEn= 2.15D-01
 Coeff-Com:  0.600D-01 0.940D+00
 Coeff-En:   0.190D+00 0.810D+00
 Coeff:      0.879D-01 0.912D+00
 Gap=     0.411 Goal=   None    Shift=    0.000
 RMSDP=6.30D-04 MaxDP=1.31D-02 DE=-3.24D-02 OVMax= 1.05D-01

 Cycle   3  Pass 1  IDiag  1:
 E= -76.4364906448464     Delta-E=       -0.045933113283 Rises=F Damp=F
 DIIS: error= 2.01D-03 at cycle   3 NSaved=   3.
 NSaved= 3 IEnMin= 3 EnMin= -76.4364906448464     IErMin= 3 ErrMin= 2.01D-03
 ErrMax= 2.01D-03  0.00D+00 EMaxC= 1.00D-01 BMatC= 2.43D-04 BMatP= 1.36D-02
 IDIUse=3 WtCom= 9.80D-01 WtEn= 2.01D-02
 Coeff-Com: -0.342D-01 0.637D-01 0.971D+00
 Coeff-En:   0.000D+00 0.000D+00 0.100D+01
 Coeff:     -0.335D-01 0.624D-01 0.971D+00
 Gap=     0.413 Goal=   None    Shift=    0.000
 RMSDP=7.26D-05 MaxDP=2.97D-03 DE=-4.59D-02 OVMax= 4.23D-03

 Cycle   4  Pass 1  IDiag  1:
 E= -76.4366613294210     Delta-E=       -0.000170684575 Rises=F Damp=F
 DIIS: error= 1.85D-04 at cycle   4 NSaved=   4.
 NSaved= 4 IEnMin= 4 EnMin= -76.4366613294210     IErMin= 4 ErrMin= 1.85D-04
 ErrMax= 1.85D-04  0.00D+00 EMaxC= 1.00D-01 BMatC= 2.78D-06 BMatP= 2.43D-04
 IDIUse=3 WtCom= 9.98D-01 WtEn= 1.85D-03
 Coeff-Com:  0.288D-03-0.114D-02 0.458D-01 0.955D+00
 Coeff-En:   0.000D+00 0.000D+00 0.000D+00 0.100D+01
 Coeff:      0.287D-03-0.114D-02 0.457D-01 0.955D+00
 Gap=     0.413 Goal=   None    Shift=    0.000
 RMSDP=2.36D-05 MaxDP=5.81D-04 DE=-1.71D-04 OVMax= 6.08D-04

 Cycle   5  Pass 1  IDiag  1:
 E= -76.4366630492248     Delta-E=       -0.000001719804 Rises=F Damp=F
 DIIS: error= 5.03D-05 at cycle   5 NSaved=   5.
 NSaved= 5 IEnMin= 5 EnMin= -76.4366630492248     IErMin= 5 ErrMin= 5.03D-05
 ErrMax= 5.03D-05  0.00D+00 EMaxC= 1.00D-01 BMatC= 8.38D-08 BMatP= 2.78D-06
 IDIUse=1 WtCom= 1.00D+00 WtEn= 0.00D+00
 Coeff-Com:  0.146D-02-0.260D-02-0.323D-01 0.420D-01 0.991D+00
 Coeff:      0.146D-02-0.260D-02-0.323D-01 0.420D-01 0.991D+00
 Gap=     0.413 Goal=   None    Shift=    0.000
 RMSDP=4.56D-06 MaxDP=1.17D-04 DE=-1.72D-06 OVMax= 1.85D-04

 Cycle   6  Pass 1  IDiag  1:
 E= -76.4366631665374     Delta-E=       -0.000000117313 Rises=F Damp=F
 DIIS: error= 7.88D-06 at cycle   6 NSaved=   6.
 NSaved= 6 IEnMin= 6 EnMin= -76.4366631665374     IErMin= 6 ErrMin= 7.88D-06
 ErrMax= 7.88D-06  0.00D+00 EMaxC= 1.00D-01 BMatC= 2.97D-09 BMatP= 8.38D-08
 IDIUse=1 WtCom= 1.00D+00 WtEn= 0.00D+00
 Coeff-Com: -0.155D-03 0.219D-03 0.115D-02-0.264D-01-0.114D-01 0.104D+01
 Coeff:     -0.155D-03 0.219D-03 0.115D-02-0.264D-01-0.114D-01 0.104D+01
 Gap=     0.413 Goal=   None    Shift=    0.000
 RMSDP=5.50D-07 MaxDP=2.35D-05 DE=-1.17D-07 OVMax= 3.51D-05

 Cycle   7  Pass 1  IDiag  1:
 E= -76.4366631712928     Delta-E=       -0.000000004755 Rises=F Damp=F
 DIIS: error= 1.47D-06 at cycle   7 NSaved=   7.
 NSaved= 7 IEnMin= 7 EnMin= -76.4366631712928     IErMin= 7 ErrMin= 1.47D-06
 ErrMax= 1.47D-06  0.00D+00 EMaxC= 1.00D-01 BMatC= 8.75D-11 BMatP= 2.97D-09
 IDIUse=1 WtCom= 1.00D+00 WtEn= 0.00D+00
 Coeff-Com: -0.251D-04 0.620D-04 0.422D-03 0.178D-03-0.271D-01-0.863D-01
 Coeff-Com:  0.111D+01
 Coeff:     -0.251D-04 0.620D-04 0.422D-03 0.178D-03-0.271D-01-0.863D-01
 Coeff:      0.111D+01
 Gap=     0.413 Goal=   None    Shift=    0.000
 RMSDP=1.23D-07 MaxDP=4.98D-06 DE=-4.76D-09 OVMax= 9.37D-06

 Cycle   8  Pass 1  IDiag  1:
 E= -76.4366631715050     Delta-E=       -0.000000000212 Rises=F Damp=F
 DIIS: error= 2.24D-07 at cycle   8 NSaved=   8.
 NSaved= 8 IEnMin= 8 EnMin= -76.4366631715050     IErMin= 8 ErrMin= 2.24D-07
 ErrMax= 2.24D-07  0.00D+00 EMaxC= 1.00D-01 BMatC= 1.38D-12 BMatP= 8.75D-11
 IDIUse=1 WtCom= 1.00D+00 WtEn= 0.00D+00
 Coeff-Com:  0.617D-05-0.116D-04-0.476D-04 0.283D-03 0.359D-02 0.891D-03
 Coeff-Com: -0.195D+00 0.119D+01
 Coeff:      0.617D-05-0.116D-04-0.476D-04 0.283D-03 0.359D-02 0.891D-03
 Coeff:     -0.195D+00 0.119D+01
 Gap=     0.413 Goal=   None    Shift=    0.000
 RMSDP=1.38D-08 MaxDP=3.76D-07 DE=-2.12D-10 OVMax= 1.29D-06

 Cycle   9  Pass 1  IDiag  1:
 E= -76.4366631715082     Delta-E=       -0.000000000003 Rises=F Damp=F
 DIIS: error= 3.16D-08 at cycle   9 NSaved=   9.
 NSaved= 9 IEnMin= 9 EnMin= -76.4366631715082     IErMin= 9 ErrMin= 3.16D-08
 ErrMax= 3.16D-08  0.00D+00 EMaxC= 1.00D-01 BMatC= 3.02D-14 BMatP= 1.38D-12
 IDIUse=1 WtCom= 1.00D+00 WtEn= 0.00D+00
 Coeff-Com: -0.221D-06 0.245D-06 0.255D-05 0.376D-04-0.399D-03-0.109D-02
 Coeff-Com:  0.271D-01-0.194D+00 0.117D+01
 Coeff:     -0.221D-06 0.245D-06 0.255D-05 0.376D-04-0.399D-03-0.109D-02
 Coeff:      0.271D-01-0.194D+00 0.117D+01
 Gap=     0.413 Goal=   None    Shift=    0.000
 RMSDP=2.47D-09 MaxDP=8.18D-08 DE=-3.15D-12 OVMax= 1.11D-07

 SCF Done:  E(RM062X) =  -76.4366631715     A.U. after    9 cycles
            NFock=  9  Conv=0.25D-08     -V/T= 2.0035
 KE= 7.616698487268D+01 PE=-1.990593103299D+02 EE= 3.734225343791D+01
 Leave Link  502 at Sun Apr 18 01:25:26 2021, MaxMem=   104857600 cpu:            1743.9 elap:              37.5
 (Enter /s/ls4/users/knvvv/bin/g16sse/l601.exe)
 Copying SCF densities to generalized density rwf, IOpCl= 0 IROHF=0.

 **********************************************************************

            Population analysis using the SCF density.

 **********************************************************************

 Orbital symmetries:
       Occupied  (A1) (A1) (B2) (A1) (B1)
       Virtual   (A1) (B2) (A1) (B1) (B2) (A1) (A2) (A1) (B1) (B2)
                 (A1) (B2) (B2) (A1) (B1) (A1) (A2) (A1) (B1) (B2)
                 (A1) (B2) (A2) (B1) (A1) (B2) (A1) (B2) (A1) (A1)
                 (B2) (B1) (A2) (A1) (A1) (B1) (B2) (B1) (A1) (B2)
                 (A1) (A2) (B2) (B1) (B2) (A2) (A1) (B2) (A2) (A1)
                 (B1) (A1) (B2) (A1) (B2) (A1) (B1) (A1) (A2) (B1)
                 (B2) (A1) (A1) (B1) (B2) (A2) (B2) (A1) (B1) (A1)
                 (B2) (B1) (A1) (A2) (B2) (A2) (A1) (B2) (B1) (B2)
                 (A1) (A2) (B1) (B2) (A1) (B2) (B1) (A1) (B1) (A1)
                 (B2) (A2) (A2) (A1) (B2) (A1) (A2) (B2) (B1) (A1)
                 (B2) (B1) (A1) (A1) (A2) (B2) (A1) (A2) (B2) (B1)
                 (B1) (A1) (B1) (A1) (B2) (A2) (A1) (B2) (B2) (A1)
                 (B1) (A2) (A1) (A1) (B2) (A1) (A1)
 The electronic state is 1-A1.
 Alpha  occ. eigenvalues --  -19.63027  -1.13440  -0.60677  -0.47777  -0.40319
 Alpha virt. eigenvalues --    0.01008   0.04190   0.06373   0.06397   0.13408
 Alpha virt. eigenvalues --    0.14829   0.17189   0.18715   0.19425   0.23247
 Alpha virt. eigenvalues --    0.25519   0.27673   0.35326   0.36755   0.40158
 Alpha virt. eigenvalues --    0.44802   0.46052   0.46114   0.51271   0.52928
 Alpha virt. eigenvalues --    0.54484   0.65100   0.77120   0.81338   0.83405
 Alpha virt. eigenvalues --    0.94801   1.00410   1.05273   1.10846   1.14609
 Alpha virt. eigenvalues --    1.33008   1.38662   1.44138   1.46145   1.50736
 Alpha virt. eigenvalues --    1.60049   1.63047   1.88551   1.94514   2.01276
 Alpha virt. eigenvalues --    2.03643   2.25090   2.26249   2.44029   2.44336
 Alpha virt. eigenvalues --    2.45747   2.55419   2.60648   2.65020   2.68123
 Alpha virt. eigenvalues --    2.69123   2.88798   3.11144   3.22206   3.26633
 Alpha virt. eigenvalues --    3.40403   3.68728   3.88252   3.90583   3.93425
 Alpha virt. eigenvalues --    4.06250   4.16431   4.24502   4.24750   4.39636
 Alpha virt. eigenvalues --    4.55026   4.77605   4.78513   5.28696   5.29429
 Alpha virt. eigenvalues --    5.41085   5.60001   5.81812   5.85069   5.94485
 Alpha virt. eigenvalues --    6.30877   6.39634   6.64430   6.90640   7.01747
 Alpha virt. eigenvalues --    7.09547   7.15133   7.24308   7.24479   7.30469
 Alpha virt. eigenvalues --    7.30759   7.52536   7.53981   7.65237   7.70624
 Alpha virt. eigenvalues --    7.71125   7.71735   7.82583   7.96430   8.16169
 Alpha virt. eigenvalues --    8.34580   8.42720   8.55962   8.59927   8.83006
 Alpha virt. eigenvalues --    8.94340   9.69955   9.70812  10.07722  10.12757
 Alpha virt. eigenvalues --   10.51020  10.55594  10.76936  10.89944  10.97885
 Alpha virt. eigenvalues --   11.14561  11.29762  11.54097  11.55236  11.64397
 Alpha virt. eigenvalues --   11.67842  12.10592  12.63044  13.22044  13.42910
 Alpha virt. eigenvalues --   13.42981  13.81680  14.20342  16.37731  16.41622
 Alpha virt. eigenvalues --   48.31409 251.38424
          Condensed to atoms (all electrons):
               1          2          3
     1  O    8.160692   0.275920   0.275920
     2  H    0.275920   0.385937  -0.018124
     3  H    0.275920  -0.018124   0.385937
 Mulliken charges:
               1
     1  O   -0.712533
     2  H    0.356267
     3  H    0.356267
 Sum of Mulliken charges =  -0.00000
 Mulliken charges with hydrogens summed into heavy atoms:
               1
     1  O   -0.000000
 Electronic spatial extent (au):  <R**2>=             19.9064
 Charge=              0.0000 electrons
 Dipole moment (field-independent basis, Debye):
    X=              0.0000    Y=             -0.0000    Z=             -1.9127  Tot=              1.9127
 Quadrupole moment (field-independent basis, Debye-Ang):
   XX=             -7.7141   YY=             -4.4123   ZZ=             -6.3669
   XY=              0.0000   XZ=              0.0000   YZ=              0.0000
 Traceless Quadrupole moment (field-independent basis, Debye-Ang):
   XX=             -1.5496   YY=              1.7521   ZZ=             -0.2025
   XY=              0.0000   XZ=              0.0000   YZ=              0.0000
 Octapole moment (field-independent basis, Debye-Ang**2):
  XXX=             -0.0000  YYY=             -0.0000  ZZZ=             -1.0315  XYY=              0.0000
  XXY=              0.0000  XXZ=             -0.2176  XZZ=              0.0000  YZZ=              0.0000
  YYZ=             -1.3543  XYZ=             -0.0000
 Hexadecapole moment (field-independent basis, Debye-Ang**3):
 XXXX=             -7.3022 YYYY=             -6.4679 ZZZZ=             -7.7384 XXXY=             -0.0000
 XXXZ=              0.0000 YYYX=             -0.0000 YYYZ=              0.0000 ZZZX=              0.0000
 ZZZY=             -0.0000 XXYY=             -2.6236 XXZZ=             -2.5596 YYZZ=             -2.0255
 XXYZ=              0.0000 YYXZ=              0.0000 ZZXY=             -0.0000
 N-N= 9.113408847771D+00 E-N=-1.990593111136D+02  KE= 7.616698487268D+01
 PrsmSu:  requested number of processors reduced to:  21 ShMem   1 Linda.
 No NMR shielding tensors so no spin-rotation constants.
 Leave Link  601 at Sun Apr 18 01:25:29 2021, MaxMem=   104857600 cpu:             108.7 elap:               2.5
 (Enter /s/ls4/users/knvvv/bin/g16sse/l801.exe)
 DoSCS=F DFT=T ScalE2(SS,OS)=  1.000000  1.000000
 Range of M.O.s used for correlation:     1   132
 NBasis=   132 NAE=     5 NBE=     5 NFC=     0 NFV=     0
 NROrb=    132 NOA=     5 NOB=     5 NVA=   127 NVB=   127

 **** Warning!!: The largest alpha MO coefficient is  0.26575078D+02

 Leave Link  801 at Sun Apr 18 01:25:29 2021, MaxMem=   104857600 cpu:               3.2 elap:               0.1
 (Enter /s/ls4/users/knvvv/bin/g16sse/l914.exe)
 RHF ground state
 Doing stability rather than CIS.
 Two-electron integrals replicated using symmetry.
 MDV=   104857600 DFT=T DoStab=T Mixed=T DoRPA=F DoScal=F NonHer=F
 Making orbital integer symmetry assigments:
 Orbital symmetries:
       Occupied  (A1) (A1) (B2) (A1) (B1)
       Virtual   (A1) (B2) (A1) (B1) (B2) (A1) (A2) (A1) (B1) (B2)
                 (A1) (B2) (B2) (A1) (B1) (A1) (A2) (A1) (B1) (B2)
                 (A1) (B2) (A2) (B1) (A1) (B2) (A1) (B2) (A1) (A1)
                 (B2) (B1) (A2) (A1) (A1) (B1) (B2) (B1) (A1) (B2)
                 (A1) (A2) (B2) (B1) (B2) (A2) (A1) (B2) (A2) (A1)
                 (B1) (A1) (B2) (A1) (B2) (A1) (B1) (A1) (A2) (B1)
                 (B2) (A1) (A1) (B1) (B2) (A2) (B2) (A1) (B1) (A1)
                 (B2) (B1) (A1) (A2) (B2) (A2) (A1) (B2) (B1) (B2)
                 (A1) (A2) (B1) (B2) (A1) (B2) (B1) (A1) (B1) (A1)
                 (B2) (A2) (A2) (A1) (B2) (A1) (A2) (B2) (B1) (A1)
                 (B2) (B1) (A1) (A1) (A2) (B2) (A1) (A2) (B2) (B1)
                 (B1) (A1) (B1) (A1) (B2) (A2) (A1) (B2) (B2) (A1)
                 (B1) (A2) (A1) (A1) (B2) (A1) (A1)
    24 initial guesses have been made.
 Convergence on wavefunction:    0.001000000000000
 Davidson Disk Diagonalization:  ConvIn= 1.00D-03 SkipCon=T Conv= 1.00D-03.
 Max sub-space:  2000 roots to seek:    24 dimension of matrix:         1270
 Iteration     1 Dimension    24 NMult     0 NNew     24
 Estimated number of processors is:   20
 CISAX will form     1 AO SS matrices at one time.
 NMat=     1 NSing=     1 JSym2X= 2.
 FoFJK:  IHMeth= 1 ICntrl=       0 DoSepK=F KAlg= 0 I1Cent=           0 FoldK=F
 IRaf= 990000000 NMat=       1 IRICut=       1 DoRegI=T DoRafI=F ISym2E= 2 IDoP0=0 IntGTp=1.
 FoFCou: FMM=F IPFlag=           0 FMFlag=      100000 FMFlg1=           0
         NFxFlg=           0 DoJE=F BraDBF=F KetDBF=F FulRan=T
         wScrn=  0.000000 ICntrl=         0 IOpCl=  0 I1Cent=           0 NGrid=           0
         NMat0=    1 NMatS0=      1 NMatT0=    0 NMatD0=    1 NMtDS0=    0 NMtDT0=    0
 Integrals replicated using symmetry in FoFCou.
 CoulSu:  requested number of processors reduced to:  20 ShMem   1 Linda.
 NMat=     1 NSing=     1 JSym2X= 2.
 CoulSu:  requested number of processors reduced to:  20 ShMem   1 Linda.
 NMat=     1 NSing=     1 JSym2X= 2.
 CoulSu:  requested number of processors reduced to:  20 ShMem   1 Linda.
 NMat=     1 NSing=     1 JSym2X= 2.
 CoulSu:  requested number of processors reduced to:  20 ShMem   1 Linda.
 NMat=     1 NSing=     1 JSym2X= 2.
 CoulSu:  requested number of processors reduced to:  20 ShMem   1 Linda.
 NMat=     1 NSing=     1 JSym2X= 2.
 CoulSu:  requested number of processors reduced to:  20 ShMem   1 Linda.
 NMat=     1 NSing=     1 JSym2X= 2.
 CoulSu:  requested number of processors reduced to:  20 ShMem   1 Linda.
 NMat=     1 NSing=     1 JSym2X= 2.
 CoulSu:  requested number of processors reduced to:  20 ShMem   1 Linda.
 NMat=     1 NSing=     1 JSym2X= 2.
 CoulSu:  requested number of processors reduced to:  20 ShMem   1 Linda.
 NMat=     1 NSing=     1 JSym2X= 2.
 CoulSu:  requested number of processors reduced to:  20 ShMem   1 Linda.
 NMat=     1 NSing=     1 JSym2X= 2.
 CoulSu:  requested number of processors reduced to:  20 ShMem   1 Linda.
 NMat=     1 NSing=     1 JSym2X= 2.
 CoulSu:  requested number of processors reduced to:  20 ShMem   1 Linda.
 NMat=     1 NSing=     0 JSym2X= 2.
 CoulSu:  requested number of processors reduced to:  20 ShMem   1 Linda.
 NMat=     1 NSing=     0 JSym2X= 2.
 CoulSu:  requested number of processors reduced to:  20 ShMem   1 Linda.
 NMat=     1 NSing=     0 JSym2X= 2.
 CoulSu:  requested number of processors reduced to:  20 ShMem   1 Linda.
 NMat=     1 NSing=     0 JSym2X= 2.
 CoulSu:  requested number of processors reduced to:  20 ShMem   1 Linda.
 NMat=     1 NSing=     0 JSym2X= 2.
 CoulSu:  requested number of processors reduced to:  20 ShMem   1 Linda.
 NMat=     1 NSing=     0 JSym2X= 2.
 CoulSu:  requested number of processors reduced to:  20 ShMem   1 Linda.
 NMat=     1 NSing=     0 JSym2X= 2.
 CoulSu:  requested number of processors reduced to:  20 ShMem   1 Linda.
 NMat=     1 NSing=     0 JSym2X= 2.
 CoulSu:  requested number of processors reduced to:  20 ShMem   1 Linda.
 NMat=     1 NSing=     0 JSym2X= 2.
 CoulSu:  requested number of processors reduced to:  20 ShMem   1 Linda.
 NMat=     1 NSing=     0 JSym2X= 2.
 CoulSu:  requested number of processors reduced to:  20 ShMem   1 Linda.
 NMat=     1 NSing=     0 JSym2X= 2.
 CoulSu:  requested number of processors reduced to:  20 ShMem   1 Linda.
 NMat=     1 NSing=     0 JSym2X= 2.
 CoulSu:  requested number of processors reduced to:  20 ShMem   1 Linda.
 New state      1 was old state      2
 Excitation Energies [eV] at current iteration:
 Root      1 :     7.757223776382256
 Root      2 :     8.093180692981056
 Root      3 :     9.332277048256882
 Root      4 :     9.488776354164571
 Root      5 :    10.014587772314220
 Root      6 :    10.065177342898060
 Root      7 :    10.164567117987370
 Root      8 :    10.182695679594580
 Root      9 :    10.270454183056490
 Root     10 :    11.263600217959460
 Root     11 :    11.467047377086380
 Root     12 :    11.494435104424750
 Root     13 :    11.618834753619980
 Root     14 :    11.654887719040730
 Root     15 :    12.015719785588350
 Root     16 :    12.106268114366850
 Root     17 :    12.197580129395210
 Root     18 :    12.229413237220610
 Root     19 :    12.256734659377870
 Root     20 :    12.989922607032580
 Root     21 :    13.150307560043790
 Root     22 :    13.167739145306780
 Root     23 :    13.177624035173150
 Root     24 :    13.388293407435560
 Iteration     2 Dimension    48 NMult    24 NNew     24
 Estimated number of processors is:   20
 CISAX will form     1 AO SS matrices at one time.
 NMat=     1 NSing=     1 JSym2X= 2.
 CoulSu:  requested number of processors reduced to:  20 ShMem   1 Linda.
 NMat=     1 NSing=     1 JSym2X= 2.
 CoulSu:  requested number of processors reduced to:  20 ShMem   1 Linda.
 NMat=     1 NSing=     1 JSym2X= 2.
 CoulSu:  requested number of processors reduced to:  20 ShMem   1 Linda.
 NMat=     1 NSing=     1 JSym2X= 2.
 CoulSu:  requested number of processors reduced to:  20 ShMem   1 Linda.
 NMat=     1 NSing=     1 JSym2X= 2.
 CoulSu:  requested number of processors reduced to:  20 ShMem   1 Linda.
 NMat=     1 NSing=     1 JSym2X= 2.
 CoulSu:  requested number of processors reduced to:  20 ShMem   1 Linda.
 NMat=     1 NSing=     1 JSym2X= 2.
 CoulSu:  requested number of processors reduced to:  20 ShMem   1 Linda.
 NMat=     1 NSing=     1 JSym2X= 2.
 CoulSu:  requested number of processors reduced to:  20 ShMem   1 Linda.
 NMat=     1 NSing=     1 JSym2X= 2.
 CoulSu:  requested number of processors reduced to:  20 ShMem   1 Linda.
 NMat=     1 NSing=     1 JSym2X= 2.
 CoulSu:  requested number of processors reduced to:  20 ShMem   1 Linda.
 NMat=     1 NSing=     1 JSym2X= 2.
 CoulSu:  requested number of processors reduced to:  20 ShMem   1 Linda.
 NMat=     1 NSing=     1 JSym2X= 2.
 CoulSu:  requested number of processors reduced to:  20 ShMem   1 Linda.
 NMat=     1 NSing=     0 JSym2X= 2.
 CoulSu:  requested number of processors reduced to:  20 ShMem   1 Linda.
 NMat=     1 NSing=     0 JSym2X= 2.
 CoulSu:  requested number of processors reduced to:  20 ShMem   1 Linda.
 NMat=     1 NSing=     0 JSym2X= 2.
 CoulSu:  requested number of processors reduced to:  20 ShMem   1 Linda.
 NMat=     1 NSing=     0 JSym2X= 2.
 CoulSu:  requested number of processors reduced to:  20 ShMem   1 Linda.
 NMat=     1 NSing=     0 JSym2X= 2.
 CoulSu:  requested number of processors reduced to:  20 ShMem   1 Linda.
 NMat=     1 NSing=     0 JSym2X= 2.
 CoulSu:  requested number of processors reduced to:  20 ShMem   1 Linda.
 NMat=     1 NSing=     0 JSym2X= 2.
 CoulSu:  requested number of processors reduced to:  20 ShMem   1 Linda.
 NMat=     1 NSing=     0 JSym2X= 2.
 CoulSu:  requested number of processors reduced to:  20 ShMem   1 Linda.
 NMat=     1 NSing=     0 JSym2X= 2.
 CoulSu:  requested number of processors reduced to:  20 ShMem   1 Linda.
 NMat=     1 NSing=     0 JSym2X= 2.
 CoulSu:  requested number of processors reduced to:  20 ShMem   1 Linda.
 NMat=     1 NSing=     0 JSym2X= 2.
 CoulSu:  requested number of processors reduced to:  20 ShMem   1 Linda.
 NMat=     1 NSing=     0 JSym2X= 2.
 CoulSu:  requested number of processors reduced to:  20 ShMem   1 Linda.
 Root      1 not converged, maximum delta is    0.146410249484929
 Excitation Energies [eV] at current iteration:
 Root      1 :     7.165853198675066   Change is   -0.591370577707190
 Root      2 :     7.908387499981131   Change is   -0.184793192999925
 Root      3 :     8.889819793784648   Change is   -0.442457254472235
 Root      4 :     9.204473379532661   Change is   -0.810114392781561
 Root      5 :     9.232035934643076   Change is   -0.256740419521496
 Root      6 :     9.805837825982776   Change is   -0.358729292004592
 Root      7 :     9.912146024626816   Change is   -0.153031318271248
 Root      8 :     9.949551187825271   Change is   -0.320902995231216
 Root      9 :    10.099158129738940   Change is   -0.083537549855637
 Root     10 :    10.707509559082230   Change is   -0.556090658877229
 Root     11 :    10.920400168192370   Change is   -0.546647208894009
 Root     12 :    11.019653994677780   Change is   -0.474781109746966
 Root     13 :    11.328457713472310   Change is   -0.290377040147670
 Root     14 :    11.426887590111790   Change is   -0.228000128928942
 Root     15 :    11.777019375597590   Change is   -0.238700409990761
 Root     16 :    11.799444980086240   Change is   -0.306823134280616
 Root     17 :    11.997240621065800   Change is   -0.200339508329406
 Root     18 :    12.086886257721280   Change is   -0.169848401656583
 Root     19 :    12.113291297410240   Change is   -0.116121939810367
 Root     20 :    12.453305081024840   Change is   -0.697002479018951
 Root     21 :    12.498172935073230   Change is   -0.491749671959347
 Root     22 :    12.923331749790910   Change is   -0.254292285382238
 Root     23 :    12.944293420889060   Change is   -0.223445724417725
 Root     24 :    13.120816886498300   Change is   -0.267476520937265
 Iteration     3 Dimension    54 NMult    48 NNew      6
 Estimated number of processors is:   20
 CISAX will form     1 AO SS matrices at one time.
 NMat=     1 NSing=     1 JSym2X= 2.
 CoulSu:  requested number of processors reduced to:  20 ShMem   1 Linda.
 NMat=     1 NSing=     1 JSym2X= 2.
 CoulSu:  requested number of processors reduced to:  20 ShMem   1 Linda.
 NMat=     1 NSing=     1 JSym2X= 2.
 CoulSu:  requested number of processors reduced to:  20 ShMem   1 Linda.
 NMat=     1 NSing=     0 JSym2X= 2.
 CoulSu:  requested number of processors reduced to:  20 ShMem   1 Linda.
 NMat=     1 NSing=     0 JSym2X= 2.
 CoulSu:  requested number of processors reduced to:  20 ShMem   1 Linda.
 NMat=     1 NSing=     0 JSym2X= 2.
 CoulSu:  requested number of processors reduced to:  20 ShMem   1 Linda.
 Root      1 not converged, maximum delta is    0.011770717416595
 Excitation Energies [eV] at current iteration:
 Root      1 :     7.152898368014953   Change is   -0.012954830660113
 Root      2 :     7.897339236425418   Change is   -0.011048263555713
 Root      3 :     8.871688067737734   Change is   -0.018131726046913
 Root      4 :     9.098833446268157   Change is   -0.105639933264505
 Root      5 :     9.226891473975865   Change is   -0.005144460667211
 Root      6 :     9.934383112835818   Change is   -0.015168074989453
 Iteration     4 Dimension    60 NMult    54 NNew      6
 Estimated number of processors is:   20
 CISAX will form     1 AO SS matrices at one time.
 NMat=     1 NSing=     1 JSym2X= 2.
 CoulSu:  requested number of processors reduced to:  20 ShMem   1 Linda.
 NMat=     1 NSing=     1 JSym2X= 2.
 CoulSu:  requested number of processors reduced to:  20 ShMem   1 Linda.
 NMat=     1 NSing=     1 JSym2X= 2.
 CoulSu:  requested number of processors reduced to:  20 ShMem   1 Linda.
 NMat=     1 NSing=     0 JSym2X= 2.
 CoulSu:  requested number of processors reduced to:  20 ShMem   1 Linda.
 NMat=     1 NSing=     0 JSym2X= 2.
 CoulSu:  requested number of processors reduced to:  20 ShMem   1 Linda.
 NMat=     1 NSing=     0 JSym2X= 2.
 CoulSu:  requested number of processors reduced to:  20 ShMem   1 Linda.
 Root      1 has converged.
 Excitation Energies [eV] at current iteration:
 Root      1 :     7.152772769826856   Change is   -0.000125598188097
 Root      2 :     7.897251411585515   Change is   -0.000087824839903
 Root      3 :     8.871339927393501   Change is   -0.000348140344233
 Root      4 :     9.079998185182633   Change is   -0.018835261085523
 Root      5 :     9.226812775897907   Change is   -0.000078698077957
 Root      6 :     9.932722561168314   Change is   -0.001660551667504
 Convergence achieved on expansion vectors.
 ***********************************************************************
 Stability analysis using <AA,BB:AA,BB> singles matrix:
 ***********************************************************************
 1PDM for each excited state written to RWF  633
 Ground to excited state transition densities written to RWF  633

 Eigenvectors of the stability matrix:
 
 Eigenvector   1:      Triplet-B1   Eigenvalue= 0.2628596  <S**2>=2.000
       5 ->  6         0.65327
       5 ->  8         0.10673
       5 -> 13        -0.15327
       5 -> 16        -0.15514
 The wavefunction is stable under the perturbations considered.
 Leave Link  914 at Sun Apr 18 01:27:31 2021, MaxMem=   104857600 cpu:            4858.9 elap:             122.0
 (Enter /s/ls4/users/knvvv/bin/g16sse/l508.exe)
 The wavefunction is already stable.
 Leave Link  508 at Sun Apr 18 01:27:31 2021, MaxMem=   104857600 cpu:               2.2 elap:               0.1
 (Enter /s/ls4/users/knvvv/bin/g16sse/l601.exe)
 Copying SCF densities to generalized density rwf, IOpCl= 0 IROHF=0.

 **********************************************************************

            Population analysis using the SCF density.

 **********************************************************************

 Orbital symmetries:
       Occupied  (A1) (A1) (B2) (A1) (B1)
       Virtual   (A1) (B2) (A1) (B1) (B2) (A1) (A2) (A1) (B1) (B2)
                 (A1) (B2) (B2) (A1) (B1) (A1) (A2) (A1) (B1) (B2)
                 (A1) (B2) (A2) (B1) (A1) (B2) (A1) (B2) (A1) (A1)
                 (B2) (B1) (A2) (A1) (A1) (B1) (B2) (B1) (A1) (B2)
                 (A1) (A2) (B2) (B1) (B2) (A2) (A1) (B2) (A2) (A1)
                 (B1) (A1) (B2) (A1) (B2) (A1) (B1) (A1) (A2) (B1)
                 (B2) (A1) (A1) (B1) (B2) (A2) (B2) (A1) (B1) (A1)
                 (B2) (B1) (A1) (A2) (B2) (A2) (A1) (B2) (B1) (B2)
                 (A1) (A2) (B1) (B2) (A1) (B2) (B1) (A1) (B1) (A1)
                 (B2) (A2) (A2) (A1) (B2) (A1) (A2) (B2) (B1) (A1)
                 (B2) (B1) (A1) (A1) (A2) (B2) (A1) (A2) (B2) (B1)
                 (B1) (A1) (B1) (A1) (B2) (A2) (A1) (B2) (B2) (A1)
                 (B1) (A2) (A1) (A1) (B2) (A1) (A1)
 The electronic state is 1-A1.
 Alpha  occ. eigenvalues --  -19.63027  -1.13440  -0.60677  -0.47777  -0.40319
 Alpha virt. eigenvalues --    0.01008   0.04190   0.06373   0.06397   0.13408
 Alpha virt. eigenvalues --    0.14829   0.17189   0.18715   0.19425   0.23247
 Alpha virt. eigenvalues --    0.25519   0.27673   0.35326   0.36755   0.40158
 Alpha virt. eigenvalues --    0.44802   0.46052   0.46114   0.51271   0.52928
 Alpha virt. eigenvalues --    0.54484   0.65100   0.77120   0.81338   0.83405
 Alpha virt. eigenvalues --    0.94801   1.00410   1.05273   1.10846   1.14609
 Alpha virt. eigenvalues --    1.33008   1.38662   1.44138   1.46145   1.50736
 Alpha virt. eigenvalues --    1.60049   1.63047   1.88551   1.94514   2.01276
 Alpha virt. eigenvalues --    2.03643   2.25090   2.26249   2.44029   2.44336
 Alpha virt. eigenvalues --    2.45747   2.55419   2.60648   2.65020   2.68123
 Alpha virt. eigenvalues --    2.69123   2.88798   3.11144   3.22206   3.26633
 Alpha virt. eigenvalues --    3.40403   3.68728   3.88252   3.90583   3.93425
 Alpha virt. eigenvalues --    4.06250   4.16431   4.24502   4.24750   4.39636
 Alpha virt. eigenvalues --    4.55026   4.77605   4.78513   5.28696   5.29429
 Alpha virt. eigenvalues --    5.41085   5.60001   5.81812   5.85069   5.94485
 Alpha virt. eigenvalues --    6.30877   6.39634   6.64430   6.90640   7.01747
 Alpha virt. eigenvalues --    7.09547   7.15133   7.24308   7.24479   7.30469
 Alpha virt. eigenvalues --    7.30759   7.52536   7.53981   7.65237   7.70624
 Alpha virt. eigenvalues --    7.71125   7.71735   7.82583   7.96430   8.16169
 Alpha virt. eigenvalues --    8.34580   8.42720   8.55962   8.59927   8.83006
 Alpha virt. eigenvalues --    8.94340   9.69955   9.70812  10.07722  10.12757
 Alpha virt. eigenvalues --   10.51020  10.55594  10.76936  10.89944  10.97885
 Alpha virt. eigenvalues --   11.14561  11.29762  11.54097  11.55236  11.64397
 Alpha virt. eigenvalues --   11.67842  12.10592  12.63044  13.22044  13.42910
 Alpha virt. eigenvalues --   13.42981  13.81680  14.20342  16.37731  16.41622
 Alpha virt. eigenvalues --   48.31409 251.38424
          Condensed to atoms (all electrons):
               1          2          3
     1  O    8.160692   0.275920   0.275920
     2  H    0.275920   0.385937  -0.018124
     3  H    0.275920  -0.018124   0.385937
 Mulliken charges:
               1
     1  O   -0.712533
     2  H    0.356267
     3  H    0.356267
 Sum of Mulliken charges =  -0.00000
 Mulliken charges with hydrogens summed into heavy atoms:
               1
     1  O   -0.000000
 Electronic spatial extent (au):  <R**2>=             19.9064
 Charge=              0.0000 electrons
 Dipole moment (field-independent basis, Debye):
    X=              0.0000    Y=             -0.0000    Z=             -1.9127  Tot=              1.9127
 Quadrupole moment (field-independent basis, Debye-Ang):
   XX=             -7.7141   YY=             -4.4123   ZZ=             -6.3669
   XY=              0.0000   XZ=              0.0000   YZ=              0.0000
 Traceless Quadrupole moment (field-independent basis, Debye-Ang):
   XX=             -1.5496   YY=              1.7521   ZZ=             -0.2025
   XY=              0.0000   XZ=              0.0000   YZ=              0.0000
 Octapole moment (field-independent basis, Debye-Ang**2):
  XXX=             -0.0000  YYY=             -0.0000  ZZZ=             -1.0315  XYY=              0.0000
  XXY=              0.0000  XXZ=             -0.2176  XZZ=              0.0000  YZZ=              0.0000
  YYZ=             -1.3543  XYZ=             -0.0000
 Hexadecapole moment (field-independent basis, Debye-Ang**3):
 XXXX=             -7.3022 YYYY=             -6.4679 ZZZZ=             -7.7384 XXXY=             -0.0000
 XXXZ=              0.0000 YYYX=             -0.0000 YYYZ=              0.0000 ZZZX=              0.0000
 ZZZY=             -0.0000 XXYY=             -2.6236 XXZZ=             -2.5596 YYZZ=             -2.0255
 XXYZ=              0.0000 YYXZ=              0.0000 ZZXY=             -0.0000
 N-N= 9.113408847771D+00 E-N=-1.990593111136D+02  KE= 7.616698487268D+01
 PrsmSu:  requested number of processors reduced to:  21 ShMem   1 Linda.
 No NMR shielding tensors so no spin-rotation constants.
 Leave Link  601 at Sun Apr 18 01:27:33 2021, MaxMem=   104857600 cpu:              76.5 elap:               1.8
 (Enter /s/ls4/users/knvvv/bin/g16sse/l9999.exe)

 Test job not archived.
 1\1\GINC-N304\Stability\RM062X\Gen\H2O1\KNVVV\18-Apr-2021\0\\#P M062X/
 GEN Integral=UltraFineGrid SCF=NoSymm Stable=(RExt, Opt) IOp(1/33=1)\\
 Database calculations.\\0,1\O,0,-1.6266414522,-0.0398034443,0.37220060
 18\H,0,-0.7034993341,-0.0935933795,0.0930363022\H,0,-2.0634492136,-0.7
 346431762,-0.137126904\\Version=ES64L-G16RevA.03\State=1-A1\HF=-76.436
 6632\RMSD=2.473e-09\Dipole=0.3072626,-0.4729784,-0.4981631\Quadrupole=
 0.9773577,-0.3203848,-0.6569729,0.6680341,0.0614141,0.5732983\PG=C02V 
 [C2(O1),SGV(H2)]\\@


 WE LEARN WISDOM FROM FAILURE MUCH MORE THAN FROM SUCCESS.
 WE DISCOVER WHAT WILL DO BY FINDING OUT WHAT WILL NOT DO...
 AND HE WHO NEVER MADE A MISTAKE NEVER MADE A DISCOVERY
 Job cpu time:       0 days  1 hours 59 minutes  3.3 seconds.
 Elapsed time:       0 days  0 hours  2 minutes 51.8 seconds.
 File lengths (MBytes):  RWF=     56 Int=      0 D2E=      0 Chk=      3 Scr=      1
 Normal termination of Gaussian 16 at Sun Apr 18 01:27:33 2021.
