 Entering Gaussian System, Link 0=/s/ls4/users/knvvv/bin/g16sse/g16
 Input=data/database/M062X--def2-QZVP--BH76_HCl.gjf
 Output=data/database/M062X--def2-QZVP--BH76_HCl.log
 Initial command:
 /s/ls4/users/knvvv/bin/g16sse/l1.exe "/s/ls4/users/knvvv/bin/scratch/Gau-47868.inp" -scrdir="/s/ls4/users/knvvv/bin/scratch/"
 Entering Link 1 = /s/ls4/users/knvvv/bin/g16sse/l1.exe PID=     47869.
  
 Copyright (c) 1988,1990,1992,1993,1995,1998,2003,2009,2016,
            Gaussian, Inc.  All Rights Reserved.
  
 This is part of the Gaussian(R) 16 program.  It is based on
 the Gaussian(R) 09 system (copyright 2009, Gaussian, Inc.),
 the Gaussian(R) 03 system (copyright 2003, Gaussian, Inc.),
 the Gaussian(R) 98 system (copyright 1998, Gaussian, Inc.),
 the Gaussian(R) 94 system (copyright 1995, Gaussian, Inc.),
 the Gaussian 92(TM) system (copyright 1992, Gaussian, Inc.),
 the Gaussian 90(TM) system (copyright 1990, Gaussian, Inc.),
 the Gaussian 88(TM) system (copyright 1988, Gaussian, Inc.),
 the Gaussian 86(TM) system (copyright 1986, Carnegie Mellon
 University), and the Gaussian 82(TM) system (copyright 1983,
 Carnegie Mellon University). Gaussian is a federally registered
 trademark of Gaussian, Inc.
  
 This software contains proprietary and confidential information,
 including trade secrets, belonging to Gaussian, Inc.
  
 This software is provided under written license and may be
 used, copied, transmitted, or stored only in accord with that
 written license.
  
 The following legend is applicable only to US Government
 contracts under FAR:
  
                    RESTRICTED RIGHTS LEGEND
  
 Use, reproduction and disclosure by the US Government is
 subject to restrictions as set forth in subparagraphs (a)
 and (c) of the Commercial Computer Software - Restricted
 Rights clause in FAR 52.227-19.
  
 Gaussian, Inc.
 340 Quinnipiac St., Bldg. 40, Wallingford CT 06492
  
  
 ---------------------------------------------------------------
 Warning -- This program may not be used in any manner that
 competes with the business of Gaussian, Inc. or will provide
 assistance to any competitor of Gaussian, Inc.  The licensee
 of this program is prohibited from giving any competitor of
 Gaussian, Inc. access to this program.  By using this program,
 the user acknowledges that Gaussian, Inc. is engaged in the
 business of creating and licensing software in the field of
 computational chemistry and represents and warrants to the
 licensee that it is not a competitor of Gaussian, Inc. and that
 it will not use this program in any manner prohibited above.
 ---------------------------------------------------------------
  

 Cite this work as:
 Gaussian 16, Revision A.03,
 M. J. Frisch, G. W. Trucks, H. B. Schlegel, G. E. Scuseria, 
 M. A. Robb, J. R. Cheeseman, G. Scalmani, V. Barone, 
 G. A. Petersson, H. Nakatsuji, X. Li, M. Caricato, A. V. Marenich, 
 J. Bloino, B. G. Janesko, R. Gomperts, B. Mennucci, H. P. Hratchian, 
 J. V. Ortiz, A. F. Izmaylov, J. L. Sonnenberg, D. Williams-Young, 
 F. Ding, F. Lipparini, F. Egidi, J. Goings, B. Peng, A. Petrone, 
 T. Henderson, D. Ranasinghe, V. G. Zakrzewski, J. Gao, N. Rega, 
 G. Zheng, W. Liang, M. Hada, M. Ehara, K. Toyota, R. Fukuda, 
 J. Hasegawa, M. Ishida, T. Nakajima, Y. Honda, O. Kitao, H. Nakai, 
 T. Vreven, K. Throssell, J. A. Montgomery, Jr., J. E. Peralta, 
 F. Ogliaro, M. J. Bearpark, J. J. Heyd, E. N. Brothers, K. N. Kudin, 
 V. N. Staroverov, T. A. Keith, R. Kobayashi, J. Normand, 
 K. Raghavachari, A. P. Rendell, J. C. Burant, S. S. Iyengar, 
 J. Tomasi, M. Cossi, J. M. Millam, M. Klene, C. Adamo, R. Cammi, 
 J. W. Ochterski, R. L. Martin, K. Morokuma, O. Farkas, 
 J. B. Foresman, and D. J. Fox, Gaussian, Inc., Wallingford CT, 2016.
 
 ******************************************
 Gaussian 16:  ES64L-G16RevA.03 25-Dec-2016
                16-Apr-2021 
 ******************************************
 %RWF=temp4_15042,70GB
 %nprocshared=48
 Will use up to   48 processors via shared memory.
 Default route: MaxDisk=80GB
 ----------------------------------------------------------------------
 #P M062X/Def2QZVP Integral=UltraFineGrid SCF=NoSymm Stable=(RExt, Opt)
  IOp(1/33=1)
 ----------------------------------------------------------------------
 1/33=1,38=1,172=1/1;
 2/12=2,17=6,18=5,40=1/2;
 3/5=45,7=101,11=2,25=1,30=1,74=-55,75=-5/1,2,3;
 4/9=2/1;
 5/5=2,38=5/2;
 6/7=2,8=2,9=2,10=2,28=1/1;
 8/6=1,10=90,11=11/1;
 9/8=-3,42=1,46=1/14;
 5/5=2,8=3,17=40,38=5/8(-2);
 6/7=2,8=2,9=2,10=2,28=1/1;
 99/5=1,9=1/99;
 Leave Link    1 at Fri Apr 16 23:01:06 2021, MaxMem=           0 cpu:              11.1 elap:               0.3
 (Enter /s/ls4/users/knvvv/bin/g16sse/l101.exe)
 ONIOM data not found on unit 2.
 ----------------------
 Database calculations.
 ----------------------
 TstMul:  ICh=     0
 TstMul:  Mul=     1
 TstMul:  ICh=     0
 TstMul:  Mul=     1
 Symbolic Z-matrix:
 Charge =  0 Multiplicity = 1
 CL                    0.        0.        0.0708 
 H                     0.        0.       -1.20365 
 
 RdStrC is calling ZToCFu for IStruc=1 NZ=     2.
 PrtBox:  NBox=     1 Levels=  1 BoxLen=    8.00 SMaxX=        2.41
          Shift=            0.000000            0.000000            2.274560
 Box      1 Number                   0 centers from      1 to      2:
 After GenITR:
 ITRead=  0  0
 MicOpt= -1 -1
 ITRead=  0  0
 MicOpt= -1 -1
 NAtoms=      2 NQM=        2 NQMF=       0 NMMI=      0 NMMIF=      0
                NMic=       0 NMicF=      0.
                    Isotopes and Nuclear Properties:
 (Nuclear quadrupole moments (NQMom) in fm**2, nuclear magnetic moments (NMagM)
  in nuclear magnetons)

  Atom         1           2
 IAtWgt=          35           1
 AtmWgt=  34.9688527   1.0078250
 NucSpn=           3           1
 AtZEff=  -0.0000000  -0.0000000
 NQMom=   -8.1650000   0.0000000
 NMagM=    0.8218740   2.7928460
 AtZNuc=  17.0000000   1.0000000
 No MM parameters found.
 Leave Link  101 at Fri Apr 16 23:01:06 2021, MaxMem=   104857600 cpu:               8.2 elap:               0.2
 (Enter /s/ls4/users/knvvv/bin/g16sse/l202.exe)
                          Input orientation:                          
 ---------------------------------------------------------------------
 Center     Atomic      Atomic             Coordinates (Angstroms)
 Number     Number       Type             X           Y           Z
 ---------------------------------------------------------------------
      1         17           0        0.000000    0.000000    0.070803
      2          1           0        0.000000    0.000000   -1.203645
 ---------------------------------------------------------------------
 Stoichiometry    ClH
 Framework group  C*V[C*(HCl)]
 Deg. of freedom     1
 Full point group                 C*V     NOp   4
 Largest Abelian subgroup         C2V     NOp   4
 Largest concise Abelian subgroup C1      NOp   1
                         Standard orientation:                         
 ---------------------------------------------------------------------
 Center     Atomic      Atomic             Coordinates (Angstroms)
 Number     Number       Type             X           Y           Z
 ---------------------------------------------------------------------
      1         17           0        0.000000    0.000000    0.070803
      2          1           0        0.000000    0.000000   -1.203646
 ---------------------------------------------------------------------
 Rotational constants (GHZ):           0.0000000         317.6342391         317.6342391
 Leave Link  202 at Fri Apr 16 23:01:06 2021, MaxMem=   104857600 cpu:               6.2 elap:               0.2
 (Enter /s/ls4/users/knvvv/bin/g16sse/l301.exe)
 Standard basis: def2QZVP (5D, 7F)
 Ernie: Thresh=  0.10000D-02 Tol=  0.10000D-05 Strict=F.
 There are    55 symmetry adapted cartesian basis functions of A1  symmetry.
 There are    12 symmetry adapted cartesian basis functions of A2  symmetry.
 There are    27 symmetry adapted cartesian basis functions of B1  symmetry.
 There are    27 symmetry adapted cartesian basis functions of B2  symmetry.
 There are    43 symmetry adapted basis functions of A1  symmetry.
 There are    11 symmetry adapted basis functions of A2  symmetry.
 There are    23 symmetry adapted basis functions of B1  symmetry.
 There are    23 symmetry adapted basis functions of B2  symmetry.
   100 basis functions,   159 primitive gaussians,   121 cartesian basis functions
     9 alpha electrons        9 beta electrons
       nuclear repulsion energy         7.0587507242 Hartrees.
 IExCor= 4336 DFT=T Ex+Corr=M062X ExCW=0 ScaHFX=  0.540000
 ScaDFX=  1.000000  1.000000  1.000000  1.000000 ScalE2=  1.000000  1.000000
 IRadAn=      5 IRanWt=     -1 IRanGd=            0 ICorTp=0 IEmpDi=  4
 NAtoms=    2 NActive=    2 NUniq=    2 SFac= 1.00D+00 NAtFMM=   60 NAOKFM=F Big=F
 Integral buffers will be    131072 words long.
 Raffenetti 2 integral format.
 Two-electron integral symmetry is turned on.
 Leave Link  301 at Fri Apr 16 23:01:06 2021, MaxMem=   104857600 cpu:               6.2 elap:               0.2
 (Enter /s/ls4/users/knvvv/bin/g16sse/l302.exe)
 NPDir=0 NMtPBC=     1 NCelOv=     1 NCel=       1 NClECP=     1 NCelD=      1
         NCelK=      1 NCelE2=     1 NClLst=     1 CellRange=     0.0.
 One-electron integrals computed using PRISM.
 One-electron integral symmetry used in STVInt
 PrsmSu:  requested number of processors reduced to:   4 ShMem   1 Linda.
 PrsmSu:  requested number of processors reduced to:  21 ShMem   1 Linda.
   4 Symmetry operations used in ECPInt.
 ECPInt:  NShTT=     528 NPrTT=    1568 LenC2=     529 LenP2D=    1527.
 LDataN:  DoStor=T MaxTD1= 8 Len=  415
 Number of processors reduced to  43 by ecpmxn.
 NBasis=   100 RedAO= T EigKep=  5.61D-04  NBF=    43    11    23    23
 NBsUse=   100 1.00D-06 EigRej= -1.00D+00 NBFU=    43    11    23    23
 Precomputing XC quadrature grid using
 IXCGrd= 4 IRadAn=           5 IRanWt=          -1 IRanGd=           0 AccXCQ= 0.00D+00.
 Generated NRdTot=       0 NPtTot=           0 NUsed=           0 NTot=          32
 NSgBfM=   121   121   121   121   121 MxSgAt=     2 MxSgA2=     2.
 Leave Link  302 at Fri Apr 16 23:01:06 2021, MaxMem=   104857600 cpu:              13.5 elap:               0.4
 (Enter /s/ls4/users/knvvv/bin/g16sse/l303.exe)
 DipDrv:  MaxL=1.
 Leave Link  303 at Fri Apr 16 23:01:07 2021, MaxMem=   104857600 cpu:              16.5 elap:               0.4
 (Enter /s/ls4/users/knvvv/bin/g16sse/l401.exe)
 SCF N**3 symmetry information disabled.
 ExpMin= 8.03D-02 ExpMax= 1.47D+06 ExpMxC= 1.67D+03 IAcc=3 IRadAn=         5 AccDes= 0.00D+00
 Harris functional with IExCor= 1009 and IRadAn=       5 diagonalized for initial guess.
 HarFok:  IExCor= 1009 AccDes= 0.00D+00 IRadAn=         5 IDoV= 1 UseB2=F ITyADJ=14
 ICtDFT=  3500011 ScaDFX=  1.000000  1.000000  1.000000  1.000000
 FoFCou: FMM=F IPFlag=           0 FMFlag=      100000 FMFlg1=           0
         NFxFlg=           0 DoJE=T BraDBF=F KetDBF=T FulRan=T
         wScrn=  0.000000 ICntrl=       500 IOpCl=  0 I1Cent=   200000004 NGrid=           0
         NMat0=    1 NMatS0=      1 NMatT0=    0 NMatD0=    1 NMtDS0=    0 NMtDT0=    0
 Petite list used in FoFCou.
 CoulSu:  requested number of processors reduced to:  21 ShMem   1 Linda.
 CoulSu:  requested number of processors reduced to:  21 ShMem   1 Linda.
 CoulSu:  requested number of processors reduced to:  21 ShMem   1 Linda.
 CoulSu:  requested number of processors reduced to:  21 ShMem   1 Linda.
 Harris En= -460.571901564363    
 JPrj=0 DoOrth=F DoCkMO=F.
 Initial guess orbital symmetries:
       Occupied  (SG) (SG) (SG) (PI) (PI) (SG) (SG) (PI) (PI)
       Virtual   (SG) (SG) (SG) (PI) (PI) (PI) (PI) (DLTA) (DLTA)
                 (SG) (SG) (PI) (PI) (SG) (SG) (PI) (PI) (SG) (PI)
                 (PI) (DLTA) (DLTA) (SG) (DLTA) (DLTA) (PHI) (PHI)
                 (PI) (PI) (SG) (DLTA) (DLTA) (PI) (PI) (SG) (SG)
                 (PI) (PI) (SG) (DLTA) (DLTA) (PI) (PI) (SG) (PHI)
                 (PHI) (?A) (?A) (DLTA) (DLTA) (SG) (PI) (PI) (PHI)
                 (PHI) (DLTA) (DLTA) (PI) (PI) (SG) (PI) (PI) (SG)
                 (PHI) (PHI) (DLTA) (DLTA) (SG) (PI) (PI) (SG)
                 (DLTA) (DLTA) (PI) (PI) (SG) (PI) (PI) (SG) (SG)
                 (DLTA) (DLTA) (PI) (PI) (SG) (SG) (PI) (PI) (SG)
                 (SG) (SG)
 The electronic state of the initial guess is 1-SG.
 Leave Link  401 at Fri Apr 16 23:01:09 2021, MaxMem=   104857600 cpu:              73.0 elap:               1.7
 (Enter /s/ls4/users/knvvv/bin/g16sse/l502.exe)
 Keep R1 ints in memory in symmetry-blocked form, NReq=67003151.
 FoFCou: FMM=F IPFlag=           0 FMFlag=           0 FMFlg1=           0
         NFxFlg=           0 DoJE=F BraDBF=F KetDBF=F FulRan=T
         wScrn=  0.000000 ICntrl=       600 IOpCl=  0 I1Cent=           0 NGrid=           0
         NMat0=    1 NMatS0=   5050 NMatT0=    0 NMatD0=    1 NMtDS0=    0 NMtDT0=    0
 Petite list used in FoFCou.
 CoulSu:  requested number of processors reduced to:  20 ShMem   1 Linda.
 Closed shell SCF:
 Using DIIS extrapolation, IDIIS=  1040.
 NGot=   104857600 LenX=   101536932 LenY=   101521850
 Requested convergence on RMS density matrix=1.00D-08 within 128 cycles.
 Requested convergence on MAX density matrix=1.00D-06.
 Requested convergence on             energy=1.00D-06.
 No special actions if energy rises.
 Integral accuracy reduced to 1.0D-05 until final iterations.

 Cycle   1  Pass 0  IDiag  1:
 E= -460.807658652905    
 DIIS: error= 3.62D-02 at cycle   1 NSaved=   1.
 NSaved= 1 IEnMin= 1 EnMin= -460.807658652905     IErMin= 1 ErrMin= 3.62D-02
 ErrMax= 3.62D-02  0.00D+00 EMaxC= 1.00D-01 BMatC= 5.97D-02 BMatP= 5.97D-02
 IDIUse=3 WtCom= 6.38D-01 WtEn= 3.62D-01
 Coeff-Com:  0.100D+01
 Coeff-En:   0.100D+01
 Coeff:      0.100D+01
 Gap=     0.434 Goal=   None    Shift=    0.000
 GapD=    0.434 DampG=2.000 DampE=0.500 DampFc=1.0000 IDamp=-1.
 RMSDP=1.47D-03 MaxDP=6.48D-02              OVMax= 1.45D-02

 Cycle   2  Pass 0  IDiag  1:
 E= -460.814425008714     Delta-E=       -0.006766355809 Rises=F Damp=F
 DIIS: error= 7.04D-03 at cycle   2 NSaved=   2.
 NSaved= 2 IEnMin= 2 EnMin= -460.814425008714     IErMin= 2 ErrMin= 7.04D-03
 ErrMax= 7.04D-03  0.00D+00 EMaxC= 1.00D-01 BMatC= 2.98D-03 BMatP= 5.97D-02
 IDIUse=3 WtCom= 9.30D-01 WtEn= 7.04D-02
 Coeff-Com:  0.125D+00 0.875D+00
 Coeff-En:   0.000D+00 0.100D+01
 Coeff:      0.116D+00 0.884D+00
 Gap=     0.422 Goal=   None    Shift=    0.000
 RMSDP=2.27D-04 MaxDP=5.64D-03 DE=-6.77D-03 OVMax= 9.50D-03

 Cycle   3  Pass 0  IDiag  1:
 E= -460.814799649869     Delta-E=       -0.000374641155 Rises=F Damp=F
 DIIS: error= 1.74D-03 at cycle   3 NSaved=   3.
 NSaved= 3 IEnMin= 3 EnMin= -460.814799649869     IErMin= 3 ErrMin= 1.74D-03
 ErrMax= 1.74D-03  0.00D+00 EMaxC= 1.00D-01 BMatC= 1.83D-04 BMatP= 2.98D-03
 IDIUse=3 WtCom= 9.83D-01 WtEn= 1.74D-02
 Coeff-Com:  0.162D-02 0.189D+00 0.809D+00
 Coeff-En:   0.000D+00 0.000D+00 0.100D+01
 Coeff:      0.159D-02 0.186D+00 0.813D+00
 Gap=     0.428 Goal=   None    Shift=    0.000
 RMSDP=1.12D-04 MaxDP=2.37D-03 DE=-3.75D-04 OVMax= 4.64D-03

 Cycle   4  Pass 0  IDiag  1:
 E= -460.814883623043     Delta-E=       -0.000083973175 Rises=F Damp=F
 DIIS: error= 4.08D-04 at cycle   4 NSaved=   4.
 NSaved= 4 IEnMin= 4 EnMin= -460.814883623043     IErMin= 4 ErrMin= 4.08D-04
 ErrMax= 4.08D-04  0.00D+00 EMaxC= 1.00D-01 BMatC= 1.45D-05 BMatP= 1.83D-04
 IDIUse=3 WtCom= 9.96D-01 WtEn= 4.08D-03
 Coeff-Com: -0.121D-02 0.337D-01 0.298D+00 0.670D+00
 Coeff-En:   0.000D+00 0.000D+00 0.000D+00 0.100D+01
 Coeff:     -0.120D-02 0.336D-01 0.297D+00 0.671D+00
 Gap=     0.426 Goal=   None    Shift=    0.000
 RMSDP=2.50D-05 MaxDP=5.83D-04 DE=-8.40D-05 OVMax= 1.49D-03

 Cycle   5  Pass 0  IDiag  1:
 E= -460.814895765763     Delta-E=       -0.000012142720 Rises=F Damp=F
 DIIS: error= 2.73D-05 at cycle   5 NSaved=   5.
 NSaved= 5 IEnMin= 5 EnMin= -460.814895765763     IErMin= 5 ErrMin= 2.73D-05
 ErrMax= 2.73D-05  0.00D+00 EMaxC= 1.00D-01 BMatC= 4.45D-08 BMatP= 1.45D-05
 IDIUse=1 WtCom= 1.00D+00 WtEn= 0.00D+00
 Coeff-Com: -0.970D-04-0.157D-02-0.725D-04 0.309D-01 0.971D+00
 Coeff:     -0.970D-04-0.157D-02-0.725D-04 0.309D-01 0.971D+00
 Gap=     0.426 Goal=   None    Shift=    0.000
 RMSDP=2.64D-06 MaxDP=6.27D-05 DE=-1.21D-05 OVMax= 8.97D-05

 Initial convergence to 1.0D-05 achieved.  Increase integral accuracy.
 Cycle   6  Pass 1  IDiag  1:
 E= -460.814973780939     Delta-E=       -0.000078015176 Rises=F Damp=F
 DIIS: error= 2.24D-04 at cycle   1 NSaved=   1.
 NSaved= 1 IEnMin= 1 EnMin= -460.814973780939     IErMin= 1 ErrMin= 2.24D-04
 ErrMax= 2.24D-04  0.00D+00 EMaxC= 1.00D-01 BMatC= 1.69D-06 BMatP= 1.69D-06
 IDIUse=3 WtCom= 9.98D-01 WtEn= 2.24D-03
 Coeff-Com:  0.100D+01
 Coeff-En:   0.100D+01
 Coeff:      0.100D+01
 Gap=     0.426 Goal=   None    Shift=    0.000
 RMSDP=2.64D-06 MaxDP=6.27D-05 DE=-7.80D-05 OVMax= 1.18D-04

 Cycle   7  Pass 1  IDiag  1:
 E= -460.814974057201     Delta-E=       -0.000000276262 Rises=F Damp=F
 DIIS: error= 2.22D-05 at cycle   2 NSaved=   2.
 NSaved= 2 IEnMin= 2 EnMin= -460.814974057201     IErMin= 2 ErrMin= 2.22D-05
 ErrMax= 2.22D-05  0.00D+00 EMaxC= 1.00D-01 BMatC= 3.26D-08 BMatP= 1.69D-06
 IDIUse=1 WtCom= 1.00D+00 WtEn= 0.00D+00
 Coeff-Com:  0.333D-01 0.967D+00
 Coeff:      0.333D-01 0.967D+00
 Gap=     0.426 Goal=   None    Shift=    0.000
 RMSDP=1.34D-06 MaxDP=3.02D-05 DE=-2.76D-07 OVMax= 5.33D-05

 Cycle   8  Pass 1  IDiag  1:
 E= -460.814974066480     Delta-E=       -0.000000009279 Rises=F Damp=F
 DIIS: error= 1.20D-05 at cycle   3 NSaved=   3.
 NSaved= 3 IEnMin= 3 EnMin= -460.814974066480     IErMin= 3 ErrMin= 1.20D-05
 ErrMax= 1.20D-05  0.00D+00 EMaxC= 1.00D-01 BMatC= 8.49D-09 BMatP= 3.26D-08
 IDIUse=1 WtCom= 1.00D+00 WtEn= 0.00D+00
 Coeff-Com: -0.274D-02 0.332D+00 0.670D+00
 Coeff:     -0.274D-02 0.332D+00 0.670D+00
 Gap=     0.426 Goal=   None    Shift=    0.000
 RMSDP=5.66D-07 MaxDP=1.43D-05 DE=-9.28D-09 OVMax= 1.99D-05

 Cycle   9  Pass 1  IDiag  1:
 E= -460.814974070722     Delta-E=       -0.000000004242 Rises=F Damp=F
 DIIS: error= 6.11D-07 at cycle   4 NSaved=   4.
 NSaved= 4 IEnMin= 4 EnMin= -460.814974070722     IErMin= 4 ErrMin= 6.11D-07
 ErrMax= 6.11D-07  0.00D+00 EMaxC= 1.00D-01 BMatC= 3.20D-11 BMatP= 8.49D-09
 IDIUse=1 WtCom= 1.00D+00 WtEn= 0.00D+00
 Coeff-Com: -0.558D-03 0.652D-02 0.578D-01 0.936D+00
 Coeff:     -0.558D-03 0.652D-02 0.578D-01 0.936D+00
 Gap=     0.426 Goal=   None    Shift=    0.000
 RMSDP=5.99D-08 MaxDP=1.44D-06 DE=-4.24D-09 OVMax= 2.25D-06

 Cycle  10  Pass 1  IDiag  1:
 E= -460.814974070746     Delta-E=       -0.000000000024 Rises=F Damp=F
 DIIS: error= 2.61D-07 at cycle   5 NSaved=   5.
 NSaved= 5 IEnMin= 5 EnMin= -460.814974070746     IErMin= 5 ErrMin= 2.61D-07
 ErrMax= 2.61D-07  0.00D+00 EMaxC= 1.00D-01 BMatC= 4.99D-12 BMatP= 3.20D-11
 IDIUse=1 WtCom= 1.00D+00 WtEn= 0.00D+00
 Coeff-Com: -0.111D-03-0.126D-01-0.133D-01 0.323D+00 0.703D+00
 Coeff:     -0.111D-03-0.126D-01-0.133D-01 0.323D+00 0.703D+00
 Gap=     0.426 Goal=   None    Shift=    0.000
 RMSDP=1.56D-08 MaxDP=3.47D-07 DE=-2.36D-11 OVMax= 8.58D-07

 Cycle  11  Pass 1  IDiag  1:
 E= -460.814974070750     Delta-E=       -0.000000000004 Rises=F Damp=F
 DIIS: error= 4.22D-08 at cycle   6 NSaved=   6.
 NSaved= 6 IEnMin= 6 EnMin= -460.814974070750     IErMin= 6 ErrMin= 4.22D-08
 ErrMax= 4.22D-08  0.00D+00 EMaxC= 1.00D-01 BMatC= 1.12D-13 BMatP= 4.99D-12
 IDIUse=1 WtCom= 1.00D+00 WtEn= 0.00D+00
 Coeff-Com: -0.520D-05-0.184D-02-0.534D-02 0.172D-01 0.137D+00 0.853D+00
 Coeff:     -0.520D-05-0.184D-02-0.534D-02 0.172D-01 0.137D+00 0.853D+00
 Gap=     0.426 Goal=   None    Shift=    0.000
 RMSDP=2.36D-09 MaxDP=4.93D-08 DE=-3.64D-12 OVMax= 9.77D-08

 SCF Done:  E(RM062X) =  -460.814974071     A.U. after   11 cycles
            NFock= 11  Conv=0.24D-08     -V/T= 2.0014
 KE= 4.601811472957D+02 PE=-1.110285081446D+03 EE= 1.822302093556D+02
 Leave Link  502 at Fri Apr 16 23:01:12 2021, MaxMem=   104857600 cpu:             118.8 elap:               3.0
 (Enter /s/ls4/users/knvvv/bin/g16sse/l601.exe)
 Copying SCF densities to generalized density rwf, IOpCl= 0 IROHF=0.

 **********************************************************************

            Population analysis using the SCF density.

 **********************************************************************

 Orbital symmetries:
       Occupied  (SG) (SG) (SG) (PI) (PI) (SG) (SG) (PI) (PI)
       Virtual   (SG) (SG) (SG) (PI) (PI) (PI) (PI) (DLTA) (DLTA)
                 (SG) (SG) (PI) (PI) (SG) (SG) (PI) (PI) (SG) (PI)
                 (PI) (DLTA) (DLTA) (DLTA) (DLTA) (SG) (PHI) (PHI)
                 (PI) (PI) (SG) (DLTA) (DLTA) (PI) (PI) (SG) (SG)
                 (PI) (PI) (SG) (DLTA) (DLTA) (PI) (PI) (SG) (PHI)
                 (PHI) (?A) (?A) (DLTA) (DLTA) (SG) (PI) (PI) (PHI)
                 (PHI) (DLTA) (DLTA) (PI) (PI) (SG) (PI) (PI) (SG)
                 (PHI) (PHI) (DLTA) (DLTA) (SG) (PI) (PI) (SG)
                 (DLTA) (DLTA) (PI) (PI) (PI) (PI) (SG) (SG) (SG)
                 (DLTA) (DLTA) (PI) (PI) (SG) (SG) (PI) (PI) (SG)
                 (SG) (SG)
 The electronic state is 1-SG.
 Alpha  occ. eigenvalues -- -102.65873  -9.81473  -7.53949  -7.53440  -7.53440
 Alpha  occ. eigenvalues --   -0.94228  -0.53798  -0.39976  -0.39976
 Alpha virt. eigenvalues --    0.02664   0.14620   0.21570   0.21955   0.21955
 Alpha virt. eigenvalues --    0.31515   0.31515   0.37044   0.37044   0.39385
 Alpha virt. eigenvalues --    0.55238   0.70420   0.70420   0.88436   1.04635
 Alpha virt. eigenvalues --    1.10357   1.10357   1.12153   1.17190   1.17190
 Alpha virt. eigenvalues --    1.19912   1.19914   1.30377   1.30377   1.31275
 Alpha virt. eigenvalues --    1.34968   1.34968   1.55645   1.55645   1.76323
 Alpha virt. eigenvalues --    2.11741   2.11741   2.22743   2.22743   2.38201
 Alpha virt. eigenvalues --    2.60797   2.73403   2.73403   2.86807   3.21377
 Alpha virt. eigenvalues --    3.21383   3.28686   3.28686   3.41436   3.53203
 Alpha virt. eigenvalues --    3.53203   3.56698   3.56699   3.69214   3.69222
 Alpha virt. eigenvalues --    3.77968   3.87529   3.87529   3.88659   3.88659
 Alpha virt. eigenvalues --    3.93915   3.93918   3.95215   3.95215   4.32316
 Alpha virt. eigenvalues --    4.54235   4.54235   4.72625   5.67115   5.67115
 Alpha virt. eigenvalues --    6.32078   6.32078   6.56371   6.85144   6.85144
 Alpha virt. eigenvalues --    6.95371   7.67245   7.67245   7.99931   7.99931
 Alpha virt. eigenvalues --    8.28609   8.28609   8.40330   8.58694   9.91499
 Alpha virt. eigenvalues --   10.65504  10.65508  10.74141  10.74141  11.60474
 Alpha virt. eigenvalues --   28.68446  42.03867  42.03867  42.21009  98.45019
 Alpha virt. eigenvalues --  524.36088
          Condensed to atoms (all electrons):
               1          2
     1  Cl  16.832135   0.346688
     2  H    0.346688   0.474488
 Mulliken charges:
               1
     1  Cl  -0.178824
     2  H    0.178824
 Sum of Mulliken charges =   0.00000
 Mulliken charges with hydrogens summed into heavy atoms:
               1
     1  Cl   0.000000
 Electronic spatial extent (au):  <R**2>=             34.0469
 Charge=              0.0000 electrons
 Dipole moment (field-independent basis, Debye):
    X=              0.0000    Y=              0.0000    Z=             -1.1403  Tot=              1.1403
 Quadrupole moment (field-independent basis, Debye-Ang):
   XX=            -13.9886   YY=            -13.9886   ZZ=            -10.4490
   XY=             -0.0000   XZ=              0.0000   YZ=              0.0000
 Traceless Quadrupole moment (field-independent basis, Debye-Ang):
   XX=             -1.1798   YY=             -1.1798   ZZ=              2.3597
   XY=             -0.0000   XZ=              0.0000   YZ=              0.0000
 Octapole moment (field-independent basis, Debye-Ang**2):
  XXX=              0.0000  YYY=             -0.0000  ZZZ=             -2.5708  XYY=              0.0000
  XXY=              0.0000  XXZ=             -0.0820  XZZ=              0.0000  YZZ=              0.0000
  YYZ=             -0.0820  XYZ=             -0.0000
 Hexadecapole moment (field-independent basis, Debye-Ang**3):
 XXXX=            -16.3841 YYYY=            -16.3841 ZZZZ=            -13.9349 XXXY=             -0.0000
 XXXZ=              0.0000 YYYX=             -0.0000 YYYZ=             -0.0000 ZZZX=              0.0000
 ZZZY=              0.0000 XXYY=             -5.4614 XXZZ=             -5.8245 YYZZ=             -5.8245
 XXYZ=              0.0000 YYXZ=              0.0000 ZZXY=             -0.0000
 N-N= 7.058750724189D+00 E-N=-1.110285083721D+03  KE= 4.601811472957D+02
 PrsmSu:  requested number of processors reduced to:  21 ShMem   1 Linda.
 No NMR shielding tensors so no spin-rotation constants.
 Leave Link  601 at Fri Apr 16 23:01:13 2021, MaxMem=   104857600 cpu:              49.1 elap:               1.2
 (Enter /s/ls4/users/knvvv/bin/g16sse/l801.exe)
 DoSCS=F DFT=T ScalE2(SS,OS)=  1.000000  1.000000
 Range of M.O.s used for correlation:     1   100
 NBasis=   100 NAE=     9 NBE=     9 NFC=     0 NFV=     0
 NROrb=    100 NOA=     9 NOB=     9 NVA=    91 NVB=    91

 **** Warning!!: The largest alpha MO coefficient is  0.11701404D+02

 Leave Link  801 at Fri Apr 16 23:01:13 2021, MaxMem=   104857600 cpu:               3.1 elap:               0.1
 (Enter /s/ls4/users/knvvv/bin/g16sse/l914.exe)
 RHF ground state
 Doing stability rather than CIS.
 Two-electron integrals replicated using symmetry.
 MDV=   104857600 DFT=T DoStab=T Mixed=T DoRPA=F DoScal=F NonHer=F
 Making orbital integer symmetry assigments:
 Orbital symmetries:
       Occupied  (SG) (SG) (SG) (PI) (PI) (SG) (SG) (PI) (PI)
       Virtual   (SG) (SG) (SG) (PI) (PI) (PI) (PI) (DLTA) (DLTA)
                 (SG) (SG) (PI) (PI) (SG) (SG) (PI) (PI) (SG) (PI)
                 (PI) (DLTA) (DLTA) (DLTA) (DLTA) (SG) (PHI) (PHI)
                 (PI) (PI) (SG) (DLTA) (DLTA) (PI) (PI) (SG) (SG)
                 (PI) (PI) (SG) (DLTA) (DLTA) (PI) (PI) (SG) (PHI)
                 (PHI) (?A) (?A) (DLTA) (DLTA) (SG) (PI) (PI) (PHI)
                 (PHI) (DLTA) (DLTA) (PI) (PI) (SG) (PI) (PI) (SG)
                 (PHI) (PHI) (DLTA) (DLTA) (SG) (PI) (PI) (SG)
                 (DLTA) (DLTA) (PI) (PI) (PI) (PI) (SG) (SG) (SG)
                 (DLTA) (DLTA) (PI) (PI) (SG) (SG) (PI) (PI) (SG)
                 (SG) (SG)
    24 initial guesses have been made.
 Convergence on wavefunction:    0.001000000000000
 Davidson Disk Diagonalization:  ConvIn= 1.00D-03 SkipCon=T Conv= 1.00D-03.
 Max sub-space:  2000 roots to seek:    24 dimension of matrix:         1638
 Iteration     1 Dimension    24 NMult     0 NNew     24
 Estimated number of processors is:   20
 CISAX will form     1 AO SS matrices at one time.
 NMat=     1 NSing=     1 JSym2X= 2.
 FoFJK:  IHMeth= 1 ICntrl=       0 DoSepK=F KAlg= 0 I1Cent=           0 FoldK=F
 IRaf= 990000000 NMat=       1 IRICut=       1 DoRegI=T DoRafI=F ISym2E= 2 IDoP0=0 IntGTp=1.
 FoFCou: FMM=F IPFlag=           0 FMFlag=      100000 FMFlg1=           0
         NFxFlg=           0 DoJE=F BraDBF=F KetDBF=F FulRan=T
         wScrn=  0.000000 ICntrl=         0 IOpCl=  0 I1Cent=           0 NGrid=           0
         NMat0=    1 NMatS0=      1 NMatT0=    0 NMatD0=    1 NMtDS0=    0 NMtDT0=    0
 Integrals replicated using symmetry in FoFCou.
 CoulSu:  requested number of processors reduced to:  21 ShMem   1 Linda.
 NMat=     1 NSing=     1 JSym2X= 2.
 CoulSu:  requested number of processors reduced to:  21 ShMem   1 Linda.
 NMat=     1 NSing=     1 JSym2X= 2.
 CoulSu:  requested number of processors reduced to:  21 ShMem   1 Linda.
 NMat=     1 NSing=     1 JSym2X= 2.
 CoulSu:  requested number of processors reduced to:  21 ShMem   1 Linda.
 NMat=     1 NSing=     1 JSym2X= 2.
 CoulSu:  requested number of processors reduced to:  21 ShMem   1 Linda.
 NMat=     1 NSing=     1 JSym2X= 2.
 CoulSu:  requested number of processors reduced to:  21 ShMem   1 Linda.
 NMat=     1 NSing=     1 JSym2X= 2.
 CoulSu:  requested number of processors reduced to:  21 ShMem   1 Linda.
 NMat=     1 NSing=     1 JSym2X= 2.
 CoulSu:  requested number of processors reduced to:  21 ShMem   1 Linda.
 NMat=     1 NSing=     1 JSym2X= 2.
 CoulSu:  requested number of processors reduced to:  21 ShMem   1 Linda.
 NMat=     1 NSing=     1 JSym2X= 2.
 CoulSu:  requested number of processors reduced to:  21 ShMem   1 Linda.
 NMat=     1 NSing=     1 JSym2X= 2.
 CoulSu:  requested number of processors reduced to:  21 ShMem   1 Linda.
 NMat=     1 NSing=     1 JSym2X= 2.
 CoulSu:  requested number of processors reduced to:  21 ShMem   1 Linda.
 NMat=     1 NSing=     0 JSym2X= 2.
 CoulSu:  requested number of processors reduced to:  21 ShMem   1 Linda.
 NMat=     1 NSing=     0 JSym2X= 2.
 CoulSu:  requested number of processors reduced to:  21 ShMem   1 Linda.
 NMat=     1 NSing=     0 JSym2X= 2.
 CoulSu:  requested number of processors reduced to:  21 ShMem   1 Linda.
 NMat=     1 NSing=     0 JSym2X= 2.
 CoulSu:  requested number of processors reduced to:  21 ShMem   1 Linda.
 NMat=     1 NSing=     0 JSym2X= 2.
 CoulSu:  requested number of processors reduced to:  21 ShMem   1 Linda.
 NMat=     1 NSing=     0 JSym2X= 2.
 CoulSu:  requested number of processors reduced to:  21 ShMem   1 Linda.
 NMat=     1 NSing=     0 JSym2X= 2.
 CoulSu:  requested number of processors reduced to:  21 ShMem   1 Linda.
 NMat=     1 NSing=     0 JSym2X= 2.
 CoulSu:  requested number of processors reduced to:  21 ShMem   1 Linda.
 NMat=     1 NSing=     0 JSym2X= 2.
 CoulSu:  requested number of processors reduced to:  21 ShMem   1 Linda.
 NMat=     1 NSing=     0 JSym2X= 2.
 CoulSu:  requested number of processors reduced to:  21 ShMem   1 Linda.
 NMat=     1 NSing=     0 JSym2X= 2.
 CoulSu:  requested number of processors reduced to:  21 ShMem   1 Linda.
 NMat=     1 NSing=     0 JSym2X= 2.
 CoulSu:  requested number of processors reduced to:  21 ShMem   1 Linda.
 New state      1 was old state      2
 Excitation Energies [eV] at current iteration:
 Root      1 :     7.260993845586263
 Root      2 :     7.260993845587248
 Root      3 :     8.353689265385873
 Root      4 :     8.353689265386484
 Root      5 :    10.210845258825900
 Root      6 :    10.862492862459780
 Root      7 :    10.862492862461530
 Root      8 :    11.789248377923040
 Root      9 :    11.789248377923530
 Root     10 :    12.887256307592190
 Root     11 :    12.950140194456390
 Root     12 :    12.951198433729820
 Root     13 :    13.044984931958370
 Root     14 :    13.045994197575760
 Root     15 :    13.086373087699090
 Root     16 :    13.086373087699190
 Root     17 :    13.121662619273330
 Root     18 :    13.121662619274340
 Root     19 :    13.402517423034550
 Root     20 :    13.402517423038540
 Root     21 :    13.538985081386280
 Root     22 :    14.441060673057590
 Root     23 :    17.894034735624930
 Root     24 :    19.971713651595630
 Iteration     2 Dimension    48 NMult    24 NNew     24
 Estimated number of processors is:   20
 CISAX will form     1 AO SS matrices at one time.
 NMat=     1 NSing=     1 JSym2X= 2.
 CoulSu:  requested number of processors reduced to:  21 ShMem   1 Linda.
 NMat=     1 NSing=     1 JSym2X= 2.
 CoulSu:  requested number of processors reduced to:  21 ShMem   1 Linda.
 NMat=     1 NSing=     1 JSym2X= 2.
 CoulSu:  requested number of processors reduced to:  21 ShMem   1 Linda.
 NMat=     1 NSing=     1 JSym2X= 2.
 CoulSu:  requested number of processors reduced to:  21 ShMem   1 Linda.
 NMat=     1 NSing=     1 JSym2X= 2.
 CoulSu:  requested number of processors reduced to:  21 ShMem   1 Linda.
 NMat=     1 NSing=     1 JSym2X= 2.
 CoulSu:  requested number of processors reduced to:  21 ShMem   1 Linda.
 NMat=     1 NSing=     1 JSym2X= 2.
 CoulSu:  requested number of processors reduced to:  21 ShMem   1 Linda.
 NMat=     1 NSing=     1 JSym2X= 2.
 CoulSu:  requested number of processors reduced to:  21 ShMem   1 Linda.
 NMat=     1 NSing=     1 JSym2X= 2.
 CoulSu:  requested number of processors reduced to:  21 ShMem   1 Linda.
 NMat=     1 NSing=     1 JSym2X= 2.
 CoulSu:  requested number of processors reduced to:  21 ShMem   1 Linda.
 NMat=     1 NSing=     1 JSym2X= 2.
 CoulSu:  requested number of processors reduced to:  21 ShMem   1 Linda.
 NMat=     1 NSing=     1 JSym2X= 2.
 CoulSu:  requested number of processors reduced to:  21 ShMem   1 Linda.
 NMat=     1 NSing=     0 JSym2X= 2.
 CoulSu:  requested number of processors reduced to:  21 ShMem   1 Linda.
 NMat=     1 NSing=     0 JSym2X= 2.
 CoulSu:  requested number of processors reduced to:  21 ShMem   1 Linda.
 NMat=     1 NSing=     0 JSym2X= 2.
 CoulSu:  requested number of processors reduced to:  21 ShMem   1 Linda.
 NMat=     1 NSing=     0 JSym2X= 2.
 CoulSu:  requested number of processors reduced to:  21 ShMem   1 Linda.
 NMat=     1 NSing=     0 JSym2X= 2.
 CoulSu:  requested number of processors reduced to:  21 ShMem   1 Linda.
 NMat=     1 NSing=     0 JSym2X= 2.
 CoulSu:  requested number of processors reduced to:  21 ShMem   1 Linda.
 NMat=     1 NSing=     0 JSym2X= 2.
 CoulSu:  requested number of processors reduced to:  21 ShMem   1 Linda.
 NMat=     1 NSing=     0 JSym2X= 2.
 CoulSu:  requested number of processors reduced to:  21 ShMem   1 Linda.
 NMat=     1 NSing=     0 JSym2X= 2.
 CoulSu:  requested number of processors reduced to:  21 ShMem   1 Linda.
 NMat=     1 NSing=     0 JSym2X= 2.
 CoulSu:  requested number of processors reduced to:  21 ShMem   1 Linda.
 NMat=     1 NSing=     0 JSym2X= 2.
 CoulSu:  requested number of processors reduced to:  21 ShMem   1 Linda.
 NMat=     1 NSing=     0 JSym2X= 2.
 CoulSu:  requested number of processors reduced to:  21 ShMem   1 Linda.
 Root      1 not converged, maximum delta is    0.076383948176076
 Excitation Energies [eV] at current iteration:
 Root      1 :     6.955049452086603   Change is   -0.305944393499661
 Root      2 :     6.955049452087528   Change is   -0.305944393499720
 Root      3 :     8.039338651671567   Change is   -0.314350613714305
 Root      4 :     8.039338651671970   Change is   -0.314350613714512
 Root      5 :     9.190689612947825   Change is   -1.020155645878074
 Root      6 :    10.513928997215430   Change is   -0.348563865244350
 Root      7 :    10.513928997216510   Change is   -0.348563865245021
 Root      8 :    11.199700954738160   Change is   -0.589547423184872
 Root      9 :    11.199700954738730   Change is   -0.589547423184803
 Root     10 :    12.459253672881950   Change is   -0.428002634710233
 Root     11 :    12.737891422536680   Change is   -0.307093509421681
 Root     12 :    12.739137982416000   Change is   -0.306856215159762
 Root     13 :    12.865792784017410   Change is   -0.084347410438987
 Root     14 :    12.866906513144900   Change is   -0.084291920584922
 Root     15 :    12.903509174110730   Change is   -0.218153445162602
 Root     16 :    12.903509174111650   Change is   -0.218153445162689
 Root     17 :    12.941796996441240   Change is   -0.597188084945045
 Root     18 :    12.978334024111890   Change is   -0.108039063587208
 Root     19 :    12.978334024112030   Change is   -0.108039063587161
 Root     20 :    13.377190717806860   Change is   -0.025326705227691
 Root     21 :    13.377190718014050   Change is   -0.025326705024490
 Root     22 :    13.898655813481560   Change is   -0.542404859576027
 Root     23 :    15.071321171316470   Change is   -2.822713564308465
 Root     24 :    17.252748474035970   Change is   -2.718965177559657
 Iteration     3 Dimension    54 NMult    48 NNew      6
 Estimated number of processors is:   20
 CISAX will form     1 AO SS matrices at one time.
 NMat=     1 NSing=     1 JSym2X= 2.
 CoulSu:  requested number of processors reduced to:  21 ShMem   1 Linda.
 NMat=     1 NSing=     1 JSym2X= 2.
 CoulSu:  requested number of processors reduced to:  21 ShMem   1 Linda.
 NMat=     1 NSing=     1 JSym2X= 2.
 CoulSu:  requested number of processors reduced to:  21 ShMem   1 Linda.
 NMat=     1 NSing=     0 JSym2X= 2.
 CoulSu:  requested number of processors reduced to:  21 ShMem   1 Linda.
 NMat=     1 NSing=     0 JSym2X= 2.
 CoulSu:  requested number of processors reduced to:  21 ShMem   1 Linda.
 NMat=     1 NSing=     0 JSym2X= 2.
 CoulSu:  requested number of processors reduced to:  21 ShMem   1 Linda.
 Root      1 not converged, maximum delta is    0.004568352532703
 Excitation Energies [eV] at current iteration:
 Root      1 :     6.950993854135302   Change is   -0.004055597951301
 Root      2 :     6.950993854136231   Change is   -0.004055597951297
 Root      3 :     8.026730303319384   Change is   -0.012608348352182
 Root      4 :     8.026739014273875   Change is   -0.012599637398095
 Root      5 :     9.163748374032043   Change is   -0.026941238915781
 Root      6 :    11.167216479871690   Change is   -0.032484474866473
 Iteration     4 Dimension    60 NMult    54 NNew      6
 Estimated number of processors is:   20
 CISAX will form     1 AO SS matrices at one time.
 NMat=     1 NSing=     1 JSym2X= 2.
 CoulSu:  requested number of processors reduced to:  21 ShMem   1 Linda.
 NMat=     1 NSing=     1 JSym2X= 2.
 CoulSu:  requested number of processors reduced to:  21 ShMem   1 Linda.
 NMat=     1 NSing=     1 JSym2X= 2.
 CoulSu:  requested number of processors reduced to:  21 ShMem   1 Linda.
 NMat=     1 NSing=     0 JSym2X= 2.
 CoulSu:  requested number of processors reduced to:  21 ShMem   1 Linda.
 NMat=     1 NSing=     0 JSym2X= 2.
 CoulSu:  requested number of processors reduced to:  21 ShMem   1 Linda.
 NMat=     1 NSing=     0 JSym2X= 2.
 CoulSu:  requested number of processors reduced to:  21 ShMem   1 Linda.
 Root      1 not converged, maximum delta is    0.004115399577926
 Excitation Energies [eV] at current iteration:
 Root      1 :     6.950818118825641   Change is   -0.000175735309661
 Root      2 :     6.950818118826554   Change is   -0.000175735309677
 Root      3 :     8.026580603673739   Change is   -0.000149699645646
 Root      4 :     8.026581047853174   Change is   -0.000157966420702
 Root      5 :     9.163153018858353   Change is   -0.000595355173691
 Root      6 :    11.166421651965970   Change is   -0.000794827905726
 Iteration     5 Dimension    66 NMult    60 NNew      6
 Estimated number of processors is:   20
 CISAX will form     1 AO SS matrices at one time.
 NMat=     1 NSing=     1 JSym2X= 2.
 CoulSu:  requested number of processors reduced to:  21 ShMem   1 Linda.
 NMat=     1 NSing=     1 JSym2X= 2.
 CoulSu:  requested number of processors reduced to:  21 ShMem   1 Linda.
 NMat=     1 NSing=     1 JSym2X= 2.
 CoulSu:  requested number of processors reduced to:  21 ShMem   1 Linda.
 NMat=     1 NSing=     0 JSym2X= 2.
 CoulSu:  requested number of processors reduced to:  21 ShMem   1 Linda.
 NMat=     1 NSing=     0 JSym2X= 2.
 CoulSu:  requested number of processors reduced to:  21 ShMem   1 Linda.
 NMat=     1 NSing=     0 JSym2X= 2.
 CoulSu:  requested number of processors reduced to:  21 ShMem   1 Linda.
 Root      1 not converged, maximum delta is    0.001359658093868
 Excitation Energies [eV] at current iteration:
 Root      1 :     6.950810577531972   Change is   -0.000007541293668
 Root      2 :     6.950810577532889   Change is   -0.000007541293665
 Root      3 :     8.026579951411867   Change is   -0.000000652261873
 Root      4 :     8.026579965310392   Change is   -0.000001082542782
 Root      5 :     9.163136660358985   Change is   -0.000016358499367
 Root      6 :    11.166415122366300   Change is   -0.000006529599671
 Iteration     6 Dimension    72 NMult    66 NNew      6
 Estimated number of processors is:   20
 CISAX will form     1 AO SS matrices at one time.
 NMat=     1 NSing=     1 JSym2X= 2.
 CoulSu:  requested number of processors reduced to:  21 ShMem   1 Linda.
 NMat=     1 NSing=     1 JSym2X= 2.
 CoulSu:  requested number of processors reduced to:  21 ShMem   1 Linda.
 NMat=     1 NSing=     1 JSym2X= 2.
 CoulSu:  requested number of processors reduced to:  21 ShMem   1 Linda.
 NMat=     1 NSing=     0 JSym2X= 2.
 CoulSu:  requested number of processors reduced to:  21 ShMem   1 Linda.
 NMat=     1 NSing=     0 JSym2X= 2.
 CoulSu:  requested number of processors reduced to:  21 ShMem   1 Linda.
 NMat=     1 NSing=     0 JSym2X= 2.
 CoulSu:  requested number of processors reduced to:  21 ShMem   1 Linda.
 Root      1 not converged, maximum delta is    0.011316911187701
 Excitation Energies [eV] at current iteration:
 Root      1 :     6.950810221711947   Change is   -0.000000355820025
 Root      2 :     6.950810221712906   Change is   -0.000000355819983
 Root      3 :     8.026579947020702   Change is   -0.000000004391164
 Root      4 :     8.026579958091469   Change is   -0.000000007218924
 Root      5 :     9.163134028961894   Change is   -0.000002631397092
 Root      6 :    11.166414844758690   Change is   -0.000000277607608
 Iteration     7 Dimension    78 NMult    72 NNew      6
 Estimated number of processors is:   20
 CISAX will form     1 AO SS matrices at one time.
 NMat=     1 NSing=     1 JSym2X= 2.
 CoulSu:  requested number of processors reduced to:  21 ShMem   1 Linda.
 NMat=     1 NSing=     1 JSym2X= 2.
 CoulSu:  requested number of processors reduced to:  21 ShMem   1 Linda.
 NMat=     1 NSing=     1 JSym2X= 2.
 CoulSu:  requested number of processors reduced to:  21 ShMem   1 Linda.
 NMat=     1 NSing=     0 JSym2X= 2.
 CoulSu:  requested number of processors reduced to:  21 ShMem   1 Linda.
 NMat=     1 NSing=     0 JSym2X= 2.
 CoulSu:  requested number of processors reduced to:  21 ShMem   1 Linda.
 NMat=     1 NSing=     0 JSym2X= 2.
 CoulSu:  requested number of processors reduced to:  21 ShMem   1 Linda.
 Root      1 not converged, maximum delta is    0.077004645228896
 Excitation Energies [eV] at current iteration:
 Root      1 :     6.950810217327008   Change is   -0.000000004384939
 Root      2 :     6.950810217327930   Change is   -0.000000004384977
 Root      3 :     8.026579946538309   Change is   -0.000000000482394
 Root      4 :     8.026579956373492   Change is   -0.000000001717976
 Root      5 :     9.163133740304481   Change is   -0.000000288657413
 Root      6 :    11.166414837790770   Change is   -0.000000006967918
 Iteration     8 Dimension    82 NMult    78 NNew      4
 Estimated number of processors is:   20
 CISAX will form     1 AO SS matrices at one time.
 NMat=     1 NSing=     1 JSym2X= 2.
 CoulSu:  requested number of processors reduced to:  21 ShMem   1 Linda.
 NMat=     1 NSing=     0 JSym2X= 2.
 CoulSu:  requested number of processors reduced to:  21 ShMem   1 Linda.
 NMat=     1 NSing=     0 JSym2X= 2.
 CoulSu:  requested number of processors reduced to:  21 ShMem   1 Linda.
 NMat=     1 NSing=     0 JSym2X= 2.
 CoulSu:  requested number of processors reduced to:  21 ShMem   1 Linda.
 Root      1 not converged, maximum delta is    0.206601067983710
 Excitation Energies [eV] at current iteration:
 Root      1 :     6.950810202302902   Change is   -0.000000015024106
 Root      2 :     6.950810202303443   Change is   -0.000000015024487
 Root      3 :     8.026579946398648   Change is   -0.000000000139660
 Root      4 :     8.026579956314922   Change is   -0.000000000058571
 Root      5 :     9.163133733816933   Change is   -0.000000006487548
 Root      6 :    11.166414834934000   Change is   -0.000000002856771
 Iteration     9 Dimension    85 NMult    82 NNew      3
 Estimated number of processors is:   20
 CISAX will form     1 AO SS matrices at one time.
 NMat=     1 NSing=     1 JSym2X= 2.
 CoulSu:  requested number of processors reduced to:  21 ShMem   1 Linda.
 NMat=     1 NSing=     0 JSym2X= 2.
 CoulSu:  requested number of processors reduced to:  21 ShMem   1 Linda.
 NMat=     1 NSing=     0 JSym2X= 2.
 CoulSu:  requested number of processors reduced to:  21 ShMem   1 Linda.
 Root      1 not converged, maximum delta is    0.159791120218192
 Excitation Energies [eV] at current iteration:
 Root      1 :     6.950810188698699   Change is   -0.000000013604203
 Root      2 :     6.950810188698714   Change is   -0.000000013604728
 Root      3 :     8.026579946351287   Change is   -0.000000000047361
 Root      4 :     8.026579956265039   Change is   -0.000000000049884
 Root      5 :     9.163133733817082   Change is    0.000000000000148
 Root      6 :    11.166414831823820   Change is   -0.000000003110177
 Iteration    10 Dimension    87 NMult    85 NNew      2
 Estimated number of processors is:   20
 CISAX will form     1 AO SS matrices at one time.
 NMat=     1 NSing=     0 JSym2X= 2.
 CoulSu:  requested number of processors reduced to:  21 ShMem   1 Linda.
 NMat=     1 NSing=     0 JSym2X= 2.
 CoulSu:  requested number of processors reduced to:  21 ShMem   1 Linda.
 New state      1 was old state      2
 Root      1 not converged, maximum delta is    0.049238321863575
 Excitation Energies [eV] at current iteration:
 Root      1 :     6.950810182595340   Change is   -0.000000006103374
 Root      2 :     6.950810182595482   Change is   -0.000000006103217
 Root      3 :     8.026579946351264   Change is   -0.000000000000024
 Root      4 :     8.026579956265047   Change is    0.000000000000009
 Root      5 :     9.163133733817062   Change is   -0.000000000000018
 Root      6 :    11.166414831823820   Change is    0.000000000000000
 Iteration    11 Dimension    89 NMult    87 NNew      2
 Estimated number of processors is:   20
 CISAX will form     1 AO SS matrices at one time.
 NMat=     1 NSing=     0 JSym2X= 2.
 CoulSu:  requested number of processors reduced to:  21 ShMem   1 Linda.
 NMat=     1 NSing=     0 JSym2X= 2.
 CoulSu:  requested number of processors reduced to:  21 ShMem   1 Linda.
 Root      1 not converged, maximum delta is    0.146990778559200
 Excitation Energies [eV] at current iteration:
 Root      1 :     6.950810176040152   Change is   -0.000000006555189
 Root      2 :     6.950810176040791   Change is   -0.000000006554692
 Root      3 :     8.026579946351237   Change is   -0.000000000000026
 Root      4 :     8.026579956265046   Change is   -0.000000000000002
 Root      5 :     9.163133733817109   Change is    0.000000000000045
 Root      6 :    11.166414831823820   Change is    0.000000000000000
 Convergence achieved on expansion vectors.
 ***********************************************************************
 Stability analysis using <AA,BB:AA,BB> singles matrix:
 ***********************************************************************
 1PDM for each excited state written to RWF  633
 Ground to excited state transition densities written to RWF  633

 Eigenvectors of the stability matrix:
 
 Excited state symmetry could not be determined.
 Eigenvector   1:      Triplet-?Sym  Eigenvalue= 0.2554376  <S**2>=2.000
       8 -> 10         0.27561
       8 -> 11         0.10595
       9 -> 10         0.58267
       9 -> 11         0.22399
 
 Excited state symmetry could not be determined.
 Eigenvector   2:      Triplet-?Sym  Eigenvalue= 0.2554376  <S**2>=2.000
       8 -> 10         0.58267
       8 -> 11         0.22399
       9 -> 10        -0.27561
       9 -> 11        -0.10595
 
 Excited state symmetry could not be determined.
 Eigenvector   3:      Singlet-?Sym  Eigenvalue= 0.2949714  <S**2>=0.000
       8 -> 10         0.33891
       9 -> 10         0.60015
       9 -> 11         0.10472
 
 Excited state symmetry could not be determined.
 Eigenvector   4:      Singlet-?Sym  Eigenvalue= 0.2949714  <S**2>=0.000
       8 -> 10         0.60015
       8 -> 11         0.10472
       9 -> 10        -0.33891
 
 Eigenvector   5:      Triplet-SG   Eigenvalue= 0.3367390  <S**2>=2.000
       7 -> 10         0.58234
       7 -> 11         0.33367
       7 -> 12        -0.17393
       7 -> 19         0.10022
 
 Excited state symmetry could not be determined.
 Eigenvector   6:      Singlet-?Sym  Eigenvalue= 0.4103582  <S**2>=0.000
       8 -> 11         0.30397
       9 -> 10        -0.11995
       9 -> 11         0.60721
 The wavefunction is stable under the perturbations considered.
 Leave Link  914 at Fri Apr 16 23:02:51 2021, MaxMem=   104857600 cpu:            3275.8 elap:              98.0
 (Enter /s/ls4/users/knvvv/bin/g16sse/l508.exe)
 The wavefunction is already stable.
 Leave Link  508 at Fri Apr 16 23:02:51 2021, MaxMem=   104857600 cpu:               2.2 elap:               0.1
 (Enter /s/ls4/users/knvvv/bin/g16sse/l601.exe)
 Copying SCF densities to generalized density rwf, IOpCl= 0 IROHF=0.

 **********************************************************************

            Population analysis using the SCF density.

 **********************************************************************

 Orbital symmetries:
       Occupied  (SG) (SG) (SG) (PI) (PI) (SG) (SG) (PI) (PI)
       Virtual   (SG) (SG) (SG) (PI) (PI) (PI) (PI) (DLTA) (DLTA)
                 (SG) (SG) (PI) (PI) (SG) (SG) (PI) (PI) (SG) (PI)
                 (PI) (DLTA) (DLTA) (DLTA) (DLTA) (SG) (PHI) (PHI)
                 (PI) (PI) (SG) (DLTA) (DLTA) (PI) (PI) (SG) (SG)
                 (PI) (PI) (SG) (DLTA) (DLTA) (PI) (PI) (SG) (PHI)
                 (PHI) (?A) (?A) (DLTA) (DLTA) (SG) (PI) (PI) (PHI)
                 (PHI) (DLTA) (DLTA) (PI) (PI) (SG) (PI) (PI) (SG)
                 (PHI) (PHI) (DLTA) (DLTA) (SG) (PI) (PI) (SG)
                 (DLTA) (DLTA) (PI) (PI) (PI) (PI) (SG) (SG) (SG)
                 (DLTA) (DLTA) (PI) (PI) (SG) (SG) (PI) (PI) (SG)
                 (SG) (SG)
 The electronic state is 1-SG.
 Alpha  occ. eigenvalues -- -102.65873  -9.81473  -7.53949  -7.53440  -7.53440
 Alpha  occ. eigenvalues --   -0.94228  -0.53798  -0.39976  -0.39976
 Alpha virt. eigenvalues --    0.02664   0.14620   0.21570   0.21955   0.21955
 Alpha virt. eigenvalues --    0.31515   0.31515   0.37044   0.37044   0.39385
 Alpha virt. eigenvalues --    0.55238   0.70420   0.70420   0.88436   1.04635
 Alpha virt. eigenvalues --    1.10357   1.10357   1.12153   1.17190   1.17190
 Alpha virt. eigenvalues --    1.19912   1.19914   1.30377   1.30377   1.31275
 Alpha virt. eigenvalues --    1.34968   1.34968   1.55645   1.55645   1.76323
 Alpha virt. eigenvalues --    2.11741   2.11741   2.22743   2.22743   2.38201
 Alpha virt. eigenvalues --    2.60797   2.73403   2.73403   2.86807   3.21377
 Alpha virt. eigenvalues --    3.21383   3.28686   3.28686   3.41436   3.53203
 Alpha virt. eigenvalues --    3.53203   3.56698   3.56699   3.69214   3.69222
 Alpha virt. eigenvalues --    3.77968   3.87529   3.87529   3.88659   3.88659
 Alpha virt. eigenvalues --    3.93915   3.93918   3.95215   3.95215   4.32316
 Alpha virt. eigenvalues --    4.54235   4.54235   4.72625   5.67115   5.67115
 Alpha virt. eigenvalues --    6.32078   6.32078   6.56371   6.85144   6.85144
 Alpha virt. eigenvalues --    6.95371   7.67245   7.67245   7.99931   7.99931
 Alpha virt. eigenvalues --    8.28609   8.28609   8.40330   8.58694   9.91499
 Alpha virt. eigenvalues --   10.65504  10.65508  10.74141  10.74141  11.60474
 Alpha virt. eigenvalues --   28.68446  42.03867  42.03867  42.21009  98.45019
 Alpha virt. eigenvalues --  524.36088
          Condensed to atoms (all electrons):
               1          2
     1  Cl  16.832135   0.346688
     2  H    0.346688   0.474488
 Mulliken charges:
               1
     1  Cl  -0.178824
     2  H    0.178824
 Sum of Mulliken charges =   0.00000
 Mulliken charges with hydrogens summed into heavy atoms:
               1
     1  Cl   0.000000
 Electronic spatial extent (au):  <R**2>=             34.0469
 Charge=              0.0000 electrons
 Dipole moment (field-independent basis, Debye):
    X=              0.0000    Y=              0.0000    Z=             -1.1403  Tot=              1.1403
 Quadrupole moment (field-independent basis, Debye-Ang):
   XX=            -13.9886   YY=            -13.9886   ZZ=            -10.4490
   XY=             -0.0000   XZ=              0.0000   YZ=              0.0000
 Traceless Quadrupole moment (field-independent basis, Debye-Ang):
   XX=             -1.1798   YY=             -1.1798   ZZ=              2.3597
   XY=             -0.0000   XZ=              0.0000   YZ=              0.0000
 Octapole moment (field-independent basis, Debye-Ang**2):
  XXX=              0.0000  YYY=             -0.0000  ZZZ=             -2.5708  XYY=              0.0000
  XXY=              0.0000  XXZ=             -0.0820  XZZ=              0.0000  YZZ=              0.0000
  YYZ=             -0.0820  XYZ=             -0.0000
 Hexadecapole moment (field-independent basis, Debye-Ang**3):
 XXXX=            -16.3841 YYYY=            -16.3841 ZZZZ=            -13.9349 XXXY=             -0.0000
 XXXZ=              0.0000 YYYX=             -0.0000 YYYZ=             -0.0000 ZZZX=              0.0000
 ZZZY=              0.0000 XXYY=             -5.4614 XXZZ=             -5.8245 YYZZ=             -5.8245
 XXYZ=              0.0000 YYXZ=              0.0000 ZZXY=             -0.0000
 N-N= 7.058750724189D+00 E-N=-1.110285083721D+03  KE= 4.601811472957D+02
 PrsmSu:  requested number of processors reduced to:  21 ShMem   1 Linda.
 No NMR shielding tensors so no spin-rotation constants.
 Leave Link  601 at Fri Apr 16 23:02:52 2021, MaxMem=   104857600 cpu:              44.4 elap:               1.1
 (Enter /s/ls4/users/knvvv/bin/g16sse/l9999.exe)

 Test job not archived.
 1\1\GINC-N150\Stability\RM062X\def2QZVP\Cl1H1\KNVVV\16-Apr-2021\0\\#P 
 M062X/Def2QZVP Integral=UltraFineGrid SCF=NoSymm Stable=(RExt, Opt) IO
 p(1/33=1)\\Database calculations.\\0,1\Cl,0,0.,0.,0.0708028576\H,0,0.,
 0.,-1.2036454035\\Version=ES64L-G16RevA.03\State=1-SG\HF=-460.8149741\
 RMSD=2.358e-09\Dipole=0.,0.,-0.4486162\Quadrupole=-0.8771858,-0.877185
 8,1.7543716,0.,0.,0.\PG=C*V [C*(H1Cl1)]\\@


 THE MORE PROGRESS PHYSICAL SCIENCES MAKE, THE MORE THEY TEND TO ENTER
 THE DOMAIN OF MATHEMATICS, WHICH IS A KIND OF CENTRE TO WHICH THEY ALL
 CONVERGE.  WE MAY EVEN JUDGE THE DEGREE OF PERFECTION TO WHICH A 
 SCIENCE HAS ARRIVED BY THE FACILITY WITH WHICH IT MAY BE SUBMITTED
 TO CALCULATION.

                               -- ADOLPHE QUETELET, 1796-1874
 Job cpu time:       0 days  1 hours  0 minutes 34.5 seconds.
 Elapsed time:       0 days  0 hours  1 minutes 46.8 seconds.
 File lengths (MBytes):  RWF=     67 Int=      0 D2E=      0 Chk=      4 Scr=      1
 Normal termination of Gaussian 16 at Fri Apr 16 23:02:52 2021.
