 Entering Gaussian System, Link 0=/s/ls4/users/knvvv/bin/g16sse/g16
 Input=data/database/M062X--def2-QZVPPD--4138_26UracilUracilpipi_monA_S66.gjf
 Output=data/database/M062X--def2-QZVPPD--4138_26UracilUracilpipi_monA_S66.log
 Initial command:
 /s/ls4/users/knvvv/bin/g16sse/l1.exe "/s/ls4/users/knvvv/bin/scratch/Gau-15363.inp" -scrdir="/s/ls4/users/knvvv/bin/scratch/"
 Entering Link 1 = /s/ls4/users/knvvv/bin/g16sse/l1.exe PID=     15364.
  
 Copyright (c) 1988,1990,1992,1993,1995,1998,2003,2009,2016,
            Gaussian, Inc.  All Rights Reserved.
  
 This is part of the Gaussian(R) 16 program.  It is based on
 the Gaussian(R) 09 system (copyright 2009, Gaussian, Inc.),
 the Gaussian(R) 03 system (copyright 2003, Gaussian, Inc.),
 the Gaussian(R) 98 system (copyright 1998, Gaussian, Inc.),
 the Gaussian(R) 94 system (copyright 1995, Gaussian, Inc.),
 the Gaussian 92(TM) system (copyright 1992, Gaussian, Inc.),
 the Gaussian 90(TM) system (copyright 1990, Gaussian, Inc.),
 the Gaussian 88(TM) system (copyright 1988, Gaussian, Inc.),
 the Gaussian 86(TM) system (copyright 1986, Carnegie Mellon
 University), and the Gaussian 82(TM) system (copyright 1983,
 Carnegie Mellon University). Gaussian is a federally registered
 trademark of Gaussian, Inc.
  
 This software contains proprietary and confidential information,
 including trade secrets, belonging to Gaussian, Inc.
  
 This software is provided under written license and may be
 used, copied, transmitted, or stored only in accord with that
 written license.
  
 The following legend is applicable only to US Government
 contracts under FAR:
  
                    RESTRICTED RIGHTS LEGEND
  
 Use, reproduction and disclosure by the US Government is
 subject to restrictions as set forth in subparagraphs (a)
 and (c) of the Commercial Computer Software - Restricted
 Rights clause in FAR 52.227-19.
  
 Gaussian, Inc.
 340 Quinnipiac St., Bldg. 40, Wallingford CT 06492
  
  
 ---------------------------------------------------------------
 Warning -- This program may not be used in any manner that
 competes with the business of Gaussian, Inc. or will provide
 assistance to any competitor of Gaussian, Inc.  The licensee
 of this program is prohibited from giving any competitor of
 Gaussian, Inc. access to this program.  By using this program,
 the user acknowledges that Gaussian, Inc. is engaged in the
 business of creating and licensing software in the field of
 computational chemistry and represents and warrants to the
 licensee that it is not a competitor of Gaussian, Inc. and that
 it will not use this program in any manner prohibited above.
 ---------------------------------------------------------------
  

 Cite this work as:
 Gaussian 16, Revision A.03,
 M. J. Frisch, G. W. Trucks, H. B. Schlegel, G. E. Scuseria, 
 M. A. Robb, J. R. Cheeseman, G. Scalmani, V. Barone, 
 G. A. Petersson, H. Nakatsuji, X. Li, M. Caricato, A. V. Marenich, 
 J. Bloino, B. G. Janesko, R. Gomperts, B. Mennucci, H. P. Hratchian, 
 J. V. Ortiz, A. F. Izmaylov, J. L. Sonnenberg, D. Williams-Young, 
 F. Ding, F. Lipparini, F. Egidi, J. Goings, B. Peng, A. Petrone, 
 T. Henderson, D. Ranasinghe, V. G. Zakrzewski, J. Gao, N. Rega, 
 G. Zheng, W. Liang, M. Hada, M. Ehara, K. Toyota, R. Fukuda, 
 J. Hasegawa, M. Ishida, T. Nakajima, Y. Honda, O. Kitao, H. Nakai, 
 T. Vreven, K. Throssell, J. A. Montgomery, Jr., J. E. Peralta, 
 F. Ogliaro, M. J. Bearpark, J. J. Heyd, E. N. Brothers, K. N. Kudin, 
 V. N. Staroverov, T. A. Keith, R. Kobayashi, J. Normand, 
 K. Raghavachari, A. P. Rendell, J. C. Burant, S. S. Iyengar, 
 J. Tomasi, M. Cossi, J. M. Millam, M. Klene, C. Adamo, R. Cammi, 
 J. W. Ochterski, R. L. Martin, K. Morokuma, O. Farkas, 
 J. B. Foresman, and D. J. Fox, Gaussian, Inc., Wallingford CT, 2016.
 
 ******************************************
 Gaussian 16:  ES64L-G16RevA.03 25-Dec-2016
                18-Apr-2021 
 ******************************************
 %RWF=temp12_35380,70GB
 %nprocshared=48
 Will use up to   48 processors via shared memory.
 Default route: MaxDisk=80GB
 ----------------------------------------------------------------------
 #P M062X/GEN Integral=UltraFineGrid SCF=NoSymm Stable=(RExt, Opt) IOp(
 1/33=1)
 ----------------------------------------------------------------------
 1/33=1,38=1,172=1/1;
 2/12=2,17=6,18=5,40=1/2;
 3/5=7,11=2,25=1,30=1,74=-55,75=-5/1,2,3;
 4/9=2/1;
 5/5=2,38=5/2;
 6/7=2,8=2,9=2,10=2,28=1/1;
 8/6=1,10=90,11=11/1;
 9/8=-3,42=1,46=1/14;
 5/5=2,8=3,17=40,38=5/8(-2);
 6/7=2,8=2,9=2,10=2,28=1/1;
 99/5=1,9=1/99;
 Leave Link    1 at Sun Apr 18 01:12:56 2021, MaxMem=           0 cpu:              10.9 elap:               0.3
 (Enter /s/ls4/users/knvvv/bin/g16sse/l101.exe)
 ONIOM data not found on unit 2.
 ----------------------
 Database calculations.
 ----------------------
 TstMul:  ICh=     0
 TstMul:  Mul=     1
 TstMul:  ICh=     0
 TstMul:  Mul=     1
 Symbolic Z-matrix:
 Charge =  0 Multiplicity = 1
 N                     1.3769    0.83975   0.73462 
 H                     1.05181   1.38622   1.52336 
 C                     1.30898   1.45753  -0.52065 
 O                     0.92056   2.61108  -0.62598 
 N                     2.01142  -1.21321  -0.09807 
 H                     1.72729   0.99084  -2.612 
 C                     2.02574  -0.69717  -1.3644 
 H                     2.29752  -1.39106  -2.14565 
 C                     1.71451   0.59194  -1.61249 
 H                     2.12945  -2.20152   0.05683 
 C                     1.64595  -0.48521   1.01872 
 O                     1.56112  -0.97182   2.12981 
 
 RdStrC is calling ZToCFu for IStruc=1 NZ=    12.
 PrtBox:  NBox=     3 Levels=  1 BoxLen=    8.00 SMaxX=        9.09
          Shift=           -1.739609            4.160272            4.935956
 Box      1 Number                   0 centers from      1 to     10:
 Box      2 Number                   1 centers from     11 to     11:
 Box      3 Number                   2 centers from     12 to     12:
 After GenITR:
 ITRead=  0  0  0  0  0  0  0  0  0  0  0  0
 MicOpt= -1 -1 -1 -1 -1 -1 -1 -1 -1 -1 -1 -1
 ITRead=  0  0  0  0  0  0  0  0  0  0  0  0
 MicOpt= -1 -1 -1 -1 -1 -1 -1 -1 -1 -1 -1 -1
 NAtoms=     12 NQM=       12 NQMF=       0 NMMI=      0 NMMIF=      0
                NMic=       0 NMicF=      0.
                    Isotopes and Nuclear Properties:
 (Nuclear quadrupole moments (NQMom) in fm**2, nuclear magnetic moments (NMagM)
  in nuclear magnetons)

  Atom         1           2           3           4           5           6           7           8           9          10
 IAtWgt=          14           1          12          16          14           1          12           1          12           1
 AtmWgt=  14.0030740   1.0078250  12.0000000  15.9949146  14.0030740   1.0078250  12.0000000   1.0078250  12.0000000   1.0078250
 NucSpn=           2           1           0           0           2           1           0           1           0           1
 AtZEff=  -0.0000000  -0.0000000  -0.0000000  -0.0000000  -0.0000000  -0.0000000  -0.0000000  -0.0000000  -0.0000000  -0.0000000
 NQMom=    2.0440000   0.0000000   0.0000000   0.0000000   2.0440000   0.0000000   0.0000000   0.0000000   0.0000000   0.0000000
 NMagM=    0.4037610   2.7928460   0.0000000   0.0000000   0.4037610   2.7928460   0.0000000   2.7928460   0.0000000   2.7928460
 AtZNuc=   7.0000000   1.0000000   6.0000000   8.0000000   7.0000000   1.0000000   6.0000000   1.0000000   6.0000000   1.0000000

  Atom        11          12
 IAtWgt=          12          16
 AtmWgt=  12.0000000  15.9949146
 NucSpn=           0           0
 AtZEff=  -0.0000000  -0.0000000
 NQMom=    0.0000000   0.0000000
 NMagM=    0.0000000   0.0000000
 AtZNuc=   6.0000000   8.0000000
 No MM parameters found.
 Leave Link  101 at Sun Apr 18 01:12:57 2021, MaxMem=   104857600 cpu:               6.9 elap:               0.2
 (Enter /s/ls4/users/knvvv/bin/g16sse/l202.exe)
                          Input orientation:                          
 ---------------------------------------------------------------------
 Center     Atomic      Atomic             Coordinates (Angstroms)
 Number     Number       Type             X           Y           Z
 ---------------------------------------------------------------------
      1          7           0        1.376901    0.839747    0.734625
      2          1           0        1.051812    1.386224    1.523356
      3          6           0        1.308983    1.457530   -0.520655
      4          8           0        0.920561    2.611078   -0.625977
      5          7           0        2.011423   -1.213208   -0.098072
      6          1           0        1.727286    0.990843   -2.611996
      7          6           0        2.025737   -0.697171   -1.364397
      8          1           0        2.297517   -1.391060   -2.145645
      9          6           0        1.714512    0.591938   -1.612487
     10          1           0        2.129454   -2.201521    0.056829
     11          6           0        1.645945   -0.485206    1.018718
     12          8           0        1.561116   -0.971816    2.129809
 ---------------------------------------------------------------------
                    Distance matrix (angstroms):
                    1          2          3          4          5
     1  N    0.000000
     2  H    1.013122   0.000000
     3  C    1.400713   2.061359   0.000000
     4  O    2.279714   2.477322   1.221735   0.000000
     5  N    2.304480   3.210440   2.793715   4.011711   0.000000
     6  H    3.368303   4.208767   2.183227   2.687050   3.355352
     7  C    2.681231   3.691637   2.422473   3.565276   1.367509
     8  H    3.757658   4.767248   3.425238   4.496944   2.075100
     9  C    2.384183   3.302056   1.451138   2.383377   2.374903
    10  H    3.205473   4.022925   3.794116   5.008867   1.007317
    11  C    1.381519   2.027289   2.501487   3.580248   1.382310
    12  O    2.293957   2.487475   3.604199   4.565282   2.285716
                    6          7          8          9         10
     6  H    0.000000
     7  C    2.120133   0.000000
     8  H    2.493212   1.079673   0.000000
     9  C    1.076246   1.349152   2.134580   0.000000
    10  H    4.180377   2.072127   2.352868   3.280580   0.000000
    11  C    3.920130   2.422480   3.355341   2.843973   2.026018
    12  O    5.134623   3.535644   4.358619   4.058773   2.476374
                   11         12
    11  C    0.000000
    12  O    1.215939   0.000000
 Stoichiometry    C4H4N2O2
 Framework group  C1[X(C4H4N2O2)]
 Deg. of freedom    30
 Full point group                 C1      NOp   1
 Largest Abelian subgroup         C1      NOp   1
 Largest concise Abelian subgroup C1      NOp   1
                         Standard orientation:                         
 ---------------------------------------------------------------------
 Center     Atomic      Atomic             Coordinates (Angstroms)
 Number     Number       Type             X           Y           Z
 ---------------------------------------------------------------------
      1          7           0       -0.037596   -0.977973    0.082406
      2          1           0       -0.043337   -1.989677    0.029138
      3          6           0       -1.284860   -0.344199    0.014145
      4          8           0       -2.312960   -1.000438   -0.056559
      5          7           0        1.174716    0.980688    0.014759
      6          1           0       -2.107316    1.678137   -0.000126
      7          6           0        0.012686    1.701383   -0.004348
      8          1           0        0.131855    2.773836   -0.040923
      9          6           0       -1.196969    1.104273    0.015835
     10          1           0        2.064179    1.433763   -0.120392
     11          6           0        1.215980   -0.401004    0.017217
     12          8           0        2.252179   -1.034284   -0.044060
 ---------------------------------------------------------------------
 Rotational constants (GHZ):           3.9047053           2.0232381           1.3341414
 Leave Link  202 at Sun Apr 18 01:12:57 2021, MaxMem=   104857600 cpu:               4.5 elap:               0.1
 (Enter /s/ls4/users/knvvv/bin/g16sse/l301.exe)
 General basis read from cards:  (5D, 7F)
 Centers:       2      6      8     10
 S 4 1.00
     Exponent=  1.9069169000D+02 Coefficients=  7.0815167000D-04
     Exponent=  2.8605532000D+01 Coefficients=  5.4678827000D-03
     Exponent=  6.5095943000D+00 Coefficients=  2.7966605000D-02
     Exponent=  1.8412455000D+00 Coefficients=  1.0764538000D-01
 S 1 1.00
     Exponent=  5.9853725000D-01 Coefficients=  1.0000000000D+00
 S 1 1.00
     Exponent=  2.1397624000D-01 Coefficients=  1.0000000000D+00
 S 1 1.00
     Exponent=  8.0316286000D-02 Coefficients=  1.0000000000D+00
 P 1 1.00
     Exponent=  2.2920000000D+00 Coefficients=  1.0000000000D+00
 P 1 1.00
     Exponent=  8.3800000000D-01 Coefficients=  1.0000000000D+00
 P 1 1.00
     Exponent=  2.9200000000D-01 Coefficients=  1.0000000000D+00
 P 1 1.00
     Exponent=  8.4063199228D-02 Coefficients=  1.0000000000D+00
 D 1 1.00
     Exponent=  2.0620000000D+00 Coefficients=  1.0000000000D+00
 D 1 1.00
     Exponent=  6.6200000000D-01 Coefficients=  1.0000000000D+00
 F 1 1.00
     Exponent=  1.3970000000D+00 Coefficients=  1.0000000000D+00
 ****
 Centers:       3      7      9     11
 S 8 1.00
     Exponent=  6.7025071029D+04 Coefficients=  3.8736308501D-05
     Exponent=  1.0039986538D+04 Coefficients=  3.0107917575D-04
     Exponent=  2.2849316911D+03 Coefficients=  1.5787918095D-03
     Exponent=  6.4714122130D+02 Coefficients=  6.6087087195D-03
     Exponent=  2.1109472335D+02 Coefficients=  2.3367123250D-02
     Exponent=  7.6177643862D+01 Coefficients=  7.0420716898D-02
     Exponent=  2.9633839163D+01 Coefficients=  1.7360344953D-01
     Exponent=  1.2187785081D+01 Coefficients=  3.2292305648D-01
 S 2 1.00
     Exponent=  5.3026006299D+01 Coefficients=  7.4897404492D-02
     Exponent=  1.5258502776D+01 Coefficients=  7.6136220983D-01
 S 1 1.00
     Exponent=  5.2403957464D+00 Coefficients=  1.0000000000D+00
 S 1 1.00
     Exponent=  2.2905022379D+00 Coefficients=  1.0000000000D+00
 S 1 1.00
     Exponent=  6.9673283006D-01 Coefficients=  1.0000000000D+00
 S 1 1.00
     Exponent=  2.7599337363D-01 Coefficients=  1.0000000000D+00
 S 1 1.00
     Exponent=  1.0739884389D-01 Coefficients=  1.0000000000D+00
 S 1 1.00
     Exponent=  4.4981404899D-02 Coefficients=  1.0000000000D+00
 P 5 1.00
     Exponent=  1.0512555082D+02 Coefficients=  8.4647553844D-04
     Exponent=  2.4884461066D+01 Coefficients=  6.6274038534D-03
     Exponent=  7.8637230826D+00 Coefficients=  3.0120390419D-02
     Exponent=  2.8407001835D+00 Coefficients=  9.9951435476D-02
     Exponent=  1.1227137335D+00 Coefficients=  2.3826299282D-01
 P 1 1.00
     Exponent=  4.6050725555D-01 Coefficients=  1.0000000000D+00
 P 1 1.00
     Exponent=  1.8937530913D-01 Coefficients=  1.0000000000D+00
 P 1 1.00
     Exponent=  7.5983791611D-02 Coefficients=  1.0000000000D+00
 D 1 1.00
     Exponent=  1.8480000000D+00 Coefficients=  1.0000000000D+00
 D 1 1.00
     Exponent=  6.4900000000D-01 Coefficients=  1.0000000000D+00
 D 1 1.00
     Exponent=  2.2800000000D-01 Coefficients=  1.0000000000D+00
 D 1 1.00
     Exponent=  7.6889830417D-02 Coefficients=  1.0000000000D+00
 F 1 1.00
     Exponent=  1.4190000000D+00 Coefficients=  1.0000000000D+00
 F 1 1.00
     Exponent=  4.8500000000D-01 Coefficients=  1.0000000000D+00
 G 1 1.00
     Exponent=  1.0110000000D+00 Coefficients=  1.0000000000D+00
 ****
 Centers:       1      5
 S 8 1.00
     Exponent=  9.0726889210D+04 Coefficients=  3.9257887368D-05
     Exponent=  1.3590528801D+04 Coefficients=  3.0513316455D-04
     Exponent=  3.0929883781D+03 Coefficients=  1.6000560446D-03
     Exponent=  8.7599876362D+02 Coefficients=  6.6982937306D-03
     Exponent=  2.8574469982D+02 Coefficients=  2.3690078765D-02
     Exponent=  1.0311913417D+02 Coefficients=  7.1455405268D-02
     Exponent=  4.0128556777D+01 Coefficients=  1.7632774876D-01
     Exponent=  1.6528095704D+01 Coefficients=  3.2677592815D-01
 S 2 1.00
     Exponent=  6.9390960983D+01 Coefficients=  8.0052094386D-02
     Exponent=  2.0428200596D+01 Coefficients=  7.8268063538D-01
 S 1 1.00
     Exponent=  7.1292587972D+00 Coefficients=  1.0000000000D+00
 S 1 1.00
     Exponent=  3.1324304893D+00 Coefficients=  1.0000000000D+00
 S 1 1.00
     Exponent=  9.8755778723D-01 Coefficients=  1.0000000000D+00
 S 1 1.00
     Exponent=  3.8765721307D-01 Coefficients=  1.0000000000D+00
 S 1 1.00
     Exponent=  1.4909883075D-01 Coefficients=  1.0000000000D+00
 S 1 1.00
     Exponent=  6.2151630318D-02 Coefficients=  1.0000000000D+00
 P 5 1.00
     Exponent=  1.5005742670D+02 Coefficients= -8.6216165986D-04
     Exponent=  3.5491599483D+01 Coefficients= -6.8571273236D-03
     Exponent=  1.1247864223D+01 Coefficients= -3.1795688855D-02
     Exponent=  4.0900305195D+00 Coefficients= -1.0537396822D-01
     Exponent=  1.6220573146D+00 Coefficients= -2.4519708041D-01
 P 1 1.00
     Exponent=  6.6442261530D-01 Coefficients=  1.0000000000D+00
 P 1 1.00
     Exponent=  2.7099770070D-01 Coefficients=  1.0000000000D+00
 P 1 1.00
     Exponent=  1.0688749984D-01 Coefficients=  1.0000000000D+00
 D 1 1.00
     Exponent=  2.8370000000D+00 Coefficients=  1.0000000000D+00
 D 1 1.00
     Exponent=  9.6800000000D-01 Coefficients=  1.0000000000D+00
 D 1 1.00
     Exponent=  3.3500000000D-01 Coefficients=  1.0000000000D+00
 D 1 1.00
     Exponent=  1.0825280010D-01 Coefficients=  1.0000000000D+00
 F 1 1.00
     Exponent=  2.0270000000D+00 Coefficients=  1.0000000000D+00
 F 1 1.00
     Exponent=  6.8500000000D-01 Coefficients=  1.0000000000D+00
 G 1 1.00
     Exponent=  1.4270000000D+00 Coefficients=  1.0000000000D+00
 ****
 Centers:       4     12
 S 8 1.00
     Exponent=  1.1650646908D+05 Coefficients=  4.0383857939D-05
     Exponent=  1.7504349724D+04 Coefficients=  3.1255139004D-04
     Exponent=  3.9934513230D+03 Coefficients=  1.6341473495D-03
     Exponent=  1.1330063186D+03 Coefficients=  6.8283224757D-03
     Exponent=  3.6999569594D+02 Coefficients=  2.4124410221D-02
     Exponent=  1.3362074349D+02 Coefficients=  7.2730206154D-02
     Exponent=  5.2035643649D+01 Coefficients=  1.7934429892D-01
     Exponent=  2.1461939313D+01 Coefficients=  3.3059588895D-01
 S 2 1.00
     Exponent=  8.9835051252D+01 Coefficients=  9.6468652996D-02
     Exponent=  2.6428010844D+01 Coefficients=  9.4117481120D-01
 S 1 1.00
     Exponent=  9.2822824649D+00 Coefficients=  1.0000000000D+00
 S 1 1.00
     Exponent=  4.0947728533D+00 Coefficients=  1.0000000000D+00
 S 1 1.00
     Exponent=  1.3255349078D+00 Coefficients=  1.0000000000D+00
 S 1 1.00
     Exponent=  5.1877230787D-01 Coefficients=  1.0000000000D+00
 S 1 1.00
     Exponent=  1.9772676454D-01 Coefficients=  1.0000000000D+00
 S 1 1.00
     Exponent=  6.9638535104D-02 Coefficients=  1.0000000000D+00
 P 5 1.00
     Exponent=  1.9115255810D+02 Coefficients=  2.5115697705D-03
     Exponent=  4.5233356739D+01 Coefficients=  2.0039240864D-02
     Exponent=  1.4353465922D+01 Coefficients=  9.3609064762D-02
     Exponent=  5.2422371832D+00 Coefficients=  3.0618127124D-01
     Exponent=  2.0792418599D+00 Coefficients=  6.7810501439D-01
 P 1 1.00
     Exponent=  8.4282371424D-01 Coefficients=  1.0000000000D+00
 P 1 1.00
     Exponent=  3.3617694891D-01 Coefficients=  1.0000000000D+00
 P 1 1.00
     Exponent=  1.2863997974D-01 Coefficients=  1.0000000000D+00
 P 1 1.00
     Exponent=  4.3598162776D-02 Coefficients=  1.0000000000D+00
 D 1 1.00
     Exponent=  3.7750000000D+00 Coefficients=  1.0000000000D+00
 D 1 1.00
     Exponent=  1.3000000000D+00 Coefficients=  1.0000000000D+00
 D 1 1.00
     Exponent=  4.4400000000D-01 Coefficients=  1.0000000000D+00
 D 1 1.00
     Exponent=  1.2546378695D-01 Coefficients=  1.0000000000D+00
 F 1 1.00
     Exponent=  2.6660000000D+00 Coefficients=  1.0000000000D+00
 F 1 1.00
     Exponent=  8.5900000000D-01 Coefficients=  1.0000000000D+00
 G 1 1.00
     Exponent=  1.8460000000D+00 Coefficients=  1.0000000000D+00
 ****
 Ernie: Thresh=  0.10000D-02 Tol=  0.10000D-05 Strict=F.
 There are   790 symmetry adapted cartesian basis functions of A   symmetry.
 There are   642 symmetry adapted basis functions of A   symmetry.
   642 basis functions,   962 primitive gaussians,   790 cartesian basis functions
    29 alpha electrons       29 beta electrons
       nuclear repulsion energy       357.1602752498 Hartrees.
 IExCor= 4336 DFT=T Ex+Corr=M062X ExCW=0 ScaHFX=  0.540000
 ScaDFX=  1.000000  1.000000  1.000000  1.000000 ScalE2=  1.000000  1.000000
 IRadAn=      5 IRanWt=     -1 IRanGd=            0 ICorTp=0 IEmpDi=  4
 NAtoms=   12 NActive=   12 NUniq=   12 SFac= 1.00D+00 NAtFMM=   60 NAOKFM=F Big=F
 Integral buffers will be    131072 words long.
 Raffenetti 2 integral format.
 Two-electron integral symmetry is turned on.
 Leave Link  301 at Sun Apr 18 01:12:57 2021, MaxMem=   104857600 cpu:              11.7 elap:               0.3
 (Enter /s/ls4/users/knvvv/bin/g16sse/l302.exe)
 NPDir=0 NMtPBC=     1 NCelOv=     1 NCel=       1 NClECP=     1 NCelD=      1
         NCelK=      1 NCelE2=     1 NClLst=     1 CellRange=     0.0.
 One-electron integrals computed using PRISM.
 One-electron integral symmetry used in STVInt
 PrsmSu:  requested number of processors reduced to:   4 ShMem   1 Linda.
 PrsmSu:  requested number of processors reduced to:  19 ShMem   1 Linda.
 NBasis=   642 RedAO= T EigKep=  1.16D-06  NBF=   642
 NBsUse=   641 1.00D-06 EigRej=  1.73D-07 NBFU=   641
 Precomputing XC quadrature grid using
 IXCGrd= 4 IRadAn=           5 IRanWt=          -1 IRanGd=           0 AccXCQ= 0.00D+00.
 Generated NRdTot=       0 NPtTot=           0 NUsed=           0 NTot=          32
 NSgBfM=   787   787   787   787   787 MxSgAt=    12 MxSgA2=    12.
 Leave Link  302 at Sun Apr 18 01:13:09 2021, MaxMem=   104857600 cpu:             559.1 elap:              12.0
 (Enter /s/ls4/users/knvvv/bin/g16sse/l303.exe)
 DipDrv:  MaxL=1.
 Leave Link  303 at Sun Apr 18 01:13:16 2021, MaxMem=   104857600 cpu:             324.1 elap:               6.9
 (Enter /s/ls4/users/knvvv/bin/g16sse/l401.exe)
 SCF N**3 symmetry information disabled.
 ExpMin= 4.36D-02 ExpMax= 1.17D+05 ExpMxC= 1.13D+03 IAcc=3 IRadAn=         5 AccDes= 0.00D+00
 Harris functional with IExCor= 1009 and IRadAn=       5 diagonalized for initial guess.
 HarFok:  IExCor= 1009 AccDes= 0.00D+00 IRadAn=         5 IDoV= 1 UseB2=F ITyADJ=14
 ICtDFT=  3500011 ScaDFX=  1.000000  1.000000  1.000000  1.000000
 FoFCou: FMM=F IPFlag=           0 FMFlag=      100000 FMFlg1=           0
         NFxFlg=           0 DoJE=T BraDBF=F KetDBF=T FulRan=T
         wScrn=  0.000000 ICntrl=       500 IOpCl=  0 I1Cent=   200000004 NGrid=           0
         NMat0=    1 NMatS0=      1 NMatT0=    0 NMatD0=    1 NMtDS0=    0 NMtDT0=    0
 Petite list used in FoFCou.
 CoulSu:  requested number of processors reduced to:  17 ShMem   1 Linda.
 CoulSu:  requested number of processors reduced to:  18 ShMem   1 Linda.
 CoulSu:  requested number of processors reduced to:  21 ShMem   1 Linda.
 CoulSu:  requested number of processors reduced to:  21 ShMem   1 Linda.
 Harris En= -414.656372858789    
 JPrj=0 DoOrth=F DoCkMO=F.
 Leave Link  401 at Sun Apr 18 01:13:24 2021, MaxMem=   104857600 cpu:             373.3 elap:               8.2
 (Enter /s/ls4/users/knvvv/bin/g16sse/l502.exe)
 Integral symmetry usage will be decided dynamically.
 Closed shell SCF:
 Using DIIS extrapolation, IDIIS=  1040.
 NGot=   104857600 LenX=   103565380 LenY=   102940490
 Requested convergence on RMS density matrix=1.00D-08 within 128 cycles.
 Requested convergence on MAX density matrix=1.00D-06.
 Requested convergence on             energy=1.00D-06.
 No special actions if energy rises.
 Fock matrices will be formed incrementally for  20 cycles.

 Cycle   1  Pass 1  IDiag  1:
 FoFJK:  IHMeth= 1 ICntrl=       0 DoSepK=F KAlg= 0 I1Cent=           0 FoldK=F
 IRaf= 940000000 NMat=       1 IRICut=       1 DoRegI=T DoRafI=F ISym2E= 0 IDoP0=0 IntGTp=1.
 FoFCou: FMM=F IPFlag=           0 FMFlag=      100000 FMFlg1=           0
         NFxFlg=           0 DoJE=F BraDBF=F KetDBF=F FulRan=T
         wScrn=  0.000000 ICntrl=         0 IOpCl=  0 I1Cent=           0 NGrid=           0
         NMat0=    1 NMatS0=      1 NMatT0=    0 NMatD0=    1 NMtDS0=    0 NMtDT0=    0
 Symmetry not used in FoFCou.
 CoulSu:  requested number of processors reduced to:  19 ShMem   1 Linda.
 E= -414.614914307608    
 DIIS: error= 3.24D-02 at cycle   1 NSaved=   1.
 NSaved= 1 IEnMin= 1 EnMin= -414.614914307608     IErMin= 1 ErrMin= 3.24D-02
 ErrMax= 3.24D-02  0.00D+00 EMaxC= 1.00D-01 BMatC= 5.10D-01 BMatP= 5.10D-01
 IDIUse=3 WtCom= 6.76D-01 WtEn= 3.24D-01
 Coeff-Com:  0.100D+01
 Coeff-En:   0.100D+01
 Coeff:      0.100D+01
 Gap=     0.268 Goal=   None    Shift=    0.000
 GapD=    0.268 DampG=1.000 DampE=0.500 DampFc=0.5000 IDamp=-1.
 Damping current iteration by 5.00D-01
 RMSDP=1.97D-03 MaxDP=1.53D-01              OVMax= 2.95D-01

 Cycle   2  Pass 1  IDiag  1:
 RMSU=  9.15D-04    CP:  9.17D-01
 CoulSu:  requested number of processors reduced to:  19 ShMem   1 Linda.
 E= -414.703819768608     Delta-E=       -0.088905461000 Rises=F Damp=T
 DIIS: error= 1.84D-02 at cycle   2 NSaved=   2.
 NSaved= 2 IEnMin= 2 EnMin= -414.703819768608     IErMin= 2 ErrMin= 1.84D-02
 ErrMax= 1.84D-02  0.00D+00 EMaxC= 1.00D-01 BMatC= 8.64D-02 BMatP= 5.10D-01
 IDIUse=3 WtCom= 8.16D-01 WtEn= 1.84D-01
 Coeff-Com:  0.277D-01 0.972D+00
 Coeff-En:   0.228D+00 0.772D+00
 Coeff:      0.646D-01 0.935D+00
 Gap=     0.361 Goal=   None    Shift=    0.000
 RMSDP=1.12D-03 MaxDP=8.27D-02 DE=-8.89D-02 OVMax= 1.53D-01

 Cycle   3  Pass 1  IDiag  1:
 RMSU=  8.96D-04    CP:  8.17D-01  1.56D+00
 CoulSu:  requested number of processors reduced to:  19 ShMem   1 Linda.
 E= -414.828619328744     Delta-E=       -0.124799560136 Rises=F Damp=F
 DIIS: error= 7.94D-03 at cycle   3 NSaved=   3.
 NSaved= 3 IEnMin= 3 EnMin= -414.828619328744     IErMin= 3 ErrMin= 7.94D-03
 ErrMax= 7.94D-03  0.00D+00 EMaxC= 1.00D-01 BMatC= 4.26D-02 BMatP= 8.64D-02
 IDIUse=3 WtCom= 9.21D-01 WtEn= 7.94D-02
 Coeff-Com: -0.124D+00 0.448D+00 0.675D+00
 Coeff-En:   0.000D+00 0.000D+00 0.100D+01
 Coeff:     -0.114D+00 0.413D+00 0.701D+00
 Gap=     0.325 Goal=   None    Shift=    0.000
 RMSDP=3.52D-04 MaxDP=3.36D-02 DE=-1.25D-01 OVMax= 6.66D-02

 Cycle   4  Pass 1  IDiag  1:
 RMSU=  3.40D-04    CP:  8.05D-01  1.64D+00  1.01D+00
 CoulSu:  requested number of processors reduced to:  19 ShMem   1 Linda.
 E= -414.855028410507     Delta-E=       -0.026409081763 Rises=F Damp=F
 DIIS: error= 4.32D-03 at cycle   4 NSaved=   4.
 NSaved= 4 IEnMin= 4 EnMin= -414.855028410507     IErMin= 4 ErrMin= 4.32D-03
 ErrMax= 4.32D-03  0.00D+00 EMaxC= 1.00D-01 BMatC= 7.32D-03 BMatP= 4.26D-02
 IDIUse=3 WtCom= 9.57D-01 WtEn= 4.32D-02
 Coeff-Com: -0.501D-01 0.113D+00 0.362D+00 0.576D+00
 Coeff-En:   0.000D+00 0.000D+00 0.143D+00 0.857D+00
 Coeff:     -0.479D-01 0.108D+00 0.352D+00 0.588D+00
 Gap=     0.295 Goal=   None    Shift=    0.000
 RMSDP=1.13D-04 MaxDP=8.59D-03 DE=-2.64D-02 OVMax= 1.81D-02

 Cycle   5  Pass 1  IDiag  1:
 RMSU=  7.43D-05    CP:  8.03D-01  1.64D+00  9.94D-01  7.55D-01
 CoulSu:  requested number of processors reduced to:  19 ShMem   1 Linda.
 E= -414.860719236730     Delta-E=       -0.005690826223 Rises=F Damp=F
 DIIS: error= 3.50D-04 at cycle   5 NSaved=   5.
 NSaved= 5 IEnMin= 5 EnMin= -414.860719236730     IErMin= 5 ErrMin= 3.50D-04
 ErrMax= 3.50D-04  0.00D+00 EMaxC= 1.00D-01 BMatC= 1.03D-04 BMatP= 7.32D-03
 IDIUse=3 WtCom= 9.97D-01 WtEn= 3.50D-03
 Coeff-Com: -0.137D-01 0.272D-01 0.102D+00 0.208D+00 0.676D+00
 Coeff-En:   0.000D+00 0.000D+00 0.000D+00 0.000D+00 0.100D+01
 Coeff:     -0.137D-01 0.271D-01 0.102D+00 0.207D+00 0.677D+00
 Gap=     0.295 Goal=   None    Shift=    0.000
 RMSDP=2.48D-05 MaxDP=2.16D-03 DE=-5.69D-03 OVMax= 3.47D-03

 Cycle   6  Pass 1  IDiag  1:
 RMSU=  2.13D-05    CP:  8.02D-01  1.64D+00  9.88D-01  7.57D-01  1.15D+00
 CoulSu:  requested number of processors reduced to:  19 ShMem   1 Linda.
 E= -414.860798354554     Delta-E=       -0.000079117823 Rises=F Damp=F
 DIIS: error= 1.68D-04 at cycle   6 NSaved=   6.
 NSaved= 6 IEnMin= 6 EnMin= -414.860798354554     IErMin= 6 ErrMin= 1.68D-04
 ErrMax= 1.68D-04  0.00D+00 EMaxC= 1.00D-01 BMatC= 2.01D-05 BMatP= 1.03D-04
 IDIUse=3 WtCom= 9.98D-01 WtEn= 1.68D-03
 Coeff-Com:  0.168D-03-0.166D-02 0.710D-03 0.182D-01 0.317D+00 0.665D+00
 Coeff-En:   0.000D+00 0.000D+00 0.000D+00 0.000D+00 0.000D+00 0.100D+01
 Coeff:      0.168D-03-0.166D-02 0.708D-03 0.182D-01 0.317D+00 0.666D+00
 Gap=     0.296 Goal=   None    Shift=    0.000
 RMSDP=1.03D-05 MaxDP=5.76D-04 DE=-7.91D-05 OVMax= 2.34D-03

 Cycle   7  Pass 1  IDiag  1:
 RMSU=  8.44D-06    CP:  8.02D-01  1.64D+00  9.87D-01  7.60D-01  1.22D+00
                    CP:  1.09D+00
 CoulSu:  requested number of processors reduced to:  19 ShMem   1 Linda.
 E= -414.860816794237     Delta-E=       -0.000018439683 Rises=F Damp=F
 DIIS: error= 4.74D-05 at cycle   7 NSaved=   7.
 NSaved= 7 IEnMin= 7 EnMin= -414.860816794237     IErMin= 7 ErrMin= 4.74D-05
 ErrMax= 4.74D-05  0.00D+00 EMaxC= 1.00D-01 BMatC= 2.88D-06 BMatP= 2.01D-05
 IDIUse=1 WtCom= 1.00D+00 WtEn= 0.00D+00
 Coeff-Com:  0.269D-02-0.591D-02-0.174D-01-0.317D-01 0.179D-01 0.279D+00
 Coeff-Com:  0.756D+00
 Coeff:      0.269D-02-0.591D-02-0.174D-01-0.317D-01 0.179D-01 0.279D+00
 Coeff:      0.756D+00
 Gap=     0.296 Goal=   None    Shift=    0.000
 RMSDP=5.07D-06 MaxDP=4.20D-04 DE=-1.84D-05 OVMax= 7.22D-04

 Cycle   8  Pass 1  IDiag  1:
 RMSU=  3.16D-06    CP:  8.02D-01  1.64D+00  9.87D-01  7.63D-01  1.25D+00
                    CP:  1.21D+00  1.16D+00
 CoulSu:  requested number of processors reduced to:  19 ShMem   1 Linda.
 E= -414.860819763794     Delta-E=       -0.000002969557 Rises=F Damp=F
 DIIS: error= 3.01D-05 at cycle   8 NSaved=   8.
 NSaved= 8 IEnMin= 8 EnMin= -414.860819763794     IErMin= 8 ErrMin= 3.01D-05
 ErrMax= 3.01D-05  0.00D+00 EMaxC= 1.00D-01 BMatC= 4.08D-07 BMatP= 2.88D-06
 IDIUse=1 WtCom= 1.00D+00 WtEn= 0.00D+00
 Coeff-Com:  0.104D-02-0.213D-02-0.562D-02-0.140D-01-0.296D-01 0.291D-01
 Coeff-Com:  0.298D+00 0.723D+00
 Coeff:      0.104D-02-0.213D-02-0.562D-02-0.140D-01-0.296D-01 0.291D-01
 Coeff:      0.298D+00 0.723D+00
 Gap=     0.296 Goal=   None    Shift=    0.000
 RMSDP=1.84D-06 MaxDP=1.02D-04 DE=-2.97D-06 OVMax= 2.57D-04

 Cycle   9  Pass 1  IDiag  1:
 RMSU=  1.45D-06    CP:  8.02D-01  1.64D+00  9.87D-01  7.63D-01  1.25D+00
                    CP:  1.23D+00  1.21D+00  1.28D+00
 CoulSu:  requested number of processors reduced to:  19 ShMem   1 Linda.
 E= -414.860820202435     Delta-E=       -0.000000438641 Rises=F Damp=F
 DIIS: error= 6.98D-06 at cycle   9 NSaved=   9.
 NSaved= 9 IEnMin= 9 EnMin= -414.860820202435     IErMin= 9 ErrMin= 6.98D-06
 ErrMax= 6.98D-06  0.00D+00 EMaxC= 1.00D-01 BMatC= 4.45D-08 BMatP= 4.08D-07
 IDIUse=1 WtCom= 1.00D+00 WtEn= 0.00D+00
 Coeff-Com:  0.636D-05 0.237D-04 0.747D-03-0.403D-03-0.120D-01-0.260D-01
 Coeff-Com: -0.993D-02 0.219D+00 0.829D+00
 Coeff:      0.636D-05 0.237D-04 0.747D-03-0.403D-03-0.120D-01-0.260D-01
 Coeff:     -0.993D-02 0.219D+00 0.829D+00
 Gap=     0.296 Goal=   None    Shift=    0.000
 RMSDP=9.20D-07 MaxDP=6.64D-05 DE=-4.39D-07 OVMax= 1.64D-04

 Cycle  10  Pass 1  IDiag  1:
 RMSU=  5.15D-07    CP:  8.02D-01  1.64D+00  9.87D-01  7.63D-01  1.25D+00
                    CP:  1.24D+00  1.24D+00  1.46D+00  1.24D+00
 CoulSu:  requested number of processors reduced to:  19 ShMem   1 Linda.
 E= -414.860820252398     Delta-E=       -0.000000049964 Rises=F Damp=F
 DIIS: error= 3.02D-06 at cycle  10 NSaved=  10.
 NSaved=10 IEnMin=10 EnMin= -414.860820252398     IErMin=10 ErrMin= 3.02D-06
 ErrMax= 3.02D-06  0.00D+00 EMaxC= 1.00D-01 BMatC= 8.69D-09 BMatP= 4.45D-08
 IDIUse=1 WtCom= 1.00D+00 WtEn= 0.00D+00
 Coeff-Com: -0.124D-03 0.269D-03 0.107D-02 0.147D-02-0.299D-02-0.171D-01
 Coeff-Com: -0.441D-01 0.817D-02 0.384D+00 0.669D+00
 Coeff:     -0.124D-03 0.269D-03 0.107D-02 0.147D-02-0.299D-02-0.171D-01
 Coeff:     -0.441D-01 0.817D-02 0.384D+00 0.669D+00
 Gap=     0.296 Goal=   None    Shift=    0.000
 RMSDP=2.98D-07 MaxDP=2.99D-05 DE=-5.00D-08 OVMax= 3.86D-05

 Cycle  11  Pass 1  IDiag  1:
 RMSU=  1.44D-07    CP:  8.02D-01  1.64D+00  9.87D-01  7.63D-01  1.25D+00
                    CP:  1.24D+00  1.25D+00  1.51D+00  1.34D+00  1.01D+00
 CoulSu:  requested number of processors reduced to:  19 ShMem   1 Linda.
 E= -414.860820260650     Delta-E=       -0.000000008252 Rises=F Damp=F
 DIIS: error= 1.06D-06 at cycle  11 NSaved=  11.
 NSaved=11 IEnMin=11 EnMin= -414.860820260650     IErMin=11 ErrMin= 1.06D-06
 ErrMax= 1.06D-06  0.00D+00 EMaxC= 1.00D-01 BMatC= 6.71D-10 BMatP= 8.69D-09
 IDIUse=1 WtCom= 1.00D+00 WtEn= 0.00D+00
 Coeff-Com: -0.365D-04 0.757D-04 0.284D-03 0.498D-03 0.129D-03-0.265D-02
 Coeff-Com: -0.126D-01-0.188D-01 0.482D-01 0.258D+00 0.727D+00
 Coeff:     -0.365D-04 0.757D-04 0.284D-03 0.498D-03 0.129D-03-0.265D-02
 Coeff:     -0.126D-01-0.188D-01 0.482D-01 0.258D+00 0.727D+00
 Gap=     0.296 Goal=   None    Shift=    0.000
 RMSDP=5.81D-08 MaxDP=5.80D-06 DE=-8.25D-09 OVMax= 1.83D-05

 Cycle  12  Pass 1  IDiag  1:
 RMSU=  4.94D-08    CP:  8.02D-01  1.64D+00  9.87D-01  7.63D-01  1.25D+00
                    CP:  1.24D+00  1.25D+00  1.51D+00  1.35D+00  1.03D+00
                    CP:  1.11D+00
 CoulSu:  requested number of processors reduced to:  19 ShMem   1 Linda.
 E= -414.860820261273     Delta-E=       -0.000000000623 Rises=F Damp=F
 DIIS: error= 3.48D-07 at cycle  12 NSaved=  12.
 NSaved=12 IEnMin=12 EnMin= -414.860820261273     IErMin=12 ErrMin= 3.48D-07
 ErrMax= 3.48D-07  0.00D+00 EMaxC= 1.00D-01 BMatC= 1.04D-10 BMatP= 6.71D-10
 IDIUse=1 WtCom= 1.00D+00 WtEn= 0.00D+00
 Coeff-Com: -0.418D-05 0.823D-05 0.416D-04 0.957D-04 0.269D-03 0.219D-03
 Coeff-Com: -0.202D-02-0.945D-02-0.129D-01 0.553D-01 0.336D+00 0.633D+00
 Coeff:     -0.418D-05 0.823D-05 0.416D-04 0.957D-04 0.269D-03 0.219D-03
 Coeff:     -0.202D-02-0.945D-02-0.129D-01 0.553D-01 0.336D+00 0.633D+00
 Gap=     0.296 Goal=   None    Shift=    0.000
 RMSDP=1.96D-08 MaxDP=1.74D-06 DE=-6.23D-10 OVMax= 2.71D-06

 Cycle  13  Pass 1  IDiag  1:
 RMSU=  1.62D-08    CP:  8.02D-01  1.64D+00  9.87D-01  7.63D-01  1.25D+00
                    CP:  1.24D+00  1.25D+00  1.51D+00  1.35D+00  1.04D+00
                    CP:  1.16D+00  1.08D+00
 CoulSu:  requested number of processors reduced to:  19 ShMem   1 Linda.
 E= -414.860820261376     Delta-E=       -0.000000000103 Rises=F Damp=F
 DIIS: error= 1.03D-07 at cycle  13 NSaved=  13.
 NSaved=13 IEnMin=13 EnMin= -414.860820261376     IErMin=13 ErrMin= 1.03D-07
 ErrMax= 1.03D-07  0.00D+00 EMaxC= 1.00D-01 BMatC= 7.00D-12 BMatP= 1.04D-10
 IDIUse=1 WtCom= 1.00D+00 WtEn= 0.00D+00
 Coeff-Com:  0.429D-05-0.884D-05-0.186D-04-0.312D-04 0.608D-04 0.399D-03
 Coeff-Com:  0.104D-02-0.209D-03-0.989D-02-0.228D-01-0.166D-02 0.132D+00
 Coeff-Com:  0.901D+00
 Coeff:      0.429D-05-0.884D-05-0.186D-04-0.312D-04 0.608D-04 0.399D-03
 Coeff:      0.104D-02-0.209D-03-0.989D-02-0.228D-01-0.166D-02 0.132D+00
 Coeff:      0.901D+00
 Gap=     0.296 Goal=   None    Shift=    0.000
 RMSDP=1.02D-08 MaxDP=1.03D-06 DE=-1.03D-10 OVMax= 1.94D-06

 Cycle  14  Pass 1  IDiag  1:
 RMSU=  5.48D-09    CP:  8.02D-01  1.64D+00  9.87D-01  7.63D-01  1.25D+00
                    CP:  1.24D+00  1.25D+00  1.51D+00  1.35D+00  1.04D+00
                    CP:  1.20D+00  1.20D+00  1.17D+00
 CoulSu:  requested number of processors reduced to:  19 ShMem   1 Linda.
 E= -414.860820261390     Delta-E=       -0.000000000014 Rises=F Damp=F
 DIIS: error= 3.14D-08 at cycle  14 NSaved=  14.
 NSaved=14 IEnMin=14 EnMin= -414.860820261390     IErMin=14 ErrMin= 3.14D-08
 ErrMax= 3.14D-08  0.00D+00 EMaxC= 1.00D-01 BMatC= 7.25D-13 BMatP= 7.00D-12
 IDIUse=1 WtCom= 1.00D+00 WtEn= 0.00D+00
 Coeff-Com:  0.184D-05-0.381D-05-0.861D-05-0.162D-04-0.128D-05 0.125D-03
 Coeff-Com:  0.494D-03 0.461D-03-0.265D-02-0.122D-01-0.226D-01-0.550D-02
 Coeff-Com:  0.354D+00 0.688D+00
 Coeff:      0.184D-05-0.381D-05-0.861D-05-0.162D-04-0.128D-05 0.125D-03
 Coeff:      0.494D-03 0.461D-03-0.265D-02-0.122D-01-0.226D-01-0.550D-02
 Coeff:      0.354D+00 0.688D+00
 Gap=     0.296 Goal=   None    Shift=    0.000
 RMSDP=2.45D-09 MaxDP=2.51D-07 DE=-1.36D-11 OVMax= 2.94D-07

 SCF Done:  E(RM062X) =  -414.860820261     A.U. after   14 cycles
            NFock= 14  Conv=0.24D-08     -V/T= 2.0039
 KE= 4.132346051126D+02 PE=-1.684666810166D+03 EE= 4.994111095421D+02
 Leave Link  502 at Sun Apr 18 01:23:02 2021, MaxMem=   104857600 cpu:           13751.3 elap:             577.9
 (Enter /s/ls4/users/knvvv/bin/g16sse/l601.exe)
 Copying SCF densities to generalized density rwf, IOpCl= 0 IROHF=0.

 **********************************************************************

            Population analysis using the SCF density.

 **********************************************************************

 Orbital symmetries:
       Occupied  (A) (A) (A) (A) (A) (A) (A) (A) (A) (A) (A) (A)
                 (A) (A) (A) (A) (A) (A) (A) (A) (A) (A) (A) (A)
                 (A) (A) (A) (A) (A)
       Virtual   (A) (A) (A) (A) (A) (A) (A) (A) (A) (A) (A) (A)
                 (A) (A) (A) (A) (A) (A) (A) (A) (A) (A) (A) (A)
                 (A) (A) (A) (A) (A) (A) (A) (A) (A) (A) (A) (A)
                 (A) (A) (A) (A) (A) (A) (A) (A) (A) (A) (A) (A)
                 (A) (A) (A) (A) (A) (A) (A) (A) (A) (A) (A) (A)
                 (A) (A) (A) (A) (A) (A) (A) (A) (A) (A) (A) (A)
                 (A) (A) (A) (A) (A) (A) (A) (A) (A) (A) (A) (A)
                 (A) (A) (A) (A) (A) (A) (A) (A) (A) (A) (A) (A)
                 (A) (A) (A) (A) (A) (A) (A) (A) (A) (A) (A) (A)
                 (A) (A) (A) (A) (A) (A) (A) (A) (A) (A) (A) (A)
                 (A) (A) (A) (A) (A) (A) (A) (A) (A) (A) (A) (A)
                 (A) (A) (A) (A) (A) (A) (A) (A) (A) (A) (A) (A)
                 (A) (A) (A) (A) (A) (A) (A) (A) (A) (A) (A) (A)
                 (A) (A) (A) (A) (A) (A) (A) (A) (A) (A) (A) (A)
                 (A) (A) (A) (A) (A) (A) (A) (A) (A) (A) (A) (A)
                 (A) (A) (A) (A) (A) (A) (A) (A) (A) (A) (A) (A)
                 (A) (A) (A) (A) (A) (A) (A) (A) (A) (A) (A) (A)
                 (A) (A) (A) (A) (A) (A) (A) (A) (A) (A) (A) (A)
                 (A) (A) (A) (A) (A) (A) (A) (A) (A) (A) (A) (A)
                 (A) (A) (A) (A) (A) (A) (A) (A) (A) (A) (A) (A)
                 (A) (A) (A) (A) (A) (A) (A) (A) (A) (A) (A) (A)
                 (A) (A) (A) (A) (A) (A) (A) (A) (A) (A) (A) (A)
                 (A) (A) (A) (A) (A) (A) (A) (A) (A) (A) (A) (A)
                 (A) (A) (A) (A) (A) (A) (A) (A) (A) (A) (A) (A)
                 (A) (A) (A) (A) (A) (A) (A) (A) (A) (A) (A) (A)
                 (A) (A) (A) (A) (A) (A) (A) (A) (A) (A) (A) (A)
                 (A) (A) (A) (A) (A) (A) (A) (A) (A) (A) (A) (A)
                 (A) (A) (A) (A) (A) (A) (A) (A) (A) (A) (A) (A)
                 (A) (A) (A) (A) (A) (A) (A) (A) (A) (A) (A) (A)
                 (A) (A) (A) (A) (A) (A) (A) (A) (A) (A) (A) (A)
                 (A) (A) (A) (A) (A) (A) (A) (A) (A) (A) (A) (A)
                 (A) (A) (A) (A) (A) (A) (A) (A) (A) (A) (A) (A)
                 (A) (A) (A) (A) (A) (A) (A) (A) (A) (A) (A) (A)
                 (A) (A) (A) (A) (A) (A) (A) (A) (A) (A) (A) (A)
                 (A) (A) (A) (A) (A) (A) (A) (A) (A) (A) (A) (A)
                 (A) (A) (A) (A) (A) (A) (A) (A) (A) (A) (A) (A)
                 (A) (A) (A) (A) (A) (A) (A) (A) (A) (A) (A) (A)
                 (A) (A) (A) (A) (A) (A) (A) (A) (A) (A) (A) (A)
                 (A) (A) (A) (A) (A) (A) (A) (A) (A) (A) (A) (A)
                 (A) (A) (A) (A) (A) (A) (A) (A) (A) (A) (A) (A)
                 (A) (A) (A) (A) (A) (A) (A) (A) (A) (A) (A) (A)
                 (A) (A) (A) (A) (A) (A) (A) (A) (A) (A) (A) (A)
                 (A) (A) (A) (A) (A) (A) (A) (A) (A) (A) (A) (A)
                 (A) (A) (A) (A) (A) (A) (A) (A) (A) (A) (A) (A)
                 (A) (A) (A) (A) (A) (A) (A) (A) (A) (A) (A) (A)
                 (A) (A) (A) (A) (A) (A) (A) (A) (A) (A) (A) (A)
                 (A) (A) (A) (A) (A) (A) (A) (A) (A) (A) (A) (A)
                 (A) (A) (A) (A) (A) (A) (A) (A) (A) (A) (A) (A)
                 (A) (A) (A) (A) (A) (A) (A) (A) (A) (A) (A) (A)
                 (A) (A) (A) (A) (A) (A) (A) (A) (A) (A) (A) (A)
                 (A) (A) (A) (A) (A) (A) (A) (A) (A) (A) (A) (A)
 The electronic state is 1-A.
 Alpha  occ. eigenvalues --  -19.62012 -19.61386 -14.83188 -14.81424 -10.71180
 Alpha  occ. eigenvalues --  -10.67652 -10.63893 -10.57050  -1.21377  -1.17639
 Alpha  occ. eigenvalues --   -1.10713  -1.04823  -0.91039  -0.79302  -0.76343
 Alpha  occ. eigenvalues --   -0.69072  -0.64943  -0.60591  -0.57861  -0.56317
 Alpha  occ. eigenvalues --   -0.54258  -0.50868  -0.50231  -0.49426  -0.45309
 Alpha  occ. eigenvalues --   -0.38892  -0.36479  -0.35576  -0.31990
 Alpha virt. eigenvalues --   -0.02421  -0.01090   0.01637   0.02089   0.02860
 Alpha virt. eigenvalues --    0.04203   0.04561   0.04970   0.05430   0.07304
 Alpha virt. eigenvalues --    0.07714   0.08565   0.09377   0.10343   0.11308
 Alpha virt. eigenvalues --    0.12950   0.13417   0.14202   0.14749   0.15041
 Alpha virt. eigenvalues --    0.15711   0.16506   0.16593   0.17621   0.18172
 Alpha virt. eigenvalues --    0.19488   0.20072   0.20394   0.21660   0.22193
 Alpha virt. eigenvalues --    0.23072   0.23357   0.23639   0.24491   0.24948
 Alpha virt. eigenvalues --    0.25785   0.25979   0.26328   0.27059   0.27757
 Alpha virt. eigenvalues --    0.27935   0.28493   0.28849   0.28977   0.30323
 Alpha virt. eigenvalues --    0.31713   0.32369   0.32843   0.33251   0.33381
 Alpha virt. eigenvalues --    0.34101   0.34153   0.35011   0.35725   0.36947
 Alpha virt. eigenvalues --    0.37786   0.38587   0.38847   0.39601   0.40041
 Alpha virt. eigenvalues --    0.40457   0.40868   0.41814   0.42760   0.43975
 Alpha virt. eigenvalues --    0.44483   0.45341   0.45910   0.46207   0.47151
 Alpha virt. eigenvalues --    0.47559   0.48360   0.49084   0.49458   0.50134
 Alpha virt. eigenvalues --    0.50953   0.51697   0.52491   0.53419   0.53494
 Alpha virt. eigenvalues --    0.54444   0.55162   0.55715   0.56130   0.56943
 Alpha virt. eigenvalues --    0.59056   0.59364   0.59952   0.60363   0.60654
 Alpha virt. eigenvalues --    0.61732   0.62036   0.63203   0.63836   0.64509
 Alpha virt. eigenvalues --    0.64764   0.66962   0.67339   0.67829   0.70067
 Alpha virt. eigenvalues --    0.70278   0.71418   0.71851   0.72394   0.73008
 Alpha virt. eigenvalues --    0.74097   0.75413   0.76177   0.79072   0.80369
 Alpha virt. eigenvalues --    0.80504   0.80708   0.82210   0.82618   0.83722
 Alpha virt. eigenvalues --    0.85478   0.86276   0.88086   0.88872   0.90596
 Alpha virt. eigenvalues --    0.90740   0.92111   0.93082   0.93661   0.95095
 Alpha virt. eigenvalues --    0.95332   0.96725   0.98956   0.99787   1.01602
 Alpha virt. eigenvalues --    1.02650   1.03039   1.04476   1.06253   1.06641
 Alpha virt. eigenvalues --    1.09221   1.10106   1.12149   1.12441   1.13934
 Alpha virt. eigenvalues --    1.16519   1.17783   1.18016   1.18547   1.20134
 Alpha virt. eigenvalues --    1.22268   1.23589   1.24445   1.28051   1.28409
 Alpha virt. eigenvalues --    1.30724   1.30841   1.32594   1.33859   1.34679
 Alpha virt. eigenvalues --    1.35819   1.36211   1.36669   1.38182   1.42082
 Alpha virt. eigenvalues --    1.42520   1.43891   1.45701   1.52147   1.53308
 Alpha virt. eigenvalues --    1.54307   1.56732   1.57512   1.58133   1.62390
 Alpha virt. eigenvalues --    1.63198   1.64453   1.66231   1.67992   1.68908
 Alpha virt. eigenvalues --    1.70303   1.71435   1.71855   1.73202   1.74029
 Alpha virt. eigenvalues --    1.75160   1.77581   1.78815   1.80434   1.82366
 Alpha virt. eigenvalues --    1.83435   1.83929   1.86410   1.87127   1.90053
 Alpha virt. eigenvalues --    1.91332   1.92631   1.94759   1.95482   1.97147
 Alpha virt. eigenvalues --    1.97900   1.99955   2.00956   2.01495   2.05001
 Alpha virt. eigenvalues --    2.06696   2.07073   2.08396   2.09729   2.12053
 Alpha virt. eigenvalues --    2.13348   2.14024   2.14896   2.15360   2.18813
 Alpha virt. eigenvalues --    2.20213   2.22332   2.23588   2.24544   2.25832
 Alpha virt. eigenvalues --    2.28060   2.29311   2.30682   2.33296   2.34467
 Alpha virt. eigenvalues --    2.36299   2.38055   2.38749   2.40495   2.40878
 Alpha virt. eigenvalues --    2.42941   2.44593   2.48412   2.48642   2.51268
 Alpha virt. eigenvalues --    2.52386   2.52742   2.54570   2.54829   2.56701
 Alpha virt. eigenvalues --    2.58087   2.59987   2.61632   2.62689   2.64776
 Alpha virt. eigenvalues --    2.65028   2.68392   2.70842   2.72770   2.74456
 Alpha virt. eigenvalues --    2.74952   2.76122   2.76957   2.78371   2.79249
 Alpha virt. eigenvalues --    2.80013   2.83235   2.84310   2.86315   2.88737
 Alpha virt. eigenvalues --    2.90242   2.94286   2.94937   2.98010   3.00327
 Alpha virt. eigenvalues --    3.01187   3.02422   3.04698   3.06245   3.06787
 Alpha virt. eigenvalues --    3.07701   3.10036   3.12142   3.13812   3.15829
 Alpha virt. eigenvalues --    3.16735   3.18956   3.23152   3.26182   3.28560
 Alpha virt. eigenvalues --    3.30724   3.32151   3.33411   3.34530   3.38015
 Alpha virt. eigenvalues --    3.39040   3.41883   3.43052   3.44522   3.45665
 Alpha virt. eigenvalues --    3.48136   3.49401   3.52678   3.54484   3.56105
 Alpha virt. eigenvalues --    3.61021   3.62287   3.62916   3.64685   3.65590
 Alpha virt. eigenvalues --    3.71502   3.71960   3.73311   3.77612   3.77997
 Alpha virt. eigenvalues --    3.88174   3.89023   3.90623   3.92107   3.94799
 Alpha virt. eigenvalues --    3.98663   4.02734   4.04321   4.05429   4.08371
 Alpha virt. eigenvalues --    4.10768   4.12011   4.15911   4.17384   4.18609
 Alpha virt. eigenvalues --    4.18752   4.20267   4.21943   4.23711   4.30298
 Alpha virt. eigenvalues --    4.31661   4.32799   4.38999   4.41235   4.44356
 Alpha virt. eigenvalues --    4.47025   4.47389   4.48231   4.52780   4.56789
 Alpha virt. eigenvalues --    4.62515   4.63586   4.68687   4.71377   4.74304
 Alpha virt. eigenvalues --    4.77435   4.85121   4.85700   4.88071   4.91015
 Alpha virt. eigenvalues --    4.92737   4.95032   4.97635   4.99705   5.01177
 Alpha virt. eigenvalues --    5.02416   5.06269   5.11316   5.15533   5.18246
 Alpha virt. eigenvalues --    5.20148   5.23947   5.24204   5.26011   5.28016
 Alpha virt. eigenvalues --    5.33193   5.36650   5.37363   5.39211   5.41620
 Alpha virt. eigenvalues --    5.42892   5.43953   5.47121   5.49320   5.51766
 Alpha virt. eigenvalues --    5.53160   5.54565   5.56255   5.56545   5.58614
 Alpha virt. eigenvalues --    5.61907   5.63656   5.66085   5.67605   5.70208
 Alpha virt. eigenvalues --    5.71548   5.75890   5.79280   5.80565   5.81758
 Alpha virt. eigenvalues --    5.84885   5.87464   5.88026   5.90548   5.93288
 Alpha virt. eigenvalues --    5.97768   5.99230   6.00539   6.00798   6.04458
 Alpha virt. eigenvalues --    6.05823   6.07023   6.08454   6.11990   6.14002
 Alpha virt. eigenvalues --    6.16581   6.18060   6.19644   6.20020   6.21037
 Alpha virt. eigenvalues --    6.23587   6.25579   6.25884   6.27052   6.28962
 Alpha virt. eigenvalues --    6.32951   6.34492   6.34908   6.35947   6.39521
 Alpha virt. eigenvalues --    6.41639   6.45433   6.47322   6.49302   6.50508
 Alpha virt. eigenvalues --    6.53622   6.59925   6.61166   6.65925   6.68681
 Alpha virt. eigenvalues --    6.70019   6.73032   6.73810   6.79741   6.82128
 Alpha virt. eigenvalues --    6.88012   6.90150   6.92611   6.94103   6.94676
 Alpha virt. eigenvalues --    6.98700   7.01156   7.03032   7.03917   7.05131
 Alpha virt. eigenvalues --    7.09419   7.12048   7.13854   7.19027   7.20609
 Alpha virt. eigenvalues --    7.27607   7.29142   7.30817   7.33118   7.36400
 Alpha virt. eigenvalues --    7.40411   7.41295   7.44013   7.47049   7.48358
 Alpha virt. eigenvalues --    7.50178   7.52940   7.54864   7.57648   7.57959
 Alpha virt. eigenvalues --    7.61699   7.63084   7.67529   7.70126   7.71455
 Alpha virt. eigenvalues --    7.72322   7.77739   7.80583   7.82584   7.82915
 Alpha virt. eigenvalues --    7.84879   7.89401   7.89713   7.92438   7.93379
 Alpha virt. eigenvalues --    7.95838   7.98075   7.99604   8.01233   8.04701
 Alpha virt. eigenvalues --    8.08070   8.09693   8.11322   8.12575   8.15834
 Alpha virt. eigenvalues --    8.16062   8.17647   8.20368   8.23137   8.25327
 Alpha virt. eigenvalues --    8.26423   8.33539   8.33930   8.35881   8.39343
 Alpha virt. eigenvalues --    8.42319   8.49778   8.52038   8.56293   8.59298
 Alpha virt. eigenvalues --    8.62599   8.64353   8.67585   8.71495   8.77012
 Alpha virt. eigenvalues --    8.79953   8.80748   8.82375   8.83588   8.83762
 Alpha virt. eigenvalues --    8.85126   8.90093   8.91318   8.95478   8.98250
 Alpha virt. eigenvalues --    8.99957   9.03413   9.06519   9.08035   9.09549
 Alpha virt. eigenvalues --    9.10373   9.13638   9.20123   9.24940   9.28385
 Alpha virt. eigenvalues --    9.34809   9.41595   9.44338   9.52094   9.53670
 Alpha virt. eigenvalues --    9.54009   9.56650   9.60386   9.63038   9.67533
 Alpha virt. eigenvalues --    9.71657   9.73258   9.74597   9.85815   9.86369
 Alpha virt. eigenvalues --    9.88884   9.91190   9.94474   9.96260  10.00871
 Alpha virt. eigenvalues --   10.05549  10.11768  10.13810  10.18579  10.26255
 Alpha virt. eigenvalues --   10.27033  10.28893  10.33091  10.48887  10.58542
 Alpha virt. eigenvalues --   10.64474  10.68909  10.75813  10.89252  10.90684
 Alpha virt. eigenvalues --   10.91494  10.93253  10.95073  10.98245  10.99249
 Alpha virt. eigenvalues --   11.20603  11.30457  11.32625  11.34103  11.38765
 Alpha virt. eigenvalues --   11.39490  11.49211  11.54314  11.61844  11.67087
 Alpha virt. eigenvalues --   11.72221  11.73240  11.75291  11.78629  11.80535
 Alpha virt. eigenvalues --   11.88969  11.91560  11.96016  12.07841  12.12323
 Alpha virt. eigenvalues --   12.14862  12.17187  12.30097  12.32896  12.38612
 Alpha virt. eigenvalues --   12.86333  13.02130  13.03803  13.38142  13.52836
 Alpha virt. eigenvalues --   14.23848  14.26117  14.37294  14.39391  14.71060
 Alpha virt. eigenvalues --   14.79090  28.26564  28.45926  28.58122  29.14683
 Alpha virt. eigenvalues --   38.01263  38.09151  48.32220  48.33029 145.73997
 Alpha virt. eigenvalues --  145.87852 146.01086 146.62519 195.61867 195.70271
 Alpha virt. eigenvalues --  251.43595 251.44832
          Condensed to atoms (all electrons):
               1          2          3          4          5          6
     1  N    6.934440   0.092328   0.436261  -0.121501  -0.122754  -0.001503
     2  H    0.092328   0.578352   0.003780   0.073279  -0.021474  -0.000359
     3  C    0.436261   0.003780   5.113954   0.465143  -0.081697  -0.121155
     4  O   -0.121501   0.073279   0.465143   8.132771  -0.001589  -0.002901
     5  N   -0.122754  -0.021474  -0.081697  -0.001589   6.729957  -0.007504
     6  H   -0.001503  -0.000359  -0.121155  -0.002901  -0.007504   0.366577
     7  C   -0.070976   0.019486  -0.172584  -0.007058   0.352482   0.090945
     8  H   -0.004469  -0.002470  -0.019907   0.000859  -0.061324   0.017422
     9  C   -0.150765  -0.022814   0.400630  -0.072966  -0.112701   0.189762
    10  H   -0.010602   0.008644   0.022153   0.000439   0.237687  -0.001143
    11  C    0.472216  -0.046799  -0.180634   0.027184   0.518062  -0.009949
    12  O   -0.105383   0.056509   0.027530   0.000118  -0.086736   0.000893
               7          8          9         10         11         12
     1  N   -0.070976  -0.004469  -0.150765  -0.010602   0.472216  -0.105383
     2  H    0.019486  -0.002470  -0.022814   0.008644  -0.046799   0.056509
     3  C   -0.172584  -0.019907   0.400630   0.022153  -0.180634   0.027530
     4  O   -0.007058   0.000859  -0.072966   0.000439   0.027184   0.000118
     5  N    0.352482  -0.061324  -0.112701   0.237687   0.518062  -0.086736
     6  H    0.090945   0.017422   0.189762  -0.001143  -0.009949   0.000893
     7  C    5.566478   0.380064   0.173235  -0.019350  -0.136607   0.031426
     8  H    0.380064   0.457476  -0.045364  -0.011614  -0.020757   0.004769
     9  C    0.173235  -0.045364   5.677800   0.000759  -0.032016   0.011256
    10  H   -0.019350  -0.011614   0.000759   0.393986  -0.024381   0.042865
    11  C   -0.136607  -0.020757  -0.032016  -0.024381   4.623222   0.443287
    12  O    0.031426   0.004769   0.011256   0.042865   0.443287   8.045659
 Mulliken charges:
               1
     1  N   -0.347293
     2  H    0.261539
     3  C    0.106526
     4  O   -0.493778
     5  N   -0.342409
     6  H    0.478916
     7  C   -0.207541
     8  H    0.305315
     9  C   -0.016816
    10  H    0.360559
    11  C    0.367174
    12  O   -0.472193
 Sum of Mulliken charges =  -0.00000
 Mulliken charges with hydrogens summed into heavy atoms:
               1
     1  N   -0.085754
     3  C    0.106526
     4  O   -0.493778
     5  N    0.018150
     7  C    0.097774
     9  C    0.462100
    11  C    0.367174
    12  O   -0.472193
 Electronic spatial extent (au):  <R**2>=            828.1308
 Charge=             -0.0000 electrons
 Dipole moment (field-independent basis, Debye):
    X=              1.3313    Y=              4.3917    Z=             -0.0611  Tot=              4.5894
 Quadrupole moment (field-independent basis, Debye-Ang):
   XX=            -58.2680   YY=            -38.2715   ZZ=            -46.4500
   XY=              2.3093   XZ=             -0.5173   YZ=             -0.6388
 Traceless Quadrupole moment (field-independent basis, Debye-Ang):
   XX=            -10.6049   YY=              9.3917   ZZ=              1.2132
   XY=              2.3093   XZ=             -0.5173   YZ=             -0.6388
 Octapole moment (field-independent basis, Debye-Ang**2):
  XXX=             10.7171  YYY=              6.9061  ZZZ=             -0.4979  XYY=              4.7340
  XXY=             31.3291  XXZ=              0.3569  XZZ=              1.7449  YZZ=             -4.0374
  YYZ=             -0.7009  XYZ=             -0.6795
 Hexadecapole moment (field-independent basis, Debye-Ang**3):
 XXXX=           -709.2088 YYYY=           -311.0804 ZZZZ=            -46.0431 XXXY=             11.7231
 XXXZ=             -2.7230 YYYX=             11.9755 YYYZ=             -2.2093 ZZZX=             -0.1345
 ZZZY=             -0.0589 XXYY=           -172.9294 XXZZ=           -112.3554 YYZZ=            -74.6725
 XXYZ=             -3.0123 YYXZ=             -1.1942 ZZXY=              2.6754
 N-N= 3.571602752498D+02 E-N=-1.684666812582D+03  KE= 4.132346051126D+02
 PrsmSu:  requested number of processors reduced to:  20 ShMem   1 Linda.
 No NMR shielding tensors so no spin-rotation constants.
 Leave Link  601 at Sun Apr 18 01:23:11 2021, MaxMem=   104857600 cpu:             413.0 elap:               9.0
 (Enter /s/ls4/users/knvvv/bin/g16sse/l801.exe)
 DoSCS=F DFT=T ScalE2(SS,OS)=  1.000000  1.000000
 Range of M.O.s used for correlation:     1   641
 NBasis=   642 NAE=    29 NBE=    29 NFC=     0 NFV=     0
 NROrb=    641 NOA=    29 NOB=    29 NVA=   612 NVB=   612

 **** Warning!!: The largest alpha MO coefficient is  0.14732718D+03

 Leave Link  801 at Sun Apr 18 01:23:11 2021, MaxMem=   104857600 cpu:               3.9 elap:               0.1
 (Enter /s/ls4/users/knvvv/bin/g16sse/l914.exe)
 RHF ground state
 Doing stability rather than CIS.
 Two-electron integrals replicated using symmetry.
 MDV=   104857600 DFT=T DoStab=T Mixed=T DoRPA=F DoScal=F NonHer=F
 Making orbital integer symmetry assigments:
 Orbital symmetries:
       Occupied  (A) (A) (A) (A) (A) (A) (A) (A) (A) (A) (A) (A)
                 (A) (A) (A) (A) (A) (A) (A) (A) (A) (A) (A) (A)
                 (A) (A) (A) (A) (A)
       Virtual   (A) (A) (A) (A) (A) (A) (A) (A) (A) (A) (A) (A)
                 (A) (A) (A) (A) (A) (A) (A) (A) (A) (A) (A) (A)
                 (A) (A) (A) (A) (A) (A) (A) (A) (A) (A) (A) (A)
                 (A) (A) (A) (A) (A) (A) (A) (A) (A) (A) (A) (A)
                 (A) (A) (A) (A) (A) (A) (A) (A) (A) (A) (A) (A)
                 (A) (A) (A) (A) (A) (A) (A) (A) (A) (A) (A) (A)
                 (A) (A) (A) (A) (A) (A) (A) (A) (A) (A) (A) (A)
                 (A) (A) (A) (A) (A) (A) (A) (A) (A) (A) (A) (A)
                 (A) (A) (A) (A) (A) (A) (A) (A) (A) (A) (A) (A)
                 (A) (A) (A) (A) (A) (A) (A) (A) (A) (A) (A) (A)
                 (A) (A) (A) (A) (A) (A) (A) (A) (A) (A) (A) (A)
                 (A) (A) (A) (A) (A) (A) (A) (A) (A) (A) (A) (A)
                 (A) (A) (A) (A) (A) (A) (A) (A) (A) (A) (A) (A)
                 (A) (A) (A) (A) (A) (A) (A) (A) (A) (A) (A) (A)
                 (A) (A) (A) (A) (A) (A) (A) (A) (A) (A) (A) (A)
                 (A) (A) (A) (A) (A) (A) (A) (A) (A) (A) (A) (A)
                 (A) (A) (A) (A) (A) (A) (A) (A) (A) (A) (A) (A)
                 (A) (A) (A) (A) (A) (A) (A) (A) (A) (A) (A) (A)
                 (A) (A) (A) (A) (A) (A) (A) (A) (A) (A) (A) (A)
                 (A) (A) (A) (A) (A) (A) (A) (A) (A) (A) (A) (A)
                 (A) (A) (A) (A) (A) (A) (A) (A) (A) (A) (A) (A)
                 (A) (A) (A) (A) (A) (A) (A) (A) (A) (A) (A) (A)
                 (A) (A) (A) (A) (A) (A) (A) (A) (A) (A) (A) (A)
                 (A) (A) (A) (A) (A) (A) (A) (A) (A) (A) (A) (A)
                 (A) (A) (A) (A) (A) (A) (A) (A) (A) (A) (A) (A)
                 (A) (A) (A) (A) (A) (A) (A) (A) (A) (A) (A) (A)
                 (A) (A) (A) (A) (A) (A) (A) (A) (A) (A) (A) (A)
                 (A) (A) (A) (A) (A) (A) (A) (A) (A) (A) (A) (A)
                 (A) (A) (A) (A) (A) (A) (A) (A) (A) (A) (A) (A)
                 (A) (A) (A) (A) (A) (A) (A) (A) (A) (A) (A) (A)
                 (A) (A) (A) (A) (A) (A) (A) (A) (A) (A) (A) (A)
                 (A) (A) (A) (A) (A) (A) (A) (A) (A) (A) (A) (A)
                 (A) (A) (A) (A) (A) (A) (A) (A) (A) (A) (A) (A)
                 (A) (A) (A) (A) (A) (A) (A) (A) (A) (A) (A) (A)
                 (A) (A) (A) (A) (A) (A) (A) (A) (A) (A) (A) (A)
                 (A) (A) (A) (A) (A) (A) (A) (A) (A) (A) (A) (A)
                 (A) (A) (A) (A) (A) (A) (A) (A) (A) (A) (A) (A)
                 (A) (A) (A) (A) (A) (A) (A) (A) (A) (A) (A) (A)
                 (A) (A) (A) (A) (A) (A) (A) (A) (A) (A) (A) (A)
                 (A) (A) (A) (A) (A) (A) (A) (A) (A) (A) (A) (A)
                 (A) (A) (A) (A) (A) (A) (A) (A) (A) (A) (A) (A)
                 (A) (A) (A) (A) (A) (A) (A) (A) (A) (A) (A) (A)
                 (A) (A) (A) (A) (A) (A) (A) (A) (A) (A) (A) (A)
                 (A) (A) (A) (A) (A) (A) (A) (A) (A) (A) (A) (A)
                 (A) (A) (A) (A) (A) (A) (A) (A) (A) (A) (A) (A)
                 (A) (A) (A) (A) (A) (A) (A) (A) (A) (A) (A) (A)
                 (A) (A) (A) (A) (A) (A) (A) (A) (A) (A) (A) (A)
                 (A) (A) (A) (A) (A) (A) (A) (A) (A) (A) (A) (A)
                 (A) (A) (A) (A) (A) (A) (A) (A) (A) (A) (A) (A)
                 (A) (A) (A) (A) (A) (A) (A) (A) (A) (A) (A) (A)
                 (A) (A) (A) (A) (A) (A) (A) (A) (A) (A) (A) (A)
    24 initial guesses have been made.
 Convergence on wavefunction:    0.001000000000000
 Davidson Disk Diagonalization:  ConvIn= 1.00D-03 SkipCon=T Conv= 1.00D-03.
 Max sub-space:  2000 roots to seek:    24 dimension of matrix:        35496
 Iteration     1 Dimension    24 NMult     0 NNew     24
 Estimated number of processors is:   13
 CISAX will form     1 AO SS matrices at one time.
 NMat=     1 NSing=     1 JSym2X= 0.
 FoFJK:  IHMeth= 1 ICntrl=       0 DoSepK=F KAlg= 0 I1Cent=           0 FoldK=F
 IRaf= 940000000 NMat=       1 IRICut=       1 DoRegI=T DoRafI=F ISym2E= 0 IDoP0=0 IntGTp=1.
 FoFCou: FMM=F IPFlag=           0 FMFlag=      100000 FMFlg1=           0
         NFxFlg=           0 DoJE=F BraDBF=F KetDBF=F FulRan=T
         wScrn=  0.000000 ICntrl=         0 IOpCl=  0 I1Cent=           0 NGrid=           0
         NMat0=    1 NMatS0=      1 NMatT0=    0 NMatD0=    1 NMtDS0=    0 NMtDT0=    0
 Symmetry not used in FoFCou.
 CoulSu:  requested number of processors reduced to:  18 ShMem   1 Linda.
 CalDSu:  requested number of processors reduced to:  39 ShMem   1 Linda.
 NMat=     1 NSing=     1 JSym2X= 0.
 CoulSu:  requested number of processors reduced to:  18 ShMem   1 Linda.
 CalDSu:  requested number of processors reduced to:  39 ShMem   1 Linda.
 NMat=     1 NSing=     1 JSym2X= 0.
 CoulSu:  requested number of processors reduced to:  18 ShMem   1 Linda.
 CalDSu:  requested number of processors reduced to:  39 ShMem   1 Linda.
 NMat=     1 NSing=     1 JSym2X= 0.
 CoulSu:  requested number of processors reduced to:  18 ShMem   1 Linda.
 CalDSu:  requested number of processors reduced to:  39 ShMem   1 Linda.
 NMat=     1 NSing=     1 JSym2X= 0.
 CoulSu:  requested number of processors reduced to:  18 ShMem   1 Linda.
 CalDSu:  requested number of processors reduced to:  39 ShMem   1 Linda.
 NMat=     1 NSing=     1 JSym2X= 0.
 CoulSu:  requested number of processors reduced to:  18 ShMem   1 Linda.
 CalDSu:  requested number of processors reduced to:  39 ShMem   1 Linda.
 NMat=     1 NSing=     1 JSym2X= 0.
 CoulSu:  requested number of processors reduced to:  18 ShMem   1 Linda.
 CalDSu:  requested number of processors reduced to:  39 ShMem   1 Linda.
 NMat=     1 NSing=     1 JSym2X= 0.
 CoulSu:  requested number of processors reduced to:  18 ShMem   1 Linda.
 CalDSu:  requested number of processors reduced to:  39 ShMem   1 Linda.
 NMat=     1 NSing=     1 JSym2X= 0.
 CoulSu:  requested number of processors reduced to:  18 ShMem   1 Linda.
 CalDSu:  requested number of processors reduced to:  39 ShMem   1 Linda.
 NMat=     1 NSing=     1 JSym2X= 0.
 CoulSu:  requested number of processors reduced to:  18 ShMem   1 Linda.
 CalDSu:  requested number of processors reduced to:  39 ShMem   1 Linda.
 NMat=     1 NSing=     1 JSym2X= 0.
 CoulSu:  requested number of processors reduced to:  18 ShMem   1 Linda.
 CalDSu:  requested number of processors reduced to:  39 ShMem   1 Linda.
 NMat=     1 NSing=     1 JSym2X= 0.
 CoulSu:  requested number of processors reduced to:  18 ShMem   1 Linda.
 CalDSu:  requested number of processors reduced to:  39 ShMem   1 Linda.
 NMat=     1 NSing=     0 JSym2X= 0.
 CoulSu:  requested number of processors reduced to:  18 ShMem   1 Linda.
 CalDSu:  requested number of processors reduced to:  39 ShMem   1 Linda.
 NMat=     1 NSing=     0 JSym2X= 0.
 CoulSu:  requested number of processors reduced to:  18 ShMem   1 Linda.
 CalDSu:  requested number of processors reduced to:  39 ShMem   1 Linda.
 NMat=     1 NSing=     0 JSym2X= 0.
 CoulSu:  requested number of processors reduced to:  18 ShMem   1 Linda.
 CalDSu:  requested number of processors reduced to:  39 ShMem   1 Linda.
 NMat=     1 NSing=     0 JSym2X= 0.
 CoulSu:  requested number of processors reduced to:  18 ShMem   1 Linda.
 CalDSu:  requested number of processors reduced to:  39 ShMem   1 Linda.
 NMat=     1 NSing=     0 JSym2X= 0.
 CoulSu:  requested number of processors reduced to:  18 ShMem   1 Linda.
 CalDSu:  requested number of processors reduced to:  39 ShMem   1 Linda.
 NMat=     1 NSing=     0 JSym2X= 0.
 CoulSu:  requested number of processors reduced to:  18 ShMem   1 Linda.
 CalDSu:  requested number of processors reduced to:  39 ShMem   1 Linda.
 NMat=     1 NSing=     0 JSym2X= 0.
 CoulSu:  requested number of processors reduced to:  18 ShMem   1 Linda.
 CalDSu:  requested number of processors reduced to:  39 ShMem   1 Linda.
 NMat=     1 NSing=     0 JSym2X= 0.
 CoulSu:  requested number of processors reduced to:  18 ShMem   1 Linda.
 CalDSu:  requested number of processors reduced to:  39 ShMem   1 Linda.
 NMat=     1 NSing=     0 JSym2X= 0.
 CoulSu:  requested number of processors reduced to:  18 ShMem   1 Linda.
 CalDSu:  requested number of processors reduced to:  39 ShMem   1 Linda.
 NMat=     1 NSing=     0 JSym2X= 0.
 CoulSu:  requested number of processors reduced to:  18 ShMem   1 Linda.
 CalDSu:  requested number of processors reduced to:  39 ShMem   1 Linda.
 NMat=     1 NSing=     0 JSym2X= 0.
 CoulSu:  requested number of processors reduced to:  18 ShMem   1 Linda.
 CalDSu:  requested number of processors reduced to:  39 ShMem   1 Linda.
 NMat=     1 NSing=     0 JSym2X= 0.
 CoulSu:  requested number of processors reduced to:  18 ShMem   1 Linda.
 CalDSu:  requested number of processors reduced to:  39 ShMem   1 Linda.
 New state      1 was old state      2
 Excitation Energies [eV] at current iteration:
 Root      1 :     3.447862962922940
 Root      2 :     5.257846804962674
 Root      3 :     5.427973502594132
 Root      4 :     5.852129737608018
 Root      5 :     6.284464817945636
 Root      6 :     6.331753196521635
 Root      7 :     6.344030174450576
 Root      8 :     7.221940943675145
 Root      9 :     7.270155285829254
 Root     10 :     7.277885670207640
 Root     11 :     7.354514396177274
 Root     12 :     7.359385183413535
 Root     13 :     7.386750154317332
 Root     14 :     7.736492572158125
 Root     15 :     7.773343070500969
 Root     16 :     7.909891809478433
 Root     17 :     7.935455953773651
 Root     18 :     7.936318379328512
 Root     19 :     7.996626400882196
 Root     20 :     8.036427239521027
 Root     21 :     8.143511542374643
 Root     22 :     8.157988766670112
 Root     23 :     8.743342933968666
 Root     24 :     9.671520090610656
 Iteration     2 Dimension    48 NMult    24 NNew     24
 Estimated number of processors is:   13
 CISAX will form     1 AO SS matrices at one time.
 NMat=     1 NSing=     1 JSym2X= 0.
 CoulSu:  requested number of processors reduced to:  18 ShMem   1 Linda.
 CalDSu:  requested number of processors reduced to:  39 ShMem   1 Linda.
 NMat=     1 NSing=     1 JSym2X= 0.
 CoulSu:  requested number of processors reduced to:  18 ShMem   1 Linda.
 CalDSu:  requested number of processors reduced to:  39 ShMem   1 Linda.
 NMat=     1 NSing=     1 JSym2X= 0.
 CoulSu:  requested number of processors reduced to:  18 ShMem   1 Linda.
 CalDSu:  requested number of processors reduced to:  39 ShMem   1 Linda.
 NMat=     1 NSing=     1 JSym2X= 0.
 CoulSu:  requested number of processors reduced to:  18 ShMem   1 Linda.
 CalDSu:  requested number of processors reduced to:  39 ShMem   1 Linda.
 NMat=     1 NSing=     1 JSym2X= 0.
 CoulSu:  requested number of processors reduced to:  18 ShMem   1 Linda.
 CalDSu:  requested number of processors reduced to:  39 ShMem   1 Linda.
 NMat=     1 NSing=     1 JSym2X= 0.
 CoulSu:  requested number of processors reduced to:  18 ShMem   1 Linda.
 CalDSu:  requested number of processors reduced to:  39 ShMem   1 Linda.
 NMat=     1 NSing=     1 JSym2X= 0.
 CoulSu:  requested number of processors reduced to:  18 ShMem   1 Linda.
 CalDSu:  requested number of processors reduced to:  39 ShMem   1 Linda.
 NMat=     1 NSing=     1 JSym2X= 0.
 CoulSu:  requested number of processors reduced to:  18 ShMem   1 Linda.
 CalDSu:  requested number of processors reduced to:  39 ShMem   1 Linda.
 NMat=     1 NSing=     1 JSym2X= 0.
 CoulSu:  requested number of processors reduced to:  18 ShMem   1 Linda.
 CalDSu:  requested number of processors reduced to:  39 ShMem   1 Linda.
 NMat=     1 NSing=     1 JSym2X= 0.
 CoulSu:  requested number of processors reduced to:  18 ShMem   1 Linda.
 CalDSu:  requested number of processors reduced to:  39 ShMem   1 Linda.
 NMat=     1 NSing=     1 JSym2X= 0.
 CoulSu:  requested number of processors reduced to:  18 ShMem   1 Linda.
 CalDSu:  requested number of processors reduced to:  39 ShMem   1 Linda.
 NMat=     1 NSing=     1 JSym2X= 0.
 CoulSu:  requested number of processors reduced to:  18 ShMem   1 Linda.
 CalDSu:  requested number of processors reduced to:  39 ShMem   1 Linda.
 NMat=     1 NSing=     0 JSym2X= 0.
 CoulSu:  requested number of processors reduced to:  18 ShMem   1 Linda.
 CalDSu:  requested number of processors reduced to:  39 ShMem   1 Linda.
 NMat=     1 NSing=     0 JSym2X= 0.
 CoulSu:  requested number of processors reduced to:  18 ShMem   1 Linda.
 CalDSu:  requested number of processors reduced to:  39 ShMem   1 Linda.
 NMat=     1 NSing=     0 JSym2X= 0.
 CoulSu:  requested number of processors reduced to:  18 ShMem   1 Linda.
 CalDSu:  requested number of processors reduced to:  39 ShMem   1 Linda.
 NMat=     1 NSing=     0 JSym2X= 0.
 CoulSu:  requested number of processors reduced to:  18 ShMem   1 Linda.
 CalDSu:  requested number of processors reduced to:  39 ShMem   1 Linda.
 NMat=     1 NSing=     0 JSym2X= 0.
 CoulSu:  requested number of processors reduced to:  18 ShMem   1 Linda.
 CalDSu:  requested number of processors reduced to:  39 ShMem   1 Linda.
 NMat=     1 NSing=     0 JSym2X= 0.
 CoulSu:  requested number of processors reduced to:  18 ShMem   1 Linda.
 CalDSu:  requested number of processors reduced to:  39 ShMem   1 Linda.
 NMat=     1 NSing=     0 JSym2X= 0.
 CoulSu:  requested number of processors reduced to:  18 ShMem   1 Linda.
 CalDSu:  requested number of processors reduced to:  39 ShMem   1 Linda.
 NMat=     1 NSing=     0 JSym2X= 0.
 CoulSu:  requested number of processors reduced to:  18 ShMem   1 Linda.
 CalDSu:  requested number of processors reduced to:  39 ShMem   1 Linda.
 NMat=     1 NSing=     0 JSym2X= 0.
 CoulSu:  requested number of processors reduced to:  18 ShMem   1 Linda.
 CalDSu:  requested number of processors reduced to:  39 ShMem   1 Linda.
 NMat=     1 NSing=     0 JSym2X= 0.
 CoulSu:  requested number of processors reduced to:  18 ShMem   1 Linda.
 CalDSu:  requested number of processors reduced to:  39 ShMem   1 Linda.
 NMat=     1 NSing=     0 JSym2X= 0.
 CoulSu:  requested number of processors reduced to:  18 ShMem   1 Linda.
 CalDSu:  requested number of processors reduced to:  39 ShMem   1 Linda.
 NMat=     1 NSing=     0 JSym2X= 0.
 CoulSu:  requested number of processors reduced to:  18 ShMem   1 Linda.
 CalDSu:  requested number of processors reduced to:  39 ShMem   1 Linda.
 Root      1 not converged, maximum delta is    0.078276992295972
 Excitation Energies [eV] at current iteration:
 Root      1 :     2.822376872778568   Change is   -0.625486090144372
 Root      2 :     4.101552547965779   Change is   -1.156294256996894
 Root      3 :     4.574874663859406   Change is   -0.853098838734727
 Root      4 :     5.424634191749289   Change is   -0.427495545858729
 Root      5 :     5.701513822525176   Change is   -0.582950995420460
 Root      6 :     5.920363433236988   Change is   -3.751156657373669
 Root      7 :     6.133653265471808   Change is   -0.210376908978768
 Root      8 :     6.191821688258281   Change is   -0.139931508263353
 Root      9 :     6.632451184632795   Change is   -0.589489759042350
 Root     10 :     6.934183955719128   Change is   -0.975707853759305
 Root     11 :     7.074635325055928   Change is   -0.203250345151712
 Root     12 :     7.113425731957341   Change is   -0.156729553871913
 Root     13 :     7.167148755128896   Change is   -0.192236428284639
 Root     14 :     7.169605894110800   Change is   -0.184908502066474
 Root     15 :     7.228495604161439   Change is   -0.158254550155894
 Root     16 :     7.260410307598550   Change is   -1.482932626370117
 Root     17 :     7.562929088844864   Change is   -0.210413981656105
 Root     18 :     7.709643703811139   Change is   -0.225812249962513
 Root     19 :     7.725923935197486   Change is   -0.010568636960638
 Root     20 :     7.778233643659617   Change is   -0.158084735668895
 Root     21 :     7.900235174666460   Change is   -0.136192064854566
 Root     22 :     7.947262723789218   Change is   -0.049363677092978
 Root     23 :     7.988223651349782   Change is   -0.155287891024862
 Root     24 :     8.040357045175593   Change is   -0.117631721494519
 Iteration     3 Dimension    54 NMult    48 NNew      6
 Estimated number of processors is:   13
 CISAX will form     1 AO SS matrices at one time.
 NMat=     1 NSing=     1 JSym2X= 0.
 CoulSu:  requested number of processors reduced to:  18 ShMem   1 Linda.
 CalDSu:  requested number of processors reduced to:  39 ShMem   1 Linda.
 NMat=     1 NSing=     1 JSym2X= 0.
 CoulSu:  requested number of processors reduced to:  18 ShMem   1 Linda.
 CalDSu:  requested number of processors reduced to:  39 ShMem   1 Linda.
 NMat=     1 NSing=     1 JSym2X= 0.
 CoulSu:  requested number of processors reduced to:  18 ShMem   1 Linda.
 CalDSu:  requested number of processors reduced to:  39 ShMem   1 Linda.
 NMat=     1 NSing=     0 JSym2X= 0.
 CoulSu:  requested number of processors reduced to:  18 ShMem   1 Linda.
 CalDSu:  requested number of processors reduced to:  39 ShMem   1 Linda.
 NMat=     1 NSing=     0 JSym2X= 0.
 CoulSu:  requested number of processors reduced to:  18 ShMem   1 Linda.
 CalDSu:  requested number of processors reduced to:  39 ShMem   1 Linda.
 NMat=     1 NSing=     0 JSym2X= 0.
 CoulSu:  requested number of processors reduced to:  18 ShMem   1 Linda.
 CalDSu:  requested number of processors reduced to:  39 ShMem   1 Linda.
 Root      1 not converged, maximum delta is    0.024634566510077
 Excitation Energies [eV] at current iteration:
 Root      1 :     2.771297023538033   Change is   -0.051079849240535
 Root      2 :     4.002609434725469   Change is   -0.098943113240310
 Root      3 :     4.482787071241067   Change is   -0.092087592618339
 Root      4 :     5.259466282564643   Change is   -0.165167909184645
 Root      5 :     5.770575737397207   Change is   -0.149787695839780
 Root      6 :     6.185415336432299   Change is   -0.006406351825983
 Iteration     4 Dimension    60 NMult    54 NNew      6
 Estimated number of processors is:   13
 CISAX will form     1 AO SS matrices at one time.
 NMat=     1 NSing=     1 JSym2X= 0.
 CoulSu:  requested number of processors reduced to:  18 ShMem   1 Linda.
 CalDSu:  requested number of processors reduced to:  39 ShMem   1 Linda.
 NMat=     1 NSing=     1 JSym2X= 0.
 CoulSu:  requested number of processors reduced to:  18 ShMem   1 Linda.
 CalDSu:  requested number of processors reduced to:  39 ShMem   1 Linda.
 NMat=     1 NSing=     1 JSym2X= 0.
 CoulSu:  requested number of processors reduced to:  18 ShMem   1 Linda.
 CalDSu:  requested number of processors reduced to:  39 ShMem   1 Linda.
 NMat=     1 NSing=     0 JSym2X= 0.
 CoulSu:  requested number of processors reduced to:  18 ShMem   1 Linda.
 CalDSu:  requested number of processors reduced to:  39 ShMem   1 Linda.
 NMat=     1 NSing=     0 JSym2X= 0.
 CoulSu:  requested number of processors reduced to:  18 ShMem   1 Linda.
 CalDSu:  requested number of processors reduced to:  39 ShMem   1 Linda.
 NMat=     1 NSing=     0 JSym2X= 0.
 CoulSu:  requested number of processors reduced to:  18 ShMem   1 Linda.
 CalDSu:  requested number of processors reduced to:  39 ShMem   1 Linda.
 Root      1 not converged, maximum delta is    0.013951364487036
 Excitation Energies [eV] at current iteration:
 Root      1 :     2.764360224831647   Change is   -0.006936798706386
 Root      2 :     3.988999995080619   Change is   -0.013609439644851
 Root      3 :     4.475345423737521   Change is   -0.007441647503546
 Root      4 :     5.234956386709698   Change is   -0.024509895854945
 Root      5 :     5.745324119221952   Change is   -0.025251618175256
 Root      6 :     6.183850714622429   Change is   -0.001564621809869
 Iteration     5 Dimension    66 NMult    60 NNew      6
 Estimated number of processors is:   13
 CISAX will form     1 AO SS matrices at one time.
 NMat=     1 NSing=     1 JSym2X= 0.
 CoulSu:  requested number of processors reduced to:  18 ShMem   1 Linda.
 CalDSu:  requested number of processors reduced to:  39 ShMem   1 Linda.
 NMat=     1 NSing=     1 JSym2X= 0.
 CoulSu:  requested number of processors reduced to:  18 ShMem   1 Linda.
 CalDSu:  requested number of processors reduced to:  39 ShMem   1 Linda.
 NMat=     1 NSing=     1 JSym2X= 0.
 CoulSu:  requested number of processors reduced to:  18 ShMem   1 Linda.
 CalDSu:  requested number of processors reduced to:  39 ShMem   1 Linda.
 NMat=     1 NSing=     0 JSym2X= 0.
 CoulSu:  requested number of processors reduced to:  18 ShMem   1 Linda.
 CalDSu:  requested number of processors reduced to:  39 ShMem   1 Linda.
 NMat=     1 NSing=     0 JSym2X= 0.
 CoulSu:  requested number of processors reduced to:  18 ShMem   1 Linda.
 CalDSu:  requested number of processors reduced to:  39 ShMem   1 Linda.
 NMat=     1 NSing=     0 JSym2X= 0.
 CoulSu:  requested number of processors reduced to:  18 ShMem   1 Linda.
 CalDSu:  requested number of processors reduced to:  39 ShMem   1 Linda.
 Root      1 not converged, maximum delta is    0.004719223393638
 Excitation Energies [eV] at current iteration:
 Root      1 :     2.763461353201954   Change is   -0.000898871629693
 Root      2 :     3.987322027612231   Change is   -0.001677967468388
 Root      3 :     4.474044134282434   Change is   -0.001301289455087
 Root      4 :     5.228876303599243   Change is   -0.006080083110455
 Root      5 :     5.742210190308978   Change is   -0.003113928912973
 Root      6 :     6.183607306429000   Change is   -0.000243408193430
 Iteration     6 Dimension    72 NMult    66 NNew      6
 Estimated number of processors is:   13
 CISAX will form     1 AO SS matrices at one time.
 NMat=     1 NSing=     1 JSym2X= 0.
 CoulSu:  requested number of processors reduced to:  18 ShMem   1 Linda.
 CalDSu:  requested number of processors reduced to:  39 ShMem   1 Linda.
 NMat=     1 NSing=     1 JSym2X= 0.
 CoulSu:  requested number of processors reduced to:  18 ShMem   1 Linda.
 CalDSu:  requested number of processors reduced to:  39 ShMem   1 Linda.
 NMat=     1 NSing=     1 JSym2X= 0.
 CoulSu:  requested number of processors reduced to:  18 ShMem   1 Linda.
 CalDSu:  requested number of processors reduced to:  39 ShMem   1 Linda.
 NMat=     1 NSing=     0 JSym2X= 0.
 CoulSu:  requested number of processors reduced to:  18 ShMem   1 Linda.
 CalDSu:  requested number of processors reduced to:  39 ShMem   1 Linda.
 NMat=     1 NSing=     0 JSym2X= 0.
 CoulSu:  requested number of processors reduced to:  18 ShMem   1 Linda.
 CalDSu:  requested number of processors reduced to:  39 ShMem   1 Linda.
 NMat=     1 NSing=     0 JSym2X= 0.
 CoulSu:  requested number of processors reduced to:  18 ShMem   1 Linda.
 CalDSu:  requested number of processors reduced to:  39 ShMem   1 Linda.
 Root      1 not converged, maximum delta is    0.002052069336050
 Excitation Energies [eV] at current iteration:
 Root      1 :     2.763318030294516   Change is   -0.000143322907439
 Root      2 :     3.986731209312841   Change is   -0.000590818299390
 Root      3 :     4.473541303795196   Change is   -0.000502830487237
 Root      4 :     5.228051026819414   Change is   -0.000825276779830
 Root      5 :     5.741797337288655   Change is   -0.000412853020324
 Root      6 :     6.183512351785509   Change is   -0.000094954643491
 Iteration     7 Dimension    78 NMult    72 NNew      6
 Estimated number of processors is:   13
 CISAX will form     1 AO SS matrices at one time.
 NMat=     1 NSing=     1 JSym2X= 0.
 CoulSu:  requested number of processors reduced to:  18 ShMem   1 Linda.
 CalDSu:  requested number of processors reduced to:  39 ShMem   1 Linda.
 NMat=     1 NSing=     1 JSym2X= 0.
 CoulSu:  requested number of processors reduced to:  18 ShMem   1 Linda.
 CalDSu:  requested number of processors reduced to:  39 ShMem   1 Linda.
 NMat=     1 NSing=     1 JSym2X= 0.
 CoulSu:  requested number of processors reduced to:  18 ShMem   1 Linda.
 CalDSu:  requested number of processors reduced to:  39 ShMem   1 Linda.
 NMat=     1 NSing=     0 JSym2X= 0.
[...]
 (Enter /s/ls4/users/knvvv/bin/g16sse/l508.exe)
 The wavefunction is already stable.
 Leave Link  508 at Sun Apr 18 03:03:22 2021, MaxMem=   104857600 cpu:               2.4 elap:               0.1
 (Enter /s/ls4/users/knvvv/bin/g16sse/l601.exe)
 Copying SCF densities to generalized density rwf, IOpCl= 0 IROHF=0.

 **********************************************************************

            Population analysis using the SCF density.

 **********************************************************************

 Orbital symmetries:
       Occupied  (A) (A) (A) (A) (A) (A) (A) (A) (A) (A) (A) (A)
                 (A) (A) (A) (A) (A) (A) (A) (A) (A) (A) (A) (A)
                 (A) (A) (A) (A) (A)
       Virtual   (A) (A) (A) (A) (A) (A) (A) (A) (A) (A) (A) (A)
                 (A) (A) (A) (A) (A) (A) (A) (A) (A) (A) (A) (A)
                 (A) (A) (A) (A) (A) (A) (A) (A) (A) (A) (A) (A)
                 (A) (A) (A) (A) (A) (A) (A) (A) (A) (A) (A) (A)
                 (A) (A) (A) (A) (A) (A) (A) (A) (A) (A) (A) (A)
                 (A) (A) (A) (A) (A) (A) (A) (A) (A) (A) (A) (A)
                 (A) (A) (A) (A) (A) (A) (A) (A) (A) (A) (A) (A)
                 (A) (A) (A) (A) (A) (A) (A) (A) (A) (A) (A) (A)
                 (A) (A) (A) (A) (A) (A) (A) (A) (A) (A) (A) (A)
                 (A) (A) (A) (A) (A) (A) (A) (A) (A) (A) (A) (A)
                 (A) (A) (A) (A) (A) (A) (A) (A) (A) (A) (A) (A)
                 (A) (A) (A) (A) (A) (A) (A) (A) (A) (A) (A) (A)
                 (A) (A) (A) (A) (A) (A) (A) (A) (A) (A) (A) (A)
                 (A) (A) (A) (A) (A) (A) (A) (A) (A) (A) (A) (A)
                 (A) (A) (A) (A) (A) (A) (A) (A) (A) (A) (A) (A)
                 (A) (A) (A) (A) (A) (A) (A) (A) (A) (A) (A) (A)
                 (A) (A) (A) (A) (A) (A) (A) (A) (A) (A) (A) (A)
                 (A) (A) (A) (A) (A) (A) (A) (A) (A) (A) (A) (A)
                 (A) (A) (A) (A) (A) (A) (A) (A) (A) (A) (A) (A)
                 (A) (A) (A) (A) (A) (A) (A) (A) (A) (A) (A) (A)
                 (A) (A) (A) (A) (A) (A) (A) (A) (A) (A) (A) (A)
                 (A) (A) (A) (A) (A) (A) (A) (A) (A) (A) (A) (A)
                 (A) (A) (A) (A) (A) (A) (A) (A) (A) (A) (A) (A)
                 (A) (A) (A) (A) (A) (A) (A) (A) (A) (A) (A) (A)
                 (A) (A) (A) (A) (A) (A) (A) (A) (A) (A) (A) (A)
                 (A) (A) (A) (A) (A) (A) (A) (A) (A) (A) (A) (A)
                 (A) (A) (A) (A) (A) (A) (A) (A) (A) (A) (A) (A)
                 (A) (A) (A) (A) (A) (A) (A) (A) (A) (A) (A) (A)
                 (A) (A) (A) (A) (A) (A) (A) (A) (A) (A) (A) (A)
                 (A) (A) (A) (A) (A) (A) (A) (A) (A) (A) (A) (A)
                 (A) (A) (A) (A) (A) (A) (A) (A) (A) (A) (A) (A)
                 (A) (A) (A) (A) (A) (A) (A) (A) (A) (A) (A) (A)
                 (A) (A) (A) (A) (A) (A) (A) (A) (A) (A) (A) (A)
                 (A) (A) (A) (A) (A) (A) (A) (A) (A) (A) (A) (A)
                 (A) (A) (A) (A) (A) (A) (A) (A) (A) (A) (A) (A)
                 (A) (A) (A) (A) (A) (A) (A) (A) (A) (A) (A) (A)
                 (A) (A) (A) (A) (A) (A) (A) (A) (A) (A) (A) (A)
                 (A) (A) (A) (A) (A) (A) (A) (A) (A) (A) (A) (A)
                 (A) (A) (A) (A) (A) (A) (A) (A) (A) (A) (A) (A)
                 (A) (A) (A) (A) (A) (A) (A) (A) (A) (A) (A) (A)
                 (A) (A) (A) (A) (A) (A) (A) (A) (A) (A) (A) (A)
                 (A) (A) (A) (A) (A) (A) (A) (A) (A) (A) (A) (A)
                 (A) (A) (A) (A) (A) (A) (A) (A) (A) (A) (A) (A)
                 (A) (A) (A) (A) (A) (A) (A) (A) (A) (A) (A) (A)
                 (A) (A) (A) (A) (A) (A) (A) (A) (A) (A) (A) (A)
                 (A) (A) (A) (A) (A) (A) (A) (A) (A) (A) (A) (A)
                 (A) (A) (A) (A) (A) (A) (A) (A) (A) (A) (A) (A)
                 (A) (A) (A) (A) (A) (A) (A) (A) (A) (A) (A) (A)
                 (A) (A) (A) (A) (A) (A) (A) (A) (A) (A) (A) (A)
                 (A) (A) (A) (A) (A) (A) (A) (A) (A) (A) (A) (A)
                 (A) (A) (A) (A) (A) (A) (A) (A) (A) (A) (A) (A)
 The electronic state is 1-A.
 Alpha  occ. eigenvalues --  -19.62012 -19.61386 -14.83188 -14.81424 -10.71180
 Alpha  occ. eigenvalues --  -10.67652 -10.63893 -10.57050  -1.21377  -1.17639
 Alpha  occ. eigenvalues --   -1.10713  -1.04823  -0.91039  -0.79302  -0.76343
 Alpha  occ. eigenvalues --   -0.69072  -0.64943  -0.60591  -0.57861  -0.56317
 Alpha  occ. eigenvalues --   -0.54258  -0.50868  -0.50231  -0.49426  -0.45309
 Alpha  occ. eigenvalues --   -0.38892  -0.36479  -0.35576  -0.31990
 Alpha virt. eigenvalues --   -0.02421  -0.01090   0.01637   0.02089   0.02860
 Alpha virt. eigenvalues --    0.04203   0.04561   0.04970   0.05430   0.07304
 Alpha virt. eigenvalues --    0.07714   0.08565   0.09377   0.10343   0.11308
 Alpha virt. eigenvalues --    0.12950   0.13417   0.14202   0.14749   0.15041
 Alpha virt. eigenvalues --    0.15711   0.16506   0.16593   0.17621   0.18172
 Alpha virt. eigenvalues --    0.19488   0.20072   0.20394   0.21660   0.22193
 Alpha virt. eigenvalues --    0.23072   0.23357   0.23639   0.24491   0.24948
 Alpha virt. eigenvalues --    0.25785   0.25979   0.26328   0.27059   0.27757
 Alpha virt. eigenvalues --    0.27935   0.28493   0.28849   0.28977   0.30323
 Alpha virt. eigenvalues --    0.31713   0.32369   0.32843   0.33251   0.33381
 Alpha virt. eigenvalues --    0.34101   0.34153   0.35011   0.35725   0.36947
 Alpha virt. eigenvalues --    0.37786   0.38587   0.38847   0.39601   0.40041
 Alpha virt. eigenvalues --    0.40457   0.40868   0.41814   0.42760   0.43975
 Alpha virt. eigenvalues --    0.44483   0.45341   0.45910   0.46207   0.47151
 Alpha virt. eigenvalues --    0.47559   0.48360   0.49084   0.49458   0.50134
 Alpha virt. eigenvalues --    0.50953   0.51697   0.52491   0.53419   0.53494
 Alpha virt. eigenvalues --    0.54444   0.55162   0.55715   0.56130   0.56943
 Alpha virt. eigenvalues --    0.59056   0.59364   0.59952   0.60363   0.60654
 Alpha virt. eigenvalues --    0.61732   0.62036   0.63203   0.63836   0.64509
 Alpha virt. eigenvalues --    0.64764   0.66962   0.67339   0.67829   0.70067
 Alpha virt. eigenvalues --    0.70278   0.71418   0.71851   0.72394   0.73008
 Alpha virt. eigenvalues --    0.74097   0.75413   0.76177   0.79072   0.80369
 Alpha virt. eigenvalues --    0.80504   0.80708   0.82210   0.82618   0.83722
 Alpha virt. eigenvalues --    0.85478   0.86276   0.88086   0.88872   0.90596
 Alpha virt. eigenvalues --    0.90740   0.92111   0.93082   0.93661   0.95095
 Alpha virt. eigenvalues --    0.95332   0.96725   0.98956   0.99787   1.01602
 Alpha virt. eigenvalues --    1.02650   1.03039   1.04476   1.06253   1.06641
 Alpha virt. eigenvalues --    1.09221   1.10106   1.12149   1.12441   1.13934
 Alpha virt. eigenvalues --    1.16519   1.17783   1.18016   1.18547   1.20134
 Alpha virt. eigenvalues --    1.22268   1.23589   1.24445   1.28051   1.28409
 Alpha virt. eigenvalues --    1.30724   1.30841   1.32594   1.33859   1.34679
 Alpha virt. eigenvalues --    1.35819   1.36211   1.36669   1.38182   1.42082
 Alpha virt. eigenvalues --    1.42520   1.43891   1.45701   1.52147   1.53308
 Alpha virt. eigenvalues --    1.54307   1.56732   1.57512   1.58133   1.62390
 Alpha virt. eigenvalues --    1.63198   1.64453   1.66231   1.67992   1.68908
 Alpha virt. eigenvalues --    1.70303   1.71435   1.71855   1.73202   1.74029
 Alpha virt. eigenvalues --    1.75160   1.77581   1.78815   1.80434   1.82366
 Alpha virt. eigenvalues --    1.83435   1.83929   1.86410   1.87127   1.90053
 Alpha virt. eigenvalues --    1.91332   1.92631   1.94759   1.95482   1.97147
 Alpha virt. eigenvalues --    1.97900   1.99955   2.00956   2.01495   2.05001
 Alpha virt. eigenvalues --    2.06696   2.07073   2.08396   2.09729   2.12053
 Alpha virt. eigenvalues --    2.13348   2.14024   2.14896   2.15360   2.18813
 Alpha virt. eigenvalues --    2.20213   2.22332   2.23588   2.24544   2.25832
 Alpha virt. eigenvalues --    2.28060   2.29311   2.30682   2.33296   2.34467
 Alpha virt. eigenvalues --    2.36299   2.38055   2.38749   2.40495   2.40878
 Alpha virt. eigenvalues --    2.42941   2.44593   2.48412   2.48642   2.51268
 Alpha virt. eigenvalues --    2.52386   2.52742   2.54570   2.54829   2.56701
 Alpha virt. eigenvalues --    2.58087   2.59987   2.61632   2.62689   2.64776
 Alpha virt. eigenvalues --    2.65028   2.68392   2.70842   2.72770   2.74456
 Alpha virt. eigenvalues --    2.74952   2.76122   2.76957   2.78371   2.79249
 Alpha virt. eigenvalues --    2.80013   2.83235   2.84310   2.86315   2.88737
 Alpha virt. eigenvalues --    2.90242   2.94286   2.94937   2.98010   3.00327
 Alpha virt. eigenvalues --    3.01187   3.02422   3.04698   3.06245   3.06787
 Alpha virt. eigenvalues --    3.07701   3.10036   3.12142   3.13812   3.15829
 Alpha virt. eigenvalues --    3.16735   3.18956   3.23152   3.26182   3.28560
 Alpha virt. eigenvalues --    3.30724   3.32151   3.33411   3.34530   3.38015
 Alpha virt. eigenvalues --    3.39040   3.41883   3.43052   3.44522   3.45665
 Alpha virt. eigenvalues --    3.48136   3.49401   3.52678   3.54484   3.56105
 Alpha virt. eigenvalues --    3.61021   3.62287   3.62916   3.64685   3.65590
 Alpha virt. eigenvalues --    3.71502   3.71960   3.73311   3.77612   3.77997
 Alpha virt. eigenvalues --    3.88174   3.89023   3.90623   3.92107   3.94799
 Alpha virt. eigenvalues --    3.98663   4.02734   4.04321   4.05429   4.08371
 Alpha virt. eigenvalues --    4.10768   4.12011   4.15911   4.17384   4.18609
 Alpha virt. eigenvalues --    4.18752   4.20267   4.21943   4.23711   4.30298
 Alpha virt. eigenvalues --    4.31661   4.32799   4.38999   4.41235   4.44356
 Alpha virt. eigenvalues --    4.47025   4.47389   4.48231   4.52780   4.56789
 Alpha virt. eigenvalues --    4.62515   4.63586   4.68687   4.71377   4.74304
 Alpha virt. eigenvalues --    4.77435   4.85121   4.85700   4.88071   4.91015
 Alpha virt. eigenvalues --    4.92737   4.95032   4.97635   4.99705   5.01177
 Alpha virt. eigenvalues --    5.02416   5.06269   5.11316   5.15533   5.18246
 Alpha virt. eigenvalues --    5.20148   5.23947   5.24204   5.26011   5.28016
 Alpha virt. eigenvalues --    5.33193   5.36650   5.37363   5.39211   5.41620
 Alpha virt. eigenvalues --    5.42892   5.43953   5.47121   5.49320   5.51766
 Alpha virt. eigenvalues --    5.53160   5.54565   5.56255   5.56545   5.58614
 Alpha virt. eigenvalues --    5.61907   5.63656   5.66085   5.67605   5.70208
 Alpha virt. eigenvalues --    5.71548   5.75890   5.79280   5.80565   5.81758
 Alpha virt. eigenvalues --    5.84885   5.87464   5.88026   5.90548   5.93288
 Alpha virt. eigenvalues --    5.97768   5.99230   6.00539   6.00798   6.04458
 Alpha virt. eigenvalues --    6.05823   6.07023   6.08454   6.11990   6.14002
 Alpha virt. eigenvalues --    6.16581   6.18060   6.19644   6.20020   6.21037
 Alpha virt. eigenvalues --    6.23587   6.25579   6.25884   6.27052   6.28962
 Alpha virt. eigenvalues --    6.32951   6.34492   6.34908   6.35947   6.39521
 Alpha virt. eigenvalues --    6.41639   6.45433   6.47322   6.49302   6.50508
 Alpha virt. eigenvalues --    6.53622   6.59925   6.61166   6.65925   6.68681
 Alpha virt. eigenvalues --    6.70019   6.73032   6.73810   6.79741   6.82128
 Alpha virt. eigenvalues --    6.88012   6.90150   6.92611   6.94103   6.94676
 Alpha virt. eigenvalues --    6.98700   7.01156   7.03032   7.03917   7.05131
 Alpha virt. eigenvalues --    7.09419   7.12048   7.13854   7.19027   7.20609
 Alpha virt. eigenvalues --    7.27607   7.29142   7.30817   7.33118   7.36400
 Alpha virt. eigenvalues --    7.40411   7.41295   7.44013   7.47049   7.48358
 Alpha virt. eigenvalues --    7.50178   7.52940   7.54864   7.57648   7.57959
 Alpha virt. eigenvalues --    7.61699   7.63084   7.67529   7.70126   7.71455
 Alpha virt. eigenvalues --    7.72322   7.77739   7.80583   7.82584   7.82915
 Alpha virt. eigenvalues --    7.84879   7.89401   7.89713   7.92438   7.93379
 Alpha virt. eigenvalues --    7.95838   7.98075   7.99604   8.01233   8.04701
 Alpha virt. eigenvalues --    8.08070   8.09693   8.11322   8.12575   8.15834
 Alpha virt. eigenvalues --    8.16062   8.17647   8.20368   8.23137   8.25327
 Alpha virt. eigenvalues --    8.26423   8.33539   8.33930   8.35881   8.39343
 Alpha virt. eigenvalues --    8.42319   8.49778   8.52038   8.56293   8.59298
 Alpha virt. eigenvalues --    8.62599   8.64353   8.67585   8.71495   8.77012
 Alpha virt. eigenvalues --    8.79953   8.80748   8.82375   8.83588   8.83762
 Alpha virt. eigenvalues --    8.85126   8.90093   8.91318   8.95478   8.98250
 Alpha virt. eigenvalues --    8.99957   9.03413   9.06519   9.08035   9.09549
 Alpha virt. eigenvalues --    9.10373   9.13638   9.20123   9.24940   9.28385
 Alpha virt. eigenvalues --    9.34809   9.41595   9.44338   9.52094   9.53670
 Alpha virt. eigenvalues --    9.54009   9.56650   9.60386   9.63038   9.67533
 Alpha virt. eigenvalues --    9.71657   9.73258   9.74597   9.85815   9.86369
 Alpha virt. eigenvalues --    9.88884   9.91190   9.94474   9.96260  10.00871
 Alpha virt. eigenvalues --   10.05549  10.11768  10.13810  10.18579  10.26255
 Alpha virt. eigenvalues --   10.27033  10.28893  10.33091  10.48887  10.58542
 Alpha virt. eigenvalues --   10.64474  10.68909  10.75813  10.89252  10.90684
 Alpha virt. eigenvalues --   10.91494  10.93253  10.95073  10.98245  10.99249
 Alpha virt. eigenvalues --   11.20603  11.30457  11.32625  11.34103  11.38765
 Alpha virt. eigenvalues --   11.39490  11.49211  11.54314  11.61844  11.67087
 Alpha virt. eigenvalues --   11.72221  11.73240  11.75291  11.78629  11.80535
 Alpha virt. eigenvalues --   11.88969  11.91560  11.96016  12.07841  12.12323
 Alpha virt. eigenvalues --   12.14862  12.17187  12.30097  12.32896  12.38612
 Alpha virt. eigenvalues --   12.86333  13.02130  13.03803  13.38142  13.52836
 Alpha virt. eigenvalues --   14.23848  14.26117  14.37294  14.39391  14.71060
 Alpha virt. eigenvalues --   14.79090  28.26564  28.45926  28.58122  29.14683
 Alpha virt. eigenvalues --   38.01263  38.09151  48.32220  48.33029 145.73997
 Alpha virt. eigenvalues --  145.87852 146.01086 146.62519 195.61867 195.70271
 Alpha virt. eigenvalues --  251.43595 251.44832
          Condensed to atoms (all electrons):
               1          2          3          4          5          6
     1  N    6.934440   0.092328   0.436261  -0.121501  -0.122754  -0.001503
     2  H    0.092328   0.578352   0.003780   0.073279  -0.021474  -0.000359
     3  C    0.436261   0.003780   5.113954   0.465143  -0.081697  -0.121155
     4  O   -0.121501   0.073279   0.465143   8.132771  -0.001589  -0.002901
     5  N   -0.122754  -0.021474  -0.081697  -0.001589   6.729957  -0.007504
     6  H   -0.001503  -0.000359  -0.121155  -0.002901  -0.007504   0.366577
     7  C   -0.070976   0.019486  -0.172584  -0.007058   0.352482   0.090945
     8  H   -0.004469  -0.002470  -0.019907   0.000859  -0.061324   0.017422
     9  C   -0.150765  -0.022814   0.400630  -0.072966  -0.112701   0.189762
    10  H   -0.010602   0.008644   0.022153   0.000439   0.237687  -0.001143
    11  C    0.472216  -0.046799  -0.180634   0.027184   0.518062  -0.009949
    12  O   -0.105383   0.056509   0.027530   0.000118  -0.086736   0.000893
               7          8          9         10         11         12
     1  N   -0.070976  -0.004469  -0.150765  -0.010602   0.472216  -0.105383
     2  H    0.019486  -0.002470  -0.022814   0.008644  -0.046799   0.056509
     3  C   -0.172584  -0.019907   0.400630   0.022153  -0.180634   0.027530
     4  O   -0.007058   0.000859  -0.072966   0.000439   0.027184   0.000118
     5  N    0.352482  -0.061324  -0.112701   0.237687   0.518062  -0.086736
     6  H    0.090945   0.017422   0.189762  -0.001143  -0.009949   0.000893
     7  C    5.566478   0.380064   0.173235  -0.019350  -0.136607   0.031426
     8  H    0.380064   0.457476  -0.045364  -0.011614  -0.020757   0.004769
     9  C    0.173235  -0.045364   5.677800   0.000759  -0.032016   0.011256
    10  H   -0.019350  -0.011614   0.000759   0.393986  -0.024381   0.042865
    11  C   -0.136607  -0.020757  -0.032016  -0.024381   4.623222   0.443287
    12  O    0.031426   0.004769   0.011256   0.042865   0.443287   8.045659
 Mulliken charges:
               1
     1  N   -0.347293
     2  H    0.261539
     3  C    0.106526
     4  O   -0.493778
     5  N   -0.342409
     6  H    0.478916
     7  C   -0.207541
     8  H    0.305315
     9  C   -0.016816
    10  H    0.360559
    11  C    0.367174
    12  O   -0.472193
 Sum of Mulliken charges =  -0.00000
 Mulliken charges with hydrogens summed into heavy atoms:
               1
     1  N   -0.085754
     3  C    0.106526
     4  O   -0.493778
     5  N    0.018150
     7  C    0.097774
     9  C    0.462100
    11  C    0.367174
    12  O   -0.472193
 Electronic spatial extent (au):  <R**2>=            828.1308
 Charge=             -0.0000 electrons
 Dipole moment (field-independent basis, Debye):
    X=              1.3313    Y=              4.3917    Z=             -0.0611  Tot=              4.5894
 Quadrupole moment (field-independent basis, Debye-Ang):
   XX=            -58.2680   YY=            -38.2715   ZZ=            -46.4500
   XY=              2.3093   XZ=             -0.5173   YZ=             -0.6388
 Traceless Quadrupole moment (field-independent basis, Debye-Ang):
   XX=            -10.6049   YY=              9.3917   ZZ=              1.2132
   XY=              2.3093   XZ=             -0.5173   YZ=             -0.6388
 Octapole moment (field-independent basis, Debye-Ang**2):
  XXX=             10.7171  YYY=              6.9061  ZZZ=             -0.4979  XYY=              4.7340
  XXY=             31.3291  XXZ=              0.3569  XZZ=              1.7449  YZZ=             -4.0374
  YYZ=             -0.7009  XYZ=             -0.6795
 Hexadecapole moment (field-independent basis, Debye-Ang**3):
 XXXX=           -709.2088 YYYY=           -311.0804 ZZZZ=            -46.0431 XXXY=             11.7231
 XXXZ=             -2.7230 YYYX=             11.9755 YYYZ=             -2.2093 ZZZX=             -0.1345
 ZZZY=             -0.0589 XXYY=           -172.9294 XXZZ=           -112.3554 YYZZ=            -74.6725
 XXYZ=             -3.0123 YYXZ=             -1.1942 ZZXY=              2.6754
 N-N= 3.571602752498D+02 E-N=-1.684666812582D+03  KE= 4.132346051126D+02
 PrsmSu:  requested number of processors reduced to:  20 ShMem   1 Linda.
 No NMR shielding tensors so no spin-rotation constants.
 Leave Link  601 at Sun Apr 18 03:03:32 2021, MaxMem=   104857600 cpu:             436.8 elap:               9.6
 (Enter /s/ls4/users/knvvv/bin/g16sse/l9999.exe)

 Test job not archived.
 1\1\GINC-N178\Stability\RM062X\Gen\C4H4N2O2\KNVVV\18-Apr-2021\0\\#P M0
 62X/GEN Integral=UltraFineGrid SCF=NoSymm Stable=(RExt, Opt) IOp(1/33=
 1)\\Database calculations.\\0,1\N,0,1.376901114,0.839747467,0.73462493
 9\H,0,1.051812405,1.386223848,1.523355628\C,0,1.308982712,1.457529813,
 -0.520654996\O,0,0.920561362,2.611077765,-0.625976731\N,0,2.011422932,
 -1.213208303,-0.098071819\H,0,1.727285511,0.990842685,-2.61199556\C,0,
 2.025736871,-0.697171229,-1.364397399\H,0,2.297516982,-1.391060038,-2.
 145645314\C,0,1.714512349,0.591937798,-1.612487223\H,0,2.129454216,-2.
 201520905,0.056829125\C,0,1.645945031,-0.485205977,1.018718301\O,0,1.5
 61116018,-0.971816376,2.129809048\\Version=ES64L-G16RevA.03\State=1-A\
 HF=-414.8608203\RMSD=2.448e-09\Dipole=0.5174596,-1.3704172,-1.0556832\
 Quadrupole=0.957681,-0.9390796,-0.0186014,0.0552193,-1.8309656,7.41166
 08\PG=C01 [X(C4H4N2O2)]\\@


 IT TAKES GREATER CHARACTER TO CARRY OFF GOOD FORTUNE THAN BAD.
                     FRENCH PROVERB.
 Job cpu time:       2 days  6 hours 21 minutes 20.2 seconds.
 Elapsed time:       0 days  1 hours 50 minutes 35.7 seconds.
 File lengths (MBytes):  RWF=    882 Int=      0 D2E=      0 Chk=     49 Scr=      1
 Normal termination of Gaussian 16 at Sun Apr 18 03:03:32 2021.
