 Entering Gaussian System, Link 0=/s/ls4/groups/g0130/bin/g16/g16
 Input=M062X--def2-QZVPPD--43_Arginine_xaw_YMPJ519.gjf
 Output=M062X--def2-QZVPPD--43_Arginine_xaw_YMPJ519.log
 Initial command:
 /s/ls4/groups/g0130/bin/g16/l1.exe "/dev/shm/scratch_knvvv/Gau-19187.inp" -scrdir="/dev/shm/scratch_knvvv/"
 Entering Link 1 = /s/ls4/groups/g0130/bin/g16/l1.exe PID=     19188.
  
 Copyright (c) 1988,1990,1992,1993,1995,1998,2003,2009,2016,
            Gaussian, Inc.  All Rights Reserved.
  
 This is part of the Gaussian(R) 16 program.  It is based on
 the Gaussian(R) 09 system (copyright 2009, Gaussian, Inc.),
 the Gaussian(R) 03 system (copyright 2003, Gaussian, Inc.),
 the Gaussian(R) 98 system (copyright 1998, Gaussian, Inc.),
 the Gaussian(R) 94 system (copyright 1995, Gaussian, Inc.),
 the Gaussian 92(TM) system (copyright 1992, Gaussian, Inc.),
 the Gaussian 90(TM) system (copyright 1990, Gaussian, Inc.),
 the Gaussian 88(TM) system (copyright 1988, Gaussian, Inc.),
 the Gaussian 86(TM) system (copyright 1986, Carnegie Mellon
 University), and the Gaussian 82(TM) system (copyright 1983,
 Carnegie Mellon University). Gaussian is a federally registered
 trademark of Gaussian, Inc.
  
 This software contains proprietary and confidential information,
 including trade secrets, belonging to Gaussian, Inc.
  
 This software is provided under written license and may be
 used, copied, transmitted, or stored only in accord with that
 written license.
  
 The following legend is applicable only to US Government
 contracts under FAR:
  
                    RESTRICTED RIGHTS LEGEND
  
 Use, reproduction and disclosure by the US Government is
 subject to restrictions as set forth in subparagraphs (a)
 and (c) of the Commercial Computer Software - Restricted
 Rights clause in FAR 52.227-19.
  
 Gaussian, Inc.
 340 Quinnipiac St., Bldg. 40, Wallingford CT 06492
  
  
 ---------------------------------------------------------------
 Warning -- This program may not be used in any manner that
 competes with the business of Gaussian, Inc. or will provide
 assistance to any competitor of Gaussian, Inc.  The licensee
 of this program is prohibited from giving any competitor of
 Gaussian, Inc. access to this program.  By using this program,
 the user acknowledges that Gaussian, Inc. is engaged in the
 business of creating and licensing software in the field of
 computational chemistry and represents and warrants to the
 licensee that it is not a competitor of Gaussian, Inc. and that
 it will not use this program in any manner prohibited above.
 ---------------------------------------------------------------
  

 Cite this work as:
 Gaussian 16, Revision A.03,
 M. J. Frisch, G. W. Trucks, H. B. Schlegel, G. E. Scuseria, 
 M. A. Robb, J. R. Cheeseman, G. Scalmani, V. Barone, 
 G. A. Petersson, H. Nakatsuji, X. Li, M. Caricato, A. V. Marenich, 
 J. Bloino, B. G. Janesko, R. Gomperts, B. Mennucci, H. P. Hratchian, 
 J. V. Ortiz, A. F. Izmaylov, J. L. Sonnenberg, D. Williams-Young, 
 F. Ding, F. Lipparini, F. Egidi, J. Goings, B. Peng, A. Petrone, 
 T. Henderson, D. Ranasinghe, V. G. Zakrzewski, J. Gao, N. Rega, 
 G. Zheng, W. Liang, M. Hada, M. Ehara, K. Toyota, R. Fukuda, 
 J. Hasegawa, M. Ishida, T. Nakajima, Y. Honda, O. Kitao, H. Nakai, 
 T. Vreven, K. Throssell, J. A. Montgomery, Jr., J. E. Peralta, 
 F. Ogliaro, M. J. Bearpark, J. J. Heyd, E. N. Brothers, K. N. Kudin, 
 V. N. Staroverov, T. A. Keith, R. Kobayashi, J. Normand, 
 K. Raghavachari, A. P. Rendell, J. C. Burant, S. S. Iyengar, 
 J. Tomasi, M. Cossi, J. M. Millam, M. Klene, C. Adamo, R. Cammi, 
 J. W. Ochterski, R. L. Martin, K. Morokuma, O. Farkas, 
 J. B. Foresman, and D. J. Fox, Gaussian, Inc., Wallingford CT, 2016.
 
 ******************************************
 Gaussian 16:  ES64L-G16RevA.03 25-Dec-2016
                20-Apr-2021 
 ******************************************
 %nprocshared=48
 Will use up to   48 processors via shared memory.
 %mem=90GB
 ----------------------------------------------------------------------
 #P M062X/GEN Integral=UltraFineGrid SCF=NoSymm Stable=(RExt, Opt) IOp(
 1/33=1)
 ----------------------------------------------------------------------
 1/33=1,38=1,172=1/1;
 2/12=2,17=6,18=5,40=1/2;
 3/5=7,11=2,25=1,30=1,74=-55,75=-5/1,2,3;
 4/9=2/1;
 5/5=2,38=5/2;
 6/7=2,8=2,9=2,10=2,28=1/1;
 8/6=1,10=90,11=11/1;
 9/8=-3,42=1,46=1/14;
 5/5=2,8=3,17=40,38=5/8(-2);
 6/7=2,8=2,9=2,10=2,28=1/1;
 99/5=1,9=1/99;
 Leave Link    1 at Tue Apr 20 10:36:10 2021, MaxMem= 12079595520 cpu:               6.7 elap:               0.2
 (Enter /s/ls4/groups/g0130/bin/g16/l101.exe)
 ONIOM data not found on unit 2.
 ----------------------
 Database calculations.
 ----------------------
 TstMul:  ICh=     0
 TstMul:  Mul=     1
 TstMul:  ICh=     0
 TstMul:  Mul=     1
 Symbolic Z-matrix:
 Charge =  0 Multiplicity = 1
 N                     2.27888  -0.29253  -0.6261 
 H                     3.20756   0.01407  -0.86238 
 C                     1.24011   0.71582  -0.83024 
 H                     1.47957   1.20562  -1.7755 
 C                    -0.18282   0.17725  -0.94236 
 C                     1.35043   1.87272   0.17051 
 H                    -0.20177  -0.62109  -1.68503 
 H                    -0.49993  -0.26953  -0.00764 
 C                    -1.14153   1.29082  -1.35087 
 O                     1.60994   2.99976  -0.24954 
 H                    -0.85492   1.69365  -2.32646 
 H                    -1.07734   2.12324  -0.64493 
 C                    -2.59201   0.81912  -1.41745 
 H                    -2.67399  -0.0356   -2.08659 
 H                    -3.21619   1.61107  -1.83133 
 N                    -3.15734   0.45038  -0.1219 
 H                    -3.10697   1.19691   0.55885 
 C                    -2.80266  -0.7361    0.50093 
 N                    -2.51082  -0.72925   1.75353 
 N                    -2.78792  -1.82767  -0.35865 
 H                    -2.40644  -1.68261   2.0914 
 H                    -2.64076  -2.70995   0.10283 
 H                    -3.55035  -1.85185  -1.01731 
 N                     1.14483   1.63688   1.48708 
 C                     0.76273   0.41472   2.17223 
 H                     1.2008    2.48194   2.03538 
 H                    -0.28976   0.42518   2.4544 
 H                     1.37635   0.29828   3.06426 
 H                     0.92375  -0.4486    1.53855 
 C                     2.16757  -1.59487  -0.2422 
 C                     3.46854  -2.3677   -0.28935 
 O                     1.12431  -2.12985   0.11516 
 H                     4.34629  -1.74203  -0.4322 
 H                     3.56791  -2.92664   0.63691 
 H                     3.41034  -3.08605  -1.1049 
 
 RdStrC is calling ZToCFu for IStruc=1 NZ=    35.
 PrtBox:  NBox=     7 Levels=  2 BoxLen=    8.00 SMaxX=       14.92
          Shift=            6.709198            5.831788            4.396368
 Box      1 Number                   0 centers from      1 to     11:
 Box      2 Number                   1 centers from     12 to     13:
 Box      3 Number                   2 centers from     14 to     18:
 Box      4 Number                   4 centers from     19 to     28:
 Box      5 Number                   5 centers from     29 to     30:
 Box      6 Number                   6 centers from     31 to     34:
 Box      7 Number                   7 centers from     35 to     35:
 After GenITR:
 ITRead=  0  0  0  0  0  0  0  0  0  0  0  0  0  0  0  0  0  0  0  0
 ITRead=  0  0  0  0  0  0  0  0  0  0  0  0  0  0  0
 MicOpt= -1 -1 -1 -1 -1 -1 -1 -1 -1 -1 -1 -1 -1 -1 -1 -1 -1 -1 -1 -1
 MicOpt= -1 -1 -1 -1 -1 -1 -1 -1 -1 -1 -1 -1 -1 -1 -1
 ITRead=  0  0  0  0  0  0  0  0  0  0  0  0  0  0  0  0  0  0  0  0
 ITRead=  0  0  0  0  0  0  0  0  0  0  0  0  0  0  0
 MicOpt= -1 -1 -1 -1 -1 -1 -1 -1 -1 -1 -1 -1 -1 -1 -1 -1 -1 -1 -1 -1
 MicOpt= -1 -1 -1 -1 -1 -1 -1 -1 -1 -1 -1 -1 -1 -1 -1
 NAtoms=     35 NQM=       35 NQMF=       0 NMMI=      0 NMMIF=      0
                NMic=       0 NMicF=      0.
                    Isotopes and Nuclear Properties:
 (Nuclear quadrupole moments (NQMom) in fm**2, nuclear magnetic moments (NMagM)
  in nuclear magnetons)

  Atom         1           2           3           4           5           6           7           8           9          10
 IAtWgt=          14           1          12           1          12          12           1           1          12          16
 AtmWgt=  14.0030740   1.0078250  12.0000000   1.0078250  12.0000000  12.0000000   1.0078250   1.0078250  12.0000000  15.9949146
 NucSpn=           2           1           0           1           0           0           1           1           0           0
 AtZEff=  -0.0000000  -0.0000000  -0.0000000  -0.0000000  -0.0000000  -0.0000000  -0.0000000  -0.0000000  -0.0000000  -0.0000000
 NQMom=    2.0440000   0.0000000   0.0000000   0.0000000   0.0000000   0.0000000   0.0000000   0.0000000   0.0000000   0.0000000
 NMagM=    0.4037610   2.7928460   0.0000000   2.7928460   0.0000000   0.0000000   2.7928460   2.7928460   0.0000000   0.0000000
 AtZNuc=   7.0000000   1.0000000   6.0000000   1.0000000   6.0000000   6.0000000   1.0000000   1.0000000   6.0000000   8.0000000

  Atom        11          12          13          14          15          16          17          18          19          20
 IAtWgt=           1           1          12           1           1          14           1          12          14          14
 AtmWgt=   1.0078250   1.0078250  12.0000000   1.0078250   1.0078250  14.0030740   1.0078250  12.0000000  14.0030740  14.0030740
 NucSpn=           1           1           0           1           1           2           1           0           2           2
 AtZEff=  -0.0000000  -0.0000000  -0.0000000  -0.0000000  -0.0000000  -0.0000000  -0.0000000  -0.0000000  -0.0000000  -0.0000000
 NQMom=    0.0000000   0.0000000   0.0000000   0.0000000   0.0000000   2.0440000   0.0000000   0.0000000   2.0440000   2.0440000
 NMagM=    2.7928460   2.7928460   0.0000000   2.7928460   2.7928460   0.4037610   2.7928460   0.0000000   0.4037610   0.4037610
 AtZNuc=   1.0000000   1.0000000   6.0000000   1.0000000   1.0000000   7.0000000   1.0000000   6.0000000   7.0000000   7.0000000

  Atom        21          22          23          24          25          26          27          28          29          30
 IAtWgt=           1           1           1          14          12           1           1           1           1          12
 AtmWgt=   1.0078250   1.0078250   1.0078250  14.0030740  12.0000000   1.0078250   1.0078250   1.0078250   1.0078250  12.0000000
 NucSpn=           1           1           1           2           0           1           1           1           1           0
 AtZEff=  -0.0000000  -0.0000000  -0.0000000  -0.0000000  -0.0000000  -0.0000000  -0.0000000  -0.0000000  -0.0000000  -0.0000000
 NQMom=    0.0000000   0.0000000   0.0000000   2.0440000   0.0000000   0.0000000   0.0000000   0.0000000   0.0000000   0.0000000
 NMagM=    2.7928460   2.7928460   2.7928460   0.4037610   0.0000000   2.7928460   2.7928460   2.7928460   2.7928460   0.0000000
 AtZNuc=   1.0000000   1.0000000   1.0000000   7.0000000   6.0000000   1.0000000   1.0000000   1.0000000   1.0000000   6.0000000

  Atom        31          32          33          34          35
 IAtWgt=          12          16           1           1           1
 AtmWgt=  12.0000000  15.9949146   1.0078250   1.0078250   1.0078250
 NucSpn=           0           0           1           1           1
 AtZEff=  -0.0000000  -0.0000000  -0.0000000  -0.0000000  -0.0000000
 NQMom=    0.0000000   0.0000000   0.0000000   0.0000000   0.0000000
 NMagM=    0.0000000   0.0000000   2.7928460   2.7928460   2.7928460
 AtZNuc=   6.0000000   8.0000000   1.0000000   1.0000000   1.0000000
 No MM parameters found.
 Leave Link  101 at Tue Apr 20 10:36:11 2021, MaxMem= 12079595520 cpu:              10.9 elap:               0.3
 (Enter /s/ls4/groups/g0130/bin/g16/l202.exe)
                          Input orientation:                          
 ---------------------------------------------------------------------
 Center     Atomic      Atomic             Coordinates (Angstroms)
 Number     Number       Type             X           Y           Z
 ---------------------------------------------------------------------
      1          7           0        2.278885   -0.292532   -0.626097
      2          1           0        3.207559    0.014074   -0.862375
      3          6           0        1.240110    0.715818   -0.830239
      4          1           0        1.479574    1.205623   -1.775496
      5          6           0       -0.182824    0.177255   -0.942363
      6          6           0        1.350426    1.872723    0.170507
      7          1           0       -0.201772   -0.621095   -1.685032
      8          1           0       -0.499934   -0.269533   -0.007639
      9          6           0       -1.141526    1.290824   -1.350869
     10          8           0        1.609940    2.999755   -0.249545
     11          1           0       -0.854920    1.693648   -2.326458
     12          1           0       -1.077338    2.123245   -0.644931
     13          6           0       -2.592005    0.819123   -1.417448
     14          1           0       -2.673990   -0.035596   -2.086587
     15          1           0       -3.216189    1.611065   -1.831333
     16          7           0       -3.157338    0.450377   -0.121897
     17          1           0       -3.106967    1.196906    0.558848
     18          6           0       -2.802661   -0.736104    0.500935
     19          7           0       -2.510819   -0.729250    1.753525
     20          7           0       -2.787922   -1.827673   -0.358648
     21          1           0       -2.406443   -1.682612    2.091400
     22          1           0       -2.640758   -2.709948    0.102833
     23          1           0       -3.550355   -1.851849   -1.017307
     24          7           0        1.144827    1.636881    1.487076
     25          6           0        0.762734    0.414722    2.172232
     26          1           0        1.200798    2.481942    2.035383
     27          1           0       -0.289763    0.425180    2.454400
     28          1           0        1.376349    0.298280    3.064262
     29          1           0        0.923751   -0.448596    1.538548
     30          6           0        2.167572   -1.594872   -0.242198
     31          6           0        3.468539   -2.367696   -0.289346
     32          8           0        1.124310   -2.129847    0.115162
     33          1           0        4.346292   -1.742028   -0.432199
     34          1           0        3.567906   -2.926642    0.636911
     35          1           0        3.410338   -3.086050   -1.104905
 ---------------------------------------------------------------------
                    Distance matrix (angstroms):
                    1          2          3          4          5
     1  N    0.000000
     2  H    1.006117   0.000000
     3  C    1.462018   2.089098   0.000000
     4  H    2.050484   2.288998   1.091220   0.000000
     5  C    2.526011   3.395250   1.525570   2.124904   0.000000
     6  C    2.486955   2.823184   1.533653   2.061221   2.542430
     7  H    2.717159   3.564231   2.144069   2.484352   1.090541
     8  H    2.846902   3.815300   2.162254   3.036421   1.083461
     9  C    3.838166   4.558866   2.504771   2.656639   1.525131
    10  O    3.380597   3.441256   2.385445   2.358905   3.414749
    11  H    4.081283   4.633384   2.753901   2.447772   2.160296
    12  H    4.135282   4.780818   2.717674   2.942449   2.162290
    13  C    5.058417   5.881425   3.878221   4.105525   2.538081
    14  H    5.170107   6.007810   4.178901   4.346204   2.749629
    15  H    5.939033   6.689828   4.654273   4.713564   3.470934
    16  N    5.509868   6.422662   4.462035   4.980536   3.097659
    17  H    5.712260   6.579681   4.588910   5.146416   3.441502
    18  C    5.223893   6.208392   4.497122   5.223981   3.127440
    19  N    5.366058   6.332086   4.778445   5.667535   3.675476
    20  N    5.301011   6.292183   4.787149   5.424008   3.338711
    21  H    5.591905   6.566624   5.252218   6.196443   4.196106
    22  H    5.529749   6.523399   5.260004   5.986397   3.933169
    23  H    6.046862   7.012494   5.438425   5.934911   3.932320
    24  N    3.078022   3.522540   2.495473   3.307932   3.129751
    25  C    3.260302   3.917465   3.055059   4.089492   3.263614
    26  H    3.992925   4.302844   3.366382   4.028586   4.011604
    27  H    4.074619   4.837485   3.635084   4.650985   3.407477
    28  H    3.844786   4.341956   3.919188   4.925158   4.301012
    29  H    2.558600   3.345785   2.658402   3.745433   2.787673
    30  C    1.362299   2.013678   2.558372   3.266055   3.025727
    31  C    2.415572   2.463595   3.842724   4.351234   4.498406
    32  O    2.293084   3.145140   3.000834   3.850475   2.854764
    33  H    2.532352   2.136740   3.980930   4.325640   4.945382
    34  H    3.193008   3.320470   4.564940   5.220771   5.118228
    35  H    3.051751   3.116200   4.386289   4.753525   4.856582
                    6          7          8          9         10
     6  C    0.000000
     7  H    3.474403   0.000000
     8  H    2.836341   1.739582   0.000000
     9  C    2.977082   2.156441   2.156531   0.000000
    10  O    1.230444   4.295752   3.898504   3.421100   0.000000
    11  H    3.336233   2.489189   3.058924   1.093701   3.477790
    12  H    2.573273   3.062650   2.542621   1.093341   2.854131
    13  C    4.378863   2.803399   2.747635   1.526705   4.876013
    14  H    4.993203   2.572142   3.017163   2.156181   5.562386
    15  H    4.992975   3.753752   3.773666   2.153515   5.265172
    16  N    4.735874   3.510957   2.755562   2.506038   5.407639
    17  H    4.525029   4.096375   3.044335   2.742043   5.113999
    18  C    4.915617   3.399456   2.403932   3.208892   5.830173
    19  N    4.917868   4.143317   2.712323   3.948789   5.907489
    20  N    5.576635   3.146951   2.790322   3.663352   6.531245
    21  H    5.517635   4.499870   3.168206   4.721287   6.598175
    22  H    6.077418   3.675381   3.248224   4.512996   7.126943
    23  H    6.269050   3.629548   3.581651   3.973678   7.124336
    24  N    1.353235   4.119958   2.928109   3.660751   2.256016
    25  C    2.545202   4.108732   2.610435   4.099513   3.642137
    26  H    1.967561   5.043563   3.825839   4.286251   2.378323
    27  H    3.162557   4.270519   2.566794   3.994360   4.189108
    28  H    3.294443   5.088370   3.644094   5.178631   4.281804
    29  H    2.728023   3.418776   2.109416   3.954704   3.944523
    30  C    3.586401   2.940035   2.987830   4.528413   4.628348
    31  C    4.762250   4.297644   4.497825   5.980326   5.680274
    32  O    4.009334   2.697318   2.472653   4.357092   5.165430
    33  H    4.733380   4.848811   5.082755   6.337057   5.477726
    34  H    5.307415   4.991737   4.901326   6.626993   6.304095
    35  H    5.518998   4.411336   4.942366   6.319572   6.403912
                   11         12         13         14         15
    11  H    0.000000
    12  H    1.749730   0.000000
    13  C    2.146755   2.142833   0.000000
    14  H    2.521276   3.047665   1.088583   0.000000
    15  H    2.414033   2.498912   1.089990   1.752320   0.000000
    16  N    3.421540   2.720009   1.460831   2.080818   2.067083
    17  H    3.693705   2.535071   2.076933   2.950399   2.428255
    18  C    4.206130   3.530669   2.478567   2.683754   3.334618
    19  N    5.025803   3.993017   3.529748   3.905668   4.338874
    20  N    4.473082   4.314836   2.857440   2.492046   3.765253
    21  H    5.772678   4.872224   4.313365   4.498868   5.185733
    22  H    5.336884   5.134510   3.842912   3.456418   4.768991
    23  H    4.642175   4.696365   2.865770   2.282576   3.572965
    24  N    4.306420   3.117695   4.803010   5.491048   5.480051
    25  C    4.948805   3.773768   4.929870   5.491029   5.769887
    26  H    4.886004   3.535908   5.391880   6.192141   5.934618
    27  H    4.978455   3.620711   4.521804   5.149506   5.323326
    28  H    5.998789   4.807201   6.008729   6.561094   6.839711
    29  H    4.763523   3.922538   4.765036   5.124052   5.721661
    30  C    4.928891   4.951366   5.464628   5.410530   6.464384
    31  C    6.271893   6.399999   6.939642   6.811713   7.930565
    32  O    4.949542   4.849101   4.985610   4.864223   6.051710
    33  H    6.514959   6.663433   7.461245   7.411698   8.389989
    34  H    7.049115   6.980169   7.496376   7.398436   8.526837
    35  H    6.521513   6.891122   7.167718   6.876628   8.154842
                   16         17         18         19         20
    16  N    0.000000
    17  H    1.011561   0.000000
    18  C    1.386165   1.957673   0.000000
    19  N    2.307968   2.343656   1.286158   0.000000
    20  N    2.319920   3.176738   1.389468   2.396789   0.000000
    21  H    3.164201   3.336326   1.892735   1.016834   2.483809
    22  H    3.210143   3.960910   2.020089   2.581634   1.006495
    23  H    2.501293   3.460601   2.027064   3.165181   1.007828
    24  N    4.743966   4.374122   4.710223   4.362719   5.556649
    25  C    4.542165   4.264904   4.102399   3.492869   4.903147
    26  H    5.270148   4.731629   5.360787   4.916025   6.341456
    27  H    3.854987   3.482143   3.388106   2.599428   4.385132
    28  H    5.543379   5.213899   5.010461   4.228939   5.794579
    29  H    4.496723   4.462530   3.878846   3.452716   4.390641
    30  C    5.705452   6.021334   5.098328   5.159414   4.962326
    31  C    7.202210   7.527490   6.527985   6.527676   6.280107
    32  O    5.004624   5.400726   4.184786   4.226117   3.952387
    33  H    7.823515   8.072829   7.279433   7.267948   7.135107
    34  H    7.563660   7.846252   6.738031   6.559440   6.526517
    35  H    7.523762   7.974149   6.833910   6.984642   6.368583
                   21         22         23         24         25
    21  H    0.000000
    22  H    2.250493   0.000000
    23  H    3.316810   1.678813   0.000000
    24  N    4.898546   5.928044   6.363010   0.000000
    25  C    3.801187   5.062582   5.823507   1.452276   0.000000
    26  H    5.509885   6.741515   7.118575   1.008911   2.117553
    27  H    3.009134   4.570128   5.279116   2.112341   1.089714
    28  H    4.379487   5.827233   6.749419   2.081578   1.088944
    29  H    3.594250   4.458779   5.340331   2.097794   1.082959
    30  C    5.135659   4.947977   5.775943   3.805341   3.441150
    31  C    6.375948   6.131432   7.075373   4.959027   4.595933
    32  O    4.070841   3.809515   4.817910   4.008841   3.291976
    33  H    7.209127   7.074037   7.919055   5.034880   4.927121
    34  H    6.273436   6.235359   7.386559   5.236395   4.625031
    35  H    6.783874   6.181897   7.069807   5.844397   5.477667
                   26         27         28         29         30
    26  H    0.000000
    27  H    2.574416   0.000000
    28  H    2.420287   1.778753   0.000000
    29  H    2.985240   1.753535   1.757973   0.000000
    30  C    4.768903   4.170221   3.891366   2.456033   0.000000
    31  C    5.836609   5.427074   4.767743   3.674247   1.513934
    32  O    4.996168   3.741630   3.828382   2.211980   1.225684
    33  H    5.815927   5.875563   5.020822   4.155791   2.191934
    34  H    6.067265   5.423982   4.592937   3.734330   2.123059
    35  H    6.763579   6.219978   5.742190   4.486326   2.124227
                   31         32         33         34         35
    31  C    0.000000
    32  O    2.390735   0.000000
    33  H    1.087344   3.291075   0.000000
    34  H    1.086391   2.622645   1.775442   0.000000
    35  H    1.088373   2.762031   1.770575   1.756178   0.000000
 Stoichiometry    C9H19N5O2
 Framework group  C1[X(C9H19N5O2)]
 Deg. of freedom    99
 Full point group                 C1      NOp   1
 Largest Abelian subgroup         C1      NOp   1
 Largest concise Abelian subgroup C1      NOp   1
                         Standard orientation:                         
 ---------------------------------------------------------------------
 Center     Atomic      Atomic             Coordinates (Angstroms)
 Number     Number       Type             X           Y           Z
 ---------------------------------------------------------------------
      1          7           0        2.280694   -0.195448   -0.673962
      2          1           0        3.194033    0.152076   -0.913355
      3          6           0        1.205767    0.785555   -0.814180
      4          1           0        1.410429    1.323934   -1.741014
      5          6           0       -0.200786    0.205120   -0.924034
      6          6           0        1.298032    1.900663    0.234683
      7          1           0       -0.208347   -0.560199   -1.700892
      8          1           0       -0.484649   -0.292444   -0.004392
      9          6           0       -1.203163    1.302792   -1.265180
     10          8           0        1.512320    3.053023   -0.139671
     11          1           0       -0.949155    1.757223   -2.227029
     12          1           0       -1.152230    2.105248   -0.524326
     13          6           0       -2.638522    0.786205   -1.326073
     14          1           0       -2.705785   -0.040718   -2.030832
     15          1           0       -3.296243    1.574160   -1.692965
     16          7           0       -3.165850    0.342496   -0.038023
     17          1           0       -3.126421    1.059829    0.674111
     18          6           0       -2.760452   -0.857544    0.525013
     19          7           0       -2.444323   -0.895679    1.771131
     20          7           0       -2.727098   -1.909402   -0.382239
     21          1           0       -2.302269   -1.858870    2.064447
     22          1           0       -2.542165   -2.805586    0.036912
     23          1           0       -3.501188   -1.930256   -1.027272
     24          7           0        1.126258    1.600768    1.543042
     25          6           0        0.797815    0.337741    2.180219
     26          1           0        1.165457    2.422460    2.127155
     27          1           0       -0.248688    0.300653    2.481767
     28          1           0        1.432387    0.203015    3.054842
     29          1           0        0.974357   -0.491192    1.506050
     30          6           0        2.219503   -1.516314   -0.346200
     31          6           0        3.543794   -2.242398   -0.451337
     32          8           0        1.201496   -2.100985    0.006108
     33          1           0        4.397688   -1.582080   -0.582338
     34          1           0        3.679595   -2.837652    0.447261
     35          1           0        3.492961   -2.925969   -1.296737
 ---------------------------------------------------------------------
 Rotational constants (GHZ):           0.6241832           0.3878361           0.3168913
 Leave Link  202 at Tue Apr 20 10:36:11 2021, MaxMem= 12079595520 cpu:               7.1 elap:               0.2
 (Enter /s/ls4/groups/g0130/bin/g16/l301.exe)
 General basis read from cards:  (5D, 7F)
 Centers:       2      4      7      8     11     12     14     15     17     21
 Centers:      22     23     26     27     28     29     33     34     35
 S 4 1.00
     Exponent=  1.9069169000D+02 Coefficients=  7.0815167000D-04
     Exponent=  2.8605532000D+01 Coefficients=  5.4678827000D-03
     Exponent=  6.5095943000D+00 Coefficients=  2.7966605000D-02
     Exponent=  1.8412455000D+00 Coefficients=  1.0764538000D-01
 S 1 1.00
     Exponent=  5.9853725000D-01 Coefficients=  1.0000000000D+00
 S 1 1.00
     Exponent=  2.1397624000D-01 Coefficients=  1.0000000000D+00
 S 1 1.00
     Exponent=  8.0316286000D-02 Coefficients=  1.0000000000D+00
 P 1 1.00
     Exponent=  2.2920000000D+00 Coefficients=  1.0000000000D+00
 P 1 1.00
     Exponent=  8.3800000000D-01 Coefficients=  1.0000000000D+00
 P 1 1.00
     Exponent=  2.9200000000D-01 Coefficients=  1.0000000000D+00
 P 1 1.00
     Exponent=  8.4063199228D-02 Coefficients=  1.0000000000D+00
 D 1 1.00
     Exponent=  2.0620000000D+00 Coefficients=  1.0000000000D+00
 D 1 1.00
     Exponent=  6.6200000000D-01 Coefficients=  1.0000000000D+00
 F 1 1.00
     Exponent=  1.3970000000D+00 Coefficients=  1.0000000000D+00
 ****
 Centers:       3      5      6      9     13     18     25     30     31
 S 8 1.00
     Exponent=  6.7025071029D+04 Coefficients=  3.8736308501D-05
     Exponent=  1.0039986538D+04 Coefficients=  3.0107917575D-04
     Exponent=  2.2849316911D+03 Coefficients=  1.5787918095D-03
     Exponent=  6.4714122130D+02 Coefficients=  6.6087087195D-03
     Exponent=  2.1109472335D+02 Coefficients=  2.3367123250D-02
     Exponent=  7.6177643862D+01 Coefficients=  7.0420716898D-02
     Exponent=  2.9633839163D+01 Coefficients=  1.7360344953D-01
     Exponent=  1.2187785081D+01 Coefficients=  3.2292305648D-01
 S 2 1.00
     Exponent=  5.3026006299D+01 Coefficients=  7.4897404492D-02
     Exponent=  1.5258502776D+01 Coefficients=  7.6136220983D-01
 S 1 1.00
     Exponent=  5.2403957464D+00 Coefficients=  1.0000000000D+00
 S 1 1.00
     Exponent=  2.2905022379D+00 Coefficients=  1.0000000000D+00
 S 1 1.00
     Exponent=  6.9673283006D-01 Coefficients=  1.0000000000D+00
 S 1 1.00
     Exponent=  2.7599337363D-01 Coefficients=  1.0000000000D+00
 S 1 1.00
     Exponent=  1.0739884389D-01 Coefficients=  1.0000000000D+00
 S 1 1.00
     Exponent=  4.4981404899D-02 Coefficients=  1.0000000000D+00
 P 5 1.00
     Exponent=  1.0512555082D+02 Coefficients=  8.4647553844D-04
     Exponent=  2.4884461066D+01 Coefficients=  6.6274038534D-03
     Exponent=  7.8637230826D+00 Coefficients=  3.0120390419D-02
     Exponent=  2.8407001835D+00 Coefficients=  9.9951435476D-02
     Exponent=  1.1227137335D+00 Coefficients=  2.3826299282D-01
 P 1 1.00
     Exponent=  4.6050725555D-01 Coefficients=  1.0000000000D+00
 P 1 1.00
     Exponent=  1.8937530913D-01 Coefficients=  1.0000000000D+00
 P 1 1.00
     Exponent=  7.5983791611D-02 Coefficients=  1.0000000000D+00
 D 1 1.00
     Exponent=  1.8480000000D+00 Coefficients=  1.0000000000D+00
 D 1 1.00
     Exponent=  6.4900000000D-01 Coefficients=  1.0000000000D+00
 D 1 1.00
     Exponent=  2.2800000000D-01 Coefficients=  1.0000000000D+00
 D 1 1.00
     Exponent=  7.6889830417D-02 Coefficients=  1.0000000000D+00
 F 1 1.00
     Exponent=  1.4190000000D+00 Coefficients=  1.0000000000D+00
 F 1 1.00
     Exponent=  4.8500000000D-01 Coefficients=  1.0000000000D+00
 G 1 1.00
     Exponent=  1.0110000000D+00 Coefficients=  1.0000000000D+00
 ****
 Centers:       1     16     19     20     24
 S 8 1.00
     Exponent=  9.0726889210D+04 Coefficients=  3.9257887368D-05
     Exponent=  1.3590528801D+04 Coefficients=  3.0513316455D-04
     Exponent=  3.0929883781D+03 Coefficients=  1.6000560446D-03
     Exponent=  8.7599876362D+02 Coefficients=  6.6982937306D-03
     Exponent=  2.8574469982D+02 Coefficients=  2.3690078765D-02
     Exponent=  1.0311913417D+02 Coefficients=  7.1455405268D-02
     Exponent=  4.0128556777D+01 Coefficients=  1.7632774876D-01
     Exponent=  1.6528095704D+01 Coefficients=  3.2677592815D-01
 S 2 1.00
     Exponent=  6.9390960983D+01 Coefficients=  8.0052094386D-02
     Exponent=  2.0428200596D+01 Coefficients=  7.8268063538D-01
 S 1 1.00
     Exponent=  7.1292587972D+00 Coefficients=  1.0000000000D+00
 S 1 1.00
     Exponent=  3.1324304893D+00 Coefficients=  1.0000000000D+00
 S 1 1.00
     Exponent=  9.8755778723D-01 Coefficients=  1.0000000000D+00
 S 1 1.00
     Exponent=  3.8765721307D-01 Coefficients=  1.0000000000D+00
 S 1 1.00
     Exponent=  1.4909883075D-01 Coefficients=  1.0000000000D+00
 S 1 1.00
     Exponent=  6.2151630318D-02 Coefficients=  1.0000000000D+00
 P 5 1.00
     Exponent=  1.5005742670D+02 Coefficients= -8.6216165986D-04
     Exponent=  3.5491599483D+01 Coefficients= -6.8571273236D-03
     Exponent=  1.1247864223D+01 Coefficients= -3.1795688855D-02
     Exponent=  4.0900305195D+00 Coefficients= -1.0537396822D-01
     Exponent=  1.6220573146D+00 Coefficients= -2.4519708041D-01
 P 1 1.00
     Exponent=  6.6442261530D-01 Coefficients=  1.0000000000D+00
 P 1 1.00
     Exponent=  2.7099770070D-01 Coefficients=  1.0000000000D+00
 P 1 1.00
     Exponent=  1.0688749984D-01 Coefficients=  1.0000000000D+00
 D 1 1.00
     Exponent=  2.8370000000D+00 Coefficients=  1.0000000000D+00
 D 1 1.00
     Exponent=  9.6800000000D-01 Coefficients=  1.0000000000D+00
 D 1 1.00
     Exponent=  3.3500000000D-01 Coefficients=  1.0000000000D+00
 D 1 1.00
     Exponent=  1.0825280010D-01 Coefficients=  1.0000000000D+00
 F 1 1.00
     Exponent=  2.0270000000D+00 Coefficients=  1.0000000000D+00
 F 1 1.00
     Exponent=  6.8500000000D-01 Coefficients=  1.0000000000D+00
 G 1 1.00
     Exponent=  1.4270000000D+00 Coefficients=  1.0000000000D+00
 ****
 Centers:      10     32
 S 8 1.00
     Exponent=  1.1650646908D+05 Coefficients=  4.0383857939D-05
     Exponent=  1.7504349724D+04 Coefficients=  3.1255139004D-04
     Exponent=  3.9934513230D+03 Coefficients=  1.6341473495D-03
     Exponent=  1.1330063186D+03 Coefficients=  6.8283224757D-03
     Exponent=  3.6999569594D+02 Coefficients=  2.4124410221D-02
     Exponent=  1.3362074349D+02 Coefficients=  7.2730206154D-02
     Exponent=  5.2035643649D+01 Coefficients=  1.7934429892D-01
     Exponent=  2.1461939313D+01 Coefficients=  3.3059588895D-01
 S 2 1.00
     Exponent=  8.9835051252D+01 Coefficients=  9.6468652996D-02
     Exponent=  2.6428010844D+01 Coefficients=  9.4117481120D-01
 S 1 1.00
     Exponent=  9.2822824649D+00 Coefficients=  1.0000000000D+00
 S 1 1.00
     Exponent=  4.0947728533D+00 Coefficients=  1.0000000000D+00
 S 1 1.00
     Exponent=  1.3255349078D+00 Coefficients=  1.0000000000D+00
 S 1 1.00
     Exponent=  5.1877230787D-01 Coefficients=  1.0000000000D+00
 S 1 1.00
     Exponent=  1.9772676454D-01 Coefficients=  1.0000000000D+00
 S 1 1.00
     Exponent=  6.9638535104D-02 Coefficients=  1.0000000000D+00
 P 5 1.00
     Exponent=  1.9115255810D+02 Coefficients=  2.5115697705D-03
     Exponent=  4.5233356739D+01 Coefficients=  2.0039240864D-02
     Exponent=  1.4353465922D+01 Coefficients=  9.3609064762D-02
     Exponent=  5.2422371832D+00 Coefficients=  3.0618127124D-01
     Exponent=  2.0792418599D+00 Coefficients=  6.7810501439D-01
 P 1 1.00
     Exponent=  8.4282371424D-01 Coefficients=  1.0000000000D+00
 P 1 1.00
     Exponent=  3.3617694891D-01 Coefficients=  1.0000000000D+00
 P 1 1.00
     Exponent=  1.2863997974D-01 Coefficients=  1.0000000000D+00
 P 1 1.00
     Exponent=  4.3598162776D-02 Coefficients=  1.0000000000D+00
 D 1 1.00
     Exponent=  3.7750000000D+00 Coefficients=  1.0000000000D+00
 D 1 1.00
     Exponent=  1.3000000000D+00 Coefficients=  1.0000000000D+00
 D 1 1.00
     Exponent=  4.4400000000D-01 Coefficients=  1.0000000000D+00
 D 1 1.00
     Exponent=  1.2546378695D-01 Coefficients=  1.0000000000D+00
 F 1 1.00
     Exponent=  2.6660000000D+00 Coefficients=  1.0000000000D+00
 F 1 1.00
     Exponent=  8.5900000000D-01 Coefficients=  1.0000000000D+00
 G 1 1.00
     Exponent=  1.8460000000D+00 Coefficients=  1.0000000000D+00
 ****
 Ernie: Thresh=  0.10000D-02 Tol=  0.10000D-05 Strict=F.
 There are  1992 symmetry adapted cartesian basis functions of A   symmetry.
 There are  1641 symmetry adapted basis functions of A   symmetry.
  1641 basis functions,  2369 primitive gaussians,  1992 cartesian basis functions
    62 alpha electrons       62 beta electrons
       nuclear repulsion energy      1218.7765398366 Hartrees.
 IExCor= 4336 DFT=T Ex+Corr=M062X ExCW=0 ScaHFX=  0.540000
 ScaDFX=  1.000000  1.000000  1.000000  1.000000 ScalE2=  1.000000  1.000000
 IRadAn=      5 IRanWt=     -1 IRanGd=            0 ICorTp=0 IEmpDi=  4
 NAtoms=   35 NActive=   35 NUniq=   35 SFac= 1.00D+00 NAtFMM=   60 NAOKFM=F Big=F
 Integral buffers will be    131072 words long.
 Raffenetti 2 integral format.
 Two-electron integral symmetry is turned on.
 Leave Link  301 at Tue Apr 20 10:36:11 2021, MaxMem= 12079595520 cpu:               9.1 elap:               0.2
 (Enter /s/ls4/groups/g0130/bin/g16/l302.exe)
 NPDir=0 NMtPBC=     1 NCelOv=     1 NCel=       1 NClECP=     1 NCelD=      1
         NCelK=      1 NCelE2=     1 NClLst=     1 CellRange=     0.0.
 One-electron integrals computed using PRISM.
 One-electron integral symmetry used in STVInt
 NBasis=  1641 RedAO= T EigKep=  1.05D-06  NBF=  1641
 NBsUse=  1625 1.00D-06 EigRej=  9.98D-07 NBFU=  1625
 Precomputing XC quadrature grid using
 IXCGrd= 4 IRadAn=           5 IRanWt=          -1 IRanGd=           0 AccXCQ= 0.00D+00.
 Generated NRdTot=       0 NPtTot=           0 NUsed=           0 NTot=          32
 NSgBfM=  1976  1976  1976  1976  1976 MxSgAt=    35 MxSgA2=    35.
 Leave Link  302 at Tue Apr 20 10:37:02 2021, MaxMem= 12079595520 cpu:            2364.1 elap:              50.3
 (Enter /s/ls4/groups/g0130/bin/g16/l303.exe)
 DipDrv:  MaxL=1.
 Leave Link  303 at Tue Apr 20 10:37:34 2021, MaxMem= 12079595520 cpu:            1497.8 elap:              32.0
 (Enter /s/ls4/groups/g0130/bin/g16/l401.exe)
 SCF N**3 symmetry information disabled.
 ExpMin= 4.36D-02 ExpMax= 1.17D+05 ExpMxC= 1.13D+03 IAcc=3 IRadAn=         5 AccDes= 0.00D+00
 Harris functional with IExCor= 1009 and IRadAn=       5 diagonalized for initial guess.
 HarFok:  IExCor= 1009 AccDes= 0.00D+00 IRadAn=         5 IDoV= 1 UseB2=F ITyADJ=14
 ICtDFT=  3500011 ScaDFX=  1.000000  1.000000  1.000000  1.000000
 FoFCou: FMM=F IPFlag=           0 FMFlag=      100000 FMFlg1=           0
         NFxFlg=           0 DoJE=T BraDBF=F KetDBF=T FulRan=T
         wScrn=  0.000000 ICntrl=       500 IOpCl=  0 I1Cent=   200000004 NGrid=           0
         NMat0=    1 NMatS0=      1 NMatT0=    0 NMatD0=    1 NMtDS0=    0 NMtDT0=    0
 Petite list used in FoFCou.
 Harris En= -778.341465306176    
 JPrj=0 DoOrth=F DoCkMO=F.
 Leave Link  401 at Tue Apr 20 10:37:46 2021, MaxMem= 12079595520 cpu:             582.8 elap:              12.2
 (Enter /s/ls4/groups/g0130/bin/g16/l502.exe)
 Integral symmetry usage will be decided dynamically.
 Closed shell SCF:
 Using DIIS extrapolation, IDIIS=  1040.
 NGot= 12079595520 LenX= 12071548411 LenY= 12067578355
 Requested convergence on RMS density matrix=1.00D-08 within 128 cycles.
 Requested convergence on MAX density matrix=1.00D-06.
 Requested convergence on             energy=1.00D-06.
 No special actions if energy rises.
 Fock matrices will be formed incrementally for  20 cycles.

 Cycle   1  Pass 1  IDiag  1:
 FoFJK:  IHMeth= 1 ICntrl=       0 DoSepK=F KAlg= 0 I1Cent=           0 FoldK=F
 IRaf= 830000000 NMat=       1 IRICut=       1 DoRegI=T DoRafI=F ISym2E= 0 IDoP0=0 IntGTp=1.
 FoFCou: FMM=F IPFlag=           0 FMFlag=      100000 FMFlg1=           0
         NFxFlg=           0 DoJE=F BraDBF=F KetDBF=F FulRan=T
         wScrn=  0.000000 ICntrl=         0 IOpCl=  0 I1Cent=           0 NGrid=           0
         NMat0=    1 NMatS0=      1 NMatT0=    0 NMatD0=    1 NMtDS0=    0 NMtDT0=    0
 Symmetry not used in FoFCou.
 E= -778.142183223277    
 DIIS: error= 1.27D-02 at cycle   1 NSaved=   1.
 NSaved= 1 IEnMin= 1 EnMin= -778.142183223277     IErMin= 1 ErrMin= 1.27D-02
 ErrMax= 1.27D-02  0.00D+00 EMaxC= 1.00D-01 BMatC= 1.02D+00 BMatP= 1.02D+00
 IDIUse=3 WtCom= 8.73D-01 WtEn= 1.27D-01
 Coeff-Com:  0.100D+01
 Coeff-En:   0.100D+01
 Coeff:      0.100D+01
 Gap=     0.296 Goal=   None    Shift=    0.000
 GapD=    0.296 DampG=1.000 DampE=0.500 DampFc=0.5000 IDamp=-1.
 Damping current iteration by 5.00D-01
 RMSDP=2.25D-03 MaxDP=4.95D-01              OVMax= 2.24D-01

 Cycle   2  Pass 1  IDiag  1:
 RMSU=  1.02D-03    CP:  8.36D-01
 E= -778.394600208304     Delta-E=       -0.252416985027 Rises=F Damp=T
 DIIS: error= 5.85D-03 at cycle   2 NSaved=   2.
 NSaved= 2 IEnMin= 2 EnMin= -778.394600208304     IErMin= 2 ErrMin= 5.85D-03
 ErrMax= 5.85D-03  0.00D+00 EMaxC= 1.00D-01 BMatC= 1.39D-01 BMatP= 1.02D+00
 IDIUse=3 WtCom= 9.42D-01 WtEn= 5.85D-02
 Coeff-Com: -0.978D-01 0.110D+01
 Coeff-En:   0.490D-03 0.100D+01
 Coeff:     -0.921D-01 0.109D+01
 Gap=     0.311 Goal=   None    Shift=    0.000
 RMSDP=1.30D-03 MaxDP=1.31D-01 DE=-2.52D-01 OVMax= 1.17D-01

 Cycle   3  Pass 1  IDiag  1:
 RMSU=  1.11D-03    CP:  6.39D-01  1.35D+00
 E= -778.633578488693     Delta-E=       -0.238978280389 Rises=F Damp=F
 DIIS: error= 3.40D-03 at cycle   3 NSaved=   3.
 NSaved= 3 IEnMin= 3 EnMin= -778.633578488693     IErMin= 3 ErrMin= 3.40D-03
 ErrMax= 3.40D-03  0.00D+00 EMaxC= 1.00D-01 BMatC= 7.25D-02 BMatP= 1.39D-01
 IDIUse=3 WtCom= 9.66D-01 WtEn= 3.40D-02
 Coeff-Com: -0.159D+00 0.504D+00 0.655D+00
 Coeff-En:   0.000D+00 0.000D+00 0.100D+01
 Coeff:     -0.154D+00 0.487D+00 0.667D+00
 Gap=     0.306 Goal=   None    Shift=    0.000
 RMSDP=2.49D-04 MaxDP=3.04D-02 DE=-2.39D-01 OVMax= 7.21D-02

 Cycle   4  Pass 1  IDiag  1:
 RMSU=  2.41D-04    CP:  6.40D-01  1.40D+00  9.57D-01
 E= -778.673702014955     Delta-E=       -0.040123526262 Rises=F Damp=F
 DIIS: error= 1.76D-03 at cycle   4 NSaved=   4.
 NSaved= 4 IEnMin= 4 EnMin= -778.673702014955     IErMin= 4 ErrMin= 1.76D-03
 ErrMax= 1.76D-03  0.00D+00 EMaxC= 1.00D-01 BMatC= 1.40D-02 BMatP= 7.25D-02
 IDIUse=3 WtCom= 9.82D-01 WtEn= 1.76D-02
 Coeff-Com: -0.713D-01 0.158D+00 0.372D+00 0.541D+00
 Coeff-En:   0.000D+00 0.000D+00 0.160D+00 0.840D+00
 Coeff:     -0.700D-01 0.155D+00 0.368D+00 0.546D+00
 Gap=     0.287 Goal=   None    Shift=    0.000
 RMSDP=1.02D-04 MaxDP=1.24D-02 DE=-4.01D-02 OVMax= 1.95D-02

 Cycle   5  Pass 1  IDiag  1:
 RMSU=  7.48D-05    CP:  6.36D-01  1.39D+00  9.36D-01  7.32D-01
 E= -778.684290916668     Delta-E=       -0.010588901713 Rises=F Damp=F
 DIIS: error= 2.24D-04 at cycle   5 NSaved=   5.
 NSaved= 5 IEnMin= 5 EnMin= -778.684290916668     IErMin= 5 ErrMin= 2.24D-04
 ErrMax= 2.24D-04  0.00D+00 EMaxC= 1.00D-01 BMatC= 2.29D-04 BMatP= 1.40D-02
 IDIUse=3 WtCom= 9.98D-01 WtEn= 2.24D-03
 Coeff-Com: -0.201D-01 0.419D-01 0.112D+00 0.210D+00 0.656D+00
 Coeff-En:   0.000D+00 0.000D+00 0.000D+00 0.000D+00 0.100D+01
 Coeff:     -0.201D-01 0.418D-01 0.112D+00 0.210D+00 0.657D+00
 Gap=     0.289 Goal=   None    Shift=    0.000
 RMSDP=3.43D-05 MaxDP=4.66D-03 DE=-1.06D-02 OVMax= 3.61D-03

 Cycle   6  Pass 1  IDiag  1:
 RMSU=  3.02D-05    CP:  6.35D-01  1.38D+00  9.32D-01  7.66D-01  1.13D+00
 E= -778.684464527536     Delta-E=       -0.000173610868 Rises=F Damp=F
 DIIS: error= 7.70D-05 at cycle   6 NSaved=   6.
 NSaved= 6 IEnMin= 6 EnMin= -778.684464527536     IErMin= 6 ErrMin= 7.70D-05
 ErrMax= 7.70D-05  0.00D+00 EMaxC= 1.00D-01 BMatC= 2.80D-05 BMatP= 2.29D-04
 IDIUse=1 WtCom= 1.00D+00 WtEn= 0.00D+00
 Coeff-Com: -0.791D-03 0.115D-02 0.779D-02 0.309D-01 0.281D+00 0.679D+00
 Coeff:     -0.791D-03 0.115D-02 0.779D-02 0.309D-01 0.281D+00 0.679D+00
 Gap=     0.289 Goal=   None    Shift=    0.000
 RMSDP=1.20D-05 MaxDP=2.20D-03 DE=-1.74D-04 OVMax= 2.20D-03

 Cycle   7  Pass 1  IDiag  1:
 RMSU=  7.34D-06    CP:  6.35D-01  1.38D+00  9.29D-01  7.77D-01  1.21D+00
                    CP:  1.16D+00
 E= -778.684486564660     Delta-E=       -0.000022037124 Rises=F Damp=F
 DIIS: error= 3.37D-05 at cycle   7 NSaved=   7.
 NSaved= 7 IEnMin= 7 EnMin= -778.684486564660     IErMin= 7 ErrMin= 3.37D-05
 ErrMax= 3.37D-05  0.00D+00 EMaxC= 1.00D-01 BMatC= 4.91D-06 BMatP= 2.80D-05
 IDIUse=1 WtCom= 1.00D+00 WtEn= 0.00D+00
 Coeff-Com:  0.284D-02-0.609D-02-0.130D-01-0.185D-01 0.419D-01 0.320D+00
 Coeff-Com:  0.673D+00
 Coeff:      0.284D-02-0.609D-02-0.130D-01-0.185D-01 0.419D-01 0.320D+00
 Coeff:      0.673D+00
 Gap=     0.289 Goal=   None    Shift=    0.000
 RMSDP=4.77D-06 MaxDP=8.87D-04 DE=-2.20D-05 OVMax= 5.31D-04

 Cycle   8  Pass 1  IDiag  1:
 RMSU=  3.02D-06    CP:  6.35D-01  1.38D+00  9.29D-01  7.80D-01  1.25D+00
                    CP:  1.21D+00  1.05D+00
 E= -778.684490769001     Delta-E=       -0.000004204341 Rises=F Damp=F
 DIIS: error= 1.11D-05 at cycle   8 NSaved=   8.
 NSaved= 8 IEnMin= 8 EnMin= -778.684490769001     IErMin= 8 ErrMin= 1.11D-05
 ErrMax= 1.11D-05  0.00D+00 EMaxC= 1.00D-01 BMatC= 6.55D-07 BMatP= 4.91D-06
 IDIUse=1 WtCom= 1.00D+00 WtEn= 0.00D+00
 Coeff-Com:  0.124D-02-0.262D-02-0.549D-02-0.117D-01-0.149D-01 0.440D-01
 Coeff-Com:  0.288D+00 0.702D+00
 Coeff:      0.124D-02-0.262D-02-0.549D-02-0.117D-01-0.149D-01 0.440D-01
 Coeff:      0.288D+00 0.702D+00
 Gap=     0.289 Goal=   None    Shift=    0.000
 RMSDP=1.95D-06 MaxDP=3.08D-04 DE=-4.20D-06 OVMax= 2.69D-04

 Cycle   9  Pass 1  IDiag  1:
 RMSU=  1.59D-06    CP:  6.35D-01  1.38D+00  9.29D-01  7.83D-01  1.26D+00
                    CP:  1.22D+00  1.13D+00  1.22D+00
 E= -778.684491391851     Delta-E=       -0.000000622850 Rises=F Damp=F
 DIIS: error= 3.62D-06 at cycle   9 NSaved=   9.
 NSaved= 9 IEnMin= 9 EnMin= -778.684491391851     IErMin= 9 ErrMin= 3.62D-06
 ErrMax= 3.62D-06  0.00D+00 EMaxC= 1.00D-01 BMatC= 6.17D-08 BMatP= 6.55D-07
 IDIUse=1 WtCom= 1.00D+00 WtEn= 0.00D+00
 Coeff-Com:  0.859D-04-0.204D-03-0.216D-03-0.204D-02-0.862D-02-0.211D-01
 Coeff-Com:  0.147D-01 0.223D+00 0.794D+00
 Coeff:      0.859D-04-0.204D-03-0.216D-03-0.204D-02-0.862D-02-0.211D-01
 Coeff:      0.147D-01 0.223D+00 0.794D+00
 Gap=     0.289 Goal=   None    Shift=    0.000
 RMSDP=9.20D-07 MaxDP=1.33D-04 DE=-6.23D-07 OVMax= 8.25D-05

 Cycle  10  Pass 1  IDiag  1:
 RMSU=  4.50D-07    CP:  6.35D-01  1.38D+00  9.29D-01  7.83D-01  1.26D+00
                    CP:  1.22D+00  1.14D+00  1.33D+00  1.43D+00
 E= -778.684491456131     Delta-E=       -0.000000064279 Rises=F Damp=F
 DIIS: error= 1.73D-06 at cycle  10 NSaved=  10.
 NSaved=10 IEnMin=10 EnMin= -778.684491456131     IErMin=10 ErrMin= 1.73D-06
 ErrMax= 1.73D-06  0.00D+00 EMaxC= 1.00D-01 BMatC= 1.12D-08 BMatP= 6.17D-08
 IDIUse=1 WtCom= 1.00D+00 WtEn= 0.00D+00
 Coeff-Com: -0.149D-03 0.303D-03 0.754D-03 0.886D-03-0.908D-03-0.147D-01
 Coeff-Com: -0.397D-01-0.246D-01 0.335D+00 0.744D+00
 Coeff:     -0.149D-03 0.303D-03 0.754D-03 0.886D-03-0.908D-03-0.147D-01
 Coeff:     -0.397D-01-0.246D-01 0.335D+00 0.744D+00
 Gap=     0.289 Goal=   None    Shift=    0.000
 RMSDP=2.79D-07 MaxDP=4.99D-05 DE=-6.43D-08 OVMax= 4.00D-05

 Cycle  11  Pass 1  IDiag  1:
 RMSU=  1.44D-07    CP:  6.35D-01  1.38D+00  9.29D-01  7.84D-01  1.26D+00
                    CP:  1.22D+00  1.14D+00  1.37D+00  1.53D+00  1.17D+00
 E= -778.684491467585     Delta-E=       -0.000000011454 Rises=F Damp=F
 DIIS: error= 5.78D-07 at cycle  11 NSaved=  11.
 NSaved=11 IEnMin=11 EnMin= -778.684491467585     IErMin=11 ErrMin= 5.78D-07
 ErrMax= 5.78D-07  0.00D+00 EMaxC= 1.00D-01 BMatC= 1.93D-09 BMatP= 1.12D-08
 IDIUse=1 WtCom= 1.00D+00 WtEn= 0.00D+00
 Coeff-Com: -0.656D-04 0.138D-03 0.328D-03 0.510D-03 0.420D-03-0.430D-02
 Coeff-Com: -0.185D-01-0.325D-01 0.682D-01 0.358D+00 0.628D+00
 Coeff:     -0.656D-04 0.138D-03 0.328D-03 0.510D-03 0.420D-03-0.430D-02
 Coeff:     -0.185D-01-0.325D-01 0.682D-01 0.358D+00 0.628D+00
 Gap=     0.289 Goal=   None    Shift=    0.000
 RMSDP=6.46D-08 MaxDP=1.07D-05 DE=-1.15D-08 OVMax= 1.42D-05

 Cycle  12  Pass 1  IDiag  1:
 RMSU=  5.24D-08    CP:  6.35D-01  1.38D+00  9.29D-01  7.84D-01  1.26D+00
                    CP:  1.22D+00  1.14D+00  1.37D+00  1.54D+00  1.17D+00
                    CP:  1.08D+00
 E= -778.684491469128     Delta-E=       -0.000000001543 Rises=F Damp=F
 DIIS: error= 2.29D-07 at cycle  12 NSaved=  12.
 NSaved=12 IEnMin=12 EnMin= -778.684491469128     IErMin=12 ErrMin= 2.29D-07
 ErrMax= 2.29D-07  0.00D+00 EMaxC= 1.00D-01 BMatC= 2.74D-10 BMatP= 1.93D-09
 IDIUse=1 WtCom= 1.00D+00 WtEn= 0.00D+00
 Coeff-Com: -0.821D-05 0.198D-04 0.525D-04 0.949D-04 0.236D-03-0.289D-03
 Coeff-Com: -0.364D-02-0.124D-01-0.157D-01 0.717D-01 0.299D+00 0.661D+00
 Coeff:     -0.821D-05 0.198D-04 0.525D-04 0.949D-04 0.236D-03-0.289D-03
 Coeff:     -0.364D-02-0.124D-01-0.157D-01 0.717D-01 0.299D+00 0.661D+00
 Gap=     0.289 Goal=   None    Shift=    0.000
 RMSDP=3.28D-08 MaxDP=6.33D-06 DE=-1.54D-09 OVMax= 3.71D-06

 Cycle  13  Pass 1  IDiag  1:
 RMSU=  2.34D-08    CP:  6.35D-01  1.38D+00  9.29D-01  7.84D-01  1.26D+00
                    CP:  1.22D+00  1.14D+00  1.38D+00  1.54D+00  1.17D+00
                    CP:  1.13D+00  1.21D+00
 E= -778.684491469359     Delta-E=       -0.000000000230 Rises=F Damp=F
 DIIS: error= 7.40D-08 at cycle  13 NSaved=  13.
 NSaved=13 IEnMin=13 EnMin= -778.684491469359     IErMin=13 ErrMin= 7.40D-08
 ErrMax= 7.40D-08  0.00D+00 EMaxC= 1.00D-01 BMatC= 2.81D-11 BMatP= 2.74D-10
 IDIUse=1 WtCom= 1.00D+00 WtEn= 0.00D+00
 Coeff-Com:  0.525D-05-0.974D-05-0.136D-04-0.234D-04 0.802D-04 0.471D-03
 Coeff-Com:  0.102D-02-0.719D-03-0.162D-01-0.200D-01 0.367D-01 0.265D+00
 Coeff-Com:  0.734D+00
 Coeff:      0.525D-05-0.974D-05-0.136D-04-0.234D-04 0.802D-04 0.471D-03
 Coeff:      0.102D-02-0.719D-03-0.162D-01-0.200D-01 0.367D-01 0.265D+00
 Coeff:      0.734D+00
 Gap=     0.289 Goal=   None    Shift=    0.000
 RMSDP=1.03D-08 MaxDP=1.30D-06 DE=-2.30D-10 OVMax= 1.51D-06

 Cycle  14  Pass 1  IDiag  1:
 RMSU=  6.80D-09    CP:  6.35D-01  1.38D+00  9.29D-01  7.84D-01  1.26D+00
                    CP:  1.22D+00  1.14D+00  1.37D+00  1.54D+00  1.18D+00
                    CP:  1.16D+00  1.30D+00  1.18D+00
 E= -778.684491469404     Delta-E=       -0.000000000045 Rises=F Damp=F
 DIIS: error= 1.53D-08 at cycle  14 NSaved=  14.
 NSaved=14 IEnMin=14 EnMin= -778.684491469404     IErMin=14 ErrMin= 1.53D-08
 ErrMax= 1.53D-08  0.00D+00 EMaxC= 1.00D-01 BMatC= 1.57D-12 BMatP= 2.81D-11
 IDIUse=1 WtCom= 1.00D+00 WtEn= 0.00D+00
 Coeff-Com:  0.182D-05-0.377D-05-0.488D-05-0.105D-04 0.165D-04 0.143D-03
 Coeff-Com:  0.546D-03 0.618D-03-0.310D-02-0.118D-01-0.158D-01 0.946D-02
 Coeff-Com:  0.199D+00 0.821D+00
 Coeff:      0.182D-05-0.377D-05-0.488D-05-0.105D-04 0.165D-04 0.143D-03
 Coeff:      0.546D-03 0.618D-03-0.310D-02-0.118D-01-0.158D-01 0.946D-02
 Coeff:      0.199D+00 0.821D+00
 Gap=     0.289 Goal=   None    Shift=    0.000
 RMSDP=3.31D-09 MaxDP=5.94D-07 DE=-4.55D-11 OVMax= 2.41D-07

 SCF Done:  E(RM062X) =  -778.684491469     A.U. after   14 cycles
            NFock= 14  Conv=0.33D-08     -V/T= 2.0041
 KE= 7.754986237269D+02 PE=-4.254895179248D+03 EE= 1.481935524215D+03
 Leave Link  502 at Tue Apr 20 12:32:03 2021, MaxMem= 12079595520 cpu:          328783.9 elap:            6857.0
 (Enter /s/ls4/groups/g0130/bin/g16/l601.exe)
 Copying SCF densities to generalized density rwf, IOpCl= 0 IROHF=0.

 **********************************************************************

            Population analysis using the SCF density.

 **********************************************************************

 Orbital symmetries:
       Occupied  (A) (A) (A) (A) (A) (A) (A) (A) (A) (A) (A) (A)
                 (A) (A) (A) (A) (A) (A) (A) (A) (A) (A) (A) (A)
                 (A) (A) (A) (A) (A) (A) (A) (A) (A) (A) (A) (A)
                 (A) (A) (A) (A) (A) (A) (A) (A) (A) (A) (A) (A)
                 (A) (A) (A) (A) (A) (A) (A) (A) (A) (A) (A) (A)
                 (A) (A)
       Virtual   (A) (A) (A) (A) (A) (A) (A) (A) (A) (A) (A) (A)
                 (A) (A) (A) (A) (A) (A) (A) (A) (A) (A) (A) (A)
                 (A) (A) (A) (A) (A) (A) (A) (A) (A) (A) (A) (A)
                 (A) (A) (A) (A) (A) (A) (A) (A) (A) (A) (A) (A)
                 (A) (A) (A) (A) (A) (A) (A) (A) (A) (A) (A) (A)
                 (A) (A) (A) (A) (A) (A) (A) (A) (A) (A) (A) (A)
                 (A) (A) (A) (A) (A) (A) (A) (A) (A) (A) (A) (A)
                 (A) (A) (A) (A) (A) (A) (A) (A) (A) (A) (A) (A)
                 (A) (A) (A) (A) (A) (A) (A) (A) (A) (A) (A) (A)
                 (A) (A) (A) (A) (A) (A) (A) (A) (A) (A) (A) (A)
                 (A) (A) (A) (A) (A) (A) (A) (A) (A) (A) (A) (A)
                 (A) (A) (A) (A) (A) (A) (A) (A) (A) (A) (A) (A)
                 (A) (A) (A) (A) (A) (A) (A) (A) (A) (A) (A) (A)
                 (A) (A) (A) (A) (A) (A) (A) (A) (A) (A) (A) (A)
                 (A) (A) (A) (A) (A) (A) (A) (A) (A) (A) (A) (A)
                 (A) (A) (A) (A) (A) (A) (A) (A) (A) (A) (A) (A)
                 (A) (A) (A) (A) (A) (A) (A) (A) (A) (A) (A) (A)
                 (A) (A) (A) (A) (A) (A) (A) (A) (A) (A) (A) (A)
                 (A) (A) (A) (A) (A) (A) (A) (A) (A) (A) (A) (A)
                 (A) (A) (A) (A) (A) (A) (A) (A) (A) (A) (A) (A)
                 (A) (A) (A) (A) (A) (A) (A) (A) (A) (A) (A) (A)
                 (A) (A) (A) (A) (A) (A) (A) (A) (A) (A) (A) (A)
                 (A) (A) (A) (A) (A) (A) (A) (A) (A) (A) (A) (A)
                 (A) (A) (A) (A) (A) (A) (A) (A) (A) (A) (A) (A)
                 (A) (A) (A) (A) (A) (A) (A) (A) (A) (A) (A) (A)
                 (A) (A) (A) (A) (A) (A) (A) (A) (A) (A) (A) (A)
                 (A) (A) (A) (A) (A) (A) (A) (A) (A) (A) (A) (A)
                 (A) (A) (A) (A) (A) (A) (A) (A) (A) (A) (A) (A)
                 (A) (A) (A) (A) (A) (A) (A) (A) (A) (A) (A) (A)
                 (A) (A) (A) (A) (A) (A) (A) (A) (A) (A) (A) (A)
                 (A) (A) (A) (A) (A) (A) (A) (A) (A) (A) (A) (A)
                 (A) (A) (A) (A) (A) (A) (A) (A) (A) (A) (A) (A)
                 (A) (A) (A) (A) (A) (A) (A) (A) (A) (A) (A) (A)
                 (A) (A) (A) (A) (A) (A) (A) (A) (A) (A) (A) (A)
                 (A) (A) (A) (A) (A) (A) (A) (A) (A) (A) (A) (A)
                 (A) (A) (A) (A) (A) (A) (A) (A) (A) (A) (A) (A)
                 (A) (A) (A) (A) (A) (A) (A) (A) (A) (A) (A) (A)
                 (A) (A) (A) (A) (A) (A) (A) (A) (A) (A) (A) (A)
                 (A) (A) (A) (A) (A) (A) (A) (A) (A) (A) (A) (A)
                 (A) (A) (A) (A) (A) (A) (A) (A) (A) (A) (A) (A)
                 (A) (A) (A) (A) (A) (A) (A) (A) (A) (A) (A) (A)
                 (A) (A) (A) (A) (A) (A) (A) (A) (A) (A) (A) (A)
                 (A) (A) (A) (A) (A) (A) (A) (A) (A) (A) (A) (A)
                 (A) (A) (A) (A) (A) (A) (A) (A) (A) (A) (A) (A)
                 (A) (A) (A) (A) (A) (A) (A) (A) (A) (A) (A) (A)
                 (A) (A) (A) (A) (A) (A) (A) (A) (A) (A) (A) (A)
                 (A) (A) (A) (A) (A) (A) (A) (A) (A) (A) (A) (A)
                 (A) (A) (A) (A) (A) (A) (A) (A) (A) (A) (A) (A)
                 (A) (A) (A) (A) (A) (A) (A) (A) (A) (A) (A) (A)
                 (A) (A) (A) (A) (A) (A) (A) (A) (A) (A) (A) (A)
                 (A) (A) (A) (A) (A) (A) (A) (A) (A) (A) (A) (A)
                 (A) (A) (A) (A) (A) (A) (A) (A) (A) (A) (A) (A)
                 (A) (A) (A) (A) (A) (A) (A) (A) (A) (A) (A) (A)
                 (A) (A) (A) (A) (A) (A) (A) (A) (A) (A) (A) (A)
                 (A) (A) (A) (A) (A) (A) (A) (A) (A) (A) (A) (A)
                 (A) (A) (A) (A) (A) (A) (A) (A) (A) (A) (A) (A)
                 (A) (A) (A) (A) (A) (A) (A) (A) (A) (A) (A) (A)
                 (A) (A) (A) (A) (A) (A) (A) (A) (A) (A) (A) (A)
                 (A) (A) (A) (A) (A) (A) (A) (A) (A) (A) (A) (A)
                 (A) (A) (A) (A) (A) (A) (A) (A) (A) (A) (A) (A)
                 (A) (A) (A) (A) (A) (A) (A) (A) (A) (A) (A) (A)
                 (A) (A) (A) (A) (A) (A) (A) (A) (A) (A) (A) (A)
                 (A) (A) (A) (A) (A) (A) (A) (A) (A) (A) (A) (A)
                 (A) (A) (A) (A) (A) (A) (A) (A) (A) (A) (A) (A)
                 (A) (A) (A) (A) (A) (A) (A) (A) (A) (A) (A) (A)
                 (A) (A) (A) (A) (A) (A) (A) (A) (A) (A) (A) (A)
                 (A) (A) (A) (A) (A) (A) (A) (A) (A) (A) (A) (A)
                 (A) (A) (A) (A) (A) (A) (A) (A) (A) (A) (A) (A)
                 (A) (A) (A) (A) (A) (A) (A) (A) (A) (A) (A) (A)
                 (A) (A) (A) (A) (A) (A) (A) (A) (A) (A) (A) (A)
                 (A) (A) (A) (A) (A) (A) (A) (A) (A) (A) (A) (A)
                 (A) (A) (A) (A) (A) (A) (A) (A) (A) (A) (A) (A)
                 (A) (A) (A) (A) (A) (A) (A) (A) (A) (A) (A) (A)
                 (A) (A) (A) (A) (A) (A) (A) (A) (A) (A) (A) (A)
                 (A) (A) (A) (A) (A) (A) (A) (A) (A) (A) (A) (A)
                 (A) (A) (A) (A) (A) (A) (A) (A) (A) (A) (A) (A)
                 (A) (A) (A) (A) (A) (A) (A) (A) (A) (A) (A) (A)
                 (A) (A) (A) (A) (A) (A) (A) (A) (A) (A) (A) (A)
                 (A) (A) (A) (A) (A) (A) (A) (A) (A) (A) (A) (A)
                 (A) (A) (A) (A) (A) (A) (A) (A) (A) (A) (A) (A)
                 (A) (A) (A) (A) (A) (A) (A) (A) (A) (A) (A) (A)
                 (A) (A) (A) (A) (A) (A) (A) (A) (A) (A) (A) (A)
                 (A) (A) (A) (A) (A) (A) (A) (A) (A) (A) (A) (A)
                 (A) (A) (A) (A) (A) (A) (A) (A) (A) (A) (A) (A)
                 (A) (A) (A) (A) (A) (A) (A) (A) (A) (A) (A) (A)
                 (A) (A) (A) (A) (A) (A) (A) (A) (A) (A) (A) (A)
                 (A) (A) (A) (A) (A) (A) (A) (A) (A) (A) (A) (A)
                 (A) (A) (A) (A) (A) (A) (A) (A) (A) (A) (A) (A)
                 (A) (A) (A) (A) (A) (A) (A) (A) (A) (A) (A) (A)
                 (A) (A) (A) (A) (A) (A) (A) (A) (A) (A) (A) (A)
                 (A) (A) (A) (A) (A) (A) (A) (A) (A) (A) (A) (A)
                 (A) (A) (A) (A) (A) (A) (A) (A) (A) (A) (A) (A)
                 (A) (A) (A) (A) (A) (A) (A) (A) (A) (A) (A) (A)
                 (A) (A) (A) (A) (A) (A) (A) (A) (A) (A) (A) (A)
                 (A) (A) (A) (A) (A) (A) (A) (A) (A) (A) (A) (A)
                 (A) (A) (A) (A) (A) (A) (A) (A) (A) (A) (A) (A)
                 (A) (A) (A) (A) (A) (A) (A) (A) (A) (A) (A) (A)
                 (A) (A) (A) (A) (A) (A) (A) (A) (A) (A) (A) (A)
                 (A) (A) (A) (A) (A) (A) (A) (A) (A) (A) (A) (A)
                 (A) (A) (A) (A) (A) (A) (A) (A) (A) (A) (A) (A)
                 (A) (A) (A) (A) (A) (A) (A) (A) (A) (A) (A) (A)
                 (A) (A) (A) (A) (A) (A) (A) (A) (A) (A) (A) (A)
                 (A) (A) (A) (A) (A) (A) (A) (A) (A) (A) (A) (A)
                 (A) (A) (A) (A) (A) (A) (A) (A) (A) (A) (A) (A)
                 (A) (A) (A) (A) (A) (A) (A) (A) (A) (A) (A) (A)
                 (A) (A) (A) (A) (A) (A) (A) (A) (A) (A) (A) (A)
                 (A) (A) (A) (A) (A) (A) (A) (A) (A) (A) (A) (A)
                 (A) (A) (A) (A) (A) (A) (A) (A) (A) (A) (A) (A)
                 (A) (A) (A) (A) (A) (A) (A) (A) (A) (A) (A) (A)
                 (A) (A) (A) (A) (A) (A) (A) (A) (A) (A) (A) (A)
                 (A) (A) (A) (A) (A) (A) (A) (A) (A) (A) (A) (A)
                 (A) (A) (A) (A) (A) (A) (A) (A) (A) (A) (A) (A)
                 (A) (A) (A) (A) (A) (A) (A) (A) (A) (A) (A) (A)
                 (A) (A) (A) (A) (A) (A) (A) (A) (A) (A) (A) (A)
                 (A) (A) (A) (A) (A) (A) (A) (A) (A) (A) (A) (A)
                 (A) (A) (A) (A) (A) (A) (A) (A) (A) (A) (A) (A)
                 (A) (A) (A) (A) (A) (A) (A) (A) (A) (A) (A) (A)
                 (A) (A) (A) (A) (A) (A) (A) (A) (A) (A) (A) (A)
                 (A) (A) (A) (A) (A) (A) (A) (A) (A) (A) (A) (A)
                 (A) (A) (A) (A) (A) (A) (A) (A) (A) (A) (A) (A)
                 (A) (A) (A) (A) (A) (A) (A) (A) (A) (A) (A) (A)
                 (A) (A) (A) (A) (A) (A) (A) (A) (A) (A) (A) (A)
                 (A) (A) (A) (A) (A) (A) (A) (A) (A) (A) (A) (A)
                 (A) (A) (A) (A) (A) (A) (A) (A) (A) (A) (A) (A)
                 (A) (A) (A) (A) (A) (A) (A) (A) (A) (A) (A) (A)
                 (A) (A) (A) (A) (A) (A) (A) (A) (A) (A) (A) (A)
                 (A) (A) (A) (A) (A) (A) (A) (A) (A) (A) (A) (A)
                 (A) (A) (A) (A) (A) (A) (A) (A) (A) (A) (A) (A)
                 (A) (A) (A) (A) (A) (A) (A) (A) (A) (A) (A) (A)
                 (A) (A) (A) (A) (A) (A) (A) (A) (A) (A) (A) (A)
                 (A) (A) (A)
 The electronic state is 1-A.
 Alpha  occ. eigenvalues --  -19.59581 -19.58586 -14.78883 -14.77165 -14.76297
 Alpha  occ. eigenvalues --  -14.75628 -14.70428 -10.65776 -10.64228 -10.64046
 Alpha  occ. eigenvalues --  -10.59530 -10.57568 -10.55943 -10.55136 -10.53969
 Alpha  occ. eigenvalues --  -10.53842  -1.16483  -1.15263  -1.09374  -1.04739
 Alpha  occ. eigenvalues --   -1.02425  -0.99558  -0.94968  -0.90610  -0.85561
 Alpha  occ. eigenvalues --   -0.81765  -0.79462  -0.75781  -0.69620  -0.68489
 Alpha  occ. eigenvalues --   -0.68026  -0.64453  -0.61096  -0.60693  -0.58320
 Alpha  occ. eigenvalues --   -0.56479  -0.56094  -0.55426  -0.54217  -0.53836
 Alpha  occ. eigenvalues --   -0.52835  -0.51127  -0.50498  -0.49499  -0.48565
 Alpha  occ. eigenvalues --   -0.47853  -0.46963  -0.46542  -0.46040  -0.45704
 Alpha  occ. eigenvalues --   -0.44361  -0.43022  -0.42020  -0.40328  -0.39870
 Alpha  occ. eigenvalues --   -0.35277  -0.34294  -0.33459  -0.33156  -0.31334
 Alpha  occ. eigenvalues --   -0.31003  -0.29182
 Alpha virt. eigenvalues --   -0.00316   0.00505   0.01540   0.01729   0.02801
 Alpha virt. eigenvalues --    0.03083   0.03611   0.03877   0.04711   0.04877
 Alpha virt. eigenvalues --    0.05389   0.06086   0.06287   0.06534   0.07103
 Alpha virt. eigenvalues --    0.07440   0.07829   0.08049   0.08368   0.08745
 Alpha virt. eigenvalues --    0.09779   0.10083   0.10319   0.11135   0.11404
 Alpha virt. eigenvalues --    0.11741   0.12471   0.12796   0.12916   0.13438
 Alpha virt. eigenvalues --    0.13711   0.14516   0.14826   0.15228   0.15654
 Alpha virt. eigenvalues --    0.15902   0.16192   0.17018   0.17234   0.17665
 Alpha virt. eigenvalues --    0.17712   0.17925   0.18305   0.18754   0.18894
 Alpha virt. eigenvalues --    0.19389   0.19559   0.19837   0.20194   0.20643
 Alpha virt. eigenvalues --    0.20942   0.21261   0.21502   0.21812   0.22289
 Alpha virt. eigenvalues --    0.22537   0.22800   0.23109   0.23448   0.23677
 Alpha virt. eigenvalues --    0.23761   0.24190   0.24614   0.24727   0.24910
 Alpha virt. eigenvalues --    0.25205   0.25413   0.25828   0.25921   0.26295
 Alpha virt. eigenvalues --    0.26734   0.27057   0.27156   0.27181   0.27244
 Alpha virt. eigenvalues --    0.27704   0.28158   0.28507   0.28640   0.29079
 Alpha virt. eigenvalues --    0.29264   0.29548   0.29799   0.29972   0.30429
 Alpha virt. eigenvalues --    0.30620   0.30661   0.31179   0.31377   0.31703
 Alpha virt. eigenvalues --    0.32009   0.32278   0.32686   0.33048   0.33168
 Alpha virt. eigenvalues --    0.33514   0.33613   0.33766   0.34007   0.34675
 Alpha virt. eigenvalues --    0.35288   0.35404   0.35568   0.35704   0.35920
 Alpha virt. eigenvalues --    0.36258   0.36300   0.36516   0.36717   0.37018
 Alpha virt. eigenvalues --    0.37195   0.37434   0.37642   0.38527   0.38619
 Alpha virt. eigenvalues --    0.39057   0.39242   0.39562   0.39821   0.40133
 Alpha virt. eigenvalues --    0.40639   0.40940   0.41085   0.41268   0.41795
 Alpha virt. eigenvalues --    0.42013   0.42117   0.42398   0.42669   0.42761
 Alpha virt. eigenvalues --    0.43204   0.43946   0.44080   0.44342   0.44652
 Alpha virt. eigenvalues --    0.44810   0.45382   0.45667   0.45943   0.46215
 Alpha virt. eigenvalues --    0.46434   0.46948   0.46971   0.47551   0.47887
 Alpha virt. eigenvalues --    0.48495   0.48653   0.48687   0.49073   0.49672
 Alpha virt. eigenvalues --    0.49940   0.50153   0.50465   0.50953   0.51036
 Alpha virt. eigenvalues --    0.51189   0.51615   0.51911   0.52290   0.52667
 Alpha virt. eigenvalues --    0.52897   0.53066   0.53514   0.53645   0.54041
 Alpha virt. eigenvalues --    0.54367   0.54439   0.54694   0.55299   0.55763
 Alpha virt. eigenvalues --    0.56123   0.56452   0.56597   0.56849   0.57042
 Alpha virt. eigenvalues --    0.57819   0.58113   0.58322   0.58453   0.59043
 Alpha virt. eigenvalues --    0.59549   0.59854   0.60361   0.60458   0.60898
 Alpha virt. eigenvalues --    0.61037   0.61170   0.61736   0.62024   0.62070
 Alpha virt. eigenvalues --    0.62268   0.62952   0.63252   0.63718   0.63806
 Alpha virt. eigenvalues --    0.64260   0.64663   0.65037   0.65377   0.66028
 Alpha virt. eigenvalues --    0.66378   0.66579   0.67030   0.67433   0.67904
 Alpha virt. eigenvalues --    0.68198   0.68701   0.68894   0.69195   0.69960
 Alpha virt. eigenvalues --    0.70217   0.70722   0.71119   0.71521   0.71615
 Alpha virt. eigenvalues --    0.71950   0.72356   0.72600   0.72804   0.73370
 Alpha virt. eigenvalues --    0.73698   0.73804   0.74423   0.74936   0.75091
 Alpha virt. eigenvalues --    0.75571   0.75934   0.76384   0.76540   0.76841
 Alpha virt. eigenvalues --    0.76928   0.77602   0.78329   0.78897   0.79266
 Alpha virt. eigenvalues --    0.79719   0.80177   0.80387   0.80612   0.81105
 Alpha virt. eigenvalues --    0.81766   0.82178   0.82288   0.83024   0.83227
 Alpha virt. eigenvalues --    0.83973   0.84890   0.84933   0.85249   0.85391
 Alpha virt. eigenvalues --    0.85743   0.85934   0.86877   0.87776   0.88407
 Alpha virt. eigenvalues --    0.88913   0.89199   0.89579   0.90068   0.90431
 Alpha virt. eigenvalues --    0.91212   0.91542   0.91935   0.92067   0.92892
 Alpha virt. eigenvalues --    0.93457   0.94022   0.94744   0.95217   0.95463
 Alpha virt. eigenvalues --    0.95584   0.96399   0.96960   0.97460   0.97981
 Alpha virt. eigenvalues --    0.98574   0.99276   0.99442   0.99810   1.00260
 Alpha virt. eigenvalues --    1.00714   1.01397   1.01624   1.02325   1.02775
 Alpha virt. eigenvalues --    1.03455   1.03797   1.03933   1.04755   1.05399
 Alpha virt. eigenvalues --    1.06196   1.06533   1.06867   1.07282   1.07406
 Alpha virt. eigenvalues --    1.08182   1.08862   1.09190   1.09495   1.10174
 Alpha virt. eigenvalues --    1.10718   1.10978   1.11350   1.11899   1.12156
 Alpha virt. eigenvalues --    1.12295   1.13378   1.13605   1.13930   1.14462
 Alpha virt. eigenvalues --    1.15408   1.16143   1.17009   1.17080   1.17334
 Alpha virt. eigenvalues --    1.17780   1.17978   1.18217   1.18732   1.19013
 Alpha virt. eigenvalues --    1.19338   1.20015   1.21015   1.21141   1.21365
 Alpha virt. eigenvalues --    1.22095   1.22417   1.23231   1.23561   1.23834
 Alpha virt. eigenvalues --    1.24315   1.24584   1.24890   1.25483   1.25924
 Alpha virt. eigenvalues --    1.26139   1.26914   1.27458   1.27929   1.28477
 Alpha virt. eigenvalues --    1.29008   1.29748   1.29816   1.30164   1.30662
 Alpha virt. eigenvalues --    1.30972   1.31304   1.32637   1.33188   1.34140
 Alpha virt. eigenvalues --    1.34450   1.34843   1.35613   1.36336   1.36479
 Alpha virt. eigenvalues --    1.37053   1.37064   1.38054   1.38412   1.39062
 Alpha virt. eigenvalues --    1.39357   1.40008   1.40735   1.41572   1.41695
 Alpha virt. eigenvalues --    1.42031   1.42374   1.42810   1.43338   1.44240
 Alpha virt. eigenvalues --    1.44674   1.44855   1.46249   1.46507   1.47138
 Alpha virt. eigenvalues --    1.47468   1.48519   1.48605   1.48796   1.49737
 Alpha virt. eigenvalues --    1.50134   1.50546   1.50948   1.51093   1.51936
 Alpha virt. eigenvalues --    1.52732   1.53207   1.53368   1.53664   1.54382
 Alpha virt. eigenvalues --    1.54954   1.55437   1.55948   1.57014   1.57851
 Alpha virt. eigenvalues --    1.58406   1.59191   1.59505   1.59930   1.60579
 Alpha virt. eigenvalues --    1.61642   1.62129   1.62565   1.63018   1.63416
 Alpha virt. eigenvalues --    1.63962   1.64386   1.65120   1.65581   1.66685
 Alpha virt. eigenvalues --    1.67367   1.67469   1.68181   1.69610   1.70625
 Alpha virt. eigenvalues --    1.70755   1.71296   1.72649   1.73108   1.73592
 Alpha virt. eigenvalues --    1.74256   1.74833   1.75144   1.76334   1.76946
 Alpha virt. eigenvalues --    1.77257   1.78529   1.79979   1.80263   1.80974
 Alpha virt. eigenvalues --    1.81068   1.81830   1.82827   1.83056   1.84154
 Alpha virt. eigenvalues --    1.85081   1.85538   1.86677   1.87285   1.88887
 Alpha virt. eigenvalues --    1.89042   1.89732   1.89928   1.91113   1.91575
 Alpha virt. eigenvalues --    1.92539   1.93574   1.93966   1.94784   1.96192
 Alpha virt. eigenvalues --    1.97013   1.98136   1.98270   1.98741   2.00117
 Alpha virt. eigenvalues --    2.01283   2.01478   2.01600   2.02875   2.03847
 Alpha virt. eigenvalues --    2.03983   2.04462   2.05319   2.05557   2.06466
 Alpha virt. eigenvalues --    2.07233   2.07692   2.08378   2.08851   2.09680
 Alpha virt. eigenvalues --    2.10296   2.11651   2.12064   2.12128   2.12516
 Alpha virt. eigenvalues --    2.13811   2.14465   2.14700   2.15289   2.15491
 Alpha virt. eigenvalues --    2.16521   2.17084   2.17710   2.18347   2.18954
 Alpha virt. eigenvalues --    2.19126   2.19709   2.19984   2.20552   2.21561
 Alpha virt. eigenvalues --    2.21661   2.22639   2.23387   2.23823   2.24132
 Alpha virt. eigenvalues --    2.24405   2.24745   2.25309   2.25412   2.26682
 Alpha virt. eigenvalues --    2.27306   2.27551   2.28156   2.28579   2.29238
 Alpha virt. eigenvalues --    2.29593   2.30376   2.30942   2.31898   2.32047
 Alpha virt. eigenvalues --    2.32592   2.33293   2.33705   2.34539   2.34969
 Alpha virt. eigenvalues --    2.35418   2.36170   2.36369   2.36725   2.38393
 Alpha virt. eigenvalues --    2.38562   2.39009   2.39649   2.40218   2.40892
 Alpha virt. eigenvalues --    2.41408   2.41957   2.42508   2.42995   2.43803
 Alpha virt. eigenvalues --    2.44532   2.44824   2.45272   2.45760   2.46717
 Alpha virt. eigenvalues --    2.47662   2.48083   2.48116   2.49041   2.49272
 Alpha virt. eigenvalues --    2.50036   2.50857   2.51296   2.51716   2.52675
 Alpha virt. eigenvalues --    2.52982   2.53659   2.54190   2.54882   2.55310
 Alpha virt. eigenvalues --    2.56135   2.56976   2.57234   2.58012   2.58473
 Alpha virt. eigenvalues --    2.58561   2.59898   2.60298   2.60990   2.61807
 Alpha virt. eigenvalues --    2.62191   2.62374   2.63592   2.63837   2.64566
 Alpha virt. eigenvalues --    2.65329   2.66076   2.66300   2.67042   2.67593
 Alpha virt. eigenvalues --    2.67728   2.68681   2.68774   2.69571   2.70414
 Alpha virt. eigenvalues --    2.71434   2.71681   2.72454   2.72816   2.73651
 Alpha virt. eigenvalues --    2.74068   2.74784   2.75071   2.75786   2.75902
 Alpha virt. eigenvalues --    2.77420   2.77925   2.78146   2.78870   2.79575
 Alpha virt. eigenvalues --    2.79923   2.80464   2.81152   2.81815   2.82148
 Alpha virt. eigenvalues --    2.83052   2.83407   2.84057   2.84448   2.84918
 Alpha virt. eigenvalues --    2.85992   2.86929   2.87430   2.87667   2.88093
 Alpha virt. eigenvalues --    2.88447   2.89399   2.89967   2.90662   2.90974
 Alpha virt. eigenvalues --    2.91862   2.92003   2.92768   2.93442   2.93586
 Alpha virt. eigenvalues --    2.93955   2.94767   2.95238   2.95850   2.96081
 Alpha virt. eigenvalues --    2.96370   2.97238   2.97613   2.98164   2.99369
 Alpha virt. eigenvalues --    2.99558   2.99976   3.00319   3.00851   3.01073
 Alpha virt. eigenvalues --    3.01765   3.02026   3.02136   3.02868   3.04472
 Alpha virt. eigenvalues --    3.04685   3.05230   3.05700   3.06046   3.06475
 Alpha virt. eigenvalues --    3.07324   3.07573   3.08215   3.08931   3.09352
 Alpha virt. eigenvalues --    3.09808   3.10439   3.11195   3.12053   3.12528
 Alpha virt. eigenvalues --    3.13527   3.14032   3.14487   3.14931   3.15887
 Alpha virt. eigenvalues --    3.17233   3.17878   3.18555   3.18937   3.19257
 Alpha virt. eigenvalues --    3.20132   3.20778   3.21634   3.21837   3.22115
 Alpha virt. eigenvalues --    3.23565   3.23853   3.24240   3.24515   3.25789
 Alpha virt. eigenvalues --    3.26333   3.26843   3.27958   3.28826   3.29606
 Alpha virt. eigenvalues --    3.30175   3.30310   3.31474   3.32883   3.33297
 Alpha virt. eigenvalues --    3.34036   3.34355   3.34634   3.34710   3.35852
 Alpha virt. eigenvalues --    3.36686   3.37388   3.37680   3.38507   3.38963
 Alpha virt. eigenvalues --    3.39798   3.40559   3.40862   3.41238   3.42006
 Alpha virt. eigenvalues --    3.42306   3.42916   3.43543   3.44888   3.45193
 Alpha virt. eigenvalues --    3.45591   3.46803   3.47309   3.48239   3.48809
 Alpha virt. eigenvalues --    3.49408   3.49662   3.50424   3.51278   3.51749
 Alpha virt. eigenvalues --    3.52276   3.52838   3.53596   3.53941   3.54563
 Alpha virt. eigenvalues --    3.55509   3.56584   3.57771   3.58576   3.59251
 Alpha virt. eigenvalues --    3.60012   3.60660   3.62007   3.62924   3.63184
 Alpha virt. eigenvalues --    3.63511   3.64018   3.64980   3.65872   3.66608
 Alpha virt. eigenvalues --    3.67540   3.67934   3.69389   3.70331   3.70964
 Alpha virt. eigenvalues --    3.71657   3.71997   3.73127   3.74422   3.74790
 Alpha virt. eigenvalues --    3.75315   3.76310   3.77325   3.77645   3.78431
 Alpha virt. eigenvalues --    3.79606   3.80188   3.81884   3.82702   3.82812
 Alpha virt. eigenvalues --    3.83992   3.84696   3.84904   3.85756   3.86623
 Alpha virt. eigenvalues --    3.87281   3.88746   3.89137   3.90090   3.90400
 Alpha virt. eigenvalues --    3.90910   3.91392   3.93161   3.93828   3.94377
 Alpha virt. eigenvalues --    3.95275   3.95488   3.96217   3.97297   3.98145
 Alpha virt. eigenvalues --    3.99345   3.99675   4.00701   4.01658   4.02652
 Alpha virt. eigenvalues --    4.03589   4.03902   4.05202   4.05421   4.06196
 Alpha virt. eigenvalues --    4.08264   4.09286   4.10269   4.11644   4.12379
 Alpha virt. eigenvalues --    4.12523   4.13149   4.14448   4.15115   4.18024
 Alpha virt. eigenvalues --    4.18909   4.19665   4.21140   4.21432   4.22910
 Alpha virt. eigenvalues --    4.23285   4.24386   4.25975   4.26319   4.28135
 Alpha virt. eigenvalues --    4.28774   4.30073   4.30347   4.32462   4.33717
 Alpha virt. eigenvalues --    4.34651   4.36024   4.37054   4.37392   4.40522
 Alpha virt. eigenvalues --    4.40913   4.41358   4.43086   4.45494   4.45791
 Alpha virt. eigenvalues --    4.47220   4.48050   4.49033   4.49285   4.51423
 Alpha virt. eigenvalues --    4.52218   4.54404   4.55271   4.56137   4.58096
 Alpha virt. eigenvalues --    4.60163   4.61115   4.61931   4.62354   4.62918
 Alpha virt. eigenvalues --    4.64003   4.65402   4.67178   4.68526   4.72615
 Alpha virt. eigenvalues --    4.74210   4.76222   4.77170   4.78685   4.80888
 Alpha virt. eigenvalues --    4.82081   4.84107   4.86906   4.89059   4.90957
 Alpha virt. eigenvalues --    4.91404   4.93847   4.94674   4.97164   4.99813
 Alpha virt. eigenvalues --    5.02773   5.04216   5.07310   5.07627   5.11024
 Alpha virt. eigenvalues --    5.11929   5.12839   5.13039   5.15347   5.17155
 Alpha virt. eigenvalues --    5.18332   5.20115   5.22518   5.22877   5.25053
 Alpha virt. eigenvalues --    5.28075   5.28318   5.29247   5.30236   5.31898
 Alpha virt. eigenvalues --    5.32791   5.33529   5.34367   5.35116   5.37357
 Alpha virt. eigenvalues --    5.38554   5.39099   5.39846   5.41960   5.43371
 Alpha virt. eigenvalues --    5.44830   5.46661   5.49059   5.50783   5.51204
 Alpha virt. eigenvalues --    5.52462   5.52864   5.53614   5.54800   5.55127
 Alpha virt. eigenvalues --    5.55504   5.56585   5.56756   5.58185   5.58836
 Alpha virt. eigenvalues --    5.60371   5.61322   5.62245   5.62884   5.63909
 Alpha virt. eigenvalues --    5.64496   5.65132   5.65801   5.66681   5.67996
 Alpha virt. eigenvalues --    5.68232   5.69932   5.70484   5.71196   5.71912
 Alpha virt. eigenvalues --    5.72574   5.73580   5.74153   5.74393   5.75236
 Alpha virt. eigenvalues --    5.75846   5.76499   5.76846   5.77015   5.77995
 Alpha virt. eigenvalues --    5.78790   5.79304   5.79599   5.80646   5.81020
 Alpha virt. eigenvalues --    5.82071   5.83511   5.84011   5.85283   5.85408
 Alpha virt. eigenvalues --    5.86534   5.86895   5.87418   5.87739   5.88104
 Alpha virt. eigenvalues --    5.88934   5.89627   5.90425   5.91800   5.92278
 Alpha virt. eigenvalues --    5.92603   5.93895   5.94329   5.96198   5.97200
 Alpha virt. eigenvalues --    5.97970   5.98341   5.98864   5.99665   6.00035
 Alpha virt. eigenvalues --    6.01127   6.01827   6.01854   6.02259   6.03442
 Alpha virt. eigenvalues --    6.04052   6.04739   6.05754   6.06577   6.08108
 Alpha virt. eigenvalues --    6.08795   6.09915   6.10119   6.10544   6.11082
 Alpha virt. eigenvalues --    6.11440   6.12806   6.13956   6.14226   6.15540
 Alpha virt. eigenvalues --    6.15898   6.16748   6.17076   6.18162   6.18373
 Alpha virt. eigenvalues --    6.19570   6.19976   6.20157   6.21282   6.21580
 Alpha virt. eigenvalues --    6.22976   6.23634   6.24273   6.25182   6.25622
 Alpha virt. eigenvalues --    6.26073   6.27617   6.28254   6.29181   6.29385
 Alpha virt. eigenvalues --    6.30214   6.30810   6.31465   6.32648   6.33995
 Alpha virt. eigenvalues --    6.34431   6.35099   6.35627   6.36331   6.37508
 Alpha virt. eigenvalues --    6.37840   6.38386   6.38931   6.40061   6.40932
 Alpha virt. eigenvalues --    6.41089   6.42903   6.43567   6.44251   6.44778
 Alpha virt. eigenvalues --    6.45261   6.45893   6.45992   6.46833   6.47695
 Alpha virt. eigenvalues --    6.47994   6.48482   6.50111   6.51082   6.51575
 Alpha virt. eigenvalues --    6.52214   6.52972   6.53214   6.54584   6.55012
 Alpha virt. eigenvalues --    6.55816   6.57322   6.58271   6.59224   6.60313
 Alpha virt. eigenvalues --    6.60936   6.61081   6.61506   6.62450   6.63244
 Alpha virt. eigenvalues --    6.64004   6.64968   6.65818   6.66836   6.67731
 Alpha virt. eigenvalues --    6.68568   6.70047   6.71382   6.71534   6.72882
 Alpha virt. eigenvalues --    6.73764   6.74868   6.75000   6.76284   6.77229
 Alpha virt. eigenvalues --    6.78198   6.79563   6.79920   6.80971   6.81698
 Alpha virt. eigenvalues --    6.83081   6.83827   6.84232   6.85151   6.85922
 Alpha virt. eigenvalues --    6.87273   6.87954   6.90482   6.90813   6.92022
 Alpha virt. eigenvalues --    6.92512   6.93164   6.94145   6.95657   6.96718
 Alpha virt. eigenvalues --    6.97289   6.98145   6.98246   6.99765   7.00413
 Alpha virt. eigenvalues --    7.00600   7.02051   7.02372   7.03454   7.05106
 Alpha virt. eigenvalues --    7.06312   7.07118   7.07446   7.07926   7.08600
 Alpha virt. eigenvalues --    7.09532   7.10041   7.10329   7.10835   7.12118
 Alpha virt. eigenvalues --    7.13954   7.14269   7.15933   7.16220   7.17738
 Alpha virt. eigenvalues --    7.18505   7.18828   7.20108   7.21019   7.23292
 Alpha virt. eigenvalues --    7.24111   7.24689   7.25961   7.27506   7.28037
 Alpha virt. eigenvalues --    7.28793   7.29046   7.30373   7.32049   7.32639
 Alpha virt. eigenvalues --    7.33080   7.33390   7.33686   7.34579   7.35777
 Alpha virt. eigenvalues --    7.36636   7.37217   7.37777   7.38029   7.39480
 Alpha virt. eigenvalues --    7.40259   7.40596   7.41159   7.41598   7.42364
 Alpha virt. eigenvalues --    7.43147   7.43919   7.45238   7.45714   7.46510
 Alpha virt. eigenvalues --    7.46709   7.48367   7.48484   7.49645   7.50256
 Alpha virt. eigenvalues --    7.50595   7.51710   7.51954   7.52737   7.52948
 Alpha virt. eigenvalues --    7.53486   7.54348   7.54462   7.55487   7.55568
 Alpha virt. eigenvalues --    7.56982   7.57876   7.58374   7.59372   7.60566
 Alpha virt. eigenvalues --    7.60707   7.60940   7.62841   7.63640   7.63861
 Alpha virt. eigenvalues --    7.65188   7.65623   7.66197   7.67043   7.67892
 Alpha virt. eigenvalues --    7.68117   7.69003   7.70464   7.71737   7.72403
 Alpha virt. eigenvalues --    7.72755   7.72987   7.73311   7.74385   7.75544
 Alpha virt. eigenvalues --    7.75757   7.76334   7.76751   7.77936   7.78455
 Alpha virt. eigenvalues --    7.79151   7.79815   7.80535   7.81312   7.82184
 Alpha virt. eigenvalues --    7.82318   7.83071   7.84229   7.84698   7.85140
 Alpha virt. eigenvalues --    7.86456   7.86905   7.87022   7.88144   7.88396
 Alpha virt. eigenvalues --    7.89332   7.91146   7.91188   7.91411   7.92004
 Alpha virt. eigenvalues --    7.92315   7.93199   7.93846   7.94236   7.95246
 Alpha virt. eigenvalues --    7.95973   7.96439   7.97457   7.97501   7.99136
 Alpha virt. eigenvalues --    8.00238   8.00999   8.01673   8.02404   8.02982
 Alpha virt. eigenvalues --    8.04052   8.05123   8.06680   8.07027   8.07387
 Alpha virt. eigenvalues --    8.09152   8.09797   8.11014   8.11145   8.11555
 Alpha virt. eigenvalues --    8.11973   8.13174   8.13622   8.14210   8.14938
 Alpha virt. eigenvalues --    8.15761   8.15844   8.16638   8.17440   8.17720
[...]
    23  H    0.000279   0.000009  -0.000040  -0.000167  -0.004752  -0.000736
    24  N    0.046711   0.016831  -0.092791  -0.003810   0.008791   0.462432
    25  C   -0.020763   0.001174   0.019072  -0.000236  -0.071816  -0.026312
    26  H   -0.015810  -0.010529   0.004266   0.005636   0.007498  -0.049985
    27  H    0.008758  -0.001063  -0.033174  -0.001588  -0.021666  -0.004850
    28  H   -0.002875   0.000047  -0.005514   0.000636   0.012589   0.005587
    29  H   -0.002723   0.007542  -0.026985  -0.002385  -0.006825   0.042745
    30  C    0.495074   0.034826  -0.021674  -0.011529  -0.125454  -0.059534
    31  C   -0.037057   0.010149   0.061874   0.006635  -0.049809  -0.016412
    32  O   -0.101904   0.009211  -0.022213   0.001575  -0.048669  -0.025322
    33  H    0.014355   0.013634   0.005406   0.000025  -0.003231  -0.005275
    34  H   -0.010394  -0.003760   0.002297   0.000651  -0.005611  -0.000743
    35  H    0.006523  -0.008252   0.001242   0.000528  -0.005634  -0.002461
               7          8          9         10         11         12
     1  N    0.036625   0.008256  -0.033309   0.007133   0.006127   0.002288
     2  H   -0.014542  -0.007521   0.012127   0.020990  -0.002570   0.001530
     3  C   -0.156354  -0.096567  -0.101735  -0.073969  -0.060204  -0.038453
     4  H    0.002276  -0.002282  -0.002938  -0.027441  -0.003662  -0.009090
     5  C    0.449666  -0.236933  -0.279756   0.005600  -0.071263   0.025232
     6  C    0.048550   0.033432  -0.026425   0.499914   0.012539   0.025721
     7  H    0.470282  -0.008804  -0.089201   0.001529   0.015093   0.019709
     8  H   -0.008804   1.009264  -0.171621  -0.001294   0.011569   0.000759
     9  C   -0.089201  -0.171621   7.011729  -0.007935   0.322547   0.241126
    10  O    0.001529  -0.001294  -0.007935   8.088198   0.004541  -0.010722
    11  H    0.015093   0.011569   0.322547   0.004541   0.413402   0.001392
    12  H    0.019709   0.000759   0.241126  -0.010722   0.001392   0.510200
    13  C    0.009868  -0.097588  -0.062175  -0.003106  -0.047450  -0.104018
    14  H   -0.005180   0.023068  -0.081422  -0.000325   0.009340   0.015133
    15  H   -0.000443   0.001910  -0.061297   0.000205  -0.001553  -0.006982
    16  N   -0.005096  -0.027749  -0.099600   0.000336  -0.001180   0.004115
    17  H   -0.004378   0.075453  -0.009930  -0.000780   0.000038  -0.016429
    18  C   -0.001813  -0.094652   0.079896   0.000151  -0.000709  -0.018372
    19  N    0.001249   0.005825  -0.029639  -0.000125   0.001099   0.002336
    20  N    0.002946   0.007636  -0.040263   0.000078   0.000005   0.001249
    21  H   -0.001678   0.013388   0.011603   0.000020  -0.000280  -0.000815
    22  H   -0.000477   0.017230   0.002022  -0.000036  -0.000172  -0.000719
    23  H   -0.004963   0.009363  -0.005779  -0.000045  -0.000187  -0.000955
    24  N   -0.005781  -0.020469  -0.014190  -0.070246   0.002338  -0.005162
    25  C   -0.002860   0.042916  -0.024504   0.017745   0.001270  -0.000751
    26  H    0.001097  -0.006290  -0.001690   0.059260   0.000124   0.005625
    27  H   -0.000204   0.038262   0.003020   0.001613   0.000348   0.000408
    28  H   -0.000323  -0.025537  -0.001562  -0.000515   0.000045  -0.000593
    29  H   -0.004316  -0.077021  -0.010401   0.000946  -0.000178  -0.003342
    30  C   -0.046239  -0.061702  -0.003472  -0.002864  -0.002409  -0.005744
    31  C   -0.000450   0.020196   0.002876  -0.001504  -0.000323  -0.000381
    32  O    0.009927   0.108546  -0.000764  -0.000428   0.000599  -0.000456
    33  H    0.000092  -0.000049  -0.000296  -0.000060  -0.000013  -0.000039
    34  H   -0.000439  -0.000587   0.000428  -0.000089  -0.000045  -0.000005
    35  H   -0.000356   0.000130   0.000219  -0.000079  -0.000028  -0.000033
              13         14         15         16         17         18
     1  N    0.005884   0.002399   0.000059   0.000850  -0.002994  -0.001491
     2  H    0.000892  -0.000254  -0.000023  -0.000293   0.000489  -0.000227
     3  C   -0.007315   0.009940   0.006925  -0.011249   0.018624  -0.011935
     4  H    0.000051  -0.001364   0.000421   0.000098   0.001289   0.000573
     5  C   -0.106916  -0.024103  -0.032755   0.054052  -0.032454   0.051688
     6  C   -0.030921   0.001253  -0.000708   0.002952  -0.008192   0.002132
     7  H    0.009868  -0.005180  -0.000443  -0.005096  -0.004378  -0.001813
     8  H   -0.097588   0.023068   0.001910  -0.027749   0.075453  -0.094652
     9  C   -0.062175  -0.081422  -0.061297  -0.099600  -0.009930   0.079896
    10  O   -0.003106  -0.000325   0.000205   0.000336  -0.000780   0.000151
    11  H   -0.047450   0.009340  -0.001553  -0.001180   0.000038  -0.000709
    12  H   -0.104018   0.015133  -0.006982   0.004115  -0.016429  -0.018372
    13  C    6.447649   0.320511   0.387940   0.170409  -0.078912  -0.189582
    14  H    0.320511   0.627050   0.005438  -0.114634  -0.019013  -0.034096
    15  H    0.387940   0.005438   0.467199  -0.118596   0.019557   0.005233
    16  N    0.170409  -0.114634  -0.118596   7.649355  -0.053944   0.441800
    17  H   -0.078912  -0.019013   0.019557  -0.053944   0.564785  -0.054688
    18  C   -0.189582  -0.034096   0.005233   0.441800  -0.054688   4.901807
    19  N    0.039993   0.000184  -0.002131  -0.049991   0.051502   0.404112
    20  N    0.028772  -0.007816  -0.010104  -0.073798  -0.022923   0.423625
    21  H   -0.031373  -0.003940  -0.000430  -0.038580   0.002675  -0.051036
    22  H   -0.021181  -0.008533  -0.000223  -0.035918   0.013292  -0.011205
    23  H   -0.001407   0.029422  -0.000099  -0.029664  -0.013649  -0.029711
    24  N   -0.000755   0.000203  -0.000104  -0.000963   0.004912   0.004476
    25  C    0.001535  -0.000140  -0.000195  -0.002046  -0.001449  -0.055793
    26  H   -0.000404   0.000043   0.000044  -0.000241  -0.000860  -0.001162
    27  H    0.006598   0.000180   0.000340   0.004645  -0.006705  -0.002155
    28  H    0.000225   0.000017  -0.000009  -0.000288   0.000903   0.001876
    29  H    0.002218   0.000508  -0.000115  -0.001051   0.005215   0.015331
    30  C   -0.003874  -0.001051   0.000348  -0.001422   0.002306  -0.014345
    31  C   -0.000693  -0.000141   0.000014  -0.000195   0.000109  -0.001037
    32  O    0.002950   0.000647   0.000224   0.000405  -0.000885   0.011543
    33  H    0.000025   0.000003   0.000001  -0.000003  -0.000001  -0.000031
    34  H   -0.000059  -0.000011   0.000000  -0.000043   0.000018  -0.000326
    35  H    0.000046   0.000003   0.000001  -0.000026   0.000005  -0.000174
              19         20         21         22         23         24
     1  N    0.001688  -0.000296  -0.000043  -0.000578   0.000279   0.046711
     2  H   -0.000115  -0.000070  -0.000021   0.000137   0.000009   0.016831
     3  C   -0.010127  -0.009496   0.001802   0.002647  -0.000040  -0.092791
     4  H   -0.000151   0.000011   0.000111   0.000038  -0.000167  -0.003810
     5  C   -0.001145  -0.035339  -0.000490  -0.026274  -0.004752   0.008791
     6  C   -0.000831   0.000499   0.000454  -0.000904  -0.000736   0.462432
     7  H    0.001249   0.002946  -0.001678  -0.000477  -0.004963  -0.005781
     8  H    0.005825   0.007636   0.013388   0.017230   0.009363  -0.020469
     9  C   -0.029639  -0.040263   0.011603   0.002022  -0.005779  -0.014190
    10  O   -0.000125   0.000078   0.000020  -0.000036  -0.000045  -0.070246
    11  H    0.001099   0.000005  -0.000280  -0.000172  -0.000187   0.002338
    12  H    0.002336   0.001249  -0.000815  -0.000719  -0.000955  -0.005162
    13  C    0.039993   0.028772  -0.031373  -0.021181  -0.001407  -0.000755
    14  H    0.000184  -0.007816  -0.003940  -0.008533   0.029422   0.000203
    15  H   -0.002131  -0.010104  -0.000430  -0.000223  -0.000099  -0.000104
    16  N   -0.049991  -0.073798  -0.038580  -0.035918  -0.029664  -0.000963
    17  H    0.051502  -0.022923   0.002675   0.013292  -0.013649   0.004912
    18  C    0.404112   0.423625  -0.051036  -0.011205  -0.029711   0.004476
    19  N    7.505329  -0.024374  -0.074454  -0.013007  -0.002173   0.002295
    20  N   -0.024374   7.061625  -0.014214   0.204875   0.222467  -0.000388
    21  H   -0.074454  -0.014214   0.661864   0.029792  -0.011512  -0.003122
    22  H   -0.013007   0.204875   0.029792   0.397628  -0.008270   0.000082
    23  H   -0.002173   0.222467  -0.011512  -0.008270   0.411698   0.000049
    24  N    0.002295  -0.000388  -0.003122   0.000082   0.000049   6.917855
    25  C   -0.012310   0.007793   0.016561  -0.001804  -0.000341   0.201305
    26  H   -0.002432  -0.000030   0.001050   0.000013  -0.000011   0.168622
    27  H    0.014714  -0.000997  -0.001315  -0.000519   0.000137  -0.080606
    28  H   -0.004692  -0.000053  -0.000363   0.000221  -0.000009  -0.077737
    29  H   -0.001716  -0.002216  -0.007873   0.001808  -0.000348  -0.025979
    30  C   -0.005680   0.001083   0.003899   0.004273   0.000242  -0.010748
    31  C   -0.000520  -0.000168   0.000609   0.000401   0.000011  -0.009685
    32  O    0.002041  -0.001399  -0.002001  -0.001413  -0.000406  -0.005080
    33  H   -0.000003  -0.000022   0.000003   0.000006   0.000003  -0.000618
    34  H   -0.000142  -0.000052   0.000120   0.000122   0.000004  -0.001343
    35  H   -0.000023  -0.000062   0.000016   0.000067   0.000017  -0.000279
              25         26         27         28         29         30
     1  N   -0.020763  -0.015810   0.008758  -0.002875  -0.002723   0.495074
     2  H    0.001174  -0.010529  -0.001063   0.000047   0.007542   0.034826
     3  C    0.019072   0.004266  -0.033174  -0.005514  -0.026985  -0.021674
     4  H   -0.000236   0.005636  -0.001588   0.000636  -0.002385  -0.011529
     5  C   -0.071816   0.007498  -0.021666   0.012589  -0.006825  -0.125454
     6  C   -0.026312  -0.049985  -0.004850   0.005587   0.042745  -0.059534
     7  H   -0.002860   0.001097  -0.000204  -0.000323  -0.004316  -0.046239
     8  H    0.042916  -0.006290   0.038262  -0.025537  -0.077021  -0.061702
     9  C   -0.024504  -0.001690   0.003020  -0.001562  -0.010401  -0.003472
    10  O    0.017745   0.059260   0.001613  -0.000515   0.000946  -0.002864
    11  H    0.001270   0.000124   0.000348   0.000045  -0.000178  -0.002409
    12  H   -0.000751   0.005625   0.000408  -0.000593  -0.003342  -0.005744
    13  C    0.001535  -0.000404   0.006598   0.000225   0.002218  -0.003874
    14  H   -0.000140   0.000043   0.000180   0.000017   0.000508  -0.001051
    15  H   -0.000195   0.000044   0.000340  -0.000009  -0.000115   0.000348
    16  N   -0.002046  -0.000241   0.004645  -0.000288  -0.001051  -0.001422
    17  H   -0.001449  -0.000860  -0.006705   0.000903   0.005215   0.002306
    18  C   -0.055793  -0.001162  -0.002155   0.001876   0.015331  -0.014345
    19  N   -0.012310  -0.002432   0.014714  -0.004692  -0.001716  -0.005680
    20  N    0.007793  -0.000030  -0.000997  -0.000053  -0.002216   0.001083
    21  H    0.016561   0.001050  -0.001315  -0.000363  -0.007873   0.003899
    22  H   -0.001804   0.000013  -0.000519   0.000221   0.001808   0.004273
    23  H   -0.000341  -0.000011   0.000137  -0.000009  -0.000348   0.000242
    24  N    0.201305   0.168622  -0.080606  -0.077737  -0.025979  -0.010748
    25  C    6.066207  -0.035152   0.339106   0.352333   0.127674  -0.050451
    26  H   -0.035152   0.509271  -0.003504  -0.005093  -0.009162   0.010923
    27  H    0.339106  -0.003504   0.453000  -0.036754  -0.014735  -0.006487
    28  H    0.352333  -0.005093  -0.036754   0.497883  -0.015233   0.005885
    29  H    0.127674  -0.009162  -0.014735  -0.015233   0.606056  -0.010651
    30  C   -0.050451   0.010923  -0.006487   0.005885  -0.010651   4.673640
    31  C    0.008006   0.003543  -0.001403  -0.001619  -0.041114   0.044969
    32  O   -0.034079   0.002696   0.001186  -0.005371  -0.053256   0.625607
    33  H    0.000047   0.000155  -0.000044  -0.000231  -0.004963  -0.079744
    34  H    0.004330   0.000328  -0.000195   0.000061  -0.007787  -0.090052
    35  H    0.000319   0.000043   0.000044   0.000077  -0.003650  -0.083542
              31         32         33         34         35
     1  N   -0.037057  -0.101904   0.014355  -0.010394   0.006523
     2  H    0.010149   0.009211   0.013634  -0.003760  -0.008252
     3  C    0.061874  -0.022213   0.005406   0.002297   0.001242
     4  H    0.006635   0.001575   0.000025   0.000651   0.000528
     5  C   -0.049809  -0.048669  -0.003231  -0.005611  -0.005634
     6  C   -0.016412  -0.025322  -0.005275  -0.000743  -0.002461
     7  H   -0.000450   0.009927   0.000092  -0.000439  -0.000356
     8  H    0.020196   0.108546  -0.000049  -0.000587   0.000130
     9  C    0.002876  -0.000764  -0.000296   0.000428   0.000219
    10  O   -0.001504  -0.000428  -0.000060  -0.000089  -0.000079
    11  H   -0.000323   0.000599  -0.000013  -0.000045  -0.000028
    12  H   -0.000381  -0.000456  -0.000039  -0.000005  -0.000033
    13  C   -0.000693   0.002950   0.000025  -0.000059   0.000046
    14  H   -0.000141   0.000647   0.000003  -0.000011   0.000003
    15  H    0.000014   0.000224   0.000001   0.000000   0.000001
    16  N   -0.000195   0.000405  -0.000003  -0.000043  -0.000026
    17  H    0.000109  -0.000885  -0.000001   0.000018   0.000005
    18  C   -0.001037   0.011543  -0.000031  -0.000326  -0.000174
    19  N   -0.000520   0.002041  -0.000003  -0.000142  -0.000023
    20  N   -0.000168  -0.001399  -0.000022  -0.000052  -0.000062
    21  H    0.000609  -0.002001   0.000003   0.000120   0.000016
    22  H    0.000401  -0.001413   0.000006   0.000122   0.000067
    23  H    0.000011  -0.000406   0.000003   0.000004   0.000017
    24  N   -0.009685  -0.005080  -0.000618  -0.001343  -0.000279
    25  C    0.008006  -0.034079   0.000047   0.004330   0.000319
    26  H    0.003543   0.002696   0.000155   0.000328   0.000043
    27  H   -0.001403   0.001186  -0.000044  -0.000195   0.000044
    28  H   -0.001619  -0.005371  -0.000231   0.000061   0.000077
    29  H   -0.041114  -0.053256  -0.004963  -0.007787  -0.003650
    30  C    0.044969   0.625607  -0.079744  -0.090052  -0.083542
    31  C    6.055424  -0.037988   0.384351   0.303230   0.299615
    32  O   -0.037988   8.079238  -0.008740  -0.024906  -0.026572
    33  H    0.384351  -0.008740   0.475608  -0.020117  -0.020968
    34  H    0.303230  -0.024906  -0.020117   0.492819   0.005481
    35  H    0.299615  -0.026572  -0.020968   0.005481   0.465284
 Mulliken charges:
               1
     1  N   -0.642492
     2  H    0.379887
     3  C   -0.031991
     4  H    0.297277
     5  C   -1.071477
     6  C   -0.007246
     7  H    0.284986
     8  H    0.509463
     9  C   -0.527691
    10  O   -0.506696
    11  H    0.389810
    12  H    0.366239
    13  C   -0.637834
    14  H    0.256679
    15  H    0.339910
    16  N   -0.662449
    17  H    0.567014
    18  C    0.230296
    19  N   -0.796588
    20  N   -0.718583
    21  H    0.499573
    22  H    0.456578
    23  H    0.441522
    24  N   -0.407045
    25  C   -0.866392
    26  H    0.362116
    27  H    0.345603
    28  H    0.305985
    29  H    0.523979
    30  C    0.795594
    31  C   -1.001512
    32  O   -0.454543
    33  H    0.250734
    34  H    0.356815
    35  H    0.372479
 Sum of Mulliken charges =  -0.00000
 Mulliken charges with hydrogens summed into heavy atoms:
               1
     1  N   -0.262606
     3  C    0.265287
     5  C   -0.277027
     6  C   -0.007246
     9  C    0.228358
    10  O   -0.506696
    13  C   -0.041245
    16  N   -0.095436
    18  C    0.230296
    19  N   -0.297015
    20  N    0.179516
    24  N   -0.044930
    25  C    0.309175
    30  C    0.795594
    31  C   -0.021483
    32  O   -0.454543
 Electronic spatial extent (au):  <R**2>=           3911.2561
 Charge=             -0.0000 electrons
 Dipole moment (field-independent basis, Debye):
    X=              0.8132    Y=             -2.7193    Z=             -1.6412  Tot=              3.2787
 Quadrupole moment (field-independent basis, Debye-Ang):
   XX=            -86.3462   YY=           -106.4620   ZZ=            -93.6303
   XY=             -3.9924   XZ=              6.4175   YZ=              4.2565
 Traceless Quadrupole moment (field-independent basis, Debye-Ang):
   XX=              9.1333   YY=            -10.9825   ZZ=              1.8492
   XY=             -3.9924   XZ=              6.4175   YZ=              4.2565
 Octapole moment (field-independent basis, Debye-Ang**2):
  XXX=             50.4046  YYY=            -64.8909  ZZZ=             -0.3051  XYY=            -47.1321
  XXY=            -38.3512  XXZ=            -32.9080  XZZ=             16.9785  YZZ=              6.8495
  YYZ=             15.5730  XYZ=              4.1371
 Hexadecapole moment (field-independent basis, Debye-Ang**3):
 XXXX=          -2735.5697 YYYY=          -1611.9228 ZZZZ=           -813.9315 XXXY=             -2.3176
 XXXZ=             46.3488 YYYX=            -28.2546 YYYZ=             39.8881 ZZZX=             56.8564
 ZZZY=             23.8382 XXYY=           -643.9769 XXZZ=           -613.2404 YYZZ=           -338.7147
 XXYZ=             29.2294 YYXZ=              5.4893 ZZXY=             15.5548
 N-N= 1.218776539837D+03 E-N=-4.254895179997D+03  KE= 7.754986237269D+02
 No NMR shielding tensors so no spin-rotation constants.
 Leave Link  601 at Tue Apr 20 23:37:20 2021, MaxMem= 12079595520 cpu:            1939.3 elap:              41.8
 (Enter /s/ls4/groups/g0130/bin/g16/l9999.exe)

 Test job not archived.
 1\1\GINC-N035\Stability\RM062X\Gen\C9H19N5O2\ROOT\20-Apr-2021\0\\#P M0
 62X/GEN Integral=UltraFineGrid SCF=NoSymm Stable=(RExt, Opt) IOp(1/33=
 1)\\Database calculations.\\0,1\N,0,2.2788845642,-0.2925320782,-0.6260
 971241\H,0,3.2075590429,0.0140738465,-0.8623752873\C,0,1.2401103723,0.
 7158183739,-0.8302394228\H,0,1.4795738747,1.2056227889,-1.7754959687\C
 ,0,-0.1828238801,0.1772546033,-0.9423631093\C,0,1.3504259503,1.8727231
 239,0.1705071538\H,0,-0.2017717549,-0.6210949292,-1.6850324527\H,0,-0.
 4999337673,-0.2695331022,-0.0076385512\C,0,-1.1415255624,1.2908242027,
 -1.3508694948\O,0,1.609940364,2.9997552205,-0.2495448151\H,0,-0.854920
 3285,1.6936475429,-2.3264575847\H,0,-1.0773377091,2.1232447692,-0.6449
 306571\C,0,-2.5920053717,0.8191227051,-1.4174476767\H,0,-2.673989713,-
 0.0355956791,-2.0865868778\H,0,-3.216188818,1.6110652788,-1.8313326769
 \N,0,-3.1573378007,0.4503770614,-0.1218967611\H,0,-3.1069671524,1.1969
 056361,0.5588480327\C,0,-2.8026610116,-0.7361042397,0.5009345036\N,0,-
 2.5108187367,-0.729250453,1.7535251852\N,0,-2.7879222339,-1.8276728368
 ,-0.358648453\H,0,-2.4064430316,-1.6826115287,2.0913997978\H,0,-2.6407
 577742,-2.7099483381,0.102833325\H,0,-3.5503545591,-1.8518491134,-1.01
 73065901\N,0,1.144827314,1.6368806896,1.487075949\C,0,0.7627338644,0.4
 147218642,2.1722323967\H,0,1.2007983467,2.4819423163,2.0353826091\H,0,
 -0.2897626832,0.4251799664,2.4543997259\H,0,1.3763489269,0.2982803297,
 3.0642615044\H,0,0.923750801,-0.4485960769,1.5385483713\C,0,2.16757208
 79,-1.5948720869,-0.242197503\C,0,3.4685394324,-2.3676962225,-0.289345
 5072\O,0,1.1243097097,-2.1298466417,0.1151624447\H,0,4.3462919124,-1.7
 420275087,-0.4321992372\H,0,3.5679059092,-2.9266419794,0.6369114386\H,
 0,3.4103384154,-3.0860495049,-1.1049046871\\Version=ES64L-G16RevA.03\S
 tate=1-A\HF=-778.6844915\RMSD=3.311e-09\Dipole=0.2957485,-1.1072917,-0
 .5918953\Quadrupole=6.3952393,-7.6709526,1.2757133,-3.2922914,5.117264
 3,3.3488741\PG=C01 [X(C9H19N5O2)]\\@


 IF YOU PERCEIVE THAT THERE ARE FOUR POSSIBLE WAYS IN
 WHICH A PROCEDURE CAN GO WRONG AND CIRCUMVENT THESE, 
 THEN A FIFTH WAY WILL DEVELOP.

                              -- MURPHY'S TWELFTH LAW
 Job cpu time:      25 days 14 hours  4 minutes 55.7 seconds.
 Elapsed time:       0 days 13 hours  1 minutes  9.1 seconds.
 File lengths (MBytes):  RWF=   4787 Int=      0 D2E=      0 Chk=    297 Scr=      1
 Normal termination of Gaussian 16 at Tue Apr 20 23:37:22 2021.
