 Entering Gaussian System, Link 0=/s/ls4/users/knvvv/bin/g16sse/g16
 Input=data/database/M062X--def2-QZVPPD--24_h15_BSR36.gjf
 Output=data/database/M062X--def2-QZVPPD--24_h15_BSR36.log
 Initial command:
 /s/ls4/users/knvvv/bin/g16sse/l1.exe "/s/ls4/users/knvvv/bin/scratch/Gau-33885.inp" -scrdir="/s/ls4/users/knvvv/bin/scratch/"
 Entering Link 1 = /s/ls4/users/knvvv/bin/g16sse/l1.exe PID=     33886.
  
 Copyright (c) 1988,1990,1992,1993,1995,1998,2003,2009,2016,
            Gaussian, Inc.  All Rights Reserved.
  
 This is part of the Gaussian(R) 16 program.  It is based on
 the Gaussian(R) 09 system (copyright 2009, Gaussian, Inc.),
 the Gaussian(R) 03 system (copyright 2003, Gaussian, Inc.),
 the Gaussian(R) 98 system (copyright 1998, Gaussian, Inc.),
 the Gaussian(R) 94 system (copyright 1995, Gaussian, Inc.),
 the Gaussian 92(TM) system (copyright 1992, Gaussian, Inc.),
 the Gaussian 90(TM) system (copyright 1990, Gaussian, Inc.),
 the Gaussian 88(TM) system (copyright 1988, Gaussian, Inc.),
 the Gaussian 86(TM) system (copyright 1986, Carnegie Mellon
 University), and the Gaussian 82(TM) system (copyright 1983,
 Carnegie Mellon University). Gaussian is a federally registered
 trademark of Gaussian, Inc.
  
 This software contains proprietary and confidential information,
 including trade secrets, belonging to Gaussian, Inc.
  
 This software is provided under written license and may be
 used, copied, transmitted, or stored only in accord with that
 written license.
  
 The following legend is applicable only to US Government
 contracts under FAR:
  
                    RESTRICTED RIGHTS LEGEND
  
 Use, reproduction and disclosure by the US Government is
 subject to restrictions as set forth in subparagraphs (a)
 and (c) of the Commercial Computer Software - Restricted
 Rights clause in FAR 52.227-19.
  
 Gaussian, Inc.
 340 Quinnipiac St., Bldg. 40, Wallingford CT 06492
  
  
 ---------------------------------------------------------------
 Warning -- This program may not be used in any manner that
 competes with the business of Gaussian, Inc. or will provide
 assistance to any competitor of Gaussian, Inc.  The licensee
 of this program is prohibited from giving any competitor of
 Gaussian, Inc. access to this program.  By using this program,
 the user acknowledges that Gaussian, Inc. is engaged in the
 business of creating and licensing software in the field of
 computational chemistry and represents and warrants to the
 licensee that it is not a competitor of Gaussian, Inc. and that
 it will not use this program in any manner prohibited above.
 ---------------------------------------------------------------
  

 Cite this work as:
 Gaussian 16, Revision A.03,
 M. J. Frisch, G. W. Trucks, H. B. Schlegel, G. E. Scuseria, 
 M. A. Robb, J. R. Cheeseman, G. Scalmani, V. Barone, 
 G. A. Petersson, H. Nakatsuji, X. Li, M. Caricato, A. V. Marenich, 
 J. Bloino, B. G. Janesko, R. Gomperts, B. Mennucci, H. P. Hratchian, 
 J. V. Ortiz, A. F. Izmaylov, J. L. Sonnenberg, D. Williams-Young, 
 F. Ding, F. Lipparini, F. Egidi, J. Goings, B. Peng, A. Petrone, 
 T. Henderson, D. Ranasinghe, V. G. Zakrzewski, J. Gao, N. Rega, 
 G. Zheng, W. Liang, M. Hada, M. Ehara, K. Toyota, R. Fukuda, 
 J. Hasegawa, M. Ishida, T. Nakajima, Y. Honda, O. Kitao, H. Nakai, 
 T. Vreven, K. Throssell, J. A. Montgomery, Jr., J. E. Peralta, 
 F. Ogliaro, M. J. Bearpark, J. J. Heyd, E. N. Brothers, K. N. Kudin, 
 V. N. Staroverov, T. A. Keith, R. Kobayashi, J. Normand, 
 K. Raghavachari, A. P. Rendell, J. C. Burant, S. S. Iyengar, 
 J. Tomasi, M. Cossi, J. M. Millam, M. Klene, C. Adamo, R. Cammi, 
 J. W. Ochterski, R. L. Martin, K. Morokuma, O. Farkas, 
 J. B. Foresman, and D. J. Fox, Gaussian, Inc., Wallingford CT, 2016.
 
 ******************************************
 Gaussian 16:  ES64L-G16RevA.03 25-Dec-2016
                17-Apr-2021 
 ******************************************
 %RWF=temp5_71759,70GB
 %nprocshared=48
 Will use up to   48 processors via shared memory.
 Default route: MaxDisk=80GB
 ----------------------------------------------------------------------
 #P M062X/GEN Integral=UltraFineGrid SCF=NoSymm Stable=(RExt, Opt) IOp(
 1/33=1)
 ----------------------------------------------------------------------
 1/33=1,38=1,172=1/1;
 2/12=2,17=6,18=5,40=1/2;
 3/5=7,11=2,25=1,30=1,74=-55,75=-5/1,2,3;
 4/9=2/1;
 5/5=2,38=5/2;
 6/7=2,8=2,9=2,10=2,28=1/1;
 8/6=1,10=90,11=11/1;
 9/8=-3,42=1,46=1/14;
 5/5=2,8=3,17=40,38=5/8(-2);
 6/7=2,8=2,9=2,10=2,28=1/1;
 99/5=1,9=1/99;
 Leave Link    1 at Sat Apr 17 21:17:19 2021, MaxMem=           0 cpu:              11.1 elap:               0.3
 (Enter /s/ls4/users/knvvv/bin/g16sse/l101.exe)
 ONIOM data not found on unit 2.
 ----------------------
 Database calculations.
 ----------------------
 TstMul:  ICh=     0
 TstMul:  Mul=     1
 TstMul:  ICh=     0
 TstMul:  Mul=     1
 Symbolic Z-matrix:
 Charge =  0 Multiplicity = 1
 C                     1.14538  -0.8525   -1.33714 
 C                     0.        0.       -0.78247 
 C                     0.        0.        0.78247 
 C                     1.14538   0.8525    1.33714 
 C                     0.1656    1.41817  -1.33714 
 C                    -1.31097  -0.56568  -1.33714 
 C                     0.1656   -1.41817   1.33714 
 C                    -1.31097   0.56568   1.33714 
 H                     2.11012  -0.5614   -0.92194 
 H                     0.99287  -1.91233  -1.13795 
 H                     1.2011   -0.72494  -2.41933 
 H                     2.11012   0.5614    0.92194 
 H                     0.99287   1.91233   1.13795 
 H                     1.2011    0.72494   2.41933 
 H                     1.1597    1.81601  -1.13795 
 H                     0.02727   1.40265  -2.41933 
 H                    -0.56887   2.10812  -0.92194 
 H                    -1.54125  -1.54672  -0.92194 
 H                    -2.15256   0.09632  -1.13795 
 H                    -1.22837  -0.67771  -2.41933 
 H                     1.1597   -1.81601   1.13795 
 H                     0.02727  -1.40265   2.41933 
 H                    -0.56887  -2.10812   0.92194 
 H                    -1.54125   1.54672   0.92194 
 H                    -2.15256  -0.09632   1.13795 
 H                    -1.22837   0.67771   2.41933 
 
 RdStrC is calling ZToCFu for IStruc=1 NZ=    26.
 PrtBox:  NBox=     3 Levels=  1 BoxLen=    8.00 SMaxX=        9.14
          Shift=            4.067749            3.983767            4.571867
 Box      1 Number                   0 centers from      1 to     21:
 Box      2 Number                   1 centers from     22 to     24:
 Box      3 Number                   4 centers from     25 to     26:
 After GenITR:
 ITRead=  0  0  0  0  0  0  0  0  0  0  0  0  0  0  0  0  0  0  0  0
 ITRead=  0  0  0  0  0  0
 MicOpt= -1 -1 -1 -1 -1 -1 -1 -1 -1 -1 -1 -1 -1 -1 -1 -1 -1 -1 -1 -1
 MicOpt= -1 -1 -1 -1 -1 -1
 ITRead=  0  0  0  0  0  0  0  0  0  0  0  0  0  0  0  0  0  0  0  0
 ITRead=  0  0  0  0  0  0
 MicOpt= -1 -1 -1 -1 -1 -1 -1 -1 -1 -1 -1 -1 -1 -1 -1 -1 -1 -1 -1 -1
 MicOpt= -1 -1 -1 -1 -1 -1
 NAtoms=     26 NQM=       26 NQMF=       0 NMMI=      0 NMMIF=      0
                NMic=       0 NMicF=      0.
                    Isotopes and Nuclear Properties:
 (Nuclear quadrupole moments (NQMom) in fm**2, nuclear magnetic moments (NMagM)
  in nuclear magnetons)

  Atom         1           2           3           4           5           6           7           8           9          10
 IAtWgt=          12          12          12          12          12          12          12          12           1           1
 AtmWgt=  12.0000000  12.0000000  12.0000000  12.0000000  12.0000000  12.0000000  12.0000000  12.0000000   1.0078250   1.0078250
 NucSpn=           0           0           0           0           0           0           0           0           1           1
 AtZEff=  -0.0000000  -0.0000000  -0.0000000  -0.0000000  -0.0000000  -0.0000000  -0.0000000  -0.0000000  -0.0000000  -0.0000000
 NQMom=    0.0000000   0.0000000   0.0000000   0.0000000   0.0000000   0.0000000   0.0000000   0.0000000   0.0000000   0.0000000
 NMagM=    0.0000000   0.0000000   0.0000000   0.0000000   0.0000000   0.0000000   0.0000000   0.0000000   2.7928460   2.7928460
 AtZNuc=   6.0000000   6.0000000   6.0000000   6.0000000   6.0000000   6.0000000   6.0000000   6.0000000   1.0000000   1.0000000

  Atom        11          12          13          14          15          16          17          18          19          20
 IAtWgt=           1           1           1           1           1           1           1           1           1           1
 AtmWgt=   1.0078250   1.0078250   1.0078250   1.0078250   1.0078250   1.0078250   1.0078250   1.0078250   1.0078250   1.0078250
 NucSpn=           1           1           1           1           1           1           1           1           1           1
 AtZEff=  -0.0000000  -0.0000000  -0.0000000  -0.0000000  -0.0000000  -0.0000000  -0.0000000  -0.0000000  -0.0000000  -0.0000000
 NQMom=    0.0000000   0.0000000   0.0000000   0.0000000   0.0000000   0.0000000   0.0000000   0.0000000   0.0000000   0.0000000
 NMagM=    2.7928460   2.7928460   2.7928460   2.7928460   2.7928460   2.7928460   2.7928460   2.7928460   2.7928460   2.7928460
 AtZNuc=   1.0000000   1.0000000   1.0000000   1.0000000   1.0000000   1.0000000   1.0000000   1.0000000   1.0000000   1.0000000

  Atom        21          22          23          24          25          26
 IAtWgt=           1           1           1           1           1           1
 AtmWgt=   1.0078250   1.0078250   1.0078250   1.0078250   1.0078250   1.0078250
 NucSpn=           1           1           1           1           1           1
 AtZEff=  -0.0000000  -0.0000000  -0.0000000  -0.0000000  -0.0000000  -0.0000000
 NQMom=    0.0000000   0.0000000   0.0000000   0.0000000   0.0000000   0.0000000
 NMagM=    2.7928460   2.7928460   2.7928460   2.7928460   2.7928460   2.7928460
 AtZNuc=   1.0000000   1.0000000   1.0000000   1.0000000   1.0000000   1.0000000
 No MM parameters found.
 Leave Link  101 at Sat Apr 17 21:17:19 2021, MaxMem=   104857600 cpu:               7.4 elap:               0.2
 (Enter /s/ls4/users/knvvv/bin/g16sse/l202.exe)
                          Input orientation:                          
 ---------------------------------------------------------------------
 Center     Atomic      Atomic             Coordinates (Angstroms)
 Number     Number       Type             X           Y           Z
 ---------------------------------------------------------------------
      1          6           0        1.145376   -0.852496   -1.337144
      2          6           0        0.000000    0.000000   -0.782473
      3          6           0        0.000000    0.000000    0.782473
      4          6           0        1.145376    0.852496    1.337144
      5          6           0        0.165595    1.418172   -1.337144
      6          6           0       -1.310971   -0.565677   -1.337144
      7          6           0        0.165595   -1.418172    1.337144
      8          6           0       -1.310971    0.565677    1.337144
      9          1           0        2.110121   -0.561401   -0.921942
     10          1           0        0.992865   -1.912331   -1.137946
     11          1           0        1.201096   -0.724945   -2.419328
     12          1           0        2.110121    0.561401    0.921942
     13          1           0        0.992865    1.912331    1.137946
     14          1           0        1.201096    0.724945    2.419328
     15          1           0        1.159695    1.816012   -1.137946
     16          1           0        0.027273    1.402652   -2.419328
     17          1           0       -0.568873    2.108119   -0.921942
     18          1           0       -1.541248   -1.546718   -0.921942
     19          1           0       -2.152560    0.096319   -1.137946
     20          1           0       -1.228369   -0.677707   -2.419328
     21          1           0        1.159695   -1.816012    1.137946
     22          1           0        0.027273   -1.402652    2.419328
     23          1           0       -0.568873   -2.108119    0.921942
     24          1           0       -1.541248    1.546718    0.921942
     25          1           0       -2.152560   -0.096319    1.137946
     26          1           0       -1.228369    0.677707    2.419328
 ---------------------------------------------------------------------
                    Distance matrix (angstroms):
                    1          2          3          4          5
     1  C    0.000000
     2  C    1.531762   0.000000
     3  C    2.555662   1.564945   0.000000
     4  C    3.171563   2.555662   1.531762   0.000000
     5  C    2.473035   1.531762   2.555662   2.903752   0.000000
     6  C    2.473035   1.531762   2.555662   3.898290   2.473035
     7  C    2.903752   2.555662   1.531762   2.473035   3.898290
     8  C    3.898290   2.555662   1.531762   2.473035   3.171563
     9  H    1.089891   2.187975   2.769984   2.834309   2.805759
    10  H    1.089124   2.183839   2.886313   3.713974   3.437486
    11  H    1.091098   2.155800   3.495669   4.074617   2.614639
    12  H    2.834309   2.769984   2.187975   1.089891   3.101405
    13  H    3.713974   2.886313   2.183839   1.089124   2.656057
    14  H    4.074617   3.495669   2.155800   1.091098   3.957765
    15  H    2.675971   2.183839   2.886313   2.656057   1.089124
    16  H    2.739885   2.155800   3.495669   3.957765   1.091098
    17  H    3.446198   2.187975   2.769984   3.101405   1.089891
    18  H    2.805759   2.187975   2.769984   4.251781   3.446198
    19  H    3.437486   2.183839   2.886313   4.192166   2.675971
    20  H    2.614639   2.155800   3.495669   4.699709   2.739885
    21  H    2.656057   2.886313   2.183839   2.675971   4.192166
    22  H    3.957765   3.495669   2.155800   2.739885   4.699709
    23  H    3.101405   2.769984   2.187975   3.446198   4.251781
    24  H    4.251781   2.769984   2.187975   2.805759   2.834309
    25  H    4.192166   2.886313   2.183839   3.437486   3.713974
    26  H    4.699709   3.495669   2.155800   2.614639   4.074617
                    6          7          8          9         10
     6  C    0.000000
     7  C    3.171563   0.000000
     8  C    2.903752   2.473035   0.000000
     9  H    3.446198   3.101405   4.251781   0.000000
    10  H    2.675971   2.656057   4.192166   1.766333   0.000000
    11  H    2.739885   3.957765   4.699709   1.759328   1.759314
    12  H    4.251781   2.805759   3.446198   2.158841   3.407455
    13  H    4.192166   3.437486   2.675971   3.407455   4.450588
    14  H    4.699709   2.614639   2.739885   3.693927   4.433146
    15  H    3.437486   4.192166   3.713974   2.569447   3.732074
    16  H    2.614639   4.699709   4.074617   3.230778   3.682856
    17  H    2.805759   4.251781   2.834309   3.781976   4.318531
    18  H    1.089891   2.834309   3.101405   3.781976   2.569447
    19  H    1.089124   3.713974   2.656057   4.318531   3.732074
    20  H    1.091098   4.074617   3.957765   3.660766   2.846070
    21  H    3.713974   1.089124   3.437486   2.592393   2.284031
    22  H    4.074617   1.091098   2.614639   4.026170   3.721067
    23  H    2.834309   1.089891   2.805759   3.601286   2.592393
    24  H    3.101405   3.446198   1.089891   4.601801   4.757089
    25  H    2.656057   2.675971   1.089124   4.757089   4.286174
    26  H    3.957765   2.739885   1.091098   4.883133   4.929136
                   11         12         13         14         15
    11  H    0.000000
    12  H    3.693927   0.000000
    13  H    4.433146   1.766333   0.000000
    14  H    5.051214   1.759328   1.759314   0.000000
    15  H    2.846070   2.592393   2.284031   3.721067   0.000000
    16  H    2.429924   4.026170   3.721067   5.024912   1.759314
    17  H    3.660766   3.601286   2.592393   4.026170   1.766333
    18  H    3.230778   4.601801   4.757089   4.883133   4.318531
    19  H    3.682856   4.757089   4.286174   4.929136   3.732074
    20  H    2.429924   4.883133   4.929136   5.593060   3.682856
    21  H    3.721067   2.569447   3.732074   2.846070   4.286174
    22  H    5.024912   3.230778   3.682856   2.429924   4.929136
    23  H    4.026170   3.781976   4.318531   3.660766   4.757089
    24  H    4.883133   3.781976   2.569447   3.230778   3.407455
    25  H    4.929136   4.318531   3.732074   3.682856   4.450588
    26  H    5.593060   3.660766   2.846070   2.429924   4.433146
                   16         17         18         19         20
    16  H    0.000000
    17  H    1.759328   0.000000
    18  H    3.660766   3.781976   0.000000
    19  H    2.846070   2.569447   1.766333   0.000000
    20  H    2.429924   3.230778   1.759328   1.759314   0.000000
    21  H    4.929136   4.757089   3.407455   4.450588   4.433146
    22  H    5.593060   4.883133   3.693927   4.433146   5.051214
    23  H    4.883133   4.601801   2.158841   3.407455   3.693927
    24  H    3.693927   2.158841   3.601286   2.592393   4.026170
    25  H    4.433146   3.407455   2.592393   2.284031   3.721067
    26  H    5.051214   3.693927   4.026170   3.721067   5.024912
                   21         22         23         24         25
    21  H    0.000000
    22  H    1.759314   0.000000
    23  H    1.766333   1.759328   0.000000
    24  H    4.318531   3.660766   3.781976   0.000000
    25  H    3.732074   2.846070   2.569447   1.766333   0.000000
    26  H    3.682856   2.429924   3.230778   1.759328   1.759314
                   26
    26  H    0.000000
 Stoichiometry    C8H18
 Framework group  D3[C3(C.C),X(C6H18)]
 Deg. of freedom    13
 Full point group                 D3      NOp   6
 Largest Abelian subgroup         C2      NOp   2
 Largest concise Abelian subgroup C2      NOp   2
                         Standard orientation:                         
 ---------------------------------------------------------------------
 Center     Atomic      Atomic             Coordinates (Angstroms)
 Number     Number       Type             X           Y           Z
 ---------------------------------------------------------------------
      1          6           0       -0.852496    1.145376    1.337144
      2          6           0        0.000000    0.000000    0.782473
      3          6           0        0.000000    0.000000   -0.782473
      4          6           0        0.852496    1.145376   -1.337144
      5          6           0        1.418172    0.165595    1.337144
      6          6           0       -0.565677   -1.310971    1.337144
      7          6           0       -1.418172    0.165595   -1.337144
      8          6           0        0.565677   -1.310971   -1.337144
      9          1           0       -0.561401    2.110121    0.921942
     10          1           0       -1.912331    0.992865    1.137946
     11          1           0       -0.724945    1.201096    2.419328
     12          1           0        0.561401    2.110121   -0.921942
     13          1           0        1.912331    0.992865   -1.137946
     14          1           0        0.724945    1.201096   -2.419328
     15          1           0        1.816012    1.159695    1.137946
     16          1           0        1.402652    0.027273    2.419328
     17          1           0        2.108119   -0.568873    0.921942
     18          1           0       -1.546718   -1.541248    0.921942
     19          1           0        0.096319   -2.152560    1.137946
     20          1           0       -0.677707   -1.228369    2.419328
     21          1           0       -1.816012    1.159695   -1.137946
     22          1           0       -1.402652    0.027273   -2.419328
     23          1           0       -2.108119   -0.568873   -0.921942
     24          1           0        1.546718   -1.541248   -0.921942
     25          1           0       -0.096319   -2.152560   -1.137946
     26          1           0        0.677707   -1.228369   -2.419328
 ---------------------------------------------------------------------
 Rotational constants (GHZ):           2.3441845           1.6869303           1.6869303
 Leave Link  202 at Sat Apr 17 21:17:19 2021, MaxMem=   104857600 cpu:              11.0 elap:               0.3
 (Enter /s/ls4/users/knvvv/bin/g16sse/l301.exe)
 General basis read from cards:  (5D, 7F)
 Centers:       9     10     11     12     13     14     15     16     17     18
 Centers:      19     20     21     22     23     24     25     26
 S 4 1.00
     Exponent=  1.9069169000D+02 Coefficients=  7.0815167000D-04
     Exponent=  2.8605532000D+01 Coefficients=  5.4678827000D-03
     Exponent=  6.5095943000D+00 Coefficients=  2.7966605000D-02
     Exponent=  1.8412455000D+00 Coefficients=  1.0764538000D-01
 S 1 1.00
     Exponent=  5.9853725000D-01 Coefficients=  1.0000000000D+00
 S 1 1.00
     Exponent=  2.1397624000D-01 Coefficients=  1.0000000000D+00
 S 1 1.00
     Exponent=  8.0316286000D-02 Coefficients=  1.0000000000D+00
 P 1 1.00
     Exponent=  2.2920000000D+00 Coefficients=  1.0000000000D+00
 P 1 1.00
     Exponent=  8.3800000000D-01 Coefficients=  1.0000000000D+00
 P 1 1.00
     Exponent=  2.9200000000D-01 Coefficients=  1.0000000000D+00
 P 1 1.00
     Exponent=  8.4063199228D-02 Coefficients=  1.0000000000D+00
 D 1 1.00
     Exponent=  2.0620000000D+00 Coefficients=  1.0000000000D+00
 D 1 1.00
     Exponent=  6.6200000000D-01 Coefficients=  1.0000000000D+00
 F 1 1.00
     Exponent=  1.3970000000D+00 Coefficients=  1.0000000000D+00
 ****
 Centers:       1      2      3      4      5      6      7      8
 S 8 1.00
     Exponent=  6.7025071029D+04 Coefficients=  3.8736308501D-05
     Exponent=  1.0039986538D+04 Coefficients=  3.0107917575D-04
     Exponent=  2.2849316911D+03 Coefficients=  1.5787918095D-03
     Exponent=  6.4714122130D+02 Coefficients=  6.6087087195D-03
     Exponent=  2.1109472335D+02 Coefficients=  2.3367123250D-02
     Exponent=  7.6177643862D+01 Coefficients=  7.0420716898D-02
     Exponent=  2.9633839163D+01 Coefficients=  1.7360344953D-01
     Exponent=  1.2187785081D+01 Coefficients=  3.2292305648D-01
 S 2 1.00
     Exponent=  5.3026006299D+01 Coefficients=  7.4897404492D-02
     Exponent=  1.5258502776D+01 Coefficients=  7.6136220983D-01
 S 1 1.00
     Exponent=  5.2403957464D+00 Coefficients=  1.0000000000D+00
 S 1 1.00
     Exponent=  2.2905022379D+00 Coefficients=  1.0000000000D+00
 S 1 1.00
     Exponent=  6.9673283006D-01 Coefficients=  1.0000000000D+00
 S 1 1.00
     Exponent=  2.7599337363D-01 Coefficients=  1.0000000000D+00
 S 1 1.00
     Exponent=  1.0739884389D-01 Coefficients=  1.0000000000D+00
 S 1 1.00
     Exponent=  4.4981404899D-02 Coefficients=  1.0000000000D+00
 P 5 1.00
     Exponent=  1.0512555082D+02 Coefficients=  8.4647553844D-04
     Exponent=  2.4884461066D+01 Coefficients=  6.6274038534D-03
     Exponent=  7.8637230826D+00 Coefficients=  3.0120390419D-02
     Exponent=  2.8407001835D+00 Coefficients=  9.9951435476D-02
     Exponent=  1.1227137335D+00 Coefficients=  2.3826299282D-01
 P 1 1.00
     Exponent=  4.6050725555D-01 Coefficients=  1.0000000000D+00
 P 1 1.00
     Exponent=  1.8937530913D-01 Coefficients=  1.0000000000D+00
 P 1 1.00
     Exponent=  7.5983791611D-02 Coefficients=  1.0000000000D+00
 D 1 1.00
     Exponent=  1.8480000000D+00 Coefficients=  1.0000000000D+00
 D 1 1.00
     Exponent=  6.4900000000D-01 Coefficients=  1.0000000000D+00
 D 1 1.00
     Exponent=  2.2800000000D-01 Coefficients=  1.0000000000D+00
 D 1 1.00
     Exponent=  7.6889830417D-02 Coefficients=  1.0000000000D+00
 F 1 1.00
     Exponent=  1.4190000000D+00 Coefficients=  1.0000000000D+00
 F 1 1.00
     Exponent=  4.8500000000D-01 Coefficients=  1.0000000000D+00
 G 1 1.00
     Exponent=  1.0110000000D+00 Coefficients=  1.0000000000D+00
 ****
 Ernie: Thresh=  0.10000D-02 Tol=  0.10000D-05 Strict=F.
 There are   658 symmetry adapted cartesian basis functions of A   symmetry.
 There are   658 symmetry adapted cartesian basis functions of B   symmetry.
 There are   549 symmetry adapted basis functions of A   symmetry.
 There are   549 symmetry adapted basis functions of B   symmetry.
  1098 basis functions,  1530 primitive gaussians,  1316 cartesian basis functions
    33 alpha electrons       33 beta electrons
       nuclear repulsion energy       440.0727536059 Hartrees.
 IExCor= 4336 DFT=T Ex+Corr=M062X ExCW=0 ScaHFX=  0.540000
 ScaDFX=  1.000000  1.000000  1.000000  1.000000 ScalE2=  1.000000  1.000000
 IRadAn=      5 IRanWt=     -1 IRanGd=            0 ICorTp=0 IEmpDi=  4
 NAtoms=   26 NActive=   26 NUniq=    5 SFac= 4.00D+00 NAtFMM=   60 NAOKFM=F Big=F
 Integral buffers will be    131072 words long.
 Raffenetti 2 integral format.
 Two-electron integral symmetry is turned on.
 Leave Link  301 at Sat Apr 17 21:17:19 2021, MaxMem=   104857600 cpu:               5.8 elap:               0.1
 (Enter /s/ls4/users/knvvv/bin/g16sse/l302.exe)
 NPDir=0 NMtPBC=     1 NCelOv=     1 NCel=       1 NClECP=     1 NCelD=      1
         NCelK=      1 NCelE2=     1 NClLst=     1 CellRange=     0.0.
 One-electron integrals computed using PRISM.
 One-electron integral symmetry used in STVInt
 PrsmSu:  requested number of processors reduced to:   3 ShMem   1 Linda.
 PrsmSu:  requested number of processors reduced to:  15 ShMem   1 Linda.
 NBasis=  1098 RedAO= T EigKep=  1.03D-06  NBF=   549   549
 NBsUse=  1079 1.00D-06 EigRej=  7.88D-07 NBFU=   540   539
 Precomputing XC quadrature grid using
 IXCGrd= 4 IRadAn=           5 IRanWt=          -1 IRanGd=           0 AccXCQ= 0.00D+00.
 Generated NRdTot=       0 NPtTot=           0 NUsed=           0 NTot=          32
 NSgBfM=  1313  1313  1313  1313  1313 MxSgAt=    26 MxSgA2=    26.
 Leave Link  302 at Sat Apr 17 21:18:24 2021, MaxMem=   104857600 cpu:            3024.7 elap:              64.5
 (Enter /s/ls4/users/knvvv/bin/g16sse/l303.exe)
 DipDrv:  MaxL=1.
 Leave Link  303 at Sat Apr 17 21:18:34 2021, MaxMem=   104857600 cpu:             503.7 elap:              10.8
 (Enter /s/ls4/users/knvvv/bin/g16sse/l401.exe)
 SCF N**3 symmetry information disabled.
 ExpMin= 4.50D-02 ExpMax= 6.70D+04 ExpMxC= 6.47D+02 IAcc=3 IRadAn=         5 AccDes= 0.00D+00
 Harris functional with IExCor= 1009 and IRadAn=       5 diagonalized for initial guess.
 HarFok:  IExCor= 1009 AccDes= 0.00D+00 IRadAn=         5 IDoV= 1 UseB2=F ITyADJ=14
 ICtDFT=  3500011 ScaDFX=  1.000000  1.000000  1.000000  1.000000
 CalDSu:  requested number of processors reduced to:  34 ShMem   1 Linda.
 FoFCou: FMM=F IPFlag=           0 FMFlag=      100000 FMFlg1=           0
         NFxFlg=           0 DoJE=T BraDBF=F KetDBF=T FulRan=T
         wScrn=  0.000000 ICntrl=       500 IOpCl=  0 I1Cent=   200000004 NGrid=           0
         NMat0=    1 NMatS0=      1 NMatT0=    0 NMatD0=    1 NMtDS0=    0 NMtDT0=    0
 Petite list used in FoFCou.
 CoulSu:  requested number of processors reduced to:  12 ShMem   1 Linda.
 CoulSu:  requested number of processors reduced to:  13 ShMem   1 Linda.
 CoulSu:  requested number of processors reduced to:  20 ShMem   1 Linda.
 CoulSu:  requested number of processors reduced to:  20 ShMem   1 Linda.
 DSYEVD-2 returned Info=      584279 IAlg= 4 N=  1079 NDim=  1079 NE2=       93962 trying  DSYEV.
 Harris En= -315.684627863449    
 JPrj=0 DoOrth=F DoCkMO=F.
 Initial guess orbital symmetries:
       Occupied  (A1) (A2) (E) (E) (E) (E) (A1) (A2) (A1) (A2)
                 (E) (E) (E) (E) (A1) (A2) (A1) (E) (E) (E) (E)
                 (A2) (E) (E) (A1) (E) (E) (A2) (E) (E) (E) (E)
                 (A1)
       Virtual   (A1) (A2) (E) (E) (A1) (E) (E) (A2) (E) (E) (A1)
                 (E) (E) (A2) (E) (E) (A2) (A1) (E) (E) (E) (E)
                 (E) (E) (A1) (E) (E) (E) (E) (A1) (A2) (E) (E)
                 (A2) (A2) (E) (E) (A1) (A1) (E) (E) (A2) (E) (E)
                 (A1) (E) (E) (E) (E) (A2) (E) (E) (A1) (A2) (E)
                 (E) (E) (E) (A1) (E) (E) (A1) (A2) (E) (E) (A2)
                 (E) (E) (E) (E) (E) (E) (A1) (A2) (E) (E) (E)
                 (E) (A2) (E) (E) (A1) (E) (E) (A1) (E) (E) (A2)
                 (A1) (A1) (A2) (E) (E) (A2) (E) (E) (E) (E) (A1)
                 (E) (E) (A1) (E) (E) (A2) (E) (E) (A1) (A2) (A2)
                 (E) (E) (A2) (A1) (E) (E) (A2) (A1) (E) (E) (E)
                 (E) (E) (E) (A2) (E) (E) (A1) (E) (E) (E) (E)
                 (E) (E) (E) (E) (A1) (A2) (E) (E) (E) (E) (A1)
                 (E) (E) (A2) (A1) (E) (E) (A2) (E) (E) (A1) (E)
                 (E) (A2) (A1) (E) (E) (A2) (A1) (E) (E) (E) (E)
                 (E) (E) (A2) (A2) (E) (E) (A1) (E) (E) (E) (E)
                 (A1) (A2) (E) (E) (A1) (E) (E) (A2) (A1) (E) (E)
                 (A2) (E) (E) (E) (E) (A1) (E) (E) (E) (E) (A1)
                 (A2) (E) (E) (A2) (E) (E) (E) (E) (A1) (A2) (E)
                 (E) (A2) (E) (E) (A1) (E) (E) (E) (E) (A1) (A2)
                 (E) (E) (A1) (E) (E) (E) (E) (A1) (E) (E) (A1)
                 (E) (E) (A2) (E) (E) (A2) (E) (E) (A1) (E) (E)
                 (E) (E) (A1) (A2) (A2) (E) (E) (E) (E) (A2) (A1)
                 (E) (E) (A1) (E) (E) (E) (E) (A2) (E) (E) (A2)
                 (A1) (E) (E) (E) (E) (A1) (E) (E) (A2) (E) (E)
                 (E) (E) (A2) (A2) (E) (E) (A1) (A1) (E) (E) (A2)
                 (E) (E) (E) (E) (A2) (A1) (E) (E) (E) (E) (A2)
                 (E) (E) (A1) (A1) (E) (E) (A2) (E) (E) (E) (E)
                 (A1) (E) (E) (A2) (A1) (E) (E) (A2) (A1) (A2)
                 (E) (E) (E) (E) (A2) (A1) (E) (E) (A1) (A2) (E)
                 (E) (E) (E) (A1) (E) (E) (E) (E) (A1) (A2) (E)
                 (E) (A1) (A2) (E) (E) (E) (E) (E) (E) (E) (E)
                 (A2) (E) (E) (A1) (E) (E) (A1) (A2) (E) (E) (A2)
                 (A1) (E) (E) (E) (E) (A1) (E) (E) (A2) (A1) (E)
                 (E) (A2) (E) (E) (A1) (E) (E) (E) (E) (A2) (E)
                 (E) (E) (E) (A1) (E) (E) (A2) (E) (E) (E) (E)
                 (A1) (E) (E) (A1) (A2) (A2) (E) (E) (E) (E) (A1)
                 (A2) (E) (E) (E) (E) (A1) (E) (E) (A2) (E) (E)
                 (E) (E) (E) (E) (E) (E) (A1) (A2) (A1) (E) (E)
                 (E) (E) (A1) (A2) (E) (E) (A2) (E) (E) (E) (E)
                 (A2) (A1) (E) (E) (A1) (E) (E) (A2) (E) (E) (A1)
                 (E) (E) (E) (E) (A2) (A1) (E) (E) (A2) (A1) (E)
                 (E) (E) (E) (A2) (E) (E) (A2) (E) (E) (A1) (A2)
                 (A1) (E) (E) (A1) (A2) (E) (E) (E) (E) (A2) (A1)
                 (E) (E) (A1) (E) (E) (E) (E) (E) (E) (A2) (A1)
                 (E) (E) (A2) (E) (E) (E) (E) (E) (E) (A1) (A2)
                 (E) (E) (A2) (E) (E) (A1) (A2) (E) (E) (A1) (A2)
                 (E) (E) (E) (E) (A1) (E) (E) (A1) (A2) (E) (E)
                 (E) (E) (A2) (E) (E) (A1) (E) (E) (A2) (A1) (E)
                 (E) (A2) (E) (E) (E) (E) (A1) (E) (E) (A1) (E)
                 (E) (E) (E) (E) (E) (A2) (A2) (E) (E) (A2) (A1)
                 (E) (E) (A1) (A2) (E) (E) (A1) (E) (E) (A2) (E)
                 (E) (E) (E) (A1) (E) (E) (E) (E) (A1) (A1) (A2)
                 (E) (E) (A2) (E) (E) (E) (E) (A2) (A1) (E) (E)
                 (A1) (A2) (E) (E) (E) (E) (A2) (E) (E) (E) (E)
                 (E) (E) (A2) (A1) (E) (E) (A2) (A1) (E) (E) (A1)
                 (E) (E) (E) (E) (E) (E) (E) (E) (A1) (A2) (A1)
                 (E) (E) (A2) (A2) (E) (E) (E) (E) (E) (E) (A1)
                 (E) (E) (A2) (A1) (E) (E) (E) (E) (A2) (A1) (A2)
                 (E) (E) (A2) (A1) (E) (E) (A1) (E) (E) (A1) (A2)
                 (E) (E) (E) (E) (E) (E) (A1) (A2) (E) (E) (A1)
                 (E) (E) (E) (E) (A2) (A1) (E) (E) (E) (E) (E)
                 (E) (A2) (A1) (E) (E) (A2) (E) (E) (E) (E) (A1)
                 (E) (E) (E) (E) (A2) (A2) (A1) (E) (E) (A2) (E)
                 (E) (E) (E) (E) (E) (A1) (A1) (A2) (E) (E) (E)
                 (E) (A2) (E) (E) (A1) (E) (E) (A2) (E) (E) (E)
                 (E) (A1) (A2) (E) (E) (E) (E) (A1) (E) (E) (E)
                 (E) (A2) (A1) (A1) (A2) (A1) (E) (E) (A2) (E)
                 (E) (A1) (A2) (E) (E) (E) (E) (A2) (E) (E) (E)
                 (E) (A1) (E) (E) (E) (E) (E) (E) (A1) (A2) (E)
                 (E) (A2) (E) (E) (E) (E) (A1) (A2) (E) (E) (A2)
                 (A1) (A1) (E) (E) (A2) (E) (E) (E) (E) (A1) (E)
                 (E) (E) (E) (E) (E) (A2) (A2) (E) (E) (A1) (E)
                 (E) (E) (E) (A2) (E) (E) (A1) (A1) (E) (E) (A2)
                 (E) (E) (E) (E) (A1) (E) (E) (A1) (A2) (E) (E)
                 (E) (E) (E) (E) (A2) (A1) (E) (E) (A2) (A1) (E)
                 (E) (A2) (E) (E) (A1) (E) (E) (A2) (A1) (E) (E)
                 (E) (E) (A1) (E) (E) (E) (E) (A1) (E) (E) (A2)
                 (A2) (E) (E) (A1) (E) (E) (E) (E) (A1) (E) (E)
                 (E) (E) (A2) (A1) (A2) (E) (E) (A2) (E) (E) (A2)
                 (E) (E) (A1) (E) (E) (A1) (E) (E) (E) (E) (A2)
                 (E) (E) (A1) (A2) (E) (E) (A1) (E) (E) (A2) (E)
                 (E) (A1) (E) (E) (E) (E) (A2) (E) (E) (A2) (A1)
                 (E) (E) (A1) (E) (E) (A2) (E) (E) (E) (E) (A1)
                 (A2) (A1) (E) (E) (A2) (A1) (E) (E) (A2) (E) (E)
                 (E) (E) (E) (E) (A2) (E) (E) (A1) (A2) (A1) (E)
                 (E) (A2) (E) (E) (E) (E) (A1) (A2) (E) (E) (E)
                 (E) (E) (E) (A1) (E) (E) (A2) (E) (E) (A1) (E)
                 (E) (A2) (E) (E) (E) (E) (E) (E) (A1) (E) (E)
                 (A2) (A1) (E) (E) (A2) (A1) (E) (E) (A2) (E) (E)
                 (A2) (A1) (E) (E) (A2) (E) (E) (A1) (E) (E) (A1)
                 (E) (E) (A2) (E) (E) (A2) (A1) (E) (E) (E) (E)
                 (A1) (A2) (A1) (E) (E) (A2) (E) (E) (E) (E) (E)
                 (E) (A1) (A2) (A2) (E) (E) (A1) (E) (E) (A1) (A2)
                 (A1) (E) (E) (E) (E) (A2) (A1) (A2) (E) (E) (A1)
                 (E) (E) (A2)
 The electronic state of the initial guess is 1-A1.
 Leave Link  401 at Sat Apr 17 21:19:30 2021, MaxMem=   104857600 cpu:            2574.7 elap:              55.7
 (Enter /s/ls4/users/knvvv/bin/g16sse/l502.exe)
 Integral symmetry usage will be decided dynamically.
 Closed shell SCF:
 Using DIIS extrapolation, IDIIS=  1040.
 NGot=   104857600 LenX=   101316234 LenY=    99583062
 Requested convergence on RMS density matrix=1.00D-08 within 128 cycles.
 Requested convergence on MAX density matrix=1.00D-06.
 Requested convergence on             energy=1.00D-06.
 No special actions if energy rises.
 Fock matrices will be formed incrementally for  20 cycles.

 Cycle   1  Pass 1  IDiag  1:
 FoFJK:  IHMeth= 1 ICntrl=       0 DoSepK=F KAlg= 0 I1Cent=           0 FoldK=F
 IRaf= 940000000 NMat=       1 IRICut=       1 DoRegI=T DoRafI=F ISym2E= 1 IDoP0=0 IntGTp=1.
 FoFCou: FMM=F IPFlag=           0 FMFlag=      100000 FMFlg1=           0
         NFxFlg=           0 DoJE=F BraDBF=F KetDBF=F FulRan=T
         wScrn=  0.000000 ICntrl=         0 IOpCl=  0 I1Cent=           0 NGrid=           0
         NMat0=    1 NMatS0=      1 NMatT0=    0 NMatD0=    1 NMtDS0=    0 NMtDT0=    0
 Petite list used in FoFCou.
 CoulSu:  requested number of processors reduced to:  15 ShMem   1 Linda.
 CalDSu:  requested number of processors reduced to:  34 ShMem   1 Linda.
 E= -315.252668078345    
 DIIS: error= 3.16D-02 at cycle   1 NSaved=   1.
 NSaved= 1 IEnMin= 1 EnMin= -315.252668078345     IErMin= 1 ErrMin= 3.16D-02
 ErrMax= 3.16D-02  0.00D+00 EMaxC= 1.00D-01 BMatC= 5.80D-01 BMatP= 5.80D-01
 IDIUse=3 WtCom= 6.84D-01 WtEn= 3.16D-01
 Coeff-Com:  0.100D+01
 Coeff-En:   0.100D+01
 Coeff:      0.100D+01
 Gap=     0.290 Goal=   None    Shift=    0.000
 GapD=    0.290 DampG=1.000 DampE=0.500 DampFc=0.5000 IDamp=-1.
 Damping current iteration by 5.00D-01
 RMSDP=2.46D-03 MaxDP=5.01D-01              OVMax= 1.70D-01

 Cycle   2  Pass 1  IDiag  1:
 RMSU=  1.17D-03    CP:  8.69D-01
 CoulSu:  requested number of processors reduced to:  15 ShMem   1 Linda.
 CalDSu:  requested number of processors reduced to:  34 ShMem   1 Linda.
 E= -315.469131160382     Delta-E=       -0.216463082037 Rises=F Damp=T
 DIIS: error= 1.46D-02 at cycle   2 NSaved=   2.
 NSaved= 2 IEnMin= 2 EnMin= -315.469131160382     IErMin= 2 ErrMin= 1.46D-02
 ErrMax= 1.46D-02  0.00D+00 EMaxC= 1.00D-01 BMatC= 5.46D-02 BMatP= 5.80D-01
 IDIUse=3 WtCom= 8.54D-01 WtEn= 1.46D-01
 Coeff-Com: -0.132D+00 0.113D+01
 Coeff-En:   0.000D+00 0.100D+01
 Coeff:     -0.112D+00 0.111D+01
 Gap=     0.394 Goal=   None    Shift=    0.000
 DSYEVD-2 returned Info=      584279 IAlg= 4 N=  1079 NDim=  1079 NE2=       92290 trying  DSYEV.
 RMSDP=1.59D-03 MaxDP=1.65D-01 DE=-2.16D-01 OVMax= 1.04D-01

 Cycle   3  Pass 1  IDiag  1:
 RMSU=  1.49D-03    CP:  7.07D-01  1.24D+00
 CoulSu:  requested number of processors reduced to:  15 ShMem   1 Linda.
 CalDSu:  requested number of processors reduced to:  34 ShMem   1 Linda.
 E= -315.676225632360     Delta-E=       -0.207094471979 Rises=F Damp=F
 DIIS: error= 6.80D-03 at cycle   3 NSaved=   3.
 NSaved= 3 IEnMin= 3 EnMin= -315.676225632360     IErMin= 3 ErrMin= 6.80D-03
 ErrMax= 6.80D-03  0.00D+00 EMaxC= 1.00D-01 BMatC= 8.80D-03 BMatP= 5.46D-02
 IDIUse=3 WtCom= 9.32D-01 WtEn= 6.80D-02
 Coeff-Com: -0.898D-01 0.298D+00 0.792D+00
 Coeff-En:   0.000D+00 0.000D+00 0.100D+01
 Coeff:     -0.837D-01 0.278D+00 0.806D+00
 Gap=     0.346 Goal=   None    Shift=    0.000
 RMSDP=3.21D-04 MaxDP=4.19D-02 DE=-2.07D-01 OVMax= 2.39D-02

 Cycle   4  Pass 1  IDiag  1:
 RMSU=  2.43D-04    CP:  6.74D-01  1.22D+00  8.75D-01
 CoulSu:  requested number of processors reduced to:  15 ShMem   1 Linda.
 CalDSu:  requested number of processors reduced to:  34 ShMem   1 Linda.
 E= -315.682657151627     Delta-E=       -0.006431519267 Rises=F Damp=F
 DIIS: error= 4.06D-03 at cycle   4 NSaved=   4.
 NSaved= 4 IEnMin= 4 EnMin= -315.682657151627     IErMin= 4 ErrMin= 4.06D-03
 ErrMax= 4.06D-03  0.00D+00 EMaxC= 1.00D-01 BMatC= 2.67D-03 BMatP= 8.80D-03
 IDIUse=3 WtCom= 9.59D-01 WtEn= 4.06D-02
 Coeff-Com: -0.328D-01 0.787D-01 0.402D+00 0.552D+00
 Coeff-En:   0.000D+00 0.000D+00 0.185D+00 0.815D+00
 Coeff:     -0.315D-01 0.755D-01 0.393D+00 0.563D+00
 Gap=     0.360 Goal=   None    Shift=    0.000
 RMSDP=8.00D-05 MaxDP=1.15D-02 DE=-6.43D-03 OVMax= 1.00D-02

 Cycle   5  Pass 1  IDiag  1:
 RMSU=  6.96D-05    CP:  6.72D-01  1.21D+00  8.56D-01  1.08D+00
 CoulSu:  requested number of processors reduced to:  15 ShMem   1 Linda.
 CalDSu:  requested number of processors reduced to:  34 ShMem   1 Linda.
 E= -315.685110637136     Delta-E=       -0.002453485509 Rises=F Damp=F
 DIIS: error= 2.80D-04 at cycle   5 NSaved=   5.
 NSaved= 5 IEnMin= 5 EnMin= -315.685110637136     IErMin= 5 ErrMin= 2.80D-04
 ErrMax= 2.80D-04  0.00D+00 EMaxC= 1.00D-01 BMatC= 2.98D-05 BMatP= 2.67D-03
 IDIUse=3 WtCom= 9.97D-01 WtEn= 2.80D-03
 Coeff-Com:  0.150D-03-0.128D-03 0.372D-01 0.124D+00 0.839D+00
 Coeff-En:   0.000D+00 0.000D+00 0.000D+00 0.000D+00 0.100D+01
 Coeff:      0.149D-03-0.128D-03 0.371D-01 0.124D+00 0.839D+00
 Gap=     0.359 Goal=   None    Shift=    0.000
 DSYEVD-2 returned Info=        2159 IAlg= 4 N=  1079 NDim=  1079 NE2=       92290 trying  DSYEV.
 RMSDP=3.87D-05 MaxDP=8.15D-03 DE=-2.45D-03 OVMax= 8.51D-04

 Cycle   6  Pass 1  IDiag  1:
 RMSU=  1.75D-05    CP:  6.70D-01  1.21D+00  8.39D-01  1.17D+00  1.13D+00
 CoulSu:  requested number of processors reduced to:  15 ShMem   1 Linda.
 CalDSu:  requested number of processors reduced to:  34 ShMem   1 Linda.
 E= -315.685135269508     Delta-E=       -0.000024632373 Rises=F Damp=F
 DIIS: error= 5.26D-05 at cycle   6 NSaved=   6.
 NSaved= 6 IEnMin= 6 EnMin= -315.685135269508     IErMin= 6 ErrMin= 5.26D-05
 ErrMax= 5.26D-05  0.00D+00 EMaxC= 1.00D-01 BMatC= 4.52D-07 BMatP= 2.98D-05
 IDIUse=1 WtCom= 1.00D+00 WtEn= 0.00D+00
 Coeff-Com:  0.168D-02-0.390D-02-0.137D-01-0.897D-02 0.763D-01 0.949D+00
 Coeff:      0.168D-02-0.390D-02-0.137D-01-0.897D-02 0.763D-01 0.949D+00
 Gap=     0.359 Goal=   None    Shift=    0.000
 RMSDP=6.65D-06 MaxDP=1.57D-03 DE=-2.46D-05 OVMax= 1.78D-04

 Cycle   7  Pass 1  IDiag  1:
 RMSU=  3.08D-06    CP:  6.70D-01  1.21D+00  8.38D-01  1.18D+00  1.13D+00
                    CP:  1.15D+00
 CoulSu:  requested number of processors reduced to:  15 ShMem   1 Linda.
 CalDSu:  requested number of processors reduced to:  34 ShMem   1 Linda.
 E= -315.685135716154     Delta-E=       -0.000000446646 Rises=F Damp=F
 DIIS: error= 1.10D-05 at cycle   7 NSaved=   7.
 NSaved= 7 IEnMin= 7 EnMin= -315.685135716154     IErMin= 7 ErrMin= 1.10D-05
 ErrMax= 1.10D-05  0.00D+00 EMaxC= 1.00D-01 BMatC= 3.10D-08 BMatP= 4.52D-07
 IDIUse=1 WtCom= 1.00D+00 WtEn= 0.00D+00
 Coeff-Com:  0.215D-03-0.606D-03-0.296D-02-0.427D-02-0.764D-02 0.174D+00
 Coeff-Com:  0.841D+00
 Coeff:      0.215D-03-0.606D-03-0.296D-02-0.427D-02-0.764D-02 0.174D+00
 Coeff:      0.841D+00
 Gap=     0.359 Goal=   None    Shift=    0.000
 DSYEVD-2 returned Info=      584279 IAlg= 4 N=  1079 NDim=  1079 NE2=       92290 trying  DSYEV.
 RMSDP=1.14D-06 MaxDP=2.40D-04 DE=-4.47D-07 OVMax= 4.24D-05

 Cycle   8  Pass 1  IDiag  1:
 RMSU=  8.31D-07    CP:  6.70D-01  1.21D+00  8.38D-01  1.18D+00  1.12D+00
                    CP:  1.17D+00  1.08D+00
 CoulSu:  requested number of processors reduced to:  15 ShMem   1 Linda.
 CalDSu:  requested number of processors reduced to:  34 ShMem   1 Linda.
 E= -315.685135745638     Delta-E=       -0.000000029484 Rises=F Damp=F
 DIIS: error= 3.42D-06 at cycle   8 NSaved=   8.
 NSaved= 8 IEnMin= 8 EnMin= -315.685135745638     IErMin= 8 ErrMin= 3.42D-06
 ErrMax= 3.42D-06  0.00D+00 EMaxC= 1.00D-01 BMatC= 2.48D-09 BMatP= 3.10D-08
 IDIUse=1 WtCom= 1.00D+00 WtEn= 0.00D+00
 Coeff-Com: -0.129D-03 0.260D-03 0.732D-03 0.932D-04-0.698D-02-0.562D-01
 Coeff-Com:  0.148D+00 0.914D+00
 Coeff:     -0.129D-03 0.260D-03 0.732D-03 0.932D-04-0.698D-02-0.562D-01
 Coeff:      0.148D+00 0.914D+00
 Gap=     0.359 Goal=   None    Shift=    0.000
 DSYEVD-2 returned Info=        2159 IAlg= 4 N=  1079 NDim=  1079 NE2=       92290 trying  DSYEV.
 RMSDP=3.65D-07 MaxDP=5.78D-05 DE=-2.95D-08 OVMax= 1.12D-05

 Cycle   9  Pass 1  IDiag  1:
 RMSU=  1.87D-07    CP:  6.70D-01  1.21D+00  8.38D-01  1.18D+00  1.12D+00
                    CP:  1.17D+00  1.16D+00  1.15D+00
 CoulSu:  requested number of processors reduced to:  15 ShMem   1 Linda.
 CalDSu:  requested number of processors reduced to:  34 ShMem   1 Linda.
 E= -315.685135748389     Delta-E=       -0.000000002750 Rises=F Damp=F
 DIIS: error= 2.43D-07 at cycle   9 NSaved=   9.
 NSaved= 9 IEnMin= 9 EnMin= -315.685135748389     IErMin= 9 ErrMin= 2.43D-07
 ErrMax= 2.43D-07  0.00D+00 EMaxC= 1.00D-01 BMatC= 2.01D-11 BMatP= 2.48D-09
 IDIUse=1 WtCom= 1.00D+00 WtEn= 0.00D+00
 Coeff-Com: -0.866D-05 0.252D-04 0.210D-04-0.755D-04-0.967D-03-0.559D-02
 Coeff-Com:  0.265D-02 0.740D-01 0.930D+00
 Coeff:     -0.866D-05 0.252D-04 0.210D-04-0.755D-04-0.967D-03-0.559D-02
 Coeff:      0.265D-02 0.740D-01 0.930D+00
 Gap=     0.359 Goal=   None    Shift=    0.000
 RMSDP=1.02D-07 MaxDP=2.54D-05 DE=-2.75D-09 OVMax= 1.04D-06

 Cycle  10  Pass 1  IDiag  1:
 RMSU=  3.06D-08    CP:  6.70D-01  1.21D+00  8.38D-01  1.18D+00  1.12D+00
                    CP:  1.17D+00  1.16D+00  1.13D+00  8.85D-01
 CoulSu:  requested number of processors reduced to:  15 ShMem   1 Linda.
 CalDSu:  requested number of processors reduced to:  34 ShMem   1 Linda.
 E= -315.685135748387     Delta-E=        0.000000000002 Rises=F Damp=F
 DIIS: error= 2.63D-08 at cycle  10 NSaved=  10.
 NSaved=10 IEnMin= 9 EnMin= -315.685135748389     IErMin=10 ErrMin= 2.63D-08
 ErrMax= 2.63D-08  0.00D+00 EMaxC= 1.00D-01 BMatC= 2.87D-13 BMatP= 2.01D-11
 IDIUse=1 WtCom= 1.00D+00 WtEn= 0.00D+00
 Coeff-Com:  0.670D-06-0.851D-06-0.414D-05-0.308D-05 0.368D-04 0.566D-03
 Coeff-Com: -0.107D-02-0.130D-01-0.446D-01 0.106D+01
 Coeff:      0.670D-06-0.851D-06-0.414D-05-0.308D-05 0.368D-04 0.566D-03
 Coeff:     -0.107D-02-0.130D-01-0.446D-01 0.106D+01
 Gap=     0.359 Goal=   None    Shift=    0.000
 DSYEVD-2 returned Info=        2159 IAlg= 4 N=  1079 NDim=  1079 NE2=       92290 trying  DSYEV.
 RMSDP=7.42D-09 MaxDP=2.29D-06 DE= 1.71D-12 OVMax= 2.17D-07

 Cycle  11  Pass 1  IDiag  1:
 RMSU=  1.96D-09    CP:  6.70D-01  1.21D+00  8.38D-01  1.18D+00  1.12D+00
                    CP:  1.17D+00  1.16D+00  1.12D+00  8.78D-01  1.11D+00
 CoulSu:  requested number of processors reduced to:  15 ShMem   1 Linda.
 CalDSu:  requested number of processors reduced to:  34 ShMem   1 Linda.
 E= -315.685135748395     Delta-E=       -0.000000000008 Rises=F Damp=F
 DIIS: error= 6.96D-09 at cycle  11 NSaved=  11.
 NSaved=11 IEnMin=11 EnMin= -315.685135748395     IErMin=11 ErrMin= 6.96D-09
 ErrMax= 6.96D-09  0.00D+00 EMaxC= 1.00D-01 BMatC= 7.24D-15 BMatP= 2.87D-13
 IDIUse=1 WtCom= 1.00D+00 WtEn= 0.00D+00
 Coeff-Com:  0.976D-07-0.265D-06 0.626D-08 0.803D-06 0.176D-04 0.742D-04
 Coeff-Com: -0.171D-03-0.105D-02-0.118D-01 0.244D-01 0.988D+00
 Coeff:      0.976D-07-0.265D-06 0.626D-08 0.803D-06 0.176D-04 0.742D-04
 Coeff:     -0.171D-03-0.105D-02-0.118D-01 0.244D-01 0.988D+00
 Gap=     0.359 Goal=   None    Shift=    0.000
 RMSDP=8.45D-10 MaxDP=1.90D-07 DE=-7.73D-12 OVMax= 3.76D-08

 SCF Done:  E(RM062X) =  -315.685135748     A.U. after   11 cycles
            NFock= 11  Conv=0.84D-09     -V/T= 2.0047
 KE= 3.141964134599D+02 PE=-1.610030274879D+03 EE= 5.400759720644D+02
 Leave Link  502 at Sat Apr 17 21:44:40 2021, MaxMem=   104857600 cpu:           54410.1 elap:            1510.0
 (Enter /s/ls4/users/knvvv/bin/g16sse/l601.exe)
 Copying SCF densities to generalized density rwf, IOpCl= 0 IROHF=0.

 **********************************************************************

            Population analysis using the SCF density.

 **********************************************************************

 Orbital symmetries:
       Occupied  (A1) (A2) (E) (E) (E) (E) (A2) (A1) (A1) (A2)
                 (E) (E) (E) (E) (A1) (A2) (A1) (E) (E) (E) (E)
                 (A2) (E) (E) (A1) (E) (E) (A2) (E) (E) (E) (E)
                 (A1)
       Virtual   (A1) (A2) (E) (E) (E) (E) (A1) (E) (E) (A2) (A1)
                 (A2) (E) (E) (E) (E) (A1) (E) (E) (E) (E) (A1)
                 (A2) (E) (E) (E) (E) (A1) (A2) (A1) (A2) (E) (E)
                 (E) (E) (A2) (E) (E) (A1) (E) (E) (A2) (A1) (E)
                 (E) (E) (E) (A2) (E) (E) (E) (E) (E) (E) (A2)
                 (A1) (E) (E) (E) (E) (A2) (A1) (E) (E) (A1) (E)
                 (E) (E) (E) (E) (E) (A1) (E) (E) (A2) (A1) (A2)
                 (A1) (A2) (E) (E) (E) (E) (A2) (E) (E) (E) (E)
                 (A1) (E) (E) (A1) (E) (E) (A2) (A1) (E) (E) (A2)
                 (A2) (E) (E) (E) (E) (A1) (A2) (E) (E) (A1) (E)
                 (E) (E) (E) (A2) (E) (E) (A1) (A2) (E) (E) (E)
                 (E) (E) (E) (A2) (E) (E) (A2) (A1) (E) (E) (A1)
                 (E) (E) (E) (E) (A2) (A1) (E) (E) (A1) (E) (E)
                 (A2) (E) (E) (E) (E) (A1) (A2) (E) (E) (A1) (A2)
                 (E) (E) (A1) (E) (E) (A2) (E) (E) (A1) (E) (E)
                 (A2) (E) (E) (A2) (E) (E) (A1) (E) (E) (E) (E)
                 (A2) (A1) (A1) (E) (E) (A1) (A2) (E) (E) (E) (E)
                 (A2) (A1) (E) (E) (E) (E) (E) (E) (E) (E) (A1)
                 (A2) (E) (E) (E) (E) (A2) (A1) (E) (E) (A2) (E)
                 (E) (A2) (E) (E) (A1) (A1) (E) (E) (E) (E) (E)
                 (E) (A2) (A1) (E) (E) (E) (E) (E) (E) (A1) (A1)
                 (A2) (E) (E) (A2) (E) (E) (E) (E) (A1) (E) (E)
                 (A1) (E) (E) (E) (E) (A2) (A2) (E) (E) (A2) (E)
                 (E) (A1) (A1) (E) (E) (E) (E) (A1) (A2) (A2) (E)
                 (E) (E) (E) (E) (E) (A2) (A1) (E) (E) (E) (E)
                 (E) (E) (A2) (A2) (E) (E) (A1) (A1) (E) (E) (A2)
                 (E) (E) (A1) (A2) (E) (E) (E) (E) (E) (E) (A2)
                 (A1) (E) (E) (A2) (A1) (E) (E) (E) (E) (A2) (E)
                 (E) (A1) (E) (E) (A1) (E) (E) (A2) (E) (E) (A2)
                 (A1) (E) (E) (A2) (A1) (E) (E) (A1) (E) (E) (A2)
                 (E) (E) (A1) (E) (E) (E) (E) (A1) (A2) (E) (E)
                 (A1) (E) (E) (A2) (E) (E) (E) (E) (A2) (E) (E)
                 (E) (E) (A1) (E) (E) (A1) (A2) (E) (E) (A2) (A1)
                 (E) (E) (E) (E) (A1) (E) (E) (A1) (A2) (E) (E)
                 (E) (E) (A1) (A2) (E) (E) (E) (E) (A2) (E) (E)
                 (E) (E) (A2) (E) (E) (A1) (E) (E) (E) (E) (A1)
                 (E) (E) (A1) (A2) (A2) (E) (E) (E) (E) (A2) (E)
                 (E) (A1) (E) (E) (E) (E) (A1) (E) (E) (A2) (E)
                 (E) (E) (E) (A1) (E) (E) (A1) (E) (E) (A2) (A1)
                 (A2) (E) (E) (A2) (E) (E) (E) (E) (E) (E) (A2)
                 (A1) (E) (E) (A1) (E) (E) (A2) (E) (E) (A1) (E)
                 (E) (E) (E) (A2) (A1) (E) (E) (A2) (E) (E) (A1)
                 (E) (E) (E) (E) (A2) (A2) (E) (E) (A1) (A2) (A1)
                 (E) (E) (A2) (E) (E) (A1) (E) (E) (A1) (A2) (E)
                 (E) (A1) (E) (E) (E) (E) (A2) (E) (E) (E) (E)
                 (A1) (A2) (E) (E) (E) (E) (A1) (E) (E) (A2) (E)
                 (E) (A2) (E) (E) (A1) (A2) (A1) (E) (E) (A2) (E)
                 (E) (E) (E) (A1) (E) (E) (A2) (A1) (E) (E) (E)
                 (E) (E) (E) (A2) (E) (E) (A1) (A1) (A2) (E) (E)
                 (A2) (E) (E) (E) (E) (E) (E) (A1) (A1) (E) (E)
                 (E) (E) (E) (E) (A2) (A2) (E) (E) (A1) (A2) (E)
                 (E) (A1) (E) (E) (A2) (A1) (E) (E) (A2) (E) (E)
                 (E) (E) (A1) (E) (E) (A1) (E) (E) (A1) (A2) (E)
                 (E) (E) (E) (A2) (E) (E) (E) (E) (A1) (A2) (A1)
                 (E) (E) (A2) (E) (E) (A2) (E) (E) (A1) (E) (E)
                 (E) (E) (A2) (E) (E) (E) (E) (A2) (A1) (E) (E)
                 (A1) (E) (E) (E) (E) (E) (E) (A2) (A1) (A2) (E)
                 (E) (A1) (E) (E) (A2) (A1) (E) (E) (E) (E) (E)
                 (E) (A2) (A1) (E) (E) (A1) (A2) (E) (E) (A2) (E)
                 (E) (A2) (E) (E) (A1) (E) (E) (A1) (A1) (E) (E)
                 (E) (E) (A2) (E) (E) (A1) (E) (E) (A1) (A2) (E)
                 (E) (A2) (E) (E) (A1) (E) (E) (E) (E) (A2) (E)
                 (E) (E) (E) (A1) (E) (E) (E) (E) (A2) (A1) (E)
                 (E) (E) (E) (A2) (A2) (A1) (E) (E) (E) (E) (E)
                 (E) (A2) (E) (E) (E) (E) (A1) (A1) (E) (E) (A2)
                 (A2) (E) (E) (A1) (E) (E) (A2) (E) (E) (A1) (E)
                 (E) (A2) (E) (E) (A1) (E) (E) (A2) (E) (E) (A1)
                 (E) (E) (A2) (A1) (E) (E) (A2) (A1) (E) (E) (A1)
                 (A2) (E) (E) (E) (E) (E) (E) (A2) (E) (E) (A1)
                 (E) (E) (E) (E) (E) (E) (A1) (E) (E) (A2) (E)
                 (E) (A2) (E) (E) (A1) (A2) (E) (E) (A2) (A1) (E)
                 (E) (A1) (E) (E) (A2) (E) (E) (A1) (E) (E) (E)
                 (E) (A2) (E) (E) (E) (E) (A2) (E) (E) (A1) (E)
                 (E) (A1) (E) (E) (A2) (A2) (A1) (E) (E) (E) (E)
                 (A1) (E) (E) (E) (E) (A1) (A2) (E) (E) (E) (E)
                 (E) (E) (E) (E) (A2) (A1) (A1) (E) (E) (A2) (E)
                 (E) (A2) (A1) (A2) (E) (E) (A1) (E) (E) (E) (E)
                 (E) (E) (A1) (E) (E) (A2) (E) (E) (A1) (E) (E)
                 (A2) (A1) (E) (E) (A1) (E) (E) (E) (E) (A2) (A1)
                 (E) (E) (A2) (A2) (E) (E) (E) (E) (E) (E) (A1)
                 (E) (E) (E) (E) (A2) (E) (E) (A2) (A1) (E) (E)
                 (A1) (E) (E) (A2) (E) (E) (A1) (A2) (E) (E) (A1)
                 (E) (E) (E) (E) (A2) (E) (E) (A1) (A2) (E) (E)
                 (E) (E) (A1) (A2) (E) (E) (E) (E) (A2) (A1) (A1)
                 (E) (E) (A1) (A2) (E) (E) (E) (E) (E) (E) (A2)
                 (A1) (A2) (E) (E) (A2) (E) (E) (A1) (E) (E) (E)
                 (E) (E) (E) (A2) (A2) (A1) (E) (E) (E) (E) (A1)
                 (E) (E) (E) (E) (A2) (A1) (E) (E) (E) (E) (E)
                 (E) (A2) (E) (E) (E) (E) (A1) (E) (E) (A2) (A1)
                 (A2) (E) (E) (E) (E) (A1) (A2) (A2) (E) (E) (A1)
                 (E) (E) (A2) (E) (E) (E) (E) (A1) (A1) (E) (E)
                 (A2) (E) (E) (A2) (E) (E) (E) (E) (A1) (A2) (A1)
                 (A1) (E) (E) (A2) (E) (E) (E) (E) (E) (E) (A1)
                 (A2) (A2) (E) (E) (A1) (E) (E) (A1) (A2) (A1)
                 (E) (E) (E) (E) (A2) (A1) (A2) (A1) (E) (E) (E)
                 (E) (A2)
 The electronic state is 1-A1.
 Alpha  occ. eigenvalues --  -10.54584 -10.54551 -10.52002 -10.52002 -10.52001
 Alpha  occ. eigenvalues --  -10.52001 -10.52001 -10.52000  -0.94468  -0.86849
 Alpha  occ. eigenvalues --   -0.78781  -0.78781  -0.75826  -0.75826  -0.67307
 Alpha  occ. eigenvalues --   -0.57739  -0.55214  -0.51560  -0.51560  -0.50017
 Alpha  occ. eigenvalues --   -0.50017  -0.46419  -0.44755  -0.44755  -0.43575
 Alpha  occ. eigenvalues --   -0.42546  -0.42546  -0.41394  -0.40371  -0.40371
 Alpha  occ. eigenvalues --   -0.35906  -0.35906  -0.35447
 Alpha virt. eigenvalues --    0.00430   0.02459   0.02500   0.02500   0.04653
 Alpha virt. eigenvalues --    0.04653   0.05959   0.06839   0.06839   0.07737
 Alpha virt. eigenvalues --    0.08727   0.08844   0.10092   0.10092   0.11363
 Alpha virt. eigenvalues --    0.11363   0.12409   0.14470   0.14470   0.15089
 Alpha virt. eigenvalues --    0.15089   0.16295   0.16616   0.16685   0.16685
 Alpha virt. eigenvalues --    0.17309   0.17309   0.18756   0.19007   0.19240
 Alpha virt. eigenvalues --    0.20313   0.20953   0.20953   0.21555   0.21555
 Alpha virt. eigenvalues --    0.21607   0.22150   0.22150   0.23090   0.23921
 Alpha virt. eigenvalues --    0.23921   0.24232   0.25361   0.25437   0.25437
 Alpha virt. eigenvalues --    0.26549   0.26549   0.26826   0.27583   0.27583
 Alpha virt. eigenvalues --    0.28312   0.28312   0.29487   0.29487   0.29570
 Alpha virt. eigenvalues --    0.29669   0.30690   0.30690   0.31121   0.31121
 Alpha virt. eigenvalues --    0.31924   0.32301   0.32664   0.32664   0.33442
 Alpha virt. eigenvalues --    0.33541   0.33541   0.33807   0.33807   0.35162
 Alpha virt. eigenvalues --    0.35162   0.36493   0.36915   0.36915   0.37089
 Alpha virt. eigenvalues --    0.38117   0.38701   0.39046   0.39949   0.40053
 Alpha virt. eigenvalues --    0.40053   0.40406   0.40406   0.41516   0.42270
 Alpha virt. eigenvalues --    0.42270   0.43318   0.43318   0.43698   0.44146
 Alpha virt. eigenvalues --    0.44146   0.45139   0.45224   0.45224   0.45367
 Alpha virt. eigenvalues --    0.45566   0.46110   0.46110   0.46300   0.46924
 Alpha virt. eigenvalues --    0.47414   0.47414   0.48062   0.48062   0.48188
 Alpha virt. eigenvalues --    0.49639   0.50301   0.50301   0.51575   0.51865
 Alpha virt. eigenvalues --    0.51865   0.52143   0.52143   0.52574   0.52620
 Alpha virt. eigenvalues --    0.52620   0.53832   0.54542   0.55407   0.55407
 Alpha virt. eigenvalues --    0.56114   0.56114   0.56980   0.56980   0.57490
 Alpha virt. eigenvalues --    0.57824   0.57824   0.57998   0.58028   0.60325
 Alpha virt. eigenvalues --    0.60325   0.60371   0.61737   0.61737   0.62282
 Alpha virt. eigenvalues --    0.62282   0.62449   0.63399   0.64074   0.64074
 Alpha virt. eigenvalues --    0.65120   0.65321   0.65321   0.65952   0.66594
 Alpha virt. eigenvalues --    0.66594   0.68479   0.68479   0.68747   0.68809
 Alpha virt. eigenvalues --    0.70251   0.70251   0.71526   0.75282   0.75595
 Alpha virt. eigenvalues --    0.75595   0.78036   0.78156   0.78156   0.78524
 Alpha virt. eigenvalues --    0.80344   0.80344   0.80817   0.82528   0.82528
 Alpha virt. eigenvalues --    0.87931   0.88100   0.88100   0.89456   0.91195
 Alpha virt. eigenvalues --    0.91195   0.91536   0.92440   0.92440   0.94004
 Alpha virt. eigenvalues --    0.94004   0.94303   0.95127   0.96414   0.97564
 Alpha virt. eigenvalues --    0.97564   0.98433   0.98659   0.98785   0.98785
 Alpha virt. eigenvalues --    1.01524   1.01524   1.01770   1.02288   1.02374
 Alpha virt. eigenvalues --    1.02374   1.04164   1.04164   1.05191   1.05191
 Alpha virt. eigenvalues --    1.06366   1.06366   1.09266   1.09358   1.09837
 Alpha virt. eigenvalues --    1.09837   1.10041   1.10041   1.11738   1.12613
 Alpha virt. eigenvalues --    1.13093   1.13093   1.14684   1.15743   1.15743
 Alpha virt. eigenvalues --    1.17672   1.18449   1.18449   1.18678   1.20928
 Alpha virt. eigenvalues --    1.22026   1.22026   1.22516   1.22516   1.23443
 Alpha virt. eigenvalues --    1.23443   1.24406   1.25202   1.25528   1.25528
 Alpha virt. eigenvalues --    1.26566   1.26566   1.28513   1.28513   1.28604
 Alpha virt. eigenvalues --    1.29481   1.29812   1.29848   1.29848   1.32192
 Alpha virt. eigenvalues --    1.32378   1.32378   1.34639   1.34639   1.34722
 Alpha virt. eigenvalues --    1.36885   1.36885   1.38618   1.39319   1.39319
 Alpha virt. eigenvalues --    1.40680   1.40680   1.41025   1.42760   1.43313
 Alpha virt. eigenvalues --    1.43313   1.49366   1.49528   1.49528   1.50808
 Alpha virt. eigenvalues --    1.52100   1.52495   1.52495   1.53881   1.53881
 Alpha virt. eigenvalues --    1.54317   1.55255   1.56100   1.57304   1.57304
 Alpha virt. eigenvalues --    1.58450   1.58450   1.62152   1.62152   1.63174
 Alpha virt. eigenvalues --    1.63342   1.66202   1.66202   1.66915   1.66915
 Alpha virt. eigenvalues --    1.68810   1.68810   1.69136   1.71723   1.72575
 Alpha virt. eigenvalues --    1.72575   1.73923   1.76950   1.77730   1.77730
 Alpha virt. eigenvalues --    1.77809   1.81808   1.81808   1.84962   1.85090
 Alpha virt. eigenvalues --    1.85745   1.85745   1.87637   1.87637   1.92889
 Alpha virt. eigenvalues --    1.92889   1.98235   1.98299   1.99424   1.99424
 Alpha virt. eigenvalues --    2.00464   2.01013   2.01593   2.01593   2.03014
 Alpha virt. eigenvalues --    2.03014   2.07572   2.07870   2.07870   2.08554
 Alpha virt. eigenvalues --    2.09631   2.09631   2.10616   2.13608   2.13608
 Alpha virt. eigenvalues --    2.14025   2.16029   2.16029   2.16832   2.16971
 Alpha virt. eigenvalues --    2.18199   2.18199   2.19446   2.19853   2.21240
 Alpha virt. eigenvalues --    2.21240   2.22717   2.24199   2.24199   2.24519
 Alpha virt. eigenvalues --    2.25263   2.25263   2.25736   2.27918   2.27918
 Alpha virt. eigenvalues --    2.30494   2.30494   2.31061   2.32235   2.32595
 Alpha virt. eigenvalues --    2.32595   2.36246   2.36303   2.36303   2.37390
 Alpha virt. eigenvalues --    2.38667   2.38667   2.39979   2.39979   2.42509
 Alpha virt. eigenvalues --    2.42566   2.42566   2.44921   2.44921   2.46140
 Alpha virt. eigenvalues --    2.46783   2.46783   2.48752   2.48845   2.49840
 Alpha virt. eigenvalues --    2.49840   2.52425   2.53138   2.54274   2.54274
 Alpha virt. eigenvalues --    2.56035   2.56035   2.56305   2.58163   2.58163
 Alpha virt. eigenvalues --    2.59382   2.60788   2.60855   2.60855   2.63864
 Alpha virt. eigenvalues --    2.63864   2.64097   2.64314   2.64318   2.64318
 Alpha virt. eigenvalues --    2.66666   2.66666   2.67824   2.68986   2.68986
 Alpha virt. eigenvalues --    2.71356   2.71356   2.72282   2.72650   2.72650
 Alpha virt. eigenvalues --    2.73101   2.74207   2.74207   2.75557   2.75557
 Alpha virt. eigenvalues --    2.76703   2.79214   2.79214   2.80531   2.80547
 Alpha virt. eigenvalues --    2.83382   2.85199   2.85199   2.87629   2.87629
 Alpha virt. eigenvalues --    2.88741   2.89922   2.89922   2.90437   2.90659
 Alpha virt. eigenvalues --    2.90659   2.93413   2.93413   2.94957   2.96709
 Alpha virt. eigenvalues --    2.96709   2.97294   2.98858   2.98858   2.99171
 Alpha virt. eigenvalues --    2.99171   2.99726   3.01673   3.01673   3.02165
 Alpha virt. eigenvalues --    3.02611   3.02611   3.02805   3.06430   3.06562
 Alpha virt. eigenvalues --    3.06924   3.06924   3.08476   3.09434   3.09434
 Alpha virt. eigenvalues --    3.09943   3.09943   3.11030   3.11030   3.15121
 Alpha virt. eigenvalues --    3.15724   3.16410   3.16410   3.17762   3.19559
 Alpha virt. eigenvalues --    3.19559   3.19749   3.20708   3.20708   3.26227
 Alpha virt. eigenvalues --    3.26696   3.26696   3.27042   3.27042   3.28615
 Alpha virt. eigenvalues --    3.29279   3.30483   3.30483   3.31003   3.33430
 Alpha virt. eigenvalues --    3.33430   3.34217   3.34782   3.34782   3.36503
 Alpha virt. eigenvalues --    3.36503   3.36537   3.41186   3.42207   3.42207
 Alpha virt. eigenvalues --    3.42286   3.42889   3.43869   3.46934   3.46934
 Alpha virt. eigenvalues --    3.49970   3.50600   3.50600   3.50686   3.52435
 Alpha virt. eigenvalues --    3.52435   3.54234   3.54241   3.56349   3.56349
 Alpha virt. eigenvalues --    3.57905   3.61240   3.61240   3.62380   3.62380
 Alpha virt. eigenvalues --    3.63189   3.65271   3.65271   3.67915   3.67915
 Alpha virt. eigenvalues --    3.68777   3.69884   3.71579   3.71579   3.72862
 Alpha virt. eigenvalues --    3.72862   3.74033   3.75001   3.75001   3.78013
 Alpha virt. eigenvalues --    3.79505   3.79505   3.80844   3.81627   3.81627
 Alpha virt. eigenvalues --    3.82936   3.85795   3.89359   3.89555   3.89555
 Alpha virt. eigenvalues --    3.91721   3.92936   3.92936   3.94959   3.94959
 Alpha virt. eigenvalues --    3.95479   3.97331   3.97331   3.98729   3.99533
 Alpha virt. eigenvalues --    3.99620   3.99620   4.02390   4.02390   4.05051
 Alpha virt. eigenvalues --    4.05051   4.05843   4.06771   4.06771   4.07025
 Alpha virt. eigenvalues --    4.10650   4.10671   4.13155   4.13155   4.13862
 Alpha virt. eigenvalues --    4.18079   4.18079   4.21544   4.21544   4.26674
 Alpha virt. eigenvalues --    4.26674   4.27597   4.43694   4.46639   4.46639
 Alpha virt. eigenvalues --    4.55583   4.55583   4.58036   4.58036   4.59105
 Alpha virt. eigenvalues --    4.64545   4.64907   4.64907   4.78326   4.78937
 Alpha virt. eigenvalues --    4.83663   4.83663   4.84149   4.87991   4.87991
 Alpha virt. eigenvalues --    4.89288   4.95608   4.96910   4.96910   5.00523
 Alpha virt. eigenvalues --    5.06616   5.06616   5.15396   5.15396   5.26396
 Alpha virt. eigenvalues --    5.38551   5.38551   5.43735   5.44279   5.44279
 Alpha virt. eigenvalues --    5.47755   5.48100   5.49086   5.49086   5.50393
 Alpha virt. eigenvalues --    5.50393   5.50671   5.54133   5.54133   5.54558
 Alpha virt. eigenvalues --    5.54558   5.54561   5.55133   5.57033   5.63670
 Alpha virt. eigenvalues --    5.63670   5.63785   5.66916   5.66916   5.69142
 Alpha virt. eigenvalues --    5.69573   5.69573   5.72049   5.72231   5.72231
 Alpha virt. eigenvalues --    5.73355   5.73355   5.74599   5.77324   5.77324
 Alpha virt. eigenvalues --    5.78894   5.78894   5.79286   5.79771   5.82243
 Alpha virt. eigenvalues --    5.82243   5.84164   5.84606   5.84606   5.88067
 Alpha virt. eigenvalues --    5.88067   5.88763   5.88763   5.89496   5.90352
 Alpha virt. eigenvalues --    5.90476   5.93132   5.93132   5.94560   5.95772
 Alpha virt. eigenvalues --    5.95772   5.97241   5.97983   5.98152   5.98152
 Alpha virt. eigenvalues --    5.98952   5.98952   6.02506   6.02506   6.04452
 Alpha virt. eigenvalues --    6.04455   6.06588   6.06588   6.06751   6.08929
 Alpha virt. eigenvalues --    6.09802   6.09802   6.10734   6.13351   6.13351
 Alpha virt. eigenvalues --    6.13422   6.17933   6.17933   6.18757   6.19656
 Alpha virt. eigenvalues --    6.19656   6.21731   6.22370   6.23061   6.23061
 Alpha virt. eigenvalues --    6.24597   6.24597   6.25706   6.26334   6.26334
 Alpha virt. eigenvalues --    6.28218   6.28853   6.28853   6.29395   6.30237
 Alpha virt. eigenvalues --    6.32305   6.32305   6.32902   6.34227   6.34227
 Alpha virt. eigenvalues --    6.34522   6.35589   6.35589   6.36217   6.36217
 Alpha virt. eigenvalues --    6.38424   6.38883   6.38883   6.40084   6.40084
 Alpha virt. eigenvalues --    6.41537   6.42601   6.42601   6.43530   6.43530
 Alpha virt. eigenvalues --    6.43753   6.45926   6.47376   6.47376   6.51660
 Alpha virt. eigenvalues --    6.51660   6.52279   6.55393   6.57417   6.57930
 Alpha virt. eigenvalues --    6.57930   6.60038   6.60038   6.61916   6.61916
 Alpha virt. eigenvalues --    6.63027   6.64350   6.64350   6.68343   6.68343
 Alpha virt. eigenvalues --    6.68449   6.70703   6.70800   6.70800   6.72572
 Alpha virt. eigenvalues --    6.75839   6.76153   6.76153   6.79251   6.80765
 Alpha virt. eigenvalues --    6.80765   6.82816   6.84484   6.84484   6.87029
 Alpha virt. eigenvalues --    6.88631   6.88631   6.89325   6.90343   6.90343
 Alpha virt. eigenvalues --    6.91851   6.93620   6.93620   6.95557   6.96105
 Alpha virt. eigenvalues --    6.96105   6.96156   6.97534   6.97534   6.99042
 Alpha virt. eigenvalues --    7.00096   7.05156   7.05156   7.06309   7.08025
 Alpha virt. eigenvalues --    7.08679   7.08679   7.10235   7.12647   7.17163
 Alpha virt. eigenvalues --    7.17163   7.17301   7.17301   7.18757   7.18757
 Alpha virt. eigenvalues --    7.23675   7.24938   7.24938   7.27304   7.29333
 Alpha virt. eigenvalues --    7.29333   7.29905   7.29905   7.37040   7.37040
 Alpha virt. eigenvalues --    7.39908   7.40178   7.40178   7.41214   7.41950
 Alpha virt. eigenvalues --    7.41950   7.43127   7.44610   7.44610   7.45948
 Alpha virt. eigenvalues --    7.47808   7.48702   7.48702   7.49452   7.50303
 Alpha virt. eigenvalues --    7.50726   7.50726   7.51759   7.55262   7.55262
 Alpha virt. eigenvalues --    7.55453   7.56487   7.56487   7.58196   7.58585
 Alpha virt. eigenvalues --    7.58585   7.61061   7.61061   7.62315   7.64723
 Alpha virt. eigenvalues --    7.64723   7.65102   7.65102   7.65610   7.68826
 Alpha virt. eigenvalues --    7.68826   7.69432   7.70132   7.70132   7.71123
 Alpha virt. eigenvalues --    7.71811   7.71811   7.73271   7.73641   7.74422
 Alpha virt. eigenvalues --    7.75094   7.75094   7.77961   7.77961   7.79022
 Alpha virt. eigenvalues --    7.79047   7.79047   7.81167   7.81167   7.82824
 Alpha virt. eigenvalues --    7.83100   7.83595   7.83595   7.86371   7.86371
 Alpha virt. eigenvalues --    7.90336   7.90336   7.91352   7.91352   7.91926
 Alpha virt. eigenvalues --    7.92305   7.96451   7.97354   7.97354   7.99360
 Alpha virt. eigenvalues --    8.01020   8.01020   8.01836   8.02957   8.06344
 Alpha virt. eigenvalues --    8.06948   8.06948   8.08619   8.09800   8.09800
 Alpha virt. eigenvalues --    8.11097   8.11097   8.12980   8.12980   8.13141
 Alpha virt. eigenvalues --    8.15650   8.15650   8.15886   8.16820   8.16820
 Alpha virt. eigenvalues --    8.18060   8.19762   8.19762   8.23131   8.25316
 Alpha virt. eigenvalues --    8.28340   8.28340   8.29746   8.30173   8.30173
 Alpha virt. eigenvalues --    8.32178   8.32178   8.33350   8.33703   8.35768
 Alpha virt. eigenvalues --    8.35768   8.35943   8.37365   8.38489   8.38489
 Alpha virt. eigenvalues --    8.39721   8.39721   8.42741   8.42741   8.43481
 Alpha virt. eigenvalues --    8.44791   8.44791   8.46936   8.46936   8.47479
 Alpha virt. eigenvalues --    8.48919   8.48919   8.49734   8.50284   8.52006
 Alpha virt. eigenvalues --    8.52006   8.52052   8.53866   8.53866   8.54160
 Alpha virt. eigenvalues --    8.55309   8.55309   8.56611   8.60246   8.63626
 Alpha virt. eigenvalues --    8.63626   8.63712   8.65071   8.65071   8.66984
 Alpha virt. eigenvalues --    8.66984   8.67149   8.69160   8.69160   8.71006
 Alpha virt. eigenvalues --    8.74975   8.75989   8.75989   8.78295   8.78295
 Alpha virt. eigenvalues --    8.78562   8.81154   8.81818   8.81818   8.83337
 Alpha virt. eigenvalues --    8.83337   8.83639   8.83731   8.87467   8.88857
 Alpha virt. eigenvalues --    8.88857   8.90749   8.90943   8.93343   8.93343
 Alpha virt. eigenvalues --    8.97223   8.97223   8.97301   8.97301   8.97530
 Alpha virt. eigenvalues --    8.99311   8.99565   9.00174   9.00174   9.00826
 Alpha virt. eigenvalues --    9.02064   9.02064   9.03175   9.05791   9.05791
 Alpha virt. eigenvalues --    9.06824   9.06824   9.10957   9.10957   9.11693
 Alpha virt. eigenvalues --    9.24073   9.26811   9.31183   9.31183   9.32264
 Alpha virt. eigenvalues --    9.32264   9.63885   9.65165   9.65165   9.65563
 Alpha virt. eigenvalues --    9.65563   9.67728   9.68261   9.69565   9.69565
 Alpha virt. eigenvalues --    9.69648   9.69648   9.72894   9.72894   9.73014
 Alpha virt. eigenvalues --    9.74549   9.74549   9.80943   9.80943   9.82494
 Alpha virt. eigenvalues --    9.85094   9.85094   9.85899   9.87133   9.88163
 Alpha virt. eigenvalues --    9.88168   9.88168   9.90454   9.90454   9.90675
 Alpha virt. eigenvalues --    9.92787  10.03116  10.03864  10.03864  10.06134
 Alpha virt. eigenvalues --   10.07048  10.07048  10.17734  10.21027  10.21027
 Alpha virt. eigenvalues --   10.21371  10.21371  10.21781  10.21901  10.23186
 Alpha virt. eigenvalues --   10.23186  10.24267  10.25872  10.25872  10.36032
 Alpha virt. eigenvalues --   10.45507  10.45507  10.46342  10.46342  10.46713
 Alpha virt. eigenvalues --   10.54857  10.57547  12.17223  12.24373  12.24373
 Alpha virt. eigenvalues --   12.26237  12.30245  12.30245  12.38626  12.38626
 Alpha virt. eigenvalues --   12.43049  12.43049  12.52069  12.60389  13.27815
 Alpha virt. eigenvalues --   13.27936  13.27936  13.30233  13.32025  13.32025
 Alpha virt. eigenvalues --   29.03216  29.09802  29.29532  29.33045  29.33045
 Alpha virt. eigenvalues --   29.37317  29.37317  29.38540 146.57528 146.63376
 Alpha virt. eigenvalues --  146.85432 146.85914 146.85914 146.89342 146.89342
 Alpha virt. eigenvalues --  146.94691
          Condensed to atoms (all electrons):
               1          2          3          4          5          6
     1  C    6.280575   0.193374  -0.018938   0.011875  -0.108264  -0.108264
     2  C    0.193374   6.513764  -0.426431  -0.018938   0.193374   0.193374
     3  C   -0.018938  -0.426431   6.513764   0.193374  -0.018938  -0.018938
     4  C    0.011875  -0.018938   0.193374   6.280575  -0.037935   0.023425
     5  C   -0.108264   0.193374  -0.018938  -0.037935   6.280575  -0.108264
     6  C   -0.108264   0.193374  -0.018938   0.023425  -0.108264   6.280575
     7  C   -0.037935  -0.018938   0.193374  -0.108264   0.023425   0.011875
     8  C    0.023425  -0.018938   0.193374  -0.108264   0.011875  -0.037935
     9  H    0.260882  -0.090569   0.038705  -0.031659   0.024904   0.009451
    10  H    0.306036  -0.076594   0.010267  -0.001823   0.005815   0.011471
    11  H    0.313521  -0.006495  -0.002772   0.000616  -0.031843  -0.014727
    12  H   -0.031659   0.038705  -0.090569   0.260882  -0.021899   0.000692
    13  H   -0.001823   0.010267  -0.076594   0.306036  -0.033492   0.001496
    14  H    0.000616  -0.002772  -0.006495   0.313521   0.004270  -0.000809
    15  H    0.011471  -0.076594   0.010267  -0.033492   0.306036   0.005815
    16  H   -0.014727  -0.006495  -0.002772   0.004270   0.313521  -0.031843
    17  H    0.009451  -0.090569   0.038705  -0.021899   0.260882   0.024904
    18  H    0.024904  -0.090569   0.038705   0.000692   0.009451   0.260882
    19  H    0.005815  -0.076594   0.010267   0.001496   0.011471   0.306036
    20  H   -0.031843  -0.006495  -0.002772  -0.000809  -0.014727   0.313521
    21  H   -0.033492   0.010267  -0.076594   0.011471   0.001496  -0.001823
    22  H    0.004270  -0.002772  -0.006495  -0.014727  -0.000809   0.000616
    23  H   -0.021899   0.038705  -0.090569   0.009451   0.000692  -0.031659
    24  H    0.000692   0.038705  -0.090569   0.024904  -0.031659  -0.021899
    25  H    0.001496   0.010267  -0.076594   0.005815  -0.001823  -0.033492
    26  H   -0.000809  -0.002772  -0.006495  -0.031843   0.000616   0.004270
               7          8          9         10         11         12
     1  C   -0.037935   0.023425   0.260882   0.306036   0.313521  -0.031659
     2  C   -0.018938  -0.018938  -0.090569  -0.076594  -0.006495   0.038705
     3  C    0.193374   0.193374   0.038705   0.010267  -0.002772  -0.090569
     4  C   -0.108264  -0.108264  -0.031659  -0.001823   0.000616   0.260882
     5  C    0.023425   0.011875   0.024904   0.005815  -0.031843  -0.021899
     6  C    0.011875  -0.037935   0.009451   0.011471  -0.014727   0.000692
     7  C    6.280575  -0.108264  -0.021899  -0.033492   0.004270   0.024904
     8  C   -0.108264   6.280575   0.000692   0.001496  -0.000809   0.009451
     9  H   -0.021899   0.000692   0.403882  -0.000438  -0.013000  -0.022889
    10  H   -0.033492   0.001496  -0.000438   0.480236  -0.012629   0.001878
    11  H    0.004270  -0.000809  -0.013000  -0.012629   0.422589  -0.000106
    12  H    0.024904   0.009451  -0.022889   0.001878  -0.000106   0.403882
    13  H    0.005815   0.011471   0.001878   0.000703   0.000393  -0.000438
    14  H   -0.031843  -0.014727  -0.000106   0.000393   0.000078  -0.013000
    15  H    0.001496  -0.001823   0.001993   0.003355  -0.000001  -0.003119
    16  H   -0.000809   0.000616  -0.001834   0.001028  -0.012544   0.000673
    17  H    0.000692  -0.031659   0.001198   0.001101   0.002651   0.000719
    18  H   -0.031659  -0.021899   0.001198   0.001993  -0.001834  -0.000408
    19  H   -0.001823  -0.033492   0.001101   0.003355   0.001028  -0.000148
    20  H    0.000616   0.004270   0.002651  -0.000001  -0.012544  -0.000070
    21  H    0.306036   0.005815  -0.003119  -0.016389   0.000313   0.001993
    22  H    0.313521  -0.031843   0.000673   0.000313  -0.000164  -0.001834
    23  H    0.260882   0.024904   0.000719  -0.003119   0.000673   0.001198
    24  H    0.009451   0.260882  -0.000408  -0.000148  -0.000070   0.001198
    25  H    0.011471   0.306036  -0.000148   0.000072  -0.000067   0.001101
    26  H   -0.014727   0.313521  -0.000070  -0.000067   0.000033   0.002651
              13         14         15         16         17         18
     1  C   -0.001823   0.000616   0.011471  -0.014727   0.009451   0.024904
     2  C    0.010267  -0.002772  -0.076594  -0.006495  -0.090569  -0.090569
     3  C   -0.076594  -0.006495   0.010267  -0.002772   0.038705   0.038705
     4  C    0.306036   0.313521  -0.033492   0.004270  -0.021899   0.000692
     5  C   -0.033492   0.004270   0.306036   0.313521   0.260882   0.009451
     6  C    0.001496  -0.000809   0.005815  -0.031843   0.024904   0.260882
     7  C    0.005815  -0.031843   0.001496  -0.000809   0.000692  -0.031659
     8  C    0.011471  -0.014727  -0.001823   0.000616  -0.031659  -0.021899
     9  H    0.001878  -0.000106   0.001993  -0.001834   0.001198   0.001198
    10  H    0.000703   0.000393   0.003355   0.001028   0.001101   0.001993
    11  H    0.000393   0.000078  -0.000001  -0.012544   0.002651  -0.001834
    12  H   -0.000438  -0.013000  -0.003119   0.000673   0.000719  -0.000408
    13  H    0.480236  -0.012629  -0.016389   0.000313  -0.003119  -0.000148
    14  H   -0.012629   0.422589   0.000313  -0.000164   0.000673  -0.000070
    15  H   -0.016389   0.000313   0.480236  -0.012629  -0.000438   0.001101
    16  H    0.000313  -0.000164  -0.012629   0.422589  -0.013000   0.002651
    17  H   -0.003119   0.000673  -0.000438  -0.013000   0.403882   0.001198
    18  H   -0.000148  -0.000070   0.001101   0.002651   0.001198   0.403882
    19  H    0.000072  -0.000067   0.003355  -0.000001   0.001993  -0.000438
    20  H   -0.000067   0.000033   0.001028  -0.012544  -0.001834  -0.013000
    21  H    0.003355  -0.000001   0.000072  -0.000067  -0.000148   0.001878
    22  H    0.001028  -0.012544  -0.000067   0.000033  -0.000070  -0.000106
    23  H    0.001101   0.002651  -0.000148  -0.000070  -0.000408  -0.022889
    24  H    0.001993  -0.001834   0.001878  -0.000106  -0.022889   0.000719
    25  H    0.003355   0.001028   0.000703   0.000393   0.001878  -0.003119
    26  H   -0.000001  -0.012544   0.000393   0.000078  -0.000106   0.000673
              19         20         21         22         23         24
     1  C    0.005815  -0.031843  -0.033492   0.004270  -0.021899   0.000692
     2  C   -0.076594  -0.006495   0.010267  -0.002772   0.038705   0.038705
     3  C    0.010267  -0.002772  -0.076594  -0.006495  -0.090569  -0.090569
     4  C    0.001496  -0.000809   0.011471  -0.014727   0.009451   0.024904
     5  C    0.011471  -0.014727   0.001496  -0.000809   0.000692  -0.031659
     6  C    0.306036   0.313521  -0.001823   0.000616  -0.031659  -0.021899
     7  C   -0.001823   0.000616   0.306036   0.313521   0.260882   0.009451
     8  C   -0.033492   0.004270   0.005815  -0.031843   0.024904   0.260882
     9  H    0.001101   0.002651  -0.003119   0.000673   0.000719  -0.000408
    10  H    0.003355  -0.000001  -0.016389   0.000313  -0.003119  -0.000148
    11  H    0.001028  -0.012544   0.000313  -0.000164   0.000673  -0.000070
    12  H   -0.000148  -0.000070   0.001993  -0.001834   0.001198   0.001198
    13  H    0.000072  -0.000067   0.003355   0.001028   0.001101   0.001993
    14  H   -0.000067   0.000033  -0.000001  -0.012544   0.002651  -0.001834
    15  H    0.003355   0.001028   0.000072  -0.000067  -0.000148   0.001878
    16  H   -0.000001  -0.012544  -0.000067   0.000033  -0.000070  -0.000106
    17  H    0.001993  -0.001834  -0.000148  -0.000070  -0.000408  -0.022889
    18  H   -0.000438  -0.013000   0.001878  -0.000106  -0.022889   0.000719
    19  H    0.480236  -0.012629   0.000703   0.000393   0.001878  -0.003119
    20  H   -0.012629   0.422589   0.000393   0.000078  -0.000106   0.000673
    21  H    0.000703   0.000393   0.480236  -0.012629  -0.000438   0.001101
    22  H    0.000393   0.000078  -0.012629   0.422589  -0.013000   0.002651
    23  H    0.001878  -0.000106  -0.000438  -0.013000   0.403882   0.001198
    24  H   -0.003119   0.000673   0.001101   0.002651   0.001198   0.403882
    25  H   -0.016389   0.000313   0.003355  -0.000001   0.001993  -0.000438
    26  H    0.000313  -0.000164   0.001028  -0.012544  -0.001834  -0.013000
              25         26
     1  C    0.001496  -0.000809
     2  C    0.010267  -0.002772
     3  C   -0.076594  -0.006495
     4  C    0.005815  -0.031843
     5  C   -0.001823   0.000616
     6  C   -0.033492   0.004270
     7  C    0.011471  -0.014727
     8  C    0.306036   0.313521
     9  H   -0.000148  -0.000070
    10  H    0.000072  -0.000067
    11  H   -0.000067   0.000033
    12  H    0.001101   0.002651
    13  H    0.003355  -0.000001
    14  H    0.001028  -0.012544
    15  H    0.000703   0.000393
    16  H    0.000393   0.000078
    17  H    0.001878  -0.000106
    18  H   -0.003119   0.000673
    19  H   -0.016389   0.000313
    20  H    0.000313  -0.000164
    21  H    0.003355   0.001028
    22  H   -0.000001  -0.012544
    23  H    0.001993  -0.001834
    24  H   -0.000438  -0.013000
    25  H    0.480236  -0.012629
    26  H   -0.012629   0.422589
 Mulliken charges:
               1
     1  C   -1.038750
     2  C   -0.228267
     3  C   -0.228267
     4  C   -1.038750
     5  C   -1.038750
     6  C   -1.038750
     7  C   -1.038750
     8  C   -1.038750
     9  H    0.436212
    10  H    0.315187
    11  H    0.363440
    12  H    0.436212
    13  H    0.315187
    14  H    0.363440
    15  H    0.315187
    16  H    0.363440
    17  H    0.436212
    18  H    0.436212
    19  H    0.315187
    20  H    0.363440
    21  H    0.315187
    22  H    0.363440
    23  H    0.436212
    24  H    0.436212
    25  H    0.315187
    26  H    0.363440
 Sum of Mulliken charges =  -0.00000
 Mulliken charges with hydrogens summed into heavy atoms:
               1
     1  C    0.076089
     2  C   -0.228267
     3  C   -0.228267
     4  C    0.076089
     5  C    0.076089
     6  C    0.076089
     7  C    0.076089
     8  C    0.076089
 Electronic spatial extent (au):  <R**2>=           1058.5400
 Charge=             -0.0000 electrons
 Dipole moment (field-independent basis, Debye):
    X=             -0.0000    Y=             -0.0000    Z=             -0.0000  Tot=              0.0000
 Quadrupole moment (field-independent basis, Debye-Ang):
   XX=            -56.2495   YY=            -56.2495   ZZ=            -55.8834
   XY=              0.0000   XZ=              0.0000   YZ=             -0.0000
 Traceless Quadrupole moment (field-independent basis, Debye-Ang):
   XX=             -0.1220   YY=             -0.1220   ZZ=              0.2441
[...]
 Alpha virt. eigenvalues --    6.24597   6.24597   6.25706   6.26334   6.26334
 Alpha virt. eigenvalues --    6.28218   6.28853   6.28853   6.29395   6.30237
 Alpha virt. eigenvalues --    6.32305   6.32305   6.32902   6.34227   6.34227
 Alpha virt. eigenvalues --    6.34522   6.35589   6.35589   6.36217   6.36217
 Alpha virt. eigenvalues --    6.38424   6.38883   6.38883   6.40084   6.40084
 Alpha virt. eigenvalues --    6.41537   6.42601   6.42601   6.43530   6.43530
 Alpha virt. eigenvalues --    6.43753   6.45926   6.47376   6.47376   6.51660
 Alpha virt. eigenvalues --    6.51660   6.52279   6.55393   6.57417   6.57930
 Alpha virt. eigenvalues --    6.57930   6.60038   6.60038   6.61916   6.61916
 Alpha virt. eigenvalues --    6.63027   6.64350   6.64350   6.68343   6.68343
 Alpha virt. eigenvalues --    6.68449   6.70703   6.70800   6.70800   6.72572
 Alpha virt. eigenvalues --    6.75839   6.76153   6.76153   6.79251   6.80765
 Alpha virt. eigenvalues --    6.80765   6.82816   6.84484   6.84484   6.87029
 Alpha virt. eigenvalues --    6.88631   6.88631   6.89325   6.90343   6.90343
 Alpha virt. eigenvalues --    6.91851   6.93620   6.93620   6.95557   6.96105
 Alpha virt. eigenvalues --    6.96105   6.96156   6.97534   6.97534   6.99042
 Alpha virt. eigenvalues --    7.00096   7.05156   7.05156   7.06309   7.08025
 Alpha virt. eigenvalues --    7.08679   7.08679   7.10235   7.12647   7.17163
 Alpha virt. eigenvalues --    7.17163   7.17301   7.17301   7.18757   7.18757
 Alpha virt. eigenvalues --    7.23675   7.24938   7.24938   7.27304   7.29333
 Alpha virt. eigenvalues --    7.29333   7.29905   7.29905   7.37040   7.37040
 Alpha virt. eigenvalues --    7.39908   7.40178   7.40178   7.41214   7.41950
 Alpha virt. eigenvalues --    7.41950   7.43127   7.44610   7.44610   7.45948
 Alpha virt. eigenvalues --    7.47808   7.48702   7.48702   7.49452   7.50303
 Alpha virt. eigenvalues --    7.50726   7.50726   7.51759   7.55262   7.55262
 Alpha virt. eigenvalues --    7.55453   7.56487   7.56487   7.58196   7.58585
 Alpha virt. eigenvalues --    7.58585   7.61061   7.61061   7.62315   7.64723
 Alpha virt. eigenvalues --    7.64723   7.65102   7.65102   7.65610   7.68826
 Alpha virt. eigenvalues --    7.68826   7.69432   7.70132   7.70132   7.71123
 Alpha virt. eigenvalues --    7.71811   7.71811   7.73271   7.73641   7.74422
 Alpha virt. eigenvalues --    7.75094   7.75094   7.77961   7.77961   7.79022
 Alpha virt. eigenvalues --    7.79047   7.79047   7.81167   7.81167   7.82824
 Alpha virt. eigenvalues --    7.83100   7.83595   7.83595   7.86371   7.86371
 Alpha virt. eigenvalues --    7.90336   7.90336   7.91352   7.91352   7.91926
 Alpha virt. eigenvalues --    7.92305   7.96451   7.97354   7.97354   7.99360
 Alpha virt. eigenvalues --    8.01020   8.01020   8.01836   8.02957   8.06344
 Alpha virt. eigenvalues --    8.06948   8.06948   8.08619   8.09800   8.09800
 Alpha virt. eigenvalues --    8.11097   8.11097   8.12980   8.12980   8.13141
 Alpha virt. eigenvalues --    8.15650   8.15650   8.15886   8.16820   8.16820
 Alpha virt. eigenvalues --    8.18060   8.19762   8.19762   8.23131   8.25316
 Alpha virt. eigenvalues --    8.28340   8.28340   8.29746   8.30173   8.30173
 Alpha virt. eigenvalues --    8.32178   8.32178   8.33350   8.33703   8.35768
 Alpha virt. eigenvalues --    8.35768   8.35943   8.37365   8.38489   8.38489
 Alpha virt. eigenvalues --    8.39721   8.39721   8.42741   8.42741   8.43481
 Alpha virt. eigenvalues --    8.44791   8.44791   8.46936   8.46936   8.47479
 Alpha virt. eigenvalues --    8.48919   8.48919   8.49734   8.50284   8.52006
 Alpha virt. eigenvalues --    8.52006   8.52052   8.53866   8.53866   8.54160
 Alpha virt. eigenvalues --    8.55309   8.55309   8.56611   8.60246   8.63626
 Alpha virt. eigenvalues --    8.63626   8.63712   8.65071   8.65071   8.66984
 Alpha virt. eigenvalues --    8.66984   8.67149   8.69160   8.69160   8.71006
 Alpha virt. eigenvalues --    8.74975   8.75989   8.75989   8.78295   8.78295
 Alpha virt. eigenvalues --    8.78562   8.81154   8.81818   8.81818   8.83337
 Alpha virt. eigenvalues --    8.83337   8.83639   8.83731   8.87467   8.88857
 Alpha virt. eigenvalues --    8.88857   8.90749   8.90943   8.93343   8.93343
 Alpha virt. eigenvalues --    8.97223   8.97223   8.97301   8.97301   8.97530
 Alpha virt. eigenvalues --    8.99311   8.99565   9.00174   9.00174   9.00826
 Alpha virt. eigenvalues --    9.02064   9.02064   9.03175   9.05791   9.05791
 Alpha virt. eigenvalues --    9.06824   9.06824   9.10957   9.10957   9.11693
 Alpha virt. eigenvalues --    9.24073   9.26811   9.31183   9.31183   9.32264
 Alpha virt. eigenvalues --    9.32264   9.63885   9.65165   9.65165   9.65563
 Alpha virt. eigenvalues --    9.65563   9.67728   9.68261   9.69565   9.69565
 Alpha virt. eigenvalues --    9.69648   9.69648   9.72894   9.72894   9.73014
 Alpha virt. eigenvalues --    9.74549   9.74549   9.80943   9.80943   9.82494
 Alpha virt. eigenvalues --    9.85094   9.85094   9.85899   9.87133   9.88163
 Alpha virt. eigenvalues --    9.88168   9.88168   9.90454   9.90454   9.90675
 Alpha virt. eigenvalues --    9.92787  10.03116  10.03864  10.03864  10.06134
 Alpha virt. eigenvalues --   10.07048  10.07048  10.17734  10.21027  10.21027
 Alpha virt. eigenvalues --   10.21371  10.21371  10.21781  10.21901  10.23186
 Alpha virt. eigenvalues --   10.23186  10.24267  10.25872  10.25872  10.36032
 Alpha virt. eigenvalues --   10.45507  10.45507  10.46342  10.46342  10.46713
 Alpha virt. eigenvalues --   10.54857  10.57547  12.17223  12.24373  12.24373
 Alpha virt. eigenvalues --   12.26237  12.30245  12.30245  12.38626  12.38626
 Alpha virt. eigenvalues --   12.43049  12.43049  12.52069  12.60389  13.27815
 Alpha virt. eigenvalues --   13.27936  13.27936  13.30233  13.32025  13.32025
 Alpha virt. eigenvalues --   29.03216  29.09802  29.29532  29.33045  29.33045
 Alpha virt. eigenvalues --   29.37317  29.37317  29.38540 146.57528 146.63376
 Alpha virt. eigenvalues --  146.85432 146.85914 146.85914 146.89342 146.89342
 Alpha virt. eigenvalues --  146.94691
          Condensed to atoms (all electrons):
               1          2          3          4          5          6
     1  C    6.280575   0.193374  -0.018938   0.011875  -0.108264  -0.108264
     2  C    0.193374   6.513764  -0.426431  -0.018938   0.193374   0.193374
     3  C   -0.018938  -0.426431   6.513764   0.193374  -0.018938  -0.018938
     4  C    0.011875  -0.018938   0.193374   6.280575  -0.037935   0.023425
     5  C   -0.108264   0.193374  -0.018938  -0.037935   6.280575  -0.108264
     6  C   -0.108264   0.193374  -0.018938   0.023425  -0.108264   6.280575
     7  C   -0.037935  -0.018938   0.193374  -0.108264   0.023425   0.011875
     8  C    0.023425  -0.018938   0.193374  -0.108264   0.011875  -0.037935
     9  H    0.260882  -0.090569   0.038705  -0.031659   0.024904   0.009451
    10  H    0.306036  -0.076594   0.010267  -0.001823   0.005815   0.011471
    11  H    0.313521  -0.006495  -0.002772   0.000616  -0.031843  -0.014727
    12  H   -0.031659   0.038705  -0.090569   0.260882  -0.021899   0.000692
    13  H   -0.001823   0.010267  -0.076594   0.306036  -0.033492   0.001496
    14  H    0.000616  -0.002772  -0.006495   0.313521   0.004270  -0.000809
    15  H    0.011471  -0.076594   0.010267  -0.033492   0.306036   0.005815
    16  H   -0.014727  -0.006495  -0.002772   0.004270   0.313521  -0.031843
    17  H    0.009451  -0.090569   0.038705  -0.021899   0.260882   0.024904
    18  H    0.024904  -0.090569   0.038705   0.000692   0.009451   0.260882
    19  H    0.005815  -0.076594   0.010267   0.001496   0.011471   0.306036
    20  H   -0.031843  -0.006495  -0.002772  -0.000809  -0.014727   0.313521
    21  H   -0.033492   0.010267  -0.076594   0.011471   0.001496  -0.001823
    22  H    0.004270  -0.002772  -0.006495  -0.014727  -0.000809   0.000616
    23  H   -0.021899   0.038705  -0.090569   0.009451   0.000692  -0.031659
    24  H    0.000692   0.038705  -0.090569   0.024904  -0.031659  -0.021899
    25  H    0.001496   0.010267  -0.076594   0.005815  -0.001823  -0.033492
    26  H   -0.000809  -0.002772  -0.006495  -0.031843   0.000616   0.004270
               7          8          9         10         11         12
     1  C   -0.037935   0.023425   0.260882   0.306036   0.313521  -0.031659
     2  C   -0.018938  -0.018938  -0.090569  -0.076594  -0.006495   0.038705
     3  C    0.193374   0.193374   0.038705   0.010267  -0.002772  -0.090569
     4  C   -0.108264  -0.108264  -0.031659  -0.001823   0.000616   0.260882
     5  C    0.023425   0.011875   0.024904   0.005815  -0.031843  -0.021899
     6  C    0.011875  -0.037935   0.009451   0.011471  -0.014727   0.000692
     7  C    6.280575  -0.108264  -0.021899  -0.033492   0.004270   0.024904
     8  C   -0.108264   6.280575   0.000692   0.001496  -0.000809   0.009451
     9  H   -0.021899   0.000692   0.403882  -0.000438  -0.013000  -0.022889
    10  H   -0.033492   0.001496  -0.000438   0.480236  -0.012629   0.001878
    11  H    0.004270  -0.000809  -0.013000  -0.012629   0.422589  -0.000106
    12  H    0.024904   0.009451  -0.022889   0.001878  -0.000106   0.403882
    13  H    0.005815   0.011471   0.001878   0.000703   0.000393  -0.000438
    14  H   -0.031843  -0.014727  -0.000106   0.000393   0.000078  -0.013000
    15  H    0.001496  -0.001823   0.001993   0.003355  -0.000001  -0.003119
    16  H   -0.000809   0.000616  -0.001834   0.001028  -0.012544   0.000673
    17  H    0.000692  -0.031659   0.001198   0.001101   0.002651   0.000719
    18  H   -0.031659  -0.021899   0.001198   0.001993  -0.001834  -0.000408
    19  H   -0.001823  -0.033492   0.001101   0.003355   0.001028  -0.000148
    20  H    0.000616   0.004270   0.002651  -0.000001  -0.012544  -0.000070
    21  H    0.306036   0.005815  -0.003119  -0.016389   0.000313   0.001993
    22  H    0.313521  -0.031843   0.000673   0.000313  -0.000164  -0.001834
    23  H    0.260882   0.024904   0.000719  -0.003119   0.000673   0.001198
    24  H    0.009451   0.260882  -0.000408  -0.000148  -0.000070   0.001198
    25  H    0.011471   0.306036  -0.000148   0.000072  -0.000067   0.001101
    26  H   -0.014727   0.313521  -0.000070  -0.000067   0.000033   0.002651
              13         14         15         16         17         18
     1  C   -0.001823   0.000616   0.011471  -0.014727   0.009451   0.024904
     2  C    0.010267  -0.002772  -0.076594  -0.006495  -0.090569  -0.090569
     3  C   -0.076594  -0.006495   0.010267  -0.002772   0.038705   0.038705
     4  C    0.306036   0.313521  -0.033492   0.004270  -0.021899   0.000692
     5  C   -0.033492   0.004270   0.306036   0.313521   0.260882   0.009451
     6  C    0.001496  -0.000809   0.005815  -0.031843   0.024904   0.260882
     7  C    0.005815  -0.031843   0.001496  -0.000809   0.000692  -0.031659
     8  C    0.011471  -0.014727  -0.001823   0.000616  -0.031659  -0.021899
     9  H    0.001878  -0.000106   0.001993  -0.001834   0.001198   0.001198
    10  H    0.000703   0.000393   0.003355   0.001028   0.001101   0.001993
    11  H    0.000393   0.000078  -0.000001  -0.012544   0.002651  -0.001834
    12  H   -0.000438  -0.013000  -0.003119   0.000673   0.000719  -0.000408
    13  H    0.480236  -0.012629  -0.016389   0.000313  -0.003119  -0.000148
    14  H   -0.012629   0.422589   0.000313  -0.000164   0.000673  -0.000070
    15  H   -0.016389   0.000313   0.480236  -0.012629  -0.000438   0.001101
    16  H    0.000313  -0.000164  -0.012629   0.422589  -0.013000   0.002651
    17  H   -0.003119   0.000673  -0.000438  -0.013000   0.403882   0.001198
    18  H   -0.000148  -0.000070   0.001101   0.002651   0.001198   0.403882
    19  H    0.000072  -0.000067   0.003355  -0.000001   0.001993  -0.000438
    20  H   -0.000067   0.000033   0.001028  -0.012544  -0.001834  -0.013000
    21  H    0.003355  -0.000001   0.000072  -0.000067  -0.000148   0.001878
    22  H    0.001028  -0.012544  -0.000067   0.000033  -0.000070  -0.000106
    23  H    0.001101   0.002651  -0.000148  -0.000070  -0.000408  -0.022889
    24  H    0.001993  -0.001834   0.001878  -0.000106  -0.022889   0.000719
    25  H    0.003355   0.001028   0.000703   0.000393   0.001878  -0.003119
    26  H   -0.000001  -0.012544   0.000393   0.000078  -0.000106   0.000673
              19         20         21         22         23         24
     1  C    0.005815  -0.031843  -0.033492   0.004270  -0.021899   0.000692
     2  C   -0.076594  -0.006495   0.010267  -0.002772   0.038705   0.038705
     3  C    0.010267  -0.002772  -0.076594  -0.006495  -0.090569  -0.090569
     4  C    0.001496  -0.000809   0.011471  -0.014727   0.009451   0.024904
     5  C    0.011471  -0.014727   0.001496  -0.000809   0.000692  -0.031659
     6  C    0.306036   0.313521  -0.001823   0.000616  -0.031659  -0.021899
     7  C   -0.001823   0.000616   0.306036   0.313521   0.260882   0.009451
     8  C   -0.033492   0.004270   0.005815  -0.031843   0.024904   0.260882
     9  H    0.001101   0.002651  -0.003119   0.000673   0.000719  -0.000408
    10  H    0.003355  -0.000001  -0.016389   0.000313  -0.003119  -0.000148
    11  H    0.001028  -0.012544   0.000313  -0.000164   0.000673  -0.000070
    12  H   -0.000148  -0.000070   0.001993  -0.001834   0.001198   0.001198
    13  H    0.000072  -0.000067   0.003355   0.001028   0.001101   0.001993
    14  H   -0.000067   0.000033  -0.000001  -0.012544   0.002651  -0.001834
    15  H    0.003355   0.001028   0.000072  -0.000067  -0.000148   0.001878
    16  H   -0.000001  -0.012544  -0.000067   0.000033  -0.000070  -0.000106
    17  H    0.001993  -0.001834  -0.000148  -0.000070  -0.000408  -0.022889
    18  H   -0.000438  -0.013000   0.001878  -0.000106  -0.022889   0.000719
    19  H    0.480236  -0.012629   0.000703   0.000393   0.001878  -0.003119
    20  H   -0.012629   0.422589   0.000393   0.000078  -0.000106   0.000673
    21  H    0.000703   0.000393   0.480236  -0.012629  -0.000438   0.001101
    22  H    0.000393   0.000078  -0.012629   0.422589  -0.013000   0.002651
    23  H    0.001878  -0.000106  -0.000438  -0.013000   0.403882   0.001198
    24  H   -0.003119   0.000673   0.001101   0.002651   0.001198   0.403882
    25  H   -0.016389   0.000313   0.003355  -0.000001   0.001993  -0.000438
    26  H    0.000313  -0.000164   0.001028  -0.012544  -0.001834  -0.013000
              25         26
     1  C    0.001496  -0.000809
     2  C    0.010267  -0.002772
     3  C   -0.076594  -0.006495
     4  C    0.005815  -0.031843
     5  C   -0.001823   0.000616
     6  C   -0.033492   0.004270
     7  C    0.011471  -0.014727
     8  C    0.306036   0.313521
     9  H   -0.000148  -0.000070
    10  H    0.000072  -0.000067
    11  H   -0.000067   0.000033
    12  H    0.001101   0.002651
    13  H    0.003355  -0.000001
    14  H    0.001028  -0.012544
    15  H    0.000703   0.000393
    16  H    0.000393   0.000078
    17  H    0.001878  -0.000106
    18  H   -0.003119   0.000673
    19  H   -0.016389   0.000313
    20  H    0.000313  -0.000164
    21  H    0.003355   0.001028
    22  H   -0.000001  -0.012544
    23  H    0.001993  -0.001834
    24  H   -0.000438  -0.013000
    25  H    0.480236  -0.012629
    26  H   -0.012629   0.422589
 Mulliken charges:
               1
     1  C   -1.038750
     2  C   -0.228267
     3  C   -0.228267
     4  C   -1.038750
     5  C   -1.038750
     6  C   -1.038750
     7  C   -1.038750
     8  C   -1.038750
     9  H    0.436212
    10  H    0.315187
    11  H    0.363440
    12  H    0.436212
    13  H    0.315187
    14  H    0.363440
    15  H    0.315187
    16  H    0.363440
    17  H    0.436212
    18  H    0.436212
    19  H    0.315187
    20  H    0.363440
    21  H    0.315187
    22  H    0.363440
    23  H    0.436212
    24  H    0.436212
    25  H    0.315187
    26  H    0.363440
 Sum of Mulliken charges =  -0.00000
 Mulliken charges with hydrogens summed into heavy atoms:
               1
     1  C    0.076089
     2  C   -0.228267
     3  C   -0.228267
     4  C    0.076089
     5  C    0.076089
     6  C    0.076089
     7  C    0.076089
     8  C    0.076089
 Electronic spatial extent (au):  <R**2>=           1058.5400
 Charge=             -0.0000 electrons
 Dipole moment (field-independent basis, Debye):
    X=             -0.0000    Y=             -0.0000    Z=             -0.0000  Tot=              0.0000
 Quadrupole moment (field-independent basis, Debye-Ang):
   XX=            -56.2495   YY=            -56.2495   ZZ=            -55.8834
   XY=              0.0000   XZ=              0.0000   YZ=             -0.0000
 Traceless Quadrupole moment (field-independent basis, Debye-Ang):
   XX=             -0.1220   YY=             -0.1220   ZZ=              0.2441
   XY=              0.0000   XZ=              0.0000   YZ=             -0.0000
 Octapole moment (field-independent basis, Debye-Ang**2):
  XXX=              0.0000  YYY=              1.4957  ZZZ=              0.0000  XYY=              0.0000
  XXY=             -1.4957  XXZ=             -0.0000  XZZ=             -0.0000  YZZ=             -0.0000
  YYZ=             -0.0000  XYZ=             -0.0000
 Hexadecapole moment (field-independent basis, Debye-Ang**3):
 XXXX=           -420.5869 YYYY=           -420.5869 ZZZZ=           -647.7738 XXXY=              0.0000
 XXXZ=             -3.5389 YYYX=             -0.0000 YYYZ=             -0.0000 ZZZX=              0.0000
 ZZZY=              0.0000 XXYY=           -140.1956 XXZZ=           -190.8579 YYZZ=           -190.8579
 XXYZ=              0.0000 YYXZ=              3.5389 ZZXY=             -0.0000
 N-N= 4.400727536059D+02 E-N=-1.610030275199D+03  KE= 3.141964134599D+02
 PrsmSu:  requested number of processors reduced to:  18 ShMem   1 Linda.
 No NMR shielding tensors so no spin-rotation constants.
 Leave Link  601 at Sun Apr 18 07:01:42 2021, MaxMem=   104857600 cpu:            1469.9 elap:              31.9
 (Enter /s/ls4/users/knvvv/bin/g16sse/l9999.exe)

 Test job not archived.
 1\1\GINC-N151\Stability\RM062X\Gen\C8H18\KNVVV\18-Apr-2021\0\\#P M062X
 /GEN Integral=UltraFineGrid SCF=NoSymm Stable=(RExt, Opt) IOp(1/33=1)\
 \Database calculations.\\0,1\C,0,1.1453756107,-0.8524956873,-1.3371439
 778\C,0,0.,0.,-0.7824726295\C,0,0.,0.,0.7824726295\C,0,1.1453756107,0.
 8524956873,1.3371439778\C,0,0.1655951165,1.4181722194,-1.3371439778\C,
 0,-1.3109707272,-0.5656765321,-1.3371439778\C,0,0.1655951165,-1.418172
 2194,1.3371439778\C,0,-1.3109707272,0.5656765321,1.3371439778\H,0,2.11
 01211704,-0.5614006342,-0.9219423032\H,0,0.9928652929,-1.9123314989,-1
 .1379462079\H,0,1.2010962897,-0.724944937,-2.4193277149\H,0,2.11012117
 04,0.5614006342,0.9219423032\H,0,0.9928652929,1.9123314989,1.137946207
 9\H,0,1.2010962897,0.724944937,2.4193277149\H,0,1.1596950121,1.8160123
 156,-1.1379462079\H,0,0.027272587,1.4026523678,-2.4193277149\H,0,-0.56
 88733743,2.1081188557,-0.9219423032\H,0,-1.5412477961,-1.5467182215,-0
 .9219423032\H,0,-2.152560305,0.0963191833,-1.1379462079\H,0,-1.2283688
 767,-0.6777074307,-2.4193277149\H,0,1.1596950121,-1.8160123156,1.13794
 62079\H,0,0.027272587,-1.4026523678,2.4193277149\H,0,-0.5688733743,-2.
 1081188557,0.9219423032\H,0,-1.5412477961,1.5467182215,0.9219423032\H,
 0,-2.152560305,-0.0963191833,1.1379462079\H,0,-1.2283688767,0.67770743
 07,2.4193277149\\Version=ES64L-G16RevA.03\State=1-A1\HF=-315.6851357\R
 MSD=8.446e-10\Dipole=0.,0.,0.\Quadrupole=-0.0907347,-0.0907347,0.18146
 95,0.,0.,0.\PG=D03 [C3(C1.C1),X(C6H18)]\\@


 I DON'T EXACTLY UNDERSTAND WHAT YOU ARE SAYING,
 BUT YOU ARE ABSOLUTELY RIGHT.
     M.S.GORDON, IN A NDSU FACULTY MEETING
 Job cpu time:       7 days 17 hours  7 minutes  5.5 seconds.
 Elapsed time:       0 days  9 hours 44 minutes 23.5 seconds.
 File lengths (MBytes):  RWF=   1796 Int=      0 D2E=      0 Chk=    127 Scr=      1
 Normal termination of Gaussian 16 at Sun Apr 18 07:01:42 2021.
