 Entering Gaussian System, Link 0=/s/ls4/users/knvvv/bin/g16sse/g16
 Input=data/database/M062X--def2-QZVP--MB16-43_19.gjf
 Output=data/database/M062X--def2-QZVP--MB16-43_19.log
 Initial command:
 /s/ls4/users/knvvv/bin/g16sse/l1.exe "/s/ls4/users/knvvv/bin/scratch/Gau-7563.inp" -scrdir="/s/ls4/users/knvvv/bin/scratch/"
 Entering Link 1 = /s/ls4/users/knvvv/bin/g16sse/l1.exe PID=      7564.
  
 Copyright (c) 1988,1990,1992,1993,1995,1998,2003,2009,2016,
            Gaussian, Inc.  All Rights Reserved.
  
 This is part of the Gaussian(R) 16 program.  It is based on
 the Gaussian(R) 09 system (copyright 2009, Gaussian, Inc.),
 the Gaussian(R) 03 system (copyright 2003, Gaussian, Inc.),
 the Gaussian(R) 98 system (copyright 1998, Gaussian, Inc.),
 the Gaussian(R) 94 system (copyright 1995, Gaussian, Inc.),
 the Gaussian 92(TM) system (copyright 1992, Gaussian, Inc.),
 the Gaussian 90(TM) system (copyright 1990, Gaussian, Inc.),
 the Gaussian 88(TM) system (copyright 1988, Gaussian, Inc.),
 the Gaussian 86(TM) system (copyright 1986, Carnegie Mellon
 University), and the Gaussian 82(TM) system (copyright 1983,
 Carnegie Mellon University). Gaussian is a federally registered
 trademark of Gaussian, Inc.
  
 This software contains proprietary and confidential information,
 including trade secrets, belonging to Gaussian, Inc.
  
 This software is provided under written license and may be
 used, copied, transmitted, or stored only in accord with that
 written license.
  
 The following legend is applicable only to US Government
 contracts under FAR:
  
                    RESTRICTED RIGHTS LEGEND
  
 Use, reproduction and disclosure by the US Government is
 subject to restrictions as set forth in subparagraphs (a)
 and (c) of the Commercial Computer Software - Restricted
 Rights clause in FAR 52.227-19.
  
 Gaussian, Inc.
 340 Quinnipiac St., Bldg. 40, Wallingford CT 06492
  
  
 ---------------------------------------------------------------
 Warning -- This program may not be used in any manner that
 competes with the business of Gaussian, Inc. or will provide
 assistance to any competitor of Gaussian, Inc.  The licensee
 of this program is prohibited from giving any competitor of
 Gaussian, Inc. access to this program.  By using this program,
 the user acknowledges that Gaussian, Inc. is engaged in the
 business of creating and licensing software in the field of
 computational chemistry and represents and warrants to the
 licensee that it is not a competitor of Gaussian, Inc. and that
 it will not use this program in any manner prohibited above.
 ---------------------------------------------------------------
  

 Cite this work as:
 Gaussian 16, Revision A.03,
 M. J. Frisch, G. W. Trucks, H. B. Schlegel, G. E. Scuseria, 
 M. A. Robb, J. R. Cheeseman, G. Scalmani, V. Barone, 
 G. A. Petersson, H. Nakatsuji, X. Li, M. Caricato, A. V. Marenich, 
 J. Bloino, B. G. Janesko, R. Gomperts, B. Mennucci, H. P. Hratchian, 
 J. V. Ortiz, A. F. Izmaylov, J. L. Sonnenberg, D. Williams-Young, 
 F. Ding, F. Lipparini, F. Egidi, J. Goings, B. Peng, A. Petrone, 
 T. Henderson, D. Ranasinghe, V. G. Zakrzewski, J. Gao, N. Rega, 
 G. Zheng, W. Liang, M. Hada, M. Ehara, K. Toyota, R. Fukuda, 
 J. Hasegawa, M. Ishida, T. Nakajima, Y. Honda, O. Kitao, H. Nakai, 
 T. Vreven, K. Throssell, J. A. Montgomery, Jr., J. E. Peralta, 
 F. Ogliaro, M. J. Bearpark, J. J. Heyd, E. N. Brothers, K. N. Kudin, 
 V. N. Staroverov, T. A. Keith, R. Kobayashi, J. Normand, 
 K. Raghavachari, A. P. Rendell, J. C. Burant, S. S. Iyengar, 
 J. Tomasi, M. Cossi, J. M. Millam, M. Klene, C. Adamo, R. Cammi, 
 J. W. Ochterski, R. L. Martin, K. Morokuma, O. Farkas, 
 J. B. Foresman, and D. J. Fox, Gaussian, Inc., Wallingford CT, 2016.
 
 ******************************************
 Gaussian 16:  ES64L-G16RevA.03 25-Dec-2016
                17-Apr-2021 
 ******************************************
 %RWF=temp0_19698,70GB
 %nprocshared=48
 Will use up to   48 processors via shared memory.
 Default route: MaxDisk=80GB
 ----------------------------------------------------------------------
 #P M062X/Def2QZVP Integral=UltraFineGrid SCF=NoSymm Stable=(RExt, Opt)
  IOp(1/33=1)
 ----------------------------------------------------------------------
 1/33=1,38=1,172=1/1;
 2/12=2,17=6,18=5,40=1/2;
 3/5=45,7=101,11=2,25=1,30=1,74=-55,75=-5/1,2,3;
 4/9=2/1;
 5/5=2,38=5/2;
 6/7=2,8=2,9=2,10=2,28=1/1;
 8/6=1,10=90,11=11/1;
 9/8=-3,42=1,46=1/14;
 5/5=2,8=3,17=40,38=5/8(-2);
 6/7=2,8=2,9=2,10=2,28=1/1;
 99/5=1,9=1/99;
 Leave Link    1 at Sat Apr 17 05:37:08 2021, MaxMem=           0 cpu:              11.2 elap:               0.3
 (Enter /s/ls4/users/knvvv/bin/g16sse/l101.exe)
 ONIOM data not found on unit 2.
 ----------------------
 Database calculations.
 ----------------------
 TstMul:  ICh=     0
 TstMul:  Mul=     1
 TstMul:  ICh=     0
 TstMul:  Mul=     1
 Symbolic Z-matrix:
 Charge =  0 Multiplicity = 1
 H                    -1.13314  -0.71123  -1.2303 
 F                     2.36368  -1.08376   0.23507 
 P                    -2.60468  -0.91936   0.51272 
 Al                   -0.69304  -0.28034   1.82277 
 H                    -2.29773  -2.27795   0.21108 
 H                     0.32697   1.38901  -1.73691 
 Al                    2.2414   -0.89346  -1.87236 
 B                     1.18075   1.02438  -0.95455 
 Li                   -1.2292    1.53781  -0.73918 
 P                     1.24123   1.51384   0.96748 
 O                    -1.93907  -0.22707  -0.96288 
 H                    -0.18483  -0.93129   3.16457 
 H                     0.15611  -1.05955   0.28059 
 B                     1.11365  -0.30026   0.16392 
 S                    -0.84327   1.9536    1.52339 
 H                     2.30117   1.26564  -1.3854 
 
 RdStrC is calling ZToCFu for IStruc=1 NZ=    16.
 PrtBox:  NBox=     3 Levels=  1 BoxLen=    8.00 SMaxX=        9.52
          Shift=            4.922124            4.304701            3.538242
 Box      1 Number                   0 centers from      1 to     12:
 Box      2 Number                   1 centers from     13 to     13:
 Box      3 Number                   4 centers from     14 to     16:
 After GenITR:
 ITRead=  0  0  0  0  0  0  0  0  0  0  0  0  0  0  0  0
 MicOpt= -1 -1 -1 -1 -1 -1 -1 -1 -1 -1 -1 -1 -1 -1 -1 -1
 ITRead=  0  0  0  0  0  0  0  0  0  0  0  0  0  0  0  0
 MicOpt= -1 -1 -1 -1 -1 -1 -1 -1 -1 -1 -1 -1 -1 -1 -1 -1
 NAtoms=     16 NQM=       16 NQMF=       0 NMMI=      0 NMMIF=      0
                NMic=       0 NMicF=      0.
                    Isotopes and Nuclear Properties:
 (Nuclear quadrupole moments (NQMom) in fm**2, nuclear magnetic moments (NMagM)
  in nuclear magnetons)

  Atom         1           2           3           4           5           6           7           8           9          10
 IAtWgt=           1          19          31          27           1           1          27          11           7          31
 AtmWgt=   1.0078250  18.9984033  30.9737634  26.9815413   1.0078250   1.0078250  26.9815413  11.0093053   7.0160045  30.9737634
 NucSpn=           1           1           1           5           1           1           5           3           3           1
 AtZEff=  -0.0000000  -0.0000000  -0.0000000  -0.0000000  -0.0000000  -0.0000000  -0.0000000  -0.0000000  -0.0000000  -0.0000000
 NQMom=    0.0000000   0.0000000   0.0000000  14.6600000   0.0000000   0.0000000  14.6600000   4.0590000  -4.0100000   0.0000000
 NMagM=    2.7928460   2.6288670   1.1316000   3.6415040   2.7928460   2.7928460   3.6415040   2.6886370   3.2564240   1.1316000
 AtZNuc=   1.0000000   9.0000000  15.0000000  13.0000000   1.0000000   1.0000000  13.0000000   5.0000000   3.0000000  15.0000000

  Atom        11          12          13          14          15          16
 IAtWgt=          16           1           1          11          32           1
 AtmWgt=  15.9949146   1.0078250   1.0078250  11.0093053  31.9720718   1.0078250
 NucSpn=           0           1           1           3           0           1
 AtZEff=  -0.0000000  -0.0000000  -0.0000000  -0.0000000  -0.0000000  -0.0000000
 NQMom=    0.0000000   0.0000000   0.0000000   4.0590000   0.0000000   0.0000000
 NMagM=    0.0000000   2.7928460   2.7928460   2.6886370   0.0000000   2.7928460
 AtZNuc=   8.0000000   1.0000000   1.0000000   5.0000000  16.0000000   1.0000000
 No MM parameters found.
 Leave Link  101 at Sat Apr 17 05:37:08 2021, MaxMem=   104857600 cpu:               9.7 elap:               0.2
 (Enter /s/ls4/users/knvvv/bin/g16sse/l202.exe)
                          Input orientation:                          
 ---------------------------------------------------------------------
 Center     Atomic      Atomic             Coordinates (Angstroms)
 Number     Number       Type             X           Y           Z
 ---------------------------------------------------------------------
      1          1           0       -1.133138   -0.711228   -1.230297
      2          9           0        2.363682   -1.083755    0.235073
      3         15           0       -2.604676   -0.919362    0.512721
      4         13           0       -0.693043   -0.280344    1.822769
      5          1           0       -2.297733   -2.277950    0.211075
      6          1           0        0.326970    1.389006   -1.736912
      7         13           0        2.241398   -0.893459   -1.872357
      8          5           0        1.180753    1.024380   -0.954554
      9          3           0       -1.229201    1.537809   -0.739180
     10         15           0        1.241227    1.513840    0.967480
     11          8           0       -1.939071   -0.227071   -0.962877
     12          1           0       -0.184830   -0.931289    3.164571
     13          1           0        0.156112   -1.059551    0.280588
     14          5           0        1.113650   -0.300263    0.163916
     15         16           0       -0.843272    1.953596    1.523386
     16          1           0        2.301173    1.265641   -1.385401
 ---------------------------------------------------------------------
                    Distance matrix (angstroms):
                    1          2          3          4          5
     1  H    0.000000
     2  F    3.809703   0.000000
     3  P    2.290602   4.978824   0.000000
     4  Al   3.114571   3.536921   2.403936   0.000000
     5  H    2.426613   4.812013   1.425120   3.027048   0.000000
     6  H    2.607596   3.761844   4.357058   4.061832   4.912259
     7  Al   3.439904   2.119535   5.401268   4.758235   5.182780
     8  B    2.905591   2.694210   4.501167   3.595405   4.935984
     9  Li   2.304039   4.553085   3.081700   3.186963   4.074894
    10  P    3.926672   2.922982   4.573646   2.773448   5.241570
    11  O    0.977471   4.547821   1.760593   3.052089   2.390169
    12  H    4.501398   3.885887   3.590000   1.575577   3.873112
    13  H    2.016498   2.208172   2.774074   1.925239   2.740562
    14  B    2.675963   1.476992   3.785617   2.452820   3.943476
    15  S    3.842925   4.601065   3.518220   2.258912   4.663003
    16  H    3.965672   2.854734   5.696003   4.652714   6.021271
                    6          7          8          9         10
     6  H    0.000000
     7  Al   2.982117   0.000000
     8  B    1.214076   2.376012   0.000000
     9  Li   1.854530   4.386367   2.473434   0.000000
    10  P    2.857479   3.854880   1.984299   3.002712   0.000000
    11  O    2.888906   4.329843   3.361473   1.915400   4.107473
    12  H    5.447040   5.590944   4.759900   4.735655   3.583225
    13  H    3.177252   3.001862   2.630253   3.115333   2.876045
    14  B    2.661887   2.402104   1.734980   3.111759   1.988205
    15  S    3.509668   5.399257   3.331712   2.332600   2.201715
    16  H    2.009043   2.214139   1.224408   3.599336   2.592516
                   11         12         13         14         15
    11  O    0.000000
    12  H    4.539726   0.000000
    13  H    2.574687   2.906897   0.000000
    14  B    3.254861   3.329891   1.227604   0.000000
    15  S    3.483903   3.383725   3.409159   3.279874   0.000000
    16  H    4.515128   5.631071   3.575377   2.502528   4.338416
                   16
    16  H    0.000000
 Stoichiometry    Al2B2FH6LiOP2S
 Framework group  C1[X(Al2B2FH6LiOP2S)]
 Deg. of freedom    42
 Full point group                 C1      NOp   1
 Largest Abelian subgroup         C1      NOp   1
 Largest concise Abelian subgroup C1      NOp   1
                         Standard orientation:                         
 ---------------------------------------------------------------------
 Center     Atomic      Atomic             Coordinates (Angstroms)
 Number     Number       Type             X           Y           Z
 ---------------------------------------------------------------------
      1          1           0       -0.303576   -1.909073   -0.829420
      2          9           0        2.309933   -0.210912    1.361391
      3         15           0       -2.329541   -1.585749    0.189299
      4         13           0       -1.191437    0.267154    1.214178
      5          1           0       -1.793910   -2.684853    0.921444
      6          1           0        1.021247   -0.108059   -2.171339
      7         13           0        3.039442   -1.281745   -0.315976
      8          5           0        1.513240    0.335132   -1.153740
      9          3           0       -0.812868    0.043047   -1.942274
     10         15           0        0.736165    1.798964   -0.062505
     11          8           0       -1.191960   -1.660210   -1.152362
     12          1           0       -1.213004    0.689392    2.731970
     13          1           0        0.285055   -0.902329    0.815647
     14          5           0        1.126942   -0.071059    0.488191
     15         16           0       -1.426090    1.749076   -0.474470
     16          1           0        2.682182    0.651559   -1.334362
 ---------------------------------------------------------------------
 Rotational constants (GHZ):           0.9219959           0.5704156           0.4595267
 Leave Link  202 at Sat Apr 17 05:37:09 2021, MaxMem=   104857600 cpu:               6.5 elap:               0.2
 (Enter /s/ls4/users/knvvv/bin/g16sse/l301.exe)
 Standard basis: def2QZVP (5D, 7F)
 Ernie: Thresh=  0.10000D-02 Tol=  0.10000D-05 Strict=F.
 There are   968 symmetry adapted cartesian basis functions of A   symmetry.
 There are   793 symmetry adapted basis functions of A   symmetry.
   793 basis functions,  1256 primitive gaussians,   968 cartesian basis functions
    54 alpha electrons       54 beta electrons
       nuclear repulsion energy       893.9688523447 Hartrees.
 IExCor= 4336 DFT=T Ex+Corr=M062X ExCW=0 ScaHFX=  0.540000
 ScaDFX=  1.000000  1.000000  1.000000  1.000000 ScalE2=  1.000000  1.000000
 IRadAn=      5 IRanWt=     -1 IRanGd=            0 ICorTp=0 IEmpDi=  4
 NAtoms=   16 NActive=   16 NUniq=   16 SFac= 1.00D+00 NAtFMM=   60 NAOKFM=F Big=F
 Integral buffers will be    131072 words long.
 Raffenetti 2 integral format.
 Two-electron integral symmetry is turned on.
 Leave Link  301 at Sat Apr 17 05:37:09 2021, MaxMem=   104857600 cpu:               7.0 elap:               0.2
 (Enter /s/ls4/users/knvvv/bin/g16sse/l302.exe)
 NPDir=0 NMtPBC=     1 NCelOv=     1 NCel=       1 NClECP=     1 NCelD=      1
         NCelK=      1 NCelE2=     1 NClLst=     1 CellRange=     0.0.
 One-electron integrals computed using PRISM.
 One-electron integral symmetry used in STVInt
 PrsmSu:  requested number of processors reduced to:   4 ShMem   1 Linda.
 PrsmSu:  requested number of processors reduced to:  18 ShMem   1 Linda.
   1 Symmetry operations used in ECPInt.
 ECPInt:  NShTT=   31626 NPrTT=   90293 LenC2=   29262 LenP2D=   62578.
 LDataN:  DoStor=T MaxTD1= 8 Len=  415
 Number of processors reduced to  10 by ecpmxn.
 NBasis=   793 RedAO= T EigKep=  1.92D-05  NBF=   793
 NBsUse=   793 1.00D-06 EigRej= -1.00D+00 NBFU=   793
 Precomputing XC quadrature grid using
 IXCGrd= 4 IRadAn=           5 IRanWt=          -1 IRanGd=           0 AccXCQ= 0.00D+00.
 Generated NRdTot=       0 NPtTot=           0 NUsed=           0 NTot=          32
 NSgBfM=   964   964   964   964   964 MxSgAt=    16 MxSgA2=    16.
 Leave Link  302 at Sat Apr 17 05:37:28 2021, MaxMem=   104857600 cpu:             889.7 elap:              19.1
 (Enter /s/ls4/users/knvvv/bin/g16sse/l303.exe)
 DipDrv:  MaxL=1.
 Leave Link  303 at Sat Apr 17 05:37:38 2021, MaxMem=   104857600 cpu:             458.3 elap:               9.8
 (Enter /s/ls4/users/knvvv/bin/g16sse/l401.exe)
 SCF N**3 symmetry information disabled.
 ExpMin= 2.05D-02 ExpMax= 1.27D+06 ExpMxC= 1.45D+03 IAcc=3 IRadAn=         5 AccDes= 0.00D+00
 Harris functional with IExCor= 1009 and IRadAn=       5 diagonalized for initial guess.
 HarFok:  IExCor= 1009 AccDes= 0.00D+00 IRadAn=         5 IDoV= 1 UseB2=F ITyADJ=14
 ICtDFT=  3500011 ScaDFX=  1.000000  1.000000  1.000000  1.000000
 CalDSu:  requested number of processors reduced to:  45 ShMem   1 Linda.
 FoFCou: FMM=F IPFlag=           0 FMFlag=      100000 FMFlg1=           0
         NFxFlg=           0 DoJE=T BraDBF=F KetDBF=T FulRan=T
         wScrn=  0.000000 ICntrl=       500 IOpCl=  0 I1Cent=   200000004 NGrid=           0
         NMat0=    1 NMatS0=      1 NMatT0=    0 NMatD0=    1 NMtDS0=    0 NMtDT0=    0
 Petite list used in FoFCou.
 CoulSu:  requested number of processors reduced to:  15 ShMem   1 Linda.
 CoulSu:  requested number of processors reduced to:  16 ShMem   1 Linda.
 CoulSu:  requested number of processors reduced to:  21 ShMem   1 Linda.
 CoulSu:  requested number of processors reduced to:  21 ShMem   1 Linda.
 Harris En= -1801.01104905967    
 JPrj=0 DoOrth=F DoCkMO=F.
 Leave Link  401 at Sat Apr 17 05:37:47 2021, MaxMem=   104857600 cpu:             406.2 elap:               9.4
 (Enter /s/ls4/users/knvvv/bin/g16sse/l502.exe)
 Integral symmetry usage will be decided dynamically.
 Closed shell SCF:
 Using DIIS extrapolation, IDIIS=  1040.
 NGot=   104857600 LenX=   102929504 LenY=   101991512
 Requested convergence on RMS density matrix=1.00D-08 within 128 cycles.
 Requested convergence on MAX density matrix=1.00D-06.
 Requested convergence on             energy=1.00D-06.
 No special actions if energy rises.
 Fock matrices will be formed incrementally for  20 cycles.

 Cycle   1  Pass 1  IDiag  1:
 FoFJK:  IHMeth= 1 ICntrl=       0 DoSepK=F KAlg= 0 I1Cent=           0 FoldK=F
 IRaf= 880000000 NMat=       1 IRICut=       1 DoRegI=T DoRafI=F ISym2E= 0 IDoP0=0 IntGTp=1.
 FoFCou: FMM=F IPFlag=           0 FMFlag=      100000 FMFlg1=           0
         NFxFlg=           0 DoJE=F BraDBF=F KetDBF=F FulRan=T
         wScrn=  0.000000 ICntrl=         0 IOpCl=  0 I1Cent=           0 NGrid=           0
         NMat0=    1 NMatS0=      1 NMatT0=    0 NMatD0=    1 NMtDS0=    0 NMtDT0=    0
 Symmetry not used in FoFCou.
 CoulSu:  requested number of processors reduced to:  17 ShMem   1 Linda.
 CalDSu:  requested number of processors reduced to:  44 ShMem   1 Linda.
 E= -1801.61476711426    
 DIIS: error= 1.34D-02 at cycle   1 NSaved=   1.
 NSaved= 1 IEnMin= 1 EnMin= -1801.61476711426     IErMin= 1 ErrMin= 1.34D-02
 ErrMax= 1.34D-02  0.00D+00 EMaxC= 1.00D-01 BMatC= 5.60D-01 BMatP= 5.60D-01
 IDIUse=3 WtCom= 8.66D-01 WtEn= 1.34D-01
 Coeff-Com:  0.100D+01
 Coeff-En:   0.100D+01
 Coeff:      0.100D+01
 Gap=     0.305 Goal=   None    Shift=    0.000
 GapD=    0.305 DampG=1.000 DampE=0.500 DampFc=0.5000 IDamp=-1.
 Damping current iteration by 5.00D-01
 RMSDP=1.34D-03 MaxDP=1.98D-01              OVMax= 3.03D-01

 Cycle   2  Pass 1  IDiag  1:
 RMSU=  6.64D-04    CP:  9.88D-01
 CoulSu:  requested number of processors reduced to:  17 ShMem   1 Linda.
 CalDSu:  requested number of processors reduced to:  44 ShMem   1 Linda.
 E= -1801.73344264428     Delta-E=       -0.118675530016 Rises=F Damp=T
 DIIS: error= 6.63D-03 at cycle   2 NSaved=   2.
 NSaved= 2 IEnMin= 2 EnMin= -1801.73344264428     IErMin= 2 ErrMin= 6.63D-03
 ErrMax= 6.63D-03  0.00D+00 EMaxC= 1.00D-01 BMatC= 8.26D-02 BMatP= 5.60D-01
 IDIUse=3 WtCom= 9.34D-01 WtEn= 6.63D-02
 Coeff-Com: -0.876D-01 0.109D+01
 Coeff-En:   0.144D+00 0.856D+00
 Coeff:     -0.723D-01 0.107D+01
 Gap=     0.252 Goal=   None    Shift=    0.000
 RMSDP=6.16D-04 MaxDP=8.57D-02 DE=-1.19D-01 OVMax= 1.52D-01

 Cycle   3  Pass 1  IDiag  1:
 RMSU=  5.99D-04    CP:  9.79D-01  1.19D+00
 CoulSu:  requested number of processors reduced to:  17 ShMem   1 Linda.
 CalDSu:  requested number of processors reduced to:  44 ShMem   1 Linda.
 E= -1801.87000647529     Delta-E=       -0.136563831010 Rises=F Damp=F
 DIIS: error= 4.56D-03 at cycle   3 NSaved=   3.
 NSaved= 3 IEnMin= 3 EnMin= -1801.87000647529     IErMin= 3 ErrMin= 4.56D-03
 ErrMax= 4.56D-03  0.00D+00 EMaxC= 1.00D-01 BMatC= 3.48D-02 BMatP= 8.26D-02
 IDIUse=3 WtCom= 9.54D-01 WtEn= 4.56D-02
 Coeff-Com: -0.180D+00 0.465D+00 0.715D+00
 Coeff-En:   0.000D+00 0.000D+00 0.100D+01
 Coeff:     -0.172D+00 0.444D+00 0.728D+00
 Gap=     0.214 Goal=   None    Shift=    0.000
 RMSDP=1.83D-04 MaxDP=2.35D-02 DE=-1.37D-01 OVMax= 4.14D-02

 Cycle   4  Pass 1  IDiag  1:
 RMSU=  1.38D-04    CP:  9.77D-01  1.32D+00  8.58D-01
 CoulSu:  requested number of processors reduced to:  17 ShMem   1 Linda.
 CalDSu:  requested number of processors reduced to:  44 ShMem   1 Linda.
 E= -1801.89867212579     Delta-E=       -0.028665650502 Rises=F Damp=F
 DIIS: error= 7.94D-04 at cycle   4 NSaved=   4.
 NSaved= 4 IEnMin= 4 EnMin= -1801.89867212579     IErMin= 4 ErrMin= 7.94D-04
 ErrMax= 7.94D-04  0.00D+00 EMaxC= 1.00D-01 BMatC= 2.27D-03 BMatP= 3.48D-02
 IDIUse=3 WtCom= 9.92D-01 WtEn= 7.94D-03
 Coeff-Com: -0.668D-01 0.143D+00 0.318D+00 0.605D+00
 Coeff-En:   0.000D+00 0.000D+00 0.000D+00 0.100D+01
 Coeff:     -0.663D-01 0.142D+00 0.315D+00 0.609D+00
 Gap=     0.209 Goal=   None    Shift=    0.000
 RMSDP=5.25D-05 MaxDP=4.58D-03 DE=-2.87D-02 OVMax= 8.86D-03

 Cycle   5  Pass 1  IDiag  1:
 RMSU=  4.68D-05    CP:  9.77D-01  1.33D+00  8.77D-01  8.59D-01
 CoulSu:  requested number of processors reduced to:  17 ShMem   1 Linda.
 CalDSu:  requested number of processors reduced to:  44 ShMem   1 Linda.
 E= -1801.90036148496     Delta-E=       -0.001689359172 Rises=F Damp=F
 DIIS: error= 2.06D-04 at cycle   5 NSaved=   5.
 NSaved= 5 IEnMin= 5 EnMin= -1801.90036148496     IErMin= 5 ErrMin= 2.06D-04
 ErrMax= 2.06D-04  0.00D+00 EMaxC= 1.00D-01 BMatC= 1.15D-04 BMatP= 2.27D-03
 IDIUse=3 WtCom= 9.98D-01 WtEn= 2.06D-03
 Coeff-Com: -0.158D-01 0.290D-01 0.832D-01 0.240D+00 0.663D+00
 Coeff-En:   0.000D+00 0.000D+00 0.000D+00 0.000D+00 0.100D+01
 Coeff:     -0.158D-01 0.289D-01 0.831D-01 0.240D+00 0.664D+00
 Gap=     0.210 Goal=   None    Shift=    0.000
 RMSDP=1.52D-05 MaxDP=1.55D-03 DE=-1.69D-03 OVMax= 2.55D-03

 Cycle   6  Pass 1  IDiag  1:
 RMSU=  1.35D-05    CP:  9.77D-01  1.33D+00  8.83D-01  8.91D-01  1.07D+00
 CoulSu:  requested number of processors reduced to:  17 ShMem   1 Linda.
 CalDSu:  requested number of processors reduced to:  44 ShMem   1 Linda.
 E= -1801.90044563448     Delta-E=       -0.000084149517 Rises=F Damp=F
 DIIS: error= 6.60D-05 at cycle   6 NSaved=   6.
 NSaved= 6 IEnMin= 6 EnMin= -1801.90044563448     IErMin= 6 ErrMin= 6.60D-05
 ErrMax= 6.60D-05  0.00D+00 EMaxC= 1.00D-01 BMatC= 6.69D-06 BMatP= 1.15D-04
 IDIUse=1 WtCom= 1.00D+00 WtEn= 0.00D+00
 Coeff-Com:  0.483D-03-0.202D-02-0.122D-02 0.112D-01 0.169D+00 0.822D+00
 Coeff:      0.483D-03-0.202D-02-0.122D-02 0.112D-01 0.169D+00 0.822D+00
 Gap=     0.210 Goal=   None    Shift=    0.000
 RMSDP=5.85D-06 MaxDP=5.64D-04 DE=-8.41D-05 OVMax= 9.67D-04

 Cycle   7  Pass 1  IDiag  1:
 RMSU=  3.93D-06    CP:  9.77D-01  1.33D+00  8.82D-01  9.06D-01  1.15D+00
                    CP:  1.11D+00
 CoulSu:  requested number of processors reduced to:  17 ShMem   1 Linda.
 CalDSu:  requested number of processors reduced to:  44 ShMem   1 Linda.
 E= -1801.90045209719     Delta-E=       -0.000006462715 Rises=F Damp=F
 DIIS: error= 2.65D-05 at cycle   7 NSaved=   7.
 NSaved= 7 IEnMin= 7 EnMin= -1801.90045209719     IErMin= 7 ErrMin= 2.65D-05
 ErrMax= 2.65D-05  0.00D+00 EMaxC= 1.00D-01 BMatC= 1.46D-06 BMatP= 6.69D-06
 IDIUse=1 WtCom= 1.00D+00 WtEn= 0.00D+00
 Coeff-Com:  0.224D-02-0.455D-02-0.110D-01-0.265D-01-0.202D-01 0.327D+00
 Coeff-Com:  0.733D+00
 Coeff:      0.224D-02-0.455D-02-0.110D-01-0.265D-01-0.202D-01 0.327D+00
 Coeff:      0.733D+00
 Gap=     0.210 Goal=   None    Shift=    0.000
 RMSDP=2.47D-06 MaxDP=1.94D-04 DE=-6.46D-06 OVMax= 4.74D-04

 Cycle   8  Pass 1  IDiag  1:
 RMSU=  1.40D-06    CP:  9.77D-01  1.33D+00  8.83D-01  9.06D-01  1.18D+00
                    CP:  1.19D+00  9.72D-01
 CoulSu:  requested number of processors reduced to:  17 ShMem   1 Linda.
 CalDSu:  requested number of processors reduced to:  44 ShMem   1 Linda.
 E= -1801.90045361468     Delta-E=       -0.000001517487 Rises=F Damp=F
 DIIS: error= 9.04D-06 at cycle   8 NSaved=   8.
 NSaved= 8 IEnMin= 8 EnMin= -1801.90045361468     IErMin= 8 ErrMin= 9.04D-06
 ErrMax= 9.04D-06  0.00D+00 EMaxC= 1.00D-01 BMatC= 1.40D-07 BMatP= 1.46D-06
 IDIUse=1 WtCom= 1.00D+00 WtEn= 0.00D+00
 Coeff-Com:  0.656D-03-0.130D-02-0.340D-02-0.985D-02-0.194D-01 0.592D-01
 Coeff-Com:  0.292D+00 0.683D+00
 Coeff:      0.656D-03-0.130D-02-0.340D-02-0.985D-02-0.194D-01 0.592D-01
 Coeff:      0.292D+00 0.683D+00
 Gap=     0.210 Goal=   None    Shift=    0.000
 RMSDP=6.68D-07 MaxDP=6.97D-05 DE=-1.52D-06 OVMax= 1.44D-04

 Cycle   9  Pass 1  IDiag  1:
 RMSU=  5.58D-07    CP:  9.77D-01  1.33D+00  8.83D-01  9.06D-01  1.18D+00
                    CP:  1.20D+00  1.05D+00  9.86D-01
 CoulSu:  requested number of processors reduced to:  17 ShMem   1 Linda.
 CalDSu:  requested number of processors reduced to:  44 ShMem   1 Linda.
 E= -1801.90045377592     Delta-E=       -0.000000161242 Rises=F Damp=F
 DIIS: error= 3.07D-06 at cycle   9 NSaved=   9.
 NSaved= 9 IEnMin= 9 EnMin= -1801.90045377592     IErMin= 9 ErrMin= 3.07D-06
 ErrMax= 3.07D-06  0.00D+00 EMaxC= 1.00D-01 BMatC= 1.50D-08 BMatP= 1.40D-07
 IDIUse=1 WtCom= 1.00D+00 WtEn= 0.00D+00
 Coeff-Com: -0.539D-04 0.112D-03 0.142D-03-0.127D-03-0.384D-02-0.189D-01
 Coeff-Com:  0.231D-02 0.243D+00 0.777D+00
 Coeff:     -0.539D-04 0.112D-03 0.142D-03-0.127D-03-0.384D-02-0.189D-01
 Coeff:      0.231D-02 0.243D+00 0.777D+00
 Gap=     0.210 Goal=   None    Shift=    0.000
 RMSDP=2.55D-07 MaxDP=2.06D-05 DE=-1.61D-07 OVMax= 6.92D-05

 Cycle  10  Pass 1  IDiag  1:
 RMSU=  1.68D-07    CP:  9.77D-01  1.33D+00  8.83D-01  9.06D-01  1.18D+00
                    CP:  1.20D+00  1.07D+00  1.10D+00  1.09D+00
 CoulSu:  requested number of processors reduced to:  17 ShMem   1 Linda.
 CalDSu:  requested number of processors reduced to:  44 ShMem   1 Linda.
 E= -1801.90045379556     Delta-E=       -0.000000019641 Rises=F Damp=F
 DIIS: error= 1.12D-06 at cycle  10 NSaved=  10.
 NSaved=10 IEnMin=10 EnMin= -1801.90045379556     IErMin=10 ErrMin= 1.12D-06
 ErrMax= 1.12D-06  0.00D+00 EMaxC= 1.00D-01 BMatC= 1.90D-09 BMatP= 1.50D-08
 IDIUse=1 WtCom= 1.00D+00 WtEn= 0.00D+00
 Coeff-Com: -0.801D-04 0.162D-03 0.355D-03 0.937D-03 0.728D-03-0.130D-01
 Coeff-Com: -0.322D-01 0.200D-01 0.298D+00 0.726D+00
 Coeff:     -0.801D-04 0.162D-03 0.355D-03 0.937D-03 0.728D-03-0.130D-01
 Coeff:     -0.322D-01 0.200D-01 0.298D+00 0.726D+00
 Gap=     0.210 Goal=   None    Shift=    0.000
 RMSDP=9.67D-08 MaxDP=7.15D-06 DE=-1.96D-08 OVMax= 2.29D-05

 Cycle  11  Pass 1  IDiag  1:
 RMSU=  6.26D-08    CP:  9.77D-01  1.33D+00  8.83D-01  9.06D-01  1.18D+00
                    CP:  1.20D+00  1.07D+00  1.13D+00  1.17D+00  9.75D-01
 CoulSu:  requested number of processors reduced to:  17 ShMem   1 Linda.
 CalDSu:  requested number of processors reduced to:  44 ShMem   1 Linda.
 E= -1801.90045379780     Delta-E=       -0.000000002235 Rises=F Damp=F
 DIIS: error= 4.20D-07 at cycle  11 NSaved=  11.
 NSaved=11 IEnMin=11 EnMin= -1801.90045379780     IErMin=11 ErrMin= 4.20D-07
 ErrMax= 4.20D-07  0.00D+00 EMaxC= 1.00D-01 BMatC= 2.33D-10 BMatP= 1.90D-09
 IDIUse=1 WtCom= 1.00D+00 WtEn= 0.00D+00
 Coeff-Com: -0.270D-04 0.549D-04 0.120D-03 0.363D-03 0.540D-03-0.384D-02
 Coeff-Com: -0.134D-01-0.139D-01 0.523D-01 0.298D+00 0.679D+00
 Coeff:     -0.270D-04 0.549D-04 0.120D-03 0.363D-03 0.540D-03-0.384D-02
 Coeff:     -0.134D-01-0.139D-01 0.523D-01 0.298D+00 0.679D+00
 Gap=     0.210 Goal=   None    Shift=    0.000
 RMSDP=2.61D-08 MaxDP=1.51D-06 DE=-2.24D-09 OVMax= 1.03D-05

 Cycle  12  Pass 1  IDiag  1:
 RMSU=  1.98D-08    CP:  9.77D-01  1.33D+00  8.83D-01  9.06D-01  1.18D+00
                    CP:  1.20D+00  1.07D+00  1.13D+00  1.18D+00  1.05D+00
                    CP:  9.97D-01
 CoulSu:  requested number of processors reduced to:  17 ShMem   1 Linda.
 CalDSu:  requested number of processors reduced to:  44 ShMem   1 Linda.
 E= -1801.90045379810     Delta-E=       -0.000000000302 Rises=F Damp=F
 DIIS: error= 1.49D-07 at cycle  12 NSaved=  12.
 NSaved=12 IEnMin=12 EnMin= -1801.90045379810     IErMin=12 ErrMin= 1.49D-07
 ErrMax= 1.49D-07  0.00D+00 EMaxC= 1.00D-01 BMatC= 2.44D-11 BMatP= 2.33D-10
 IDIUse=1 WtCom= 1.00D+00 WtEn= 0.00D+00
 Coeff-Com:  0.239D-05-0.441D-05-0.940D-05-0.176D-05 0.537D-04 0.403D-03
 Coeff-Com:  0.267D-03-0.770D-02-0.250D-01-0.140D-01 0.221D+00 0.825D+00
 Coeff:      0.239D-05-0.441D-05-0.940D-05-0.176D-05 0.537D-04 0.403D-03
 Coeff:      0.267D-03-0.770D-02-0.250D-01-0.140D-01 0.221D+00 0.825D+00
 Gap=     0.210 Goal=   None    Shift=    0.000
 RMSDP=1.26D-08 MaxDP=9.01D-07 DE=-3.02D-10 OVMax= 4.00D-06

 Cycle  13  Pass 1  IDiag  1:
 RMSU=  6.50D-09    CP:  9.77D-01  1.33D+00  8.83D-01  9.06D-01  1.18D+00
                    CP:  1.20D+00  1.07D+00  1.13D+00  1.19D+00  1.07D+00
                    CP:  1.12D+00  1.11D+00
 CoulSu:  requested number of processors reduced to:  18 ShMem   1 Linda.
 CalDSu:  requested number of processors reduced to:  44 ShMem   1 Linda.
 E= -1801.90045379813     Delta-E=       -0.000000000025 Rises=F Damp=F
 DIIS: error= 4.24D-08 at cycle  13 NSaved=  13.
 NSaved=13 IEnMin=13 EnMin= -1801.90045379813     IErMin=13 ErrMin= 4.24D-08
 ErrMax= 4.24D-08  0.00D+00 EMaxC= 1.00D-01 BMatC= 2.09D-12 BMatP= 2.44D-11
 IDIUse=1 WtCom= 1.00D+00 WtEn= 0.00D+00
 Coeff-Com:  0.337D-05-0.662D-05-0.145D-04-0.356D-04-0.262D-04 0.506D-03
 Coeff-Com:  0.143D-02-0.127D-02-0.128D-01-0.328D-01 0.124D-01 0.265D+00
 Coeff-Com:  0.768D+00
 Coeff:      0.337D-05-0.662D-05-0.145D-04-0.356D-04-0.262D-04 0.506D-03
 Coeff:      0.143D-02-0.127D-02-0.128D-01-0.328D-01 0.124D-01 0.265D+00
 Coeff:      0.768D+00
 Gap=     0.210 Goal=   None    Shift=    0.000
 RMSDP=3.68D-09 MaxDP=3.56D-07 DE=-2.55D-11 OVMax= 1.33D-06

 SCF Done:  E(RM062X) =  -1801.90045380     A.U. after   13 cycles
            NFock= 13  Conv=0.37D-08     -V/T= 2.0021
 KE= 1.798133063459D+03 PE=-6.074040667465D+03 EE= 1.580038297862D+03
 Leave Link  502 at Sat Apr 17 05:56:37 2021, MaxMem=   104857600 cpu:           24721.6 elap:            1130.0
 (Enter /s/ls4/users/knvvv/bin/g16sse/l601.exe)
 Copying SCF densities to generalized density rwf, IOpCl= 0 IROHF=0.

 **********************************************************************

            Population analysis using the SCF density.

 **********************************************************************

 Orbital symmetries:
       Occupied  (A) (A) (A) (A) (A) (A) (A) (A) (A) (A) (A) (A)
                 (A) (A) (A) (A) (A) (A) (A) (A) (A) (A) (A) (A)
                 (A) (A) (A) (A) (A) (A) (A) (A) (A) (A) (A) (A)
                 (A) (A) (A) (A) (A) (A) (A) (A) (A) (A) (A) (A)
                 (A) (A) (A) (A) (A) (A)
       Virtual   (A) (A) (A) (A) (A) (A) (A) (A) (A) (A) (A) (A)
                 (A) (A) (A) (A) (A) (A) (A) (A) (A) (A) (A) (A)
                 (A) (A) (A) (A) (A) (A) (A) (A) (A) (A) (A) (A)
                 (A) (A) (A) (A) (A) (A) (A) (A) (A) (A) (A) (A)
                 (A) (A) (A) (A) (A) (A) (A) (A) (A) (A) (A) (A)
                 (A) (A) (A) (A) (A) (A) (A) (A) (A) (A) (A) (A)
                 (A) (A) (A) (A) (A) (A) (A) (A) (A) (A) (A) (A)
                 (A) (A) (A) (A) (A) (A) (A) (A) (A) (A) (A) (A)
                 (A) (A) (A) (A) (A) (A) (A) (A) (A) (A) (A) (A)
                 (A) (A) (A) (A) (A) (A) (A) (A) (A) (A) (A) (A)
                 (A) (A) (A) (A) (A) (A) (A) (A) (A) (A) (A) (A)
                 (A) (A) (A) (A) (A) (A) (A) (A) (A) (A) (A) (A)
                 (A) (A) (A) (A) (A) (A) (A) (A) (A) (A) (A) (A)
                 (A) (A) (A) (A) (A) (A) (A) (A) (A) (A) (A) (A)
                 (A) (A) (A) (A) (A) (A) (A) (A) (A) (A) (A) (A)
                 (A) (A) (A) (A) (A) (A) (A) (A) (A) (A) (A) (A)
                 (A) (A) (A) (A) (A) (A) (A) (A) (A) (A) (A) (A)
                 (A) (A) (A) (A) (A) (A) (A) (A) (A) (A) (A) (A)
                 (A) (A) (A) (A) (A) (A) (A) (A) (A) (A) (A) (A)
                 (A) (A) (A) (A) (A) (A) (A) (A) (A) (A) (A) (A)
                 (A) (A) (A) (A) (A) (A) (A) (A) (A) (A) (A) (A)
                 (A) (A) (A) (A) (A) (A) (A) (A) (A) (A) (A) (A)
                 (A) (A) (A) (A) (A) (A) (A) (A) (A) (A) (A) (A)
                 (A) (A) (A) (A) (A) (A) (A) (A) (A) (A) (A) (A)
                 (A) (A) (A) (A) (A) (A) (A) (A) (A) (A) (A) (A)
                 (A) (A) (A) (A) (A) (A) (A) (A) (A) (A) (A) (A)
                 (A) (A) (A) (A) (A) (A) (A) (A) (A) (A) (A) (A)
                 (A) (A) (A) (A) (A) (A) (A) (A) (A) (A) (A) (A)
                 (A) (A) (A) (A) (A) (A) (A) (A) (A) (A) (A) (A)
                 (A) (A) (A) (A) (A) (A) (A) (A) (A) (A) (A) (A)
                 (A) (A) (A) (A) (A) (A) (A) (A) (A) (A) (A) (A)
                 (A) (A) (A) (A) (A) (A) (A) (A) (A) (A) (A) (A)
                 (A) (A) (A) (A) (A) (A) (A) (A) (A) (A) (A) (A)
                 (A) (A) (A) (A) (A) (A) (A) (A) (A) (A) (A) (A)
                 (A) (A) (A) (A) (A) (A) (A) (A) (A) (A) (A) (A)
                 (A) (A) (A) (A) (A) (A) (A) (A) (A) (A) (A) (A)
                 (A) (A) (A) (A) (A) (A) (A) (A) (A) (A) (A) (A)
                 (A) (A) (A) (A) (A) (A) (A) (A) (A) (A) (A) (A)
                 (A) (A) (A) (A) (A) (A) (A) (A) (A) (A) (A) (A)
                 (A) (A) (A) (A) (A) (A) (A) (A) (A) (A) (A) (A)
                 (A) (A) (A) (A) (A) (A) (A) (A) (A) (A) (A) (A)
                 (A) (A) (A) (A) (A) (A) (A) (A) (A) (A) (A) (A)
                 (A) (A) (A) (A) (A) (A) (A) (A) (A) (A) (A) (A)
                 (A) (A) (A) (A) (A) (A) (A) (A) (A) (A) (A) (A)
                 (A) (A) (A) (A) (A) (A) (A) (A) (A) (A) (A) (A)
                 (A) (A) (A) (A) (A) (A) (A) (A) (A) (A) (A) (A)
                 (A) (A) (A) (A) (A) (A) (A) (A) (A) (A) (A) (A)
                 (A) (A) (A) (A) (A) (A) (A) (A) (A) (A) (A) (A)
                 (A) (A) (A) (A) (A) (A) (A) (A) (A) (A) (A) (A)
                 (A) (A) (A) (A) (A) (A) (A) (A) (A) (A) (A) (A)
                 (A) (A) (A) (A) (A) (A) (A) (A) (A) (A) (A) (A)
                 (A) (A) (A) (A) (A) (A) (A) (A) (A) (A) (A) (A)
                 (A) (A) (A) (A) (A) (A) (A) (A) (A) (A) (A) (A)
                 (A) (A) (A) (A) (A) (A) (A) (A) (A) (A) (A) (A)
                 (A) (A) (A) (A) (A) (A) (A) (A) (A) (A) (A) (A)
                 (A) (A) (A) (A) (A) (A) (A) (A) (A) (A) (A) (A)
                 (A) (A) (A) (A) (A) (A) (A) (A) (A) (A) (A) (A)
                 (A) (A) (A) (A) (A) (A) (A) (A) (A) (A) (A) (A)
                 (A) (A) (A) (A) (A) (A) (A) (A) (A) (A) (A) (A)
                 (A) (A) (A) (A) (A) (A) (A) (A) (A) (A) (A) (A)
                 (A) (A) (A) (A) (A) (A) (A) (A) (A) (A) (A) (A)
                 (A) (A) (A) (A) (A) (A) (A)
 The electronic state is 1-A.
 Alpha  occ. eigenvalues --  -89.89191 -78.05088 -78.04008 -56.88578 -56.86949
 Alpha  occ. eigenvalues --  -25.26025 -19.67249  -8.24906  -7.09196  -7.02523
 Alpha  occ. eigenvalues --   -6.86462  -6.85457  -6.17056  -6.16810  -6.16700
 Alpha  occ. eigenvalues --   -4.98277  -4.97976  -4.97810  -4.97138  -4.96927
 Alpha  occ. eigenvalues --   -4.96854  -4.40323  -4.39042  -2.90334  -2.90318
 Alpha  occ. eigenvalues --   -2.90176  -2.89572  -2.89401  -2.89215  -2.16354
 Alpha  occ. eigenvalues --   -1.35132  -1.15952  -0.82180  -0.72540  -0.70937
 Alpha  occ. eigenvalues --   -0.63710  -0.61085  -0.60565  -0.57586  -0.55575
 Alpha  occ. eigenvalues --   -0.53752  -0.48333  -0.47912  -0.45219  -0.44034
 Alpha  occ. eigenvalues --   -0.42358  -0.38076  -0.37330  -0.35936  -0.35048
 Alpha  occ. eigenvalues --   -0.31035  -0.29724  -0.27506  -0.25153
 Alpha virt. eigenvalues --   -0.04172  -0.02744  -0.02297  -0.01144  -0.00481
 Alpha virt. eigenvalues --    0.00427   0.01118   0.02135   0.02268   0.02851
 Alpha virt. eigenvalues --    0.03065   0.04090   0.04663   0.04876   0.05573
 Alpha virt. eigenvalues --    0.06250   0.07042   0.07230   0.07612   0.08494
 Alpha virt. eigenvalues --    0.08935   0.09369   0.09567   0.10375   0.11078
 Alpha virt. eigenvalues --    0.11438   0.12006   0.12480   0.13100   0.13262
 Alpha virt. eigenvalues --    0.13838   0.14272   0.14862   0.15665   0.16335
 Alpha virt. eigenvalues --    0.16985   0.17750   0.18264   0.18792   0.19158
 Alpha virt. eigenvalues --    0.20181   0.20588   0.21033   0.21883   0.22285
 Alpha virt. eigenvalues --    0.22779   0.23091   0.23208   0.24206   0.24409
 Alpha virt. eigenvalues --    0.25023   0.25446   0.25719   0.26230   0.26524
 Alpha virt. eigenvalues --    0.27046   0.27788   0.28182   0.28677   0.29595
 Alpha virt. eigenvalues --    0.29704   0.30338   0.31071   0.31203   0.32136
 Alpha virt. eigenvalues --    0.32835   0.33109   0.33552   0.33670   0.34473
 Alpha virt. eigenvalues --    0.34735   0.35185   0.36429   0.36836   0.38921
 Alpha virt. eigenvalues --    0.39106   0.39908   0.41201   0.41599   0.42604
 Alpha virt. eigenvalues --    0.42733   0.43529   0.44109   0.44951   0.45076
 Alpha virt. eigenvalues --    0.46057   0.46428   0.46856   0.47477   0.48175
 Alpha virt. eigenvalues --    0.48247   0.48461   0.49240   0.49854   0.50377
 Alpha virt. eigenvalues --    0.50541   0.51159   0.51619   0.52529   0.53891
 Alpha virt. eigenvalues --    0.53999   0.54307   0.54804   0.55425   0.56223
 Alpha virt. eigenvalues --    0.56572   0.57335   0.57671   0.58002   0.58398
 Alpha virt. eigenvalues --    0.59017   0.59284   0.59565   0.59898   0.60899
 Alpha virt. eigenvalues --    0.61997   0.62105   0.63140   0.63576   0.65068
 Alpha virt. eigenvalues --    0.65737   0.66015   0.66787   0.67113   0.67494
 Alpha virt. eigenvalues --    0.68550   0.69759   0.70391   0.71119   0.71358
 Alpha virt. eigenvalues --    0.71861   0.72349   0.72725   0.73029   0.73967
 Alpha virt. eigenvalues --    0.74834   0.75616   0.77067   0.77570   0.78171
 Alpha virt. eigenvalues --    0.78986   0.79384   0.80391   0.81091   0.81535
 Alpha virt. eigenvalues --    0.81984   0.82305   0.83176   0.83388   0.84699
 Alpha virt. eigenvalues --    0.85193   0.85745   0.86322   0.86431   0.88064
 Alpha virt. eigenvalues --    0.88407   0.88756   0.90718   0.90938   0.92679
 Alpha virt. eigenvalues --    0.92916   0.93636   0.94143   0.94513   0.96056
 Alpha virt. eigenvalues --    0.97169   0.98047   0.98312   0.99099   0.99424
 Alpha virt. eigenvalues --    0.99949   1.02198   1.02665   1.03654   1.05069
 Alpha virt. eigenvalues --    1.05250   1.06103   1.06779   1.07093   1.07673
 Alpha virt. eigenvalues --    1.09592   1.10531   1.10646   1.11525   1.12080
 Alpha virt. eigenvalues --    1.13264   1.13396   1.14224   1.14947   1.16090
 Alpha virt. eigenvalues --    1.16591   1.18026   1.18547   1.19242   1.20811
 Alpha virt. eigenvalues --    1.21390   1.21695   1.22100   1.22725   1.24076
 Alpha virt. eigenvalues --    1.24507   1.25857   1.26265   1.27222   1.28276
 Alpha virt. eigenvalues --    1.29021   1.30401   1.31165   1.31413   1.32388
 Alpha virt. eigenvalues --    1.33311   1.33695   1.34558   1.35233   1.36435
 Alpha virt. eigenvalues --    1.36612   1.37556   1.38282   1.39521   1.39842
 Alpha virt. eigenvalues --    1.40544   1.41298   1.41477   1.42667   1.42726
 Alpha virt. eigenvalues --    1.43236   1.43782   1.45860   1.46747   1.46836
 Alpha virt. eigenvalues --    1.47384   1.48067   1.48452   1.49655   1.51015
 Alpha virt. eigenvalues --    1.51362   1.52636   1.53669   1.53992   1.54147
 Alpha virt. eigenvalues --    1.54588   1.55300   1.55867   1.57503   1.57656
 Alpha virt. eigenvalues --    1.58032   1.59298   1.60590   1.61108   1.61916
 Alpha virt. eigenvalues --    1.62285   1.62857   1.63607   1.64088   1.65185
 Alpha virt. eigenvalues --    1.65663   1.66804   1.67850   1.68434   1.69171
 Alpha virt. eigenvalues --    1.69280   1.69755   1.69923   1.71280   1.72564
 Alpha virt. eigenvalues --    1.73059   1.73611   1.75511   1.77132   1.78001
 Alpha virt. eigenvalues --    1.78168   1.78795   1.80189   1.80531   1.81155
 Alpha virt. eigenvalues --    1.82669   1.84541   1.85298   1.85991   1.86299
 Alpha virt. eigenvalues --    1.86888   1.87617   1.89197   1.89997   1.91338
 Alpha virt. eigenvalues --    1.92013   1.94079   1.94275   1.95312   1.96706
 Alpha virt. eigenvalues --    1.97581   1.98565   1.98834   1.99767   2.02385
 Alpha virt. eigenvalues --    2.02487   2.03038   2.05094   2.05679   2.06448
 Alpha virt. eigenvalues --    2.06722   2.07897   2.08915   2.11288   2.11667
 Alpha virt. eigenvalues --    2.13592   2.15172   2.15670   2.16913   2.18795
 Alpha virt. eigenvalues --    2.19554   2.19845   2.22350   2.23131   2.24880
 Alpha virt. eigenvalues --    2.25016   2.27018   2.27615   2.29580   2.30857
 Alpha virt. eigenvalues --    2.31796   2.33667   2.35149   2.37209   2.38512
 Alpha virt. eigenvalues --    2.40252   2.41022   2.42283   2.42719   2.43510
 Alpha virt. eigenvalues --    2.45221   2.46972   2.47681   2.49901   2.50234
 Alpha virt. eigenvalues --    2.51279   2.52838   2.53490   2.54536   2.55215
 Alpha virt. eigenvalues --    2.57616   2.57716   2.59369   2.60597   2.61540
 Alpha virt. eigenvalues --    2.62680   2.63508   2.64287   2.64795   2.66706
 Alpha virt. eigenvalues --    2.66827   2.68458   2.70022   2.70659   2.71043
 Alpha virt. eigenvalues --    2.72353   2.74143   2.75577   2.76528   2.77180
 Alpha virt. eigenvalues --    2.78610   2.78994   2.79779   2.81154   2.82496
 Alpha virt. eigenvalues --    2.83209   2.84606   2.84984   2.86647   2.87389
 Alpha virt. eigenvalues --    2.88222   2.88993   2.90375   2.90576   2.91097
 Alpha virt. eigenvalues --    2.91910   2.92875   2.93362   2.95118   2.95569
 Alpha virt. eigenvalues --    2.96938   2.98131   2.98454   2.99563   3.00299
 Alpha virt. eigenvalues --    3.01429   3.03056   3.03932   3.05241   3.06052
 Alpha virt. eigenvalues --    3.06620   3.08497   3.09264   3.10503   3.10811
 Alpha virt. eigenvalues --    3.11821   3.14494   3.14612   3.15381   3.17634
 Alpha virt. eigenvalues --    3.18371   3.18731   3.19957   3.20407   3.22908
 Alpha virt. eigenvalues --    3.23879   3.24859   3.26538   3.28637   3.28771
 Alpha virt. eigenvalues --    3.29221   3.29696   3.31576   3.32935   3.34931
 Alpha virt. eigenvalues --    3.35237   3.37108   3.38475   3.40025   3.40306
 Alpha virt. eigenvalues --    3.40965   3.42466   3.43349   3.45645   3.47414
 Alpha virt. eigenvalues --    3.49133   3.50554   3.51526   3.52390   3.54146
 Alpha virt. eigenvalues --    3.55467   3.56986   3.58076   3.59696   3.61165
 Alpha virt. eigenvalues --    3.62298   3.64421   3.65671   3.67185   3.69970
 Alpha virt. eigenvalues --    3.72533   3.73602   3.76348   3.77174   3.77731
 Alpha virt. eigenvalues --    3.79880   3.80978   3.84125   3.85277   3.87488
 Alpha virt. eigenvalues --    3.89447   3.91057   3.92003   3.93060   3.95563
 Alpha virt. eigenvalues --    3.98160   4.00668   4.02007   4.02592   4.04338
 Alpha virt. eigenvalues --    4.05808   4.07115   4.09051   4.10714   4.12060
 Alpha virt. eigenvalues --    4.12870   4.16680   4.17897   4.21937   4.22255
 Alpha virt. eigenvalues --    4.22895   4.23751   4.26082   4.29141   4.30084
 Alpha virt. eigenvalues --    4.31414   4.32184   4.33225   4.34571   4.36672
 Alpha virt. eigenvalues --    4.37572   4.39249   4.42341   4.43424   4.44723
 Alpha virt. eigenvalues --    4.45603   4.48269   4.49619   4.51862   4.53196
 Alpha virt. eigenvalues --    4.55245   4.56398   4.58737   4.60433   4.61738
 Alpha virt. eigenvalues --    4.64889   4.65535   4.66826   4.67404   4.68739
 Alpha virt. eigenvalues --    4.69960   4.72311   4.74656   4.76067   4.77783
 Alpha virt. eigenvalues --    4.78681   4.81589   4.85784   4.87047   4.89398
 Alpha virt. eigenvalues --    4.96983   4.99104   5.00339   5.04484   5.10900
 Alpha virt. eigenvalues --    5.12245   5.19859   5.25354   5.27659   5.37270
 Alpha virt. eigenvalues --    5.40109   5.43745   5.45917   5.50125   5.53525
 Alpha virt. eigenvalues --    5.57018   5.58779   5.59208   5.59547   5.64189
 Alpha virt. eigenvalues --    5.65150   5.65335   5.65748   5.73340   5.75939
 Alpha virt. eigenvalues --    5.79518   5.82359   5.85929   5.86479   5.86962
 Alpha virt. eigenvalues --    5.88128   5.90373   5.91560   5.97471   5.99925
 Alpha virt. eigenvalues --    6.02330   6.02755   6.07533   6.09509   6.12618
 Alpha virt. eigenvalues --    6.16579   6.21812   6.24539   6.26584   6.29656
 Alpha virt. eigenvalues --    6.34583   6.36954   6.41017   6.41231   6.43434
 Alpha virt. eigenvalues --    6.46383   6.48136   6.51402   6.51967   6.62317
 Alpha virt. eigenvalues --    6.64348   6.66188   6.71014   6.71585   6.79286
 Alpha virt. eigenvalues --    6.81652   6.84255   6.87431   6.94441   7.02788
 Alpha virt. eigenvalues --    7.10021   7.11563   7.13366   7.15120   7.17634
 Alpha virt. eigenvalues --    7.22595   7.25479   7.27600   7.29684   7.33014
 Alpha virt. eigenvalues --    7.34604   7.37779   7.39892   7.40712   7.41471
 Alpha virt. eigenvalues --    7.44655   7.45169   7.46836   7.49331   7.53133
 Alpha virt. eigenvalues --    7.54819   7.56003   7.58386   7.62218   7.63341
 Alpha virt. eigenvalues --    7.66663   7.69368   7.69864   7.72386   7.73266
 Alpha virt. eigenvalues --    7.75031   7.75817   7.81229   7.81487   7.83630
 Alpha virt. eigenvalues --    7.84457   7.87529   7.91415   7.93619   8.00413
 Alpha virt. eigenvalues --    8.01602   8.05076   8.10013   8.11336   8.14394
 Alpha virt. eigenvalues --    8.24676   8.27366   8.29445   8.31906   8.34646
 Alpha virt. eigenvalues --    8.36054   8.40933   8.43244   8.44593   8.44893
 Alpha virt. eigenvalues --    8.47338   8.48479   8.51522   8.54264   8.56302
 Alpha virt. eigenvalues --    8.61288   8.67138   8.69873   8.71854   8.75984
 Alpha virt. eigenvalues --    8.77152   8.80146   8.83257   8.84208   8.85801
 Alpha virt. eigenvalues --    8.86403   8.87121   8.87699   8.91050   8.92528
 Alpha virt. eigenvalues --    8.95395   8.99945   9.00413   9.03834   9.11309
 Alpha virt. eigenvalues --    9.11895   9.13262   9.22225   9.26899   9.30206
 Alpha virt. eigenvalues --    9.41558   9.64790   9.70730   9.91944   9.93750
 Alpha virt. eigenvalues --    9.96521  10.09487  10.38726  10.56291  10.80066
 Alpha virt. eigenvalues --   10.82053  10.87887  11.10479  11.15584  11.27416
 Alpha virt. eigenvalues --   11.32318  11.32393  11.33938  11.34429  11.48043
 Alpha virt. eigenvalues --   11.48652  11.53468  11.58098  11.58498  11.66884
 Alpha virt. eigenvalues --   11.74125  11.74885  12.18971  12.35255  12.43487
 Alpha virt. eigenvalues --   12.63190  13.13715  13.54138  13.58610  13.90844
 Alpha virt. eigenvalues --   14.52718  14.58606  14.67457  14.72260  15.06418
 Alpha virt. eigenvalues --   15.11440  15.17304  15.97044  16.10477  16.16109
 Alpha virt. eigenvalues --   16.25442  16.28186  16.34002  16.75657  18.16465
 Alpha virt. eigenvalues --   18.23624  18.40719  18.43552  18.73896  18.80022
 Alpha virt. eigenvalues --   20.20687  20.30724  20.48983  20.65517  24.52754
 Alpha virt. eigenvalues --   29.14922  29.20584  29.30530  45.99257  46.43844
 Alpha virt. eigenvalues --   48.09191  55.00923  70.87324  71.06195  84.22859
 Alpha virt. eigenvalues --  101.63978 101.78363 251.15057 253.42688 254.18717
 Alpha virt. eigenvalues --  284.06368 380.95586 381.27145 450.00179
          Condensed to atoms (all electrons):
               1          2          3          4          5          6
     1  H    0.372866  -0.000505  -0.023241  -0.017344  -0.006707  -0.005800
     2  F   -0.000505   9.137546   0.000394  -0.012097  -0.000030   0.002571
     3  P   -0.023241   0.000394  14.159870   0.431671   0.326504   0.002086
     4  Al  -0.017344  -0.012097   0.431671  11.280244  -0.037334   0.004584
     5  H   -0.006707  -0.000030   0.326504  -0.037334   0.726389  -0.000104
     6  H   -0.005800   0.002571   0.002086   0.004584  -0.000104   0.806907
     7  Al   0.008794   0.073344  -0.000943  -0.010954   0.000977  -0.040186
     8  B    0.001410  -0.062420   0.004666  -0.039732  -0.000728   0.311545
     9  Li  -0.010341  -0.001236  -0.022284   0.002775   0.002169   0.111843
    10  P   -0.002213  -0.029195   0.002475   0.106367  -0.000439  -0.031360
    11  O    0.309217   0.000194   0.182717  -0.060842  -0.027735  -0.008681
    12  H    0.000215   0.000095  -0.011538   0.405472   0.000902  -0.000045
    13  H    0.008279  -0.044574  -0.036210   0.079134   0.008040  -0.004700
    14  B    0.009996   0.252103  -0.018562   0.103309  -0.006233  -0.042021
    15  S    0.004338   0.000688  -0.042041   0.394038   0.002618  -0.002268
    16  H   -0.000150  -0.002452  -0.000107   0.003121  -0.000015  -0.033722
               7          8          9         10         11         12
     1  H    0.008794   0.001410  -0.010341  -0.002213   0.309217   0.000215
     2  F    0.073344  -0.062420  -0.001236  -0.029195   0.000194   0.000095
     3  P   -0.000943   0.004666  -0.022284   0.002475   0.182717  -0.011538
     4  Al  -0.010954  -0.039732   0.002775   0.106367  -0.060842   0.405472
     5  H    0.000977  -0.000728   0.002169  -0.000439  -0.027735   0.000902
     6  H   -0.040186   0.311545   0.111843  -0.031360  -0.008681  -0.000045
     7  Al  12.684175   0.098836  -0.014421  -0.024015   0.000337   0.000219
     8  B    0.098836   4.122975   0.024699   0.381756   0.002495   0.001265
     9  Li  -0.014421   0.024699   2.185930   0.018233   0.156439   0.003175
    10  P   -0.024015   0.381756   0.018233  14.016041   0.002327  -0.001458
    11  O    0.000337   0.002495   0.156439   0.002327   7.964551   0.000794
    12  H    0.000219   0.001265   0.003175  -0.001458   0.000794   0.763165
    13  H   -0.001439  -0.058627   0.012555  -0.046944  -0.006010  -0.002791
    14  B    0.018857   0.188895  -0.009597   0.324361   0.004767  -0.003313
    15  S    0.003800  -0.046927   0.179521   0.194454  -0.003284  -0.004563
    16  H    0.014999   0.332613  -0.016145  -0.028552   0.000173   0.000001
              13         14         15         16
     1  H    0.008279   0.009996   0.004338  -0.000150
     2  F   -0.044574   0.252103   0.000688  -0.002452
     3  P   -0.036210  -0.018562  -0.042041  -0.000107
     4  Al   0.079134   0.103309   0.394038   0.003121
     5  H    0.008040  -0.006233   0.002618  -0.000015
     6  H   -0.004700  -0.042021  -0.002268  -0.033722
     7  Al  -0.001439   0.018857   0.003800   0.014999
     8  B   -0.058627   0.188895  -0.046927   0.332613
     9  Li   0.012555  -0.009597   0.179521  -0.016145
    10  P   -0.046944   0.324361   0.194454  -0.028552
    11  O   -0.006010   0.004767  -0.003284   0.000173
    12  H   -0.002791  -0.003313  -0.004563   0.000001
    13  H    0.918035   0.272816   0.007579   0.000674
    14  B    0.272816   3.784991  -0.043690  -0.009959
    15  S    0.007579  -0.043690  15.583429   0.003240
    16  H    0.000674  -0.009959   0.003240   0.713475
 Mulliken charges:
               1
     1  H    0.351186
     2  F   -0.314425
     3  P    0.044544
     4  Al   0.367587
     5  H    0.011727
     6  H   -0.070649
     7  Al   0.187619
     8  B   -0.262719
     9  Li   0.376686
    10  P    0.118160
    11  O   -0.517459
    12  H   -0.151595
    13  H   -0.105817
    14  B    0.173278
    15  S   -0.230931
    16  H    0.022808
 Sum of Mulliken charges =  -0.00000
 Mulliken charges with hydrogens summed into heavy atoms:
               1
     2  F   -0.314425
     3  P    0.056270
     4  Al   0.215992
     7  Al   0.187619
     8  B   -0.310560
     9  Li   0.376686
    10  P    0.118160
    11  O   -0.166272
    14  B    0.067462
    15  S   -0.230931
 Electronic spatial extent (au):  <R**2>=           2476.3591
 Charge=             -0.0000 electrons
 Dipole moment (field-independent basis, Debye):
    X=              0.2027    Y=             -2.0094    Z=             -2.3931  Tot=              3.1314
 Quadrupole moment (field-independent basis, Debye-Ang):
   XX=            -99.0801   YY=            -99.9840   ZZ=            -89.8568
   XY=             -1.0282   XZ=             -0.1147   YZ=             -3.0021
 Traceless Quadrupole moment (field-independent basis, Debye-Ang):
   XX=             -2.7731   YY=             -3.6770   ZZ=              6.4502
   XY=             -1.0282   XZ=             -0.1147   YZ=             -3.0021
 Octapole moment (field-independent basis, Debye-Ang**2):
  XXX=              2.0198  YYY=            -12.8021  ZZZ=            -27.0708  XYY=              0.2108
  XXY=             14.7783  XXZ=              6.1864  XZZ=            -15.1817  YZZ=             -3.7056
  YYZ=              9.3947  XYZ=              4.4754
 Hexadecapole moment (field-independent basis, Debye-Ang**3):
 XXXX=          -2060.9332 YYYY=          -1165.4915 ZZZZ=           -558.1086 XXXY=             31.7134
 XXXZ=             32.6069 YYYX=             27.2166 YYYZ=            -11.1503 ZZZX=             83.5402
 ZZZY=            -14.5084 XXYY=           -583.1520 XXZZ=           -427.5156 YYZZ=           -293.5195
 XXYZ=            -15.7490 YYXZ=              7.6822 ZZXY=              5.1681
 N-N= 8.939688523447D+02 E-N=-6.074040659390D+03  KE= 1.798133063459D+03
 PrsmSu:  requested number of processors reduced to:  19 ShMem   1 Linda.
 No NMR shielding tensors so no spin-rotation constants.
 Leave Link  601 at Sat Apr 17 05:56:50 2021, MaxMem=   104857600 cpu:             573.2 elap:              12.5
 (Enter /s/ls4/users/knvvv/bin/g16sse/l801.exe)
 DoSCS=F DFT=T ScalE2(SS,OS)=  1.000000  1.000000
 Range of M.O.s used for correlation:     1   793
 NBasis=   793 NAE=    54 NBE=    54 NFC=     0 NFV=     0
 NROrb=    793 NOA=    54 NOB=    54 NVA=   739 NVB=   739

 **** Warning!!: The largest alpha MO coefficient is  0.35977317D+02

 Leave Link  801 at Sat Apr 17 05:56:50 2021, MaxMem=   104857600 cpu:               4.9 elap:               0.2
 (Enter /s/ls4/users/knvvv/bin/g16sse/l914.exe)
 RHF ground state
 Doing stability rather than CIS.
 Two-electron integrals replicated using symmetry.
 MDV=   104857600 DFT=T DoStab=T Mixed=T DoRPA=F DoScal=F NonHer=F
 Making orbital integer symmetry assigments:
 Orbital symmetries:
       Occupied  (A) (A) (A) (A) (A) (A) (A) (A) (A) (A) (A) (A)
                 (A) (A) (A) (A) (A) (A) (A) (A) (A) (A) (A) (A)
                 (A) (A) (A) (A) (A) (A) (A) (A) (A) (A) (A) (A)
                 (A) (A) (A) (A) (A) (A) (A) (A) (A) (A) (A) (A)
                 (A) (A) (A) (A) (A) (A)
       Virtual   (A) (A) (A) (A) (A) (A) (A) (A) (A) (A) (A) (A)
                 (A) (A) (A) (A) (A) (A) (A) (A) (A) (A) (A) (A)
                 (A) (A) (A) (A) (A) (A) (A) (A) (A) (A) (A) (A)
                 (A) (A) (A) (A) (A) (A) (A) (A) (A) (A) (A) (A)
                 (A) (A) (A) (A) (A) (A) (A) (A) (A) (A) (A) (A)
                 (A) (A) (A) (A) (A) (A) (A) (A) (A) (A) (A) (A)
                 (A) (A) (A) (A) (A) (A) (A) (A) (A) (A) (A) (A)
                 (A) (A) (A) (A) (A) (A) (A) (A) (A) (A) (A) (A)
                 (A) (A) (A) (A) (A) (A) (A) (A) (A) (A) (A) (A)
                 (A) (A) (A) (A) (A) (A) (A) (A) (A) (A) (A) (A)
                 (A) (A) (A) (A) (A) (A) (A) (A) (A) (A) (A) (A)
                 (A) (A) (A) (A) (A) (A) (A) (A) (A) (A) (A) (A)
                 (A) (A) (A) (A) (A) (A) (A) (A) (A) (A) (A) (A)
                 (A) (A) (A) (A) (A) (A) (A) (A) (A) (A) (A) (A)
                 (A) (A) (A) (A) (A) (A) (A) (A) (A) (A) (A) (A)
                 (A) (A) (A) (A) (A) (A) (A) (A) (A) (A) (A) (A)
                 (A) (A) (A) (A) (A) (A) (A) (A) (A) (A) (A) (A)
                 (A) (A) (A) (A) (A) (A) (A) (A) (A) (A) (A) (A)
                 (A) (A) (A) (A) (A) (A) (A) (A) (A) (A) (A) (A)
                 (A) (A) (A) (A) (A) (A) (A) (A) (A) (A) (A) (A)
                 (A) (A) (A) (A) (A) (A) (A) (A) (A) (A) (A) (A)
                 (A) (A) (A) (A) (A) (A) (A) (A) (A) (A) (A) (A)
                 (A) (A) (A) (A) (A) (A) (A) (A) (A) (A) (A) (A)
                 (A) (A) (A) (A) (A) (A) (A) (A) (A) (A) (A) (A)
                 (A) (A) (A) (A) (A) (A) (A) (A) (A) (A) (A) (A)
                 (A) (A) (A) (A) (A) (A) (A) (A) (A) (A) (A) (A)
                 (A) (A) (A) (A) (A) (A) (A) (A) (A) (A) (A) (A)
                 (A) (A) (A) (A) (A) (A) (A) (A) (A) (A) (A) (A)
                 (A) (A) (A) (A) (A) (A) (A) (A) (A) (A) (A) (A)
                 (A) (A) (A) (A) (A) (A) (A) (A) (A) (A) (A) (A)
                 (A) (A) (A) (A) (A) (A) (A) (A) (A) (A) (A) (A)
                 (A) (A) (A) (A) (A) (A) (A) (A) (A) (A) (A) (A)
                 (A) (A) (A) (A) (A) (A) (A) (A) (A) (A) (A) (A)
                 (A) (A) (A) (A) (A) (A) (A) (A) (A) (A) (A) (A)
                 (A) (A) (A) (A) (A) (A) (A) (A) (A) (A) (A) (A)
                 (A) (A) (A) (A) (A) (A) (A) (A) (A) (A) (A) (A)
                 (A) (A) (A) (A) (A) (A) (A) (A) (A) (A) (A) (A)
                 (A) (A) (A) (A) (A) (A) (A) (A) (A) (A) (A) (A)
                 (A) (A) (A) (A) (A) (A) (A) (A) (A) (A) (A) (A)
                 (A) (A) (A) (A) (A) (A) (A) (A) (A) (A) (A) (A)
                 (A) (A) (A) (A) (A) (A) (A) (A) (A) (A) (A) (A)
                 (A) (A) (A) (A) (A) (A) (A) (A) (A) (A) (A) (A)
                 (A) (A) (A) (A) (A) (A) (A) (A) (A) (A) (A) (A)
                 (A) (A) (A) (A) (A) (A) (A) (A) (A) (A) (A) (A)
                 (A) (A) (A) (A) (A) (A) (A) (A) (A) (A) (A) (A)
                 (A) (A) (A) (A) (A) (A) (A) (A) (A) (A) (A) (A)
                 (A) (A) (A) (A) (A) (A) (A) (A) (A) (A) (A) (A)
                 (A) (A) (A) (A) (A) (A) (A) (A) (A) (A) (A) (A)
                 (A) (A) (A) (A) (A) (A) (A) (A) (A) (A) (A) (A)
                 (A) (A) (A) (A) (A) (A) (A) (A) (A) (A) (A) (A)
                 (A) (A) (A) (A) (A) (A) (A) (A) (A) (A) (A) (A)
                 (A) (A) (A) (A) (A) (A) (A) (A) (A) (A) (A) (A)
                 (A) (A) (A) (A) (A) (A) (A) (A) (A) (A) (A) (A)
                 (A) (A) (A) (A) (A) (A) (A) (A) (A) (A) (A) (A)
                 (A) (A) (A) (A) (A) (A) (A) (A) (A) (A) (A) (A)
                 (A) (A) (A) (A) (A) (A) (A) (A) (A) (A) (A) (A)
                 (A) (A) (A) (A) (A) (A) (A) (A) (A) (A) (A) (A)
                 (A) (A) (A) (A) (A) (A) (A) (A) (A) (A) (A) (A)
                 (A) (A) (A) (A) (A) (A) (A) (A) (A) (A) (A) (A)
                 (A) (A) (A) (A) (A) (A) (A) (A) (A) (A) (A) (A)
                 (A) (A) (A) (A) (A) (A) (A) (A) (A) (A) (A) (A)
                 (A) (A) (A) (A) (A) (A) (A)
    24 initial guesses have been made.
 Convergence on wavefunction:    0.001000000000000
 Davidson Disk Diagonalization:  ConvIn= 1.00D-03 SkipCon=T Conv= 1.00D-03.
 Max sub-space:  2000 roots to seek:    24 dimension of matrix:        79812
 Iteration     1 Dimension    24 NMult     0 NNew     24
 Estimated number of processors is:   11
 CISAX will form     1 AO SS matrices at one time.
 NMat=     1 NSing=     1 JSym2X= 0.
 FoFJK:  IHMeth= 1 ICntrl=       0 DoSepK=F KAlg= 0 I1Cent=           0 FoldK=F
 IRaf= 880000000 NMat=       1 IRICut=       1 DoRegI=T DoRafI=F ISym2E= 0 IDoP0=0 IntGTp=1.
 FoFCou: FMM=F IPFlag=           0 FMFlag=      100000 FMFlg1=           0
         NFxFlg=           0 DoJE=F BraDBF=F KetDBF=F FulRan=T
         wScrn=  0.000000 ICntrl=         0 IOpCl=  0 I1Cent=           0 NGrid=           0
         NMat0=    1 NMatS0=      1 NMatT0=    0 NMatD0=    1 NMtDS0=    0 NMtDT0=    0
 Symmetry not used in FoFCou.
 CoulSu:  requested number of processors reduced to:  17 ShMem   1 Linda.
 CalDSu:  requested number of processors reduced to:  33 ShMem   1 Linda.
 NMat=     1 NSing=     1 JSym2X= 0.
 CoulSu:  requested number of processors reduced to:  17 ShMem   1 Linda.
 CalDSu:  requested number of processors reduced to:  33 ShMem   1 Linda.
 NMat=     1 NSing=     1 JSym2X= 0.
 CoulSu:  requested number of processors reduced to:  17 ShMem   1 Linda.
 CalDSu:  requested number of processors reduced to:  33 ShMem   1 Linda.
 NMat=     1 NSing=     1 JSym2X= 0.
 CoulSu:  requested number of processors reduced to:  17 ShMem   1 Linda.
 CalDSu:  requested number of processors reduced to:  33 ShMem   1 Linda.
 NMat=     1 NSing=     1 JSym2X= 0.
 CoulSu:  requested number of processors reduced to:  17 ShMem   1 Linda.
 CalDSu:  requested number of processors reduced to:  33 ShMem   1 Linda.
 NMat=     1 NSing=     1 JSym2X= 0.
 CoulSu:  requested number of processors reduced to:  17 ShMem   1 Linda.
 CalDSu:  requested number of processors reduced to:  33 ShMem   1 Linda.
 NMat=     1 NSing=     1 JSym2X= 0.
 CoulSu:  requested number of processors reduced to:  17 ShMem   1 Linda.
 CalDSu:  requested number of processors reduced to:  33 ShMem   1 Linda.
 NMat=     1 NSing=     1 JSym2X= 0.
 CoulSu:  requested number of processors reduced to:  17 ShMem   1 Linda.
 CalDSu:  requested number of processors reduced to:  33 ShMem   1 Linda.
 NMat=     1 NSing=     1 JSym2X= 0.
 CoulSu:  requested number of processors reduced to:  17 ShMem   1 Linda.
 CalDSu:  requested number of processors reduced to:  33 ShMem   1 Linda.
 NMat=     1 NSing=     1 JSym2X= 0.
 CoulSu:  requested number of processors reduced to:  17 ShMem   1 Linda.
 CalDSu:  requested number of processors reduced to:  33 ShMem   1 Linda.
 NMat=     1 NSing=     1 JSym2X= 0.
 CoulSu:  requested number of processors reduced to:  17 ShMem   1 Linda.
 CalDSu:  requested number of processors reduced to:  33 ShMem   1 Linda.
 NMat=     1 NSing=     1 JSym2X= 0.
 CoulSu:  requested number of processors reduced to:  17 ShMem   1 Linda.
 CalDSu:  requested number of processors reduced to:  33 ShMem   1 Linda.
 NMat=     1 NSing=     0 JSym2X= 0.
 CoulSu:  requested number of processors reduced to:  17 ShMem   1 Linda.
 CalDSu:  requested number of processors reduced to:  33 ShMem   1 Linda.
 NMat=     1 NSing=     0 JSym2X= 0.
 CoulSu:  requested number of processors reduced to:  17 ShMem   1 Linda.
 CalDSu:  requested number of processors reduced to:  33 ShMem   1 Linda.
 NMat=     1 NSing=     0 JSym2X= 0.
 CoulSu:  requested number of processors reduced to:  17 ShMem   1 Linda.
 CalDSu:  requested number of processors reduced to:  33 ShMem   1 Linda.
 NMat=     1 NSing=     0 JSym2X= 0.
 CoulSu:  requested number of processors reduced to:  17 ShMem   1 Linda.
 CalDSu:  requested number of processors reduced to:  33 ShMem   1 Linda.
 NMat=     1 NSing=     0 JSym2X= 0.
 CoulSu:  requested number of processors reduced to:  17 ShMem   1 Linda.
 CalDSu:  requested number of processors reduced to:  33 ShMem   1 Linda.
 NMat=     1 NSing=     0 JSym2X= 0.
 CoulSu:  requested number of processors reduced to:  17 ShMem   1 Linda.
 CalDSu:  requested number of processors reduced to:  33 ShMem   1 Linda.
 NMat=     1 NSing=     0 JSym2X= 0.
 CoulSu:  requested number of processors reduced to:  17 ShMem   1 Linda.
 CalDSu:  requested number of processors reduced to:  33 ShMem   1 Linda.
 NMat=     1 NSing=     0 JSym2X= 0.
 CoulSu:  requested number of processors reduced to:  17 ShMem   1 Linda.
 CalDSu:  requested number of processors reduced to:  33 ShMem   1 Linda.
 NMat=     1 NSing=     0 JSym2X= 0.
 CoulSu:  requested number of processors reduced to:  17 ShMem   1 Linda.
 CalDSu:  requested number of processors reduced to:  33 ShMem   1 Linda.
 NMat=     1 NSing=     0 JSym2X= 0.
 CoulSu:  requested number of processors reduced to:  17 ShMem   1 Linda.
 CalDSu:  requested number of processors reduced to:  33 ShMem   1 Linda.
 NMat=     1 NSing=     0 JSym2X= 0.
 CoulSu:  requested number of processors reduced to:  17 ShMem   1 Linda.
 CalDSu:  requested number of processors reduced to:  33 ShMem   1 Linda.
 NMat=     1 NSing=     0 JSym2X= 0.
 CoulSu:  requested number of processors reduced to:  17 ShMem   1 Linda.
 CalDSu:  requested number of processors reduced to:  33 ShMem   1 Linda.
 New state      1 was old state      2
 Excitation Energies [eV] at current iteration:
 Root      1 :     2.904433448252074
 Root      2 :     3.496002783193497
 Root      3 :     4.106849177236516
 Root      4 :     4.205577608417489
 Root      5 :     4.372856707330244
 Root      6 :     4.468689955177807
 Root      7 :     4.491206030236268
 Root      8 :     4.609265276463206
 Root      9 :     4.622592325487919
 Root     10 :     4.742195385464949
 Root     11 :     4.870849718805951
 Root     12 :     4.933730984071746
 Root     13 :     4.956259677570079
 Root     14 :     4.986618628304358
 Root     15 :     5.010170250148013
 Root     16 :     5.059078031199169
 Root     17 :     5.265202836866915
 Root     18 :     5.326281963927356
 Root     19 :     5.393036469370777
 Root     20 :     5.402392143850909
 Root     21 :     5.467481179156380
 Root     22 :     5.509209870728035
 Root     23 :     5.545962687827459
 Root     24 :     5.881801232724179
 Iteration     2 Dimension    48 NMult    24 NNew     24
 Estimated number of processors is:   11
 CISAX will form     1 AO SS matrices at one time.
 NMat=     1 NSing=     1 JSym2X= 0.
 CoulSu:  requested number of processors reduced to:  17 ShMem   1 Linda.
 CalDSu:  requested number of processors reduced to:  33 ShMem   1 Linda.
 NMat=     1 NSing=     1 JSym2X= 0.
 CoulSu:  requested number of processors reduced to:  17 ShMem   1 Linda.
 CalDSu:  requested number of processors reduced to:  33 ShMem   1 Linda.
 NMat=     1 NSing=     1 JSym2X= 0.
 CoulSu:  requested number of processors reduced to:  17 ShMem   1 Linda.
 CalDSu:  requested number of processors reduced to:  33 ShMem   1 Linda.
 NMat=     1 NSing=     1 JSym2X= 0.
 CoulSu:  requested number of processors reduced to:  17 ShMem   1 Linda.
 CalDSu:  requested number of processors reduced to:  33 ShMem   1 Linda.
 NMat=     1 NSing=     1 JSym2X= 0.
 CoulSu:  requested number of processors reduced to:  17 ShMem   1 Linda.
 CalDSu:  requested number of processors reduced to:  33 ShMem   1 Linda.
 NMat=     1 NSing=     1 JSym2X= 0.
 CoulSu:  requested number of processors reduced to:  17 ShMem   1 Linda.
 CalDSu:  requested number of processors reduced to:  33 ShMem   1 Linda.
 NMat=     1 NSing=     1 JSym2X= 0.
 CoulSu:  requested number of processors reduced to:  17 ShMem   1 Linda.
 CalDSu:  requested number of processors reduced to:  33 ShMem   1 Linda.
 NMat=     1 NSing=     1 JSym2X= 0.
 CoulSu:  requested number of processors reduced to:  17 ShMem   1 Linda.
 CalDSu:  requested number of processors reduced to:  33 ShMem   1 Linda.
 NMat=     1 NSing=     1 JSym2X= 0.
 CoulSu:  requested number of processors reduced to:  17 ShMem   1 Linda.
 CalDSu:  requested number of processors reduced to:  33 ShMem   1 Linda.
 NMat=     1 NSing=     1 JSym2X= 0.
 CoulSu:  requested number of processors reduced to:  17 ShMem   1 Linda.
 CalDSu:  requested number of processors reduced to:  33 ShMem   1 Linda.
 NMat=     1 NSing=     1 JSym2X= 0.
 CoulSu:  requested number of processors reduced to:  17 ShMem   1 Linda.
 CalDSu:  requested number of processors reduced to:  33 ShMem   1 Linda.
 NMat=     1 NSing=     1 JSym2X= 0.
 CoulSu:  requested number of processors reduced to:  17 ShMem   1 Linda.
 CalDSu:  requested number of processors reduced to:  33 ShMem   1 Linda.
 NMat=     1 NSing=     0 JSym2X= 0.
 CoulSu:  requested number of processors reduced to:  17 ShMem   1 Linda.
 CalDSu:  requested number of processors reduced to:  33 ShMem   1 Linda.
 NMat=     1 NSing=     0 JSym2X= 0.
 CoulSu:  requested number of processors reduced to:  17 ShMem   1 Linda.
 CalDSu:  requested number of processors reduced to:  33 ShMem   1 Linda.
 NMat=     1 NSing=     0 JSym2X= 0.
 CoulSu:  requested number of processors reduced to:  17 ShMem   1 Linda.
 CalDSu:  requested number of processors reduced to:  33 ShMem   1 Linda.
 NMat=     1 NSing=     0 JSym2X= 0.
 CoulSu:  requested number of processors reduced to:  17 ShMem   1 Linda.
 CalDSu:  requested number of processors reduced to:  33 ShMem   1 Linda.
 NMat=     1 NSing=     0 JSym2X= 0.
 CoulSu:  requested number of processors reduced to:  17 ShMem   1 Linda.
 CalDSu:  requested number of processors reduced to:  33 ShMem   1 Linda.
 NMat=     1 NSing=     0 JSym2X= 0.
 CoulSu:  requested number of processors reduced to:  17 ShMem   1 Linda.
 CalDSu:  requested number of processors reduced to:  33 ShMem   1 Linda.
 NMat=     1 NSing=     0 JSym2X= 0.
 CoulSu:  requested number of processors reduced to:  17 ShMem   1 Linda.
 CalDSu:  requested number of processors reduced to:  33 ShMem   1 Linda.
 NMat=     1 NSing=     0 JSym2X= 0.
 CoulSu:  requested number of processors reduced to:  17 ShMem   1 Linda.
 CalDSu:  requested number of processors reduced to:  33 ShMem   1 Linda.
 NMat=     1 NSing=     0 JSym2X= 0.
 CoulSu:  requested number of processors reduced to:  17 ShMem   1 Linda.
 CalDSu:  requested number of processors reduced to:  33 ShMem   1 Linda.
 NMat=     1 NSing=     0 JSym2X= 0.
 CoulSu:  requested number of processors reduced to:  17 ShMem   1 Linda.
 CalDSu:  requested number of processors reduced to:  33 ShMem   1 Linda.
 NMat=     1 NSing=     0 JSym2X= 0.
 CoulSu:  requested number of processors reduced to:  17 ShMem   1 Linda.
 CalDSu:  requested number of processors reduced to:  33 ShMem   1 Linda.
 NMat=     1 NSing=     0 JSym2X= 0.
 CoulSu:  requested number of processors reduced to:  17 ShMem   1 Linda.
 CalDSu:  requested number of processors reduced to:  33 ShMem   1 Linda.
 Root      1 not converged, maximum delta is    0.200887516342788
 Excitation Energies [eV] at current iteration:
 Root      1 :     2.040713928887864   Change is   -0.863719519364210
 Root      2 :     2.721957631731721   Change is   -0.774045151461776
 Root      3 :     3.332193525699459   Change is   -0.873384082718030
 Root      4 :     3.677070190759119   Change is   -0.695786516571125
 Root      5 :     3.738882079905832   Change is   -0.367967097330684
 Root      6 :     3.916802921605608   Change is   -0.574403108630660
 Root      7 :     4.133861190743955   Change is   -0.334828764433852
 Root      8 :     4.280144641173591   Change is   -0.590705077632360
 Root      9 :     4.363264639541671   Change is   -0.259327685946248
 Root     10 :     4.381648811571515   Change is   -0.227616464891690
 Root     11 :     4.458376952083163   Change is   -0.551793298064851
 Root     12 :     4.507878577998690   Change is   -0.234316807466260
 Root     13 :     4.591301729668107   Change is   -0.342429254403640
 Root     14 :     4.661449432676279   Change is   -0.325169195628079
 Root     15 :     4.726891557233896   Change is   -0.229368120336184
 Root     16 :     4.873318119869015   Change is   -0.185759911330154
 Root     17 :     4.887040897267288   Change is   -0.580440281889092
 Root     18 :     4.962410130077384   Change is   -0.430626339293394
 Root     19 :     5.028417124059595   Change is   -0.236785712807321
 Root     20 :     5.096586533187468   Change is   -0.229695430739888
 Root     21 :     5.120893551587784   Change is   -0.281498592263124
 Root     22 :     5.265458058318293   Change is   -0.280504629509166
 Root     23 :     5.322695878735547   Change is   -0.186513991992487
 Root     24 :     5.517640856259942   Change is   -0.364160376464236
 Iteration     3 Dimension    54 NMult    48 NNew      6
 Estimated number of processors is:   11
 CISAX will form     1 AO SS matrices at one time.
 NMat=     1 NSing=     1 JSym2X= 0.
 CoulSu:  requested number of processors reduced to:  17 ShMem   1 Linda.
 CalDSu:  requested number of processors reduced to:  33 ShMem   1 Linda.
 NMat=     1 NSing=     1 JSym2X= 0.
 CoulSu:  requested number of processors reduced to:  17 ShMem   1 Linda.
 CalDSu:  requested number of processors reduced to:  33 ShMem   1 Linda.
 NMat=     1 NSing=     1 JSym2X= 0.
 CoulSu:  requested number of processors reduced to:  17 ShMem   1 Linda.
 CalDSu:  requested number of processors reduced to:  33 ShMem   1 Linda.
 NMat=     1 NSing=     0 JSym2X= 0.
 CoulSu:  requested number of processors reduced to:  17 ShMem   1 Linda.
 CalDSu:  requested number of processors reduced to:  33 ShMem   1 Linda.
 NMat=     1 NSing=     0 JSym2X= 0.
 CoulSu:  requested number of processors reduced to:  17 ShMem   1 Linda.
 CalDSu:  requested number of processors reduced to:  33 ShMem   1 Linda.
 NMat=     1 NSing=     0 JSym2X= 0.
 CoulSu:  requested number of processors reduced to:  17 ShMem   1 Linda.
 CalDSu:  requested number of processors reduced to:  33 ShMem   1 Linda.
 Root      1 not converged, maximum delta is    0.055708858411133
 Excitation Energies [eV] at current iteration:
 Root      1 :     1.922047881863677   Change is   -0.118666047024187
 Root      2 :     2.572403224404331   Change is   -0.149554407327390
 Root      3 :     3.227161979594879   Change is   -0.105031546104580
 Root      4 :     3.682849922514241   Change is   -0.056032157391591
 Root      5 :     4.048767355645135   Change is   -0.085093835098820
 Root      6 :     4.259673042248592   Change is   -0.103591597293079
 Iteration     4 Dimension    60 NMult    54 NNew      6
 Estimated number of processors is:   11
 CISAX will form     1 AO SS matrices at one time.
 NMat=     1 NSing=     1 JSym2X= 0.
 CoulSu:  requested number of processors reduced to:  17 ShMem   1 Linda.
 CalDSu:  requested number of processors reduced to:  33 ShMem   1 Linda.
 NMat=     1 NSing=     1 JSym2X= 0.
 CoulSu:  requested number of processors reduced to:  17 ShMem   1 Linda.
 CalDSu:  requested number of processors reduced to:  33 ShMem   1 Linda.
 NMat=     1 NSing=     1 JSym2X= 0.
 CoulSu:  requested number of processors reduced to:  17 ShMem   1 Linda.
 CalDSu:  requested number of processors reduced to:  33 ShMem   1 Linda.
 NMat=     1 NSing=     0 JSym2X= 0.
 CoulSu:  requested number of processors reduced to:  17 ShMem   1 Linda.
 CalDSu:  requested number of processors reduced to:  33 ShMem   1 Linda.
 NMat=     1 NSing=     0 JSym2X= 0.
 CoulSu:  requested number of processors reduced to:  17 ShMem   1 Linda.
 CalDSu:  requested number of processors reduced to:  33 ShMem   1 Linda.
 NMat=     1 NSing=     0 JSym2X= 0.
 CoulSu:  requested number of processors reduced to:  17 ShMem   1 Linda.
 CalDSu:  requested number of processors reduced to:  33 ShMem   1 Linda.
 Root      1 not converged, maximum delta is    0.007881905908602
 Excitation Energies [eV] at current iteration:
 Root      1 :     1.911908396216416   Change is   -0.010139485647261
 Root      2 :     2.544169397559743   Change is   -0.028233826844589
 Root      3 :     3.206087680907805   Change is   -0.021074298687074
 Root      4 :     3.675122865491122   Change is   -0.007727057023119
 Root      5 :     4.020745655431755   Change is   -0.028021700213381
 Root      6 :     4.203375260981515   Change is   -0.056297781267077
 Iteration     5 Dimension    66 NMult    60 NNew      6
 Estimated number of processors is:   11
 CISAX will form     1 AO SS matrices at one time.
 NMat=     1 NSing=     1 JSym2X= 0.
 CoulSu:  requested number of processors reduced to:  17 ShMem   1 Linda.
 CalDSu:  requested number of processors reduced to:  33 ShMem   1 Linda.
 NMat=     1 NSing=     1 JSym2X= 0.
 CoulSu:  requested number of processors reduced to:  17 ShMem   1 Linda.
 CalDSu:  requested number of processors reduced to:  33 ShMem   1 Linda.
 NMat=     1 NSing=     1 JSym2X= 0.
 CoulSu:  requested number of processors reduced to:  17 ShMem   1 Linda.
 CalDSu:  requested number of processors reduced to:  33 ShMem   1 Linda.
 NMat=     1 NSing=     0 JSym2X= 0.
 CoulSu:  requested number of processors reduced to:  17 ShMem   1 Linda.
 CalDSu:  requested number of processors reduced to:  33 ShMem   1 Linda.
 NMat=     1 NSing=     0 JSym2X= 0.
 CoulSu:  requested number of processors reduced to:  17 ShMem   1 Linda.
 CalDSu:  requested number of processors reduced to:  33 ShMem   1 Linda.
 NMat=     1 NSing=     0 JSym2X= 0.
 CoulSu:  requested number of processors reduced to:  17 ShMem   1 Linda.
 CalDSu:  requested number of processors reduced to:  33 ShMem   1 Linda.
 Root      1 not converged, maximum delta is    0.001520294778887
 Excitation Energies [eV] at current iteration:
 Root      1 :     1.911126612336290   Change is   -0.000781783880126
 Root      2 :     2.540972236152758   Change is   -0.003197161406984
 Root      3 :     3.201874285724556   Change is   -0.004213395183249
 Root      4 :     3.673244864253990   Change is   -0.001878001237132
 Root      5 :     4.015313221294050   Change is   -0.005432434137705
 Root      6 :     4.187737037285874   Change is   -0.015638223695640
 Iteration     6 Dimension    72 NMult    66 NNew      6
 Estimated number of processors is:   11
 CISAX will form     1 AO SS matrices at one time.
 NMat=     1 NSing=     1 JSym2X= 0.
 CoulSu:  requested number of processors reduced to:  17 ShMem   1 Linda.
 CalDSu:  requested number of processors reduced to:  33 ShMem   1 Linda.
 NMat=     1 NSing=     1 JSym2X= 0.
 CoulSu:  requested number of processors reduced to:  17 ShMem   1 Linda.
 CalDSu:  requested number of processors reduced to:  33 ShMem   1 Linda.
 NMat=     1 NSing=     1 JSym2X= 0.
 CoulSu:  requested number of processors reduced to:  17 ShMem   1 Linda.
 CalDSu:  requested number of processors reduced to:  33 ShMem   1 Linda.
 NMat=     1 NSing=     0 JSym2X= 0.
 CoulSu:  requested number of processors reduced to:  17 ShMem   1 Linda.
 CalDSu:  requested number of processors reduced to:  33 ShMem   1 Linda.
 NMat=     1 NSing=     0 JSym2X= 0.
 CoulSu:  requested number of processors reduced to:  17 ShMem   1 Linda.
 CalDSu:  requested number of processors reduced to:  33 ShMem   1 Linda.
 NMat=     1 NSing=     0 JSym2X= 0.
 CoulSu:  requested number of processors reduced to:  17 ShMem   1 Linda.
 CalDSu:  requested number of processors reduced to:  33 ShMem   1 Linda.
 Root      1 has converged.
 Excitation Energies [eV] at current iteration:
 Root      1 :     1.911052886698497   Change is   -0.000073725637793
 Root      2 :     2.540640242002383   Change is   -0.000331994150376
 Root      3 :     3.201242471455332   Change is   -0.000631814269224
 Root      4 :     3.672908934010382   Change is   -0.000335930243608
 Root      5 :     4.014055666243848   Change is   -0.001257555050201
 Root      6 :     4.184416929735708   Change is   -0.003320107550167
 Convergence achieved on expansion vectors.
 ***********************************************************************
 Stability analysis using <AA,BB:AA,BB> singles matrix:
 ***********************************************************************
 1PDM for each excited state written to RWF  633
 Ground to excited state transition densities written to RWF  633

 Eigenvectors of the stability matrix:
 
 Eigenvector   1:      Triplet-A    Eigenvalue= 0.0702299  <S**2>=2.000
      51 -> 55         0.26135
      52 -> 55         0.10040
      54 -> 55         0.54323
      54 -> 57         0.15964
 The wavefunction is stable under the perturbations considered.
 Leave Link  914 at Sat Apr 17 08:36:51 2021, MaxMem=   104857600 cpu:          240028.8 elap:            9600.9
 (Enter /s/ls4/users/knvvv/bin/g16sse/l508.exe)
[...]
 Alpha  occ. eigenvalues --  -25.26025 -19.67249  -8.24906  -7.09196  -7.02523
 Alpha  occ. eigenvalues --   -6.86462  -6.85457  -6.17056  -6.16810  -6.16700
 Alpha  occ. eigenvalues --   -4.98277  -4.97976  -4.97810  -4.97138  -4.96927
 Alpha  occ. eigenvalues --   -4.96854  -4.40323  -4.39042  -2.90334  -2.90318
 Alpha  occ. eigenvalues --   -2.90176  -2.89572  -2.89401  -2.89215  -2.16354
 Alpha  occ. eigenvalues --   -1.35132  -1.15952  -0.82180  -0.72540  -0.70937
 Alpha  occ. eigenvalues --   -0.63710  -0.61085  -0.60565  -0.57586  -0.55575
 Alpha  occ. eigenvalues --   -0.53752  -0.48333  -0.47912  -0.45219  -0.44034
 Alpha  occ. eigenvalues --   -0.42358  -0.38076  -0.37330  -0.35936  -0.35048
 Alpha  occ. eigenvalues --   -0.31035  -0.29724  -0.27506  -0.25153
 Alpha virt. eigenvalues --   -0.04172  -0.02744  -0.02297  -0.01144  -0.00481
 Alpha virt. eigenvalues --    0.00427   0.01118   0.02135   0.02268   0.02851
 Alpha virt. eigenvalues --    0.03065   0.04090   0.04663   0.04876   0.05573
 Alpha virt. eigenvalues --    0.06250   0.07042   0.07230   0.07612   0.08494
 Alpha virt. eigenvalues --    0.08935   0.09369   0.09567   0.10375   0.11078
 Alpha virt. eigenvalues --    0.11438   0.12006   0.12480   0.13100   0.13262
 Alpha virt. eigenvalues --    0.13838   0.14272   0.14862   0.15665   0.16335
 Alpha virt. eigenvalues --    0.16985   0.17750   0.18264   0.18792   0.19158
 Alpha virt. eigenvalues --    0.20181   0.20588   0.21033   0.21883   0.22285
 Alpha virt. eigenvalues --    0.22779   0.23091   0.23208   0.24206   0.24409
 Alpha virt. eigenvalues --    0.25023   0.25446   0.25719   0.26230   0.26524
 Alpha virt. eigenvalues --    0.27046   0.27788   0.28182   0.28677   0.29595
 Alpha virt. eigenvalues --    0.29704   0.30338   0.31071   0.31203   0.32136
 Alpha virt. eigenvalues --    0.32835   0.33109   0.33552   0.33670   0.34473
 Alpha virt. eigenvalues --    0.34735   0.35185   0.36429   0.36836   0.38921
 Alpha virt. eigenvalues --    0.39106   0.39908   0.41201   0.41599   0.42604
 Alpha virt. eigenvalues --    0.42733   0.43529   0.44109   0.44951   0.45076
 Alpha virt. eigenvalues --    0.46057   0.46428   0.46856   0.47477   0.48175
 Alpha virt. eigenvalues --    0.48247   0.48461   0.49240   0.49854   0.50377
 Alpha virt. eigenvalues --    0.50541   0.51159   0.51619   0.52529   0.53891
 Alpha virt. eigenvalues --    0.53999   0.54307   0.54804   0.55425   0.56223
 Alpha virt. eigenvalues --    0.56572   0.57335   0.57671   0.58002   0.58398
 Alpha virt. eigenvalues --    0.59017   0.59284   0.59565   0.59898   0.60899
 Alpha virt. eigenvalues --    0.61997   0.62105   0.63140   0.63576   0.65068
 Alpha virt. eigenvalues --    0.65737   0.66015   0.66787   0.67113   0.67494
 Alpha virt. eigenvalues --    0.68550   0.69759   0.70391   0.71119   0.71358
 Alpha virt. eigenvalues --    0.71861   0.72349   0.72725   0.73029   0.73967
 Alpha virt. eigenvalues --    0.74834   0.75616   0.77067   0.77570   0.78171
 Alpha virt. eigenvalues --    0.78986   0.79384   0.80391   0.81091   0.81535
 Alpha virt. eigenvalues --    0.81984   0.82305   0.83176   0.83388   0.84699
 Alpha virt. eigenvalues --    0.85193   0.85745   0.86322   0.86431   0.88064
 Alpha virt. eigenvalues --    0.88407   0.88756   0.90718   0.90938   0.92679
 Alpha virt. eigenvalues --    0.92916   0.93636   0.94143   0.94513   0.96056
 Alpha virt. eigenvalues --    0.97169   0.98047   0.98312   0.99099   0.99424
 Alpha virt. eigenvalues --    0.99949   1.02198   1.02665   1.03654   1.05069
 Alpha virt. eigenvalues --    1.05250   1.06103   1.06779   1.07093   1.07673
 Alpha virt. eigenvalues --    1.09592   1.10531   1.10646   1.11525   1.12080
 Alpha virt. eigenvalues --    1.13264   1.13396   1.14224   1.14947   1.16090
 Alpha virt. eigenvalues --    1.16591   1.18026   1.18547   1.19242   1.20811
 Alpha virt. eigenvalues --    1.21390   1.21695   1.22100   1.22725   1.24076
 Alpha virt. eigenvalues --    1.24507   1.25857   1.26265   1.27222   1.28276
 Alpha virt. eigenvalues --    1.29021   1.30401   1.31165   1.31413   1.32388
 Alpha virt. eigenvalues --    1.33311   1.33695   1.34558   1.35233   1.36435
 Alpha virt. eigenvalues --    1.36612   1.37556   1.38282   1.39521   1.39842
 Alpha virt. eigenvalues --    1.40544   1.41298   1.41477   1.42667   1.42726
 Alpha virt. eigenvalues --    1.43236   1.43782   1.45860   1.46747   1.46836
 Alpha virt. eigenvalues --    1.47384   1.48067   1.48452   1.49655   1.51015
 Alpha virt. eigenvalues --    1.51362   1.52636   1.53669   1.53992   1.54147
 Alpha virt. eigenvalues --    1.54588   1.55300   1.55867   1.57503   1.57656
 Alpha virt. eigenvalues --    1.58032   1.59298   1.60590   1.61108   1.61916
 Alpha virt. eigenvalues --    1.62285   1.62857   1.63607   1.64088   1.65185
 Alpha virt. eigenvalues --    1.65663   1.66804   1.67850   1.68434   1.69171
 Alpha virt. eigenvalues --    1.69280   1.69755   1.69923   1.71280   1.72564
 Alpha virt. eigenvalues --    1.73059   1.73611   1.75511   1.77132   1.78001
 Alpha virt. eigenvalues --    1.78168   1.78795   1.80189   1.80531   1.81155
 Alpha virt. eigenvalues --    1.82669   1.84541   1.85298   1.85991   1.86299
 Alpha virt. eigenvalues --    1.86888   1.87617   1.89197   1.89997   1.91338
 Alpha virt. eigenvalues --    1.92013   1.94079   1.94275   1.95312   1.96706
 Alpha virt. eigenvalues --    1.97581   1.98565   1.98834   1.99767   2.02385
 Alpha virt. eigenvalues --    2.02487   2.03038   2.05094   2.05679   2.06448
 Alpha virt. eigenvalues --    2.06722   2.07897   2.08915   2.11288   2.11667
 Alpha virt. eigenvalues --    2.13592   2.15172   2.15670   2.16913   2.18795
 Alpha virt. eigenvalues --    2.19554   2.19845   2.22350   2.23131   2.24880
 Alpha virt. eigenvalues --    2.25016   2.27018   2.27615   2.29580   2.30857
 Alpha virt. eigenvalues --    2.31796   2.33667   2.35149   2.37209   2.38512
 Alpha virt. eigenvalues --    2.40252   2.41022   2.42283   2.42719   2.43510
 Alpha virt. eigenvalues --    2.45221   2.46972   2.47681   2.49901   2.50234
 Alpha virt. eigenvalues --    2.51279   2.52838   2.53490   2.54536   2.55215
 Alpha virt. eigenvalues --    2.57616   2.57716   2.59369   2.60597   2.61540
 Alpha virt. eigenvalues --    2.62680   2.63508   2.64287   2.64795   2.66706
 Alpha virt. eigenvalues --    2.66827   2.68458   2.70022   2.70659   2.71043
 Alpha virt. eigenvalues --    2.72353   2.74143   2.75577   2.76528   2.77180
 Alpha virt. eigenvalues --    2.78610   2.78994   2.79779   2.81154   2.82496
 Alpha virt. eigenvalues --    2.83209   2.84606   2.84984   2.86647   2.87389
 Alpha virt. eigenvalues --    2.88222   2.88993   2.90375   2.90576   2.91097
 Alpha virt. eigenvalues --    2.91910   2.92875   2.93362   2.95118   2.95569
 Alpha virt. eigenvalues --    2.96938   2.98131   2.98454   2.99563   3.00299
 Alpha virt. eigenvalues --    3.01429   3.03056   3.03932   3.05241   3.06052
 Alpha virt. eigenvalues --    3.06620   3.08497   3.09264   3.10503   3.10811
 Alpha virt. eigenvalues --    3.11821   3.14494   3.14612   3.15381   3.17634
 Alpha virt. eigenvalues --    3.18371   3.18731   3.19957   3.20407   3.22908
 Alpha virt. eigenvalues --    3.23879   3.24859   3.26538   3.28637   3.28771
 Alpha virt. eigenvalues --    3.29221   3.29696   3.31576   3.32935   3.34931
 Alpha virt. eigenvalues --    3.35237   3.37108   3.38475   3.40025   3.40306
 Alpha virt. eigenvalues --    3.40965   3.42466   3.43349   3.45645   3.47414
 Alpha virt. eigenvalues --    3.49133   3.50554   3.51526   3.52390   3.54146
 Alpha virt. eigenvalues --    3.55467   3.56986   3.58076   3.59696   3.61165
 Alpha virt. eigenvalues --    3.62298   3.64421   3.65671   3.67185   3.69970
 Alpha virt. eigenvalues --    3.72533   3.73602   3.76348   3.77174   3.77731
 Alpha virt. eigenvalues --    3.79880   3.80978   3.84125   3.85277   3.87488
 Alpha virt. eigenvalues --    3.89447   3.91057   3.92003   3.93060   3.95563
 Alpha virt. eigenvalues --    3.98160   4.00668   4.02007   4.02592   4.04338
 Alpha virt. eigenvalues --    4.05808   4.07115   4.09051   4.10714   4.12060
 Alpha virt. eigenvalues --    4.12870   4.16680   4.17897   4.21937   4.22255
 Alpha virt. eigenvalues --    4.22895   4.23751   4.26082   4.29141   4.30084
 Alpha virt. eigenvalues --    4.31414   4.32184   4.33225   4.34571   4.36672
 Alpha virt. eigenvalues --    4.37572   4.39249   4.42341   4.43424   4.44723
 Alpha virt. eigenvalues --    4.45603   4.48269   4.49619   4.51862   4.53196
 Alpha virt. eigenvalues --    4.55245   4.56398   4.58737   4.60433   4.61738
 Alpha virt. eigenvalues --    4.64889   4.65535   4.66826   4.67404   4.68739
 Alpha virt. eigenvalues --    4.69960   4.72311   4.74656   4.76067   4.77783
 Alpha virt. eigenvalues --    4.78681   4.81589   4.85784   4.87047   4.89398
 Alpha virt. eigenvalues --    4.96983   4.99104   5.00339   5.04484   5.10900
 Alpha virt. eigenvalues --    5.12245   5.19859   5.25354   5.27659   5.37270
 Alpha virt. eigenvalues --    5.40109   5.43745   5.45917   5.50125   5.53525
 Alpha virt. eigenvalues --    5.57018   5.58779   5.59208   5.59547   5.64189
 Alpha virt. eigenvalues --    5.65150   5.65335   5.65748   5.73340   5.75939
 Alpha virt. eigenvalues --    5.79518   5.82359   5.85929   5.86479   5.86962
 Alpha virt. eigenvalues --    5.88128   5.90373   5.91560   5.97471   5.99925
 Alpha virt. eigenvalues --    6.02330   6.02755   6.07533   6.09509   6.12618
 Alpha virt. eigenvalues --    6.16579   6.21812   6.24539   6.26584   6.29656
 Alpha virt. eigenvalues --    6.34583   6.36954   6.41017   6.41231   6.43434
 Alpha virt. eigenvalues --    6.46383   6.48136   6.51402   6.51967   6.62317
 Alpha virt. eigenvalues --    6.64348   6.66188   6.71014   6.71585   6.79286
 Alpha virt. eigenvalues --    6.81652   6.84255   6.87431   6.94441   7.02788
 Alpha virt. eigenvalues --    7.10021   7.11563   7.13366   7.15120   7.17634
 Alpha virt. eigenvalues --    7.22595   7.25479   7.27600   7.29684   7.33014
 Alpha virt. eigenvalues --    7.34604   7.37779   7.39892   7.40712   7.41471
 Alpha virt. eigenvalues --    7.44655   7.45169   7.46836   7.49331   7.53133
 Alpha virt. eigenvalues --    7.54819   7.56003   7.58386   7.62218   7.63341
 Alpha virt. eigenvalues --    7.66663   7.69368   7.69864   7.72386   7.73266
 Alpha virt. eigenvalues --    7.75031   7.75817   7.81229   7.81487   7.83630
 Alpha virt. eigenvalues --    7.84457   7.87529   7.91415   7.93619   8.00413
 Alpha virt. eigenvalues --    8.01602   8.05076   8.10013   8.11336   8.14394
 Alpha virt. eigenvalues --    8.24676   8.27366   8.29445   8.31906   8.34646
 Alpha virt. eigenvalues --    8.36054   8.40933   8.43244   8.44593   8.44893
 Alpha virt. eigenvalues --    8.47338   8.48479   8.51522   8.54264   8.56302
 Alpha virt. eigenvalues --    8.61288   8.67138   8.69873   8.71854   8.75984
 Alpha virt. eigenvalues --    8.77152   8.80146   8.83257   8.84208   8.85801
 Alpha virt. eigenvalues --    8.86403   8.87121   8.87699   8.91050   8.92528
 Alpha virt. eigenvalues --    8.95395   8.99945   9.00413   9.03834   9.11309
 Alpha virt. eigenvalues --    9.11895   9.13262   9.22225   9.26899   9.30206
 Alpha virt. eigenvalues --    9.41558   9.64790   9.70730   9.91944   9.93750
 Alpha virt. eigenvalues --    9.96521  10.09487  10.38726  10.56291  10.80066
 Alpha virt. eigenvalues --   10.82053  10.87887  11.10479  11.15584  11.27416
 Alpha virt. eigenvalues --   11.32318  11.32393  11.33938  11.34429  11.48043
 Alpha virt. eigenvalues --   11.48652  11.53468  11.58098  11.58498  11.66884
 Alpha virt. eigenvalues --   11.74125  11.74885  12.18971  12.35255  12.43487
 Alpha virt. eigenvalues --   12.63190  13.13715  13.54138  13.58610  13.90844
 Alpha virt. eigenvalues --   14.52718  14.58606  14.67457  14.72260  15.06418
 Alpha virt. eigenvalues --   15.11440  15.17304  15.97044  16.10477  16.16109
 Alpha virt. eigenvalues --   16.25442  16.28186  16.34002  16.75657  18.16465
 Alpha virt. eigenvalues --   18.23624  18.40719  18.43552  18.73896  18.80022
 Alpha virt. eigenvalues --   20.20687  20.30724  20.48983  20.65517  24.52754
 Alpha virt. eigenvalues --   29.14922  29.20584  29.30530  45.99257  46.43844
 Alpha virt. eigenvalues --   48.09191  55.00923  70.87324  71.06195  84.22859
 Alpha virt. eigenvalues --  101.63978 101.78363 251.15057 253.42688 254.18717
 Alpha virt. eigenvalues --  284.06368 380.95586 381.27145 450.00179
          Condensed to atoms (all electrons):
               1          2          3          4          5          6
     1  H    0.372866  -0.000505  -0.023241  -0.017344  -0.006707  -0.005800
     2  F   -0.000505   9.137546   0.000394  -0.012097  -0.000030   0.002571
     3  P   -0.023241   0.000394  14.159870   0.431671   0.326504   0.002086
     4  Al  -0.017344  -0.012097   0.431671  11.280244  -0.037334   0.004584
     5  H   -0.006707  -0.000030   0.326504  -0.037334   0.726389  -0.000104
     6  H   -0.005800   0.002571   0.002086   0.004584  -0.000104   0.806907
     7  Al   0.008794   0.073344  -0.000943  -0.010954   0.000977  -0.040186
     8  B    0.001410  -0.062420   0.004666  -0.039732  -0.000728   0.311545
     9  Li  -0.010341  -0.001236  -0.022284   0.002775   0.002169   0.111843
    10  P   -0.002213  -0.029195   0.002475   0.106367  -0.000439  -0.031360
    11  O    0.309217   0.000194   0.182717  -0.060842  -0.027735  -0.008681
    12  H    0.000215   0.000095  -0.011538   0.405472   0.000902  -0.000045
    13  H    0.008279  -0.044574  -0.036210   0.079134   0.008040  -0.004700
    14  B    0.009996   0.252103  -0.018562   0.103309  -0.006233  -0.042021
    15  S    0.004338   0.000688  -0.042041   0.394038   0.002618  -0.002268
    16  H   -0.000150  -0.002452  -0.000107   0.003121  -0.000015  -0.033722
               7          8          9         10         11         12
     1  H    0.008794   0.001410  -0.010341  -0.002213   0.309217   0.000215
     2  F    0.073344  -0.062420  -0.001236  -0.029195   0.000194   0.000095
     3  P   -0.000943   0.004666  -0.022284   0.002475   0.182717  -0.011538
     4  Al  -0.010954  -0.039732   0.002775   0.106367  -0.060842   0.405472
     5  H    0.000977  -0.000728   0.002169  -0.000439  -0.027735   0.000902
     6  H   -0.040186   0.311545   0.111843  -0.031360  -0.008681  -0.000045
     7  Al  12.684175   0.098836  -0.014421  -0.024015   0.000337   0.000219
     8  B    0.098836   4.122975   0.024699   0.381756   0.002495   0.001265
     9  Li  -0.014421   0.024699   2.185930   0.018233   0.156439   0.003175
    10  P   -0.024015   0.381756   0.018233  14.016041   0.002327  -0.001458
    11  O    0.000337   0.002495   0.156439   0.002327   7.964551   0.000794
    12  H    0.000219   0.001265   0.003175  -0.001458   0.000794   0.763165
    13  H   -0.001439  -0.058627   0.012555  -0.046944  -0.006010  -0.002791
    14  B    0.018857   0.188895  -0.009597   0.324361   0.004767  -0.003313
    15  S    0.003800  -0.046927   0.179521   0.194454  -0.003284  -0.004563
    16  H    0.014999   0.332613  -0.016145  -0.028552   0.000173   0.000001
              13         14         15         16
     1  H    0.008279   0.009996   0.004338  -0.000150
     2  F   -0.044574   0.252103   0.000688  -0.002452
     3  P   -0.036210  -0.018562  -0.042041  -0.000107
     4  Al   0.079134   0.103309   0.394038   0.003121
     5  H    0.008040  -0.006233   0.002618  -0.000015
     6  H   -0.004700  -0.042021  -0.002268  -0.033722
     7  Al  -0.001439   0.018857   0.003800   0.014999
     8  B   -0.058627   0.188895  -0.046927   0.332613
     9  Li   0.012555  -0.009597   0.179521  -0.016145
    10  P   -0.046944   0.324361   0.194454  -0.028552
    11  O   -0.006010   0.004767  -0.003284   0.000173
    12  H   -0.002791  -0.003313  -0.004563   0.000001
    13  H    0.918035   0.272816   0.007579   0.000674
    14  B    0.272816   3.784991  -0.043690  -0.009959
    15  S    0.007579  -0.043690  15.583429   0.003240
    16  H    0.000674  -0.009959   0.003240   0.713475
 Mulliken charges:
               1
     1  H    0.351186
     2  F   -0.314425
     3  P    0.044544
     4  Al   0.367587
     5  H    0.011727
     6  H   -0.070649
     7  Al   0.187619
     8  B   -0.262719
     9  Li   0.376686
    10  P    0.118160
    11  O   -0.517459
    12  H   -0.151595
    13  H   -0.105817
    14  B    0.173278
    15  S   -0.230931
    16  H    0.022808
 Sum of Mulliken charges =  -0.00000
 Mulliken charges with hydrogens summed into heavy atoms:
               1
     2  F   -0.314425
     3  P    0.056270
     4  Al   0.215992
     7  Al   0.187619
     8  B   -0.310560
     9  Li   0.376686
    10  P    0.118160
    11  O   -0.166272
    14  B    0.067462
    15  S   -0.230931
 Electronic spatial extent (au):  <R**2>=           2476.3591
 Charge=             -0.0000 electrons
 Dipole moment (field-independent basis, Debye):
    X=              0.2027    Y=             -2.0094    Z=             -2.3931  Tot=              3.1314
 Quadrupole moment (field-independent basis, Debye-Ang):
   XX=            -99.0801   YY=            -99.9840   ZZ=            -89.8568
   XY=             -1.0282   XZ=             -0.1147   YZ=             -3.0021
 Traceless Quadrupole moment (field-independent basis, Debye-Ang):
   XX=             -2.7731   YY=             -3.6770   ZZ=              6.4502
   XY=             -1.0282   XZ=             -0.1147   YZ=             -3.0021
 Octapole moment (field-independent basis, Debye-Ang**2):
  XXX=              2.0198  YYY=            -12.8021  ZZZ=            -27.0708  XYY=              0.2108
  XXY=             14.7783  XXZ=              6.1864  XZZ=            -15.1817  YZZ=             -3.7056
  YYZ=              9.3947  XYZ=              4.4754
 Hexadecapole moment (field-independent basis, Debye-Ang**3):
 XXXX=          -2060.9332 YYYY=          -1165.4915 ZZZZ=           -558.1086 XXXY=             31.7134
 XXXZ=             32.6069 YYYX=             27.2166 YYYZ=            -11.1503 ZZZX=             83.5402
 ZZZY=            -14.5084 XXYY=           -583.1520 XXZZ=           -427.5156 YYZZ=           -293.5195
 XXYZ=            -15.7490 YYXZ=              7.6822 ZZXY=              5.1681
 N-N= 8.939688523447D+02 E-N=-6.074040659390D+03  KE= 1.798133063459D+03
 PrsmSu:  requested number of processors reduced to:  19 ShMem   1 Linda.
 No NMR shielding tensors so no spin-rotation constants.
 Leave Link  601 at Sat Apr 17 08:37:04 2021, MaxMem=   104857600 cpu:             585.7 elap:              12.8
 (Enter /s/ls4/users/knvvv/bin/g16sse/l9999.exe)

 Test job not archived.
 1\1\GINC-N146\Stability\RM062X\def2QZVP\Al2B2F1H6Li1O1P2S1\KNVVV\17-Ap
 r-2021\0\\#P M062X/Def2QZVP Integral=UltraFineGrid SCF=NoSymm Stable=(
 RExt, Opt) IOp(1/33=1)\\Database calculations.\\0,1\H,0,-1.1331376,-0.
 7112283,-1.230297\F,0,2.363682,-1.0837552,0.2350732\P,0,-2.6046757,-0.
 9193617,0.5127214\Al,0,-0.6930425,-0.2803441,1.8227687\H,0,-2.2977331,
 -2.2779499,0.2110751\H,0,0.32697,1.3890058,-1.7369122\Al,0,2.2413976,-
 0.893459,-1.872357\B,0,1.1807531,1.02438,-0.9545542\Li,0,-1.2292014,1.
 5378094,-0.7391802\P,0,1.2412268,1.5138396,0.9674798\O,0,-1.9390707,-0
 .2270709,-0.9628768\H,0,-0.1848303,-0.9312888,3.1645712\H,0,0.1561115,
 -1.0595506,0.2805879\B,0,1.1136498,-0.3002625,0.1639159\S,0,-0.8432717
 ,1.9535955,1.5233855\H,0,2.3011725,1.2656406,-1.3854014\\Version=ES64L
 -G16RevA.03\State=1-A\HF=-1801.9004538\RMSD=3.675e-09\Dipole=-0.431072
 6,-0.0047547,-1.154108\Quadrupole=-2.5710053,2.6571922,-0.0861869,-1.6
 995501,-0.0448862,-3.6338073\PG=C01 [X(Al2B2F1H6Li1O1P2S1)]\\@


 E PUR SI MUOVE    -- GALILEO GALILEI
 Job cpu time:       3 days  2 hours 22 minutes  0.5 seconds.
 Elapsed time:       0 days  2 hours 59 minutes 56.1 seconds.
 File lengths (MBytes):  RWF=   1872 Int=      0 D2E=      0 Chk=     83 Scr=      1
 Normal termination of Gaussian 16 at Sat Apr 17 08:37:04 2021.
