 Entering Gaussian System, Link 0=/s/ls4/users/knvvv/bin/g16sse/g16
 Input=data/database/M062X--BE13--22_NiCl-nr_MR-TM-BE13.gjf
 Output=data/database/M062X--BE13--22_NiCl-nr_MR-TM-BE13.log
 Initial command:
 /s/ls4/users/knvvv/bin/g16sse/l1.exe "/s/ls4/users/knvvv/bin/scratch/Gau-44495.inp" -scrdir="/s/ls4/users/knvvv/bin/scratch/"
 Entering Link 1 = /s/ls4/users/knvvv/bin/g16sse/l1.exe PID=     44496.
  
 Copyright (c) 1988,1990,1992,1993,1995,1998,2003,2009,2016,
            Gaussian, Inc.  All Rights Reserved.
  
 This is part of the Gaussian(R) 16 program.  It is based on
 the Gaussian(R) 09 system (copyright 2009, Gaussian, Inc.),
 the Gaussian(R) 03 system (copyright 2003, Gaussian, Inc.),
 the Gaussian(R) 98 system (copyright 1998, Gaussian, Inc.),
 the Gaussian(R) 94 system (copyright 1995, Gaussian, Inc.),
 the Gaussian 92(TM) system (copyright 1992, Gaussian, Inc.),
 the Gaussian 90(TM) system (copyright 1990, Gaussian, Inc.),
 the Gaussian 88(TM) system (copyright 1988, Gaussian, Inc.),
 the Gaussian 86(TM) system (copyright 1986, Carnegie Mellon
 University), and the Gaussian 82(TM) system (copyright 1983,
 Carnegie Mellon University). Gaussian is a federally registered
 trademark of Gaussian, Inc.
  
 This software contains proprietary and confidential information,
 including trade secrets, belonging to Gaussian, Inc.
  
 This software is provided under written license and may be
 used, copied, transmitted, or stored only in accord with that
 written license.
  
 The following legend is applicable only to US Government
 contracts under FAR:
  
                    RESTRICTED RIGHTS LEGEND
  
 Use, reproduction and disclosure by the US Government is
 subject to restrictions as set forth in subparagraphs (a)
 and (c) of the Commercial Computer Software - Restricted
 Rights clause in FAR 52.227-19.
  
 Gaussian, Inc.
 340 Quinnipiac St., Bldg. 40, Wallingford CT 06492
  
  
 ---------------------------------------------------------------
 Warning -- This program may not be used in any manner that
 competes with the business of Gaussian, Inc. or will provide
 assistance to any competitor of Gaussian, Inc.  The licensee
 of this program is prohibited from giving any competitor of
 Gaussian, Inc. access to this program.  By using this program,
 the user acknowledges that Gaussian, Inc. is engaged in the
 business of creating and licensing software in the field of
 computational chemistry and represents and warrants to the
 licensee that it is not a competitor of Gaussian, Inc. and that
 it will not use this program in any manner prohibited above.
 ---------------------------------------------------------------
  

 Cite this work as:
 Gaussian 16, Revision A.03,
 M. J. Frisch, G. W. Trucks, H. B. Schlegel, G. E. Scuseria, 
 M. A. Robb, J. R. Cheeseman, G. Scalmani, V. Barone, 
 G. A. Petersson, H. Nakatsuji, X. Li, M. Caricato, A. V. Marenich, 
 J. Bloino, B. G. Janesko, R. Gomperts, B. Mennucci, H. P. Hratchian, 
 J. V. Ortiz, A. F. Izmaylov, J. L. Sonnenberg, D. Williams-Young, 
 F. Ding, F. Lipparini, F. Egidi, J. Goings, B. Peng, A. Petrone, 
 T. Henderson, D. Ranasinghe, V. G. Zakrzewski, J. Gao, N. Rega, 
 G. Zheng, W. Liang, M. Hada, M. Ehara, K. Toyota, R. Fukuda, 
 J. Hasegawa, M. Ishida, T. Nakajima, Y. Honda, O. Kitao, H. Nakai, 
 T. Vreven, K. Throssell, J. A. Montgomery, Jr., J. E. Peralta, 
 F. Ogliaro, M. J. Bearpark, J. J. Heyd, E. N. Brothers, K. N. Kudin, 
 V. N. Staroverov, T. A. Keith, R. Kobayashi, J. Normand, 
 K. Raghavachari, A. P. Rendell, J. C. Burant, S. S. Iyengar, 
 J. Tomasi, M. Cossi, J. M. Millam, M. Klene, C. Adamo, R. Cammi, 
 J. W. Ochterski, R. L. Martin, K. Morokuma, O. Farkas, 
 J. B. Foresman, and D. J. Fox, Gaussian, Inc., Wallingford CT, 2016.
 
 ******************************************
 Gaussian 16:  ES64L-G16RevA.03 25-Dec-2016
                16-Apr-2021 
 ******************************************
 %RWF=temp4_64716,70GB
 %nprocshared=48
 Will use up to   48 processors via shared memory.
 Default route: MaxDisk=80GB
 ----------------------------------------------------------------------
 #P M062X/GEN Integral=UltraFineGrid SCF=NoSymm Stable=(RExt, Opt) IOp(
 1/33=1)
 ----------------------------------------------------------------------
 1/33=1,38=1,172=1/1;
 2/12=2,17=6,18=5,40=1/2;
 3/5=7,11=2,25=1,30=1,74=-55,75=-5/1,2,3;
 4/9=2/1;
 5/5=2,38=5/2;
 6/7=2,8=2,9=2,10=2,28=1/1;
 8/6=1,10=90,11=11/1;
 9/8=-3,42=1,46=1/14;
 5/5=2,8=3,17=40,38=5/8(-2);
 6/7=2,8=2,9=2,10=2,28=1/1;
 99/5=1,9=1/99;
 Leave Link    1 at Fri Apr 16 22:49:57 2021, MaxMem=           0 cpu:              10.8 elap:               0.2
 (Enter /s/ls4/users/knvvv/bin/g16sse/l101.exe)
 ONIOM data not found on unit 2.
 ----------------------
 Database calculations.
 ----------------------
 TstMul:  ICh=     0
 TstMul:  Mul=     2
 TstMul:  ICh=     0
 TstMul:  Mul=     2
 Symbolic Z-matrix:
 Charge =  0 Multiplicity = 2
 Ni                    0.        0.        0. 
 Cl                    0.        0.        2.073 
 
 RdStrC is calling ZToCFu for IStruc=1 NZ=     2.
 PrtBox:  NBox=     1 Levels=  1 BoxLen=    8.00 SMaxX=        3.92
          Shift=            0.000000            0.000000            0.000000
 Box      1 Number                   0 centers from      1 to      2:
 After GenITR:
 ITRead=  0  0
 MicOpt= -1 -1
 ITRead=  0  0
 MicOpt= -1 -1
 NAtoms=      2 NQM=        2 NQMF=       0 NMMI=      0 NMMIF=      0
                NMic=       0 NMicF=      0.
                    Isotopes and Nuclear Properties:
 (Nuclear quadrupole moments (NQMom) in fm**2, nuclear magnetic moments (NMagM)
  in nuclear magnetons)

  Atom         1           2
 IAtWgt=          58          35
 AtmWgt=  57.9353471  34.9688527
 NucSpn=           0           3
 AtZEff=  -0.0000000  -0.0000000
 NQMom=    0.0000000  -8.1650000
 NMagM=    0.0000000   0.8218740
 AtZNuc=  28.0000000  17.0000000
 No MM parameters found.
 Leave Link  101 at Fri Apr 16 22:49:57 2021, MaxMem=   104857600 cpu:               6.9 elap:               0.2
 (Enter /s/ls4/users/knvvv/bin/g16sse/l202.exe)
                          Input orientation:                          
 ---------------------------------------------------------------------
 Center     Atomic      Atomic             Coordinates (Angstroms)
 Number     Number       Type             X           Y           Z
 ---------------------------------------------------------------------
      1         28           0        0.000000    0.000000    0.000000
      2         17           0        0.000000    0.000000    2.073000
 ---------------------------------------------------------------------
 Stoichiometry    ClNi(2)
 Framework group  C*V[C*(ClNi)]
 Deg. of freedom     1
 Full point group                 C*V     NOp   4
 Largest Abelian subgroup         C2V     NOp   4
 Largest concise Abelian subgroup C1      NOp   1
                         Standard orientation:                         
 ---------------------------------------------------------------------
 Center     Atomic      Atomic             Coordinates (Angstroms)
 Number     Number       Type             X           Y           Z
 ---------------------------------------------------------------------
      1         28           0        0.000000    0.000000    0.783133
      2         17           0        0.000000    0.000000   -1.289867
 ---------------------------------------------------------------------
 Rotational constants (GHZ):           0.0000000           5.3929817           5.3929817
 Leave Link  202 at Fri Apr 16 22:49:57 2021, MaxMem=   104857600 cpu:               6.0 elap:               0.1
 (Enter /s/ls4/users/knvvv/bin/g16sse/l301.exe)
 General basis read from cards:  (5D, 7F)
 Centers:       2
 S 15 1.00
     Exponent=  4.5610000000D+05 Coefficients=  4.9300000000D-05
     Exponent=  6.8330000000D+04 Coefficients=  3.8300000000D-04
     Exponent=  1.5550000000D+04 Coefficients=  2.0085000000D-03
     Exponent=  4.4050000000D+03 Coefficients=  8.3856000000D-03
     Exponent=  1.4390000000D+03 Coefficients=  2.9470300000D-02
     Exponent=  5.2040000000D+02 Coefficients=  8.7832500000D-02
     Exponent=  2.0310000000D+02 Coefficients=  2.1147300000D-01
     Exponent=  8.3960000000D+01 Coefficients=  3.6536400000D-01
     Exponent=  3.6200000000D+01 Coefficients=  3.4088400000D-01
     Exponent=  1.5830000000D+01 Coefficients=  1.0213300000D-01
     Exponent=  6.3340000000D+00 Coefficients=  3.1168000000D-03
     Exponent=  2.6940000000D+00 Coefficients=  1.0575000000D-03
     Exponent=  9.7680000000D-01 Coefficients= -3.7800000000D-04
     Exponent=  4.3130000000D-01 Coefficients=  1.5610000000D-04
     Exponent=  1.6250000000D-01 Coefficients= -5.1400000000D-05
 S 15 1.00
     Exponent=  4.5610000000D+05 Coefficients= -1.3800000000D-05
     Exponent=  6.8330000000D+04 Coefficients= -1.0730000000D-04
     Exponent=  1.5550000000D+04 Coefficients= -5.6510000000D-04
     Exponent=  4.4050000000D+03 Coefficients= -2.3614000000D-03
     Exponent=  1.4390000000D+03 Coefficients= -8.4589000000D-03
     Exponent=  5.2040000000D+02 Coefficients= -2.5963800000D-02
     Exponent=  2.0310000000D+02 Coefficients= -6.8636200000D-02
     Exponent=  8.3960000000D+01 Coefficients= -1.4187400000D-01
     Exponent=  3.6200000000D+01 Coefficients= -1.9931900000D-01
     Exponent=  1.5830000000D+01 Coefficients= -1.9566200000D-02
     Exponent=  6.3340000000D+00 Coefficients=  4.9974100000D-01
     Exponent=  2.6940000000D+00 Coefficients=  5.6373600000D-01
     Exponent=  9.7680000000D-01 Coefficients=  7.9032500000D-02
     Exponent=  4.3130000000D-01 Coefficients= -8.3509000000D-03
     Exponent=  1.6250000000D-01 Coefficients=  2.3246000000D-03
 S 15 1.00
     Exponent=  4.5610000000D+05 Coefficients=  4.2000000000D-06
     Exponent=  6.8330000000D+04 Coefficients=  3.2400000000D-05
     Exponent=  1.5550000000D+04 Coefficients=  1.7110000000D-04
     Exponent=  4.4050000000D+03 Coefficients=  7.1420000000D-04
     Exponent=  1.4390000000D+03 Coefficients=  2.5670000000D-03
     Exponent=  5.2040000000D+02 Coefficients=  7.8855000000D-03
     Exponent=  2.0310000000D+02 Coefficients=  2.1086700000D-02
     Exponent=  8.3960000000D+01 Coefficients=  4.4226400000D-02
     Exponent=  3.6200000000D+01 Coefficients=  6.5167000000D-02
     Exponent=  1.5830000000D+01 Coefficients=  6.0301000000D-03
     Exponent=  6.3340000000D+00 Coefficients= -2.0649500000D-01
     Exponent=  2.6940000000D+00 Coefficients= -4.0587100000D-01
     Exponent=  9.7680000000D-01 Coefficients=  7.5955800000D-02
     Exponent=  4.3130000000D-01 Coefficients=  7.2566100000D-01
     Exponent=  1.6250000000D-01 Coefficients=  3.9442300000D-01
 S 1 1.00
     Exponent=  9.7680000000D-01 Coefficients=  1.0000000000D+00
 S 1 1.00
     Exponent=  1.6250000000D-01 Coefficients=  1.0000000000D+00
 S 1 1.00
     Exponent=  5.9100000000D-02 Coefficients=  1.0000000000D+00
 P 9 1.00
     Exponent=  6.6330000000D+02 Coefficients=  2.4045000000D-03
     Exponent=  1.5680000000D+02 Coefficients=  1.9214800000D-02
     Exponent=  4.9980000000D+01 Coefficients=  8.8509700000D-02
     Exponent=  1.8420000000D+01 Coefficients=  2.5602000000D-01
     Exponent=  7.2400000000D+00 Coefficients=  4.3692700000D-01
     Exponent=  2.9220000000D+00 Coefficients=  3.5033400000D-01
     Exponent=  1.0220000000D+00 Coefficients=  5.8549500000D-02
     Exponent=  3.8180000000D-01 Coefficients= -4.5842000000D-03
     Exponent=  1.3010000000D-01 Coefficients=  2.2697000000D-03
 P 9 1.00
     Exponent=  6.6330000000D+02 Coefficients= -6.5210000000D-04
     Exponent=  1.5680000000D+02 Coefficients= -5.1945000000D-03
     Exponent=  4.9980000000D+01 Coefficients= -2.4693800000D-02
     Exponent=  1.8420000000D+01 Coefficients= -7.2816700000D-02
     Exponent=  7.2400000000D+00 Coefficients= -1.3403000000D-01
     Exponent=  2.9220000000D+00 Coefficients= -9.4774200000D-02
     Exponent=  1.0220000000D+00 Coefficients=  2.6228900000D-01
     Exponent=  3.8180000000D-01 Coefficients=  5.6466700000D-01
     Exponent=  1.3010000000D-01 Coefficients=  3.4125000000D-01
 P 1 1.00
     Exponent=  1.0220000000D+00 Coefficients=  1.0000000000D+00
 P 1 1.00
     Exponent=  1.3010000000D-01 Coefficients=  1.0000000000D+00
 P 1 1.00
     Exponent=  4.1900000000D-02 Coefficients=  1.0000000000D+00
 D 1 1.00
     Exponent=  1.0460000000D+00 Coefficients=  1.0000000000D+00
 D 1 1.00
     Exponent=  3.4400000000D-01 Coefficients=  1.0000000000D+00
 D 1 1.00
     Exponent=  1.3500000000D-01 Coefficients=  1.0000000000D+00
 F 1 1.00
     Exponent=  7.0600000000D-01 Coefficients=  1.0000000000D+00
 F 1 1.00
     Exponent=  3.1200000000D-01 Coefficients=  1.0000000000D+00
 ****
 Centers:       1
 S 20 1.00
     Exponent=  5.0459910000D+06 Coefficients=  8.2089960000D-06
     Exponent=  7.5561420000D+05 Coefficients=  6.3828840000D-05
     Exponent=  1.7195680000D+05 Coefficients=  3.3558000000D-04
     Exponent=  4.8704790000D+04 Coefficients=  1.4150750000D-03
     Exponent=  1.5888410000D+04 Coefficients=  5.1244440000D-03
     Exponent=  5.7351230000D+03 Coefficients=  1.6432560000D-02
     Exponent=  2.2361370000D+03 Coefficients=  4.6893980000D-02
     Exponent=  9.2664680000D+02 Coefficients=  1.1635340000D-01
     Exponent=  4.0317430000D+02 Coefficients=  2.3505110000D-01
     Exponent=  1.8234760000D+02 Coefficients=  3.3501840000D-01
     Exponent=  8.4548850000D+01 Coefficients=  2.5347790000D-01
     Exponent=  3.8396340000D+01 Coefficients=  7.3009010000D-02
     Exponent=  1.8458590000D+01 Coefficients=  6.1842440000D-02
     Exponent=  8.8635480000D+00 Coefficients=  6.3029560000D-02
     Exponent=  3.9162270000D+00 Coefficients=  1.0080630000D-02
     Exponent=  1.8388700000D+00 Coefficients= -2.2445280000D-04
     Exponent=  8.0436200000D-01 Coefficients= -5.9327670000D-05
     Exponent=  1.6979700000D-01 Coefficients= -1.1585620000D-05
     Exponent=  7.9306000000D-02 Coefficients=  8.1151090000D-06
     Exponent=  3.4677000000D-02 Coefficients= -1.6816990000D-06
 S 20 1.00
     Exponent=  5.0459910000D+06 Coefficients= -3.6578490000D-06
     Exponent=  7.5561420000D+05 Coefficients= -2.8440940000D-05
     Exponent=  1.7195680000D+05 Coefficients= -1.4959280000D-04
     Exponent=  4.8704790000D+04 Coefficients= -6.3130090000D-04
     Exponent=  1.5888410000D+04 Coefficients= -2.2930520000D-03
     Exponent=  5.7351230000D+03 Coefficients= -7.4051230000D-03
     Exponent=  2.2361370000D+03 Coefficients= -2.1520320000D-02
     Exponent=  9.2664680000D+02 Coefficients= -5.5609740000D-02
     Exponent=  4.0317430000D+02 Coefficients= -1.2301760000D-01
     Exponent=  1.8234760000D+02 Coefficients= -2.1301040000D-01
     Exponent=  8.4548850000D+01 Coefficients= -2.2658370000D-01
     Exponent=  3.8396340000D+01 Coefficients=  3.5467960000D-02
     Exponent=  1.8458590000D+01 Coefficients=  5.1816970000D-01
     Exponent=  8.8635480000D+00 Coefficients=  5.0256300000D-01
     Exponent=  3.9162270000D+00 Coefficients=  8.9556740000D-02
     Exponent=  1.8388700000D+00 Coefficients= -7.0313110000D-03
     Exponent=  8.0436200000D-01 Coefficients= -4.3391670000D-04
     Exponent=  1.6979700000D-01 Coefficients= -5.8317110000D-04
     Exponent=  7.9306000000D-02 Coefficients=  4.2287880000D-04
     Exponent=  3.4677000000D-02 Coefficients= -1.2667140000D-04
 S 20 1.00
     Exponent=  5.0459910000D+06 Coefficients=  9.5941490000D-07
     Exponent=  7.5561420000D+05 Coefficients=  7.4626140000D-06
     Exponent=  1.7195680000D+05 Coefficients=  3.9238430000D-05
     Exponent=  4.8704790000D+04 Coefficients=  1.6578680000D-04
     Exponent=  1.5888410000D+04 Coefficients=  6.0259050000D-04
     Exponent=  5.7351230000D+03 Coefficients=  1.9556620000D-03
     Exponent=  2.2361370000D+03 Coefficients=  5.7303910000D-03
     Exponent=  9.2664680000D+02 Coefficients=  1.5147560000D-02
     Exponent=  4.0317430000D+02 Coefficients=  3.4934990000D-02
     Exponent=  1.8234760000D+02 Coefficients=  6.5980720000D-02
     Exponent=  8.4548850000D+01 Coefficients=  7.8930830000D-02
     Exponent=  3.8396340000D+01 Coefficients= -1.9062490000D-02
     Exponent=  1.8458590000D+01 Coefficients= -3.0959210000D-01
     Exponent=  8.8635480000D+00 Coefficients= -4.5586100000D-01
     Exponent=  3.9162270000D+00 Coefficients=  1.4829310000D-01
     Exponent=  1.8388700000D+00 Coefficients=  7.1340390000D-01
     Exponent=  8.0436200000D-01 Coefficients=  3.9760630000D-01
     Exponent=  1.6979700000D-01 Coefficients=  2.2955230000D-02
     Exponent=  7.9306000000D-02 Coefficients= -9.1517580000D-03
     Exponent=  3.4677000000D-02 Coefficients=  3.8754140000D-03
 S 20 1.00
     Exponent=  5.0459910000D+06 Coefficients= -2.0137530000D-07
     Exponent=  7.5561420000D+05 Coefficients= -1.5658320000D-06
     Exponent=  1.7195680000D+05 Coefficients= -8.2371820000D-06
     Exponent=  4.8704790000D+04 Coefficients= -3.4781050000D-05
     Exponent=  1.5888410000D+04 Coefficients= -1.2652650000D-04
     Exponent=  5.7351230000D+03 Coefficients= -4.1025890000D-04
     Exponent=  2.2361370000D+03 Coefficients= -1.2038340000D-03
     Exponent=  9.2664680000D+02 Coefficients= -3.1790620000D-03
     Exponent=  4.0317430000D+02 Coefficients= -7.3538280000D-03
     Exponent=  1.8234760000D+02 Coefficients= -1.3890220000D-02
     Exponent=  8.4548850000D+01 Coefficients= -1.6778750000D-02
     Exponent=  3.8396340000D+01 Coefficients=  4.1633780000D-03
     Exponent=  1.8458590000D+01 Coefficients=  6.8147030000D-02
     Exponent=  8.8635480000D+00 Coefficients=  1.0610290000D-01
     Exponent=  3.9162270000D+00 Coefficients= -4.3399800000D-02
     Exponent=  1.8388700000D+00 Coefficients= -2.0949500000D-01
     Exponent=  8.0436200000D-01 Coefficients= -2.3102710000D-01
     Exponent=  1.6979700000D-01 Coefficients=  2.5905320000D-01
     Exponent=  7.9306000000D-02 Coefficients=  5.6914260000D-01
     Exponent=  3.4677000000D-02 Coefficients=  3.1581250000D-01
 S 20 1.00
     Exponent=  5.0459910000D+06 Coefficients= -3.9242450000D-07
     Exponent=  7.5561420000D+05 Coefficients= -3.1139090000D-06
     Exponent=  1.7195680000D+05 Coefficients= -1.5904470000D-05
     Exponent=  4.8704790000D+04 Coefficients= -6.9813940000D-05
     Exponent=  1.5888410000D+04 Coefficients= -2.4178480000D-04
     Exponent=  5.7351230000D+03 Coefficients= -8.3261950000D-04
     Exponent=  2.2361370000D+03 Coefficients= -2.2702940000D-03
     Exponent=  9.2664680000D+02 Coefficients= -6.5574270000D-03
     Exponent=  4.0317430000D+02 Coefficients= -1.3542880000D-02
     Exponent=  1.8234760000D+02 Coefficients= -2.9897680000D-02
     Exponent=  8.4548850000D+01 Coefficients= -2.6931060000D-02
     Exponent=  3.8396340000D+01 Coefficients= -7.8276930000D-03
     Exponent=  1.8458590000D+01 Coefficients=  1.7416670000D-01
     Exponent=  8.8635480000D+00 Coefficients=  1.5954680000D-01
     Exponent=  3.9162270000D+00 Coefficients=  1.9955500000D-02
     Exponent=  1.8388700000D+00 Coefficients= -8.8970000000D-01
     Exponent=  8.0436200000D-01 Coefficients=  2.4868920000D-01
     Exponent=  1.6979700000D-01 Coefficients=  1.6130120000D+00
     Exponent=  7.9306000000D-02 Coefficients= -5.9902770000D-01
     Exponent=  3.4677000000D-02 Coefficients= -8.3690780000D-01
 S 20 1.00
     Exponent=  5.0459910000D+06 Coefficients= -7.3036330000D-07
     Exponent=  7.5561420000D+05 Coefficients= -5.8020130000D-06
     Exponent=  1.7195680000D+05 Coefficients= -2.9585470000D-05
     Exponent=  4.8704790000D+04 Coefficients= -1.3014990000D-04
     Exponent=  1.5888410000D+04 Coefficients= -4.4953320000D-04
     Exponent=  5.7351230000D+03 Coefficients= -1.5533140000D-03
     Exponent=  2.2361370000D+03 Coefficients= -4.2198840000D-03
     Exponent=  9.2664680000D+02 Coefficients= -1.2254190000D-02
     Exponent=  4.0317430000D+02 Coefficients= -2.5197070000D-02
     Exponent=  1.8234760000D+02 Coefficients= -5.6217170000D-02
     Exponent=  8.4548850000D+01 Coefficients= -5.0222290000D-02
     Exponent=  3.8396340000D+01 Coefficients= -1.6774120000D-02
     Exponent=  1.8458590000D+01 Coefficients=  3.3880210000D-01
     Exponent=  8.8635480000D+00 Coefficients=  3.9849750000D-01
     Exponent=  3.9162270000D+00 Coefficients= -3.0320530000D-01
     Exponent=  1.8388700000D+00 Coefficients= -2.0796190000D+00
     Exponent=  8.0436200000D-01 Coefficients=  2.5005420000D+00
     Exponent=  1.6979700000D-01 Coefficients= -2.1690020000D-01
     Exponent=  7.9306000000D-02 Coefficients= -1.7091780000D+00
     Exponent=  3.4677000000D-02 Coefficients=  1.4691660000D+00
 S 1 1.00
     Exponent=  5.7408000000D+00 Coefficients=  1.0000000000D+00
 S 1 1.00
     Exponent=  1.5172000000D+00 Coefficients=  1.0000000000D+00
 S 1 1.00
     Exponent=  3.4677000000D-02 Coefficients=  1.0000000000D+00
 S 1 1.00
     Exponent=  1.5160000000D-02 Coefficients=  1.0000000000D+00
 P 16 1.00
     Exponent=  2.1027920000D+04 Coefficients=  4.1000000000D-05
     Exponent=  4.9775600000D+03 Coefficients=  3.6300000000D-04
     Exponent=  1.6167400000D+03 Coefficients=  2.0970000000D-03
     Exponent=  6.1867180000D+02 Coefficients=  9.2500000000D-03
     Exponent=  2.6251830000D+02 Coefficients=  3.2796000000D-02
     Exponent=  1.1969070000D+02 Coefficients=  9.4004000000D-02
     Exponent=  5.7465850000D+01 Coefficients=  2.0828000000D-01
     Exponent=  2.8528290000D+01 Coefficients=  3.3365400000D-01
     Exponent=  1.4521480000D+01 Coefficients=  3.3290400000D-01
     Exponent=  7.4538500000D+00 Coefficients=  1.5537200000D-01
     Exponent=  3.7235530000D+00 Coefficients=  2.0859000000D-02
     Exponent=  1.8098130000D+00 Coefficients= -2.4400000000D-03
     Exponent=  8.5133600000D-01 Coefficients= -1.9980000000D-03
     Exponent=  3.2481400000D-01 Coefficients= -3.3800000000D-04
     Exponent=  1.1952200000D-01 Coefficients=  3.5000000000D-05
     Exponent=  4.2366000000D-02 Coefficients= -1.2000000000D-05
 P 16 1.00
     Exponent=  2.1027920000D+04 Coefficients= -1.5000000000D-05
     Exponent=  4.9775600000D+03 Coefficients= -1.2900000000D-04
     Exponent=  1.6167400000D+03 Coefficients= -7.4900000000D-04
     Exponent=  6.1867180000D+02 Coefficients= -3.3280000000D-03
     Exponent=  2.6251830000D+02 Coefficients= -1.1947000000D-02
     Exponent=  1.1969070000D+02 Coefficients= -3.5242000000D-02
     Exponent=  5.7465850000D+01 Coefficients= -8.1204000000D-02
     Exponent=  2.8528290000D+01 Coefficients= -1.3749300000D-01
     Exponent=  1.4521480000D+01 Coefficients= -1.3922600000D-01
     Exponent=  7.4538500000D+00 Coefficients=  3.6016000000D-02
     Exponent=  3.7235530000D+00 Coefficients=  3.3912800000D-01
     Exponent=  1.8098130000D+00 Coefficients=  4.5047200000D-01
     Exponent=  8.5133600000D-01 Coefficients=  2.8178300000D-01
     Exponent=  3.2481400000D-01 Coefficients=  4.7898000000D-02
     Exponent=  1.1952200000D-01 Coefficients= -2.9870000000D-03
     Exponent=  4.2366000000D-02 Coefficients=  1.3090000000D-03
 P 16 1.00
     Exponent=  2.1027920000D+04 Coefficients=  3.0000000000D-06
     Exponent=  4.9775600000D+03 Coefficients=  2.6000000000D-05
     Exponent=  1.6167400000D+03 Coefficients=  1.5200000000D-04
     Exponent=  6.1867180000D+02 Coefficients=  6.7800000000D-04
     Exponent=  2.6251830000D+02 Coefficients=  2.4270000000D-03
     Exponent=  1.1969070000D+02 Coefficients=  7.2010000000D-03
     Exponent=  5.7465850000D+01 Coefficients=  1.6578000000D-02
     Exponent=  2.8528290000D+01 Coefficients=  2.8392000000D-02
     Exponent=  1.4521480000D+01 Coefficients=  2.8599000000D-02
     Exponent=  7.4538500000D+00 Coefficients= -1.0132000000D-02
     Exponent=  3.7235530000D+00 Coefficients= -8.2912000000D-02
     Exponent=  1.8098130000D+00 Coefficients= -1.1599800000D-01
     Exponent=  8.5133600000D-01 Coefficients= -7.2795000000D-02
     Exponent=  3.2481400000D-01 Coefficients=  1.9564000000D-01
     Exponent=  1.1952200000D-01 Coefficients=  5.6709900000D-01
     Exponent=  4.2366000000D-02 Coefficients=  3.9527000000D-01
 P 16 1.00
     Exponent=  2.1027920000D+04 Coefficients=  6.0000000000D-06
     Exponent=  4.9775600000D+03 Coefficients=  5.3000000000D-05
     Exponent=  1.6167400000D+03 Coefficients=  3.0500000000D-04
     Exponent=  6.1867180000D+02 Coefficients=  1.3640000000D-03
     Exponent=  2.6251830000D+02 Coefficients=  4.8760000000D-03
     Exponent=  1.1969070000D+02 Coefficients=  1.4503000000D-02
     Exponent=  5.7465850000D+01 Coefficients=  3.3296000000D-02
     Exponent=  2.8528290000D+01 Coefficients=  5.7482000000D-02
     Exponent=  1.4521480000D+01 Coefficients=  5.8702000000D-02
     Exponent=  7.4538500000D+00 Coefficients= -1.9904000000D-02
     Exponent=  3.7235530000D+00 Coefficients= -1.9469500000D-01
     Exponent=  1.8098130000D+00 Coefficients= -2.3961300000D-01
     Exponent=  8.5133600000D-01 Coefficients= -2.2320000000D-03
     Exponent=  3.2481400000D-01 Coefficients=  5.2143500000D-01
     Exponent=  1.1952200000D-01 Coefficients=  5.4554000000D-01
     Exponent=  4.2366000000D-02 Coefficients=  4.3622000000D-02
 P 16 1.00
     Exponent=  2.1027920000D+04 Coefficients=  1.1000000000D-05
     Exponent=  4.9775600000D+03 Coefficients=  9.5000000000D-05
     Exponent=  1.6167400000D+03 Coefficients=  5.8000000000D-04
     Exponent=  6.1867180000D+02 Coefficients=  2.4510000000D-03
     Exponent=  2.6251830000D+02 Coefficients=  9.2820000000D-03
     Exponent=  1.1969070000D+02 Coefficients=  2.6009000000D-02
     Exponent=  5.7465850000D+01 Coefficients=  6.4096000000D-02
     Exponent=  2.8528290000D+01 Coefficients=  1.0071000000D-01
     Exponent=  1.4521480000D+01 Coefficients=  1.3253900000D-01
     Exponent=  7.4538500000D+00 Coefficients= -6.5089000000D-02
     Exponent=  3.7235530000D+00 Coefficients= -4.8975600000D-01
     Exponent=  1.8098130000D+00 Coefficients= -4.9845500000D-01
     Exponent=  8.5133600000D-01 Coefficients=  9.6635700000D-01
     Exponent=  3.2481400000D-01 Coefficients=  5.2837900000D-01
     Exponent=  1.1952200000D-01 Coefficients= -8.6767600000D-01
     Exponent=  4.2366000000D-02 Coefficients= -1.0445600000D-01
 P 1 1.00
     Exponent=  8.6879000000D+00 Coefficients=  1.0000000000D+00
 P 1 1.00
     Exponent=  2.0080000000D+00 Coefficients=  1.0000000000D+00
 P 1 1.00
     Exponent=  4.2366000000D-02 Coefficients=  1.0000000000D+00
 P 1 1.00
     Exponent=  1.5020000000D-02 Coefficients=  1.0000000000D+00
 D 8 1.00
     Exponent=  1.4025270000D+02 Coefficients=  3.3760000000D-03
     Exponent=  4.1726100000D+01 Coefficients=  2.5141000000D-02
     Exponent=  1.5398100000D+01 Coefficients=  9.7746000000D-02
     Exponent=  6.2771000000D+00 Coefficients=  2.3470900000D-01
     Exponent=  2.6185000000D+00 Coefficients=  3.4694500000D-01
     Exponent=  1.0526000000D+00 Coefficients=  3.5106800000D-01
     Exponent=  3.9160000000D-01 Coefficients=  2.5025500000D-01
     Exponent=  1.2620000000D-01 Coefficients=  1.0008200000D-01
 D 8 1.00
     Exponent=  1.4025270000D+02 Coefficients= -3.4950000000D-03
     Exponent=  4.1726100000D+01 Coefficients= -2.6015000000D-02
     Exponent=  1.5398100000D+01 Coefficients= -1.0387600000D-01
     Exponent=  6.2771000000D+00 Coefficients= -2.5207000000D-01
     Exponent=  2.6185000000D+00 Coefficients= -2.9458000000D-01
     Exponent=  1.0526000000D+00 Coefficients=  1.1520000000D-03
     Exponent=  3.9160000000D-01 Coefficients=  4.3858900000D-01
     Exponent=  1.2620000000D-01 Coefficients=  5.4362600000D-01
 D 8 1.00
     Exponent=  1.4025270000D+02 Coefficients=  5.0520000000D-03
     Exponent=  4.1726100000D+01 Coefficients=  3.8087000000D-02
     Exponent=  1.5398100000D+01 Coefficients=  1.5611300000D-01
     Exponent=  6.2771000000D+00 Coefficients=  3.8615600000D-01
     Exponent=  2.6185000000D+00 Coefficients=  1.7560500000D-01
     Exponent=  1.0526000000D+00 Coefficients= -6.2680700000D-01
     Exponent=  3.9160000000D-01 Coefficients= -3.4277500000D-01
     Exponent=  1.2620000000D-01 Coefficients=  7.9181900000D-01
 D 1 1.00
     Exponent=  5.7882000000D+00 Coefficients=  1.0000000000D+00
 D 1 1.00
     Exponent=  2.7127000000D+00 Coefficients=  1.0000000000D+00
 D 1 1.00
     Exponent=  1.2620000000D-01 Coefficients=  1.0000000000D+00
 D 1 1.00
     Exponent=  4.0670000000D-02 Coefficients=  1.0000000000D+00
 F 1 1.00
     Exponent=  8.0748000000D+00 Coefficients=  1.0000000000D+00
 F 1 1.00
     Exponent=  3.1196000000D+00 Coefficients=  1.0000000000D+00
 F 1 1.00
     Exponent=  1.1286000000D+00 Coefficients=  1.0000000000D+00
 F 1 1.00
     Exponent=  4.0830000000D-01 Coefficients=  1.0000000000D+00
 G 1 1.00
     Exponent=  7.3562000000D+00 Coefficients=  1.0000000000D+00
 G 1 1.00
     Exponent=  2.9771000000D+00 Coefficients=  1.0000000000D+00
 G 1 1.00
     Exponent=  1.2048500000D+00 Coefficients=  1.0000000000D+00
 ****
 Ernie: Thresh=  0.10000D-02 Tol=  0.10000D-05 Strict=F.
 Ernie:  114 primitive shells out of 317 were deleted.
 There are    96 symmetry adapted cartesian basis functions of A1  symmetry.
 There are    25 symmetry adapted cartesian basis functions of A2  symmetry.
 There are    51 symmetry adapted cartesian basis functions of B1  symmetry.
 There are    51 symmetry adapted cartesian basis functions of B2  symmetry.
 There are    71 symmetry adapted basis functions of A1  symmetry.
 There are    22 symmetry adapted basis functions of A2  symmetry.
 There are    42 symmetry adapted basis functions of B1  symmetry.
 There are    42 symmetry adapted basis functions of B2  symmetry.
   177 basis functions,   555 primitive gaussians,   223 cartesian basis functions
    23 alpha electrons       22 beta electrons
       nuclear repulsion energy       121.5090942585 Hartrees.
 IExCor= 4336 DFT=T Ex+Corr=M062X ExCW=0 ScaHFX=  0.540000
 ScaDFX=  1.000000  1.000000  1.000000  1.000000 ScalE2=  1.000000  1.000000
 IRadAn=      5 IRanWt=     -1 IRanGd=            0 ICorTp=0 IEmpDi=  4
 NAtoms=    2 NActive=    2 NUniq=    2 SFac= 1.00D+00 NAtFMM=   60 NAOKFM=F Big=F
 Integral buffers will be    131072 words long.
 Raffenetti 2 integral format.
 Two-electron integral symmetry is turned on.
 Leave Link  301 at Fri Apr 16 22:49:57 2021, MaxMem=   104857600 cpu:              13.2 elap:               0.3
 (Enter /s/ls4/users/knvvv/bin/g16sse/l302.exe)
 NPDir=0 NMtPBC=     1 NCelOv=     1 NCel=       1 NClECP=     1 NCelD=      1
         NCelK=      1 NCelE2=     1 NClLst=     1 CellRange=     0.0.
 One-electron integrals computed using PRISM.
 One-electron integral symmetry used in STVInt
 PrsmSu:  requested number of processors reduced to:   4 ShMem   1 Linda.
 PrsmSu:  requested number of processors reduced to:  21 ShMem   1 Linda.
 NBasis=   177 RedAO= T EigKep=  3.00D-04  NBF=    71    22    42    42
 NBsUse=   177 1.00D-06 EigRej= -1.00D+00 NBFU=    71    22    42    42
 Precomputing XC quadrature grid using
 IXCGrd= 4 IRadAn=           5 IRanWt=          -1 IRanGd=           0 AccXCQ= 0.00D+00.
 Generated NRdTot=       0 NPtTot=           0 NUsed=           0 NTot=          32
 NSgBfM=   223   223   223   223   223 MxSgAt=     2 MxSgA2=     2.
 Leave Link  302 at Fri Apr 16 22:50:06 2021, MaxMem=   104857600 cpu:             393.3 elap:               8.5
 (Enter /s/ls4/users/knvvv/bin/g16sse/l303.exe)
 DipDrv:  MaxL=1.
 Leave Link  303 at Fri Apr 16 22:50:07 2021, MaxMem=   104857600 cpu:              51.2 elap:               1.1
 (Enter /s/ls4/users/knvvv/bin/g16sse/l401.exe)
 SCF N**3 symmetry information disabled.
 ExpMin= 1.50D-02 ExpMax= 5.05D+06 ExpMxC= 5.74D+03 IAcc=3 IRadAn=         5 AccDes= 0.00D+00
 Harris functional with IExCor= 1009 and IRadAn=       5 diagonalized for initial guess.
 HarFok:  IExCor= 1009 AccDes= 0.00D+00 IRadAn=         5 IDoV= 1 UseB2=F ITyADJ=14
 ICtDFT=  3500011 ScaDFX=  1.000000  1.000000  1.000000  1.000000
 FoFCou: FMM=F IPFlag=           0 FMFlag=      100000 FMFlg1=           0
         NFxFlg=           0 DoJE=T BraDBF=F KetDBF=T FulRan=T
         wScrn=  0.000000 ICntrl=       500 IOpCl=  0 I1Cent=   200000004 NGrid=           0
         NMat0=    1 NMatS0=      1 NMatT0=    0 NMatD0=    1 NMtDS0=    0 NMtDT0=    0
 Petite list used in FoFCou.
 CoulSu:  requested number of processors reduced to:  20 ShMem   1 Linda.
 CoulSu:  requested number of processors reduced to:  20 ShMem   1 Linda.
 CoulSu:  requested number of processors reduced to:  21 ShMem   1 Linda.
 CoulSu:  requested number of processors reduced to:  21 ShMem   1 Linda.
 Harris En= -1968.02379077574    
 JPrj=0 DoOrth=F DoCkMO=F.
 Initial guess orbital symmetries:
 Alpha Orbitals:
       Occupied  (SG) (SG) (SG) (PI) (PI) (SG) (SG) (SG) (PI) (PI)
                 (SG) (SG) (PI) (PI) (SG) (SG) (PI) (PI) (DLTA)
                 (DLTA) (SG) (PI) (PI)
       Virtual   (SG) (PI) (PI) (SG) (SG) (PI) (PI) (SG) (DLTA)
                 (DLTA) (SG) (PI) (PI) (SG) (PI) (PI) (SG) (PI)
                 (PI) (SG) (DLTA) (DLTA) (SG) (PI) (PI) (SG) (DLTA)
                 (DLTA) (PI) (PI) (SG) (SG) (PI) (PI) (SG) (DLTA)
                 (DLTA) (PI) (PI) (SG) (PI) (PI) (DLTA) (DLTA)
                 (SG) (PHI) (PHI) (PI) (PI) (SG) (PHI) (PHI) (DLTA)
                 (DLTA) (SG) (PI) (PI) (DLTA) (DLTA) (SG) (PI)
                 (PI) (SG) (DLTA) (DLTA) (PI) (PI) (SG) (PI) (PI)
                 (PHI) (PHI) (SG) (DLTA) (DLTA) (PI) (PI) (SG)
                 (SG) (PI) (PI) (PHI) (PHI) (SG) (DLTA) (DLTA)
                 (PI) (PI) (SG) (DLTA) (DLTA) (PI) (PI) (SG) (?A)
                 (?A) (PHI) (PHI) (DLTA) (DLTA) (PI) (PI) (SG)
                 (SG) (PHI) (PHI) (DLTA) (DLTA) (PI) (PI) (SG)
                 (PI) (PI) (SG) (SG) (DLTA) (DLTA) (PI) (PI) (SG)
                 (?A) (?A) (PHI) (PHI) (DLTA) (DLTA) (PI) (PI)
                 (SG) (PHI) (PHI) (DLTA) (DLTA) (PI) (PI) (SG)
                 (?A) (?A) (PHI) (PHI) (DLTA) (DLTA) (PI) (PI)
                 (SG) (DLTA) (DLTA) (PI) (PI) (SG) (PI) (PI) (SG)
                 (SG)
 Beta  Orbitals:
       Occupied  (SG) (SG) (SG) (PI) (PI) (SG) (SG) (SG) (PI) (PI)
                 (SG) (SG) (PI) (PI) (SG) (SG) (PI) (PI) (DLTA)
                 (DLTA) (SG) (PI)
       Virtual   (PI) (SG) (PI) (PI) (SG) (SG) (PI) (PI) (SG) (DLTA)
                 (DLTA) (SG) (PI) (PI) (SG) (PI) (PI) (SG) (PI)
                 (PI) (SG) (DLTA) (DLTA) (SG) (PI) (PI) (SG) (DLTA)
                 (DLTA) (PI) (PI) (SG) (SG) (PI) (PI) (SG) (DLTA)
                 (DLTA) (PI) (PI) (SG) (PI) (PI) (DLTA) (DLTA)
                 (SG) (PHI) (PHI) (PI) (PI) (SG) (PHI) (PHI) (DLTA)
                 (DLTA) (SG) (PI) (PI) (DLTA) (DLTA) (SG) (PI)
                 (PI) (SG) (DLTA) (DLTA) (PI) (PI) (SG) (PI) (PI)
                 (PHI) (PHI) (SG) (DLTA) (DLTA) (PI) (PI) (SG)
                 (SG) (PI) (PI) (PHI) (PHI) (SG) (DLTA) (DLTA)
                 (PI) (PI) (SG) (DLTA) (DLTA) (PI) (PI) (SG) (?A)
                 (?A) (PHI) (PHI) (DLTA) (DLTA) (PI) (PI) (SG)
                 (SG) (PHI) (PHI) (DLTA) (DLTA) (PI) (PI) (SG)
                 (PI) (PI) (SG) (SG) (DLTA) (DLTA) (PI) (PI) (SG)
                 (?A) (?A) (PHI) (PHI) (DLTA) (DLTA) (PI) (PI)
                 (SG) (PHI) (PHI) (DLTA) (DLTA) (PI) (PI) (SG)
                 (?A) (?A) (PHI) (PHI) (DLTA) (DLTA) (PI) (PI)
                 (SG) (DLTA) (DLTA) (PI) (PI) (SG) (PI) (PI) (SG)
                 (SG)
 Initial guess <Sx>= 0.0000 <Sy>= 0.0000 <Sz>= 0.5000 <S**2>= 0.7500 S= 0.5000
 Leave Link  401 at Fri Apr 16 22:50:07 2021, MaxMem=   104857600 cpu:              21.9 elap:               0.7
 (Enter /s/ls4/users/knvvv/bin/g16sse/l502.exe)
 Integral symmetry usage will be decided dynamically.
 UHF open shell SCF:
 Using DIIS extrapolation, IDIIS=  1040.
 NGot=   104857600 LenX=   104744305 LenY=   104694135
 Requested convergence on RMS density matrix=1.00D-08 within 128 cycles.
 Requested convergence on MAX density matrix=1.00D-06.
 Requested convergence on             energy=1.00D-06.
 No special actions if energy rises.
 Fock matrices will be formed incrementally for  20 cycles.

 Cycle   1  Pass 1  IDiag  1:
 FoFJK:  IHMeth= 1 ICntrl=       0 DoSepK=F KAlg= 0 I1Cent=           0 FoldK=F
 IRaf= 990000000 NMat=       1 IRICut=       1 DoRegI=T DoRafI=F ISym2E= 1 IDoP0=0 IntGTp=1.
 FoFCou: FMM=F IPFlag=           0 FMFlag=      100000 FMFlg1=           0
         NFxFlg=           0 DoJE=F BraDBF=F KetDBF=F FulRan=T
         wScrn=  0.000000 ICntrl=         0 IOpCl=  1 I1Cent=           0 NGrid=           0
         NMat0=    1 NMatS0=      1 NMatT0=    0 NMatD0=    1 NMtDS0=    0 NMtDT0=    0
 Petite list used in FoFCou.
 CoulSu:  requested number of processors reduced to:  19 ShMem   1 Linda.
 E= -1968.43602691523    
 DIIS: error= 6.41D-02 at cycle   1 NSaved=   1.
 NSaved= 1 IEnMin= 1 EnMin= -1968.43602691523     IErMin= 1 ErrMin= 6.41D-02
 ErrMax= 6.41D-02  0.00D+00 EMaxC= 1.00D-01 BMatC= 1.91D+00 BMatP= 1.91D+00
 IDIUse=3 WtCom= 3.59D-01 WtEn= 6.41D-01
 Coeff-Com:  0.100D+01
 Coeff-En:   0.100D+01
 Coeff:      0.100D+01
 Gap=     0.463 Goal=   None    Shift=    0.000
 Gap=     0.360 Goal=   None    Shift=    0.000
 GapD=    0.360 DampG=1.000 DampE=0.250 DampFc=0.2500 IDamp=-1.
 Damping current iteration by 2.50D-01
 RMSDP=3.40D-03 MaxDP=1.18D-01              OVMax= 1.91D-01

 Cycle   2  Pass 1  IDiag  1:
 RMSU=  8.21D-04    CP:  1.01D+00
 CoulSu:  requested number of processors reduced to:  19 ShMem   1 Linda.
 E= -1968.46940273801     Delta-E=       -0.033375822777 Rises=F Damp=T
 DIIS: error= 2.95D-02 at cycle   2 NSaved=   2.
 NSaved= 2 IEnMin= 2 EnMin= -1968.46940273801     IErMin= 2 ErrMin= 2.95D-02
 ErrMax= 2.95D-02  0.00D+00 EMaxC= 1.00D-01 BMatC= 5.92D-01 BMatP= 1.91D+00
 IDIUse=3 WtCom= 7.05D-01 WtEn= 2.95D-01
 Coeff-Com: -0.595D+00 0.160D+01
 Coeff-En:   0.000D+00 0.100D+01
 Coeff:     -0.419D+00 0.142D+01
 Gap=     0.267 Goal=   None    Shift=    0.000
 Gap=     0.371 Goal=   None    Shift=    0.000
 RMSDP=1.79D-03 MaxDP=7.19D-02 DE=-3.34D-02 OVMax= 1.83D-01

 Cycle   3  Pass 1  IDiag  1:
 RMSU=  1.25D-03    CP:  1.02D+00  2.50D+00
 CoulSu:  requested number of processors reduced to:  19 ShMem   1 Linda.
 E= -1968.53912496781     Delta-E=       -0.069722229804 Rises=F Damp=F
 DIIS: error= 1.19D-02 at cycle   3 NSaved=   3.
 NSaved= 3 IEnMin= 3 EnMin= -1968.53912496781     IErMin= 3 ErrMin= 1.19D-02
 ErrMax= 1.19D-02  0.00D+00 EMaxC= 1.00D-01 BMatC= 5.09D-02 BMatP= 5.92D-01
 IDIUse=3 WtCom= 8.81D-01 WtEn= 1.19D-01
 Coeff-Com: -0.272D+00 0.426D+00 0.847D+00
 Coeff-En:   0.000D+00 0.000D+00 0.100D+01
 Coeff:     -0.240D+00 0.375D+00 0.865D+00
 Gap=     0.263 Goal=   None    Shift=    0.000
 Gap=     0.240 Goal=   None    Shift=    0.000
 RMSDP=4.89D-04 MaxDP=2.02D-02 DE=-6.97D-02 OVMax= 4.51D-02

 Cycle   4  Pass 1  IDiag  1:
 RMSU=  4.27D-04    CP:  1.02D+00  2.76D+00  9.18D-01
 CoulSu:  requested number of processors reduced to:  19 ShMem   1 Linda.
 E= -1968.54525344420     Delta-E=       -0.006128476384 Rises=F Damp=F
 DIIS: error= 6.63D-03 at cycle   4 NSaved=   4.
 NSaved= 4 IEnMin= 4 EnMin= -1968.54525344420     IErMin= 4 ErrMin= 6.63D-03
 ErrMax= 6.63D-03  0.00D+00 EMaxC= 1.00D-01 BMatC= 1.35D-02 BMatP= 5.09D-02
 IDIUse=3 WtCom= 9.34D-01 WtEn= 6.63D-02
 Coeff-Com:  0.332D-02-0.304D-02 0.323D+00 0.677D+00
 Coeff-En:   0.000D+00 0.000D+00 0.000D+00 0.100D+01
 Coeff:      0.310D-02-0.284D-02 0.301D+00 0.698D+00
 Gap=     0.246 Goal=   None    Shift=    0.000
 Gap=     0.232 Goal=   None    Shift=    0.000
 RMSDP=2.02D-04 MaxDP=7.75D-03 DE=-6.13D-03 OVMax= 2.97D-02

 Cycle   5  Pass 1  IDiag  1:
 RMSU=  1.78D-04    CP:  1.02D+00  2.73D+00  9.85D-01  1.06D+00
 CoulSu:  requested number of processors reduced to:  19 ShMem   1 Linda.
 E= -1968.54739784481     Delta-E=       -0.002144400609 Rises=F Damp=F
 DIIS: error= 2.15D-03 at cycle   5 NSaved=   5.
 NSaved= 5 IEnMin= 5 EnMin= -1968.54739784481     IErMin= 5 ErrMin= 2.15D-03
 ErrMax= 2.15D-03  0.00D+00 EMaxC= 1.00D-01 BMatC= 5.37D-04 BMatP= 1.35D-02
 IDIUse=3 WtCom= 9.78D-01 WtEn= 2.15D-02
 Coeff-Com:  0.200D-01-0.310D-01-0.157D+00-0.411D-01 0.121D+01
 Coeff-En:   0.000D+00 0.000D+00 0.000D+00 0.000D+00 0.100D+01
 Coeff:      0.195D-01-0.303D-01-0.154D+00-0.402D-01 0.121D+01
 Gap=     0.242 Goal=   None    Shift=    0.000
 Gap=     0.227 Goal=   None    Shift=    0.000
 RMSDP=1.75D-04 MaxDP=1.25D-02 DE=-2.14D-03 OVMax= 1.81D-02

 Cycle   6  Pass 1  IDiag  1:
 RMSU=  6.46D-05    CP:  1.02D+00  2.80D+00  9.77D-01  1.35D+00  1.51D+00
 CoulSu:  requested number of processors reduced to:  19 ShMem   1 Linda.
 E= -1968.54787895975     Delta-E=       -0.000481114941 Rises=F Damp=F
 DIIS: error= 7.63D-04 at cycle   6 NSaved=   6.
 NSaved= 6 IEnMin= 6 EnMin= -1968.54787895975     IErMin= 6 ErrMin= 7.63D-04
 ErrMax= 7.63D-04  0.00D+00 EMaxC= 1.00D-01 BMatC= 1.22D-04 BMatP= 5.37D-04
 IDIUse=3 WtCom= 9.92D-01 WtEn= 7.63D-03
 Coeff-Com:  0.720D-02-0.100D-01-0.402D-01-0.851D-01 0.169D+00 0.959D+00
 Coeff-En:   0.000D+00 0.000D+00 0.000D+00 0.000D+00 0.000D+00 0.100D+01
 Coeff:      0.714D-02-0.994D-02-0.399D-01-0.845D-01 0.168D+00 0.959D+00
 Gap=     0.243 Goal=   None    Shift=    0.000
 Gap=     0.228 Goal=   None    Shift=    0.000
 RMSDP=6.92D-05 MaxDP=4.79D-03 DE=-4.81D-04 OVMax= 9.76D-03

 Cycle   7  Pass 1  IDiag  1:
 RMSU=  3.08D-05    CP:  1.02D+00  2.81D+00  9.76D-01  1.40D+00  1.80D+00
                    CP:  1.35D+00
 CoulSu:  requested number of processors reduced to:  19 ShMem   1 Linda.
 E= -1968.54795803467     Delta-E=       -0.000079074925 Rises=F Damp=F
 DIIS: error= 4.20D-04 at cycle   7 NSaved=   7.
 NSaved= 7 IEnMin= 7 EnMin= -1968.54795803467     IErMin= 7 ErrMin= 4.20D-04
 ErrMax= 4.20D-04  0.00D+00 EMaxC= 1.00D-01 BMatC= 2.44D-05 BMatP= 1.22D-04
 IDIUse=3 WtCom= 9.96D-01 WtEn= 4.20D-03
 Coeff-Com: -0.184D-02 0.389D-02 0.206D-01-0.342D-01-0.245D+00 0.320D+00
 Coeff-Com:  0.937D+00
 Coeff-En:   0.000D+00 0.000D+00 0.000D+00 0.000D+00 0.000D+00 0.000D+00
 Coeff-En:   0.100D+01
 Coeff:     -0.184D-02 0.388D-02 0.205D-01-0.340D-01-0.244D+00 0.319D+00
 Coeff:      0.937D+00
 Gap=     0.242 Goal=   None    Shift=    0.000
 Gap=     0.228 Goal=   None    Shift=    0.000
 RMSDP=4.50D-05 MaxDP=3.40D-03 DE=-7.91D-05 OVMax= 6.10D-03

 Cycle   8  Pass 1  IDiag  1:
 RMSU=  1.29D-05    CP:  1.02D+00  2.82D+00  9.72D-01  1.45D+00  1.95D+00
                    CP:  1.71D+00  1.27D+00
 CoulSu:  requested number of processors reduced to:  19 ShMem   1 Linda.
 E= -1968.54798134468     Delta-E=       -0.000023310005 Rises=F Damp=F
 DIIS: error= 1.72D-04 at cycle   8 NSaved=   8.
 NSaved= 8 IEnMin= 8 EnMin= -1968.54798134468     IErMin= 8 ErrMin= 1.72D-04
 ErrMax= 1.72D-04  0.00D+00 EMaxC= 1.00D-01 BMatC= 2.55D-06 BMatP= 2.44D-05
 IDIUse=3 WtCom= 9.98D-01 WtEn= 1.72D-03
 Coeff-Com: -0.283D-02 0.388D-02 0.367D-02 0.145D-01 0.642D-02-0.167D+00
 Coeff-Com: -0.128D+00 0.127D+01
 Coeff-En:   0.000D+00 0.000D+00 0.000D+00 0.000D+00 0.000D+00 0.000D+00
 Coeff-En:   0.000D+00 0.100D+01
 Coeff:     -0.283D-02 0.387D-02 0.366D-02 0.144D-01 0.641D-02-0.166D+00
 Coeff:     -0.128D+00 0.127D+01
 Gap=     0.242 Goal=   None    Shift=    0.000
 Gap=     0.228 Goal=   None    Shift=    0.000
 RMSDP=1.94D-05 MaxDP=1.33D-03 DE=-2.33D-05 OVMax= 3.12D-03

 Cycle   9  Pass 1  IDiag  1:
 RMSU=  4.88D-06    CP:  1.02D+00  2.83D+00  9.69D-01  1.46D+00  2.01D+00
                    CP:  1.85D+00  1.52D+00  1.58D+00
 CoulSu:  requested number of processors reduced to:  19 ShMem   1 Linda.
 E= -1968.54798537796     Delta-E=       -0.000004033281 Rises=F Damp=F
 DIIS: error= 5.33D-05 at cycle   9 NSaved=   9.
 NSaved= 9 IEnMin= 9 EnMin= -1968.54798537796     IErMin= 9 ErrMin= 5.33D-05
 ErrMax= 5.33D-05  0.00D+00 EMaxC= 1.00D-01 BMatC= 5.87D-07 BMatP= 2.55D-06
 IDIUse=1 WtCom= 1.00D+00 WtEn= 0.00D+00
 Coeff-Com:  0.977D-03-0.148D-02-0.193D-02 0.161D-02 0.246D-01-0.256D-01
 Coeff-Com: -0.949D-01-0.114D+00 0.121D+01
 Coeff:      0.977D-03-0.148D-02-0.193D-02 0.161D-02 0.246D-01-0.256D-01
 Coeff:     -0.949D-01-0.114D+00 0.121D+01
 Gap=     0.242 Goal=   None    Shift=    0.000
 Gap=     0.228 Goal=   None    Shift=    0.000
 RMSDP=7.91D-06 MaxDP=4.42D-04 DE=-4.03D-06 OVMax= 1.29D-03

 Cycle  10  Pass 1  IDiag  1:
 RMSU=  1.98D-06    CP:  1.02D+00  2.83D+00  9.68D-01  1.46D+00  2.02D+00
                    CP:  1.89D+00  1.58D+00  1.93D+00  1.74D+00
 CoulSu:  requested number of processors reduced to:  19 ShMem   1 Linda.
 E= -1968.54798613636     Delta-E=       -0.000000758406 Rises=F Damp=F
 DIIS: error= 2.66D-05 at cycle  10 NSaved=  10.
 NSaved=10 IEnMin=10 EnMin= -1968.54798613636     IErMin=10 ErrMin= 2.66D-05
 ErrMax= 2.66D-05  0.00D+00 EMaxC= 1.00D-01 BMatC= 1.15D-07 BMatP= 5.87D-07
 IDIUse=1 WtCom= 1.00D+00 WtEn= 0.00D+00
 Coeff-Com:  0.154D-03-0.198D-03-0.491D-03-0.201D-02-0.335D-02 0.222D-01
 Coeff-Com:  0.352D-01-0.201D+00-0.110D+00 0.126D+01
 Coeff:      0.154D-03-0.198D-03-0.491D-03-0.201D-02-0.335D-02 0.222D-01
 Coeff:      0.352D-01-0.201D+00-0.110D+00 0.126D+01
 Gap=     0.242 Goal=   None    Shift=    0.000
 Gap=     0.228 Goal=   None    Shift=    0.000
 RMSDP=4.42D-06 MaxDP=2.17D-04 DE=-7.58D-07 OVMax= 6.31D-04

 Cycle  11  Pass 1  IDiag  1:
 RMSU=  9.04D-07    CP:  1.02D+00  2.83D+00  9.68D-01  1.46D+00  2.03D+00
                    CP:  1.91D+00  1.62D+00  2.08D+00  2.27D+00  2.11D+00
 CoulSu:  requested number of processors reduced to:  19 ShMem   1 Linda.
 E= -1968.54798637501     Delta-E=       -0.000000238649 Rises=F Damp=F
 DIIS: error= 1.92D-05 at cycle  11 NSaved=  11.
 NSaved=11 IEnMin=11 EnMin= -1968.54798637501     IErMin=11 ErrMin= 1.92D-05
 ErrMax= 1.92D-05  0.00D+00 EMaxC= 1.00D-01 BMatC= 4.30D-08 BMatP= 1.15D-07
 IDIUse=1 WtCom= 1.00D+00 WtEn= 0.00D+00
 Coeff-Com: -0.366D-03 0.544D-03 0.111D-02 0.268D-03-0.989D-02 0.791D-02
 Coeff-Com:  0.257D-01 0.580D-01-0.257D+00-0.483D+00 0.166D+01
 Coeff:     -0.366D-03 0.544D-03 0.111D-02 0.268D-03-0.989D-02 0.791D-02
 Coeff:      0.257D-01 0.580D-01-0.257D+00-0.483D+00 0.166D+01
 Gap=     0.242 Goal=   None    Shift=    0.000
 Gap=     0.228 Goal=   None    Shift=    0.000
 RMSDP=3.83D-06 MaxDP=2.38D-04 DE=-2.39D-07 OVMax= 6.10D-04

 Cycle  12  Pass 1  IDiag  1:
 RMSU=  8.43D-07    CP:  1.02D+00  2.83D+00  9.68D-01  1.46D+00  2.03D+00
                    CP:  1.92D+00  1.63D+00  2.18D+00  2.69D+00  3.00D+00
                    CP:  2.48D+00
 CoulSu:  requested number of processors reduced to:  19 ShMem   1 Linda.
 E= -1968.54798648564     Delta-E=       -0.000000110625 Rises=F Damp=F
 DIIS: error= 8.85D-06 at cycle  12 NSaved=  12.
 NSaved=12 IEnMin=12 EnMin= -1968.54798648564     IErMin=12 ErrMin= 8.85D-06
 ErrMax= 8.85D-06  0.00D+00 EMaxC= 1.00D-01 BMatC= 9.26D-09 BMatP= 4.30D-08
 IDIUse=1 WtCom= 1.00D+00 WtEn= 0.00D+00
 Coeff-Com:  0.945D-04-0.144D-03-0.465D-04 0.589D-03 0.114D-02-0.790D-02
 Coeff-Com: -0.959D-02 0.133D-01 0.138D+00-0.165D+00-0.632D+00 0.166D+01
 Coeff:      0.945D-04-0.144D-03-0.465D-04 0.589D-03 0.114D-02-0.790D-02
 Coeff:     -0.959D-02 0.133D-01 0.138D+00-0.165D+00-0.632D+00 0.166D+01
 Gap=     0.242 Goal=   None    Shift=    0.000
 Gap=     0.228 Goal=   None    Shift=    0.000
 RMSDP=2.33D-06 MaxDP=1.50D-04 DE=-1.11D-07 OVMax= 3.89D-04

 Cycle  13  Pass 1  IDiag  1:
 RMSU=  6.41D-07    CP:  1.02D+00  2.83D+00  9.68D-01  1.46D+00  2.03D+00
                    CP:  1.92D+00  1.64D+00  2.23D+00  2.90D+00  3.00D+00
                    CP:  3.00D+00  2.93D+00
 CoulSu:  requested number of processors reduced to:  19 ShMem   1 Linda.
 E= -1968.54798651169     Delta-E=       -0.000000026051 Rises=F Damp=F
 DIIS: error= 2.70D-06 at cycle  13 NSaved=  13.
 NSaved=13 IEnMin=13 EnMin= -1968.54798651169     IErMin=13 ErrMin= 2.70D-06
 ErrMax= 2.70D-06  0.00D+00 EMaxC= 1.00D-01 BMatC= 1.66D-09 BMatP= 9.26D-09
 IDIUse=1 WtCom= 1.00D+00 WtEn= 0.00D+00
 Coeff-Com: -0.156D-04 0.177D-04-0.173D-03-0.267D-05 0.204D-02-0.227D-02
 Coeff-Com: -0.257D-02-0.449D-02 0.312D-01 0.975D-01-0.240D+00-0.175D+00
 Coeff-Com:  0.129D+01
 Coeff:     -0.156D-04 0.177D-04-0.173D-03-0.267D-05 0.204D-02-0.227D-02
 Coeff:     -0.257D-02-0.449D-02 0.312D-01 0.975D-01-0.240D+00-0.175D+00
 Coeff:      0.129D+01
 Gap=     0.242 Goal=   None    Shift=    0.000
 Gap=     0.228 Goal=   None    Shift=    0.000
 RMSDP=7.21D-07 MaxDP=4.82D-05 DE=-2.61D-08 OVMax= 1.32D-04

 Cycle  14  Pass 1  IDiag  1:
 RMSU=  4.98D-07    CP:  1.02D+00  2.83D+00  9.68D-01  1.46D+00  2.02D+00
                    CP:  1.92D+00  1.64D+00  2.23D+00  2.93D+00  3.00D+00
                    CP:  3.00D+00  3.00D+00  1.55D+00
 CoulSu:  requested number of processors reduced to:  19 ShMem   1 Linda.
 E= -1968.54798651427     Delta-E=       -0.000000002577 Rises=F Damp=F
 DIIS: error= 9.84D-07 at cycle  14 NSaved=  14.
 NSaved=14 IEnMin=14 EnMin= -1968.54798651427     IErMin=14 ErrMin= 9.84D-07
 ErrMax= 9.84D-07  0.00D+00 EMaxC= 1.00D-01 BMatC= 1.90D-10 BMatP= 1.66D-09
 IDIUse=1 WtCom= 1.00D+00 WtEn= 0.00D+00
 Coeff-Com:  0.110D-04-0.128D-04 0.684D-04-0.200D-04-0.870D-03 0.145D-02
 Coeff-Com:  0.139D-02 0.201D-02-0.322D-01-0.171D-01 0.169D+00-0.128D+00
 Coeff-Com: -0.460D+00 0.146D+01
 Coeff:      0.110D-04-0.128D-04 0.684D-04-0.200D-04-0.870D-03 0.145D-02
 Coeff:      0.139D-02 0.201D-02-0.322D-01-0.171D-01 0.169D+00-0.128D+00
 Coeff:     -0.460D+00 0.146D+01
 Gap=     0.242 Goal=   None    Shift=    0.000
 Gap=     0.228 Goal=   None    Shift=    0.000
 RMSDP=1.72D-07 MaxDP=1.24D-05 DE=-2.58D-09 OVMax= 2.34D-05

 Cycle  15  Pass 1  IDiag  1:
 RMSU=  8.08D-08    CP:  1.02D+00  2.83D+00  9.68D-01  1.46D+00  2.02D+00
                    CP:  1.92D+00  1.65D+00  2.24D+00  2.94D+00  3.00D+00
                    CP:  3.00D+00  3.00D+00  1.64D+00  1.26D+00
 CoulSu:  requested number of processors reduced to:  19 ShMem   1 Linda.
 E= -1968.54798651449     Delta-E=       -0.000000000228 Rises=F Damp=F
 DIIS: error= 3.19D-07 at cycle  15 NSaved=  15.
 NSaved=15 IEnMin=15 EnMin= -1968.54798651449     IErMin=15 ErrMin= 3.19D-07
 ErrMax= 3.19D-07  0.00D+00 EMaxC= 1.00D-01 BMatC= 2.25D-11 BMatP= 1.90D-10
 IDIUse=1 WtCom= 1.00D+00 WtEn= 0.00D+00
 Coeff-Com: -0.401D-05 0.548D-05-0.117D-06-0.839D-05-0.257D-04-0.790D-04
 Coeff-Com: -0.452D-04 0.361D-03 0.519D-02-0.118D-01-0.105D-01 0.626D-01
 Coeff-Com: -0.101D+00-0.219D+00 0.127D+01
 Coeff:     -0.401D-05 0.548D-05-0.117D-06-0.839D-05-0.257D-04-0.790D-04
 Coeff:     -0.452D-04 0.361D-03 0.519D-02-0.118D-01-0.105D-01 0.626D-01
 Coeff:     -0.101D+00-0.219D+00 0.127D+01
 Gap=     0.242 Goal=   None    Shift=    0.000
 Gap=     0.228 Goal=   None    Shift=    0.000
 RMSDP=5.25D-08 MaxDP=3.87D-06 DE=-2.28D-10 OVMax= 6.57D-06

 Cycle  16  Pass 1  IDiag  1:
 RMSU=  1.14D-08    CP:  1.02D+00  2.83D+00  9.68D-01  1.46D+00  2.02D+00
                    CP:  1.92D+00  1.64D+00  2.24D+00  2.94D+00  3.00D+00
                    CP:  3.00D+00  3.00D+00  1.68D+00  1.34D+00  1.34D+00
 CoulSu:  requested number of processors reduced to:  19 ShMem   1 Linda.
 E= -1968.54798651451     Delta-E=       -0.000000000021 Rises=F Damp=F
 DIIS: error= 6.45D-08 at cycle  16 NSaved=  16.
 NSaved=16 IEnMin=16 EnMin= -1968.54798651451     IErMin=16 ErrMin= 6.45D-08
 ErrMax= 6.45D-08  0.00D+00 EMaxC= 1.00D-01 BMatC= 5.95D-13 BMatP= 2.25D-11
 IDIUse=1 WtCom= 1.00D+00 WtEn= 0.00D+00
 Coeff-Com:  0.686D-06-0.993D-06-0.162D-05 0.236D-05 0.272D-04-0.288D-04
 Coeff-Com: -0.606D-04-0.717D-04 0.140D-04 0.201D-02-0.239D-02-0.591D-02
 Coeff-Com:  0.354D-01-0.343D-01-0.286D+00 0.129D+01
 Coeff:      0.686D-06-0.993D-06-0.162D-05 0.236D-05 0.272D-04-0.288D-04
 Coeff:     -0.606D-04-0.717D-04 0.140D-04 0.201D-02-0.239D-02-0.591D-02
 Coeff:      0.354D-01-0.343D-01-0.286D+00 0.129D+01
 Gap=     0.242 Goal=   None    Shift=    0.000
 Gap=     0.228 Goal=   None    Shift=    0.000
 RMSDP=1.03D-08 MaxDP=6.56D-07 DE=-2.09D-11 OVMax= 1.31D-06

 Cycle  17  Pass 1  IDiag  1:
 RMSU=  2.47D-09    CP:  1.02D+00  2.83D+00  9.68D-01  1.46D+00  2.02D+00
                    CP:  1.92D+00  1.65D+00  2.24D+00  2.94D+00  3.00D+00
                    CP:  3.00D+00  3.00D+00  1.68D+00  1.35D+00  1.42D+00
                    CP:  1.35D+00
 CoulSu:  requested number of processors reduced to:  19 ShMem   1 Linda.
 E= -1968.54798651452     Delta-E=       -0.000000000004 Rises=F Damp=F
 DIIS: error= 1.21D-08 at cycle  17 NSaved=  17.
 NSaved=17 IEnMin=17 EnMin= -1968.54798651452     IErMin=17 ErrMin= 1.21D-08
 ErrMax= 1.21D-08  0.00D+00 EMaxC= 1.00D-01 BMatC= 3.81D-14 BMatP= 5.95D-13
 IDIUse=1 WtCom= 1.00D+00 WtEn= 0.00D+00
 Coeff-Com: -0.736D-08 0.280D-07 0.359D-06-0.492D-07-0.569D-05 0.114D-04
 Coeff-Com:  0.221D-04-0.186D-04-0.153D-03-0.249D-04 0.809D-03-0.963D-03
 Coeff-Com: -0.523D-02 0.212D-01 0.181D-01-0.310D+00 0.128D+01
 Coeff:     -0.736D-08 0.280D-07 0.359D-06-0.492D-07-0.569D-05 0.114D-04
 Coeff:      0.221D-04-0.186D-04-0.153D-03-0.249D-04 0.809D-03-0.963D-03
 Coeff:     -0.523D-02 0.212D-01 0.181D-01-0.310D+00 0.128D+01
 Gap=     0.242 Goal=   None    Shift=    0.000
 Gap=     0.228 Goal=   None    Shift=    0.000
 RMSDP=1.87D-09 MaxDP=1.21D-07 DE=-3.64D-12 OVMax= 2.23D-07

 SCF Done:  E(UM062X) =  -1968.54798651     A.U. after   17 cycles
            NFock= 17  Conv=0.19D-08     -V/T= 2.0009
 <Sx>= 0.0000 <Sy>= 0.0000 <Sz>= 0.5000 <S**2>= 0.7565 S= 0.5033
 <L.S>= 0.000000000000E+00
 KE= 1.966845789827D+03 PE=-4.943861618937D+03 EE= 8.869587483363D+02
 Annihilation of the first spin contaminant:
 S**2 before annihilation     0.7565,   after     0.7500
 Leave Link  502 at Fri Apr 16 22:51:15 2021, MaxMem=   104857600 cpu:            2175.5 elap:              67.3
 (Enter /s/ls4/users/knvvv/bin/g16sse/l601.exe)
 Copying SCF densities to generalized density rwf, IOpCl= 1 IROHF=0.

 **********************************************************************

            Population analysis using the SCF density.

 **********************************************************************

 Orbital symmetries:
 Alpha Orbitals:
       Occupied  (SG) (SG) (SG) (SG) (PI) (PI) (SG) (SG) (PI) (PI)
                 (SG) (SG) (PI) (PI) (SG) (?A) (?B) (?A) (?B) (?B)
                 (?B) (?A) (?A)
       Virtual   (SG) (PI) (PI) (SG) (SG) (PI) (PI) (?B) (?B) (?B)
                 (?B) (PI) (PI) (SG) (PI) (PI) (SG) (PI) (PI) (?B)
                 (?B) (?B) (?B) (PI) (PI) (DLTA) (DLTA) (SG) (PI)
                 (PI) (SG) (SG) (PI) (PI) (SG) (SG) (DLTA) (DLTA)
                 (PI) (PI) (PI) (PI) (?C) (?C) (?C) (PHI) (PHI)
                 (SG) (PI) (PI) (PHI) (PHI) (?D) (?D) (?D) (PI)
                 (PI) (?E) (?E) (?E) (PI) (PI) (SG) (DLTA) (DLTA)
                 (PI) (PI) (SG) (PI) (PI) (PHI) (PHI) (?F) (?F)
                 (?F) (PI) (PI) (SG) (SG) (PI) (PI) (?B) (?G) (?G)
                 (?B) (?B) (?G) (?G) (?B) (DLTA) (DLTA) (PI) (PI)
                 (SG) (?G) (?G) (?H) (?H) (?H) (?H) (?G) (?G) (SG)
                 (SG) (?G) (?G) (?I) (?I) (?G) (?G) (?I) (PI) (PI)
                 (SG) (?J) (?J) (?J) (PI) (PI) (SG) (?G) (?G) (?K)
                 (?K) (?K) (?K) (?G) (?G) (?K) (?L) (?L) (?G) (?G)
                 (?G) (?G) (?L) (?G) (?L) (?G) (?L) (?G) (?L) (?L)
                 (?G) (?L) (?L) (?L) (PI) (PI) (?L) (PI) (PI) (SG)
                 (SG)
 Beta  Orbitals:
       Occupied  (SG) (SG) (SG) (PI) (SG) (PI) (SG) (SG) (PI) (PI)
                 (SG) (SG) (PI) (PI) (SG) (?A) (?B) (?A) (?A) (?B)
                 (?A) (?B)
       Virtual   (SG) (?B) (?B) (SG) (SG) (?B) (?B) (?B) (?A) (?A)
                 (?A) (?A) (?B) (?B) (?B) (SG) (?B) (SG) (PI) (PI)
                 (?C) (SG) (?C) (?C) (?B) (DLTA) (DLTA) (?B) (SG)
                 (PI) (PI) (SG) (SG) (PI) (PI) (SG) (SG) (DLTA)
                 (DLTA) (PI) (PI) (PI) (PI) (?D) (?D) (?D) (PHI)
                 (PHI) (SG) (?E) (?E) (?E) (?E) (?F) (?F) (?F)
                 (PI) (PI) (?G) (?G) (?G) (PI) (PI) (SG) (DLTA)
                 (DLTA) (PI) (PI) (SG) (PI) (PI) (PHI) (PHI) (DLTA)
                 (DLTA) (SG) (PI) (PI) (SG) (SG) (PI) (PI) (?A)
                 (?E) (?E) (?A) (?A) (?E) (?E) (?A) (?H) (?H) (PI)
                 (PI) (?H) (PHI) (?I) (?I) (PHI) (?I) (?I) (PI)
                 (PI) (SG) (SG) (?E) (?E) (?J) (?J) (?E) (?E) (?J)
                 (PI) (PI) (SG) (?K) (?K) (?K) (?L) (?L) (?K) (?L)
                 (?L) (?K) (?K) (?K) (?K) (?L) (?L) (?K) (?E) (?E)
                 (?L) (?L) (?E) (?L) (?E) (?L) (?L) (?E) (?E) (?L)
                 (?E) (?L) (?E) (?L) (DLTA) (DLTA) (PI) (PI) (SG)
                 (PI) (PI) (SG) (SG)
 Unable to determine electronic state:  an orbital has unidentified symmetry.
 Alpha  occ. eigenvalues -- -301.74280-102.61147 -36.34876 -31.78257 -31.78224
 Alpha  occ. eigenvalues --  -31.74875  -9.74926  -7.46932  -7.46784  -7.46710
 Alpha  occ. eigenvalues --   -4.23655  -2.83797  -2.83298  -2.76920  -0.84819
 Alpha  occ. eigenvalues --   -0.46520  -0.44458  -0.41068  -0.39154  -0.38998
 Alpha  occ. eigenvalues --   -0.33908  -0.33510  -0.32511
 Alpha virt. eigenvalues --   -0.08341  -0.00293  -0.00141   0.01313   0.01451
 Alpha virt. eigenvalues --    0.04749   0.04925   0.07083   0.07750   0.07750
 Alpha virt. eigenvalues --    0.08820   0.09975   0.10157   0.12622   0.12645
 Alpha virt. eigenvalues --    0.12720   0.14143   0.21595   0.22188   0.27650
 Alpha virt. eigenvalues --    0.29312   0.30712   0.30725   0.36488   0.36751
 Alpha virt. eigenvalues --    0.38108   0.38162   0.39072   0.45669   0.45796
 Alpha virt. eigenvalues --    0.49911   0.58140   0.61531   0.61606   0.78699
 Alpha virt. eigenvalues --    0.80445   0.83266   0.83266   0.83365   0.83723
 Alpha virt. eigenvalues --    0.93806   0.95269   1.03069   1.03438   1.03745
 Alpha virt. eigenvalues --    1.05347   1.05347   1.19621   1.20247   1.21127
 Alpha virt. eigenvalues --    1.28640   1.28647   1.36462   1.36617   1.39157
 Alpha virt. eigenvalues --    1.40203   1.42102   1.47349   1.47398   1.63013
 Alpha virt. eigenvalues --    1.78673   1.79702   1.97201   2.26891   2.26894
 Alpha virt. eigenvalues --    2.37977   2.38201   2.41596   2.47706   2.48088
 Alpha virt. eigenvalues --    2.80278   2.80278   2.83763   2.83769   2.85488
 Alpha virt. eigenvalues --    2.90178   2.90424   2.91663   3.26123   3.45592
 Alpha virt. eigenvalues --    3.48936   3.89286   3.90124   3.90128   3.94028
 Alpha virt. eigenvalues --    3.94182   4.04573   4.07617   4.13312   4.42722
 Alpha virt. eigenvalues --    4.42753   4.48419   4.52450   4.72005   5.02983
 Alpha virt. eigenvalues --    5.02994   5.04531   5.04602   5.04961   5.05032
 Alpha virt. eigenvalues --    5.17617   5.20270   5.74143   6.15177  10.30805
 Alpha virt. eigenvalues --   10.30823  10.30942  10.31539  10.39005  10.44513
 Alpha virt. eigenvalues --   10.46082  12.13888  12.19208  12.29039  12.96088
 Alpha virt. eigenvalues --   13.16553  13.17131  13.17311  13.23341  13.56663
 Alpha virt. eigenvalues --   13.94706  13.95002  13.95196  13.95499  13.98266
 Alpha virt. eigenvalues --   13.98274  13.99253  14.04106  14.31138  27.21917
 Alpha virt. eigenvalues --   27.22869  27.23431  27.23505  27.27153  27.33351
 Alpha virt. eigenvalues --   27.34562  34.90429  34.90596  34.91840  34.92158
 Alpha virt. eigenvalues --   34.93545  34.95659  34.95666  34.98750  35.02013
 Alpha virt. eigenvalues --   36.53659  36.53737  36.55419  36.60919  36.79265
 Alpha virt. eigenvalues --   39.63467  39.68891  39.93612  78.66182
  Beta  occ. eigenvalues -- -301.74342-102.61107 -36.31507 -31.74579 -31.74514
  Beta  occ. eigenvalues --  -31.74113  -9.74911  -7.46908  -7.46695  -7.46690
  Beta  occ. eigenvalues --   -4.18996  -2.75214  -2.74901  -2.74602  -0.84632
  Beta  occ. eigenvalues --   -0.42168  -0.38573  -0.36119  -0.35684  -0.34556
  Beta  occ. eigenvalues --   -0.31906  -0.31447
  Beta virt. eigenvalues --   -0.08694  -0.01015  -0.00132   0.01071   0.01349
  Beta virt. eigenvalues --    0.03365   0.05004   0.06093   0.07173   0.07998
  Beta virt. eigenvalues --    0.08005   0.08813   0.10148   0.10182   0.12653
  Beta virt. eigenvalues --    0.12895   0.12940   0.14231   0.21745   0.22414
  Beta virt. eigenvalues --    0.27383   0.29039   0.30715   0.30721   0.36963
  Beta virt. eigenvalues --    0.38167   0.38441   0.38657   0.39123   0.44805
  Beta virt. eigenvalues --    0.45891   0.49783   0.58250   0.61323   0.61799
  Beta virt. eigenvalues --    0.78685   0.80550   0.83320   0.83320   0.83596
  Beta virt. eigenvalues --    0.83722   0.94258   0.95984   1.03077   1.03327
  Beta virt. eigenvalues --    1.03807   1.05298   1.05305   1.19539   1.21580
  Beta virt. eigenvalues --    1.21584   1.28585   1.28695   1.37731   1.38115
  Beta virt. eigenvalues --    1.40138   1.42732   1.42857   1.46845   1.47317
  Beta virt. eigenvalues --    1.63031   1.79157   1.79954   1.97610   2.27005
  Beta virt. eigenvalues --    2.27009   2.38116   2.38252   2.41702   2.47956
  Beta virt. eigenvalues --    2.48149   2.80322   2.80322   2.83698   2.83725
  Beta virt. eigenvalues --    2.86078   2.89959   2.90368   2.93309   3.27461
  Beta virt. eigenvalues --    3.48293   3.49311   3.89807   3.90234   3.90248
  Beta virt. eigenvalues --    3.97127   3.98270   4.08010   4.08583   4.15457
  Beta virt. eigenvalues --    4.44166   4.44590   4.54204   4.59838   4.72844
  Beta virt. eigenvalues --    5.03384   5.03565   5.03756   5.03779   5.04782
  Beta virt. eigenvalues --    5.05185   5.19662   5.20174   5.75593   6.15019
  Beta virt. eigenvalues --   10.32038  10.32220  10.34164  10.36878  10.43347
  Beta virt. eigenvalues --   10.45993  10.49441  12.16570  12.20482  12.31578
  Beta virt. eigenvalues --   12.97848  13.18287  13.18325  13.25235  13.25895
  Beta virt. eigenvalues --   13.60153  13.97083  13.97312  13.97955  13.98724
  Beta virt. eigenvalues --   13.99624  13.99690  14.02618  14.05822  14.32634
  Beta virt. eigenvalues --   27.26722  27.27002  27.31050  27.33938  27.36722
  Beta virt. eigenvalues --   27.39091  27.40248  34.98424  34.98803  35.00906
  Beta virt. eigenvalues --   35.01569  35.02626  35.02745  35.03443  35.04180
  Beta virt. eigenvalues --   35.08567  36.54373  36.54761  36.55805  36.61495
  Beta virt. eigenvalues --   36.81078  39.69900  39.70133  40.00117  78.71545
          Condensed to atoms (all electrons):
               1          2
     1  Ni  27.124280   0.319221
     2  Cl   0.319221  17.237278
          Atomic-Atomic Spin Densities.
               1          2
     1  Ni   0.994575  -0.015341
     2  Cl  -0.015341   0.036107
 Mulliken charges and spin densities:
               1          2
     1  Ni   0.556499   0.979234
     2  Cl  -0.556499   0.020766
 Sum of Mulliken charges =  -0.00000   1.00000
 Mulliken charges and spin densities with hydrogens summed into heavy atoms:
               1          2
     1  Ni   0.556499   0.979234
     2  Cl  -0.556499   0.020766
 Electronic spatial extent (au):  <R**2>=            218.5484
 Charge=             -0.0000 electrons
 Dipole moment (field-independent basis, Debye):
    X=              0.0000    Y=             -0.0000    Z=              5.5321  Tot=              5.5321
 Quadrupole moment (field-independent basis, Debye-Ang):
   XX=            -26.3424   YY=            -25.5494   ZZ=            -23.7280
   XY=              0.0000   XZ=              0.0000   YZ=              0.0000
 Traceless Quadrupole moment (field-independent basis, Debye-Ang):
   XX=             -1.1358   YY=             -0.3428   ZZ=              1.4786
   XY=              0.0000   XZ=              0.0000   YZ=              0.0000
 Octapole moment (field-independent basis, Debye-Ang**2):
  XXX=              0.0000  YYY=              0.0000  ZZZ=             34.7781  XYY=              0.0000
  XXY=             -0.0000  XXZ=              9.5990  XZZ=              0.0000  YZZ=             -0.0000
  YYZ=             10.2347  XYZ=              0.0000
 Hexadecapole moment (field-independent basis, Debye-Ang**3):
 XXXX=            -31.5672 YYYY=            -29.9995 ZZZZ=           -190.2726 XXXY=              0.0000
 XXXZ=              0.0000 YYYX=              0.0000 YYYZ=              0.0000 ZZZX=              0.0000
 ZZZY=              0.0000 XXYY=            -10.2603 XXZZ=            -39.0818 YYZZ=            -37.6327
 XXYZ=              0.0000 YYXZ=              0.0000 ZZXY=              0.0000
 N-N= 1.215090942585D+02 E-N=-4.943861620272D+03  KE= 1.966845789827D+03
                          Isotropic Fermi Contact Couplings
        Atom                 a.u.       MegaHertz       Gauss      10(-4) cm-1
     1  Ni(61)            -0.40746     163.03721      58.17573      54.38336
     2  Cl(35)             0.01227       5.37816       1.91906       1.79396
 PrsmSu:  requested number of processors reduced to:  21 ShMem   1 Linda.
 --------------------------------------------------------
       Center         ----  Spin Dipole Couplings  ----
                      3XX-RR        3YY-RR        3ZZ-RR
 --------------------------------------------------------
     1   Atom       -3.343000      1.613713      1.729287
     2   Atom       -0.117737      0.158934     -0.041197
 --------------------------------------------------------
                        XY            XZ            YZ
 --------------------------------------------------------
     1   Atom        0.000000      0.000000      0.000000
     2   Atom        0.000000      0.000000      0.000000
 --------------------------------------------------------


 ---------------------------------------------------------------------------------
              Anisotropic Spin Dipole Couplings in Principal Axis System
 ---------------------------------------------------------------------------------

       Atom             a.u.   MegaHertz   Gauss  10(-4) cm-1        Axes

              Baa    -3.3430   159.668    56.974    53.260  1.0000  0.0000  0.0000
     1 Ni(61) Bbb     1.6137   -77.074   -27.502   -25.709 -0.0000  1.0000  0.0000
              Bcc     1.7293   -82.594   -29.472   -27.550  0.0000  0.0000  1.0000
 
              Baa    -0.1177    -6.162    -2.199    -2.055  1.0000  0.0000  0.0000
     2 Cl(35) Bbb    -0.0412    -2.156    -0.769    -0.719  0.0000  0.0000  1.0000
              Bcc     0.1589     8.318     2.968     2.775 -0.0000  1.0000  0.0000
 

 ---------------------------------------------------------------------------------

 PrsmSu:  requested number of processors reduced to:  21 ShMem   1 Linda.
 No NMR shielding tensors so no spin-rotation constants.
 Leave Link  601 at Fri Apr 16 22:51:23 2021, MaxMem=   104857600 cpu:             352.3 elap:               7.8
 (Enter /s/ls4/users/knvvv/bin/g16sse/l801.exe)
 DoSCS=F DFT=T ScalE2(SS,OS)=  1.000000  1.000000
 Range of M.O.s used for correlation:     1   177
 NBasis=   177 NAE=    23 NBE=    22 NFC=     0 NFV=     0
 NROrb=    177 NOA=    23 NOB=    22 NVA=   154 NVB=   155

 **** Warning!!: The largest alpha MO coefficient is  0.34172474D+02


 **** Warning!!: The largest beta MO coefficient is  0.34162160D+02

 Leave Link  801 at Fri Apr 16 22:51:23 2021, MaxMem=   104857600 cpu:               4.2 elap:               0.1
 (Enter /s/ls4/users/knvvv/bin/g16sse/l914.exe)
 UHF ground state
 Doing stability rather than CIS.
 Two-electron integrals replicated using symmetry.
 MDV=   104857600 DFT=T DoStab=T Mixed=T DoRPA=F DoScal=F NonHer=F
 Making orbital integer symmetry assigments:
 Orbital symmetries:
 Alpha Orbitals:
       Occupied  (SG) (SG) (SG) (SG) (PI) (PI) (SG) (SG) (PI) (PI)
                 (SG) (SG) (PI) (PI) (SG) (?A) (?B) (?A) (?B) (?B)
                 (?B) (?A) (?A)
       Virtual   (SG) (PI) (PI) (SG) (SG) (PI) (PI) (?B) (?B) (?B)
                 (?B) (PI) (PI) (SG) (PI) (PI) (SG) (PI) (PI) (?B)
                 (?B) (?B) (?B) (PI) (PI) (DLTA) (DLTA) (SG) (PI)
                 (PI) (SG) (SG) (PI) (PI) (SG) (SG) (DLTA) (DLTA)
                 (PI) (PI) (PI) (PI) (?C) (?C) (?C) (PHI) (PHI)
                 (SG) (PI) (PI) (PHI) (PHI) (?D) (?D) (?D) (PI)
                 (PI) (?E) (?E) (?E) (PI) (PI) (SG) (DLTA) (DLTA)
                 (PI) (PI) (SG) (PI) (PI) (PHI) (PHI) (?F) (?F)
                 (?F) (PI) (PI) (SG) (SG) (PI) (PI) (?B) (?G) (?G)
                 (?B) (?B) (?G) (?G) (?B) (DLTA) (DLTA) (PI) (PI)
                 (SG) (?G) (?G) (?H) (?H) (?H) (?H) (?G) (?G) (SG)
                 (SG) (?G) (?G) (?I) (?I) (?G) (?G) (?I) (PI) (PI)
                 (SG) (?J) (?J) (?J) (PI) (PI) (SG) (?G) (?G) (?K)
                 (?K) (?K) (?K) (?G) (?G) (?K) (?L) (?L) (?G) (?G)
                 (?G) (?G) (?L) (?G) (?L) (?G) (?L) (?G) (?L) (?L)
                 (?G) (?L) (?L) (?L) (PI) (PI) (?L) (PI) (PI) (SG)
                 (SG)
 Beta  Orbitals:
       Occupied  (SG) (SG) (SG) (PI) (SG) (PI) (SG) (SG) (PI) (PI)
                 (SG) (SG) (PI) (PI) (SG) (?A) (?B) (?A) (?A) (?B)
                 (?A) (?B)
       Virtual   (SG) (?B) (?B) (SG) (SG) (?B) (?B) (?B) (?A) (?A)
                 (?A) (?A) (?B) (?B) (?B) (SG) (?B) (SG) (PI) (PI)
                 (?C) (SG) (?C) (?C) (?B) (DLTA) (DLTA) (?B) (SG)
                 (PI) (PI) (SG) (SG) (PI) (PI) (SG) (SG) (DLTA)
                 (DLTA) (PI) (PI) (PI) (PI) (?D) (?D) (?D) (PHI)
                 (PHI) (SG) (?E) (?E) (?E) (?E) (?F) (?F) (?F)
                 (PI) (PI) (?G) (?G) (?G) (PI) (PI) (SG) (DLTA)
                 (DLTA) (PI) (PI) (SG) (PI) (PI) (PHI) (PHI) (DLTA)
                 (DLTA) (SG) (PI) (PI) (SG) (SG) (PI) (PI) (?A)
                 (?E) (?E) (?A) (?A) (?E) (?E) (?A) (?H) (?H) (PI)
                 (PI) (?H) (PHI) (?I) (?I) (PHI) (?I) (?I) (PI)
                 (PI) (SG) (SG) (?E) (?E) (?J) (?J) (?E) (?E) (?J)
                 (PI) (PI) (SG) (?K) (?K) (?K) (?L) (?L) (?K) (?L)
                 (?L) (?K) (?K) (?K) (?K) (?L) (?L) (?K) (?E) (?E)
                 (?L) (?L) (?E) (?L) (?E) (?L) (?L) (?E) (?E) (?L)
                 (?E) (?L) (?E) (?L) (DLTA) (DLTA) (PI) (PI) (SG)
                 (PI) (PI) (SG) (SG)
    12 initial guesses have been made.
 Convergence on wavefunction:    0.001000000000000
 Davidson Disk Diagonalization:  ConvIn= 1.00D-03 SkipCon=T Conv= 1.00D-03.
 Max sub-space:  2000 roots to seek:    12 dimension of matrix:         6952
 Iteration     1 Dimension    12 NMult     0 NNew     12
 Estimated number of processors is:   19
 CISAX will form     1 AO SS matrices at one time.
 NMat=     1 NSing=     1 JSym2X= 2.
 FoFJK:  IHMeth= 1 ICntrl=       0 DoSepK=F KAlg= 0 I1Cent=           0 FoldK=F
 IRaf= 990000000 NMat=       1 IRICut=       1 DoRegI=T DoRafI=F ISym2E= 2 IDoP0=0 IntGTp=1.
 FoFCou: FMM=F IPFlag=           0 FMFlag=      100000 FMFlg1=           0
         NFxFlg=           0 DoJE=F BraDBF=F KetDBF=F FulRan=T
         wScrn=  0.000000 ICntrl=         0 IOpCl=  1 I1Cent=           0 NGrid=           0
         NMat0=    1 NMatS0=      1 NMatT0=    0 NMatD0=    1 NMtDS0=    0 NMtDT0=    0
 Integrals replicated using symmetry in FoFCou.
 CoulSu:  requested number of processors reduced to:  19 ShMem   1 Linda.
 NMat=     1 NSing=     1 JSym2X= 2.
 CoulSu:  requested number of processors reduced to:  19 ShMem   1 Linda.
 NMat=     1 NSing=     1 JSym2X= 2.
 CoulSu:  requested number of processors reduced to:  19 ShMem   1 Linda.
 NMat=     1 NSing=     1 JSym2X= 2.
 CoulSu:  requested number of processors reduced to:  19 ShMem   1 Linda.
 NMat=     1 NSing=     1 JSym2X= 2.
 CoulSu:  requested number of processors reduced to:  19 ShMem   1 Linda.
 NMat=     1 NSing=     1 JSym2X= 2.
 CoulSu:  requested number of processors reduced to:  19 ShMem   1 Linda.
 NMat=     1 NSing=     1 JSym2X= 2.
 CoulSu:  requested number of processors reduced to:  19 ShMem   1 Linda.
 NMat=     1 NSing=     1 JSym2X= 2.
 CoulSu:  requested number of processors reduced to:  19 ShMem   1 Linda.
 NMat=     1 NSing=     1 JSym2X= 2.
 CoulSu:  requested number of processors reduced to:  19 ShMem   1 Linda.
 NMat=     1 NSing=     1 JSym2X= 2.
 CoulSu:  requested number of processors reduced to:  19 ShMem   1 Linda.
 NMat=     1 NSing=     1 JSym2X= 2.
 CoulSu:  requested number of processors reduced to:  19 ShMem   1 Linda.
 NMat=     1 NSing=     1 JSym2X= 2.
 CoulSu:  requested number of processors reduced to:  19 ShMem   1 Linda.
 New state      1 was old state      2
 Excitation Energies [eV] at current iteration:
 Root      1 :     2.547026813726705
 Root      2 :     2.759551697262870
 Root      3 :     2.942642455667877
 Root      4 :     3.612784070541748
 Root      5 :     3.797523994867174
 Root      6 :     3.892678396097682
 Root      7 :     4.034865255798013
 Root      8 :     4.219397360707277
 Root      9 :     4.553301161839796
 Root     10 :     4.897045272651417
 Root     11 :     4.965184862926166
 Root     12 :     5.840132494765741
 Iteration     2 Dimension    24 NMult    12 NNew     12
 Estimated number of processors is:   19
 CISAX will form     1 AO SS matrices at one time.
 NMat=     1 NSing=     1 JSym2X= 2.
 CoulSu:  requested number of processors reduced to:  19 ShMem   1 Linda.
 NMat=     1 NSing=     1 JSym2X= 2.
 CoulSu:  requested number of processors reduced to:  19 ShMem   1 Linda.
 NMat=     1 NSing=     1 JSym2X= 2.
 CoulSu:  requested number of processors reduced to:  19 ShMem   1 Linda.
 NMat=     1 NSing=     1 JSym2X= 2.
 CoulSu:  requested number of processors reduced to:  19 ShMem   1 Linda.
 NMat=     1 NSing=     1 JSym2X= 2.
 CoulSu:  requested number of processors reduced to:  19 ShMem   1 Linda.
 NMat=     1 NSing=     1 JSym2X= 2.
 CoulSu:  requested number of processors reduced to:  19 ShMem   1 Linda.
 NMat=     1 NSing=     1 JSym2X= 2.
 CoulSu:  requested number of processors reduced to:  19 ShMem   1 Linda.
 NMat=     1 NSing=     1 JSym2X= 2.
 CoulSu:  requested number of processors reduced to:  19 ShMem   1 Linda.
 NMat=     1 NSing=     1 JSym2X= 2.
 CoulSu:  requested number of processors reduced to:  19 ShMem   1 Linda.
 NMat=     1 NSing=     1 JSym2X= 2.
 CoulSu:  requested number of processors reduced to:  19 ShMem   1 Linda.
 NMat=     1 NSing=     1 JSym2X= 2.
 CoulSu:  requested number of processors reduced to:  19 ShMem   1 Linda.
 NMat=     1 NSing=     1 JSym2X= 2.
 CoulSu:  requested number of processors reduced to:  19 ShMem   1 Linda.
 Root      1 not converged, maximum delta is    0.119890995944869
 Excitation Energies [eV] at current iteration:
 Root      1 :     1.883220372591192   Change is   -0.663806441135513
 Root      2 :     1.967031330349091   Change is   -0.792520366913779
 Root      3 :     2.154656652591483   Change is   -0.787985803076394
 Root      4 :     2.359047748808254   Change is   -3.481084745957487
 Root      5 :     2.871898800804789   Change is   -1.020779595292893
 Root      6 :     3.187067182129043   Change is   -0.425716888412704
 Root      7 :     3.196587331571890   Change is   -0.600936663295285
 Root      8 :     3.549773208211239   Change is   -0.485092047586774
 Root      9 :     3.829167772328601   Change is   -0.390229588378676
 Root     10 :     4.162662240610403   Change is   -0.802522622315763
 Root     11 :     4.366273516125840   Change is   -0.187027645713956
 Root     12 :     4.610465276365150   Change is   -0.286579996286268
 Iteration     3 Dimension    27 NMult    24 NNew      3
 Estimated number of processors is:   19
 CISAX will form     1 AO SS matrices at one time.
 NMat=     1 NSing=     1 JSym2X= 2.
 CoulSu:  requested number of processors reduced to:  19 ShMem   1 Linda.
 NMat=     1 NSing=     1 JSym2X= 2.
 CoulSu:  requested number of processors reduced to:  19 ShMem   1 Linda.
 NMat=     1 NSing=     1 JSym2X= 2.
 CoulSu:  requested number of processors reduced to:  19 ShMem   1 Linda.
 New state      1 was old state      3
 Root      1 not converged, maximum delta is    0.575762392090641
 Excitation Energies [eV] at current iteration:
 Root      1 :     0.110362672303281   Change is   -2.044293980288202
 Root      2 :     1.763373544457311   Change is   -0.119846828133881
 Root      3 :     1.898238555051059   Change is   -0.068792775298032
 Iteration     4 Dimension    30 NMult    27 NNew      3
 Estimated number of processors is:   19
 CISAX will form     1 AO SS matrices at one time.
 NMat=     1 NSing=     1 JSym2X= 2.
 CoulSu:  requested number of processors reduced to:  19 ShMem   1 Linda.
 NMat=     1 NSing=     1 JSym2X= 2.
 CoulSu:  requested number of processors reduced to:  19 ShMem   1 Linda.
 NMat=     1 NSing=     1 JSym2X= 2.
 CoulSu:  requested number of processors reduced to:  19 ShMem   1 Linda.
 Root      1 not converged, maximum delta is    0.037832718300333
 Excitation Energies [eV] at current iteration:
 Root      1 :     0.001952288401659   Change is   -0.108410383901622
 Root      2 :     1.746073545928524   Change is   -0.017299998528787
 Root      3 :     1.876054425212608   Change is   -0.022184129838450
 Iteration     5 Dimension    33 NMult    30 NNew      3
 Estimated number of processors is:   19
 CISAX will form     1 AO SS matrices at one time.
 NMat=     1 NSing=     1 JSym2X= 2.
 CoulSu:  requested number of processors reduced to:  19 ShMem   1 Linda.
 NMat=     1 NSing=     1 JSym2X= 2.
 CoulSu:  requested number of processors reduced to:  19 ShMem   1 Linda.
 NMat=     1 NSing=     1 JSym2X= 2.
 CoulSu:  requested number of processors reduced to:  19 ShMem   1 Linda.
 Root      1 not converged, maximum delta is    0.004687912689784
 Excitation Energies [eV] at current iteration:
 Root      1 :    -0.000493512970572   Change is   -0.002445801372232
 Root      2 :     1.743624926594353   Change is   -0.002448619334171
 Root      3 :     1.810096968277162   Change is   -0.065957456935446
 Iteration     6 Dimension    36 NMult    33 NNew      3
 Estimated number of processors is:   19
 CISAX will form     1 AO SS matrices at one time.
 NMat=     1 NSing=     1 JSym2X= 2.
 CoulSu:  requested number of processors reduced to:  19 ShMem   1 Linda.
 NMat=     1 NSing=     1 JSym2X= 2.
 CoulSu:  requested number of processors reduced to:  19 ShMem   1 Linda.
 NMat=     1 NSing=     1 JSym2X= 2.
 CoulSu:  requested number of processors reduced to:  19 ShMem   1 Linda.
 Root      1 has converged.
 Excitation Energies [eV] at current iteration:
 Root      1 :    -0.000559661903321   Change is   -0.000066148932748
 Root      2 :     0.178391440750631   Change is   -1.631705527526531
 Root      3 :     1.743422078062881   Change is   -0.000202848531472
 Convergence achieved on expansion vectors.
 ***********************************************************************
 Stability analysis using <AA,BB:AA,BB> singles matrix:
 ***********************************************************************
 1PDM for each excited state written to RWF  633
 Ground to excited state transition densities written to RWF  633

 Eigenvectors of the stability matrix:
 
 Excited state symmetry could not be determined.
 Eigenvector   1:  2.010-?Sym  Eigenvalue=-0.0000206  <S**2>=0.760
     17B -> 24B        0.23791
     17B -> 28B       -0.41083
     17B -> 30B       -0.46004
     17B -> 39B       -0.13893
     17B -> 50B        0.14871
     22B -> 24B        0.24493
     22B -> 28B       -0.41852
     22B -> 30B       -0.47205
     22B -> 39B       -0.13310
     22B -> 50B        0.12792
 The wavefunction is stable under the perturbations considered.
 Leave Link  914 at Fri Apr 16 22:53:53 2021, MaxMem=   104857600 cpu:            4913.5 elap:             150.2
 (Enter /s/ls4/users/knvvv/bin/g16sse/l508.exe)
 The wavefunction is already stable.
 Leave Link  508 at Fri Apr 16 22:53:53 2021, MaxMem=   104857600 cpu:               2.4 elap:               0.1
 (Enter /s/ls4/users/knvvv/bin/g16sse/l601.exe)
 Copying SCF densities to generalized density rwf, IOpCl= 1 IROHF=0.

 **********************************************************************

            Population analysis using the SCF density.

 **********************************************************************

 Orbital symmetries:
 Alpha Orbitals:
       Occupied  (SG) (SG) (SG) (SG) (PI) (PI) (SG) (SG) (PI) (PI)
                 (SG) (SG) (PI) (PI) (SG) (?A) (?B) (?A) (?B) (?B)
                 (?B) (?A) (?A)
       Virtual   (SG) (PI) (PI) (SG) (SG) (PI) (PI) (?B) (?B) (?B)
                 (?B) (PI) (PI) (SG) (PI) (PI) (SG) (PI) (PI) (?B)
                 (?B) (?B) (?B) (PI) (PI) (DLTA) (DLTA) (SG) (PI)
                 (PI) (SG) (SG) (PI) (PI) (SG) (SG) (DLTA) (DLTA)
                 (PI) (PI) (PI) (PI) (?C) (?C) (?C) (PHI) (PHI)
                 (SG) (PI) (PI) (PHI) (PHI) (?D) (?D) (?D) (PI)
                 (PI) (?E) (?E) (?E) (PI) (PI) (SG) (DLTA) (DLTA)
                 (PI) (PI) (SG) (PI) (PI) (PHI) (PHI) (?F) (?F)
                 (?F) (PI) (PI) (SG) (SG) (PI) (PI) (?B) (?G) (?G)
                 (?B) (?B) (?G) (?G) (?B) (DLTA) (DLTA) (PI) (PI)
                 (SG) (?G) (?G) (?H) (?H) (?H) (?H) (?G) (?G) (SG)
                 (SG) (?G) (?G) (?I) (?I) (?G) (?G) (?I) (PI) (PI)
                 (SG) (?J) (?J) (?J) (PI) (PI) (SG) (?G) (?G) (?K)
                 (?K) (?K) (?K) (?G) (?G) (?K) (?L) (?L) (?G) (?G)
                 (?G) (?G) (?L) (?G) (?L) (?G) (?L) (?G) (?L) (?L)
                 (?G) (?L) (?L) (?L) (PI) (PI) (?L) (PI) (PI) (SG)
                 (SG)
 Beta  Orbitals:
       Occupied  (SG) (SG) (SG) (PI) (SG) (PI) (SG) (SG) (PI) (PI)
                 (SG) (SG) (PI) (PI) (SG) (?A) (?B) (?A) (?A) (?B)
                 (?A) (?B)
       Virtual   (SG) (?B) (?B) (SG) (SG) (?B) (?B) (?B) (?A) (?A)
                 (?A) (?A) (?B) (?B) (?B) (SG) (?B) (SG) (PI) (PI)
                 (?C) (SG) (?C) (?C) (?B) (DLTA) (DLTA) (?B) (SG)
                 (PI) (PI) (SG) (SG) (PI) (PI) (SG) (SG) (DLTA)
                 (DLTA) (PI) (PI) (PI) (PI) (?D) (?D) (?D) (PHI)
                 (PHI) (SG) (?E) (?E) (?E) (?E) (?F) (?F) (?F)
                 (PI) (PI) (?G) (?G) (?G) (PI) (PI) (SG) (DLTA)
                 (DLTA) (PI) (PI) (SG) (PI) (PI) (PHI) (PHI) (DLTA)
                 (DLTA) (SG) (PI) (PI) (SG) (SG) (PI) (PI) (?A)
                 (?E) (?E) (?A) (?A) (?E) (?E) (?A) (?H) (?H) (PI)
                 (PI) (?H) (PHI) (?I) (?I) (PHI) (?I) (?I) (PI)
                 (PI) (SG) (SG) (?E) (?E) (?J) (?J) (?E) (?E) (?J)
                 (PI) (PI) (SG) (?K) (?K) (?K) (?L) (?L) (?K) (?L)
                 (?L) (?K) (?K) (?K) (?K) (?L) (?L) (?K) (?E) (?E)
                 (?L) (?L) (?E) (?L) (?E) (?L) (?L) (?E) (?E) (?L)
                 (?E) (?L) (?E) (?L) (DLTA) (DLTA) (PI) (PI) (SG)
                 (PI) (PI) (SG) (SG)
 Unable to determine electronic state:  an orbital has unidentified symmetry.
 Alpha  occ. eigenvalues -- -301.74280-102.61147 -36.34876 -31.78257 -31.78224
 Alpha  occ. eigenvalues --  -31.74875  -9.74926  -7.46932  -7.46784  -7.46710
 Alpha  occ. eigenvalues --   -4.23655  -2.83797  -2.83298  -2.76920  -0.84819
 Alpha  occ. eigenvalues --   -0.46520  -0.44458  -0.41068  -0.39154  -0.38998
 Alpha  occ. eigenvalues --   -0.33908  -0.33510  -0.32511
 Alpha virt. eigenvalues --   -0.08341  -0.00293  -0.00141   0.01313   0.01451
 Alpha virt. eigenvalues --    0.04749   0.04925   0.07083   0.07750   0.07750
 Alpha virt. eigenvalues --    0.08820   0.09975   0.10157   0.12622   0.12645
 Alpha virt. eigenvalues --    0.12720   0.14143   0.21595   0.22188   0.27650
 Alpha virt. eigenvalues --    0.29312   0.30712   0.30725   0.36488   0.36751
 Alpha virt. eigenvalues --    0.38108   0.38162   0.39072   0.45669   0.45796
 Alpha virt. eigenvalues --    0.49911   0.58140   0.61531   0.61606   0.78699
 Alpha virt. eigenvalues --    0.80445   0.83266   0.83266   0.83365   0.83723
 Alpha virt. eigenvalues --    0.93806   0.95269   1.03069   1.03438   1.03745
 Alpha virt. eigenvalues --    1.05347   1.05347   1.19621   1.20247   1.21127
 Alpha virt. eigenvalues --    1.28640   1.28647   1.36462   1.36617   1.39157
 Alpha virt. eigenvalues --    1.40203   1.42102   1.47349   1.47398   1.63013
 Alpha virt. eigenvalues --    1.78673   1.79702   1.97201   2.26891   2.26894
 Alpha virt. eigenvalues --    2.37977   2.38201   2.41596   2.47706   2.48088
 Alpha virt. eigenvalues --    2.80278   2.80278   2.83763   2.83769   2.85488
 Alpha virt. eigenvalues --    2.90178   2.90424   2.91663   3.26123   3.45592
 Alpha virt. eigenvalues --    3.48936   3.89286   3.90124   3.90128   3.94028
 Alpha virt. eigenvalues --    3.94182   4.04573   4.07617   4.13312   4.42722
 Alpha virt. eigenvalues --    4.42753   4.48419   4.52450   4.72005   5.02983
 Alpha virt. eigenvalues --    5.02994   5.04531   5.04602   5.04961   5.05032
 Alpha virt. eigenvalues --    5.17617   5.20270   5.74143   6.15177  10.30805
 Alpha virt. eigenvalues --   10.30823  10.30942  10.31539  10.39005  10.44513
 Alpha virt. eigenvalues --   10.46082  12.13888  12.19208  12.29039  12.96088
 Alpha virt. eigenvalues --   13.16553  13.17131  13.17311  13.23341  13.56663
 Alpha virt. eigenvalues --   13.94706  13.95002  13.95196  13.95499  13.98266
 Alpha virt. eigenvalues --   13.98274  13.99253  14.04106  14.31138  27.21917
 Alpha virt. eigenvalues --   27.22869  27.23431  27.23505  27.27153  27.33351
 Alpha virt. eigenvalues --   27.34562  34.90429  34.90596  34.91840  34.92158
 Alpha virt. eigenvalues --   34.93545  34.95659  34.95666  34.98750  35.02013
 Alpha virt. eigenvalues --   36.53659  36.53737  36.55419  36.60919  36.79265
 Alpha virt. eigenvalues --   39.63467  39.68891  39.93612  78.66182
  Beta  occ. eigenvalues -- -301.74342-102.61107 -36.31507 -31.74579 -31.74514
  Beta  occ. eigenvalues --  -31.74113  -9.74911  -7.46908  -7.46695  -7.46690
  Beta  occ. eigenvalues --   -4.18996  -2.75214  -2.74901  -2.74602  -0.84632
  Beta  occ. eigenvalues --   -0.42168  -0.38573  -0.36119  -0.35684  -0.34556
  Beta  occ. eigenvalues --   -0.31906  -0.31447
  Beta virt. eigenvalues --   -0.08694  -0.01015  -0.00132   0.01071   0.01349
  Beta virt. eigenvalues --    0.03365   0.05004   0.06093   0.07173   0.07998
  Beta virt. eigenvalues --    0.08005   0.08813   0.10148   0.10182   0.12653
  Beta virt. eigenvalues --    0.12895   0.12940   0.14231   0.21745   0.22414
  Beta virt. eigenvalues --    0.27383   0.29039   0.30715   0.30721   0.36963
  Beta virt. eigenvalues --    0.38167   0.38441   0.38657   0.39123   0.44805
  Beta virt. eigenvalues --    0.45891   0.49783   0.58250   0.61323   0.61799
  Beta virt. eigenvalues --    0.78685   0.80550   0.83320   0.83320   0.83596
  Beta virt. eigenvalues --    0.83722   0.94258   0.95984   1.03077   1.03327
  Beta virt. eigenvalues --    1.03807   1.05298   1.05305   1.19539   1.21580
  Beta virt. eigenvalues --    1.21584   1.28585   1.28695   1.37731   1.38115
  Beta virt. eigenvalues --    1.40138   1.42732   1.42857   1.46845   1.47317
  Beta virt. eigenvalues --    1.63031   1.79157   1.79954   1.97610   2.27005
  Beta virt. eigenvalues --    2.27009   2.38116   2.38252   2.41702   2.47956
  Beta virt. eigenvalues --    2.48149   2.80322   2.80322   2.83698   2.83725
  Beta virt. eigenvalues --    2.86078   2.89959   2.90368   2.93309   3.27461
  Beta virt. eigenvalues --    3.48293   3.49311   3.89807   3.90234   3.90248
  Beta virt. eigenvalues --    3.97127   3.98270   4.08010   4.08583   4.15457
  Beta virt. eigenvalues --    4.44166   4.44590   4.54204   4.59838   4.72844
  Beta virt. eigenvalues --    5.03384   5.03565   5.03756   5.03779   5.04782
  Beta virt. eigenvalues --    5.05185   5.19662   5.20174   5.75593   6.15019
  Beta virt. eigenvalues --   10.32038  10.32220  10.34164  10.36878  10.43347
  Beta virt. eigenvalues --   10.45993  10.49441  12.16570  12.20482  12.31578
  Beta virt. eigenvalues --   12.97848  13.18287  13.18325  13.25235  13.25895
  Beta virt. eigenvalues --   13.60153  13.97083  13.97312  13.97955  13.98724
  Beta virt. eigenvalues --   13.99624  13.99690  14.02618  14.05822  14.32634
  Beta virt. eigenvalues --   27.26722  27.27002  27.31050  27.33938  27.36722
  Beta virt. eigenvalues --   27.39091  27.40248  34.98424  34.98803  35.00906
  Beta virt. eigenvalues --   35.01569  35.02626  35.02745  35.03443  35.04180
  Beta virt. eigenvalues --   35.08567  36.54373  36.54761  36.55805  36.61495
  Beta virt. eigenvalues --   36.81078  39.69900  39.70133  40.00117  78.71545
          Condensed to atoms (all electrons):
               1          2
     1  Ni  27.124280   0.319221
     2  Cl   0.319221  17.237278
          Atomic-Atomic Spin Densities.
               1          2
     1  Ni   0.994575  -0.015341
     2  Cl  -0.015341   0.036107
 Mulliken charges and spin densities:
               1          2
     1  Ni   0.556499   0.979234
     2  Cl  -0.556499   0.020766
 Sum of Mulliken charges =  -0.00000   1.00000
 Mulliken charges and spin densities with hydrogens summed into heavy atoms:
               1          2
     1  Ni   0.556499   0.979234
     2  Cl  -0.556499   0.020766
 Electronic spatial extent (au):  <R**2>=            218.5484
 Charge=             -0.0000 electrons
 Dipole moment (field-independent basis, Debye):
    X=              0.0000    Y=             -0.0000    Z=              5.5321  Tot=              5.5321
 Quadrupole moment (field-independent basis, Debye-Ang):
   XX=            -26.3424   YY=            -25.5494   ZZ=            -23.7280
   XY=              0.0000   XZ=              0.0000   YZ=              0.0000
 Traceless Quadrupole moment (field-independent basis, Debye-Ang):
   XX=             -1.1358   YY=             -0.3428   ZZ=              1.4786
   XY=              0.0000   XZ=              0.0000   YZ=              0.0000
 Octapole moment (field-independent basis, Debye-Ang**2):
  XXX=              0.0000  YYY=              0.0000  ZZZ=             34.7781  XYY=              0.0000
  XXY=             -0.0000  XXZ=              9.5990  XZZ=              0.0000  YZZ=             -0.0000
  YYZ=             10.2347  XYZ=              0.0000
 Hexadecapole moment (field-independent basis, Debye-Ang**3):
 XXXX=            -31.5672 YYYY=            -29.9995 ZZZZ=           -190.2726 XXXY=              0.0000
 XXXZ=              0.0000 YYYX=              0.0000 YYYZ=              0.0000 ZZZX=              0.0000
 ZZZY=              0.0000 XXYY=            -10.2603 XXZZ=            -39.0818 YYZZ=            -37.6327
 XXYZ=              0.0000 YYXZ=              0.0000 ZZXY=              0.0000
 N-N= 1.215090942585D+02 E-N=-4.943861620272D+03  KE= 1.966845789827D+03
                          Isotropic Fermi Contact Couplings
        Atom                 a.u.       MegaHertz       Gauss      10(-4) cm-1
     1  Ni(61)            -0.40746     163.03721      58.17573      54.38336
     2  Cl(35)             0.01227       5.37816       1.91906       1.79396
 PrsmSu:  requested number of processors reduced to:  21 ShMem   1 Linda.
 --------------------------------------------------------
       Center         ----  Spin Dipole Couplings  ----
                      3XX-RR        3YY-RR        3ZZ-RR
 --------------------------------------------------------
     1   Atom       -3.343000      1.613713      1.729287
     2   Atom       -0.117737      0.158934     -0.041197
 --------------------------------------------------------
                        XY            XZ            YZ
 --------------------------------------------------------
     1   Atom        0.000000      0.000000      0.000000
     2   Atom        0.000000      0.000000      0.000000
 --------------------------------------------------------


 ---------------------------------------------------------------------------------
              Anisotropic Spin Dipole Couplings in Principal Axis System
 ---------------------------------------------------------------------------------

       Atom             a.u.   MegaHertz   Gauss  10(-4) cm-1        Axes

              Baa    -3.3430   159.668    56.974    53.260  1.0000  0.0000  0.0000
     1 Ni(61) Bbb     1.6137   -77.074   -27.502   -25.709 -0.0000  1.0000  0.0000
              Bcc     1.7293   -82.594   -29.472   -27.550  0.0000  0.0000  1.0000
 
              Baa    -0.1177    -6.162    -2.199    -2.055  1.0000  0.0000  0.0000
     2 Cl(35) Bbb    -0.0412    -2.156    -0.769    -0.719  0.0000  0.0000  1.0000
              Bcc     0.1589     8.318     2.968     2.775 -0.0000  1.0000  0.0000
 

 ---------------------------------------------------------------------------------

 PrsmSu:  requested number of processors reduced to:  21 ShMem   1 Linda.
 No NMR shielding tensors so no spin-rotation constants.
 Leave Link  601 at Fri Apr 16 22:54:00 2021, MaxMem=   104857600 cpu:             323.1 elap:               7.1
 (Enter /s/ls4/users/knvvv/bin/g16sse/l9999.exe)

 Test job not archived.
 1\1\GINC-N150\Stability\UM062X\Gen\Cl1Ni1(2)\KNVVV\16-Apr-2021\0\\#P M
 062X/GEN Integral=UltraFineGrid SCF=NoSymm Stable=(RExt, Opt) IOp(1/33
 =1)\\Database calculations.\\0,2\Ni,0,0.,0.,0.\Cl,0,0.,0.,2.073\\Versi
 on=ES64L-G16RevA.03\HF=-1968.5479865\S2=0.75654\S2-1=0.\S2A=0.750026\R
 MSD=1.874e-09\Dipole=0.,0.,-2.1765118\Quadrupole=-0.8444354,-0.2548722
 ,1.0993076,0.,0.,0.\PG=C*V [C*(Cl1Ni1)]\\@


  DISAPPOINTMENT IS THE NURSE OF WISDOM.               
                              SIR BOYLE ROCHE                 
 Job cpu time:       0 days  2 hours 18 minutes  1.3 seconds.
 Elapsed time:       0 days  0 hours  4 minutes  4.0 seconds.
 File lengths (MBytes):  RWF=    170 Int=      0 D2E=      0 Chk=      6 Scr=      1
 Normal termination of Gaussian 16 at Fri Apr 16 22:54:01 2021.
