 Entering Gaussian System, Link 0=/s/ls4/users/knvvv/bin/g16sse/g16
 Input=data/database/M062X--def2-QZVPPD--4138_26UracilUracilpipi_dim_S66.gjf
 Output=data/database/M062X--def2-QZVPPD--4138_26UracilUracilpipi_dim_S66.log
 Initial command:
 /s/ls4/users/knvvv/bin/g16sse/l1.exe "/s/ls4/users/knvvv/bin/scratch/Gau-9966.inp" -scrdir="/s/ls4/users/knvvv/bin/scratch/"
 Entering Link 1 = /s/ls4/users/knvvv/bin/g16sse/l1.exe PID=      9967.
  
 Copyright (c) 1988,1990,1992,1993,1995,1998,2003,2009,2016,
            Gaussian, Inc.  All Rights Reserved.
  
 This is part of the Gaussian(R) 16 program.  It is based on
 the Gaussian(R) 09 system (copyright 2009, Gaussian, Inc.),
 the Gaussian(R) 03 system (copyright 2003, Gaussian, Inc.),
 the Gaussian(R) 98 system (copyright 1998, Gaussian, Inc.),
 the Gaussian(R) 94 system (copyright 1995, Gaussian, Inc.),
 the Gaussian 92(TM) system (copyright 1992, Gaussian, Inc.),
 the Gaussian 90(TM) system (copyright 1990, Gaussian, Inc.),
 the Gaussian 88(TM) system (copyright 1988, Gaussian, Inc.),
 the Gaussian 86(TM) system (copyright 1986, Carnegie Mellon
 University), and the Gaussian 82(TM) system (copyright 1983,
 Carnegie Mellon University). Gaussian is a federally registered
 trademark of Gaussian, Inc.
  
 This software contains proprietary and confidential information,
 including trade secrets, belonging to Gaussian, Inc.
  
 This software is provided under written license and may be
 used, copied, transmitted, or stored only in accord with that
 written license.
  
 The following legend is applicable only to US Government
 contracts under FAR:
  
                    RESTRICTED RIGHTS LEGEND
  
 Use, reproduction and disclosure by the US Government is
 subject to restrictions as set forth in subparagraphs (a)
 and (c) of the Commercial Computer Software - Restricted
 Rights clause in FAR 52.227-19.
  
 Gaussian, Inc.
 340 Quinnipiac St., Bldg. 40, Wallingford CT 06492
  
  
 ---------------------------------------------------------------
 Warning -- This program may not be used in any manner that
 competes with the business of Gaussian, Inc. or will provide
 assistance to any competitor of Gaussian, Inc.  The licensee
 of this program is prohibited from giving any competitor of
 Gaussian, Inc. access to this program.  By using this program,
 the user acknowledges that Gaussian, Inc. is engaged in the
 business of creating and licensing software in the field of
 computational chemistry and represents and warrants to the
 licensee that it is not a competitor of Gaussian, Inc. and that
 it will not use this program in any manner prohibited above.
 ---------------------------------------------------------------
  

 Cite this work as:
 Gaussian 16, Revision A.03,
 M. J. Frisch, G. W. Trucks, H. B. Schlegel, G. E. Scuseria, 
 M. A. Robb, J. R. Cheeseman, G. Scalmani, V. Barone, 
 G. A. Petersson, H. Nakatsuji, X. Li, M. Caricato, A. V. Marenich, 
 J. Bloino, B. G. Janesko, R. Gomperts, B. Mennucci, H. P. Hratchian, 
 J. V. Ortiz, A. F. Izmaylov, J. L. Sonnenberg, D. Williams-Young, 
 F. Ding, F. Lipparini, F. Egidi, J. Goings, B. Peng, A. Petrone, 
 T. Henderson, D. Ranasinghe, V. G. Zakrzewski, J. Gao, N. Rega, 
 G. Zheng, W. Liang, M. Hada, M. Ehara, K. Toyota, R. Fukuda, 
 J. Hasegawa, M. Ishida, T. Nakajima, Y. Honda, O. Kitao, H. Nakai, 
 T. Vreven, K. Throssell, J. A. Montgomery, Jr., J. E. Peralta, 
 F. Ogliaro, M. J. Bearpark, J. J. Heyd, E. N. Brothers, K. N. Kudin, 
 V. N. Staroverov, T. A. Keith, R. Kobayashi, J. Normand, 
 K. Raghavachari, A. P. Rendell, J. C. Burant, S. S. Iyengar, 
 J. Tomasi, M. Cossi, J. M. Millam, M. Klene, C. Adamo, R. Cammi, 
 J. W. Ochterski, R. L. Martin, K. Morokuma, O. Farkas, 
 J. B. Foresman, and D. J. Fox, Gaussian, Inc., Wallingford CT, 2016.
 
 ******************************************
 Gaussian 16:  ES64L-G16RevA.03 25-Dec-2016
                18-Apr-2021 
 ******************************************
 %RWF=temp11_87492,70GB
 %nprocshared=48
 Will use up to   48 processors via shared memory.
 Default route: MaxDisk=80GB
 ----------------------------------------------------------------------
 #P M062X/GEN Integral=UltraFineGrid SCF=NoSymm Stable=(RExt, Opt) IOp(
 1/33=1)
 ----------------------------------------------------------------------
 1/33=1,38=1,172=1/1;
 2/12=2,17=6,18=5,40=1/2;
 3/5=7,11=2,25=1,30=1,74=-55,75=-5/1,2,3;
 4/9=2/1;
 5/5=2,38=5/2;
 6/7=2,8=2,9=2,10=2,28=1/1;
 8/6=1,10=90,11=11/1;
 9/8=-3,42=1,46=1/14;
 5/5=2,8=3,17=40,38=5/8(-2);
 6/7=2,8=2,9=2,10=2,28=1/1;
 99/5=1,9=1/99;
 Leave Link    1 at Sun Apr 18 01:32:44 2021, MaxMem=           0 cpu:              11.3 elap:               0.3
 (Enter /s/ls4/users/knvvv/bin/g16sse/l101.exe)
 ONIOM data not found on unit 2.
 ----------------------
 Database calculations.
 ----------------------
 TstMul:  ICh=     0
 TstMul:  Mul=     1
 TstMul:  ICh=     0
 TstMul:  Mul=     1
 Symbolic Z-matrix:
 Charge =  0 Multiplicity = 1
 N                     1.3769    0.83975   0.73462 
 H                     1.05181   1.38622   1.52336 
 C                     1.30898   1.45753  -0.52065 
 O                     0.92056   2.61108  -0.62598 
 N                     2.01142  -1.21321  -0.09807 
 H                     1.72729   0.99084  -2.612 
 C                     2.02574  -0.69717  -1.3644 
 H                     2.29752  -1.39106  -2.14565 
 C                     1.71451   0.59194  -1.61249 
 H                     2.12945  -2.20152   0.05683 
 C                     1.64595  -0.48521   1.01872 
 O                     1.56112  -0.97182   2.12981 
 N                    -1.35546  -0.83605   0.73462 
 H                    -1.03037  -1.38252   1.52336 
 C                    -1.28754  -1.45383  -0.52065 
 O                    -0.89912  -2.60738  -0.62598 
 N                    -1.98998   1.21691  -0.09807 
 H                    -1.70585  -0.98714  -2.612 
 C                    -2.0043    0.70087  -1.3644 
 H                    -2.27608   1.39476  -2.14565 
 C                    -1.69307  -0.58824  -1.61249 
 H                    -2.10801   2.20522   0.05683 
 C                    -1.6245    0.48891   1.01872 
 O                    -1.53968   0.97552   2.12981 
 
 RdStrC is calling ZToCFu for IStruc=1 NZ=    24.
 PrtBox:  NBox=     4 Levels=  1 BoxLen=    8.00 SMaxX=        9.86
          Shift=            4.301162            4.927227            4.935956
 Box      1 Number                   0 centers from      1 to     16:
 Box      2 Number                   1 centers from     17 to     18:
 Box      3 Number                   2 centers from     19 to     20:
 Box      4 Number                   4 centers from     21 to     24:
 After GenITR:
 ITRead=  0  0  0  0  0  0  0  0  0  0  0  0  0  0  0  0  0  0  0  0
 ITRead=  0  0  0  0
 MicOpt= -1 -1 -1 -1 -1 -1 -1 -1 -1 -1 -1 -1 -1 -1 -1 -1 -1 -1 -1 -1
 MicOpt= -1 -1 -1 -1
 ITRead=  0  0  0  0  0  0  0  0  0  0  0  0  0  0  0  0  0  0  0  0
 ITRead=  0  0  0  0
 MicOpt= -1 -1 -1 -1 -1 -1 -1 -1 -1 -1 -1 -1 -1 -1 -1 -1 -1 -1 -1 -1
 MicOpt= -1 -1 -1 -1
 NAtoms=     24 NQM=       24 NQMF=       0 NMMI=      0 NMMIF=      0
                NMic=       0 NMicF=      0.
                    Isotopes and Nuclear Properties:
 (Nuclear quadrupole moments (NQMom) in fm**2, nuclear magnetic moments (NMagM)
  in nuclear magnetons)

  Atom         1           2           3           4           5           6           7           8           9          10
 IAtWgt=          14           1          12          16          14           1          12           1          12           1
 AtmWgt=  14.0030740   1.0078250  12.0000000  15.9949146  14.0030740   1.0078250  12.0000000   1.0078250  12.0000000   1.0078250
 NucSpn=           2           1           0           0           2           1           0           1           0           1
 AtZEff=  -0.0000000  -0.0000000  -0.0000000  -0.0000000  -0.0000000  -0.0000000  -0.0000000  -0.0000000  -0.0000000  -0.0000000
 NQMom=    2.0440000   0.0000000   0.0000000   0.0000000   2.0440000   0.0000000   0.0000000   0.0000000   0.0000000   0.0000000
 NMagM=    0.4037610   2.7928460   0.0000000   0.0000000   0.4037610   2.7928460   0.0000000   2.7928460   0.0000000   2.7928460
 AtZNuc=   7.0000000   1.0000000   6.0000000   8.0000000   7.0000000   1.0000000   6.0000000   1.0000000   6.0000000   1.0000000

  Atom        11          12          13          14          15          16          17          18          19          20
 IAtWgt=          12          16          14           1          12          16          14           1          12           1
 AtmWgt=  12.0000000  15.9949146  14.0030740   1.0078250  12.0000000  15.9949146  14.0030740   1.0078250  12.0000000   1.0078250
 NucSpn=           0           0           2           1           0           0           2           1           0           1
 AtZEff=  -0.0000000  -0.0000000  -0.0000000  -0.0000000  -0.0000000  -0.0000000  -0.0000000  -0.0000000  -0.0000000  -0.0000000
 NQMom=    0.0000000   0.0000000   2.0440000   0.0000000   0.0000000   0.0000000   2.0440000   0.0000000   0.0000000   0.0000000
 NMagM=    0.0000000   0.0000000   0.4037610   2.7928460   0.0000000   0.0000000   0.4037610   2.7928460   0.0000000   2.7928460
 AtZNuc=   6.0000000   8.0000000   7.0000000   1.0000000   6.0000000   8.0000000   7.0000000   1.0000000   6.0000000   1.0000000

  Atom        21          22          23          24
 IAtWgt=          12           1          12          16
 AtmWgt=  12.0000000   1.0078250  12.0000000  15.9949146
 NucSpn=           0           1           0           0
 AtZEff=  -0.0000000  -0.0000000  -0.0000000  -0.0000000
 NQMom=    0.0000000   0.0000000   0.0000000   0.0000000
 NMagM=    0.0000000   2.7928460   0.0000000   0.0000000
 AtZNuc=   6.0000000   1.0000000   6.0000000   8.0000000
 No MM parameters found.
 Leave Link  101 at Sun Apr 18 01:32:44 2021, MaxMem=   104857600 cpu:               7.9 elap:               0.2
 (Enter /s/ls4/users/knvvv/bin/g16sse/l202.exe)
                          Input orientation:                          
 ---------------------------------------------------------------------
 Center     Atomic      Atomic             Coordinates (Angstroms)
 Number     Number       Type             X           Y           Z
 ---------------------------------------------------------------------
      1          7           0        1.376901    0.839747    0.734625
      2          1           0        1.051812    1.386224    1.523356
      3          6           0        1.308983    1.457530   -0.520655
      4          8           0        0.920561    2.611078   -0.625977
      5          7           0        2.011423   -1.213208   -0.098072
      6          1           0        1.727286    0.990843   -2.611996
      7          6           0        2.025737   -0.697171   -1.364397
      8          1           0        2.297517   -1.391060   -2.145645
      9          6           0        1.714512    0.591938   -1.612487
     10          1           0        2.129454   -2.201521    0.056829
     11          6           0        1.645945   -0.485206    1.018718
     12          8           0        1.561116   -0.971816    2.129809
     13          7           0       -1.355461   -0.836046    0.734625
     14          1           0       -1.030372   -1.382522    1.523356
     15          6           0       -1.287542   -1.453828   -0.520655
     16          8           0       -0.899121   -2.607376   -0.625977
     17          7           0       -1.989983    1.216910   -0.098072
     18          1           0       -1.705845   -0.987141   -2.611996
     19          6           0       -2.004297    0.700873   -1.364397
     20          1           0       -2.276077    1.394762   -2.145645
     21          6           0       -1.693072   -0.588236   -1.612487
     22          1           0       -2.108014    2.205222    0.056829
     23          6           0       -1.624505    0.488908    1.018718
     24          8           0       -1.539676    0.975518    2.129809
 ---------------------------------------------------------------------
                    Distance matrix (angstroms):
                    1          2          3          4          5
     1  N    0.000000
     2  H    1.013122   0.000000
     3  C    1.400713   2.061359   0.000000
     4  O    2.279714   2.477322   1.221735   0.000000
     5  N    2.304480   3.210440   2.793715   4.011711   0.000000
     6  H    3.368303   4.208767   2.183227   2.687050   3.355352
     7  C    2.681231   3.691637   2.422473   3.565276   1.367509
     8  H    3.757658   4.767248   3.425238   4.496944   2.075100
     9  C    2.384183   3.302056   1.451138   2.383377   2.374903
    10  H    3.205473   4.022925   3.794116   5.008867   1.007317
    11  C    1.381519   2.027289   2.501487   3.580248   1.382310
    12  O    2.293957   2.487475   3.604199   4.565282   2.285716
    13  N    3.205321   3.369799   3.733025   4.349043   3.488774
    14  H    3.369799   3.464311   4.209092   4.937065   3.451117
    15  C    3.733025   4.209092   3.901019   4.627124   3.334614
    16  O    4.349043   4.937065   4.627124   5.526618   3.270115
    17  N    3.488774   3.451117   3.334614   3.270115   4.681530
    18  H    4.903133   5.508055   4.409003   4.877444   4.493217
    19  C    3.982170   4.260120   3.501750   3.570566   4.625288
    20  H    4.684895   4.953432   3.936646   3.742634   5.420029
    21  C    4.119807   4.611550   3.793361   4.247340   4.050596
    22  H    3.803756   3.578542   3.545194   3.131008   5.355317
    23  C    3.035166   2.867492   3.451557   3.699458   4.167060
    24  O    3.235953   2.693005   3.920733   4.040072   4.729088
                    6          7          8          9         10
     6  H    0.000000
     7  C    2.120133   0.000000
     8  H    2.493212   1.079673   0.000000
     9  C    1.076246   1.349152   2.134580   0.000000
    10  H    4.180377   2.072127   2.352868   3.280580   0.000000
    11  C    3.920130   2.422480   3.355341   2.843973   2.026018
    12  O    5.134623   3.535644   4.358619   4.058773   2.476374
    13  N    4.903133   3.982170   4.684895   4.119807   3.803756
    14  H    5.508055   4.260120   4.953432   4.611550   3.578542
    15  C    4.409003   3.501750   3.936646   3.793361   3.545194
    16  O    4.877444   3.570566   3.742634   4.247340   3.131008
    17  N    4.493217   4.625288   5.420029   4.050596   5.355317
    18  H    3.962172   3.945287   4.050622   3.897609   4.827718
    19  C    3.945287   4.265641   4.846868   3.728667   5.247063
    20  H    4.050622   4.846868   5.355237   4.105312   6.098594
    21  C    3.897609   3.728667   4.105312   3.606167   4.472249
    22  H    4.827718   5.247063   6.098594   4.472249   6.113552
    23  C    4.966741   4.517775   5.378636   4.252399   4.717610
    24  O    5.758297   5.264934   6.213232   4.974098   5.277626
                   11         12         13         14         15
    11  C    0.000000
    12  O    1.215939   0.000000
    13  N    3.035166   3.235953   0.000000
    14  H    2.867492   2.693005   1.013122   0.000000
    15  C    3.451557   3.920733   1.400713   2.061359   0.000000
    16  O    3.699458   4.040072   2.279714   2.477322   1.221735
    17  N    4.167060   4.729088   2.304480   3.210440   2.793715
    18  H    4.966741   5.758297   3.368303   4.208767   2.183227
    19  C    4.517775   5.264934   2.681231   3.691637   2.422473
    20  H    5.378636   6.213232   3.757658   4.767248   3.425238
    21  C    4.252399   4.974098   2.384183   3.302056   1.451138
    22  H    4.717610   5.277626   3.205473   4.022925   3.794116
    23  C    3.412439   3.676468   1.381519   2.027289   2.501487
    24  O    3.676468   3.661560   2.293957   2.487475   3.604199
                   16         17         18         19         20
    16  O    0.000000
    17  N    4.011711   0.000000
    18  H    2.687050   3.355352   0.000000
    19  C    3.565276   1.367509   2.120133   0.000000
    20  H    4.496944   2.075100   2.493212   1.079673   0.000000
    21  C    2.383377   2.374903   1.076246   1.349152   2.134580
    22  H    5.008867   1.007317   4.180377   2.072127   2.352868
    23  C    3.580248   1.382310   3.920130   2.422480   3.355341
    24  O    4.565282   2.285716   5.134623   3.535644   4.358619
                   21         22         23         24
    21  C    0.000000
    22  H    3.280580   0.000000
    23  C    2.843973   2.026018   0.000000
    24  O    4.058773   2.476374   1.215939   0.000000
 Stoichiometry    C8H8N4O4
 Framework group  C2[X(C8H8N4O4)]
 Deg. of freedom    34
 Full point group                 C2      NOp   2
 Largest Abelian subgroup         C2      NOp   2
 Largest concise Abelian subgroup C2      NOp   2
                         Standard orientation:                         
 ---------------------------------------------------------------------
 Center     Atomic      Atomic             Coordinates (Angstroms)
 Number     Number       Type             X           Y           Z
 ---------------------------------------------------------------------
      1          7           0       -0.900519    1.325740    0.761588
      2          1           0       -1.431287    0.975591    1.550319
      3          6           0       -1.514475    1.229168   -0.493692
      4          8           0       -2.648713    0.787526   -0.599014
      5          7           0        1.120710    2.055040   -0.071109
      6          1           0       -1.067744    1.668719   -2.585033
      7          6           0        0.604566    2.045342   -1.337434
      8          1           0        1.285066    2.349095   -2.118682
      9          6           0       -0.668677    1.674510   -1.585524
     10          1           0        2.102465    2.218901    0.083792
     11          6           0        0.410490    1.656105    1.045681
     12          8           0        0.900519    1.593995    2.156772
     13          7           0        0.900519   -1.325740    0.761588
     14          1           0        1.431287   -0.975591    1.550319
     15          6           0        1.514475   -1.229168   -0.493692
     16          8           0        2.648713   -0.787526   -0.599014
     17          7           0       -1.120710   -2.055040   -0.071109
     18          1           0        1.067744   -1.668719   -2.585033
     19          6           0       -0.604566   -2.045342   -1.337434
     20          1           0       -1.285066   -2.349095   -2.118682
     21          6           0        0.668677   -1.674510   -1.585524
     22          1           0       -2.102465   -2.218901    0.083792
     23          6           0       -0.410490   -1.656105    1.045681
     24          8           0       -0.900519   -1.593995    2.156772
 ---------------------------------------------------------------------
 Rotational constants (GHZ):           0.6788021           0.5575333           0.5196707
 Leave Link  202 at Sun Apr 18 01:32:44 2021, MaxMem=   104857600 cpu:               7.1 elap:               0.2
 (Enter /s/ls4/users/knvvv/bin/g16sse/l301.exe)
 General basis read from cards:  (5D, 7F)
 Centers:       2      6      8     10     14     18     20     22
 S 4 1.00
     Exponent=  1.9069169000D+02 Coefficients=  7.0815167000D-04
     Exponent=  2.8605532000D+01 Coefficients=  5.4678827000D-03
     Exponent=  6.5095943000D+00 Coefficients=  2.7966605000D-02
     Exponent=  1.8412455000D+00 Coefficients=  1.0764538000D-01
 S 1 1.00
     Exponent=  5.9853725000D-01 Coefficients=  1.0000000000D+00
 S 1 1.00
     Exponent=  2.1397624000D-01 Coefficients=  1.0000000000D+00
 S 1 1.00
     Exponent=  8.0316286000D-02 Coefficients=  1.0000000000D+00
 P 1 1.00
     Exponent=  2.2920000000D+00 Coefficients=  1.0000000000D+00
 P 1 1.00
     Exponent=  8.3800000000D-01 Coefficients=  1.0000000000D+00
 P 1 1.00
     Exponent=  2.9200000000D-01 Coefficients=  1.0000000000D+00
 P 1 1.00
     Exponent=  8.4063199228D-02 Coefficients=  1.0000000000D+00
 D 1 1.00
     Exponent=  2.0620000000D+00 Coefficients=  1.0000000000D+00
 D 1 1.00
     Exponent=  6.6200000000D-01 Coefficients=  1.0000000000D+00
 F 1 1.00
     Exponent=  1.3970000000D+00 Coefficients=  1.0000000000D+00
 ****
 Centers:       3      7      9     11     15     19     21     23
 S 8 1.00
     Exponent=  6.7025071029D+04 Coefficients=  3.8736308501D-05
     Exponent=  1.0039986538D+04 Coefficients=  3.0107917575D-04
     Exponent=  2.2849316911D+03 Coefficients=  1.5787918095D-03
     Exponent=  6.4714122130D+02 Coefficients=  6.6087087195D-03
     Exponent=  2.1109472335D+02 Coefficients=  2.3367123250D-02
     Exponent=  7.6177643862D+01 Coefficients=  7.0420716898D-02
     Exponent=  2.9633839163D+01 Coefficients=  1.7360344953D-01
     Exponent=  1.2187785081D+01 Coefficients=  3.2292305648D-01
 S 2 1.00
     Exponent=  5.3026006299D+01 Coefficients=  7.4897404492D-02
     Exponent=  1.5258502776D+01 Coefficients=  7.6136220983D-01
 S 1 1.00
     Exponent=  5.2403957464D+00 Coefficients=  1.0000000000D+00
 S 1 1.00
     Exponent=  2.2905022379D+00 Coefficients=  1.0000000000D+00
 S 1 1.00
     Exponent=  6.9673283006D-01 Coefficients=  1.0000000000D+00
 S 1 1.00
     Exponent=  2.7599337363D-01 Coefficients=  1.0000000000D+00
 S 1 1.00
     Exponent=  1.0739884389D-01 Coefficients=  1.0000000000D+00
 S 1 1.00
     Exponent=  4.4981404899D-02 Coefficients=  1.0000000000D+00
 P 5 1.00
     Exponent=  1.0512555082D+02 Coefficients=  8.4647553844D-04
     Exponent=  2.4884461066D+01 Coefficients=  6.6274038534D-03
     Exponent=  7.8637230826D+00 Coefficients=  3.0120390419D-02
     Exponent=  2.8407001835D+00 Coefficients=  9.9951435476D-02
     Exponent=  1.1227137335D+00 Coefficients=  2.3826299282D-01
 P 1 1.00
     Exponent=  4.6050725555D-01 Coefficients=  1.0000000000D+00
 P 1 1.00
     Exponent=  1.8937530913D-01 Coefficients=  1.0000000000D+00
 P 1 1.00
     Exponent=  7.5983791611D-02 Coefficients=  1.0000000000D+00
 D 1 1.00
     Exponent=  1.8480000000D+00 Coefficients=  1.0000000000D+00
 D 1 1.00
     Exponent=  6.4900000000D-01 Coefficients=  1.0000000000D+00
 D 1 1.00
     Exponent=  2.2800000000D-01 Coefficients=  1.0000000000D+00
 D 1 1.00
     Exponent=  7.6889830417D-02 Coefficients=  1.0000000000D+00
 F 1 1.00
     Exponent=  1.4190000000D+00 Coefficients=  1.0000000000D+00
 F 1 1.00
     Exponent=  4.8500000000D-01 Coefficients=  1.0000000000D+00
 G 1 1.00
     Exponent=  1.0110000000D+00 Coefficients=  1.0000000000D+00
 ****
 Centers:       1      5     13     17
 S 8 1.00
     Exponent=  9.0726889210D+04 Coefficients=  3.9257887368D-05
     Exponent=  1.3590528801D+04 Coefficients=  3.0513316455D-04
     Exponent=  3.0929883781D+03 Coefficients=  1.6000560446D-03
     Exponent=  8.7599876362D+02 Coefficients=  6.6982937306D-03
     Exponent=  2.8574469982D+02 Coefficients=  2.3690078765D-02
     Exponent=  1.0311913417D+02 Coefficients=  7.1455405268D-02
     Exponent=  4.0128556777D+01 Coefficients=  1.7632774876D-01
     Exponent=  1.6528095704D+01 Coefficients=  3.2677592815D-01
 S 2 1.00
     Exponent=  6.9390960983D+01 Coefficients=  8.0052094386D-02
     Exponent=  2.0428200596D+01 Coefficients=  7.8268063538D-01
 S 1 1.00
     Exponent=  7.1292587972D+00 Coefficients=  1.0000000000D+00
 S 1 1.00
     Exponent=  3.1324304893D+00 Coefficients=  1.0000000000D+00
 S 1 1.00
     Exponent=  9.8755778723D-01 Coefficients=  1.0000000000D+00
 S 1 1.00
     Exponent=  3.8765721307D-01 Coefficients=  1.0000000000D+00
 S 1 1.00
     Exponent=  1.4909883075D-01 Coefficients=  1.0000000000D+00
 S 1 1.00
     Exponent=  6.2151630318D-02 Coefficients=  1.0000000000D+00
 P 5 1.00
     Exponent=  1.5005742670D+02 Coefficients= -8.6216165986D-04
     Exponent=  3.5491599483D+01 Coefficients= -6.8571273236D-03
     Exponent=  1.1247864223D+01 Coefficients= -3.1795688855D-02
     Exponent=  4.0900305195D+00 Coefficients= -1.0537396822D-01
     Exponent=  1.6220573146D+00 Coefficients= -2.4519708041D-01
 P 1 1.00
     Exponent=  6.6442261530D-01 Coefficients=  1.0000000000D+00
 P 1 1.00
     Exponent=  2.7099770070D-01 Coefficients=  1.0000000000D+00
 P 1 1.00
     Exponent=  1.0688749984D-01 Coefficients=  1.0000000000D+00
 D 1 1.00
     Exponent=  2.8370000000D+00 Coefficients=  1.0000000000D+00
 D 1 1.00
     Exponent=  9.6800000000D-01 Coefficients=  1.0000000000D+00
 D 1 1.00
     Exponent=  3.3500000000D-01 Coefficients=  1.0000000000D+00
 D 1 1.00
     Exponent=  1.0825280010D-01 Coefficients=  1.0000000000D+00
 F 1 1.00
     Exponent=  2.0270000000D+00 Coefficients=  1.0000000000D+00
 F 1 1.00
     Exponent=  6.8500000000D-01 Coefficients=  1.0000000000D+00
 G 1 1.00
     Exponent=  1.4270000000D+00 Coefficients=  1.0000000000D+00
 ****
 Centers:       4     12     16     24
 S 8 1.00
     Exponent=  1.1650646908D+05 Coefficients=  4.0383857939D-05
     Exponent=  1.7504349724D+04 Coefficients=  3.1255139004D-04
     Exponent=  3.9934513230D+03 Coefficients=  1.6341473495D-03
     Exponent=  1.1330063186D+03 Coefficients=  6.8283224757D-03
     Exponent=  3.6999569594D+02 Coefficients=  2.4124410221D-02
     Exponent=  1.3362074349D+02 Coefficients=  7.2730206154D-02
     Exponent=  5.2035643649D+01 Coefficients=  1.7934429892D-01
     Exponent=  2.1461939313D+01 Coefficients=  3.3059588895D-01
 S 2 1.00
     Exponent=  8.9835051252D+01 Coefficients=  9.6468652996D-02
     Exponent=  2.6428010844D+01 Coefficients=  9.4117481120D-01
 S 1 1.00
     Exponent=  9.2822824649D+00 Coefficients=  1.0000000000D+00
 S 1 1.00
     Exponent=  4.0947728533D+00 Coefficients=  1.0000000000D+00
 S 1 1.00
     Exponent=  1.3255349078D+00 Coefficients=  1.0000000000D+00
 S 1 1.00
     Exponent=  5.1877230787D-01 Coefficients=  1.0000000000D+00
 S 1 1.00
     Exponent=  1.9772676454D-01 Coefficients=  1.0000000000D+00
 S 1 1.00
     Exponent=  6.9638535104D-02 Coefficients=  1.0000000000D+00
 P 5 1.00
     Exponent=  1.9115255810D+02 Coefficients=  2.5115697705D-03
     Exponent=  4.5233356739D+01 Coefficients=  2.0039240864D-02
     Exponent=  1.4353465922D+01 Coefficients=  9.3609064762D-02
     Exponent=  5.2422371832D+00 Coefficients=  3.0618127124D-01
     Exponent=  2.0792418599D+00 Coefficients=  6.7810501439D-01
 P 1 1.00
     Exponent=  8.4282371424D-01 Coefficients=  1.0000000000D+00
 P 1 1.00
     Exponent=  3.3617694891D-01 Coefficients=  1.0000000000D+00
 P 1 1.00
     Exponent=  1.2863997974D-01 Coefficients=  1.0000000000D+00
 P 1 1.00
     Exponent=  4.3598162776D-02 Coefficients=  1.0000000000D+00
 D 1 1.00
     Exponent=  3.7750000000D+00 Coefficients=  1.0000000000D+00
 D 1 1.00
     Exponent=  1.3000000000D+00 Coefficients=  1.0000000000D+00
 D 1 1.00
     Exponent=  4.4400000000D-01 Coefficients=  1.0000000000D+00
 D 1 1.00
     Exponent=  1.2546378695D-01 Coefficients=  1.0000000000D+00
 F 1 1.00
     Exponent=  2.6660000000D+00 Coefficients=  1.0000000000D+00
 F 1 1.00
     Exponent=  8.5900000000D-01 Coefficients=  1.0000000000D+00
 G 1 1.00
     Exponent=  1.8460000000D+00 Coefficients=  1.0000000000D+00
 ****
 Ernie: Thresh=  0.10000D-02 Tol=  0.10000D-05 Strict=F.
 There are   790 symmetry adapted cartesian basis functions of A   symmetry.
 There are   790 symmetry adapted cartesian basis functions of B   symmetry.
 There are   642 symmetry adapted basis functions of A   symmetry.
 There are   642 symmetry adapted basis functions of B   symmetry.
  1284 basis functions,  1924 primitive gaussians,  1580 cartesian basis functions
    58 alpha electrons       58 beta electrons
       nuclear repulsion energy      1163.5457340254 Hartrees.
 IExCor= 4336 DFT=T Ex+Corr=M062X ExCW=0 ScaHFX=  0.540000
 ScaDFX=  1.000000  1.000000  1.000000  1.000000 ScalE2=  1.000000  1.000000
 IRadAn=      5 IRanWt=     -1 IRanGd=            0 ICorTp=0 IEmpDi=  4
 NAtoms=   24 NActive=   24 NUniq=   12 SFac= 4.00D+00 NAtFMM=   60 NAOKFM=F Big=F
 Integral buffers will be    131072 words long.
 Raffenetti 2 integral format.
 Two-electron integral symmetry is turned on.
 Leave Link  301 at Sun Apr 18 01:32:45 2021, MaxMem=   104857600 cpu:              13.8 elap:               0.3
 (Enter /s/ls4/users/knvvv/bin/g16sse/l302.exe)
 NPDir=0 NMtPBC=     1 NCelOv=     1 NCel=       1 NClECP=     1 NCelD=      1
         NCelK=      1 NCelE2=     1 NClLst=     1 CellRange=     0.0.
 One-electron integrals computed using PRISM.
 One-electron integral symmetry used in STVInt
 PrsmSu:  requested number of processors reduced to:   3 ShMem   1 Linda.
 PrsmSu:  requested number of processors reduced to:  14 ShMem   1 Linda.
 NBasis=  1284 RedAO= T EigKep=  1.03D-06  NBF=   642   642
 NBsUse=  1279 1.00D-06 EigRej=  9.05D-07 NBFU=   640   639
 Precomputing XC quadrature grid using
 IXCGrd= 4 IRadAn=           5 IRanWt=          -1 IRanGd=           0 AccXCQ= 0.00D+00.
 Generated NRdTot=       0 NPtTot=           0 NUsed=           0 NTot=          32
 NSgBfM=  1556  1556  1556  1556  1556 MxSgAt=    24 MxSgA2=    24.
 Leave Link  302 at Sun Apr 18 01:33:35 2021, MaxMem=   104857600 cpu:            2367.9 elap:              50.6
 (Enter /s/ls4/users/knvvv/bin/g16sse/l303.exe)
 DipDrv:  MaxL=1.
 Leave Link  303 at Sun Apr 18 01:34:03 2021, MaxMem=   104857600 cpu:            1287.4 elap:              27.5
 (Enter /s/ls4/users/knvvv/bin/g16sse/l401.exe)
 SCF N**3 symmetry information disabled.
 ExpMin= 4.36D-02 ExpMax= 1.17D+05 ExpMxC= 1.13D+03 IAcc=3 IRadAn=         5 AccDes= 0.00D+00
 Harris functional with IExCor= 1009 and IRadAn=       5 diagonalized for initial guess.
 HarFok:  IExCor= 1009 AccDes= 0.00D+00 IRadAn=         5 IDoV= 1 UseB2=F ITyADJ=14
 ICtDFT=  3500011 ScaDFX=  1.000000  1.000000  1.000000  1.000000
 CalDSu:  requested number of processors reduced to:  27 ShMem   1 Linda.
 FoFCou: FMM=F IPFlag=           0 FMFlag=      100000 FMFlg1=           0
         NFxFlg=           0 DoJE=T BraDBF=F KetDBF=T FulRan=T
         wScrn=  0.000000 ICntrl=       500 IOpCl=  0 I1Cent=   200000004 NGrid=           0
         NMat0=    1 NMatS0=      1 NMatT0=    0 NMatD0=    1 NMtDS0=    0 NMtDT0=    0
 Petite list used in FoFCou.
 CoulSu:  requested number of processors reduced to:  10 ShMem   1 Linda.
 CoulSu:  requested number of processors reduced to:  12 ShMem   1 Linda.
 CoulSu:  requested number of processors reduced to:  20 ShMem   1 Linda.
 CoulSu:  requested number of processors reduced to:  20 ShMem   1 Linda.
 Harris En= -829.306898119723    
 JPrj=0 DoOrth=F DoCkMO=F.
 Initial guess orbital symmetries:
       Occupied  (B) (A) (B) (A) (A) (B) (A) (B) (B) (A) (B) (A)
                 (B) (A) (B) (A) (A) (B) (B) (A) (A) (B) (A) (B)
                 (A) (B) (B) (A) (B) (A) (A) (B) (A) (B) (A) (B)
                 (A) (B) (A) (B) (A) (B) (A) (B) (A) (B) (B) (A)
                 (A) (B) (A) (B) (A) (B) (A) (B) (A) (B)
       Virtual   (B) (A) (B) (A) (A) (B) (A) (B) (A) (B) (A) (B)
                 (B) (A) (A) (B) (A) (B) (A) (A) (B) (A) (B) (B)
                 (A) (A) (B) (A) (B) (A) (B) (A) (B) (B) (A) (B)
                 (A) (B) (A) (A) (B) (A) (B) (A) (B) (A) (A) (B)
                 (B) (A) (B) (B) (B) (A) (A) (B) (A) (A) (B) (A)
                 (A) (B) (B) (B) (A) (A) (B) (A) (B) (B) (A) (B)
                 (A) (B) (A) (A) (B) (A) (B) (A) (B) (A) (A) (B)
                 (A) (B) (A) (B) (A) (B) (A) (B) (A) (B) (B) (A)
                 (A) (B) (A) (B) (A) (B) (B) (A) (B) (A) (A) (B)
                 (A) (B) (A) (A) (B) (B) (A) (B) (A) (B) (A) (B)
                 (B) (A) (B) (A) (B) (A) (A) (B) (A) (B) (A) (B)
                 (B) (A) (B) (A) (B) (B) (A) (A) (B) (A) (B) (A)
                 (B) (A) (A) (B) (A) (B) (A) (A) (B) (B) (B) (A)
                 (B) (A) (A) (B) (A) (B) (B) (A) (A) (B) (B) (A)
                 (B) (A) (B) (A) (B) (A) (A) (B) (B) (A) (B) (A)
                 (B) (A) (B) (B) (A) (B) (A) (A) (B) (A) (A) (B)
                 (B) (A) (A) (B) (B) (A) (B) (A) (B) (A) (A) (B)
                 (A) (B) (B) (B) (A) (A) (A) (B) (B) (A) (A) (B)
                 (A) (B) (B) (A) (B) (B) (A) (B) (A) (B) (A) (B)
                 (B) (A) (A) (B) (B) (A) (A) (B) (A) (A) (B) (B)
                 (A) (A) (B) (A) (A) (B) (A) (B) (A) (B) (A) (B)
                 (B) (A) (B) (A) (B) (A) (B) (B) (A) (A) (B) (B)
                 (A) (A) (B) (A) (B) (A) (B) (A) (B) (A) (B) (A)
                 (B) (A) (A) (B) (B) (A) (A) (B) (B) (A) (B) (B)
                 (B) (A) (A) (A) (B) (B) (A) (A) (B) (A) (B) (B)
                 (A) (A) (B) (B) (A) (A) (B) (A) (B) (A) (A) (B)
                 (B) (A) (B) (A) (B) (A) (B) (A) (B) (A) (B) (A)
                 (B) (A) (B) (A) (B) (A) (A) (B) (A) (B) (A) (B)
                 (A) (B) (A) (B) (B) (A) (A) (B) (A) (B) (A) (B)
                 (B) (B) (A) (A) (B) (A) (B) (A) (B) (A) (A) (B)
                 (A) (B) (B) (A) (B) (A) (A) (B) (B) (A) (B) (A)
                 (A) (B) (B) (B) (A) (A) (B) (A) (B) (A) (B) (A)
                 (B) (A) (B) (A) (B) (B) (A) (B) (B) (A) (A) (B)
                 (A) (A) (B) (A) (B) (A) (A) (B) (B) (A) (A) (A)
                 (B) (B) (B) (A) (B) (A) (B) (A) (A) (B) (B) (A)
                 (B) (A) (A) (B) (B) (A) (A) (B) (B) (A) (B) (A)
                 (B) (A) (B) (A) (A) (B) (B) (A) (B) (A) (B) (A)
                 (B) (A) (B) (B) (A) (A) (B) (A) (B) (B) (A) (A)
                 (A) (B) (A) (B) (A) (B) (B) (A) (B) (A) (B) (A)
                 (B) (A) (A) (A) (B) (B) (A) (B) (A) (B) (A) (B)
                 (A) (B) (A) (B) (B) (A) (B) (A) (B) (A) (A) (B)
                 (A) (B) (A) (B) (B) (A) (B) (B) (A) (A) (A) (A)
                 (B) (B) (A) (B) (A) (B) (A) (B) (A) (B) (B) (A)
                 (B) (A) (B) (A) (B) (B) (A) (B) (A) (A) (B) (B)
                 (A) (B) (A) (B) (A) (B) (A) (A) (B) (B) (B) (A)
                 (B) (B) (A) (A) (A) (B) (B) (A) (A) (B) (A) (B)
                 (A) (B) (B) (A) (A) (B) (B) (A) (A) (B) (A) (B)
                 (A) (A) (A) (B) (B) (A) (A) (B) (A) (B) (A) (B)
                 (B) (A) (B) (A) (B) (A) (B) (A) (B) (A) (B) (A)
                 (B) (B) (A) (A) (B) (B) (A) (A) (B) (A) (B) (A)
                 (B) (A) (B) (A) (B) (A) (B) (A) (A) (B) (B) (A)
                 (B) (A) (B) (A) (B) (A) (B) (A) (B) (A) (B) (B)
                 (A) (A) (B) (A) (B) (A) (B) (A) (B) (A) (B) (A)
                 (B) (B) (A) (B) (A) (A) (B) (A) (B) (A) (B) (B)
                 (A) (B) (A) (B) (A) (B) (A) (B) (A) (A) (B) (A)
                 (B) (A) (B) (A) (B) (A) (B) (A) (B) (A) (B) (A)
                 (B) (A) (A) (B) (B) (B) (A) (B) (B) (A) (A) (B)
                 (A) (B) (B) (A) (A) (A) (B) (A) (B) (B) (A) (A)
                 (B) (A) (B) (A) (B) (A) (B) (A) (B) (A) (B) (A)
                 (B) (B) (A) (A) (B) (B) (A) (A) (A) (B) (B) (A)
                 (B) (A) (B) (A) (B) (B) (A) (B) (A) (A) (B) (A)
                 (B) (B) (A) (A) (B) (B) (A) (B) (A) (B) (A) (A)
                 (B) (A) (B) (A) (B) (A) (B) (B) (B) (A) (A) (A)
                 (B) (A) (A) (B) (B) (A) (B) (A) (B) (A) (B) (B)
                 (A) (A) (B) (B) (A) (A) (B) (A) (B) (B) (A) (A)
                 (B) (B) (A) (A) (B) (A) (B) (B) (A) (A) (B) (A)
                 (B) (A) (B) (B) (A) (A) (A) (B) (A) (B) (B) (B)
                 (A) (B) (A) (B) (A) (A) (B) (A) (B) (A) (B) (A)
                 (B) (A) (B) (A) (B) (A) (B) (B) (A) (B) (A) (A)
                 (B) (A) (B) (A) (B) (A) (B) (A) (A) (B) (B) (B)
                 (A) (B) (A) (A) (B) (B) (A) (B) (A) (A) (B) (A)
                 (B) (A) (B) (B) (A) (A) (B) (B) (A) (B) (A) (B)
                 (A) (A) (B) (A) (B) (B) (A) (A) (B) (A) (B) (A)
                 (B) (A) (B) (B) (A) (B) (A) (A) (B) (A) (B) (A)
                 (B) (A) (B) (A) (B) (B) (A) (A) (B) (B) (A) (A)
                 (B) (A) (A) (B) (B) (B) (A) (A) (B) (A) (B) (A)
                 (A) (B) (B) (A) (A) (B) (B) (A) (B) (A) (B) (A)
                 (B) (A) (B) (A) (B) (B) (A) (A) (B) (A) (B) (B)
                 (A) (A) (B) (B) (A) (A) (B) (A) (B) (B) (A) (B)
                 (A) (A) (A) (B) (A) (A) (B) (B) (B) (A) (B) (B)
                 (A) (B) (A) (A) (B) (A) (B) (A) (B) (B) (A) (A)
                 (B) (A) (B) (A) (B) (A) (B) (A) (B) (A) (B) (A)
                 (B) (B) (A) (B) (A) (A) (B) (A) (B) (B) (A) (B)
                 (A) (A) (B) (A) (B) (B) (A) (A) (B) (A) (B) (A)
                 (B) (A) (B) (A) (B) (B) (A) (A) (B) (A) (B) (A)
                 (B) (B) (A) (B) (A) (A) (B) (A) (B) (A) (B) (A)
                 (B) (A) (B) (A) (B) (A) (B) (B) (A) (B) (A) (A)
                 (B) (A) (B) (B) (A) (A) (B) (B) (A) (B) (A) (A)
                 (B) (B) (A) (B) (A) (A) (B) (A) (B) (A) (B) (A)
                 (B) (B) (A) (A) (B) (A) (B) (A) (B) (B) (A) (B)
                 (A) (A) (B) (A) (B) (B) (A) (A) (B) (B) (A) (A)
                 (B) (A) (B) (A) (B) (A) (B) (B) (A) (B) (A) (B)
                 (A) (A) (B) (B) (A) (A) (B) (A) (B) (A) (B) (A)
                 (B) (B) (A) (A) (B) (A) (B) (B) (A) (B) (A) (A)
                 (B) (A) (B) (B) (A) (A) (B) (A) (B) (B) (A) (A)
                 (A) (B) (B) (A) (B) (A) (B) (A) (B) (A) (B) (A)
                 (B) (A) (B) (A) (B) (B) (A) (A) (B) (A) (B) (B)
                 (A) (A) (B) (A) (B) (B) (A) (B) (A) (A) (B) (B)
                 (A) (A) (B) (B) (A) (A) (B) (A) (B) (B) (A) (A)
                 (B) (B) (A) (A) (B) (A) (B) (A) (B) (B) (A) (B)
                 (A) (B) (A) (B) (A) (B) (A) (A) (B) (A) (B) (A)
                 (B) (B) (A) (B) (A) (B) (A) (B) (A)
 The electronic state of the initial guess is 1-A.
 Leave Link  401 at Sun Apr 18 01:34:24 2021, MaxMem=   104857600 cpu:             852.9 elap:              21.0
 (Enter /s/ls4/users/knvvv/bin/g16sse/l502.exe)
 Integral symmetry usage will be decided dynamically.
 Closed shell SCF:
 Using DIIS extrapolation, IDIIS=  1040.
 NGot=   104857600 LenX=    99773672 LenY=    97275692
 Requested convergence on RMS density matrix=1.00D-08 within 128 cycles.
 Requested convergence on MAX density matrix=1.00D-06.
 Requested convergence on             energy=1.00D-06.
 No special actions if energy rises.
 Fock matrices will be formed incrementally for  20 cycles.

 Cycle   1  Pass 1  IDiag  1:
 FoFJK:  IHMeth= 1 ICntrl=       0 DoSepK=F KAlg= 0 I1Cent=           0 FoldK=F
 IRaf= 870000000 NMat=       1 IRICut=       1 DoRegI=T DoRafI=F ISym2E= 1 IDoP0=0 IntGTp=1.
 FoFCou: FMM=F IPFlag=           0 FMFlag=      100000 FMFlg1=           0
         NFxFlg=           0 DoJE=F BraDBF=F KetDBF=F FulRan=T
         wScrn=  0.000000 ICntrl=         0 IOpCl=  0 I1Cent=           0 NGrid=           0
         NMat0=    1 NMatS0=      1 NMatT0=    0 NMatD0=    1 NMtDS0=    0 NMtDT0=    0
 Petite list used in FoFCou.
 CoulSu:  requested number of processors reduced to:  13 ShMem   1 Linda.
 CalDSu:  requested number of processors reduced to:  27 ShMem   1 Linda.
 E= -829.255085541657    
 DIIS: error= 2.67D-02 at cycle   1 NSaved=   1.
 NSaved= 1 IEnMin= 1 EnMin= -829.255085541657     IErMin= 1 ErrMin= 2.67D-02
 ErrMax= 2.67D-02  0.00D+00 EMaxC= 1.00D-01 BMatC= 1.02D+00 BMatP= 1.02D+00
 IDIUse=3 WtCom= 7.33D-01 WtEn= 2.67D-01
 Coeff-Com:  0.100D+01
 Coeff-En:   0.100D+01
 Coeff:      0.100D+01
 Gap=     0.251 Goal=   None    Shift=    0.000
 GapD=    0.251 DampG=1.000 DampE=0.500 DampFc=0.5000 IDamp=-1.
 Damping current iteration by 5.00D-01
 RMSDP=2.63D-03 MaxDP=2.46D-01              OVMax= 2.58D-01

 Cycle   2  Pass 1  IDiag  1:
 RMSU=  1.14D-03    CP:  8.25D-01
 CoulSu:  requested number of processors reduced to:  13 ShMem   1 Linda.
 CalDSu:  requested number of processors reduced to:  27 ShMem   1 Linda.
 E= -829.433011021273     Delta-E=       -0.177925479615 Rises=F Damp=T
 DIIS: error= 1.53D-02 at cycle   2 NSaved=   2.
 NSaved= 2 IEnMin= 2 EnMin= -829.433011021273     IErMin= 2 ErrMin= 1.53D-02
 ErrMax= 1.53D-02  0.00D+00 EMaxC= 1.00D-01 BMatC= 1.71D-01 BMatP= 1.02D+00
 IDIUse=3 WtCom= 8.47D-01 WtEn= 1.53D-01
 Coeff-Com:  0.208D-01 0.979D+00
 Coeff-En:   0.216D+00 0.784D+00
 Coeff:      0.507D-01 0.949D+00
 Gap=     0.363 Goal=   None    Shift=    0.000
 RMSDP=1.39D-03 MaxDP=1.60D-01 DE=-1.78D-01 OVMax= 1.66D-01

 Cycle   3  Pass 1  IDiag  1:
 RMSU=  9.64D-04    CP:  6.19D-01  1.54D+00
 CoulSu:  requested number of processors reduced to:  13 ShMem   1 Linda.
 CalDSu:  requested number of processors reduced to:  27 ShMem   1 Linda.
 E= -829.668407668285     Delta-E=       -0.235396647012 Rises=F Damp=F
 DIIS: error= 5.63D-03 at cycle   3 NSaved=   3.
 NSaved= 3 IEnMin= 3 EnMin= -829.668407668285     IErMin= 3 ErrMin= 5.63D-03
 ErrMax= 5.63D-03  0.00D+00 EMaxC= 1.00D-01 BMatC= 9.26D-02 BMatP= 1.71D-01
 IDIUse=3 WtCom= 9.44D-01 WtEn= 5.63D-02
 Coeff-Com: -0.132D+00 0.467D+00 0.664D+00
 Coeff-En:   0.000D+00 0.000D+00 0.100D+01
 Coeff:     -0.124D+00 0.441D+00 0.683D+00
 Gap=     0.283 Goal=   None    Shift=    0.000
 RMSDP=3.88D-04 MaxDP=3.11D-02 DE=-2.35D-01 OVMax= 6.51D-02

 Cycle   4  Pass 1  IDiag  1:
 RMSU=  3.87D-04    CP:  6.21D-01  1.57D+00  9.96D-01
 CoulSu:  requested number of processors reduced to:  13 ShMem   1 Linda.
 CalDSu:  requested number of processors reduced to:  27 ShMem   1 Linda.
 E= -829.726109977155     Delta-E=       -0.057702308871 Rises=F Damp=F
 DIIS: error= 2.71D-03 at cycle   4 NSaved=   4.
 NSaved= 4 IEnMin= 4 EnMin= -829.726109977155     IErMin= 4 ErrMin= 2.71D-03
 ErrMax= 2.71D-03  0.00D+00 EMaxC= 1.00D-01 BMatC= 1.40D-02 BMatP= 9.26D-02
 IDIUse=3 WtCom= 9.73D-01 WtEn= 2.71D-02
 Coeff-Com: -0.562D-01 0.126D+00 0.352D+00 0.578D+00
 Coeff-En:   0.000D+00 0.000D+00 0.124D+00 0.876D+00
 Coeff:     -0.547D-01 0.123D+00 0.346D+00 0.586D+00
 Gap=     0.279 Goal=   None    Shift=    0.000
 RMSDP=1.31D-04 MaxDP=1.43D-02 DE=-5.77D-02 OVMax= 1.79D-02

 Cycle   5  Pass 1  IDiag  1:
 RMSU=  8.37D-05    CP:  6.17D-01  1.58D+00  9.80D-01  7.45D-01
 CoulSu:  requested number of processors reduced to:  13 ShMem   1 Linda.
 CalDSu:  requested number of processors reduced to:  27 ShMem   1 Linda.
 E= -829.737102397584     Delta-E=       -0.010992420429 Rises=F Damp=F
 DIIS: error= 3.91D-04 at cycle   5 NSaved=   5.
 NSaved= 5 IEnMin= 5 EnMin= -829.737102397584     IErMin= 5 ErrMin= 3.91D-04
 ErrMax= 3.91D-04  0.00D+00 EMaxC= 1.00D-01 BMatC= 1.96D-04 BMatP= 1.40D-02
 IDIUse=3 WtCom= 9.96D-01 WtEn= 3.91D-03
 Coeff-Com: -0.160D-01 0.324D-01 0.102D+00 0.208D+00 0.673D+00
 Coeff-En:   0.000D+00 0.000D+00 0.000D+00 0.000D+00 0.100D+01
 Coeff:     -0.160D-01 0.322D-01 0.102D+00 0.208D+00 0.674D+00
 Gap=     0.279 Goal=   None    Shift=    0.000
 RMSDP=2.73D-05 MaxDP=2.56D-03 DE=-1.10D-02 OVMax= 3.59D-03

 Cycle   6  Pass 1  IDiag  1:
 RMSU=  2.53D-05    CP:  6.17D-01  1.58D+00  9.72D-01  7.44D-01  1.09D+00
 CoulSu:  requested number of processors reduced to:  13 ShMem   1 Linda.
 CalDSu:  requested number of processors reduced to:  27 ShMem   1 Linda.
 E= -829.737258421330     Delta-E=       -0.000156023746 Rises=F Damp=F
 DIIS: error= 1.42D-04 at cycle   6 NSaved=   6.
 NSaved= 6 IEnMin= 6 EnMin= -829.737258421330     IErMin= 6 ErrMin= 1.42D-04
 ErrMax= 1.42D-04  0.00D+00 EMaxC= 1.00D-01 BMatC= 3.41D-05 BMatP= 1.96D-04
 IDIUse=3 WtCom= 9.99D-01 WtEn= 1.42D-03
 Coeff-Com: -0.431D-03-0.229D-03 0.369D-02 0.217D-01 0.301D+00 0.674D+00
 Coeff-En:   0.000D+00 0.000D+00 0.000D+00 0.000D+00 0.000D+00 0.100D+01
 Coeff:     -0.430D-03-0.229D-03 0.368D-02 0.217D-01 0.301D+00 0.674D+00
 Gap=     0.280 Goal=   None    Shift=    0.000
 RMSDP=1.30D-05 MaxDP=1.33D-03 DE=-1.56D-04 OVMax= 2.75D-03

 Cycle   7  Pass 1  IDiag  1:
 RMSU=  1.08D-05    CP:  6.17D-01  1.58D+00  9.71D-01  7.48D-01  1.16D+00
                    CP:  1.13D+00
 CoulSu:  requested number of processors reduced to:  13 ShMem   1 Linda.
 CalDSu:  requested number of processors reduced to:  27 ShMem   1 Linda.
 E= -829.737292485060     Delta-E=       -0.000034063730 Rises=F Damp=F
 DIIS: error= 4.61D-05 at cycle   7 NSaved=   7.
 NSaved= 7 IEnMin= 7 EnMin= -829.737292485060     IErMin= 7 ErrMin= 4.61D-05
 ErrMax= 4.61D-05  0.00D+00 EMaxC= 1.00D-01 BMatC= 5.42D-06 BMatP= 3.41D-05
 IDIUse=1 WtCom= 1.00D+00 WtEn= 0.00D+00
 Coeff-Com:  0.274D-02-0.595D-02-0.156D-01-0.293D-01 0.522D-02 0.285D+00
 Coeff-Com:  0.758D+00
 Coeff:      0.274D-02-0.595D-02-0.156D-01-0.293D-01 0.522D-02 0.285D+00
 Coeff:      0.758D+00
 Gap=     0.280 Goal=   None    Shift=    0.000
 RMSDP=5.69D-06 MaxDP=4.48D-04 DE=-3.41D-05 OVMax= 7.71D-04

 Cycle   8  Pass 1  IDiag  1:
 RMSU=  3.25D-06    CP:  6.17D-01  1.58D+00  9.71D-01  7.50D-01  1.19D+00
                    CP:  1.26D+00  1.18D+00
 CoulSu:  requested number of processors reduced to:  13 ShMem   1 Linda.
 CalDSu:  requested number of processors reduced to:  27 ShMem   1 Linda.
 E= -829.737298226809     Delta-E=       -0.000005741749 Rises=F Damp=F
 DIIS: error= 2.11D-05 at cycle   8 NSaved=   8.
 NSaved= 8 IEnMin= 8 EnMin= -829.737298226809     IErMin= 8 ErrMin= 2.11D-05
 ErrMax= 2.11D-05  0.00D+00 EMaxC= 1.00D-01 BMatC= 7.81D-07 BMatP= 5.42D-06
 IDIUse=1 WtCom= 1.00D+00 WtEn= 0.00D+00
 Coeff-Com:  0.118D-02-0.243D-02-0.577D-02-0.142D-01-0.343D-01 0.414D-01
 Coeff-Com:  0.306D+00 0.708D+00
 Coeff:      0.118D-02-0.243D-02-0.577D-02-0.142D-01-0.343D-01 0.414D-01
 Coeff:      0.306D+00 0.708D+00
 Gap=     0.280 Goal=   None    Shift=    0.000
 RMSDP=1.86D-06 MaxDP=1.17D-04 DE=-5.74D-06 OVMax= 2.87D-04

 Cycle   9  Pass 1  IDiag  1:
 RMSU=  1.58D-06    CP:  6.17D-01  1.58D+00  9.71D-01  7.50D-01  1.19D+00
                    CP:  1.28D+00  1.20D+00  1.24D+00
 CoulSu:  requested number of processors reduced to:  13 ShMem   1 Linda.
 CalDSu:  requested number of processors reduced to:  27 ShMem   1 Linda.
 E= -829.737299075209     Delta-E=       -0.000000848400 Rises=F Damp=F
 DIIS: error= 5.62D-06 at cycle   9 NSaved=   9.
 NSaved= 9 IEnMin= 9 EnMin= -829.737299075209     IErMin= 9 ErrMin= 5.62D-06
 ErrMax= 5.62D-06  0.00D+00 EMaxC= 1.00D-01 BMatC= 1.02D-07 BMatP= 7.81D-07
 IDIUse=1 WtCom= 1.00D+00 WtEn= 0.00D+00
 Coeff-Com:  0.478D-04-0.721D-04 0.445D-03-0.930D-03-0.134D-01-0.213D-01
 Coeff-Com: -0.312D-02 0.245D+00 0.794D+00
 Coeff:      0.478D-04-0.721D-04 0.445D-03-0.930D-03-0.134D-01-0.213D-01
 Coeff:     -0.312D-02 0.245D+00 0.794D+00
 Gap=     0.280 Goal=   None    Shift=    0.000
 RMSDP=1.04D-06 MaxDP=9.08D-05 DE=-8.48D-07 OVMax= 2.07D-04

 Cycle  10  Pass 1  IDiag  1:
 RMSU=  6.89D-07    CP:  6.17D-01  1.58D+00  9.71D-01  7.50D-01  1.19D+00
                    CP:  1.28D+00  1.22D+00  1.39D+00  1.28D+00
 CoulSu:  requested number of processors reduced to:  13 ShMem   1 Linda.
 CalDSu:  requested number of processors reduced to:  27 ShMem   1 Linda.
 E= -829.737299190107     Delta-E=       -0.000000114898 Rises=F Damp=F
 DIIS: error= 3.20D-06 at cycle  10 NSaved=  10.
 NSaved=10 IEnMin=10 EnMin= -829.737299190107     IErMin=10 ErrMin= 3.20D-06
 ErrMax= 3.20D-06  0.00D+00 EMaxC= 1.00D-01 BMatC= 2.42D-08 BMatP= 1.02D-07
 IDIUse=1 WtCom= 1.00D+00 WtEn= 0.00D+00
 Coeff-Com: -0.140D-03 0.297D-03 0.105D-02 0.148D-02-0.300D-02-0.180D-01
 Coeff-Com: -0.512D-01 0.496D-02 0.394D+00 0.671D+00
 Coeff:     -0.140D-03 0.297D-03 0.105D-02 0.148D-02-0.300D-02-0.180D-01
 Coeff:     -0.512D-01 0.496D-02 0.394D+00 0.671D+00
 Gap=     0.280 Goal=   None    Shift=    0.000
 RMSDP=3.80D-07 MaxDP=3.23D-05 DE=-1.15D-07 OVMax= 4.09D-05

 Cycle  11  Pass 1  IDiag  1:
 RMSU=  1.75D-07    CP:  6.17D-01  1.58D+00  9.71D-01  7.50D-01  1.19D+00
                    CP:  1.29D+00  1.22D+00  1.44D+00  1.41D+00  1.15D+00
 CoulSu:  requested number of processors reduced to:  14 ShMem   1 Linda.
 CalDSu:  requested number of processors reduced to:  27 ShMem   1 Linda.
 E= -829.737299213523     Delta-E=       -0.000000023416 Rises=F Damp=F
 DIIS: error= 7.19D-07 at cycle  11 NSaved=  11.
 NSaved=11 IEnMin=11 EnMin= -829.737299213523     IErMin=11 ErrMin= 7.19D-07
 ErrMax= 7.19D-07  0.00D+00 EMaxC= 1.00D-01 BMatC= 1.12D-09 BMatP= 2.42D-08
 IDIUse=1 WtCom= 1.00D+00 WtEn= 0.00D+00
 Coeff-Com: -0.394D-04 0.811D-04 0.257D-03 0.497D-03 0.337D-03-0.216D-02
 Coeff-Com: -0.135D-01-0.253D-01 0.409D-01 0.214D+00 0.785D+00
 Coeff:     -0.394D-04 0.811D-04 0.257D-03 0.497D-03 0.337D-03-0.216D-02
 Coeff:     -0.135D-01-0.253D-01 0.409D-01 0.214D+00 0.785D+00
 Gap=     0.280 Goal=   None    Shift=    0.000
 RMSDP=7.82D-08 MaxDP=8.95D-06 DE=-2.34D-08 OVMax= 1.95D-05

 Cycle  12  Pass 1  IDiag  1:
 RMSU=  6.35D-08    CP:  6.17D-01  1.58D+00  9.71D-01  7.50D-01  1.19D+00
                    CP:  1.29D+00  1.22D+00  1.45D+00  1.43D+00  1.18D+00
                    CP:  1.13D+00
 CoulSu:  requested number of processors reduced to:  14 ShMem   1 Linda.
 CalDSu:  requested number of processors reduced to:  27 ShMem   1 Linda.
 E= -829.737299214782     Delta-E=       -0.000000001259 Rises=F Damp=F
 DIIS: error= 2.19D-07 at cycle  12 NSaved=  12.
 NSaved=12 IEnMin=12 EnMin= -829.737299214782     IErMin=12 ErrMin= 2.19D-07
 ErrMax= 2.19D-07  0.00D+00 EMaxC= 1.00D-01 BMatC= 1.39D-10 BMatP= 1.12D-09
 IDIUse=1 WtCom= 1.00D+00 WtEn= 0.00D+00
 Coeff-Com: -0.185D-05 0.393D-05 0.234D-04 0.673D-04 0.235D-03 0.469D-03
 Coeff-Com: -0.134D-02-0.910D-02-0.112D-01 0.213D-01 0.277D+00 0.723D+00
 Coeff:     -0.185D-05 0.393D-05 0.234D-04 0.673D-04 0.235D-03 0.469D-03
 Coeff:     -0.134D-02-0.910D-02-0.112D-01 0.213D-01 0.277D+00 0.723D+00
 Gap=     0.280 Goal=   None    Shift=    0.000
 RMSDP=2.48D-08 MaxDP=4.62D-06 DE=-1.26D-09 OVMax= 3.83D-06

 Cycle  13  Pass 1  IDiag  1:
 RMSU=  2.04D-08    CP:  6.17D-01  1.58D+00  9.71D-01  7.50D-01  1.19D+00
                    CP:  1.29D+00  1.22D+00  1.45D+00  1.43D+00  1.19D+00
                    CP:  1.16D+00  1.15D+00
 CoulSu:  requested number of processors reduced to:  14 ShMem   1 Linda.
 CalDSu:  requested number of processors reduced to:  27 ShMem   1 Linda.
 E= -829.737299214827     Delta-E=       -0.000000000046 Rises=F Damp=F
 DIIS: error= 7.32D-08 at cycle  13 NSaved=  13.
 NSaved=13 IEnMin=13 EnMin= -829.737299214827     IErMin=13 ErrMin= 7.32D-08
 ErrMax= 7.32D-08  0.00D+00 EMaxC= 1.00D-01 BMatC= 1.37D-11 BMatP= 1.39D-10
 IDIUse=1 WtCom= 1.00D+00 WtEn= 0.00D+00
 Coeff-Com:  0.435D-05-0.878D-05-0.166D-04-0.298D-04 0.188D-04 0.405D-03
 Coeff-Com:  0.111D-02 0.284D-03-0.754D-02-0.246D-01-0.164D-01 0.188D+00
 Coeff-Com:  0.859D+00
 Coeff:      0.435D-05-0.878D-05-0.166D-04-0.298D-04 0.188D-04 0.405D-03
 Coeff:      0.111D-02 0.284D-03-0.754D-02-0.246D-01-0.164D-01 0.188D+00
 Coeff:      0.859D+00
 Gap=     0.280 Goal=   None    Shift=    0.000
 RMSDP=1.22D-08 MaxDP=2.12D-06 DE=-4.57D-11 OVMax= 2.19D-06

 Cycle  14  Pass 1  IDiag  1:
 RMSU=  7.07D-09    CP:  6.17D-01  1.58D+00  9.71D-01  7.50D-01  1.19D+00
                    CP:  1.29D+00  1.22D+00  1.45D+00  1.43D+00  1.19D+00
                    CP:  1.18D+00  1.26D+00  1.22D+00
 CoulSu:  requested number of processors reduced to:  14 ShMem   1 Linda.
 CalDSu:  requested number of processors reduced to:  27 ShMem   1 Linda.
 E= -829.737299214904     Delta-E=       -0.000000000077 Rises=F Damp=F
 DIIS: error= 3.16D-08 at cycle  14 NSaved=  14.
 NSaved=14 IEnMin=14 EnMin= -829.737299214904     IErMin=14 ErrMin= 3.16D-08
 ErrMax= 3.16D-08  0.00D+00 EMaxC= 1.00D-01 BMatC= 1.66D-12 BMatP= 1.37D-11
 IDIUse=1 WtCom= 1.00D+00 WtEn= 0.00D+00
 Coeff-Com:  0.193D-05-0.396D-05-0.843D-05-0.165D-04-0.146D-04 0.143D-03
 Coeff-Com:  0.557D-03 0.700D-03-0.207D-02-0.121D-01-0.278D-01 0.104D-01
 Coeff-Com:  0.358D+00 0.673D+00
 Coeff:      0.193D-05-0.396D-05-0.843D-05-0.165D-04-0.146D-04 0.143D-03
 Coeff:      0.557D-03 0.700D-03-0.207D-02-0.121D-01-0.278D-01 0.104D-01
 Coeff:      0.358D+00 0.673D+00
 Gap=     0.280 Goal=   None    Shift=    0.000
 RMSDP=2.94D-09 MaxDP=3.37D-07 DE=-7.69D-11 OVMax= 3.18D-07

 SCF Done:  E(RM062X) =  -829.737299215     A.U. after   14 cycles
            NFock= 14  Conv=0.29D-08     -V/T= 2.0040
 KE= 8.264710992619D+02 PE=-4.267593730272D+03 EE= 1.447839597770D+03
 Leave Link  502 at Sun Apr 18 02:47:39 2021, MaxMem=   104857600 cpu:           89307.1 elap:            4395.5
 (Enter /s/ls4/users/knvvv/bin/g16sse/l601.exe)
 Copying SCF densities to generalized density rwf, IOpCl= 0 IROHF=0.

 **********************************************************************

            Population analysis using the SCF density.

 **********************************************************************

 Orbital symmetries:
       Occupied  (B) (A) (A) (B) (A) (B) (B) (A) (B) (A) (B) (A)
                 (B) (A) (B) (A) (A) (B) (B) (A) (B) (A) (A) (B)
                 (A) (B) (B) (A) (B) (A) (A) (B) (A) (B) (A) (B)
                 (A) (A) (B) (B) (A) (B) (B) (A) (B) (A) (B) (A)
                 (A) (B) (A) (B) (A) (B) (A) (B) (A) (B)
       Virtual   (B) (A) (A) (B) (A) (B) (B) (A) (A) (B) (A) (B)
                 (A) (B) (A) (B) (A) (B) (B) (A) (A) (A) (B) (A)
                 (B) (B) (A) (A) (B) (A) (B) (A) (B) (A) (B) (B)
                 (A) (A) (B) (B) (A) (A) (B) (A) (B) (A) (B) (A)
                 (B) (B) (A) (A) (B) (A) (B) (A) (B) (A) (B) (B)
                 (A) (A) (B) (A) (B) (B) (A) (A) (B) (B) (A) (B)
                 (A) (A) (B) (A) (B) (A) (A) (B) (A) (B) (A) (B)
                 (A) (A) (B) (B) (A) (B) (A) (B) (B) (B) (A) (A)
                 (A) (B) (B) (A) (B) (A) (A) (B) (A) (B) (A) (B)
                 (B) (A) (A) (B) (A) (B) (A) (B) (B) (A) (B) (A)
                 (B) (A) (B) (A) (A) (B) (A) (B) (A) (B) (A) (A)
                 (B) (B) (A) (A) (B) (B) (A) (B) (A) (B) (A) (B)
                 (A) (A) (B) (B) (B) (A) (A) (B) (A) (B) (A) (B)
                 (A) (B) (A) (B) (B) (A) (B) (A) (A) (B) (B) (A)
                 (B) (A) (A) (B) (B) (A) (B) (A) (B) (A) (B) (A)
                 (A) (B) (A) (B) (B) (A) (B) (A) (B) (A) (B) (B)
                 (A) (A) (B) (A) (B) (A) (B) (A) (B) (B) (A) (A)
                 (B) (A) (B) (B) (A) (A) (A) (B) (B) (A) (A) (B)
                 (B) (A) (B) (A) (B) (B) (A) (A) (B) (B) (A) (A)
                 (B) (B) (A) (B) (B) (A) (A) (A) (B) (A) (B) (A)
                 (B) (A) (A) (B) (B) (A) (A) (A) (B) (B) (A) (B)
                 (B) (A) (B) (A) (A) (B) (A) (B) (B) (A) (B) (A)
                 (B) (B) (A) (B) (A) (A) (B) (A) (B) (A) (B) (A)
                 (A) (B) (A) (B) (B) (A) (B) (A) (B) (A) (B) (A)
                 (B) (B) (A) (A) (A) (B) (B) (A) (B) (A) (B) (B)
                 (A) (B) (A) (B) (A) (A) (B) (B) (A) (A) (B) (B)
                 (A) (A) (B) (A) (A) (B) (A) (B) (B) (A) (B) (A)
                 (B) (B) (A) (A) (B) (A) (B) (A) (A) (B) (B) (A)
                 (B) (A) (A) (B) (A) (B) (B) (A) (B) (A) (A) (B)
                 (A) (B) (B) (A) (B) (B) (A) (B) (A) (A) (A) (B)
                 (B) (A) (A) (B) (A) (B) (B) (B) (A) (A) (B) (A)
                 (B) (B) (A) (B) (A) (A) (B) (A) (B) (A) (B) (A)
                 (A) (B) (B) (B) (A) (B) (A) (B) (A) (B) (A) (A)
                 (B) (A) (A) (B) (A) (A) (B) (B) (B) (A) (A) (A)
                 (B) (B) (A) (B) (B) (A) (B) (A) (B) (A) (B) (A)
                 (B) (A) (B) (A) (B) (A) (B) (B) (A) (A) (B) (A)
                 (B) (A) (B) (A) (A) (B) (B) (A) (B) (A) (B) (A)
                 (A) (B) (B) (B) (A) (A) (B) (B) (A) (A) (B) (A)
                 (B) (A) (A) (A) (B) (B) (B) (A) (A) (B) (B) (A)
                 (A) (B) (A) (A) (B) (B) (A) (B) (B) (A) (B) (A)
                 (B) (A) (A) (B) (B) (A) (B) (A) (B) (A) (A) (B)
                 (A) (B) (A) (B) (A) (B) (B) (B) (A) (A) (A) (B)
                 (A) (B) (A) (B) (A) (A) (B) (B) (B) (A) (B) (A)
                 (B) (A) (B) (A) (B) (A) (B) (B) (B) (A) (A) (A)
                 (B) (B) (A) (B) (A) (A) (B) (B) (A) (B) (B) (A)
                 (B) (A) (B) (A) (A) (B) (A) (B) (A) (B) (A) (B)
                 (B) (A) (A) (B) (A) (B) (B) (A) (A) (A) (B) (B)
                 (A) (B) (A) (A) (B) (A) (B) (A) (A) (B) (B) (A)
                 (B) (A) (B) (A) (B) (A) (B) (A) (B) (A) (B) (B)
                 (A) (A) (B) (A) (B) (B) (A) (A) (B) (B) (A) (A)
                 (B) (B) (A) (A) (A) (B) (B) (A) (B) (A) (B) (A)
                 (B) (A) (B) (B) (A) (A) (B) (A) (B) (A) (B) (A)
                 (B) (A) (B) (A) (B) (B) (A) (A) (B) (A) (B) (A)
                 (B) (B) (A) (A) (B) (A) (B) (A) (B) (B) (A) (A)
                 (B) (B) (A) (B) (A) (B) (A) (B) (A) (A) (B) (A)
                 (B) (A) (B) (A) (B) (A) (B) (B) (A) (A) (B) (A)
                 (B) (A) (B) (A) (B) (B) (A) (B) (A) (B) (A) (B)
                 (A) (B) (A) (B) (A) (A) (B) (B) (A) (A) (B) (A)
                 (B) (A) (B) (B) (A) (A) (B) (A) (B) (B) (A) (B)
                 (A) (A) (B) (A) (B) (B) (A) (B) (A) (A) (B) (A)
                 (B) (A) (A) (B) (B) (B) (A) (A) (B) (A) (B) (B)
                 (A) (A) (B) (A) (B) (B) (A) (B) (A) (A) (B) (A)
                 (B) (A) (B) (A) (B) (B) (A) (B) (B) (A) (A) (B)
                 (A) (A) (B) (A) (B) (A) (B) (A) (B) (A) (B) (B)
                 (A) (B) (A) (A) (B) (A) (A) (B) (B) (B) (A) (A)
                 (B) (B) (B) (A) (A) (A) (B) (A) (B) (A) (B) (A)
                 (B) (A) (B) (A) (B) (A) (B) (A) (B) (A) (B) (B)
                 (A) (B) (A) (A) (B) (A) (B) (B) (A) (A) (A) (B)
                 (B) (B) (A) (A) (A) (B) (B) (A) (B) (A) (B) (A)
                 (B) (A) (B) (A) (B) (A) (B) (A) (A) (B) (B) (B)
                 (A) (B) (A) (A) (B) (B) (A) (A) (B) (A) (B) (A)
                 (B) (B) (A) (B) (A) (A) (B) (B) (A) (B) (A) (B)
                 (A) (A) (B) (A) (B) (B) (A) (A) (B) (A) (B) (B)
                 (A) (B) (A) (A) (B) (B) (A) (A) (B) (A) (B) (A)
                 (B) (A) (B) (A) (B) (B) (A) (A) (B) (B) (A) (A)
                 (B) (A) (B) (A) (A) (B) (B) (A) (A) (B) (B) (A)
                 (A) (B) (B) (A) (B) (B) (A) (A) (B) (A) (B) (A)
                 (A) (B) (B) (B) (A) (A) (A) (B) (B) (A) (B) (A)
                 (B) (B) (A) (B) (A) (A) (B) (A) (B) (B) (A) (B)
                 (A) (A) (A) (B) (A) (B) (B) (A) (B) (B) (A) (B)
                 (A) (A) (B) (A) (B) (B) (A) (B) (A) (A) (B) (A)
                 (B) (A) (A) (B) (A) (B) (B) (B) (A) (A) (B) (A)
                 (B) (B) (A) (B) (A) (A) (B) (A) (B) (B) (A) (A)
                 (B) (A) (B) (B) (A) (B) (A) (B) (A) (A) (A) (B)
                 (B) (A) (B) (A) (B) (B) (A) (A) (B) (A) (B) (A)
                 (B) (B) (A) (A) (B) (A) (B) (A) (B) (A) (B) (A)
                 (B) (B) (A) (A) (B) (A) (B) (B) (A) (A) (B) (A)
                 (B) (A) (B) (B) (A) (B) (A) (A) (B) (A) (B) (A)
                 (B) (B) (A) (A) (B) (A) (B) (A) (B) (B) (A) (B)
                 (A) (A) (B) (B) (A) (A) (B) (B) (A) (B) (A) (A)
                 (B) (B) (A) (B) (A) (B) (A) (A) (B) (B) (A) (A)
                 (B) (B) (A) (B) (A) (A) (B) (B) (A) (A) (B) (A)
                 (B) (B) (A) (A) (B) (A) (B) (A) (B) (B) (A) (A)
                 (B) (A) (B) (B) (A) (A) (B) (B) (A) (A) (B) (B)
                 (A) (B) (A) (A) (B) (B) (A) (B) (A) (A) (B) (A)
                 (B) (A) (B) (A) (B) (A) (B) (A) (B) (A) (B) (A)
                 (B) (B) (A) (A) (B) (A) (B) (A) (B) (A) (B) (B)
                 (A) (A) (B) (B) (A) (A) (B) (B) (A) (A) (B) (B)
                 (A) (A) (B) (B) (A) (A) (B) (B) (A) (B) (A) (A)
                 (B) (B) (A) (A) (B) (A) (B) (A) (B) (B) (A) (B)
                 (A) (B) (A) (B) (A) (B) (A) (A) (B) (A) (B) (A)
                 (B) (B) (A) (B) (A) (B) (A) (B) (A)
 The electronic state is 1-A.
 Alpha  occ. eigenvalues --  -19.62116 -19.62116 -19.61958 -19.61958 -14.83044
 Alpha  occ. eigenvalues --  -14.83044 -14.81580 -14.81580 -10.71243 -10.71243
 Alpha  occ. eigenvalues --  -10.68130 -10.68130 -10.63937 -10.63937 -10.57191
 Alpha  occ. eigenvalues --  -10.57191  -1.21728  -1.21277  -1.18226  -1.18131
 Alpha  occ. eigenvalues --   -1.10689  -1.10682  -1.05048  -1.04862  -0.91264
 Alpha  occ. eigenvalues --   -0.91003  -0.79316  -0.79256  -0.76514  -0.76454
 Alpha  occ. eigenvalues --   -0.69081  -0.69007  -0.65090  -0.65012  -0.60590
 Alpha  occ. eigenvalues --   -0.60548  -0.59837  -0.56687  -0.56628  -0.56125
 Alpha  occ. eigenvalues --   -0.54416  -0.54342  -0.51221  -0.51194  -0.50920
 Alpha  occ. eigenvalues --   -0.50484  -0.50365  -0.49259  -0.45751  -0.44489
 Alpha  occ. eigenvalues --   -0.39096  -0.38931  -0.36963  -0.36737  -0.36165
 Alpha  occ. eigenvalues --   -0.35985  -0.33048  -0.31141
 Alpha virt. eigenvalues --   -0.03167  -0.02256  -0.00896   0.00004   0.01436
 Alpha virt. eigenvalues --    0.01953   0.02095   0.02465   0.03254   0.03419
 Alpha virt. eigenvalues --    0.04057   0.04131   0.04596   0.06069   0.06592
 Alpha virt. eigenvalues --    0.06740   0.07460   0.07554   0.07835   0.07871
 Alpha virt. eigenvalues --    0.09443   0.10341   0.10708   0.11027   0.11375
 Alpha virt. eigenvalues --    0.11951   0.12260   0.12661   0.12885   0.13439
 Alpha virt. eigenvalues --    0.13507   0.14238   0.14757   0.15786   0.15940
 Alpha virt. eigenvalues --    0.16497   0.16521   0.16866   0.17507   0.17812
 Alpha virt. eigenvalues --    0.17889   0.18226   0.18237   0.18883   0.19173
 Alpha virt. eigenvalues --    0.19674   0.20235   0.20650   0.20669   0.20992
 Alpha virt. eigenvalues --    0.21216   0.21574   0.22022   0.22657   0.22967
 Alpha virt. eigenvalues --    0.23424   0.23516   0.24096   0.24329   0.25128
 Alpha virt. eigenvalues --    0.25186   0.25598   0.25807   0.26050   0.26979
 Alpha virt. eigenvalues --    0.27342   0.27352   0.27678   0.28032   0.28230
 Alpha virt. eigenvalues --    0.28351   0.28614   0.28652   0.29112   0.29547
 Alpha virt. eigenvalues --    0.29837   0.29840   0.30263   0.30622   0.30776
 Alpha virt. eigenvalues --    0.30972   0.31345   0.31843   0.32334   0.33033
 Alpha virt. eigenvalues --    0.33355   0.33422   0.33979   0.34498   0.34992
 Alpha virt. eigenvalues --    0.35128   0.35260   0.35379   0.36268   0.36269
 Alpha virt. eigenvalues --    0.36633   0.36962   0.37447   0.37967   0.38061
 Alpha virt. eigenvalues --    0.38205   0.38652   0.38879   0.39155   0.39571
 Alpha virt. eigenvalues --    0.40006   0.40546   0.40742   0.41188   0.41436
 Alpha virt. eigenvalues --    0.41716   0.42479   0.42886   0.43444   0.43561
 Alpha virt. eigenvalues --    0.44152   0.44476   0.45421   0.45616   0.46403
 Alpha virt. eigenvalues --    0.46508   0.47077   0.47452   0.48167   0.48226
 Alpha virt. eigenvalues --    0.48499   0.48706   0.49294   0.49766   0.49832
 Alpha virt. eigenvalues --    0.50086   0.50688   0.51004   0.51026   0.51642
 Alpha virt. eigenvalues --    0.52057   0.52145   0.52281   0.53142   0.53175
 Alpha virt. eigenvalues --    0.53288   0.53709   0.54151   0.54289   0.54794
 Alpha virt. eigenvalues --    0.55797   0.55962   0.56623   0.56946   0.57115
 Alpha virt. eigenvalues --    0.57743   0.58323   0.58323   0.58533   0.59112
 Alpha virt. eigenvalues --    0.59410   0.59705   0.60127   0.60375   0.60504
 Alpha virt. eigenvalues --    0.61257   0.61297   0.62365   0.62482   0.62951
 Alpha virt. eigenvalues --    0.63874   0.64014   0.64028   0.64840   0.65347
 Alpha virt. eigenvalues --    0.65918   0.65968   0.66643   0.66688   0.67604
 Alpha virt. eigenvalues --    0.67637   0.68390   0.68763   0.69205   0.69695
 Alpha virt. eigenvalues --    0.70093   0.70258   0.70968   0.71241   0.71830
 Alpha virt. eigenvalues --    0.71907   0.72794   0.72815   0.73270   0.73816
 Alpha virt. eigenvalues --    0.74193   0.75213   0.75321   0.76332   0.76368
 Alpha virt. eigenvalues --    0.76567   0.76812   0.77003   0.77858   0.78059
 Alpha virt. eigenvalues --    0.78405   0.78492   0.79018   0.79235   0.80347
 Alpha virt. eigenvalues --    0.80693   0.81632   0.82257   0.82341   0.82947
 Alpha virt. eigenvalues --    0.83167   0.84424   0.84894   0.85245   0.85557
 Alpha virt. eigenvalues --    0.85819   0.86560   0.86892   0.88151   0.88239
 Alpha virt. eigenvalues --    0.89107   0.89494   0.89773   0.90790   0.91106
 Alpha virt. eigenvalues --    0.92084   0.92275   0.93059   0.93163   0.93605
 Alpha virt. eigenvalues --    0.94307   0.94710   0.96152   0.96378   0.97571
 Alpha virt. eigenvalues --    0.97972   0.98482   0.99193   1.00051   1.00456
 Alpha virt. eigenvalues --    1.01297   1.02016   1.02925   1.03243   1.03631
 Alpha virt. eigenvalues --    1.03666   1.05067   1.05198   1.05225   1.06025
 Alpha virt. eigenvalues --    1.06462   1.06591   1.08246   1.08517   1.09646
 Alpha virt. eigenvalues --    1.10349   1.10628   1.11469   1.12164   1.12712
 Alpha virt. eigenvalues --    1.13139   1.13760   1.14562   1.15680   1.16180
 Alpha virt. eigenvalues --    1.16649   1.17727   1.18491   1.18543   1.19317
 Alpha virt. eigenvalues --    1.19992   1.20488   1.21378   1.21507   1.21955
 Alpha virt. eigenvalues --    1.22460   1.23069   1.23888   1.25386   1.25481
 Alpha virt. eigenvalues --    1.26458   1.27309   1.28021   1.28214   1.28456
 Alpha virt. eigenvalues --    1.28934   1.30116   1.30840   1.30989   1.31333
 Alpha virt. eigenvalues --    1.31955   1.33942   1.34384   1.34387   1.36179
 Alpha virt. eigenvalues --    1.36285   1.37700   1.39071   1.39180   1.40054
 Alpha virt. eigenvalues --    1.40140   1.41125   1.41293   1.42248   1.43025
 Alpha virt. eigenvalues --    1.44042   1.44521   1.45067   1.46665   1.46775
 Alpha virt. eigenvalues --    1.47181   1.47481   1.47987   1.49022   1.50028
 Alpha virt. eigenvalues --    1.50617   1.51703   1.52530   1.53236   1.54378
 Alpha virt. eigenvalues --    1.55681   1.56429   1.57806   1.58036   1.60515
 Alpha virt. eigenvalues --    1.60797   1.61263   1.62226   1.64159   1.64218
 Alpha virt. eigenvalues --    1.64734   1.65103   1.66576   1.66677   1.67991
 Alpha virt. eigenvalues --    1.69568   1.69856   1.70731   1.71474   1.71762
 Alpha virt. eigenvalues --    1.72270   1.73456   1.73755   1.75114   1.75569
 Alpha virt. eigenvalues --    1.75606   1.76304   1.77079   1.77581   1.78478
 Alpha virt. eigenvalues --    1.79927   1.80071   1.80502   1.81445   1.82621
 Alpha virt. eigenvalues --    1.83412   1.84206   1.84558   1.85017   1.86917
 Alpha virt. eigenvalues --    1.88014   1.88071   1.88987   1.89722   1.89886
 Alpha virt. eigenvalues --    1.90470   1.90886   1.92248   1.92269   1.94376
 Alpha virt. eigenvalues --    1.94743   1.94898   1.95449   1.96330   1.96609
 Alpha virt. eigenvalues --    1.97281   1.98438   1.99381   1.99518   2.02478
 Alpha virt. eigenvalues --    2.02532   2.03163   2.04154   2.05344   2.05618
 Alpha virt. eigenvalues --    2.06093   2.06644   2.07528   2.08372   2.09043
 Alpha virt. eigenvalues --    2.09429   2.10041   2.10388   2.10842   2.12105
 Alpha virt. eigenvalues --    2.14341   2.14460   2.15193   2.15837   2.16806
 Alpha virt. eigenvalues --    2.17667   2.18505   2.18645   2.19366   2.19947
 Alpha virt. eigenvalues --    2.21182   2.21920   2.22886   2.23450   2.24140
 Alpha virt. eigenvalues --    2.24153   2.24494   2.26047   2.26932   2.27564
 Alpha virt. eigenvalues --    2.27591   2.28888   2.29000   2.30368   2.30498
 Alpha virt. eigenvalues --    2.32317   2.32350   2.33017   2.33030   2.33807
 Alpha virt. eigenvalues --    2.34320   2.35697   2.36260   2.36373   2.36918
 Alpha virt. eigenvalues --    2.38100   2.39105   2.39994   2.40597   2.40738
 Alpha virt. eigenvalues --    2.42475   2.43837   2.43849   2.45234   2.45583
 Alpha virt. eigenvalues --    2.48021   2.48439   2.48478   2.49522   2.50396
 Alpha virt. eigenvalues --    2.50871   2.51112   2.51953   2.53173   2.53900
 Alpha virt. eigenvalues --    2.54011   2.55192   2.55642   2.56169   2.56241
 Alpha virt. eigenvalues --    2.57736   2.59425   2.60009   2.61678   2.62172
 Alpha virt. eigenvalues --    2.62353   2.63512   2.64156   2.64306   2.64615
 Alpha virt. eigenvalues --    2.65496   2.66157   2.67622   2.68865   2.69571
 Alpha virt. eigenvalues --    2.69786   2.71186   2.71459   2.73152   2.73958
 Alpha virt. eigenvalues --    2.75209   2.76156   2.76473   2.77877   2.78117
 Alpha virt. eigenvalues --    2.78455   2.79289   2.79644   2.79973   2.80596
 Alpha virt. eigenvalues --    2.81318   2.82540   2.83925   2.84474   2.84858
 Alpha virt. eigenvalues --    2.85448   2.85585   2.86900   2.87718   2.88606
 Alpha virt. eigenvalues --    2.89657   2.90396   2.90808   2.91826   2.93663
 Alpha virt. eigenvalues --    2.94936   2.95179   2.95655   2.96919   2.97537
 Alpha virt. eigenvalues --    2.98053   2.99206   3.00748   3.02050   3.02734
 Alpha virt. eigenvalues --    3.03813   3.05856   3.06576   3.06819   3.08417
 Alpha virt. eigenvalues --    3.08546   3.08961   3.09575   3.09781   3.11486
 Alpha virt. eigenvalues --    3.11571   3.13350   3.14156   3.15013   3.16623
 Alpha virt. eigenvalues --    3.16837   3.17788   3.18038   3.18966   3.19752
 Alpha virt. eigenvalues --    3.20572   3.22787   3.23612   3.25330   3.26205
 Alpha virt. eigenvalues --    3.27302   3.28084   3.29323   3.31778   3.32755
 Alpha virt. eigenvalues --    3.32920   3.33757   3.34328   3.34763   3.35013
 Alpha virt. eigenvalues --    3.35986   3.37312   3.37983   3.39560   3.40148
 Alpha virt. eigenvalues --    3.41062   3.41726   3.42219   3.42941   3.44902
 Alpha virt. eigenvalues --    3.46028   3.47189   3.47831   3.48176   3.48299
 Alpha virt. eigenvalues --    3.49891   3.50349   3.51211   3.51952   3.52865
 Alpha virt. eigenvalues --    3.56037   3.56238   3.57136   3.59818   3.60038
 Alpha virt. eigenvalues --    3.60355   3.61050   3.61542   3.62573   3.63580
 Alpha virt. eigenvalues --    3.64373   3.66345   3.67282   3.67417   3.69001
 Alpha virt. eigenvalues --    3.69395   3.70297   3.71100   3.72990   3.73665
 Alpha virt. eigenvalues --    3.74050   3.75984   3.77287   3.78233   3.79241
 Alpha virt. eigenvalues --    3.79793   3.81950   3.82899   3.85347   3.86291
 Alpha virt. eigenvalues --    3.88357   3.89469   3.92951   3.93763   3.95103
 Alpha virt. eigenvalues --    3.95839   3.96687   3.97660   4.00250   4.01202
 Alpha virt. eigenvalues --    4.03343   4.04633   4.05501   4.05916   4.07423
 Alpha virt. eigenvalues --    4.07451   4.09851   4.10035   4.10461   4.12206
 Alpha virt. eigenvalues --    4.12859   4.13581   4.14602   4.15330   4.18266
 Alpha virt. eigenvalues --    4.18984   4.20017   4.20586   4.20938   4.23219
 Alpha virt. eigenvalues --    4.24230   4.26262   4.26470   4.27107   4.28077
 Alpha virt. eigenvalues --    4.28091   4.29756   4.29861   4.30673   4.33340
 Alpha virt. eigenvalues --    4.34146   4.34464   4.35686   4.37738   4.39379
 Alpha virt. eigenvalues --    4.39781   4.45468   4.45657   4.46052   4.46676
 Alpha virt. eigenvalues --    4.50098   4.50112   4.51578   4.52648   4.56481
 Alpha virt. eigenvalues --    4.57272   4.58398   4.59966   4.63978   4.64467
 Alpha virt. eigenvalues --    4.65177   4.66162   4.67870   4.69123   4.73274
 Alpha virt. eigenvalues --    4.73614   4.74813   4.75180   4.76854   4.81026
 Alpha virt. eigenvalues --    4.82264   4.83496   4.85930   4.86277   4.88180
 Alpha virt. eigenvalues --    4.90247   4.91544   4.92313   4.93673   4.94974
 Alpha virt. eigenvalues --    4.96266   4.96741   4.99649   5.00211   5.00547
 Alpha virt. eigenvalues --    5.02045   5.03225   5.03345   5.04832   5.05246
 Alpha virt. eigenvalues --    5.06761   5.08507   5.08552   5.11920   5.12509
 Alpha virt. eigenvalues --    5.12644   5.18619   5.19706   5.20416   5.21039
 Alpha virt. eigenvalues --    5.24640   5.25201   5.25261   5.28698   5.31339
 Alpha virt. eigenvalues --    5.32672   5.33307   5.35618   5.36104   5.36532
 Alpha virt. eigenvalues --    5.36925   5.37994   5.39650   5.40488   5.42380
 Alpha virt. eigenvalues --    5.44440   5.45343   5.45501   5.46370   5.47517
 Alpha virt. eigenvalues --    5.47535   5.48198   5.50115   5.51641   5.52162
 Alpha virt. eigenvalues --    5.52904   5.53697   5.54916   5.55577   5.56196
 Alpha virt. eigenvalues --    5.57406   5.58218   5.59002   5.59963   5.60150
 Alpha virt. eigenvalues --    5.61646   5.63086   5.63908   5.64820   5.65651
 Alpha virt. eigenvalues --    5.66422   5.66806   5.68768   5.69797   5.70314
 Alpha virt. eigenvalues --    5.70907   5.72087   5.72554   5.73290   5.76945
 Alpha virt. eigenvalues --    5.77727   5.79188   5.79196   5.80746   5.83144
 Alpha virt. eigenvalues --    5.83159   5.84565   5.85818   5.85822   5.87304
 Alpha virt. eigenvalues --    5.87697   5.88152   5.89950   5.91185   5.91983
 Alpha virt. eigenvalues --    5.93036   5.93887   5.94974   5.95628   5.97732
 Alpha virt. eigenvalues --    5.97967   5.99383   6.00401   6.01008   6.02439
 Alpha virt. eigenvalues --    6.03721   6.04561   6.04756   6.05884   6.06883
 Alpha virt. eigenvalues --    6.07153   6.08910   6.10075   6.10122   6.11643
 Alpha virt. eigenvalues --    6.13642   6.14720   6.15234   6.15375   6.16978
 Alpha virt. eigenvalues --    6.17917   6.18273   6.20973   6.21648   6.22358
 Alpha virt. eigenvalues --    6.22449   6.22711   6.23403   6.24748   6.25531
 Alpha virt. eigenvalues --    6.26508   6.26995   6.28148   6.29246   6.29388
 Alpha virt. eigenvalues --    6.30094   6.30298   6.32098   6.33722   6.34393
 Alpha virt. eigenvalues --    6.34962   6.35878   6.37119   6.37962   6.38399
 Alpha virt. eigenvalues --    6.40188   6.40893   6.41748   6.42463   6.46395
 Alpha virt. eigenvalues --    6.46725   6.47273   6.48136   6.49401   6.50500
 Alpha virt. eigenvalues --    6.51822   6.51864   6.52459   6.53401   6.53719
 Alpha virt. eigenvalues --    6.56371   6.56589   6.57568   6.58370   6.63392
 Alpha virt. eigenvalues --    6.63849   6.63863   6.66046   6.67283   6.70183
 Alpha virt. eigenvalues --    6.72172   6.72697   6.73567   6.73830   6.74894
 Alpha virt. eigenvalues --    6.75434   6.77856   6.78276   6.83222   6.83546
 Alpha virt. eigenvalues --    6.85779   6.86338   6.90937   6.91247   6.93754
 Alpha virt. eigenvalues --    6.94735   6.96269   6.96589   6.98001   6.98357
 Alpha virt. eigenvalues --    6.98971   6.99665   7.02148   7.02563   7.04317
 Alpha virt. eigenvalues --    7.04651   7.06309   7.06469   7.07879   7.08050
 Alpha virt. eigenvalues --    7.11245   7.13100   7.14745   7.15459   7.16017
 Alpha virt. eigenvalues --    7.17686   7.19470   7.22654   7.22951   7.23319
 Alpha virt. eigenvalues --    7.25054   7.25448   7.30849   7.31708   7.34415
 Alpha virt. eigenvalues --    7.34813   7.36895   7.37729   7.42305   7.42982
 Alpha virt. eigenvalues --    7.43103   7.44893   7.45693   7.46407   7.47126
 Alpha virt. eigenvalues --    7.49081   7.49465   7.52578   7.53069   7.53476
 Alpha virt. eigenvalues --    7.54975   7.55228   7.56059   7.56256   7.58980
 Alpha virt. eigenvalues --    7.59168   7.60905   7.61651   7.62014   7.63105
 Alpha virt. eigenvalues --    7.63230   7.65958   7.66029   7.67627   7.68825
 Alpha virt. eigenvalues --    7.70051   7.71442   7.73479   7.73634   7.74347
 Alpha virt. eigenvalues --    7.74443   7.77572   7.79066   7.79836   7.82600
 Alpha virt. eigenvalues --    7.84706   7.85182   7.86757   7.86801   7.89273
 Alpha virt. eigenvalues --    7.89336   7.90190   7.91337   7.91522   7.93312
 Alpha virt. eigenvalues --    7.93974   7.94367   7.95351   7.96220   7.96661
 Alpha virt. eigenvalues --    7.97763   7.99961   8.00997   8.01757   8.02898
 Alpha virt. eigenvalues --    8.04100   8.04615   8.06208   8.08651   8.09404
 Alpha virt. eigenvalues --    8.09484   8.10171   8.12389   8.13073   8.15102
 Alpha virt. eigenvalues --    8.15968   8.17160   8.17810   8.19061   8.19827
 Alpha virt. eigenvalues --    8.19936   8.21222   8.21911   8.22116   8.24238
 Alpha virt. eigenvalues --    8.24462   8.25239   8.26323   8.26705   8.28939
 Alpha virt. eigenvalues --    8.31163   8.32099   8.32714   8.35639   8.37995
 Alpha virt. eigenvalues --    8.38061   8.40747   8.41283   8.42274   8.42913
 Alpha virt. eigenvalues --    8.43018   8.44445   8.45078   8.45377   8.52153
 Alpha virt. eigenvalues --    8.52886   8.54962   8.55801   8.61099   8.63767
 Alpha virt. eigenvalues --    8.65216   8.65332   8.65692   8.66007   8.66443
 Alpha virt. eigenvalues --    8.69333   8.70810   8.73197   8.74523   8.77038
 Alpha virt. eigenvalues --    8.79313   8.80046   8.81032   8.81616   8.82476
 Alpha virt. eigenvalues --    8.82606   8.83026   8.83269   8.83971   8.84690
 Alpha virt. eigenvalues --    8.85112   8.86388   8.86436   8.89472   8.91617
 Alpha virt. eigenvalues --    8.91945   8.93820   8.93969   8.96796   8.97981
 Alpha virt. eigenvalues --    9.02556   9.04617   9.06589   9.06719   9.08383
 Alpha virt. eigenvalues --    9.09316   9.09908   9.10009   9.10711   9.11698
 Alpha virt. eigenvalues --    9.13153   9.13275   9.14166   9.15191   9.17886
 Alpha virt. eigenvalues --    9.19414   9.22944   9.24400   9.27918   9.27959
 Alpha virt. eigenvalues --    9.31240   9.31915   9.36082   9.36448   9.43326
 Alpha virt. eigenvalues --    9.45195   9.47722   9.48441   9.54435   9.56265
 Alpha virt. eigenvalues --    9.56522   9.56689   9.57731   9.57969   9.60022
 Alpha virt. eigenvalues --    9.60877   9.62880   9.63216   9.66334   9.68369
 Alpha virt. eigenvalues --    9.70519   9.70596   9.73696   9.74227   9.75675
 Alpha virt. eigenvalues --    9.75810   9.76871   9.77412   9.87522   9.88655
 Alpha virt. eigenvalues --    9.88720   9.89036   9.90683   9.90880   9.92691
 Alpha virt. eigenvalues --    9.92751   9.96048   9.96381   9.98831   9.99387
 Alpha virt. eigenvalues --   10.02704  10.03378  10.06337  10.06404  10.14074
 Alpha virt. eigenvalues --   10.16300  10.17291  10.18554  10.20617  10.21704
 Alpha virt. eigenvalues --   10.28525  10.28596  10.29514  10.30124  10.32587
 Alpha virt. eigenvalues --   10.33021  10.35219  10.35919  10.50832  10.50870
 Alpha virt. eigenvalues --   10.60375  10.60441  10.69652  10.70615  10.74553
 Alpha virt. eigenvalues --   10.77182  10.77319  10.77418  10.91235  10.91622
 Alpha virt. eigenvalues --   10.92482  10.94559  10.95925  10.96600  10.96944
 Alpha virt. eigenvalues --   10.97424  10.97819  10.99613  11.01172  11.01418
 Alpha virt. eigenvalues --   11.04616  11.05985  11.22372  11.23298  11.30835
 Alpha virt. eigenvalues --   11.31042  11.32596  11.33130  11.36301  11.36753
 Alpha virt. eigenvalues --   11.40318  11.40370  11.41296  11.41314  11.50438
 Alpha virt. eigenvalues --   11.50558  11.55441  11.56460  11.64987  11.65101
 Alpha virt. eigenvalues --   11.71530  11.71675  11.75346  11.77801  11.78206
 Alpha virt. eigenvalues --   11.79218  11.81669  11.82363  11.84148  11.85325
 Alpha virt. eigenvalues --   11.85581  11.87422  11.96264  11.97284  11.97309
 Alpha virt. eigenvalues --   11.98355  11.98837  11.99660  12.11248  12.12265
 Alpha virt. eigenvalues --   12.16155  12.16482  12.21229  12.23295  12.23940
 Alpha virt. eigenvalues --   12.26228  12.36237  12.36334  12.37978  12.38937
 Alpha virt. eigenvalues --   12.45356  12.51287  12.91613  12.91700  13.05068
 Alpha virt. eigenvalues --   13.05828  13.07325  13.07740  13.39074  13.39112
 Alpha virt. eigenvalues --   13.53365  13.53493  14.27550  14.28282  14.30880
 Alpha virt. eigenvalues --   14.33224  14.42458  14.42798  14.44802  14.44984
 Alpha virt. eigenvalues --   14.78075  14.79461  14.83143  14.85304  28.36763
 Alpha virt. eigenvalues --   28.40676  28.55502  28.58020  28.63793  28.67062
 Alpha virt. eigenvalues --   29.17146  29.17767  38.10862  38.11549  38.14035
 Alpha virt. eigenvalues --   38.17694  48.38045  48.38977  48.39937  48.41995
 Alpha virt. eigenvalues --  145.85241 145.88467 146.01186 146.03078 146.07820
 Alpha virt. eigenvalues --  146.11513 146.65136 146.66038 195.73481 195.74577
 Alpha virt. eigenvalues --  195.76248 195.81141 251.50458 251.51808 251.53094
 Alpha virt. eigenvalues --  251.55122
          Condensed to atoms (all electrons):
               1          2          3          4          5          6
     1  N    7.027388  -0.016303   0.486688  -0.068324  -0.117574   0.003134
     2  H   -0.016303   0.678983  -0.129203   0.046159  -0.044840   0.004734
     3  C    0.486688  -0.129203   5.257603   0.556176  -0.120022  -0.059469
     4  O   -0.068324   0.046159   0.556176   8.032133  -0.000011  -0.010079
[...]
 Alpha virt. eigenvalues --    6.13642   6.14720   6.15234   6.15375   6.16978
 Alpha virt. eigenvalues --    6.17917   6.18273   6.20973   6.21648   6.22358
 Alpha virt. eigenvalues --    6.22449   6.22711   6.23403   6.24748   6.25531
 Alpha virt. eigenvalues --    6.26508   6.26995   6.28148   6.29246   6.29388
 Alpha virt. eigenvalues --    6.30094   6.30298   6.32098   6.33722   6.34393
 Alpha virt. eigenvalues --    6.34962   6.35878   6.37119   6.37962   6.38399
 Alpha virt. eigenvalues --    6.40188   6.40893   6.41748   6.42463   6.46395
 Alpha virt. eigenvalues --    6.46725   6.47273   6.48136   6.49401   6.50500
 Alpha virt. eigenvalues --    6.51822   6.51864   6.52459   6.53401   6.53719
 Alpha virt. eigenvalues --    6.56371   6.56589   6.57568   6.58370   6.63392
 Alpha virt. eigenvalues --    6.63849   6.63863   6.66046   6.67283   6.70183
 Alpha virt. eigenvalues --    6.72172   6.72697   6.73567   6.73830   6.74894
 Alpha virt. eigenvalues --    6.75434   6.77856   6.78276   6.83222   6.83546
 Alpha virt. eigenvalues --    6.85779   6.86338   6.90937   6.91247   6.93754
 Alpha virt. eigenvalues --    6.94735   6.96269   6.96589   6.98001   6.98357
 Alpha virt. eigenvalues --    6.98971   6.99665   7.02148   7.02563   7.04317
 Alpha virt. eigenvalues --    7.04651   7.06309   7.06469   7.07879   7.08050
 Alpha virt. eigenvalues --    7.11245   7.13100   7.14745   7.15459   7.16017
 Alpha virt. eigenvalues --    7.17686   7.19470   7.22654   7.22951   7.23319
 Alpha virt. eigenvalues --    7.25054   7.25448   7.30849   7.31708   7.34415
 Alpha virt. eigenvalues --    7.34813   7.36895   7.37729   7.42305   7.42982
 Alpha virt. eigenvalues --    7.43103   7.44893   7.45693   7.46407   7.47126
 Alpha virt. eigenvalues --    7.49081   7.49465   7.52578   7.53069   7.53476
 Alpha virt. eigenvalues --    7.54975   7.55228   7.56059   7.56256   7.58980
 Alpha virt. eigenvalues --    7.59168   7.60905   7.61651   7.62014   7.63105
 Alpha virt. eigenvalues --    7.63230   7.65958   7.66029   7.67627   7.68825
 Alpha virt. eigenvalues --    7.70051   7.71442   7.73479   7.73634   7.74347
 Alpha virt. eigenvalues --    7.74443   7.77572   7.79066   7.79836   7.82600
 Alpha virt. eigenvalues --    7.84706   7.85182   7.86757   7.86801   7.89273
 Alpha virt. eigenvalues --    7.89336   7.90190   7.91337   7.91522   7.93312
 Alpha virt. eigenvalues --    7.93974   7.94367   7.95351   7.96220   7.96661
 Alpha virt. eigenvalues --    7.97763   7.99961   8.00997   8.01757   8.02898
 Alpha virt. eigenvalues --    8.04100   8.04615   8.06208   8.08651   8.09404
 Alpha virt. eigenvalues --    8.09484   8.10171   8.12389   8.13073   8.15102
 Alpha virt. eigenvalues --    8.15968   8.17160   8.17810   8.19061   8.19827
 Alpha virt. eigenvalues --    8.19936   8.21222   8.21911   8.22116   8.24238
 Alpha virt. eigenvalues --    8.24462   8.25239   8.26323   8.26705   8.28939
 Alpha virt. eigenvalues --    8.31163   8.32099   8.32714   8.35639   8.37995
 Alpha virt. eigenvalues --    8.38061   8.40747   8.41283   8.42274   8.42913
 Alpha virt. eigenvalues --    8.43018   8.44445   8.45078   8.45377   8.52153
 Alpha virt. eigenvalues --    8.52886   8.54962   8.55801   8.61099   8.63767
 Alpha virt. eigenvalues --    8.65216   8.65332   8.65692   8.66007   8.66443
 Alpha virt. eigenvalues --    8.69333   8.70810   8.73197   8.74523   8.77038
 Alpha virt. eigenvalues --    8.79313   8.80046   8.81032   8.81616   8.82476
 Alpha virt. eigenvalues --    8.82606   8.83026   8.83269   8.83971   8.84690
 Alpha virt. eigenvalues --    8.85112   8.86388   8.86436   8.89472   8.91617
 Alpha virt. eigenvalues --    8.91945   8.93820   8.93969   8.96796   8.97981
 Alpha virt. eigenvalues --    9.02556   9.04617   9.06589   9.06719   9.08383
 Alpha virt. eigenvalues --    9.09316   9.09908   9.10009   9.10711   9.11698
 Alpha virt. eigenvalues --    9.13153   9.13275   9.14166   9.15191   9.17886
 Alpha virt. eigenvalues --    9.19414   9.22944   9.24400   9.27918   9.27959
 Alpha virt. eigenvalues --    9.31240   9.31915   9.36082   9.36448   9.43326
 Alpha virt. eigenvalues --    9.45195   9.47722   9.48441   9.54435   9.56265
 Alpha virt. eigenvalues --    9.56522   9.56689   9.57731   9.57969   9.60022
 Alpha virt. eigenvalues --    9.60877   9.62880   9.63216   9.66334   9.68369
 Alpha virt. eigenvalues --    9.70519   9.70596   9.73696   9.74227   9.75675
 Alpha virt. eigenvalues --    9.75810   9.76871   9.77412   9.87522   9.88655
 Alpha virt. eigenvalues --    9.88720   9.89036   9.90683   9.90880   9.92691
 Alpha virt. eigenvalues --    9.92751   9.96048   9.96381   9.98831   9.99387
 Alpha virt. eigenvalues --   10.02704  10.03378  10.06337  10.06404  10.14074
 Alpha virt. eigenvalues --   10.16300  10.17291  10.18554  10.20617  10.21704
 Alpha virt. eigenvalues --   10.28525  10.28596  10.29514  10.30124  10.32587
 Alpha virt. eigenvalues --   10.33021  10.35219  10.35919  10.50832  10.50870
 Alpha virt. eigenvalues --   10.60375  10.60441  10.69652  10.70615  10.74553
 Alpha virt. eigenvalues --   10.77182  10.77319  10.77418  10.91235  10.91622
 Alpha virt. eigenvalues --   10.92482  10.94559  10.95925  10.96600  10.96944
 Alpha virt. eigenvalues --   10.97424  10.97819  10.99613  11.01172  11.01418
 Alpha virt. eigenvalues --   11.04616  11.05985  11.22372  11.23298  11.30835
 Alpha virt. eigenvalues --   11.31042  11.32596  11.33130  11.36301  11.36753
 Alpha virt. eigenvalues --   11.40318  11.40370  11.41296  11.41314  11.50438
 Alpha virt. eigenvalues --   11.50558  11.55441  11.56460  11.64987  11.65101
 Alpha virt. eigenvalues --   11.71530  11.71675  11.75346  11.77801  11.78206
 Alpha virt. eigenvalues --   11.79218  11.81669  11.82363  11.84148  11.85325
 Alpha virt. eigenvalues --   11.85581  11.87422  11.96264  11.97284  11.97309
 Alpha virt. eigenvalues --   11.98355  11.98837  11.99660  12.11248  12.12265
 Alpha virt. eigenvalues --   12.16155  12.16482  12.21229  12.23295  12.23940
 Alpha virt. eigenvalues --   12.26228  12.36237  12.36334  12.37978  12.38937
 Alpha virt. eigenvalues --   12.45356  12.51287  12.91613  12.91700  13.05068
 Alpha virt. eigenvalues --   13.05828  13.07325  13.07740  13.39074  13.39112
 Alpha virt. eigenvalues --   13.53365  13.53493  14.27550  14.28282  14.30880
 Alpha virt. eigenvalues --   14.33224  14.42458  14.42798  14.44802  14.44984
 Alpha virt. eigenvalues --   14.78075  14.79461  14.83143  14.85304  28.36763
 Alpha virt. eigenvalues --   28.40676  28.55502  28.58020  28.63793  28.67062
 Alpha virt. eigenvalues --   29.17146  29.17767  38.10862  38.11549  38.14035
 Alpha virt. eigenvalues --   38.17694  48.38045  48.38977  48.39937  48.41995
 Alpha virt. eigenvalues --  145.85241 145.88467 146.01186 146.03078 146.07820
 Alpha virt. eigenvalues --  146.11513 146.65136 146.66038 195.73481 195.74577
 Alpha virt. eigenvalues --  195.76248 195.81141 251.50458 251.51808 251.53094
 Alpha virt. eigenvalues --  251.55122
          Condensed to atoms (all electrons):
               1          2          3          4          5          6
     1  N    7.027388  -0.016303   0.486688  -0.068324  -0.117574   0.003134
     2  H   -0.016303   0.678983  -0.129203   0.046159  -0.044840   0.004734
     3  C    0.486688  -0.129203   5.257603   0.556176  -0.120022  -0.059469
     4  O   -0.068324   0.046159   0.556176   8.032133  -0.000011  -0.010079
     5  N   -0.117574  -0.044840  -0.120022  -0.000011   6.757566   0.002569
     6  H    0.003134   0.004734  -0.059469  -0.010079   0.002569   0.381358
     7  C   -0.032308  -0.006696  -0.185565   0.005601   0.456689  -0.015570
     8  H   -0.009257  -0.004755   0.011406   0.000799  -0.058633   0.019020
     9  C   -0.178633  -0.027450   0.269911  -0.124130  -0.118364   0.174522
    10  H   -0.033814   0.011445   0.015668  -0.000385   0.240801   0.003097
    11  C    0.391947  -0.082921  -0.195778   0.027407   0.496910  -0.006761
    12  O   -0.077801   0.068442   0.012938   0.000735  -0.068272  -0.000208
    13  N   -0.006219   0.017899  -0.020065  -0.002481  -0.005800   0.002526
    14  H    0.017899  -0.006983  -0.000854  -0.000833  -0.005756  -0.001194
    15  C   -0.020065  -0.000854   0.016012  -0.004084   0.022201  -0.014499
    16  O   -0.002481  -0.000833  -0.004084   0.000119   0.010826  -0.001726
    17  N   -0.005800  -0.005756   0.022201   0.010826   0.000509  -0.000851
    18  H    0.002526  -0.001194  -0.014499  -0.001726  -0.000851   0.000997
    19  C    0.005081  -0.016267   0.010820  -0.000684   0.005305   0.010602
    20  H    0.000338  -0.001228  -0.004429   0.000060   0.000245  -0.003038
    21  C   -0.008378   0.011432   0.043687   0.003091  -0.006579   0.006611
    22  H    0.017258   0.001051  -0.013382  -0.011472   0.001318   0.000388
    23  C    0.067292  -0.020614  -0.043039  -0.006386  -0.006163  -0.008866
    24  O    0.001479   0.006632  -0.033017   0.001895  -0.001002  -0.000367
               7          8          9         10         11         12
     1  N   -0.032308  -0.009257  -0.178633  -0.033814   0.391947  -0.077801
     2  H   -0.006696  -0.004755  -0.027450   0.011445  -0.082921   0.068442
     3  C   -0.185565   0.011406   0.269911   0.015668  -0.195778   0.012938
     4  O    0.005601   0.000799  -0.124130  -0.000385   0.027407   0.000735
     5  N    0.456689  -0.058633  -0.118364   0.240801   0.496910  -0.068272
     6  H   -0.015570   0.019020   0.174522   0.003097  -0.006761  -0.000208
     7  C    5.694285   0.173417   0.085083  -0.026054  -0.028867   0.010976
     8  H    0.173417   0.538701  -0.004850  -0.020136  -0.030892   0.001952
     9  C    0.085083  -0.004850   6.449819  -0.032810  -0.137398   0.015360
    10  H   -0.026054  -0.020136  -0.032810   0.416185  -0.002839   0.029465
    11  C   -0.028867  -0.030892  -0.137398  -0.002839   4.914232   0.408801
    12  O    0.010976   0.001952   0.015360   0.029465   0.408801   8.095842
    13  N    0.005081   0.000338  -0.008378   0.017258   0.067292   0.001479
    14  H   -0.016267  -0.001228   0.011432   0.001051  -0.020614   0.006632
    15  C    0.010820  -0.004429   0.043687  -0.013382  -0.043039  -0.033017
    16  O   -0.000684   0.000060   0.003091  -0.011472  -0.006386   0.001895
    17  N    0.005305   0.000245  -0.006579   0.001318  -0.006163  -0.001002
    18  H    0.010602  -0.003038   0.006611   0.000388  -0.008866  -0.000367
    19  C    0.026279  -0.001095  -0.016352   0.000373  -0.038265  -0.002531
    20  H   -0.001095  -0.000357   0.005453  -0.000119  -0.002479   0.000008
    21  C   -0.016352   0.005453  -0.076904  -0.002234   0.005464   0.001031
    22  H    0.000373  -0.000119  -0.002234   0.000281  -0.006219  -0.001326
    23  C   -0.038265  -0.002479   0.005464  -0.006219   0.008497  -0.009029
    24  O   -0.002531   0.000008   0.001031  -0.001326  -0.009029   0.008584
              13         14         15         16         17         18
     1  N   -0.006219   0.017899  -0.020065  -0.002481  -0.005800   0.002526
     2  H    0.017899  -0.006983  -0.000854  -0.000833  -0.005756  -0.001194
     3  C   -0.020065  -0.000854   0.016012  -0.004084   0.022201  -0.014499
     4  O   -0.002481  -0.000833  -0.004084   0.000119   0.010826  -0.001726
     5  N   -0.005800  -0.005756   0.022201   0.010826   0.000509  -0.000851
     6  H    0.002526  -0.001194  -0.014499  -0.001726  -0.000851   0.000997
     7  C    0.005081  -0.016267   0.010820  -0.000684   0.005305   0.010602
     8  H    0.000338  -0.001228  -0.004429   0.000060   0.000245  -0.003038
     9  C   -0.008378   0.011432   0.043687   0.003091  -0.006579   0.006611
    10  H    0.017258   0.001051  -0.013382  -0.011472   0.001318   0.000388
    11  C    0.067292  -0.020614  -0.043039  -0.006386  -0.006163  -0.008866
    12  O    0.001479   0.006632  -0.033017   0.001895  -0.001002  -0.000367
    13  N    7.027388  -0.016303   0.486688  -0.068324  -0.117574   0.003134
    14  H   -0.016303   0.678983  -0.129203   0.046159  -0.044840   0.004734
    15  C    0.486688  -0.129203   5.257603   0.556176  -0.120022  -0.059469
    16  O   -0.068324   0.046159   0.556176   8.032133  -0.000011  -0.010079
    17  N   -0.117574  -0.044840  -0.120022  -0.000011   6.757566   0.002569
    18  H    0.003134   0.004734  -0.059469  -0.010079   0.002569   0.381358
    19  C   -0.032308  -0.006696  -0.185565   0.005601   0.456689  -0.015570
    20  H   -0.009257  -0.004755   0.011406   0.000799  -0.058633   0.019020
    21  C   -0.178633  -0.027450   0.269911  -0.124130  -0.118364   0.174522
    22  H   -0.033814   0.011445   0.015668  -0.000385   0.240801   0.003097
    23  C    0.391947  -0.082921  -0.195778   0.027407   0.496910  -0.006761
    24  O   -0.077801   0.068442   0.012938   0.000735  -0.068272  -0.000208
              19         20         21         22         23         24
     1  N    0.005081   0.000338  -0.008378   0.017258   0.067292   0.001479
     2  H   -0.016267  -0.001228   0.011432   0.001051  -0.020614   0.006632
     3  C    0.010820  -0.004429   0.043687  -0.013382  -0.043039  -0.033017
     4  O   -0.000684   0.000060   0.003091  -0.011472  -0.006386   0.001895
     5  N    0.005305   0.000245  -0.006579   0.001318  -0.006163  -0.001002
     6  H    0.010602  -0.003038   0.006611   0.000388  -0.008866  -0.000367
     7  C    0.026279  -0.001095  -0.016352   0.000373  -0.038265  -0.002531
     8  H   -0.001095  -0.000357   0.005453  -0.000119  -0.002479   0.000008
     9  C   -0.016352   0.005453  -0.076904  -0.002234   0.005464   0.001031
    10  H    0.000373  -0.000119  -0.002234   0.000281  -0.006219  -0.001326
    11  C   -0.038265  -0.002479   0.005464  -0.006219   0.008497  -0.009029
    12  O   -0.002531   0.000008   0.001031  -0.001326  -0.009029   0.008584
    13  N   -0.032308  -0.009257  -0.178633  -0.033814   0.391947  -0.077801
    14  H   -0.006696  -0.004755  -0.027450   0.011445  -0.082921   0.068442
    15  C   -0.185565   0.011406   0.269911   0.015668  -0.195778   0.012938
    16  O    0.005601   0.000799  -0.124130  -0.000385   0.027407   0.000735
    17  N    0.456689  -0.058633  -0.118364   0.240801   0.496910  -0.068272
    18  H   -0.015570   0.019020   0.174522   0.003097  -0.006761  -0.000208
    19  C    5.694285   0.173417   0.085083  -0.026054  -0.028867   0.010976
    20  H    0.173417   0.538701  -0.004850  -0.020136  -0.030892   0.001952
    21  C    0.085083  -0.004850   6.449819  -0.032810  -0.137398   0.015360
    22  H   -0.026054  -0.020136  -0.032810   0.416185  -0.002839   0.029465
    23  C   -0.028867  -0.030892  -0.137398  -0.002839   4.914232   0.408801
    24  O    0.010976   0.001952   0.015360   0.029465   0.408801   8.095842
 Mulliken charges:
               1
     1  N   -0.444072
     2  H    0.519121
     3  C    0.120295
     4  O   -0.454406
     5  N   -0.441073
     6  H    0.513068
     7  C   -0.114259
     8  H    0.389869
     9  C   -0.337383
    10  H    0.413461
    11  C    0.305965
    12  O   -0.470587
    13  N   -0.444072
    14  H    0.519121
    15  C    0.120295
    16  O   -0.454406
    17  N   -0.441073
    18  H    0.513068
    19  C   -0.114259
    20  H    0.389869
    21  C   -0.337383
    22  H    0.413461
    23  C    0.305965
    24  O   -0.470587
 Sum of Mulliken charges =  -0.00000
 Mulliken charges with hydrogens summed into heavy atoms:
               1
     1  N    0.075049
     3  C    0.120295
     4  O   -0.454406
     5  N   -0.027612
     7  C    0.275611
     9  C    0.175686
    11  C    0.305965
    12  O   -0.470587
    13  N    0.075049
    15  C    0.120295
    16  O   -0.454406
    17  N   -0.027612
    19  C    0.275611
    21  C    0.175686
    23  C    0.305965
    24  O   -0.470587
 Electronic spatial extent (au):  <R**2>=           2681.9134
 Charge=             -0.0000 electrons
 Dipole moment (field-independent basis, Debye):
    X=             -0.0000    Y=              0.0000    Z=             -5.1346  Tot=              5.1346
 Quadrupole moment (field-independent basis, Debye-Ang):
   XX=           -102.5615   YY=            -82.2606   ZZ=            -95.0936
   XY=             10.0143   XZ=              0.0000   YZ=             -0.0000
 Traceless Quadrupole moment (field-independent basis, Debye-Ang):
   XX=             -9.2562   YY=             11.0446   ZZ=             -1.7884
   XY=             10.0143   XZ=              0.0000   YZ=             -0.0000
 Octapole moment (field-independent basis, Debye-Ang**2):
  XXX=              0.0000  YYY=             -0.0000  ZZZ=            -42.4503  XYY=             -0.0000
  XXY=              0.0000  XXZ=             14.2680  XZZ=              0.0000  YZZ=             -0.0000
  YYZ=            -21.5839  XYZ=            -24.5472
 Hexadecapole moment (field-independent basis, Debye-Ang**3):
 XXXX=          -1177.1385 YYYY=          -1485.1601 ZZZZ=           -945.9240 XXXY=            110.4668
 XXXZ=             -0.0000 YYYX=             60.5908 YYYZ=             -0.0000 ZZZX=              0.0000
 ZZZY=             -0.0000 XXYY=           -367.0847 XXZZ=           -324.4908 YYZZ=           -407.3870
 XXYZ=             -0.0000 YYXZ=              0.0000 ZZXY=            -21.9737
 N-N= 1.163545734025D+03 E-N=-4.267593721208D+03  KE= 8.264710992619D+02
 PrsmSu:  requested number of processors reduced to:  17 ShMem   1 Linda.
 No NMR shielding tensors so no spin-rotation constants.
 Leave Link  601 at Sun Apr 18 17:48:19 2021, MaxMem=   104857600 cpu:            1762.5 elap:              38.2
 (Enter /s/ls4/users/knvvv/bin/g16sse/l9999.exe)

 Test job not archived.
 1\1\GINC-N157\Stability\RM062X\Gen\C8H8N4O4\KNVVV\18-Apr-2021\0\\#P M0
 62X/GEN Integral=UltraFineGrid SCF=NoSymm Stable=(RExt, Opt) IOp(1/33=
 1)\\Database calculations.\\0,1\N,0,1.376901114,0.839747467,0.73462493
 9\H,0,1.051812405,1.386223848,1.523355628\C,0,1.308982712,1.457529813,
 -0.520654996\O,0,0.920561362,2.611077765,-0.625976731\N,0,2.011422932,
 -1.213208303,-0.098071819\H,0,1.727285511,0.990842685,-2.61199556\C,0,
 2.025736871,-0.697171229,-1.364397399\H,0,2.297516982,-1.391060038,-2.
 145645314\C,0,1.714512349,0.591937798,-1.612487223\H,0,2.129454216,-2.
 201520905,0.056829125\C,0,1.645945031,-0.485205977,1.018718301\O,0,1.5
 61116018,-0.971816376,2.129809048\N,0,-1.355460893,-0.836045936,0.7346
 24939\H,0,-1.030372184,-1.382522317,1.523355628\C,0,-1.287542491,-1.45
 3828282,-0.520654996\O,0,-0.899121141,-2.607376234,-0.625976731\N,0,-1
 .989982711,1.216909834,-0.098071819\H,0,-1.70584529,-0.987141154,-2.61
 199556\C,0,-2.00429665,0.70087276,-1.364397399\H,0,-2.276076761,1.3947
 61569,-2.145645314\C,0,-1.693072128,-0.588236267,-1.612487223\H,0,-2.1
 08013995,2.205222436,0.056829125\C,0,-1.62450481,0.488907508,1.0187183
 01\O,0,-1.539675797,0.975517907,2.129809048\\Version=ES64L-G16RevA.03\
 State=1-A\HF=-829.7372992\RMSD=2.941e-09\Dipole=0.,0.,-2.0200978\Quadr
 upole=7.4870791,-6.1574738,-1.3296053,-8.1142418,0.,0.\PG=C02 [X(C8H8N
 4O4)]\\@


 10 WHATSOEVER THY HAND FINDETH TO DO, DO IT WITH THY  
 MIGHT. FOR THERE IS NO WORK, NOR DEVICE, NOR KNOWLEDGE, NOR  
 WISDOM, IN THE GRAVE, WHITHER THOU GOEST.                    
 11 I RETURNED AND SAW UNDER THE SUN, THAT THE RACE IS NOT TO 
 THE SWIFT, NOR THE BATTLE TO THE STRONG, NEITHER YET BREAD TO
 THE WISE, NOR YET RICHES TO MEN OF UNDERSTANDING, NOR YET    
 FAVOR TO MEN OF SKILL. BUT TIME AND CHANCE HAPPEN TO THEM ALL.
 12 FOR MAN ALSO KNOWETH NOT HIS TIME. AS THE FISHES   
 THAT ARE TAKEN IN AN EVIL NET, AND AS THE BIRDS THAT ARE     
 CAUGHT IN THE SNARE. SO ARE THE SONS OF MEN SNARED IN AN EVIL
 TIME, WHEN IT FALLETH SUDDENLY UPON THEM.
                                         ECCLESIASTES 9
 Job cpu time:      10 days  9 hours 19 minutes 11.1 seconds.
 Elapsed time:       0 days 16 hours 15 minutes 36.2 seconds.
 File lengths (MBytes):  RWF=   3377 Int=      0 D2E=      0 Chk=    191 Scr=      1
 Normal termination of Gaussian 16 at Sun Apr 18 17:48:21 2021.
