 Entering Gaussian System, Link 0=/s/ls4/users/knvvv/bin/g16sse/g16
 Input=data/database/M062X--def2-QZVPPD--21_26_G21IP.gjf
 Output=data/database/M062X--def2-QZVPPD--21_26_G21IP.log
 Initial command:
 /s/ls4/users/knvvv/bin/g16sse/l1.exe "/s/ls4/users/knvvv/bin/scratch/Gau-27361.inp" -scrdir="/s/ls4/users/knvvv/bin/scratch/"
 Entering Link 1 = /s/ls4/users/knvvv/bin/g16sse/l1.exe PID=     27362.
  
 Copyright (c) 1988,1990,1992,1993,1995,1998,2003,2009,2016,
            Gaussian, Inc.  All Rights Reserved.
  
 This is part of the Gaussian(R) 16 program.  It is based on
 the Gaussian(R) 09 system (copyright 2009, Gaussian, Inc.),
 the Gaussian(R) 03 system (copyright 2003, Gaussian, Inc.),
 the Gaussian(R) 98 system (copyright 1998, Gaussian, Inc.),
 the Gaussian(R) 94 system (copyright 1995, Gaussian, Inc.),
 the Gaussian 92(TM) system (copyright 1992, Gaussian, Inc.),
 the Gaussian 90(TM) system (copyright 1990, Gaussian, Inc.),
 the Gaussian 88(TM) system (copyright 1988, Gaussian, Inc.),
 the Gaussian 86(TM) system (copyright 1986, Carnegie Mellon
 University), and the Gaussian 82(TM) system (copyright 1983,
 Carnegie Mellon University). Gaussian is a federally registered
 trademark of Gaussian, Inc.
  
 This software contains proprietary and confidential information,
 including trade secrets, belonging to Gaussian, Inc.
  
 This software is provided under written license and may be
 used, copied, transmitted, or stored only in accord with that
 written license.
  
 The following legend is applicable only to US Government
 contracts under FAR:
  
                    RESTRICTED RIGHTS LEGEND
  
 Use, reproduction and disclosure by the US Government is
 subject to restrictions as set forth in subparagraphs (a)
 and (c) of the Commercial Computer Software - Restricted
 Rights clause in FAR 52.227-19.
  
 Gaussian, Inc.
 340 Quinnipiac St., Bldg. 40, Wallingford CT 06492
  
  
 ---------------------------------------------------------------
 Warning -- This program may not be used in any manner that
 competes with the business of Gaussian, Inc. or will provide
 assistance to any competitor of Gaussian, Inc.  The licensee
 of this program is prohibited from giving any competitor of
 Gaussian, Inc. access to this program.  By using this program,
 the user acknowledges that Gaussian, Inc. is engaged in the
 business of creating and licensing software in the field of
 computational chemistry and represents and warrants to the
 licensee that it is not a competitor of Gaussian, Inc. and that
 it will not use this program in any manner prohibited above.
 ---------------------------------------------------------------
  

 Cite this work as:
 Gaussian 16, Revision A.03,
 M. J. Frisch, G. W. Trucks, H. B. Schlegel, G. E. Scuseria, 
 M. A. Robb, J. R. Cheeseman, G. Scalmani, V. Barone, 
 G. A. Petersson, H. Nakatsuji, X. Li, M. Caricato, A. V. Marenich, 
 J. Bloino, B. G. Janesko, R. Gomperts, B. Mennucci, H. P. Hratchian, 
 J. V. Ortiz, A. F. Izmaylov, J. L. Sonnenberg, D. Williams-Young, 
 F. Ding, F. Lipparini, F. Egidi, J. Goings, B. Peng, A. Petrone, 
 T. Henderson, D. Ranasinghe, V. G. Zakrzewski, J. Gao, N. Rega, 
 G. Zheng, W. Liang, M. Hada, M. Ehara, K. Toyota, R. Fukuda, 
 J. Hasegawa, M. Ishida, T. Nakajima, Y. Honda, O. Kitao, H. Nakai, 
 T. Vreven, K. Throssell, J. A. Montgomery, Jr., J. E. Peralta, 
 F. Ogliaro, M. J. Bearpark, J. J. Heyd, E. N. Brothers, K. N. Kudin, 
 V. N. Staroverov, T. A. Keith, R. Kobayashi, J. Normand, 
 K. Raghavachari, A. P. Rendell, J. C. Burant, S. S. Iyengar, 
 J. Tomasi, M. Cossi, J. M. Millam, M. Klene, C. Adamo, R. Cammi, 
 J. W. Ochterski, R. L. Martin, K. Morokuma, O. Farkas, 
 J. B. Foresman, and D. J. Fox, Gaussian, Inc., Wallingford CT, 2016.
 
 ******************************************
 Gaussian 16:  ES64L-G16RevA.03 25-Dec-2016
                17-Apr-2021 
 ******************************************
 %RWF=temp23_19606,70GB
 %nprocshared=48
 Will use up to   48 processors via shared memory.
 Default route: MaxDisk=80GB
 ----------------------------------------------------------------------
 #P M062X/GEN Integral=UltraFineGrid SCF=NoSymm Stable=(RExt, Opt) IOp(
 1/33=1)
 ----------------------------------------------------------------------
 1/33=1,38=1,172=1/1;
 2/12=2,17=6,18=5,40=1/2;
 3/5=7,11=2,25=1,30=1,74=-55,75=-5/1,2,3;
 4/9=2/1;
 5/5=2,38=5/2;
 6/7=2,8=2,9=2,10=2,28=1/1;
 8/6=1,10=90,11=11/1;
 9/8=-3,42=1,46=1/14;
 5/5=2,8=3,17=40,38=5/8(-2);
 6/7=2,8=2,9=2,10=2,28=1/1;
 99/5=1,9=1/99;
 Leave Link    1 at Sat Apr 17 19:10:44 2021, MaxMem=           0 cpu:               9.9 elap:               0.2
 (Enter /s/ls4/users/knvvv/bin/g16sse/l101.exe)
 ONIOM data not found on unit 2.
 ----------------------
 Database calculations.
 ----------------------
 TstMul:  ICh=     0
 TstMul:  Mul=     1
 TstMul:  ICh=     0
 TstMul:  Mul=     1
 Symbolic Z-matrix:
 Charge =  0 Multiplicity = 1
 C                     0.6625    0.        0. 
 C                    -0.6625    0.        0. 
 H                     1.23149  -0.92119   0. 
 H                     1.23149   0.92119   0. 
 H                    -1.23149  -0.92119   0. 
 H                    -1.23149   0.92119   0. 
 
 RdStrC is calling ZToCFu for IStruc=1 NZ=     6.
 PrtBox:  NBox=     1 Levels=  1 BoxLen=    8.00 SMaxX=        4.65
          Shift=            2.327177            1.740798            0.000000
 Box      1 Number                   0 centers from      1 to      6:
 After GenITR:
 ITRead=  0  0  0  0  0  0
 MicOpt= -1 -1 -1 -1 -1 -1
 ITRead=  0  0  0  0  0  0
 MicOpt= -1 -1 -1 -1 -1 -1
 NAtoms=      6 NQM=        6 NQMF=       0 NMMI=      0 NMMIF=      0
                NMic=       0 NMicF=      0.
                    Isotopes and Nuclear Properties:
 (Nuclear quadrupole moments (NQMom) in fm**2, nuclear magnetic moments (NMagM)
  in nuclear magnetons)

  Atom         1           2           3           4           5           6
 IAtWgt=          12          12           1           1           1           1
 AtmWgt=  12.0000000  12.0000000   1.0078250   1.0078250   1.0078250   1.0078250
 NucSpn=           0           0           1           1           1           1
 AtZEff=  -0.0000000  -0.0000000  -0.0000000  -0.0000000  -0.0000000  -0.0000000
 NQMom=    0.0000000   0.0000000   0.0000000   0.0000000   0.0000000   0.0000000
 NMagM=    0.0000000   0.0000000   2.7928460   2.7928460   2.7928460   2.7928460
 AtZNuc=   6.0000000   6.0000000   1.0000000   1.0000000   1.0000000   1.0000000
 No MM parameters found.
 Leave Link  101 at Sat Apr 17 19:10:44 2021, MaxMem=   104857600 cpu:               6.8 elap:               0.2
 (Enter /s/ls4/users/knvvv/bin/g16sse/l202.exe)
                          Input orientation:                          
 ---------------------------------------------------------------------
 Center     Atomic      Atomic             Coordinates (Angstroms)
 Number     Number       Type             X           Y           Z
 ---------------------------------------------------------------------
      1          6           0        0.662504    0.000000    0.000000
      2          6           0       -0.662504    0.000000    0.000000
      3          1           0        1.231489   -0.921191    0.000000
      4          1           0        1.231489    0.921191    0.000000
      5          1           0       -1.231489   -0.921191    0.000000
      6          1           0       -1.231489    0.921191    0.000000
 ---------------------------------------------------------------------
                    Distance matrix (angstroms):
                    1          2          3          4          5
     1  C    0.000000
     2  C    1.325007   0.000000
     3  H    1.082745   2.106134   0.000000
     4  H    1.082745   2.106134   1.842381   0.000000
     5  H    2.106134   1.082745   2.462978   3.075813   0.000000
     6  H    2.106134   1.082745   3.075813   2.462978   1.842381
                    6
     6  H    0.000000
 Stoichiometry    C2H4
 Framework group  D2H[C2"(C.C),SG(H4)]
 Deg. of freedom     3
 Full point group                 D2H     NOp   8
 Largest Abelian subgroup         D2H     NOp   8
 Largest concise Abelian subgroup D2      NOp   4
                         Standard orientation:                         
 ---------------------------------------------------------------------
 Center     Atomic      Atomic             Coordinates (Angstroms)
 Number     Number       Type             X           Y           Z
 ---------------------------------------------------------------------
      1          6           0       -0.000000    0.000000    0.662504
      2          6           0        0.000000    0.000000   -0.662504
      3          1           0        0.000000    0.921191    1.231489
      4          1           0       -0.000000   -0.921191    1.231489
      5          1           0        0.000000    0.921191   -1.231489
      6          1           0       -0.000000   -0.921191   -1.231489
 ---------------------------------------------------------------------
 Rotational constants (GHZ):         147.7315053          30.3574785          25.1826693
 Leave Link  202 at Sat Apr 17 19:10:45 2021, MaxMem=   104857600 cpu:              37.2 elap:               0.8
 (Enter /s/ls4/users/knvvv/bin/g16sse/l301.exe)
 General basis read from cards:  (5D, 7F)
 Centers:       3      4      5      6
 S 4 1.00
     Exponent=  1.9069169000D+02 Coefficients=  7.0815167000D-04
     Exponent=  2.8605532000D+01 Coefficients=  5.4678827000D-03
     Exponent=  6.5095943000D+00 Coefficients=  2.7966605000D-02
     Exponent=  1.8412455000D+00 Coefficients=  1.0764538000D-01
 S 1 1.00
     Exponent=  5.9853725000D-01 Coefficients=  1.0000000000D+00
 S 1 1.00
     Exponent=  2.1397624000D-01 Coefficients=  1.0000000000D+00
 S 1 1.00
     Exponent=  8.0316286000D-02 Coefficients=  1.0000000000D+00
 P 1 1.00
     Exponent=  2.2920000000D+00 Coefficients=  1.0000000000D+00
 P 1 1.00
     Exponent=  8.3800000000D-01 Coefficients=  1.0000000000D+00
 P 1 1.00
     Exponent=  2.9200000000D-01 Coefficients=  1.0000000000D+00
 P 1 1.00
     Exponent=  8.4063199228D-02 Coefficients=  1.0000000000D+00
 D 1 1.00
     Exponent=  2.0620000000D+00 Coefficients=  1.0000000000D+00
 D 1 1.00
     Exponent=  6.6200000000D-01 Coefficients=  1.0000000000D+00
 F 1 1.00
     Exponent=  1.3970000000D+00 Coefficients=  1.0000000000D+00
 ****
 Centers:       1      2
 S 8 1.00
     Exponent=  6.7025071029D+04 Coefficients=  3.8736308501D-05
     Exponent=  1.0039986538D+04 Coefficients=  3.0107917575D-04
     Exponent=  2.2849316911D+03 Coefficients=  1.5787918095D-03
     Exponent=  6.4714122130D+02 Coefficients=  6.6087087195D-03
     Exponent=  2.1109472335D+02 Coefficients=  2.3367123250D-02
     Exponent=  7.6177643862D+01 Coefficients=  7.0420716898D-02
     Exponent=  2.9633839163D+01 Coefficients=  1.7360344953D-01
     Exponent=  1.2187785081D+01 Coefficients=  3.2292305648D-01
 S 2 1.00
     Exponent=  5.3026006299D+01 Coefficients=  7.4897404492D-02
     Exponent=  1.5258502776D+01 Coefficients=  7.6136220983D-01
 S 1 1.00
     Exponent=  5.2403957464D+00 Coefficients=  1.0000000000D+00
 S 1 1.00
     Exponent=  2.2905022379D+00 Coefficients=  1.0000000000D+00
 S 1 1.00
     Exponent=  6.9673283006D-01 Coefficients=  1.0000000000D+00
 S 1 1.00
     Exponent=  2.7599337363D-01 Coefficients=  1.0000000000D+00
 S 1 1.00
     Exponent=  1.0739884389D-01 Coefficients=  1.0000000000D+00
 S 1 1.00
     Exponent=  4.4981404899D-02 Coefficients=  1.0000000000D+00
 P 5 1.00
     Exponent=  1.0512555082D+02 Coefficients=  8.4647553844D-04
     Exponent=  2.4884461066D+01 Coefficients=  6.6274038534D-03
     Exponent=  7.8637230826D+00 Coefficients=  3.0120390419D-02
     Exponent=  2.8407001835D+00 Coefficients=  9.9951435476D-02
     Exponent=  1.1227137335D+00 Coefficients=  2.3826299282D-01
 P 1 1.00
     Exponent=  4.6050725555D-01 Coefficients=  1.0000000000D+00
 P 1 1.00
     Exponent=  1.8937530913D-01 Coefficients=  1.0000000000D+00
 P 1 1.00
     Exponent=  7.5983791611D-02 Coefficients=  1.0000000000D+00
 D 1 1.00
     Exponent=  1.8480000000D+00 Coefficients=  1.0000000000D+00
 D 1 1.00
     Exponent=  6.4900000000D-01 Coefficients=  1.0000000000D+00
 D 1 1.00
     Exponent=  2.2800000000D-01 Coefficients=  1.0000000000D+00
 D 1 1.00
     Exponent=  7.6889830417D-02 Coefficients=  1.0000000000D+00
 F 1 1.00
     Exponent=  1.4190000000D+00 Coefficients=  1.0000000000D+00
 F 1 1.00
     Exponent=  4.8500000000D-01 Coefficients=  1.0000000000D+00
 G 1 1.00
     Exponent=  1.0110000000D+00 Coefficients=  1.0000000000D+00
 ****
 Ernie: Thresh=  0.10000D-02 Tol=  0.10000D-05 Strict=F.
 There are    62 symmetry adapted cartesian basis functions of AG  symmetry.
 There are    21 symmetry adapted cartesian basis functions of B1G symmetry.
 There are    29 symmetry adapted cartesian basis functions of B2G symmetry.
 There are    43 symmetry adapted cartesian basis functions of B3G symmetry.
 There are    21 symmetry adapted cartesian basis functions of AU  symmetry.
 There are    62 symmetry adapted cartesian basis functions of B1U symmetry.
 There are    43 symmetry adapted cartesian basis functions of B2U symmetry.
 There are    29 symmetry adapted cartesian basis functions of B3U symmetry.
 There are    49 symmetry adapted basis functions of AG  symmetry.
 There are    19 symmetry adapted basis functions of B1G symmetry.
 There are    25 symmetry adapted basis functions of B2G symmetry.
 There are    36 symmetry adapted basis functions of B3G symmetry.
 There are    19 symmetry adapted basis functions of AU  symmetry.
 There are    49 symmetry adapted basis functions of B1U symmetry.
 There are    36 symmetry adapted basis functions of B2U symmetry.
 There are    25 symmetry adapted basis functions of B3U symmetry.
   258 basis functions,   362 primitive gaussians,   310 cartesian basis functions
     8 alpha electrons        8 beta electrons
       nuclear repulsion energy        33.4856183975 Hartrees.
 IExCor= 4336 DFT=T Ex+Corr=M062X ExCW=0 ScaHFX=  0.540000
 ScaDFX=  1.000000  1.000000  1.000000  1.000000 ScalE2=  1.000000  1.000000
 IRadAn=      5 IRanWt=     -1 IRanGd=            0 ICorTp=0 IEmpDi=  4
 NAtoms=    6 NActive=    6 NUniq=    2 SFac= 4.00D+00 NAtFMM=   60 NAOKFM=F Big=F
 Integral buffers will be    131072 words long.
 Raffenetti 2 integral format.
 Two-electron integral symmetry is turned on.
 Leave Link  301 at Sat Apr 17 19:10:45 2021, MaxMem=   104857600 cpu:               9.3 elap:               0.2
 (Enter /s/ls4/users/knvvv/bin/g16sse/l302.exe)
 NPDir=0 NMtPBC=     1 NCelOv=     1 NCel=       1 NClECP=     1 NCelD=      1
         NCelK=      1 NCelE2=     1 NClLst=     1 CellRange=     0.0.
 One-electron integrals computed using PRISM.
 One-electron integral symmetry used in STVInt
 PrsmSu:  requested number of processors reduced to:   4 ShMem   1 Linda.
 PrsmSu:  requested number of processors reduced to:  21 ShMem   1 Linda.
 NBasis=   258 RedAO= T EigKep=  1.63D-06  NBF=    49    19    25    36    19    49    36    25
 NBsUse=   257 1.00D-06 EigRej=  1.99D-07 NBFU=    49    19    25    36    19    48    36    25
 Precomputing XC quadrature grid using
 IXCGrd= 4 IRadAn=           5 IRanWt=          -1 IRanGd=           0 AccXCQ= 0.00D+00.
 Generated NRdTot=       0 NPtTot=           0 NUsed=           0 NTot=          32
 NSgBfM=   310   310   310   310   310 MxSgAt=     6 MxSgA2=     6.
 Leave Link  302 at Sat Apr 17 19:11:05 2021, MaxMem=   104857600 cpu:             901.1 elap:              19.3
 (Enter /s/ls4/users/knvvv/bin/g16sse/l303.exe)
 DipDrv:  MaxL=1.
 Leave Link  303 at Sat Apr 17 19:11:06 2021, MaxMem=   104857600 cpu:              38.4 elap:               0.8
 (Enter /s/ls4/users/knvvv/bin/g16sse/l401.exe)
 SCF N**3 symmetry information disabled.
 ExpMin= 4.50D-02 ExpMax= 6.70D+04 ExpMxC= 6.47D+02 IAcc=3 IRadAn=         5 AccDes= 0.00D+00
 Harris functional with IExCor= 1009 and IRadAn=       5 diagonalized for initial guess.
 HarFok:  IExCor= 1009 AccDes= 0.00D+00 IRadAn=         5 IDoV= 1 UseB2=F ITyADJ=14
 ICtDFT=  3500011 ScaDFX=  1.000000  1.000000  1.000000  1.000000
 FoFCou: FMM=F IPFlag=           0 FMFlag=      100000 FMFlg1=           0
         NFxFlg=           0 DoJE=T BraDBF=F KetDBF=T FulRan=T
         wScrn=  0.000000 ICntrl=       500 IOpCl=  0 I1Cent=   200000004 NGrid=           0
         NMat0=    1 NMatS0=      1 NMatT0=    0 NMatD0=    1 NMtDS0=    0 NMtDT0=    0
 Petite list used in FoFCou.
 CoulSu:  requested number of processors reduced to:  21 ShMem   1 Linda.
 CoulSu:  requested number of processors reduced to:  21 ShMem   1 Linda.
 CoulSu:  requested number of processors reduced to:  21 ShMem   1 Linda.
 CoulSu:  requested number of processors reduced to:  21 ShMem   1 Linda.
 Harris En= -78.5897958600889    
 JPrj=0 DoOrth=F DoCkMO=F.
 Initial guess orbital symmetries:
       Occupied  (AG) (B1U) (AG) (B1U) (B2U) (AG) (B3G) (B3U)
       Virtual   (B2G) (AG) (B1U) (B2U) (AG) (B3G) (AG) (B3U) (B1G)
                 (B2U) (B1U) (B2G) (B1U) (AG) (AU) (B1U) (B2U)
                 (B3U) (B2U) (B3U) (AG) (B3G) (B1U) (AG) (B3G)
                 (B1G) (AG) (B2G) (B3G) (B1U) (B2U) (B2G) (B1U)
                 (AG) (AU) (B1G) (B2U) (B1U) (B3U) (B1U) (B3G)
                 (AG) (AG) (B3G) (AU) (B2G) (B2U) (B3U) (AG) (B2U)
                 (B1U) (B3G) (B3U) (B1G) (B1U) (B3G) (B2U) (AG)
                 (B2G) (B2G) (B1U) (AG) (B1U) (AU) (B2U) (B3G)
                 (AG) (B1U) (AG) (B2U) (B3G) (B1U) (B3U) (B3G)
                 (B1G) (AG) (B3U) (AG) (B2U) (B1G) (AU) (B3G) (B2G)
                 (AG) (B2U) (B1U) (AU) (B1U) (B2U) (B3U) (B2G)
                 (B1G) (B1U) (B3G) (AG) (B3U) (B2G) (AU) (B2G)
                 (AG) (B2U) (B3U) (B1U) (B3G) (B1G) (AG) (B3G)
                 (B1U) (B1U) (AG) (B2U) (B2G) (B3U) (B3G) (B2U)
                 (AU) (B1U) (AG) (B1U) (B3U) (AG) (B1G) (B2U) (B3G)
                 (B2G) (AU) (AG) (B2U) (AG) (B3G) (B1U) (B2G) (B1U)
                 (B3G) (B2U) (B3G) (AG) (B3U) (B2U) (B1U) (B1G)
                 (AG) (B1G) (B3U) (B2U) (B2G) (AU) (B1G) (B1U)
                 (B3U) (AG) (AU) (B2U) (B3G) (B2G) (B1U) (B3G)
                 (AG) (AU) (B2G) (B1G) (B2U) (B3G) (B1U) (B3U)
                 (B3U) (B3G) (B2U) (B2G) (AG) (AG) (AU) (AG) (B2U)
                 (B1U) (B1U) (B1G) (B3U) (B1U) (AU) (B3G) (B2G)
                 (B1U) (AG) (B3G) (AG) (B3U) (B2U) (B2G) (B1U)
                 (B1G) (AU) (B3U) (B2G) (B2U) (B1U) (B1G) (AG)
                 (B3G) (AG) (B1U) (B3G) (AG) (B2U) (AU) (B1U) (AG)
                 (B3U) (B1G) (B1U) (B3G) (B2G) (B1U) (AG) (B2U)
                 (B1G) (B3G) (B2U) (B3U) (AU) (B2G) (B2G) (B3G)
                 (AU) (AG) (B2U) (B1U) (B2U) (AG) (B3U) (B1G) (B3G)
                 (B1U) (AU) (AG) (B3G) (B2G) (B1U) (B2U) (B3G)
                 (B2U) (B1U) (B3G) (AG) (B1U) (AG) (B1U) (AG) (B1U)
 The electronic state of the initial guess is 1-AG.
 Leave Link  401 at Sat Apr 17 19:11:07 2021, MaxMem=   104857600 cpu:              37.2 elap:               1.0
 (Enter /s/ls4/users/knvvv/bin/g16sse/l502.exe)
 Integral symmetry usage will be decided dynamically.
 Closed shell SCF:
 Using DIIS extrapolation, IDIIS=  1040.
 NGot=   104857600 LenX=   104643424 LenY=   104546883
 Requested convergence on RMS density matrix=1.00D-08 within 128 cycles.
 Requested convergence on MAX density matrix=1.00D-06.
 Requested convergence on             energy=1.00D-06.
 No special actions if energy rises.
 Fock matrices will be formed incrementally for  20 cycles.

 Cycle   1  Pass 1  IDiag  1:
 FoFJK:  IHMeth= 1 ICntrl=       0 DoSepK=F KAlg= 0 I1Cent=           0 FoldK=F
 IRaf= 990000000 NMat=       1 IRICut=       1 DoRegI=T DoRafI=F ISym2E= 1 IDoP0=0 IntGTp=1.
 FoFCou: FMM=F IPFlag=           0 FMFlag=      100000 FMFlg1=           0
         NFxFlg=           0 DoJE=F BraDBF=F KetDBF=F FulRan=T
         wScrn=  0.000000 ICntrl=         0 IOpCl=  0 I1Cent=           0 NGrid=           0
         NMat0=    1 NMatS0=      1 NMatT0=    0 NMatD0=    1 NMtDS0=    0 NMtDT0=    0
 Petite list used in FoFCou.
 CoulSu:  requested number of processors reduced to:  21 ShMem   1 Linda.
 E= -78.4778644484830    
 DIIS: error= 4.03D-02 at cycle   1 NSaved=   1.
 NSaved= 1 IEnMin= 1 EnMin= -78.4778644484830     IErMin= 1 ErrMin= 4.03D-02
 ErrMax= 4.03D-02  0.00D+00 EMaxC= 1.00D-01 BMatC= 1.36D-01 BMatP= 1.36D-01
 IDIUse=3 WtCom= 5.97D-01 WtEn= 4.03D-01
 Coeff-Com:  0.100D+01
 Coeff-En:   0.100D+01
 Coeff:      0.100D+01
 Gap=     0.376 Goal=   None    Shift=    0.000
 GapD=    0.376 DampG=1.000 DampE=0.500 DampFc=0.5000 IDamp=-1.
 Damping current iteration by 5.00D-01
 RMSDP=2.07D-03 MaxDP=5.68D-02              OVMax= 1.81D-01

 Cycle   2  Pass 1  IDiag  1:
 RMSU=  8.63D-04    CP:  8.80D-01
 CoulSu:  requested number of processors reduced to:  21 ShMem   1 Linda.
 E= -78.5317265287260     Delta-E=       -0.053862080243 Rises=F Damp=T
 DIIS: error= 1.35D-02 at cycle   2 NSaved=   2.
 NSaved= 2 IEnMin= 2 EnMin= -78.5317265287260     IErMin= 2 ErrMin= 1.35D-02
 ErrMax= 1.35D-02  0.00D+00 EMaxC= 1.00D-01 BMatC= 1.21D-02 BMatP= 1.36D-01
 IDIUse=3 WtCom= 8.65D-01 WtEn= 1.35D-01
 Coeff-Com: -0.195D+00 0.119D+01
 Coeff-En:   0.000D+00 0.100D+01
 Coeff:     -0.168D+00 0.117D+01
 Gap=     0.359 Goal=   None    Shift=    0.000
 RMSDP=2.43D-03 MaxDP=7.59D-02 DE=-5.39D-02 OVMax= 8.93D-02

 Cycle   3  Pass 1  IDiag  1:
 RMSU=  1.99D-03    CP:  7.62D-01  2.48D+00
 CoulSu:  requested number of processors reduced to:  21 ShMem   1 Linda.
 E= -78.5801820771953     Delta-E=       -0.048455548469 Rises=F Damp=F
 DIIS: error= 3.50D-03 at cycle   3 NSaved=   3.
 NSaved= 3 IEnMin= 3 EnMin= -78.5801820771953     IErMin= 3 ErrMin= 3.50D-03
 ErrMax= 3.50D-03  0.00D+00 EMaxC= 1.00D-01 BMatC= 4.94D-04 BMatP= 1.21D-02
 IDIUse=3 WtCom= 9.65D-01 WtEn= 3.50D-02
 Coeff-Com: -0.734D-01 0.169D+00 0.904D+00
 Coeff-En:   0.000D+00 0.000D+00 0.100D+01
 Coeff:     -0.708D-01 0.164D+00 0.907D+00
 Gap=     0.353 Goal=   None    Shift=    0.000
 RMSDP=1.43D-04 MaxDP=8.25D-03 DE=-4.85D-02 OVMax= 7.65D-03

 Cycle   4  Pass 1  IDiag  1:
 RMSU=  1.27D-04    CP:  7.52D-01  2.51D+00  9.84D-01
 CoulSu:  requested number of processors reduced to:  21 ShMem   1 Linda.
 E= -78.5806702485384     Delta-E=       -0.000488171343 Rises=F Damp=F
 DIIS: error= 3.35D-04 at cycle   4 NSaved=   4.
 NSaved= 4 IEnMin= 4 EnMin= -78.5806702485384     IErMin= 4 ErrMin= 3.35D-04
 ErrMax= 3.35D-04  0.00D+00 EMaxC= 1.00D-01 BMatC= 4.71D-06 BMatP= 4.94D-04
 IDIUse=3 WtCom= 9.97D-01 WtEn= 3.35D-03
 Coeff-Com:  0.212D-04 0.895D-03 0.697D-01 0.929D+00
 Coeff-En:   0.000D+00 0.000D+00 0.000D+00 0.100D+01
 Coeff:      0.212D-04 0.892D-03 0.695D-01 0.930D+00
 Gap=     0.354 Goal=   None    Shift=    0.000
 RMSDP=4.39D-05 MaxDP=1.83D-03 DE=-4.88D-04 OVMax= 7.56D-04

 Cycle   5  Pass 1  IDiag  1:
 RMSU=  2.66D-05    CP:  7.52D-01  2.50D+00  9.67D-01  1.00D+00
 CoulSu:  requested number of processors reduced to:  21 ShMem   1 Linda.
 E= -78.5806742939108     Delta-E=       -0.000004045372 Rises=F Damp=F
 DIIS: error= 4.04D-05 at cycle   5 NSaved=   5.
 NSaved= 5 IEnMin= 5 EnMin= -78.5806742939108     IErMin= 5 ErrMin= 4.04D-05
 ErrMax= 4.04D-05  0.00D+00 EMaxC= 1.00D-01 BMatC= 1.29D-07 BMatP= 4.71D-06
 IDIUse=1 WtCom= 1.00D+00 WtEn= 0.00D+00
 Coeff-Com:  0.276D-02-0.607D-02-0.225D-01 0.725D-01 0.953D+00
 Coeff:      0.276D-02-0.607D-02-0.225D-01 0.725D-01 0.953D+00
 Gap=     0.354 Goal=   None    Shift=    0.000
 RMSDP=3.61D-06 MaxDP=2.52D-04 DE=-4.05D-06 OVMax= 1.15D-04

 Cycle   6  Pass 1  IDiag  1:
 RMSU=  1.51D-06    CP:  7.52D-01  2.50D+00  9.67D-01  1.02D+00  1.08D+00
 CoulSu:  requested number of processors reduced to:  21 ShMem   1 Linda.
 E= -78.5806744055612     Delta-E=       -0.000000111650 Rises=F Damp=F
 DIIS: error= 4.85D-06 at cycle   6 NSaved=   6.
 NSaved= 6 IEnMin= 6 EnMin= -78.5806744055612     IErMin= 6 ErrMin= 4.85D-06
 ErrMax= 4.85D-06  0.00D+00 EMaxC= 1.00D-01 BMatC= 1.19D-09 BMatP= 1.29D-07
 IDIUse=1 WtCom= 1.00D+00 WtEn= 0.00D+00
 Coeff-Com: -0.230D-03 0.376D-03 0.134D-02-0.834D-02-0.532D-01 0.106D+01
 Coeff:     -0.230D-03 0.376D-03 0.134D-02-0.834D-02-0.532D-01 0.106D+01
 Gap=     0.354 Goal=   None    Shift=    0.000
 RMSDP=1.39D-06 MaxDP=6.04D-05 DE=-1.12D-07 OVMax= 1.86D-05

 Cycle   7  Pass 1  IDiag  1:
 RMSU=  4.69D-07    CP:  7.52D-01  2.50D+00  9.68D-01  1.02D+00  1.06D+00
                    CP:  1.16D+00
 CoulSu:  requested number of processors reduced to:  21 ShMem   1 Linda.
 E= -78.5806744071734     Delta-E=       -0.000000001612 Rises=F Damp=F
 DIIS: error= 1.00D-06 at cycle   7 NSaved=   7.
 NSaved= 7 IEnMin= 7 EnMin= -78.5806744071734     IErMin= 7 ErrMin= 1.00D-06
 ErrMax= 1.00D-06  0.00D+00 EMaxC= 1.00D-01 BMatC= 2.17D-11 BMatP= 1.19D-09
 IDIUse=1 WtCom= 1.00D+00 WtEn= 0.00D+00
 Coeff-Com: -0.366D-04 0.814D-04 0.110D-03-0.208D-02-0.146D-01 0.101D-01
 Coeff-Com:  0.101D+01
 Coeff:     -0.366D-04 0.814D-04 0.110D-03-0.208D-02-0.146D-01 0.101D-01
 Coeff:      0.101D+01
 Gap=     0.354 Goal=   None    Shift=    0.000
 RMSDP=2.37D-07 MaxDP=9.23D-06 DE=-1.61D-09 OVMax= 3.64D-06

 Cycle   8  Pass 1  IDiag  1:
 RMSU=  5.07D-08    CP:  7.52D-01  2.50D+00  9.67D-01  1.02D+00  1.06D+00
                    CP:  1.17D+00  1.03D+00
 CoulSu:  requested number of processors reduced to:  21 ShMem   1 Linda.
 E= -78.5806744072143     Delta-E=       -0.000000000041 Rises=F Damp=F
 DIIS: error= 6.98D-08 at cycle   8 NSaved=   8.
 NSaved= 8 IEnMin= 8 EnMin= -78.5806744072143     IErMin= 8 ErrMin= 6.98D-08
 ErrMax= 6.98D-08  0.00D+00 EMaxC= 1.00D-01 BMatC= 2.63D-13 BMatP= 2.17D-11
 IDIUse=1 WtCom= 1.00D+00 WtEn= 0.00D+00
 Coeff-Com:  0.155D-05-0.229D-05-0.592D-05 0.337D-04 0.808D-03-0.481D-03
 Coeff-Com: -0.131D+00 0.113D+01
 Coeff:      0.155D-05-0.229D-05-0.592D-05 0.337D-04 0.808D-03-0.481D-03
 Coeff:     -0.131D+00 0.113D+01
 Gap=     0.354 Goal=   None    Shift=    0.000
 RMSDP=1.93D-08 MaxDP=8.94D-07 DE=-4.09D-11 OVMax= 4.02D-07

 Cycle   9  Pass 1  IDiag  1:
 RMSU=  4.55D-09    CP:  7.52D-01  2.50D+00  9.67D-01  1.02D+00  1.06D+00
                    CP:  1.17D+00  1.05D+00  1.08D+00
 CoulSu:  requested number of processors reduced to:  21 ShMem   1 Linda.
 E= -78.5806744072148     Delta-E=       -0.000000000001 Rises=F Damp=F
 DIIS: error= 9.98D-09 at cycle   9 NSaved=   9.
 NSaved= 9 IEnMin= 9 EnMin= -78.5806744072148     IErMin= 9 ErrMin= 9.98D-09
 ErrMax= 9.98D-09  0.00D+00 EMaxC= 1.00D-01 BMatC= 1.86D-15 BMatP= 2.63D-13
 IDIUse=1 WtCom= 1.00D+00 WtEn= 0.00D+00
 Coeff-Com:  0.272D-06-0.741D-06-0.851D-06 0.214D-04 0.719D-04-0.202D-03
 Coeff-Com:  0.548D-02-0.116D+00 0.111D+01
 Coeff:      0.272D-06-0.741D-06-0.851D-06 0.214D-04 0.719D-04-0.202D-03
 Coeff:      0.548D-02-0.116D+00 0.111D+01
 Gap=     0.354 Goal=   None    Shift=    0.000
 RMSDP=9.81D-10 MaxDP=3.72D-08 DE=-5.68D-13 OVMax= 4.86D-08

 SCF Done:  E(RM062X) =  -78.5806744072     A.U. after    9 cycles
            NFock=  9  Conv=0.98D-09     -V/T= 2.0048
 KE= 7.820888079326D+01 PE=-2.487046575041D+02 EE= 5.842948390608D+01
 Leave Link  502 at Sat Apr 17 19:15:20 2021, MaxMem=   104857600 cpu:           11593.6 elap:             253.9
 (Enter /s/ls4/users/knvvv/bin/g16sse/l601.exe)
 Copying SCF densities to generalized density rwf, IOpCl= 0 IROHF=0.

 **********************************************************************

            Population analysis using the SCF density.

 **********************************************************************

 Orbital symmetries:
       Occupied  (AG) (B1U) (AG) (B1U) (B2U) (AG) (B3G) (B3U)
       Virtual   (AG) (B1U) (B2G) (B2U) (AG) (B3G) (AG) (B3U) (B1G)
                 (B1U) (B2U) (B2G) (B1U) (AG) (B1U) (AU) (B2U)
                 (B3U) (B3U) (B3G) (B2U) (AG) (B3G) (B2G) (AG)
                 (B1G) (AG) (B1U) (B2G) (B1U) (B2U) (B3G) (AU)
                 (AG) (B1U) (B2U) (B1U) (B3G) (B1G) (B1U) (AG)
                 (B3U) (B3G) (AG) (AU) (B2U) (B2G) (AG) (B2U) (B3U)
                 (B3G) (B1U) (B3U) (B1G) (B2G) (B2U) (B1U) (B3G)
                 (AG) (B2G) (AG) (B1U) (B1U) (AU) (B2U) (B3G) (AG)
                 (B1U) (AG) (B2U) (B3G) (B1U) (B3G) (B3U) (B1G)
                 (AG) (B3U) (AG) (B2U) (B1G) (AU) (B3G) (B2G) (AG)
                 (AU) (B2U) (B1U) (B1U) (B3U) (B2U) (B2G) (B1G)
                 (B1U) (B3G) (AG) (B3U) (B2G) (AU) (B2U) (AG) (B2G)
                 (B1G) (B1U) (B3G) (AG) (B3G) (B3U) (B1U) (B1U)
                 (AG) (B2U) (B2G) (B3U) (B3G) (B2U) (AU) (B1U)
                 (AG) (B1U) (B3G) (B1G) (B3U) (AG) (B2U) (AU) (B2G)
                 (AG) (B2U) (B3G) (AG) (B1U) (B2G) (B1U) (B3G)
                 (B2U) (B3G) (AG) (B3U) (B2U) (B1U) (B1G) (AG)
                 (B1G) (B2U) (B3U) (B2G) (AU) (B1G) (B1U) (B3U)
                 (AU) (AG) (B3G) (B2U) (B2G) (B1U) (B3G) (B2G)
                 (AU) (B1G) (AG) (B3U) (B2U) (B3G) (B1U) (B3U)
                 (B2U) (AG) (B3G) (B2G) (AU) (AG) (AG) (B2U) (B1U)
                 (B1U) (B1G) (B3U) (B1U) (B3G) (AU) (B2G) (B3G)
                 (B1U) (AG) (AG) (B2U) (B3U) (B2G) (B1G) (AU) (B1U)
                 (B2G) (B3U) (B1G) (B2U) (B1U) (B3G) (AG) (AG)
                 (B1U) (B3G) (B2U) (AU) (AG) (B1U) (B3U) (AG) (B1U)
                 (B1G) (B2G) (B3G) (AG) (B1G) (B1U) (B2U) (B2U)
                 (B3U) (B3G) (AU) (B2G) (B2G) (B3G) (AU) (AG) (B2U)
                 (B1U) (B2U) (AG) (B3U) (B1G) (B3G) (B1U) (AU)
                 (AG) (B2G) (B3G) (B1U) (B2U) (B3G) (B2U) (B1U)
                 (B3G) (AG) (B1U) (AG) (B1U) (AG) (B1U)
 The electronic state is 1-AG.
 Alpha  occ. eigenvalues --  -10.54079 -10.53959  -0.86138  -0.66337  -0.54322
 Alpha  occ. eigenvalues --   -0.48685  -0.41772  -0.33697
 Alpha virt. eigenvalues --    0.01732   0.03260   0.03273   0.07251   0.11739
 Alpha virt. eigenvalues --    0.12051   0.12473   0.14266   0.15520   0.16993
 Alpha virt. eigenvalues --    0.17964   0.20769   0.21207   0.21629   0.22379
 Alpha virt. eigenvalues --    0.22524   0.25430   0.25701   0.26976   0.28108
 Alpha virt. eigenvalues --    0.28533   0.29423   0.31705   0.32105   0.32513
 Alpha virt. eigenvalues --    0.32920   0.36017   0.36283   0.37295   0.39569
 Alpha virt. eigenvalues --    0.39746   0.40398   0.42819   0.45780   0.48362
 Alpha virt. eigenvalues --    0.51704   0.52357   0.54969   0.56775   0.58214
 Alpha virt. eigenvalues --    0.63315   0.64012   0.66453   0.67118   0.69664
 Alpha virt. eigenvalues --    0.76245   0.79724   0.81373   0.82937   0.85382
 Alpha virt. eigenvalues --    0.86337   0.90083   0.92999   0.94714   0.97877
 Alpha virt. eigenvalues --    0.99218   0.99323   0.99540   1.00085   1.05611
 Alpha virt. eigenvalues --    1.10997   1.11028   1.21206   1.22932   1.25621
 Alpha virt. eigenvalues --    1.28110   1.32379   1.33473   1.39257   1.46780
 Alpha virt. eigenvalues --    1.49593   1.68320   1.69129   1.75434   1.79175
 Alpha virt. eigenvalues --    1.81934   1.83952   1.84938   1.91031   1.95386
 Alpha virt. eigenvalues --    1.96117   2.00099   2.03569   2.03886   2.05615
 Alpha virt. eigenvalues --    2.06292   2.06439   2.12420   2.14940   2.15654
 Alpha virt. eigenvalues --    2.15952   2.21220   2.25717   2.25721   2.34078
 Alpha virt. eigenvalues --    2.44001   2.47878   2.52975   2.55975   2.56083
 Alpha virt. eigenvalues --    2.56496   2.63904   2.64206   2.64777   2.65943
 Alpha virt. eigenvalues --    2.70191   2.70686   2.71956   2.75340   2.78702
 Alpha virt. eigenvalues --    2.79454   2.82665   2.84852   2.88473   3.05936
 Alpha virt. eigenvalues --    3.16450   3.19279   3.27780   3.36996   3.39073
 Alpha virt. eigenvalues --    3.39539   3.40905   3.43135   3.43727   3.57955
 Alpha virt. eigenvalues --    3.60153   3.72301   3.78963   3.82424   3.82501
 Alpha virt. eigenvalues --    3.83827   3.90890   3.99514   4.19327   4.32209
 Alpha virt. eigenvalues --    4.50254   4.81105   4.87957   4.90117   4.93119
 Alpha virt. eigenvalues --    4.93857   5.00091   5.11686   5.35947   5.36330
 Alpha virt. eigenvalues --    5.37752   5.38483   5.43670   5.48912   5.58044
 Alpha virt. eigenvalues --    5.62655   5.64532   5.71008   5.71243   5.72811
 Alpha virt. eigenvalues --    5.73244   5.75336   5.87816   5.88500   5.89909
 Alpha virt. eigenvalues --    5.93496   5.96593   6.01131   6.04453   6.04694
 Alpha virt. eigenvalues --    6.07866   6.09818   6.10058   6.11234   6.20620
 Alpha virt. eigenvalues --    6.27580   6.29755   6.35920   6.38950   6.41320
 Alpha virt. eigenvalues --    6.55198   6.62462   6.67577   6.69894   6.86128
 Alpha virt. eigenvalues --    6.86156   6.87599   6.92162   6.97841   6.99142
 Alpha virt. eigenvalues --    7.12182   7.14353   7.14747   7.23035   7.30752
 Alpha virt. eigenvalues --    7.37868   7.38020   7.40749   7.41096   7.45119
 Alpha virt. eigenvalues --    7.45834   7.47341   7.49504   7.55384   7.62748
 Alpha virt. eigenvalues --    7.66867   7.79230   7.83967   7.84271   7.90764
 Alpha virt. eigenvalues --    7.98182   7.98470   8.02705   8.02769   8.03532
 Alpha virt. eigenvalues --    8.03962   8.06130   8.22733   8.22926   8.25234
 Alpha virt. eigenvalues --    8.25544   8.31668   8.35072   8.35704   8.39059
 Alpha virt. eigenvalues --    8.54105   8.72023   8.76915   8.79319   8.92049
 Alpha virt. eigenvalues --    9.02001   9.07111   9.30087   9.42212   9.50129
 Alpha virt. eigenvalues --    9.55124   9.65230   9.71823   9.77469   9.96406
 Alpha virt. eigenvalues --    9.96926   9.98425  10.43847  10.50803  10.80135
 Alpha virt. eigenvalues --   11.13725  11.27812  12.46783  12.77755  12.95115
 Alpha virt. eigenvalues --   28.44059  29.29962 145.88642 146.78057
          Condensed to atoms (all electrons):
               1          2          3          4          5          6
     1  C    5.413366   0.412419   0.340359   0.340359  -0.033931  -0.033931
     2  C    0.412419   5.413366  -0.033931  -0.033931   0.340359   0.340359
     3  H    0.340359  -0.033931   0.697497  -0.198061  -0.083105   0.057919
     4  H    0.340359  -0.033931  -0.198061   0.697497   0.057919  -0.083105
     5  H   -0.033931   0.340359  -0.083105   0.057919   0.697497  -0.198061
     6  H   -0.033931   0.340359   0.057919  -0.083105  -0.198061   0.697497
 Mulliken charges:
               1
     1  C   -0.438642
     2  C   -0.438642
     3  H    0.219321
     4  H    0.219321
     5  H    0.219321
     6  H    0.219321
 Sum of Mulliken charges =  -0.00000
 Mulliken charges with hydrogens summed into heavy atoms:
               1
     1  C   -0.000000
     2  C   -0.000000
 Electronic spatial extent (au):  <R**2>=             82.6069
 Charge=              0.0000 electrons
 Dipole moment (field-independent basis, Debye):
    X=             -0.0000    Y=             -0.0000    Z=             -0.0000  Tot=              0.0000
 Quadrupole moment (field-independent basis, Debye-Ang):
   XX=            -15.6942   YY=            -12.4049   ZZ=            -12.2706
   XY=              0.0000   XZ=              0.0000   YZ=             -0.0000
 Traceless Quadrupole moment (field-independent basis, Debye-Ang):
   XX=             -2.2377   YY=              1.0517   ZZ=              1.1860
   XY=              0.0000   XZ=              0.0000   YZ=             -0.0000
 Octapole moment (field-independent basis, Debye-Ang**2):
  XXX=             -0.0000  YYY=              0.0000  ZZZ=             -0.0000  XYY=             -0.0000
  XXY=             -0.0000  XXZ=              0.0000  XZZ=             -0.0000  YZZ=             -0.0000
  YYZ=              0.0000  XYZ=             -0.0000
 Hexadecapole moment (field-independent basis, Debye-Ang**3):
 XXXX=            -19.3006 YYYY=            -27.4953 ZZZZ=            -68.9651 XXXY=             -0.0000
 XXXZ=              0.0000 YYYX=             -0.0000 YYYZ=              0.0000 ZZZX=              0.0000
 ZZZY=              0.0000 XXYY=             -8.5918 XXZZ=            -15.6144 YYZZ=            -13.3526
 XXYZ=              0.0000 YYXZ=              0.0000 ZZXY=              0.0000
 N-N= 3.348561839753D+01 E-N=-2.487046575340D+02  KE= 7.820888079326D+01
 PrsmSu:  requested number of processors reduced to:  21 ShMem   1 Linda.
 No NMR shielding tensors so no spin-rotation constants.
 Leave Link  601 at Sat Apr 17 19:15:28 2021, MaxMem=   104857600 cpu:             341.1 elap:               7.4
 (Enter /s/ls4/users/knvvv/bin/g16sse/l801.exe)
 DoSCS=F DFT=T ScalE2(SS,OS)=  1.000000  1.000000
 Range of M.O.s used for correlation:     1   257
 NBasis=   258 NAE=     8 NBE=     8 NFC=     0 NFV=     0
 NROrb=    257 NOA=     8 NOB=     8 NVA=   249 NVB=   249

 **** Warning!!: The largest alpha MO coefficient is  0.22743895D+03

 Leave Link  801 at Sat Apr 17 19:15:28 2021, MaxMem=   104857600 cpu:               4.0 elap:               0.1
 (Enter /s/ls4/users/knvvv/bin/g16sse/l914.exe)
 RHF ground state
 Doing stability rather than CIS.
 Two-electron integrals replicated using symmetry.
 MDV=   104857600 DFT=T DoStab=T Mixed=T DoRPA=F DoScal=F NonHer=F
 Making orbital integer symmetry assigments:
 Orbital symmetries:
       Occupied  (AG) (B1U) (AG) (B1U) (B2U) (AG) (B3G) (B3U)
       Virtual   (AG) (B1U) (B2G) (B2U) (AG) (B3G) (AG) (B3U) (B1G)
                 (B1U) (B2U) (B2G) (B1U) (AG) (B1U) (AU) (B2U)
                 (B3U) (B3U) (B3G) (B2U) (AG) (B3G) (B2G) (AG)
                 (B1G) (AG) (B1U) (B2G) (B1U) (B2U) (B3G) (AU)
                 (AG) (B1U) (B2U) (B1U) (B3G) (B1G) (B1U) (AG)
                 (B3U) (B3G) (AG) (AU) (B2U) (B2G) (AG) (B2U) (B3U)
                 (B3G) (B1U) (B3U) (B1G) (B2G) (B2U) (B1U) (B3G)
                 (AG) (B2G) (AG) (B1U) (B1U) (AU) (B2U) (B3G) (AG)
                 (B1U) (AG) (B2U) (B3G) (B1U) (B3G) (B3U) (B1G)
                 (AG) (B3U) (AG) (B2U) (B1G) (AU) (B3G) (B2G) (AG)
                 (AU) (B2U) (B1U) (B1U) (B3U) (B2U) (B2G) (B1G)
                 (B1U) (B3G) (AG) (B3U) (B2G) (AU) (B2U) (AG) (B2G)
                 (B1G) (B1U) (B3G) (AG) (B3G) (B3U) (B1U) (B1U)
                 (AG) (B2U) (B2G) (B3U) (B3G) (B2U) (AU) (B1U)
                 (AG) (B1U) (B3G) (B1G) (B3U) (AG) (B2U) (AU) (B2G)
                 (AG) (B2U) (B3G) (AG) (B1U) (B2G) (B1U) (B3G)
                 (B2U) (B3G) (AG) (B3U) (B2U) (B1U) (B1G) (AG)
                 (B1G) (B2U) (B3U) (B2G) (AU) (B1G) (B1U) (B3U)
                 (AU) (AG) (B3G) (B2U) (B2G) (B1U) (B3G) (B2G)
                 (AU) (B1G) (AG) (B3U) (B2U) (B3G) (B1U) (B3U)
                 (B2U) (AG) (B3G) (B2G) (AU) (AG) (AG) (B2U) (B1U)
                 (B1U) (B1G) (B3U) (B1U) (B3G) (AU) (B2G) (B3G)
                 (B1U) (AG) (AG) (B2U) (B3U) (B2G) (B1G) (AU) (B1U)
                 (B2G) (B3U) (B1G) (B2U) (B1U) (B3G) (AG) (AG)
                 (B1U) (B3G) (B2U) (AU) (AG) (B1U) (B3U) (AG) (B1U)
                 (B1G) (B2G) (B3G) (AG) (B1G) (B1U) (B2U) (B2U)
                 (B3U) (B3G) (AU) (B2G) (B2G) (B3G) (AU) (AG) (B2U)
                 (B1U) (B2U) (AG) (B3U) (B1G) (B3G) (B1U) (AU)
                 (AG) (B2G) (B3G) (B1U) (B2U) (B3G) (B2U) (B1U)
                 (B3G) (AG) (B1U) (AG) (B1U) (AG) (B1U)
    48 initial guesses have been made.
 Convergence on wavefunction:    0.001000000000000
 Davidson Disk Diagonalization:  ConvIn= 1.00D-03 SkipCon=T Conv= 1.00D-03.
 Max sub-space:  2000 roots to seek:    48 dimension of matrix:         3984
 Iteration     1 Dimension    48 NMult     0 NNew     48
 Estimated number of processors is:   19
 CISAX will form     1 AO SS matrices at one time.
 NMat=     1 NSing=     1 JSym2X= 2.
 FoFJK:  IHMeth= 1 ICntrl=       0 DoSepK=F KAlg= 0 I1Cent=           0 FoldK=F
 IRaf= 990000000 NMat=       1 IRICut=       1 DoRegI=T DoRafI=F ISym2E= 2 IDoP0=0 IntGTp=1.
 FoFCou: FMM=F IPFlag=           0 FMFlag=      100000 FMFlg1=           0
         NFxFlg=           0 DoJE=F BraDBF=F KetDBF=F FulRan=T
         wScrn=  0.000000 ICntrl=         0 IOpCl=  0 I1Cent=           0 NGrid=           0
         NMat0=    1 NMatS0=      1 NMatT0=    0 NMatD0=    1 NMtDS0=    0 NMtDT0=    0
 Integrals replicated using symmetry in FoFCou.
 CoulSu:  requested number of processors reduced to:  18 ShMem   1 Linda.
 NMat=     1 NSing=     1 JSym2X= 2.
 CoulSu:  requested number of processors reduced to:  18 ShMem   1 Linda.
 NMat=     1 NSing=     1 JSym2X= 2.
 CoulSu:  requested number of processors reduced to:  18 ShMem   1 Linda.
 NMat=     1 NSing=     1 JSym2X= 2.
 CoulSu:  requested number of processors reduced to:  18 ShMem   1 Linda.
 NMat=     1 NSing=     1 JSym2X= 2.
 CoulSu:  requested number of processors reduced to:  18 ShMem   1 Linda.
 NMat=     1 NSing=     1 JSym2X= 2.
 CoulSu:  requested number of processors reduced to:  18 ShMem   1 Linda.
 NMat=     1 NSing=     1 JSym2X= 2.
 CoulSu:  requested number of processors reduced to:  18 ShMem   1 Linda.
 NMat=     1 NSing=     1 JSym2X= 2.
 CoulSu:  requested number of processors reduced to:  18 ShMem   1 Linda.
 NMat=     1 NSing=     1 JSym2X= 2.
 CoulSu:  requested number of processors reduced to:  18 ShMem   1 Linda.
 NMat=     1 NSing=     1 JSym2X= 2.
 CoulSu:  requested number of processors reduced to:  18 ShMem   1 Linda.
 NMat=     1 NSing=     1 JSym2X= 2.
 CoulSu:  requested number of processors reduced to:  18 ShMem   1 Linda.
 NMat=     1 NSing=     1 JSym2X= 2.
 CoulSu:  requested number of processors reduced to:  18 ShMem   1 Linda.
 NMat=     1 NSing=     1 JSym2X= 2.
 CoulSu:  requested number of processors reduced to:  18 ShMem   1 Linda.
 NMat=     1 NSing=     1 JSym2X= 2.
 CoulSu:  requested number of processors reduced to:  18 ShMem   1 Linda.
 NMat=     1 NSing=     1 JSym2X= 2.
 CoulSu:  requested number of processors reduced to:  18 ShMem   1 Linda.
 NMat=     1 NSing=     1 JSym2X= 2.
 CoulSu:  requested number of processors reduced to:  18 ShMem   1 Linda.
 NMat=     1 NSing=     1 JSym2X= 2.
 CoulSu:  requested number of processors reduced to:  18 ShMem   1 Linda.
 NMat=     1 NSing=     1 JSym2X= 2.
 CoulSu:  requested number of processors reduced to:  18 ShMem   1 Linda.
 NMat=     1 NSing=     1 JSym2X= 2.
 CoulSu:  requested number of processors reduced to:  18 ShMem   1 Linda.
 NMat=     1 NSing=     1 JSym2X= 2.
 CoulSu:  requested number of processors reduced to:  18 ShMem   1 Linda.
 NMat=     1 NSing=     1 JSym2X= 2.
 CoulSu:  requested number of processors reduced to:  18 ShMem   1 Linda.
 NMat=     1 NSing=     1 JSym2X= 2.
 CoulSu:  requested number of processors reduced to:  18 ShMem   1 Linda.
 NMat=     1 NSing=     1 JSym2X= 2.
 CoulSu:  requested number of processors reduced to:  18 ShMem   1 Linda.
 NMat=     1 NSing=     1 JSym2X= 2.
 CoulSu:  requested number of processors reduced to:  18 ShMem   1 Linda.
 NMat=     1 NSing=     0 JSym2X= 2.
 CoulSu:  requested number of processors reduced to:  18 ShMem   1 Linda.
 NMat=     1 NSing=     0 JSym2X= 2.
 CoulSu:  requested number of processors reduced to:  18 ShMem   1 Linda.
 NMat=     1 NSing=     0 JSym2X= 2.
 CoulSu:  requested number of processors reduced to:  18 ShMem   1 Linda.
 NMat=     1 NSing=     0 JSym2X= 2.
 CoulSu:  requested number of processors reduced to:  18 ShMem   1 Linda.
 NMat=     1 NSing=     0 JSym2X= 2.
 CoulSu:  requested number of processors reduced to:  18 ShMem   1 Linda.
 NMat=     1 NSing=     0 JSym2X= 2.
 CoulSu:  requested number of processors reduced to:  18 ShMem   1 Linda.
 NMat=     1 NSing=     0 JSym2X= 2.
 CoulSu:  requested number of processors reduced to:  18 ShMem   1 Linda.
 NMat=     1 NSing=     0 JSym2X= 2.
 CoulSu:  requested number of processors reduced to:  18 ShMem   1 Linda.
 NMat=     1 NSing=     0 JSym2X= 2.
 CoulSu:  requested number of processors reduced to:  18 ShMem   1 Linda.
 NMat=     1 NSing=     0 JSym2X= 2.
 CoulSu:  requested number of processors reduced to:  18 ShMem   1 Linda.
 NMat=     1 NSing=     0 JSym2X= 2.
 CoulSu:  requested number of processors reduced to:  18 ShMem   1 Linda.
 NMat=     1 NSing=     0 JSym2X= 2.
 CoulSu:  requested number of processors reduced to:  18 ShMem   1 Linda.
 NMat=     1 NSing=     0 JSym2X= 2.
 CoulSu:  requested number of processors reduced to:  18 ShMem   1 Linda.
 NMat=     1 NSing=     0 JSym2X= 2.
 CoulSu:  requested number of processors reduced to:  18 ShMem   1 Linda.
 NMat=     1 NSing=     0 JSym2X= 2.
 CoulSu:  requested number of processors reduced to:  18 ShMem   1 Linda.
 NMat=     1 NSing=     0 JSym2X= 2.
 CoulSu:  requested number of processors reduced to:  18 ShMem   1 Linda.
 NMat=     1 NSing=     0 JSym2X= 2.
 CoulSu:  requested number of processors reduced to:  18 ShMem   1 Linda.
 NMat=     1 NSing=     0 JSym2X= 2.
 CoulSu:  requested number of processors reduced to:  18 ShMem   1 Linda.
 NMat=     1 NSing=     0 JSym2X= 2.
 CoulSu:  requested number of processors reduced to:  18 ShMem   1 Linda.
 NMat=     1 NSing=     0 JSym2X= 2.
 CoulSu:  requested number of processors reduced to:  18 ShMem   1 Linda.
 NMat=     1 NSing=     0 JSym2X= 2.
 CoulSu:  requested number of processors reduced to:  18 ShMem   1 Linda.
 NMat=     1 NSing=     0 JSym2X= 2.
 CoulSu:  requested number of processors reduced to:  18 ShMem   1 Linda.
 NMat=     1 NSing=     0 JSym2X= 2.
 CoulSu:  requested number of processors reduced to:  18 ShMem   1 Linda.
 NMat=     1 NSing=     0 JSym2X= 2.
 CoulSu:  requested number of processors reduced to:  18 ShMem   1 Linda.
 New state      1 was old state      6
 Excitation Energies [eV] at current iteration:
 Root      1 :     3.937943625614340
 Root      2 :     7.369943564004545
 Root      3 :     7.388077699077654
 Root      4 :     7.864130168900229
 Root      5 :     7.970954378834239
 Root      6 :     7.971628197649687
 Root      7 :     8.491219950862837
 Root      8 :     8.662682407277819
 Root      9 :     8.730840013052855
 Root     10 :     9.467021531068623
 Root     11 :     9.544159888352706
 Root     12 :     9.573345371302317
 Root     13 :     9.686351596045988
 Root     14 :     9.691577248762188
 Root     15 :    10.034372229659080
 Root     16 :    10.130582017222490
 Root     17 :    10.136650261149310
 Root     18 :    10.215994374222250
 Root     19 :    10.269362153136260
 Root     20 :    10.382694136489380
 Root     21 :    10.481923696058640
 Root     22 :    10.498520262703010
 Root     23 :    10.709184911209090
 Root     24 :    10.878723205138520
 Root     25 :    10.930028480019980
 Root     26 :    10.939644728860390
 Root     27 :    11.068643546771710
 Root     28 :    11.111311143299500
 Root     29 :    11.258283353102310
 Root     30 :    11.351471185224790
 Root     31 :    11.429379694093220
 Root     32 :    11.479489373348150
 Root     33 :    11.592982679004160
 Root     34 :    11.674969791259600
 Root     35 :    11.683333954275380
 Root     36 :    11.881267103275680
 Root     37 :    11.987422656742020
 Root     38 :    12.099133349851000
 Root     39 :    12.247229356350080
 Root     40 :    12.260476903881980
 Root     41 :    12.317858310338950
 Root     42 :    12.336174484245730
 Root     43 :    12.447570845898540
 Root     44 :    12.466085272663780
 Root     45 :    12.491813471193560
 Root     46 :    12.590365408418890
 Root     47 :    13.888850926436000
 Root     48 :    17.457864763728100
 Iteration     2 Dimension    96 NMult    48 NNew     48
 Estimated number of processors is:   19
 CISAX will form     1 AO SS matrices at one time.
 NMat=     1 NSing=     1 JSym2X= 2.
 CoulSu:  requested number of processors reduced to:  18 ShMem   1 Linda.
 NMat=     1 NSing=     1 JSym2X= 2.
 CoulSu:  requested number of processors reduced to:  18 ShMem   1 Linda.
 NMat=     1 NSing=     1 JSym2X= 2.
 CoulSu:  requested number of processors reduced to:  18 ShMem   1 Linda.
 NMat=     1 NSing=     1 JSym2X= 2.
 CoulSu:  requested number of processors reduced to:  18 ShMem   1 Linda.
 NMat=     1 NSing=     1 JSym2X= 2.
 CoulSu:  requested number of processors reduced to:  18 ShMem   1 Linda.
 NMat=     1 NSing=     1 JSym2X= 2.
 CoulSu:  requested number of processors reduced to:  18 ShMem   1 Linda.
 NMat=     1 NSing=     1 JSym2X= 2.
 CoulSu:  requested number of processors reduced to:  18 ShMem   1 Linda.
 NMat=     1 NSing=     1 JSym2X= 2.
 CoulSu:  requested number of processors reduced to:  18 ShMem   1 Linda.
 NMat=     1 NSing=     1 JSym2X= 2.
 CoulSu:  requested number of processors reduced to:  18 ShMem   1 Linda.
 NMat=     1 NSing=     1 JSym2X= 2.
 CoulSu:  requested number of processors reduced to:  18 ShMem   1 Linda.
 NMat=     1 NSing=     1 JSym2X= 2.
 CoulSu:  requested number of processors reduced to:  18 ShMem   1 Linda.
 NMat=     1 NSing=     1 JSym2X= 2.
 CoulSu:  requested number of processors reduced to:  18 ShMem   1 Linda.
 NMat=     1 NSing=     1 JSym2X= 2.
 CoulSu:  requested number of processors reduced to:  18 ShMem   1 Linda.
 NMat=     1 NSing=     1 JSym2X= 2.
 CoulSu:  requested number of processors reduced to:  18 ShMem   1 Linda.
 NMat=     1 NSing=     1 JSym2X= 2.
 CoulSu:  requested number of processors reduced to:  18 ShMem   1 Linda.
 NMat=     1 NSing=     1 JSym2X= 2.
 CoulSu:  requested number of processors reduced to:  18 ShMem   1 Linda.
 NMat=     1 NSing=     1 JSym2X= 2.
 CoulSu:  requested number of processors reduced to:  18 ShMem   1 Linda.
 NMat=     1 NSing=     1 JSym2X= 2.
 CoulSu:  requested number of processors reduced to:  18 ShMem   1 Linda.
 NMat=     1 NSing=     1 JSym2X= 2.
 CoulSu:  requested number of processors reduced to:  18 ShMem   1 Linda.
 NMat=     1 NSing=     1 JSym2X= 2.
 CoulSu:  requested number of processors reduced to:  18 ShMem   1 Linda.
 NMat=     1 NSing=     1 JSym2X= 2.
 CoulSu:  requested number of processors reduced to:  18 ShMem   1 Linda.
 NMat=     1 NSing=     1 JSym2X= 2.
 CoulSu:  requested number of processors reduced to:  18 ShMem   1 Linda.
 NMat=     1 NSing=     1 JSym2X= 2.
 CoulSu:  requested number of processors reduced to:  18 ShMem   1 Linda.
 NMat=     1 NSing=     1 JSym2X= 2.
 CoulSu:  requested number of processors reduced to:  18 ShMem   1 Linda.
 NMat=     1 NSing=     0 JSym2X= 2.
 CoulSu:  requested number of processors reduced to:  18 ShMem   1 Linda.
 NMat=     1 NSing=     0 JSym2X= 2.
 CoulSu:  requested number of processors reduced to:  18 ShMem   1 Linda.
 NMat=     1 NSing=     0 JSym2X= 2.
 CoulSu:  requested number of processors reduced to:  18 ShMem   1 Linda.
 NMat=     1 NSing=     0 JSym2X= 2.
 CoulSu:  requested number of processors reduced to:  18 ShMem   1 Linda.
 NMat=     1 NSing=     0 JSym2X= 2.
 CoulSu:  requested number of processors reduced to:  18 ShMem   1 Linda.
 NMat=     1 NSing=     0 JSym2X= 2.
 CoulSu:  requested number of processors reduced to:  18 ShMem   1 Linda.
 NMat=     1 NSing=     0 JSym2X= 2.
 CoulSu:  requested number of processors reduced to:  18 ShMem   1 Linda.
 NMat=     1 NSing=     0 JSym2X= 2.
 CoulSu:  requested number of processors reduced to:  18 ShMem   1 Linda.
 NMat=     1 NSing=     0 JSym2X= 2.
 CoulSu:  requested number of processors reduced to:  18 ShMem   1 Linda.
 NMat=     1 NSing=     0 JSym2X= 2.
 CoulSu:  requested number of processors reduced to:  18 ShMem   1 Linda.
 NMat=     1 NSing=     0 JSym2X= 2.
 CoulSu:  requested number of processors reduced to:  18 ShMem   1 Linda.
 NMat=     1 NSing=     0 JSym2X= 2.
 CoulSu:  requested number of processors reduced to:  18 ShMem   1 Linda.
 NMat=     1 NSing=     0 JSym2X= 2.
 CoulSu:  requested number of processors reduced to:  18 ShMem   1 Linda.
 NMat=     1 NSing=     0 JSym2X= 2.
 CoulSu:  requested number of processors reduced to:  18 ShMem   1 Linda.
 NMat=     1 NSing=     0 JSym2X= 2.
 CoulSu:  requested number of processors reduced to:  18 ShMem   1 Linda.
 NMat=     1 NSing=     0 JSym2X= 2.
 CoulSu:  requested number of processors reduced to:  18 ShMem   1 Linda.
 NMat=     1 NSing=     0 JSym2X= 2.
 CoulSu:  requested number of processors reduced to:  18 ShMem   1 Linda.
 NMat=     1 NSing=     0 JSym2X= 2.
 CoulSu:  requested number of processors reduced to:  18 ShMem   1 Linda.
 NMat=     1 NSing=     0 JSym2X= 2.
 CoulSu:  requested number of processors reduced to:  18 ShMem   1 Linda.
 NMat=     1 NSing=     0 JSym2X= 2.
 CoulSu:  requested number of processors reduced to:  18 ShMem   1 Linda.
 NMat=     1 NSing=     0 JSym2X= 2.
 CoulSu:  requested number of processors reduced to:  18 ShMem   1 Linda.
 NMat=     1 NSing=     0 JSym2X= 2.
 CoulSu:  requested number of processors reduced to:  18 ShMem   1 Linda.
 NMat=     1 NSing=     0 JSym2X= 2.
 CoulSu:  requested number of processors reduced to:  18 ShMem   1 Linda.
 NMat=     1 NSing=     0 JSym2X= 2.
 CoulSu:  requested number of processors reduced to:  18 ShMem   1 Linda.
 Root      1 not converged, maximum delta is    0.060386570331013
 Excitation Energies [eV] at current iteration:
 Root      1 :     3.580359798473488   Change is   -0.357583827140852
 Root      2 :     7.274232626105404   Change is   -0.113845072972250
 Root      3 :     7.346676776226189   Change is   -0.023266787778357
 Root      4 :     7.674428736607213   Change is   -0.297199461042474
 Root      5 :     7.800782435430182   Change is   -0.063347733470047
 Root      6 :     7.926957986421161   Change is   -0.043996392413077
 Root      7 :     8.264638651683871   Change is   -0.226581299178966
 Root      8 :     8.475156175074831   Change is   -0.187526232202988
 Root      9 :     8.573493013804798   Change is   -0.157346999248056
 Root     10 :     8.939921373004479   Change is   -1.542002323054163
 Root     11 :     9.121597623066268   Change is   -0.422562265286437
 Root     12 :     9.181595293824742   Change is   -0.285426237243881
 Root     13 :     9.453520855982571   Change is   -0.119824515319745
 Root     14 :     9.457019918396826   Change is   -0.229331677649161
 Root     15 :     9.561894431830527   Change is   -0.129682816931660
 Root     16 :     9.775062993539414   Change is   -0.259309236119671
 Root     17 :     9.910840990869056   Change is   -0.358521162267203
 Root     18 :     9.925014231179592   Change is   -0.457679905309790
 Root     19 :    10.038768804696400   Change is   -0.097881456452907
 Root     20 :    10.055881322956700   Change is   -0.074700694265790
 Root     21 :    10.097201079423010   Change is   -0.118793294799241
 Root     22 :    10.155833671603100   Change is   -0.342686591099907
 Root     23 :    10.339178629295140   Change is   -0.539544575843381
 Root     24 :    10.354575796121690   Change is   -0.354609115087401
 Root     25 :    10.411894961526480   Change is   -0.518133518493500
 Root     26 :    10.612409567295170   Change is   -0.327235161565221
 Root     27 :    10.712783301568270   Change is   -0.398527841731237
 Root     28 :    10.892531002536310   Change is   -0.176112544235397
 Root     29 :    11.016900681984180   Change is   -0.334570503240610
 Root     30 :    11.038242687345900   Change is   -0.220040665756405
 Root     31 :    11.190771836742740   Change is   -0.484197954516863
 Root     32 :    11.256649401610660   Change is   -0.172730292482565
 Root     33 :    11.272571989021010   Change is   -0.320410689983158
 Root     34 :    11.305377413166760   Change is   -0.174111960181386
 Root     35 :    11.459675522749140   Change is   -0.223658431526234
 Root     36 :    11.676891062296700   Change is   -0.204376040978988
 Root     37 :    11.791961848814790   Change is   -0.195460807927233
 Root     38 :    11.975273754592900   Change is   -0.285203149289081
 Root     39 :    11.977131570322570   Change is   -0.122001779528426
 Root     40 :    12.024611572801600   Change is   -0.293246737537348
 Root     41 :    12.093999320887250   Change is   -0.153230035462824
 Root     42 :    12.097229745052890   Change is   -0.350341100845654
 Root     43 :    12.123683024813020   Change is   -0.212491459432714
 Root     44 :    12.197208520170730   Change is   -0.294604951022828
 Root     45 :    12.378287387946780   Change is   -0.087797884717006
 Root     46 :    12.429721026641840   Change is   -0.160644381777049
 Root     47 :    12.842176148478530   Change is   -1.046674777957469
 Root     48 :    13.149674876289940   Change is   -4.308189887438158
 Iteration     3 Dimension   102 NMult    96 NNew      6
 Estimated number of processors is:   19
 CISAX will form     1 AO SS matrices at one time.
 NMat=     1 NSing=     1 JSym2X= 2.
 CoulSu:  requested number of processors reduced to:  18 ShMem   1 Linda.
 NMat=     1 NSing=     1 JSym2X= 2.
 CoulSu:  requested number of processors reduced to:  18 ShMem   1 Linda.
 NMat=     1 NSing=     1 JSym2X= 2.
 CoulSu:  requested number of processors reduced to:  18 ShMem   1 Linda.
 NMat=     1 NSing=     0 JSym2X= 2.
 CoulSu:  requested number of processors reduced to:  18 ShMem   1 Linda.
 NMat=     1 NSing=     0 JSym2X= 2.
 CoulSu:  requested number of processors reduced to:  18 ShMem   1 Linda.
 NMat=     1 NSing=     0 JSym2X= 2.
 CoulSu:  requested number of processors reduced to:  18 ShMem   1 Linda.
 Root      1 not converged, maximum delta is    0.005888163365124
 Excitation Energies [eV] at current iteration:
 Root      1 :     3.563598896192383   Change is   -0.016760902281105
 Root      2 :     7.270824095735917   Change is   -0.003408530369487
 Root      3 :     7.346448614992434   Change is   -0.000228161233755
 Root      4 :     7.668430418581823   Change is   -0.005998318025390
 Root      5 :     7.924755065556473   Change is   -0.002202920864688
 Root      6 :     8.260607254451104   Change is   -0.004031397232767
 Iteration     4 Dimension   108 NMult   102 NNew      6
 Estimated number of processors is:   19
 CISAX will form     1 AO SS matrices at one time.
 NMat=     1 NSing=     1 JSym2X= 2.
 CoulSu:  requested number of processors reduced to:  18 ShMem   1 Linda.
 NMat=     1 NSing=     1 JSym2X= 2.
 CoulSu:  requested number of processors reduced to:  18 ShMem   1 Linda.
 NMat=     1 NSing=     1 JSym2X= 2.
 CoulSu:  requested number of processors reduced to:  18 ShMem   1 Linda.
 NMat=     1 NSing=     0 JSym2X= 2.
 CoulSu:  requested number of processors reduced to:  18 ShMem   1 Linda.
 NMat=     1 NSing=     0 JSym2X= 2.
 CoulSu:  requested number of processors reduced to:  18 ShMem   1 Linda.
 NMat=     1 NSing=     0 JSym2X= 2.
 CoulSu:  requested number of processors reduced to:  18 ShMem   1 Linda.
 Root      1 not converged, maximum delta is    0.001390960243408
 Excitation Energies [eV] at current iteration:
 Root      1 :     3.563136918312926   Change is   -0.000461977879458
 Root      2 :     7.270666394102840   Change is   -0.000157701633078
 Root      3 :     7.346445515903197   Change is   -0.000003099089237
 Root      4 :     7.668287117253650   Change is   -0.000143301328173
 Root      5 :     7.924728984712520   Change is   -0.000026080843953
 Root      6 :     8.260465970278654   Change is   -0.000141284172450
 Iteration     5 Dimension   114 NMult   108 NNew      6
 Estimated number of processors is:   19
 CISAX will form     1 AO SS matrices at one time.
 NMat=     1 NSing=     1 JSym2X= 2.
 CoulSu:  requested number of processors reduced to:  18 ShMem   1 Linda.
 NMat=     1 NSing=     1 JSym2X= 2.
 CoulSu:  requested number of processors reduced to:  18 ShMem   1 Linda.
 NMat=     1 NSing=     1 JSym2X= 2.
 CoulSu:  requested number of processors reduced to:  18 ShMem   1 Linda.
 NMat=     1 NSing=     0 JSym2X= 2.
 CoulSu:  requested number of processors reduced to:  18 ShMem   1 Linda.
 NMat=     1 NSing=     0 JSym2X= 2.
 CoulSu:  requested number of processors reduced to:  18 ShMem   1 Linda.
 NMat=     1 NSing=     0 JSym2X= 2.
 CoulSu:  requested number of processors reduced to:  18 ShMem   1 Linda.
 Root      1 has converged.
 Excitation Energies [eV] at current iteration:
 Root      1 :     3.563130344785908   Change is   -0.000006573527018
 Root      2 :     7.270662095844918   Change is   -0.000004298257921
 Root      3 :     7.346445477152468   Change is   -0.000000038750729
 Root      4 :     7.668284551389245   Change is   -0.000002565864405
 Root      5 :     7.924728475157155   Change is   -0.000000509555365
 Root      6 :     8.260463496317277   Change is   -0.000002473961377
 Convergence achieved on expansion vectors.
 ***********************************************************************
 Stability analysis using <AA,BB:AA,BB> singles matrix:
 ***********************************************************************
 1PDM for each excited state written to RWF  633
 Ground to excited state transition densities written to RWF  633

 Eigenvectors of the stability matrix:
 
 Eigenvector   1:      Triplet-B1U  Eigenvalue= 0.1309426  <S**2>=2.000
       8 -> 11         0.67398
       8 -> 20        -0.18401
 The wavefunction is stable under the perturbations considered.
 Leave Link  914 at Sat Apr 17 19:23:57 2021, MaxMem=   104857600 cpu:           20348.8 elap:             509.2
 (Enter /s/ls4/users/knvvv/bin/g16sse/l508.exe)
 The wavefunction is already stable.
 Leave Link  508 at Sat Apr 17 19:23:57 2021, MaxMem=   104857600 cpu:               2.2 elap:               0.1
 (Enter /s/ls4/users/knvvv/bin/g16sse/l601.exe)
 Copying SCF densities to generalized density rwf, IOpCl= 0 IROHF=0.

 **********************************************************************

            Population analysis using the SCF density.

 **********************************************************************

 Orbital symmetries:
       Occupied  (AG) (B1U) (AG) (B1U) (B2U) (AG) (B3G) (B3U)
       Virtual   (AG) (B1U) (B2G) (B2U) (AG) (B3G) (AG) (B3U) (B1G)
                 (B1U) (B2U) (B2G) (B1U) (AG) (B1U) (AU) (B2U)
                 (B3U) (B3U) (B3G) (B2U) (AG) (B3G) (B2G) (AG)
                 (B1G) (AG) (B1U) (B2G) (B1U) (B2U) (B3G) (AU)
                 (AG) (B1U) (B2U) (B1U) (B3G) (B1G) (B1U) (AG)
                 (B3U) (B3G) (AG) (AU) (B2U) (B2G) (AG) (B2U) (B3U)
                 (B3G) (B1U) (B3U) (B1G) (B2G) (B2U) (B1U) (B3G)
                 (AG) (B2G) (AG) (B1U) (B1U) (AU) (B2U) (B3G) (AG)
                 (B1U) (AG) (B2U) (B3G) (B1U) (B3G) (B3U) (B1G)
                 (AG) (B3U) (AG) (B2U) (B1G) (AU) (B3G) (B2G) (AG)
                 (AU) (B2U) (B1U) (B1U) (B3U) (B2U) (B2G) (B1G)
                 (B1U) (B3G) (AG) (B3U) (B2G) (AU) (B2U) (AG) (B2G)
                 (B1G) (B1U) (B3G) (AG) (B3G) (B3U) (B1U) (B1U)
                 (AG) (B2U) (B2G) (B3U) (B3G) (B2U) (AU) (B1U)
                 (AG) (B1U) (B3G) (B1G) (B3U) (AG) (B2U) (AU) (B2G)
                 (AG) (B2U) (B3G) (AG) (B1U) (B2G) (B1U) (B3G)
                 (B2U) (B3G) (AG) (B3U) (B2U) (B1U) (B1G) (AG)
                 (B1G) (B2U) (B3U) (B2G) (AU) (B1G) (B1U) (B3U)
                 (AU) (AG) (B3G) (B2U) (B2G) (B1U) (B3G) (B2G)
                 (AU) (B1G) (AG) (B3U) (B2U) (B3G) (B1U) (B3U)
                 (B2U) (AG) (B3G) (B2G) (AU) (AG) (AG) (B2U) (B1U)
                 (B1U) (B1G) (B3U) (B1U) (B3G) (AU) (B2G) (B3G)
                 (B1U) (AG) (AG) (B2U) (B3U) (B2G) (B1G) (AU) (B1U)
                 (B2G) (B3U) (B1G) (B2U) (B1U) (B3G) (AG) (AG)
                 (B1U) (B3G) (B2U) (AU) (AG) (B1U) (B3U) (AG) (B1U)
                 (B1G) (B2G) (B3G) (AG) (B1G) (B1U) (B2U) (B2U)
                 (B3U) (B3G) (AU) (B2G) (B2G) (B3G) (AU) (AG) (B2U)
                 (B1U) (B2U) (AG) (B3U) (B1G) (B3G) (B1U) (AU)
                 (AG) (B2G) (B3G) (B1U) (B2U) (B3G) (B2U) (B1U)
                 (B3G) (AG) (B1U) (AG) (B1U) (AG) (B1U)
 The electronic state is 1-AG.
 Alpha  occ. eigenvalues --  -10.54079 -10.53959  -0.86138  -0.66337  -0.54322
 Alpha  occ. eigenvalues --   -0.48685  -0.41772  -0.33697
 Alpha virt. eigenvalues --    0.01732   0.03260   0.03273   0.07251   0.11739
 Alpha virt. eigenvalues --    0.12051   0.12473   0.14266   0.15520   0.16993
 Alpha virt. eigenvalues --    0.17964   0.20769   0.21207   0.21629   0.22379
 Alpha virt. eigenvalues --    0.22524   0.25430   0.25701   0.26976   0.28108
 Alpha virt. eigenvalues --    0.28533   0.29423   0.31705   0.32105   0.32513
 Alpha virt. eigenvalues --    0.32920   0.36017   0.36283   0.37295   0.39569
 Alpha virt. eigenvalues --    0.39746   0.40398   0.42819   0.45780   0.48362
 Alpha virt. eigenvalues --    0.51704   0.52357   0.54969   0.56775   0.58214
 Alpha virt. eigenvalues --    0.63315   0.64012   0.66453   0.67118   0.69664
 Alpha virt. eigenvalues --    0.76245   0.79724   0.81373   0.82937   0.85382
 Alpha virt. eigenvalues --    0.86337   0.90083   0.92999   0.94714   0.97877
 Alpha virt. eigenvalues --    0.99218   0.99323   0.99540   1.00085   1.05611
 Alpha virt. eigenvalues --    1.10997   1.11028   1.21206   1.22932   1.25621
 Alpha virt. eigenvalues --    1.28110   1.32379   1.33473   1.39257   1.46780
 Alpha virt. eigenvalues --    1.49593   1.68320   1.69129   1.75434   1.79175
 Alpha virt. eigenvalues --    1.81934   1.83952   1.84938   1.91031   1.95386
 Alpha virt. eigenvalues --    1.96117   2.00099   2.03569   2.03886   2.05615
 Alpha virt. eigenvalues --    2.06292   2.06439   2.12420   2.14940   2.15654
 Alpha virt. eigenvalues --    2.15952   2.21220   2.25717   2.25721   2.34078
 Alpha virt. eigenvalues --    2.44001   2.47878   2.52975   2.55975   2.56083
 Alpha virt. eigenvalues --    2.56496   2.63904   2.64206   2.64777   2.65943
 Alpha virt. eigenvalues --    2.70191   2.70686   2.71956   2.75340   2.78702
 Alpha virt. eigenvalues --    2.79454   2.82665   2.84852   2.88473   3.05936
 Alpha virt. eigenvalues --    3.16450   3.19279   3.27780   3.36996   3.39073
 Alpha virt. eigenvalues --    3.39539   3.40905   3.43135   3.43727   3.57955
 Alpha virt. eigenvalues --    3.60153   3.72301   3.78963   3.82424   3.82501
 Alpha virt. eigenvalues --    3.83827   3.90890   3.99514   4.19327   4.32209
 Alpha virt. eigenvalues --    4.50254   4.81105   4.87957   4.90117   4.93119
 Alpha virt. eigenvalues --    4.93857   5.00091   5.11686   5.35947   5.36330
 Alpha virt. eigenvalues --    5.37752   5.38483   5.43670   5.48912   5.58044
 Alpha virt. eigenvalues --    5.62655   5.64532   5.71008   5.71243   5.72811
 Alpha virt. eigenvalues --    5.73244   5.75336   5.87816   5.88500   5.89909
 Alpha virt. eigenvalues --    5.93496   5.96593   6.01131   6.04453   6.04694
 Alpha virt. eigenvalues --    6.07866   6.09818   6.10058   6.11234   6.20620
 Alpha virt. eigenvalues --    6.27580   6.29755   6.35920   6.38950   6.41320
 Alpha virt. eigenvalues --    6.55198   6.62462   6.67577   6.69894   6.86128
 Alpha virt. eigenvalues --    6.86156   6.87599   6.92162   6.97841   6.99142
 Alpha virt. eigenvalues --    7.12182   7.14353   7.14747   7.23035   7.30752
 Alpha virt. eigenvalues --    7.37868   7.38020   7.40749   7.41096   7.45119
 Alpha virt. eigenvalues --    7.45834   7.47341   7.49504   7.55384   7.62748
 Alpha virt. eigenvalues --    7.66867   7.79230   7.83967   7.84271   7.90764
 Alpha virt. eigenvalues --    7.98182   7.98470   8.02705   8.02769   8.03532
 Alpha virt. eigenvalues --    8.03962   8.06130   8.22733   8.22926   8.25234
 Alpha virt. eigenvalues --    8.25544   8.31668   8.35072   8.35704   8.39059
 Alpha virt. eigenvalues --    8.54105   8.72023   8.76915   8.79319   8.92049
 Alpha virt. eigenvalues --    9.02001   9.07111   9.30087   9.42212   9.50129
 Alpha virt. eigenvalues --    9.55124   9.65230   9.71823   9.77469   9.96406
 Alpha virt. eigenvalues --    9.96926   9.98425  10.43847  10.50803  10.80135
 Alpha virt. eigenvalues --   11.13725  11.27812  12.46783  12.77755  12.95115
 Alpha virt. eigenvalues --   28.44059  29.29962 145.88642 146.78057
          Condensed to atoms (all electrons):
               1          2          3          4          5          6
     1  C    5.413366   0.412419   0.340359   0.340359  -0.033931  -0.033931
     2  C    0.412419   5.413366  -0.033931  -0.033931   0.340359   0.340359
     3  H    0.340359  -0.033931   0.697497  -0.198061  -0.083105   0.057919
     4  H    0.340359  -0.033931  -0.198061   0.697497   0.057919  -0.083105
     5  H   -0.033931   0.340359  -0.083105   0.057919   0.697497  -0.198061
     6  H   -0.033931   0.340359   0.057919  -0.083105  -0.198061   0.697497
 Mulliken charges:
               1
     1  C   -0.438642
     2  C   -0.438642
     3  H    0.219321
     4  H    0.219321
     5  H    0.219321
     6  H    0.219321
 Sum of Mulliken charges =  -0.00000
 Mulliken charges with hydrogens summed into heavy atoms:
               1
     1  C   -0.000000
     2  C   -0.000000
 Electronic spatial extent (au):  <R**2>=             82.6069
 Charge=              0.0000 electrons
 Dipole moment (field-independent basis, Debye):
    X=             -0.0000    Y=             -0.0000    Z=             -0.0000  Tot=              0.0000
 Quadrupole moment (field-independent basis, Debye-Ang):
   XX=            -15.6942   YY=            -12.4049   ZZ=            -12.2706
   XY=              0.0000   XZ=              0.0000   YZ=             -0.0000
 Traceless Quadrupole moment (field-independent basis, Debye-Ang):
   XX=             -2.2377   YY=              1.0517   ZZ=              1.1860
   XY=              0.0000   XZ=              0.0000   YZ=             -0.0000
 Octapole moment (field-independent basis, Debye-Ang**2):
  XXX=             -0.0000  YYY=              0.0000  ZZZ=             -0.0000  XYY=             -0.0000
  XXY=             -0.0000  XXZ=              0.0000  XZZ=             -0.0000  YZZ=             -0.0000
  YYZ=              0.0000  XYZ=             -0.0000
 Hexadecapole moment (field-independent basis, Debye-Ang**3):
 XXXX=            -19.3006 YYYY=            -27.4953 ZZZZ=            -68.9651 XXXY=             -0.0000
 XXXZ=              0.0000 YYYX=             -0.0000 YYYZ=              0.0000 ZZZX=              0.0000
 ZZZY=              0.0000 XXYY=             -8.5918 XXZZ=            -15.6144 YYZZ=            -13.3526
 XXYZ=              0.0000 YYXZ=              0.0000 ZZXY=              0.0000
 N-N= 3.348561839753D+01 E-N=-2.487046575340D+02  KE= 7.820888079326D+01
 PrsmSu:  requested number of processors reduced to:  21 ShMem   1 Linda.
 No NMR shielding tensors so no spin-rotation constants.
 Leave Link  601 at Sat Apr 17 19:24:05 2021, MaxMem=   104857600 cpu:             340.7 elap:               7.4
 (Enter /s/ls4/users/knvvv/bin/g16sse/l9999.exe)

 Test job not archived.
 1\1\GINC-N305\Stability\RM062X\Gen\C2H4\KNVVV\17-Apr-2021\0\\#P M062X/
 GEN Integral=UltraFineGrid SCF=NoSymm Stable=(RExt, Opt) IOp(1/33=1)\\
 Database calculations.\\0,1\C,0,0.6625036543,0.,0.\C,0,-0.6625036543,0
 .,0.\H,0,1.2314889528,-0.9211905434,0.\H,0,1.2314889528,0.9211905434,0
 .\H,0,-1.2314889528,-0.9211905434,0.\H,0,-1.2314889528,0.9211905434,0.
 \\Version=ES64L-G16RevA.03\State=1-AG\HF=-78.5806744\RMSD=9.808e-10\Di
 pole=0.,0.,0.\Quadrupole=0.8817418,0.781902,-1.6636438,0.,0.,0.\PG=D02
 H [C2"(C1.C1),SG(H4)]\\@


 THOSE WHO ARE UNABLE TO LEARN FROM PAST MEETINGS
 ARE CONDEMNED TO REPEAT THEM.
 Job cpu time:       0 days  9 hours 26 minutes 13.1 seconds.
 Elapsed time:       0 days  0 hours 13 minutes 27.1 seconds.
 File lengths (MBytes):  RWF=    155 Int=      0 D2E=      0 Chk=     10 Scr=      1
 Normal termination of Gaussian 16 at Sat Apr 17 19:24:11 2021.
