 Entering Gaussian System, Link 0=/opt/g16avx/g16
 Input=M062X--MG3S--28_H2S_NCCE30.gjf
 Output=M062X--MG3S--28_H2S_NCCE30.log
 Initial command:
 /opt/g16avx/l1.exe "/scratch/gaussian/Gau-14272.inp" -scrdir="/scratch/gaussian/"
 Entering Link 1 = /opt/g16avx/l1.exe PID=     14274.
  
 Copyright (c) 1988,1990,1992,1993,1995,1998,2003,2009,2016,
            Gaussian, Inc.  All Rights Reserved.
  
 This is part of the Gaussian(R) 16 program.  It is based on
 the Gaussian(R) 09 system (copyright 2009, Gaussian, Inc.),
 the Gaussian(R) 03 system (copyright 2003, Gaussian, Inc.),
 the Gaussian(R) 98 system (copyright 1998, Gaussian, Inc.),
 the Gaussian(R) 94 system (copyright 1995, Gaussian, Inc.),
 the Gaussian 92(TM) system (copyright 1992, Gaussian, Inc.),
 the Gaussian 90(TM) system (copyright 1990, Gaussian, Inc.),
 the Gaussian 88(TM) system (copyright 1988, Gaussian, Inc.),
 the Gaussian 86(TM) system (copyright 1986, Carnegie Mellon
 University), and the Gaussian 82(TM) system (copyright 1983,
 Carnegie Mellon University). Gaussian is a federally registered
 trademark of Gaussian, Inc.
  
 This software contains proprietary and confidential information,
 including trade secrets, belonging to Gaussian, Inc.
  
 This software is provided under written license and may be
 used, copied, transmitted, or stored only in accord with that
 written license.
  
 The following legend is applicable only to US Government
 contracts under FAR:
  
                    RESTRICTED RIGHTS LEGEND
  
 Use, reproduction and disclosure by the US Government is
 subject to restrictions as set forth in subparagraphs (a)
 and (c) of the Commercial Computer Software - Restricted
 Rights clause in FAR 52.227-19.
  
 Gaussian, Inc.
 340 Quinnipiac St., Bldg. 40, Wallingford CT 06492
  
  
 ---------------------------------------------------------------
 Warning -- This program may not be used in any manner that
 competes with the business of Gaussian, Inc. or will provide
 assistance to any competitor of Gaussian, Inc.  The licensee
 of this program is prohibited from giving any competitor of
 Gaussian, Inc. access to this program.  By using this program,
 the user acknowledges that Gaussian, Inc. is engaged in the
 business of creating and licensing software in the field of
 computational chemistry and represents and warrants to the
 licensee that it is not a competitor of Gaussian, Inc. and that
 it will not use this program in any manner prohibited above.
 ---------------------------------------------------------------
  

 Cite this work as:
 Gaussian 16, Revision A.03,
 M. J. Frisch, G. W. Trucks, H. B. Schlegel, G. E. Scuseria, 
 M. A. Robb, J. R. Cheeseman, G. Scalmani, V. Barone, 
 G. A. Petersson, H. Nakatsuji, X. Li, M. Caricato, A. V. Marenich, 
 J. Bloino, B. G. Janesko, R. Gomperts, B. Mennucci, H. P. Hratchian, 
 J. V. Ortiz, A. F. Izmaylov, J. L. Sonnenberg, D. Williams-Young, 
 F. Ding, F. Lipparini, F. Egidi, J. Goings, B. Peng, A. Petrone, 
 T. Henderson, D. Ranasinghe, V. G. Zakrzewski, J. Gao, N. Rega, 
 G. Zheng, W. Liang, M. Hada, M. Ehara, K. Toyota, R. Fukuda, 
 J. Hasegawa, M. Ishida, T. Nakajima, Y. Honda, O. Kitao, H. Nakai, 
 T. Vreven, K. Throssell, J. A. Montgomery, Jr., J. E. Peralta, 
 F. Ogliaro, M. J. Bearpark, J. J. Heyd, E. N. Brothers, K. N. Kudin, 
 V. N. Staroverov, T. A. Keith, R. Kobayashi, J. Normand, 
 K. Raghavachari, A. P. Rendell, J. C. Burant, S. S. Iyengar, 
 J. Tomasi, M. Cossi, J. M. Millam, M. Klene, C. Adamo, R. Cammi, 
 J. W. Ochterski, R. L. Martin, K. Morokuma, O. Farkas, 
 J. B. Foresman, and D. J. Fox, Gaussian, Inc., Wallingford CT, 2016.
 
 ******************************************
 Gaussian 16:  ES64L-G16RevA.03 25-Dec-2016
                19-Apr-2021 
 ******************************************
 %nprocshared=7
 Will use up to    7 processors via shared memory.
 ----------------------------------------------------------------------
 #P M062X/GEN Integral=UltraFineGrid SCF=NoSymm Stable=(RExt, Opt) IOp(
 1/33=1)
 ----------------------------------------------------------------------
 1/33=1,38=1,172=1/1;
 2/12=2,17=6,18=5,40=1/2;
 3/5=7,11=2,25=1,30=1,74=-55,75=-5/1,2,3;
 4/9=2/1;
 5/5=2,38=5/2;
 6/7=2,8=2,9=2,10=2,28=1/1;
 8/6=1,10=90,11=11/1;
 9/8=-3,42=1,46=1/14;
 5/5=2,8=3,17=40,38=5/8(-2);
 6/7=2,8=2,9=2,10=2,28=1/1;
 99/5=1,9=1/99;
 Leave Link    1 at Mon Apr 19 20:59:35 2021, MaxMem=           0 cpu:               0.3 elap:               0.0
 (Enter /opt/g16avx/l101.exe)
 ONIOM data not found on unit 2.
 ----------------------
 Database calculations.
 ----------------------
 TstMul:  ICh=     0
 TstMul:  Mul=     1
 TstMul:  ICh=     0
 TstMul:  Mul=     1
 Symbolic Z-matrix:
 Charge =  0 Multiplicity = 1
 16                    0.        0.        0.10389 
 1                     0.        0.96116  -0.83115 
 1                     0.       -0.96116  -0.83115 
 
 RdStrC is calling ZToCFu for IStruc=1 NZ=     3.
 PrtBox:  NBox=     1 Levels=  1 BoxLen=    8.00 SMaxX=        3.63
          Shift=            0.000000            1.816333            1.570652
 Box      1 Number                   0 centers from      1 to      3:
 After GenITR:
 ITRead=  0  0  0
 MicOpt= -1 -1 -1
 ITRead=  0  0  0
 MicOpt= -1 -1 -1
 NAtoms=      3 NQM=        3 NQMF=       0 NMMI=      0 NMMIF=      0
                NMic=       0 NMicF=      0.
                    Isotopes and Nuclear Properties:
 (Nuclear quadrupole moments (NQMom) in fm**2, nuclear magnetic moments (NMagM)
  in nuclear magnetons)

  Atom         1           2           3
 IAtWgt=          32           1           1
 AtmWgt=  31.9720718   1.0078250   1.0078250
 NucSpn=           0           1           1
 AtZEff=  -0.0000000  -0.0000000  -0.0000000
 NQMom=    0.0000000   0.0000000   0.0000000
 NMagM=    0.0000000   2.7928460   2.7928460
 AtZNuc=  16.0000000   1.0000000   1.0000000
 No MM parameters found.
 Leave Link  101 at Mon Apr 19 20:59:35 2021, MaxMem=   104857600 cpu:               1.2 elap:               0.2
 (Enter /opt/g16avx/l202.exe)
                          Input orientation:                          
 ---------------------------------------------------------------------
 Center     Atomic      Atomic             Coordinates (Angstroms)
 Number     Number       Type             X           Y           Z
 ---------------------------------------------------------------------
      1         16           0        0.000000    0.000000    0.103894
      2          1           0        0.000000    0.961162   -0.831153
      3          1           0        0.000000   -0.961162   -0.831153
 ---------------------------------------------------------------------
                    Distance matrix (angstroms):
                    1          2          3
     1  S    0.000000
     2  H    1.340949   0.000000
     3  H    1.340949   1.922324   0.000000
 Stoichiometry    H2S
 Framework group  C2V[C2(S),SGV(H2)]
 Deg. of freedom     2
 Full point group                 C2V     NOp   4
 Largest Abelian subgroup         C2V     NOp   4
 Largest concise Abelian subgroup C2      NOp   2
                         Standard orientation:                         
 ---------------------------------------------------------------------
 Center     Atomic      Atomic             Coordinates (Angstroms)
 Number     Number       Type             X           Y           Z
 ---------------------------------------------------------------------
      1         16           0        0.000000   -0.000000    0.103894
      2          1           0        0.000000    0.961162   -0.831153
      3          1           0       -0.000000   -0.961162   -0.831153
 ---------------------------------------------------------------------
 Rotational constants (GHZ):         304.8501792         271.3993955         143.5769465
 Leave Link  202 at Mon Apr 19 20:59:35 2021, MaxMem=   104857600 cpu:               0.0 elap:               0.0
 (Enter /opt/g16avx/l301.exe)
 General basis read from cards:  (5D, 7F)
 Centers:       2      3
 S 3 1.00
     Exponent=  3.3865000000D+01 Coefficients=  2.5493800000D-02
     Exponent=  5.0947900000D+00 Coefficients=  1.9037300000D-01
     Exponent=  1.1587900000D+00 Coefficients=  8.5216100000D-01
 S 1 1.00
     Exponent=  3.2584000000D-01 Coefficients=  1.0000000000D+00
 S 1 1.00
     Exponent=  1.0274100000D-01 Coefficients=  1.0000000000D+00
 P 1 1.00
     Exponent=  1.5000000000D+00 Coefficients=  1.0000000000D+00
 P 1 1.00
     Exponent=  3.7500000000D-01 Coefficients=  1.0000000000D+00
 ****
 Centers:       1
 S 6 1.00
     Exponent=  9.3413400000D+04 Coefficients=  7.4207910000D-04
     Exponent=  1.3961700000D+04 Coefficients=  5.7876580000D-03
     Exponent=  3.1699100000D+03 Coefficients=  2.9940670000D-02
     Exponent=  9.0245000000D+02 Coefficients=  1.1892820000D-01
     Exponent=  2.9715000000D+02 Coefficients=  3.6818220000D-01
     Exponent=  1.0870000000D+02 Coefficients=  5.7763360000D-01
 S 3 1.00
     Exponent=  1.0870000000D+02 Coefficients=  1.4279050000D-01
     Exponent=  4.3150000000D+01 Coefficients=  6.2469340000D-01
     Exponent=  1.8100000000D+01 Coefficients=  2.8348350000D-01
 S 1 1.00
     Exponent=  5.5700000000D+00 Coefficients=  1.0000000000D+00
 S 1 1.00
     Exponent=  2.1400000000D+00 Coefficients=  1.0000000000D+00
 S 1 1.00
     Exponent=  4.3000000000D-01 Coefficients=  1.0000000000D+00
 S 1 1.00
     Exponent=  1.5000000000D-01 Coefficients=  1.0000000000D+00
 S 1 1.00
     Exponent=  4.0500000000D-02 Coefficients=  1.0000000000D+00
 P 4 1.00
     Exponent=  4.9504000000D+02 Coefficients=  8.1962530000D-03
     Exponent=  1.1722000000D+02 Coefficients=  6.3642040000D-02
     Exponent=  3.7500000000D+01 Coefficients=  2.7880600000D-01
     Exponent=  1.3910000000D+01 Coefficients=  7.4474040000D-01
 P 2 1.00
     Exponent=  5.5000000000D+00 Coefficients=  6.1682480000D-01
     Exponent=  2.2400000000D+00 Coefficients=  4.4029460000D-01
 P 1 1.00
     Exponent=  7.7000000000D-01 Coefficients=  1.0000000000D+00
 P 1 1.00
     Exponent=  2.9000000000D-01 Coefficients=  1.0000000000D+00
 P 1 1.00
     Exponent=  1.0000000000D-01 Coefficients=  1.0000000000D+00
 P 1 1.00
     Exponent=  4.0500000000D-02 Coefficients=  1.0000000000D+00
 D 1 1.00
     Exponent=  2.6000000000D+00 Coefficients=  1.0000000000D+00
 D 1 1.00
     Exponent=  6.5000000000D-01 Coefficients=  1.0000000000D+00
 D 1 1.00
     Exponent=  1.6250000000D-01 Coefficients=  1.0000000000D+00
 F 1 1.00
     Exponent=  1.1000000000D+00 Coefficients=  1.0000000000D+00
 F 1 1.00
     Exponent=  2.7500000000D-01 Coefficients=  1.0000000000D+00
 ****
 Ernie: Thresh=  0.10000D-02 Tol=  0.10000D-05 Strict=F.
 There are    35 symmetry adapted cartesian basis functions of A1  symmetry.
 There are     7 symmetry adapted cartesian basis functions of A2  symmetry.
 There are    17 symmetry adapted cartesian basis functions of B1  symmetry.
 There are    22 symmetry adapted cartesian basis functions of B2  symmetry.
 There are    30 symmetry adapted basis functions of A1  symmetry.
 There are     7 symmetry adapted basis functions of A2  symmetry.
 There are    15 symmetry adapted basis functions of B1  symmetry.
 There are    20 symmetry adapted basis functions of B2  symmetry.
    72 basis functions,   104 primitive gaussians,    81 cartesian basis functions
     9 alpha electrons        9 beta electrons
       nuclear repulsion energy        12.9034005713 Hartrees.
 IExCor= 4336 DFT=T Ex+Corr=M062X ExCW=0 ScaHFX=  0.540000
 ScaDFX=  1.000000  1.000000  1.000000  1.000000 ScalE2=  1.000000  1.000000
 IRadAn=      5 IRanWt=     -1 IRanGd=            0 ICorTp=0 IEmpDi=  4
 NAtoms=    3 NActive=    3 NUniq=    2 SFac= 2.25D+00 NAtFMM=   60 NAOKFM=F Big=F
 Integral buffers will be    131072 words long.
 Raffenetti 2 integral format.
 Two-electron integral symmetry is turned on.
 Leave Link  301 at Mon Apr 19 20:59:36 2021, MaxMem=   104857600 cpu:               0.4 elap:               0.1
 (Enter /opt/g16avx/l302.exe)
 NPDir=0 NMtPBC=     1 NCelOv=     1 NCel=       1 NClECP=     1 NCelD=      1
         NCelK=      1 NCelE2=     1 NClLst=     1 CellRange=     0.0.
 One-electron integrals computed using PRISM.
 One-electron integral symmetry used in STVInt
 NBasis=    72 RedAO= T EigKep=  2.41D-03  NBF=    30     7    15    20
 NBsUse=    72 1.00D-06 EigRej= -1.00D+00 NBFU=    30     7    15    20
 Precomputing XC quadrature grid using
 IXCGrd= 4 IRadAn=           5 IRanWt=          -1 IRanGd=           0 AccXCQ= 0.00D+00.
 Generated NRdTot=       0 NPtTot=           0 NUsed=           0 NTot=          32
 NSgBfM=    81    81    81    81    81 MxSgAt=     3 MxSgA2=     3.
 Leave Link  302 at Mon Apr 19 20:59:36 2021, MaxMem=   104857600 cpu:               1.0 elap:               0.1
 (Enter /opt/g16avx/l303.exe)
 DipDrv:  MaxL=1.
 Leave Link  303 at Mon Apr 19 20:59:36 2021, MaxMem=   104857600 cpu:               0.3 elap:               0.0
 (Enter /opt/g16avx/l401.exe)
 SCF N**3 symmetry information disabled.
 ExpMin= 4.05D-02 ExpMax= 9.34D+04 ExpMxC= 3.17D+03 IAcc=3 IRadAn=         5 AccDes= 0.00D+00
 Harris functional with IExCor= 1009 and IRadAn=       5 diagonalized for initial guess.
 HarFok:  IExCor= 1009 AccDes= 0.00D+00 IRadAn=         5 IDoV= 1 UseB2=F ITyADJ=14
 ICtDFT=  3500011 ScaDFX=  1.000000  1.000000  1.000000  1.000000
 FoFCou: FMM=F IPFlag=           0 FMFlag=      100000 FMFlg1=           0
         NFxFlg=           0 DoJE=T BraDBF=F KetDBF=T FulRan=T
         wScrn=  0.000000 ICntrl=       500 IOpCl=  0 I1Cent=   200000004 NGrid=           0
         NMat0=    1 NMatS0=      1 NMatT0=    0 NMatD0=    1 NMtDS0=    0 NMtDT0=    0
 Petite list used in FoFCou.
 Harris En= -399.193243311540    
 JPrj=0 DoOrth=F DoCkMO=F.
 Initial guess orbital symmetries:
       Occupied  (A1) (A1) (B2) (A1) (B1) (A1) (B2) (A1) (B1)
       Virtual   (B2) (A1) (B2) (A1) (B1) (A1) (A1) (A2) (B1) (B2)
                 (A1) (B2) (A1) (B1) (A1) (B2) (A1) (A2) (B2) (B1)
                 (A1) (B2) (B1) (A1) (A1) (A2) (B1) (B2) (A1) (B2)
                 (B1) (A2) (A1) (A1) (B2) (B1) (A1) (B2) (B2) (A1)
                 (A1) (B2) (A2) (B1) (B2) (A1) (B1) (B2) (B1) (A1)
                 (A2) (B2) (A1) (B1) (A2) (A1) (A1) (B2) (A1) (B1)
                 (B2) (A1) (A1)
 The electronic state of the initial guess is 1-A1.
 Leave Link  401 at Mon Apr 19 20:59:36 2021, MaxMem=   104857600 cpu:               1.2 elap:               0.2
 (Enter /opt/g16avx/l502.exe)
 Keep R1 ints in memory in symmetry-blocked form, NReq=9799811.
 FoFCou: FMM=F IPFlag=           0 FMFlag=           0 FMFlg1=           0
         NFxFlg=           0 DoJE=F BraDBF=F KetDBF=F FulRan=T
         wScrn=  0.000000 ICntrl=       600 IOpCl=  0 I1Cent=           0 NGrid=           0
         NMat0=    1 NMatS0=   2628 NMatT0=    0 NMatD0=    1 NMtDS0=    0 NMtDT0=    0
 Petite list used in FoFCou.
 Closed shell SCF:
 Using DIIS extrapolation, IDIIS=  1040.
 NGot=   104857600 LenX=   103942450 LenY=   103935448
 Requested convergence on RMS density matrix=1.00D-08 within 128 cycles.
 Requested convergence on MAX density matrix=1.00D-06.
 Requested convergence on             energy=1.00D-06.
 No special actions if energy rises.

 Cycle   1  Pass 1  IDiag  1:
 E= -399.376426346074    
 DIIS: error= 2.35D-02 at cycle   1 NSaved=   1.
 NSaved= 1 IEnMin= 1 EnMin= -399.376426346074     IErMin= 1 ErrMin= 2.35D-02
 ErrMax= 2.35D-02  0.00D+00 EMaxC= 1.00D-01 BMatC= 3.12D-02 BMatP= 3.12D-02
 IDIUse=3 WtCom= 7.65D-01 WtEn= 2.35D-01
 Coeff-Com:  0.100D+01
 Coeff-En:   0.100D+01
 Coeff:      0.100D+01
 Gap=     0.371 Goal=   None    Shift=    0.000
 GapD=    0.371 DampG=1.000 DampE=0.500 DampFc=0.5000 IDamp=-1.
 Damping current iteration by 5.00D-01
 RMSDP=1.23D-03 MaxDP=3.43D-02              OVMax= 3.16D-02

 Cycle   2  Pass 1  IDiag  1:
 E= -399.380346901473     Delta-E=       -0.003920555399 Rises=F Damp=T
 DIIS: error= 9.60D-03 at cycle   2 NSaved=   2.
 NSaved= 2 IEnMin= 2 EnMin= -399.380346901473     IErMin= 2 ErrMin= 9.60D-03
 ErrMax= 9.60D-03  0.00D+00 EMaxC= 1.00D-01 BMatC= 5.67D-03 BMatP= 3.12D-02
 IDIUse=3 WtCom= 9.04D-01 WtEn= 9.60D-02
 Coeff-Com: -0.684D+00 0.168D+01
 Coeff-En:   0.000D+00 0.100D+01
 Coeff:     -0.618D+00 0.162D+01
 Gap=     0.344 Goal=   None    Shift=    0.000
 RMSDP=6.26D-04 MaxDP=1.44D-02 DE=-3.92D-03 OVMax= 1.04D-02

 Cycle   3  Pass 1  IDiag  1:
 E= -399.383824639161     Delta-E=       -0.003477737688 Rises=F Damp=F
 DIIS: error= 8.14D-04 at cycle   3 NSaved=   3.
 NSaved= 3 IEnMin= 3 EnMin= -399.383824639161     IErMin= 3 ErrMin= 8.14D-04
 ErrMax= 8.14D-04  0.00D+00 EMaxC= 1.00D-01 BMatC= 4.64D-05 BMatP= 5.67D-03
 IDIUse=3 WtCom= 9.92D-01 WtEn= 8.14D-03
 Coeff-Com: -0.833D-01 0.216D+00 0.867D+00
 Coeff-En:   0.000D+00 0.000D+00 0.100D+01
 Coeff:     -0.826D-01 0.214D+00 0.868D+00
 Gap=     0.342 Goal=   None    Shift=    0.000
 RMSDP=8.20D-05 MaxDP=2.99D-03 DE=-3.48D-03 OVMax= 2.67D-03

 Cycle   4  Pass 1  IDiag  1:
 E= -399.383852095077     Delta-E=       -0.000027455916 Rises=F Damp=F
 DIIS: error= 3.22D-04 at cycle   4 NSaved=   4.
 NSaved= 4 IEnMin= 4 EnMin= -399.383852095077     IErMin= 4 ErrMin= 3.22D-04
 ErrMax= 3.22D-04  0.00D+00 EMaxC= 1.00D-01 BMatC= 7.28D-06 BMatP= 4.64D-05
 IDIUse=3 WtCom= 9.97D-01 WtEn= 3.22D-03
 Coeff-Com:  0.130D-02-0.634D-02 0.274D+00 0.731D+00
 Coeff-En:   0.000D+00 0.000D+00 0.000D+00 0.100D+01
 Coeff:      0.130D-02-0.632D-02 0.273D+00 0.732D+00
 Gap=     0.343 Goal=   None    Shift=    0.000
 RMSDP=2.62D-05 MaxDP=9.69D-04 DE=-2.75D-05 OVMax= 7.25D-04

 Cycle   5  Pass 1  IDiag  1:
 E= -399.383856417940     Delta-E=       -0.000004322863 Rises=F Damp=F
 DIIS: error= 2.59D-05 at cycle   5 NSaved=   5.
 NSaved= 5 IEnMin= 5 EnMin= -399.383856417940     IErMin= 5 ErrMin= 2.59D-05
 ErrMax= 2.59D-05  0.00D+00 EMaxC= 1.00D-01 BMatC= 3.34D-08 BMatP= 7.28D-06
 IDIUse=1 WtCom= 1.00D+00 WtEn= 0.00D+00
 Coeff-Com:  0.185D-02-0.467D-02 0.433D-01 0.117D+00 0.842D+00
 Coeff:      0.185D-02-0.467D-02 0.433D-01 0.117D+00 0.842D+00
 Gap=     0.343 Goal=   None    Shift=    0.000
 RMSDP=2.32D-06 MaxDP=7.02D-05 DE=-4.32D-06 OVMax= 1.02D-04

 Cycle   6  Pass 1  IDiag  1:
 E= -399.383856443173     Delta-E=       -0.000000025233 Rises=F Damp=F
 DIIS: error= 9.21D-06 at cycle   6 NSaved=   6.
 NSaved= 6 IEnMin= 6 EnMin= -399.383856443173     IErMin= 6 ErrMin= 9.21D-06
 ErrMax= 9.21D-06  0.00D+00 EMaxC= 1.00D-01 BMatC= 5.31D-09 BMatP= 3.34D-08
 IDIUse=1 WtCom= 1.00D+00 WtEn= 0.00D+00
 Coeff-Com:  0.124D-04 0.135D-03-0.168D-01-0.567D-01 0.225D+00 0.849D+00
 Coeff:      0.124D-04 0.135D-03-0.168D-01-0.567D-01 0.225D+00 0.849D+00
 Gap=     0.343 Goal=   None    Shift=    0.000
 RMSDP=1.17D-06 MaxDP=3.43D-05 DE=-2.52D-08 OVMax= 3.88D-05

 Cycle   7  Pass 1  IDiag  1:
 E= -399.383856448986     Delta-E=       -0.000000005813 Rises=F Damp=F
 DIIS: error= 9.51D-07 at cycle   7 NSaved=   7.
 NSaved= 7 IEnMin= 7 EnMin= -399.383856448986     IErMin= 7 ErrMin= 9.51D-07
 ErrMax= 9.51D-07  0.00D+00 EMaxC= 1.00D-01 BMatC= 2.97D-11 BMatP= 5.31D-09
 IDIUse=1 WtCom= 1.00D+00 WtEn= 0.00D+00
 Coeff-Com:  0.337D-04-0.617D-04-0.393D-04-0.646D-03-0.203D-01 0.135D-01
 Coeff-Com:  0.101D+01
 Coeff:      0.337D-04-0.617D-04-0.393D-04-0.646D-03-0.203D-01 0.135D-01
 Coeff:      0.101D+01
 Gap=     0.343 Goal=   None    Shift=    0.000
 RMSDP=6.50D-08 MaxDP=1.42D-06 DE=-5.81D-09 OVMax= 3.52D-06

 Cycle   8  Pass 1  IDiag  1:
 E= -399.383856449020     Delta-E=       -0.000000000034 Rises=F Damp=F
 DIIS: error= 7.32D-08 at cycle   8 NSaved=   8.
 NSaved= 8 IEnMin= 8 EnMin= -399.383856449020     IErMin= 8 ErrMin= 7.32D-08
 ErrMax= 7.32D-08  0.00D+00 EMaxC= 1.00D-01 BMatC= 2.66D-13 BMatP= 2.97D-11
 IDIUse=1 WtCom= 1.00D+00 WtEn= 0.00D+00
 Coeff-Com: -0.611D-05 0.989D-05 0.117D-03 0.625D-03 0.125D-02-0.138D-01
 Coeff-Com: -0.143D+00 0.116D+01
 Coeff:     -0.611D-05 0.989D-05 0.117D-03 0.625D-03 0.125D-02-0.138D-01
 Coeff:     -0.143D+00 0.116D+01
 Gap=     0.343 Goal=   None    Shift=    0.000
 RMSDP=1.03D-08 MaxDP=2.51D-07 DE=-3.39D-11 OVMax= 4.90D-07

 Cycle   9  Pass 1  IDiag  1:
 E= -399.383856449020     Delta-E=       -0.000000000000 Rises=F Damp=F
 DIIS: error= 1.08D-08 at cycle   9 NSaved=   9.
 NSaved= 9 IEnMin= 9 EnMin= -399.383856449020     IErMin= 9 ErrMin= 1.08D-08
 ErrMax= 1.08D-08  0.00D+00 EMaxC= 1.00D-01 BMatC= 2.33D-15 BMatP= 2.66D-13
 IDIUse=1 WtCom= 1.00D+00 WtEn= 0.00D+00
 Coeff-Com: -0.709D-06 0.142D-05-0.683D-06-0.163D-04 0.439D-03 0.569D-03
 Coeff-Com: -0.151D-01-0.275D-01 0.104D+01
 Coeff:     -0.709D-06 0.142D-05-0.683D-06-0.163D-04 0.439D-03 0.569D-03
 Coeff:     -0.151D-01-0.275D-01 0.104D+01
 Gap=     0.343 Goal=   None    Shift=    0.000
 RMSDP=9.89D-10 MaxDP=1.98D-08 DE=-5.68D-14 OVMax= 4.36D-08

 SCF Done:  E(RM062X) =  -399.383856449     A.U. after    9 cycles
            NFock=  9  Conv=0.99D-09     -V/T= 2.0013
 KE= 3.988724899649D+02 PE=-9.757151399118D+02 EE= 1.645553929266D+02
 Leave Link  502 at Mon Apr 19 20:59:37 2021, MaxMem=   104857600 cpu:               5.2 elap:               0.8
 (Enter /opt/g16avx/l601.exe)
 Copying SCF densities to generalized density rwf, IOpCl= 0 IROHF=0.

 **********************************************************************

            Population analysis using the SCF density.

 **********************************************************************

 Orbital symmetries:
       Occupied  (A1) (A1) (B2) (A1) (B1) (A1) (B2) (A1) (B1)
       Virtual   (A1) (B2) (B2) (A1) (B1) (A1) (A1) (A2) (B1) (B2)
                 (A1) (B2) (A1) (B1) (A1) (B2) (A1) (A2) (B2) (B1)
                 (A1) (B2) (B1) (A1) (A1) (A2) (B1) (B2) (A1) (B2)
                 (B1) (A2) (A1) (A1) (B2) (B1) (A1) (B2) (B2) (A1)
                 (A1) (B2) (A2) (B1) (B2) (A1) (B1) (B2) (B1) (A1)
                 (A2) (B2) (A1) (A2) (B1) (A1) (A1) (B2) (A1) (B1)
                 (B2) (A1) (A1)
 The electronic state is 1-A1.
 Alpha  occ. eigenvalues --  -89.90175  -8.26734  -6.18825  -6.18659  -6.18343
 Alpha  occ. eigenvalues --   -0.83065  -0.50427  -0.42987  -0.32167
 Alpha virt. eigenvalues --    0.02102   0.04792   0.05568   0.05888   0.06799
 Alpha virt. eigenvalues --    0.12360   0.22656   0.25111   0.25628   0.28422
 Alpha virt. eigenvalues --    0.30542   0.38967   0.40505   0.42214   0.52407
 Alpha virt. eigenvalues --    0.59360   0.73856   0.78244   0.81342   0.82696
 Alpha virt. eigenvalues --    0.84300   0.88495   0.88991   0.94855   0.98527
 Alpha virt. eigenvalues --    1.02329   1.02641   1.09944   1.13016   1.21910
 Alpha virt. eigenvalues --    1.22857   1.27278   1.36443   1.49186   1.54489
 Alpha virt. eigenvalues --    1.78419   2.00873   2.02248   2.73014   2.75998
 Alpha virt. eigenvalues --    3.25873   3.29840   3.35587   3.39393   3.39536
 Alpha virt. eigenvalues --    3.41178   3.45033   3.90829   3.94968   3.95481
 Alpha virt. eigenvalues --    3.96463   4.25452   4.30589   4.72038   4.72146
 Alpha virt. eigenvalues --    4.73732   5.07341   5.61494   8.19436  17.21691
 Alpha virt. eigenvalues --   17.35658  17.39930 189.37488
          Condensed to atoms (all electrons):
               1          2          3
     1  S   15.599391   0.343076   0.343076
     2  H    0.343076   0.528887  -0.014734
     3  H    0.343076  -0.014734   0.528887
 Mulliken charges:
               1
     1  S   -0.285543
     2  H    0.142771
     3  H    0.142771
 Sum of Mulliken charges =  -0.00000
 Mulliken charges with hydrogens summed into heavy atoms:
               1
     1  S   -0.000000
 Electronic spatial extent (au):  <R**2>=             43.8510
 Charge=             -0.0000 electrons
 Dipole moment (field-independent basis, Debye):
    X=             -0.0000    Y=              0.0000    Z=             -1.0222  Tot=              1.0222
 Quadrupole moment (field-independent basis, Debye-Ang):
   XX=            -16.6997   YY=            -12.3782   ZZ=            -13.5628
   XY=              0.0000   XZ=              0.0000   YZ=              0.0000
 Traceless Quadrupole moment (field-independent basis, Debye-Ang):
   XX=             -2.4861   YY=              1.8353   ZZ=              0.6508
   XY=              0.0000   XZ=              0.0000   YZ=              0.0000
 Octapole moment (field-independent basis, Debye-Ang**2):
  XXX=              0.0000  YYY=             -0.0000  ZZZ=             -1.2072  XYY=             -0.0000
  XXY=              0.0000  XXZ=             -0.1627  XZZ=              0.0000  YZZ=             -0.0000
  YYZ=             -1.2639  XYZ=             -0.0000
 Hexadecapole moment (field-independent basis, Debye-Ang**3):
 XXXX=            -25.0865 YYYY=            -22.4023 ZZZZ=            -24.4898 XXXY=             -0.0000
 XXXZ=             -0.0000 YYYX=             -0.0000 YYYZ=             -0.0000 ZZZX=             -0.0000
 ZZZY=             -0.0000 XXYY=             -8.3914 XXZZ=             -8.5657 YYZZ=             -6.5506
 XXYZ=             -0.0000 YYXZ=              0.0000 ZZXY=              0.0000
 N-N= 1.290340057135D+01 E-N=-9.757151399663D+02  KE= 3.988724899649D+02
 No NMR shielding tensors so no spin-rotation constants.
 Leave Link  601 at Mon Apr 19 20:59:37 2021, MaxMem=   104857600 cpu:               0.8 elap:               0.1
 (Enter /opt/g16avx/l801.exe)
 DoSCS=F DFT=T ScalE2(SS,OS)=  1.000000  1.000000
 Range of M.O.s used for correlation:     1    72
 NBasis=    72 NAE=     9 NBE=     9 NFC=     0 NFV=     0
 NROrb=     72 NOA=     9 NOB=     9 NVA=    63 NVB=    63
 Leave Link  801 at Mon Apr 19 20:59:37 2021, MaxMem=   104857600 cpu:               0.2 elap:               0.0
 (Enter /opt/g16avx/l914.exe)
 RHF ground state
 Doing stability rather than CIS.
 Keep R1 and R2 ints in memory in symmetry-blocked form, NReq=15283568.
 FoFCou: FMM=F IPFlag=           0 FMFlag=           0 FMFlg1=           0
         NFxFlg=           0 DoJE=F BraDBF=F KetDBF=F FulRan=T
         wScrn=  0.000000 ICntrl=       600 IOpCl=  0 I1Cent=           0 NGrid=           0
         NMat0=    1 NMatS0=   2628 NMatT0=    0 NMatD0=    1 NMtDS0=    0 NMtDT0=    0
 Petite list used in FoFCou.
 MDV=   104857600 DFT=T DoStab=T Mixed=T DoRPA=F DoScal=F NonHer=F
 Making orbital integer symmetry assigments:
 Orbital symmetries:
       Occupied  (A1) (A1) (B2) (A1) (B1) (A1) (B2) (A1) (B1)
       Virtual   (A1) (B2) (B2) (A1) (B1) (A1) (A1) (A2) (B1) (B2)
                 (A1) (B2) (A1) (B1) (A1) (B2) (A1) (A2) (B2) (B1)
                 (A1) (B2) (B1) (A1) (A1) (A2) (B1) (B2) (A1) (B2)
                 (B1) (A2) (A1) (A1) (B2) (B1) (A1) (B2) (B2) (A1)
                 (A1) (B2) (A2) (B1) (B2) (A1) (B1) (B2) (B1) (A1)
                 (A2) (B2) (A1) (A2) (B1) (A1) (A1) (B2) (A1) (B1)
                 (B2) (A1) (A1)
    24 initial guesses have been made.
 Convergence on wavefunction:    0.001000000000000
 Davidson Disk Diagonalization:  ConvIn= 1.00D-03 SkipCon=T Conv= 1.00D-03.
 Max sub-space:  2000 roots to seek:    24 dimension of matrix:         1134
 Iteration     1 Dimension    24 NMult     0 NNew     24
 CISAX will form    24 AO SS matrices at one time.
 NMat=    24 NSing=    12 JSym2X= 2.
 New state      1 was old state      6
 Excitation Energies [eV] at current iteration:
 Root      1 :     5.726706213157968
 Root      2 :     6.144508990368380
 Root      3 :     6.359193623683909
 Root      4 :     6.627396364282047
 Root      5 :     7.889040609652088
 Root      6 :     7.960320763827155
 Root      7 :     8.044162666095852
 Root      8 :     8.079931022263485
 Root      9 :     8.168274610373446
 Root     10 :     8.499547052273934
 Root     11 :     8.606821172102190
 Root     12 :     8.875736210906860
 Root     13 :     9.444036306317964
 Root     14 :     9.772832314632627
 Root     15 :    10.396706773387365
 Root     16 :    10.784130234994334
 Root     17 :    10.812306434282874
 Root     18 :    11.165546127894473
 Root     19 :    11.179129425045630
 Root     20 :    11.253790218997116
 Root     21 :    11.349136164769666
 Root     22 :    11.534886252904776
 Root     23 :    11.859110589943878
 Root     24 :    12.987372901119027
 Iteration     2 Dimension    48 NMult    24 NNew     24
 CISAX will form    24 AO SS matrices at one time.
 NMat=    24 NSing=    12 JSym2X= 2.
 Root      1 not converged, maximum delta is    0.098232374440070
 Excitation Energies [eV] at current iteration:
 Root      1 :     5.423527005044813   Change is   -0.303179208113154
 Root      2 :     5.921942043303503   Change is   -0.222566947064878
 Root      3 :     6.213494118453017   Change is   -0.145699505230892
 Root      4 :     6.512793126223049   Change is   -0.114603238058997
 Root      5 :     7.209577288229647   Change is   -0.750743475597508
 Root      6 :     7.800009435968734   Change is   -0.089031173683353
 Root      7 :     7.870536916868580   Change is   -0.629010135405355
 Root      8 :     7.958392187242768   Change is   -0.085770478853085
 Root      9 :     8.000685728471467   Change is   -0.079245293792019
 Root     10 :     8.122923076196855   Change is   -0.045351534176591
 Root     11 :     8.352662764931596   Change is   -0.254158407170593
 Root     12 :     8.606379803487176   Change is   -0.269356407419685
 Root     13 :     8.903811771487884   Change is   -0.540224534830080
 Root     14 :     9.396775197609498   Change is   -0.999931575777867
 Root     15 :     9.600420443036208   Change is   -0.172411871596419
 Root     16 :    10.017905498452540   Change is   -2.969467402666488
 Root     17 :    10.440776485115812   Change is   -0.724769642778660
 Root     18 :    10.709255499812144   Change is   -0.074874735182190
 Root     19 :    10.786403758749168   Change is   -0.025902675533706
 Root     20 :    10.999866357470628   Change is   -0.253923861526488
 Root     21 :    11.022424150318560   Change is   -0.156705274727070
 Root     22 :    11.131711857944598   Change is   -0.217424306825068
 Root     23 :    11.342867868472682   Change is   -0.516242721471195
 Root     24 :    11.552598303901332   Change is    0.017712050996556
 Iteration     3 Dimension    54 NMult    48 NNew      6
 CISAX will form     6 AO SS matrices at one time.
 NMat=     6 NSing=     3 JSym2X= 2.
 Root      1 not converged, maximum delta is    0.007950590468920
 Excitation Energies [eV] at current iteration:
 Root      1 :     5.420848593912504   Change is   -0.002678411132310
 Root      2 :     5.918977031573356   Change is   -0.002965011730146
 Root      3 :     6.206935651894430   Change is   -0.006558466558588
 Root      4 :     6.510224922935665   Change is   -0.002568203287385
 Root      5 :     7.177553746095593   Change is   -0.032023542134054
 Root      6 :     7.799298802511045   Change is   -0.000710633457689
 Iteration     4 Dimension    60 NMult    54 NNew      6
 CISAX will form     6 AO SS matrices at one time.
 NMat=     6 NSing=     3 JSym2X= 2.
 Root      1 has converged.
 Excitation Energies [eV] at current iteration:
 Root      1 :     5.420789931318206   Change is   -0.000058662594298
 Root      2 :     5.918710091680834   Change is   -0.000266939892522
 Root      3 :     6.206921097126196   Change is   -0.000014554768233
 Root      4 :     6.510182014686205   Change is   -0.000042908249460
 Root      5 :     7.175103632877616   Change is   -0.002450113217977
 Root      6 :     7.799286650569249   Change is   -0.000012151941797
 Convergence achieved on expansion vectors.
 ***********************************************************************
 Stability analysis using <AA,BB:AA,BB> singles matrix:
 ***********************************************************************
 1PDM for each excited state written to RWF  633
 Ground to excited state transition densities written to RWF  633

 Eigenvectors of the stability matrix:
 
 Eigenvector   1:      Triplet-A2   Eigenvalue= 0.1992104  <S**2>=2.000
       9 -> 11         0.44751
       9 -> 12         0.53213
 The wavefunction is stable under the perturbations considered.
 Leave Link  914 at Mon Apr 19 20:59:47 2021, MaxMem=   104857600 cpu:              70.3 elap:              10.0
 (Enter /opt/g16avx/l508.exe)
 The wavefunction is already stable.
 Leave Link  508 at Mon Apr 19 20:59:47 2021, MaxMem=   104857600 cpu:               0.0 elap:               0.0
 (Enter /opt/g16avx/l601.exe)
 Copying SCF densities to generalized density rwf, IOpCl= 0 IROHF=0.

 **********************************************************************

            Population analysis using the SCF density.

 **********************************************************************

 Orbital symmetries:
       Occupied  (A1) (A1) (B2) (A1) (B1) (A1) (B2) (A1) (B1)
       Virtual   (A1) (B2) (B2) (A1) (B1) (A1) (A1) (A2) (B1) (B2)
                 (A1) (B2) (A1) (B1) (A1) (B2) (A1) (A2) (B2) (B1)
                 (A1) (B2) (B1) (A1) (A1) (A2) (B1) (B2) (A1) (B2)
                 (B1) (A2) (A1) (A1) (B2) (B1) (A1) (B2) (B2) (A1)
                 (A1) (B2) (A2) (B1) (B2) (A1) (B1) (B2) (B1) (A1)
                 (A2) (B2) (A1) (A2) (B1) (A1) (A1) (B2) (A1) (B1)
                 (B2) (A1) (A1)
 The electronic state is 1-A1.
 Alpha  occ. eigenvalues --  -89.90175  -8.26734  -6.18825  -6.18659  -6.18343
 Alpha  occ. eigenvalues --   -0.83065  -0.50427  -0.42987  -0.32167
 Alpha virt. eigenvalues --    0.02102   0.04792   0.05568   0.05888   0.06799
 Alpha virt. eigenvalues --    0.12360   0.22656   0.25111   0.25628   0.28422
 Alpha virt. eigenvalues --    0.30542   0.38967   0.40505   0.42214   0.52407
 Alpha virt. eigenvalues --    0.59360   0.73856   0.78244   0.81342   0.82696
 Alpha virt. eigenvalues --    0.84300   0.88495   0.88991   0.94855   0.98527
 Alpha virt. eigenvalues --    1.02329   1.02641   1.09944   1.13016   1.21910
 Alpha virt. eigenvalues --    1.22857   1.27278   1.36443   1.49186   1.54489
 Alpha virt. eigenvalues --    1.78419   2.00873   2.02248   2.73014   2.75998
 Alpha virt. eigenvalues --    3.25873   3.29840   3.35587   3.39393   3.39536
 Alpha virt. eigenvalues --    3.41178   3.45033   3.90829   3.94968   3.95481
 Alpha virt. eigenvalues --    3.96463   4.25452   4.30589   4.72038   4.72146
 Alpha virt. eigenvalues --    4.73732   5.07341   5.61494   8.19436  17.21691
 Alpha virt. eigenvalues --   17.35658  17.39930 189.37488
          Condensed to atoms (all electrons):
               1          2          3
     1  S   15.599391   0.343076   0.343076
     2  H    0.343076   0.528887  -0.014734
     3  H    0.343076  -0.014734   0.528887
 Mulliken charges:
               1
     1  S   -0.285543
     2  H    0.142771
     3  H    0.142771
 Sum of Mulliken charges =  -0.00000
 Mulliken charges with hydrogens summed into heavy atoms:
               1
     1  S   -0.000000
 Electronic spatial extent (au):  <R**2>=             43.8510
 Charge=             -0.0000 electrons
 Dipole moment (field-independent basis, Debye):
    X=             -0.0000    Y=              0.0000    Z=             -1.0222  Tot=              1.0222
 Quadrupole moment (field-independent basis, Debye-Ang):
   XX=            -16.6997   YY=            -12.3782   ZZ=            -13.5628
   XY=              0.0000   XZ=              0.0000   YZ=              0.0000
 Traceless Quadrupole moment (field-independent basis, Debye-Ang):
   XX=             -2.4861   YY=              1.8353   ZZ=              0.6508
   XY=              0.0000   XZ=              0.0000   YZ=              0.0000
 Octapole moment (field-independent basis, Debye-Ang**2):
  XXX=              0.0000  YYY=             -0.0000  ZZZ=             -1.2072  XYY=             -0.0000
  XXY=              0.0000  XXZ=             -0.1627  XZZ=              0.0000  YZZ=             -0.0000
  YYZ=             -1.2639  XYZ=             -0.0000
 Hexadecapole moment (field-independent basis, Debye-Ang**3):
 XXXX=            -25.0865 YYYY=            -22.4023 ZZZZ=            -24.4898 XXXY=             -0.0000
 XXXZ=             -0.0000 YYYX=             -0.0000 YYYZ=             -0.0000 ZZZX=             -0.0000
 ZZZY=             -0.0000 XXYY=             -8.3914 XXZZ=             -8.5657 YYZZ=             -6.5506
 XXYZ=             -0.0000 YYXZ=              0.0000 ZZXY=              0.0000
 N-N= 1.290340057135D+01 E-N=-9.757151399663D+02  KE= 3.988724899649D+02
 No NMR shielding tensors so no spin-rotation constants.
 Leave Link  601 at Mon Apr 19 20:59:47 2021, MaxMem=   104857600 cpu:               0.8 elap:               0.1
 (Enter /opt/g16avx/l9999.exe)

 Test job not archived.
 1\1\GINC-VERTEX\Stability\RM062X\Gen\H2S1\XRAY\19-Apr-2021\0\\#P M062X
 /GEN Integral=UltraFineGrid SCF=NoSymm Stable=(RExt, Opt) IOp(1/33=1)\
 \Database calculations.\\0,1\S,0,0.,0.,0.103894\H,0,0.,0.961162,-0.831
 153\H,0,0.,-0.961162,-0.831153\\Version=ES64L-G16RevA.03\State=1-A1\HF
 =-399.3838564\RMSD=9.886e-10\Dipole=0.,0.,-0.4021743\Quadrupole=-1.848
 3759,1.3645335,0.4838424,0.,0.,0.\PG=C02V [C2(S1),SGV(H2)]\\@


 HOW IS IT THAT THE SKY FEEDS THE STARS?

                           -- LUCRETIUS
 Job cpu time:       0 days  0 hours  1 minutes 22.3 seconds.
 Elapsed time:       0 days  0 hours  0 minutes 11.8 seconds.
 File lengths (MBytes):  RWF=     51 Int=      0 D2E=      0 Chk=      2 Scr=      1
 Normal termination of Gaussian 16 at Mon Apr 19 20:59:47 2021.
