 Entering Gaussian System, Link 0=/s/ls4/users/knvvv/bin/g16sse/g16
 Input=data/database/M062X--def2-QZVP--SIE4x4_nh3+.gjf
 Output=data/database/M062X--def2-QZVP--SIE4x4_nh3+.log
 Initial command:
 /s/ls4/users/knvvv/bin/g16sse/l1.exe "/s/ls4/users/knvvv/bin/scratch/Gau-1492.inp" -scrdir="/s/ls4/users/knvvv/bin/scratch/"
 Entering Link 1 = /s/ls4/users/knvvv/bin/g16sse/l1.exe PID=      1493.
  
 Copyright (c) 1988,1990,1992,1993,1995,1998,2003,2009,2016,
            Gaussian, Inc.  All Rights Reserved.
  
 This is part of the Gaussian(R) 16 program.  It is based on
 the Gaussian(R) 09 system (copyright 2009, Gaussian, Inc.),
 the Gaussian(R) 03 system (copyright 2003, Gaussian, Inc.),
 the Gaussian(R) 98 system (copyright 1998, Gaussian, Inc.),
 the Gaussian(R) 94 system (copyright 1995, Gaussian, Inc.),
 the Gaussian 92(TM) system (copyright 1992, Gaussian, Inc.),
 the Gaussian 90(TM) system (copyright 1990, Gaussian, Inc.),
 the Gaussian 88(TM) system (copyright 1988, Gaussian, Inc.),
 the Gaussian 86(TM) system (copyright 1986, Carnegie Mellon
 University), and the Gaussian 82(TM) system (copyright 1983,
 Carnegie Mellon University). Gaussian is a federally registered
 trademark of Gaussian, Inc.
  
 This software contains proprietary and confidential information,
 including trade secrets, belonging to Gaussian, Inc.
  
 This software is provided under written license and may be
 used, copied, transmitted, or stored only in accord with that
 written license.
  
 The following legend is applicable only to US Government
 contracts under FAR:
  
                    RESTRICTED RIGHTS LEGEND
  
 Use, reproduction and disclosure by the US Government is
 subject to restrictions as set forth in subparagraphs (a)
 and (c) of the Commercial Computer Software - Restricted
 Rights clause in FAR 52.227-19.
  
 Gaussian, Inc.
 340 Quinnipiac St., Bldg. 40, Wallingford CT 06492
  
  
 ---------------------------------------------------------------
 Warning -- This program may not be used in any manner that
 competes with the business of Gaussian, Inc. or will provide
 assistance to any competitor of Gaussian, Inc.  The licensee
 of this program is prohibited from giving any competitor of
 Gaussian, Inc. access to this program.  By using this program,
 the user acknowledges that Gaussian, Inc. is engaged in the
 business of creating and licensing software in the field of
 computational chemistry and represents and warrants to the
 licensee that it is not a competitor of Gaussian, Inc. and that
 it will not use this program in any manner prohibited above.
 ---------------------------------------------------------------
  

 Cite this work as:
 Gaussian 16, Revision A.03,
 M. J. Frisch, G. W. Trucks, H. B. Schlegel, G. E. Scuseria, 
 M. A. Robb, J. R. Cheeseman, G. Scalmani, V. Barone, 
 G. A. Petersson, H. Nakatsuji, X. Li, M. Caricato, A. V. Marenich, 
 J. Bloino, B. G. Janesko, R. Gomperts, B. Mennucci, H. P. Hratchian, 
 J. V. Ortiz, A. F. Izmaylov, J. L. Sonnenberg, D. Williams-Young, 
 F. Ding, F. Lipparini, F. Egidi, J. Goings, B. Peng, A. Petrone, 
 T. Henderson, D. Ranasinghe, V. G. Zakrzewski, J. Gao, N. Rega, 
 G. Zheng, W. Liang, M. Hada, M. Ehara, K. Toyota, R. Fukuda, 
 J. Hasegawa, M. Ishida, T. Nakajima, Y. Honda, O. Kitao, H. Nakai, 
 T. Vreven, K. Throssell, J. A. Montgomery, Jr., J. E. Peralta, 
 F. Ogliaro, M. J. Bearpark, J. J. Heyd, E. N. Brothers, K. N. Kudin, 
 V. N. Staroverov, T. A. Keith, R. Kobayashi, J. Normand, 
 K. Raghavachari, A. P. Rendell, J. C. Burant, S. S. Iyengar, 
 J. Tomasi, M. Cossi, J. M. Millam, M. Klene, C. Adamo, R. Cammi, 
 J. W. Ochterski, R. L. Martin, K. Morokuma, O. Farkas, 
 J. B. Foresman, and D. J. Fox, Gaussian, Inc., Wallingford CT, 2016.
 
 ******************************************
 Gaussian 16:  ES64L-G16RevA.03 25-Dec-2016
                18-Apr-2021 
 ******************************************
 %RWF=temp23_10724,70GB
 %nprocshared=48
 Will use up to   48 processors via shared memory.
 Default route: MaxDisk=80GB
 ----------------------------------------------------------------------
 #P M062X/Def2QZVP Integral=UltraFineGrid SCF=NoSymm Stable=(RExt, Opt)
  IOp(1/33=1)
 ----------------------------------------------------------------------
 1/33=1,38=1,172=1/1;
 2/12=2,17=6,18=5,40=1/2;
 3/5=45,7=101,11=2,25=1,30=1,74=-55,75=-5/1,2,3;
 4/9=2/1;
 5/5=2,38=5/2;
 6/7=2,8=2,9=2,10=2,28=1/1;
 8/6=1,10=90,11=11/1;
 9/8=-3,42=1,46=1/14;
 5/5=2,8=3,17=40,38=5/8(-2);
 6/7=2,8=2,9=2,10=2,28=1/1;
 99/5=1,9=1/99;
 Leave Link    1 at Sun Apr 18 03:11:27 2021, MaxMem=           0 cpu:              10.9 elap:               0.2
 (Enter /s/ls4/users/knvvv/bin/g16sse/l101.exe)
 ONIOM data not found on unit 2.
 ----------------------
 Database calculations.
 ----------------------
 TstMul:  ICh=     1
 TstMul:  Mul=     2
 TstMul:  ICh=     1
 TstMul:  Mul=     2
 Symbolic Z-matrix:
 Charge =  1 Multiplicity = 2
 N                     0.        0.        0. 
 H                     0.5094   -0.88231   0. 
 H                     0.5094    0.88231   0. 
 H                    -1.0188    0.        0. 
 
 RdStrC is calling ZToCFu for IStruc=1 NZ=     4.
 PrtBox:  NBox=     1 Levels=  1 BoxLen=    8.00 SMaxX=        3.33
          Shift=            1.925253            1.667318            0.000000
 Box      1 Number                   0 centers from      1 to      4:
 After GenITR:
 ITRead=  0  0  0  0
 MicOpt= -1 -1 -1 -1
 ITRead=  0  0  0  0
 MicOpt= -1 -1 -1 -1
 NAtoms=      4 NQM=        4 NQMF=       0 NMMI=      0 NMMIF=      0
                NMic=       0 NMicF=      0.
                    Isotopes and Nuclear Properties:
 (Nuclear quadrupole moments (NQMom) in fm**2, nuclear magnetic moments (NMagM)
  in nuclear magnetons)

  Atom         1           2           3           4
 IAtWgt=          14           1           1           1
 AtmWgt=  14.0030740   1.0078250   1.0078250   1.0078250
 NucSpn=           2           1           1           1
 AtZEff=  -0.0000000  -0.0000000  -0.0000000  -0.0000000
 NQMom=    2.0440000   0.0000000   0.0000000   0.0000000
 NMagM=    0.4037610   2.7928460   2.7928460   2.7928460
 AtZNuc=   7.0000000   1.0000000   1.0000000   1.0000000
 No MM parameters found.
 Leave Link  101 at Sun Apr 18 03:11:27 2021, MaxMem=   104857600 cpu:               5.3 elap:               0.1
 (Enter /s/ls4/users/knvvv/bin/g16sse/l202.exe)
                          Input orientation:                          
 ---------------------------------------------------------------------
 Center     Atomic      Atomic             Coordinates (Angstroms)
 Number     Number       Type             X           Y           Z
 ---------------------------------------------------------------------
      1          7           0        0.000000    0.000000    0.000000
      2          1           0        0.509400   -0.882307    0.000000
      3          1           0        0.509400    0.882307    0.000000
      4          1           0       -1.018800    0.000000    0.000000
 ---------------------------------------------------------------------
                    Distance matrix (angstroms):
                    1          2          3          4
     1  N    0.000000
     2  H    1.018800   0.000000
     3  H    1.018800   1.764614   0.000000
     4  H    1.018800   1.764614   1.764614   0.000000
 Stoichiometry    H3N(1+,2)
 Framework group  D3H[O(N),3C2(H)]
 Deg. of freedom     1
 Full point group                 D3H     NOp  12
 Largest Abelian subgroup         C2V     NOp   4
 Largest concise Abelian subgroup C2      NOp   2
                         Standard orientation:                         
 ---------------------------------------------------------------------
 Center     Atomic      Atomic             Coordinates (Angstroms)
 Number     Number       Type             X           Y           Z
 ---------------------------------------------------------------------
      1          7           0        0.000000    0.000000    0.000000
      2          1           0        0.000000    1.018800    0.000000
      3          1           0       -0.882307   -0.509400    0.000000
      4          1           0        0.882307   -0.509400    0.000000
 ---------------------------------------------------------------------
 Rotational constants (GHZ):         322.0792527         322.0792527         161.0396264
 Leave Link  202 at Sun Apr 18 03:11:28 2021, MaxMem=   104857600 cpu:              15.5 elap:               0.4
 (Enter /s/ls4/users/knvvv/bin/g16sse/l301.exe)
 Standard basis: def2QZVP (5D, 7F)
 Ernie: Thresh=  0.10000D-02 Tol=  0.10000D-05 Strict=F.
 There are    72 symmetry adapted cartesian basis functions of A1  symmetry.
 There are    22 symmetry adapted cartesian basis functions of A2  symmetry.
 There are    48 symmetry adapted cartesian basis functions of B1  symmetry.
 There are    35 symmetry adapted cartesian basis functions of B2  symmetry.
 There are    57 symmetry adapted basis functions of A1  symmetry.
 There are    20 symmetry adapted basis functions of A2  symmetry.
 There are    40 symmetry adapted basis functions of B1  symmetry.
 There are    30 symmetry adapted basis functions of B2  symmetry.
   147 basis functions,   206 primitive gaussians,   177 cartesian basis functions
     5 alpha electrons        4 beta electrons
       nuclear repulsion energy        11.8073035160 Hartrees.
 IExCor= 4336 DFT=T Ex+Corr=M062X ExCW=0 ScaHFX=  0.540000
 ScaDFX=  1.000000  1.000000  1.000000  1.000000 ScalE2=  1.000000  1.000000
 IRadAn=      5 IRanWt=     -1 IRanGd=            0 ICorTp=0 IEmpDi=  4
 NAtoms=    4 NActive=    4 NUniq=    2 SFac= 4.00D+00 NAtFMM=   60 NAOKFM=F Big=F
 Integral buffers will be    131072 words long.
 Raffenetti 2 integral format.
 Two-electron integral symmetry is turned on.
 Leave Link  301 at Sun Apr 18 03:11:28 2021, MaxMem=   104857600 cpu:               6.6 elap:               0.2
 (Enter /s/ls4/users/knvvv/bin/g16sse/l302.exe)
 NPDir=0 NMtPBC=     1 NCelOv=     1 NCel=       1 NClECP=     1 NCelD=      1
         NCelK=      1 NCelE2=     1 NClLst=     1 CellRange=     0.0.
 One-electron integrals computed using PRISM.
 One-electron integral symmetry used in STVInt
 PrsmSu:  requested number of processors reduced to:   4 ShMem   1 Linda.
 PrsmSu:  requested number of processors reduced to:  21 ShMem   1 Linda.
  12 Symmetry operations used in ECPInt.
 ECPInt:  NShTT=    1128 NPrTT=    2403 LenC2=    1129 LenP2D=    2313.
 LDataN:  DoStor=T MaxTD1= 8 Len=  415
 Number of processors reduced to  38 by ecpmxn.
 NBasis=   147 RedAO= T EigKep=  2.12D-04  NBF=    57    20    40    30
 NBsUse=   147 1.00D-06 EigRej= -1.00D+00 NBFU=    57    20    40    30
 Precomputing XC quadrature grid using
 IXCGrd= 4 IRadAn=           5 IRanWt=          -1 IRanGd=           0 AccXCQ= 0.00D+00.
 Generated NRdTot=       0 NPtTot=           0 NUsed=           0 NTot=          32
 NSgBfM=   177   177   177   177   177 MxSgAt=     4 MxSgA2=     4.
 Leave Link  302 at Sun Apr 18 03:11:48 2021, MaxMem=   104857600 cpu:             929.0 elap:              19.9
 (Enter /s/ls4/users/knvvv/bin/g16sse/l303.exe)
 DipDrv:  MaxL=1.
 Leave Link  303 at Sun Apr 18 03:11:48 2021, MaxMem=   104857600 cpu:              19.8 elap:               0.4
 (Enter /s/ls4/users/knvvv/bin/g16sse/l401.exe)
 SCF N**3 symmetry information disabled.
 ExpMin= 8.03D-02 ExpMax= 9.07D+04 ExpMxC= 8.76D+02 IAcc=3 IRadAn=         5 AccDes= 0.00D+00
 Harris functional with IExCor= 1009 and IRadAn=       5 diagonalized for initial guess.
 HarFok:  IExCor= 1009 AccDes= 0.00D+00 IRadAn=         5 IDoV= 1 UseB2=F ITyADJ=14
 ICtDFT=  3500011 ScaDFX=  1.000000  1.000000  1.000000  1.000000
 FoFCou: FMM=F IPFlag=           0 FMFlag=      100000 FMFlg1=           0
         NFxFlg=           0 DoJE=T BraDBF=F KetDBF=T FulRan=T
         wScrn=  0.000000 ICntrl=       500 IOpCl=  0 I1Cent=   200000004 NGrid=           0
         NMat0=    1 NMatS0=      1 NMatT0=    0 NMatD0=    1 NMtDS0=    0 NMtDT0=    0
 Petite list used in FoFCou.
 CoulSu:  requested number of processors reduced to:  21 ShMem   1 Linda.
 CoulSu:  requested number of processors reduced to:  21 ShMem   1 Linda.
 CoulSu:  requested number of processors reduced to:  21 ShMem   1 Linda.
 CoulSu:  requested number of processors reduced to:  21 ShMem   1 Linda.
 Harris En= -56.2183531681876    
 JPrj=0 DoOrth=F DoCkMO=F.
 Initial guess orbital symmetries:
 Alpha Orbitals:
       Occupied  (A1') (A1') (E') (E') (A2")
       Virtual   (A1') (E') (E') (E') (E') (A2") (A1') (E') (E')
                 (A1') (E") (E") (A2') (E') (E') (A2") (A1') (E')
                 (E') (A1') (E") (E") (E') (E') (A2") (A1') (E')
                 (E') (E') (E') (E") (E") (A1") (A2') (E') (E')
                 (A1') (A2") (E") (E") (A1') (E') (E') (E") (E")
                 (A2") (A1') (E') (E') (A2') (E') (E') (A1') (E")
                 (E") (A2") (E') (E') (A1') (E') (E') (E") (E")
                 (E') (E') (A2") (A2') (A1') (E') (E') (A1") (E')
                 (E') (E") (E") (A2') (A2") (A1') (E') (E') (A1')
                 (E') (E') (A2') (A2") (E") (E") (E") (E") (E')
                 (E') (E') (E') (A2") (E") (E") (A1') (A1") (E')
                 (E') (E') (E') (A1') (E") (E") (A1') (E") (E")
                 (A2') (E') (E') (A2") (E') (E') (E") (E") (A1')
                 (A2") (E') (E') (E') (E') (A1') (E") (E") (A2')
                 (A1") (A1') (E') (E') (A1') (A2") (A2') (E") (E")
                 (E') (E') (E') (E') (A1') (A1') (A1')
 Beta  Orbitals:
       Occupied  (A1') (A1') (E') (E')
       Virtual   (A2") (A1') (E') (E') (E') (E') (A2") (A1') (E')
                 (E') (A1') (E") (E") (A2') (E') (E') (A2") (A1')
                 (E') (E') (A1') (E") (E") (E') (E') (A2") (A1')
                 (E') (E') (E') (E') (E") (E") (A1") (A2') (E')
                 (E') (A1') (A2") (E") (E") (A1') (E') (E') (E")
                 (E") (A2") (A1') (E') (E') (A2') (E') (E') (A1')
                 (E") (E") (A2") (E') (E') (A1') (E') (E') (E")
                 (E") (E') (E') (A2") (A2') (A1') (E') (E') (A1")
                 (E') (E') (E") (E") (A2') (A2") (A1') (E') (E')
                 (A1') (E') (E') (A2') (A2") (E") (E") (E") (E")
                 (E') (E') (E') (E') (A2") (E") (E") (A1') (A1")
                 (E') (E') (E') (E') (A1') (E") (E") (A1') (E")
                 (E") (A2') (E') (E') (A2") (E') (E') (E") (E")
                 (A1') (A2") (E') (E') (E') (E') (A1') (E") (E")
                 (A2') (A1") (A1') (E') (E') (A1') (A2") (A2')
                 (E") (E") (E') (E') (E') (E') (A1') (A1') (A1')
 The electronic state of the initial guess is 2-A2".
 Initial guess <Sx>= 0.0000 <Sy>= 0.0000 <Sz>= 0.5000 <S**2>= 0.7500 S= 0.5000
 Leave Link  401 at Sun Apr 18 03:11:59 2021, MaxMem=   104857600 cpu:             515.0 elap:              11.2
 (Enter /s/ls4/users/knvvv/bin/g16sse/l502.exe)
 Integral symmetry usage will be decided dynamically.
 UHF open shell SCF:
 Using DIIS extrapolation, IDIIS=  1040.
 NGot=   104857600 LenX=   104783413 LenY=   104751643
 Requested convergence on RMS density matrix=1.00D-08 within 128 cycles.
 Requested convergence on MAX density matrix=1.00D-06.
 Requested convergence on             energy=1.00D-06.
 No special actions if energy rises.
 Fock matrices will be formed incrementally for  20 cycles.
 Integral accuracy reduced to 1.0D-05 until final iterations.

 Cycle   1  Pass 0  IDiag  1:
 FoFJK:  IHMeth= 1 ICntrl=       0 DoSepK=F KAlg= 0 I1Cent=           0 FoldK=F
 IRaf= 990000000 NMat=       1 IRICut=       1 DoRegI=T DoRafI=F ISym2E= 1 IDoP0=0 IntGTp=1.
 FoFCou: FMM=F IPFlag=           0 FMFlag=      100000 FMFlg1=           0
         NFxFlg=           0 DoJE=F BraDBF=F KetDBF=F FulRan=T
         wScrn=  0.000000 ICntrl=         0 IOpCl=  1 I1Cent=           0 NGrid=           0
         NMat0=    1 NMatS0=      1 NMatT0=    0 NMatD0=    1 NMtDS0=    0 NMtDT0=    0
 Petite list used in FoFCou.
 CoulSu:  requested number of processors reduced to:  20 ShMem   1 Linda.
 E= -56.1732502870394    
 DIIS: error= 3.58D-02 at cycle   1 NSaved=   1.
 NSaved= 1 IEnMin= 1 EnMin= -56.1732502870394     IErMin= 1 ErrMin= 3.58D-02
 ErrMax= 3.58D-02  0.00D+00 EMaxC= 1.00D-01 BMatC= 1.38D-01 BMatP= 1.38D-01
 IDIUse=3 WtCom= 6.42D-01 WtEn= 3.58D-01
 Coeff-Com:  0.100D+01
 Coeff-En:   0.100D+01
 Coeff:      0.100D+01
 Gap=     0.578 Goal=   None    Shift=    0.000
 Gap=     0.516 Goal=   None    Shift=    0.000
 GapD=    0.516 DampG=2.000 DampE=0.500 DampFc=1.0000 IDamp=-1.
 RMSDP=8.20D-04 MaxDP=5.86D-02              OVMax= 4.63D-02

 Cycle   2  Pass 0  IDiag  1:
 RMSU=  8.19D-04    CP:  1.00D+00
 CoulSu:  requested number of processors reduced to:  20 ShMem   1 Linda.
 E= -56.1812765789801     Delta-E=       -0.008026291941 Rises=F Damp=F
 DIIS: error= 2.92D-03 at cycle   2 NSaved=   2.
 NSaved= 2 IEnMin= 2 EnMin= -56.1812765789801     IErMin= 2 ErrMin= 2.92D-03
 ErrMax= 2.92D-03  0.00D+00 EMaxC= 1.00D-01 BMatC= 9.50D-04 BMatP= 1.38D-01
 IDIUse=3 WtCom= 9.71D-01 WtEn= 2.92D-02
 Coeff-Com: -0.926D-02 0.101D+01
 Coeff-En:   0.000D+00 0.100D+01
 Coeff:     -0.899D-02 0.101D+01
 Gap=     0.576 Goal=   None    Shift=    0.000
 Gap=     0.510 Goal=   None    Shift=    0.000
 RMSDP=1.12D-04 MaxDP=7.09D-03 DE=-8.03D-03 OVMax= 1.04D-02

 Cycle   3  Pass 0  IDiag  1:
 RMSU=  1.07D-04    CP:  1.00D+00  1.04D+00
 CoulSu:  requested number of processors reduced to:  20 ShMem   1 Linda.
 E= -56.1816709078445     Delta-E=       -0.000394328864 Rises=F Damp=F
 DIIS: error= 1.00D-03 at cycle   3 NSaved=   3.
 NSaved= 3 IEnMin= 3 EnMin= -56.1816709078445     IErMin= 3 ErrMin= 1.00D-03
 ErrMax= 1.00D-03  0.00D+00 EMaxC= 1.00D-01 BMatC= 1.19D-04 BMatP= 9.50D-04
 IDIUse=3 WtCom= 9.90D-01 WtEn= 1.00D-02
 Coeff-Com: -0.954D-03-0.392D+00 0.139D+01
 Coeff-En:   0.000D+00 0.000D+00 0.100D+01
 Coeff:     -0.944D-03-0.388D+00 0.139D+01
 Gap=     0.578 Goal=   None    Shift=    0.000
 Gap=     0.512 Goal=   None    Shift=    0.000
 RMSDP=3.73D-05 MaxDP=2.31D-03 DE=-3.94D-04 OVMax= 4.63D-03

 Cycle   4  Pass 0  IDiag  1:
 RMSU=  2.93D-05    CP:  1.00D+00  1.05D+00  1.21D+00
 CoulSu:  requested number of processors reduced to:  20 ShMem   1 Linda.
 E= -56.1817388030168     Delta-E=       -0.000067895172 Rises=F Damp=F
 DIIS: error= 2.70D-04 at cycle   4 NSaved=   4.
 NSaved= 4 IEnMin= 4 EnMin= -56.1817388030168     IErMin= 4 ErrMin= 2.70D-04
 ErrMax= 2.70D-04  0.00D+00 EMaxC= 1.00D-01 BMatC= 7.26D-06 BMatP= 1.19D-04
 IDIUse=3 WtCom= 9.97D-01 WtEn= 2.70D-03
 Coeff-Com:  0.396D-03-0.141D-01-0.125D+00 0.114D+01
 Coeff-En:   0.000D+00 0.000D+00 0.000D+00 0.100D+01
 Coeff:      0.395D-03-0.140D-01-0.125D+00 0.114D+01
 Gap=     0.578 Goal=   None    Shift=    0.000
 Gap=     0.512 Goal=   None    Shift=    0.000
 RMSDP=8.66D-06 MaxDP=7.11D-04 DE=-6.79D-05 OVMax= 1.16D-03

 Initial convergence to 1.0D-05 achieved.  Increase integral accuracy.
 Cycle   5  Pass 1  IDiag  1:
 CoulSu:  requested number of processors reduced to:  20 ShMem   1 Linda.
 E= -56.1817342381821     Delta-E=        0.000004564835 Rises=F Damp=F
 DIIS: error= 1.37D-04 at cycle   1 NSaved=   1.
 NSaved= 1 IEnMin= 1 EnMin= -56.1817342381821     IErMin= 1 ErrMin= 1.37D-04
 ErrMax= 1.37D-04  0.00D+00 EMaxC= 1.00D-01 BMatC= 3.16D-06 BMatP= 3.16D-06
 IDIUse=3 WtCom= 9.99D-01 WtEn= 1.37D-03
 Coeff-Com:  0.100D+01
 Coeff-En:   0.100D+01
 Coeff:      0.100D+01
 Gap=     0.579 Goal=   None    Shift=    0.000
 Gap=     0.512 Goal=   None    Shift=    0.000
 RMSDP=8.66D-06 MaxDP=7.11D-04 DE= 4.56D-06 OVMax= 4.02D-04

 Cycle   6  Pass 1  IDiag  1:
 RMSU=  4.50D-06    CP:  1.00D+00
 CoulSu:  requested number of processors reduced to:  20 ShMem   1 Linda.
 E= -56.1817345913750     Delta-E=       -0.000000353193 Rises=F Damp=F
 DIIS: error= 8.96D-05 at cycle   2 NSaved=   2.
 NSaved= 2 IEnMin= 2 EnMin= -56.1817345913750     IErMin= 2 ErrMin= 8.96D-05
 ErrMax= 8.96D-05  0.00D+00 EMaxC= 1.00D-01 BMatC= 9.27D-07 BMatP= 3.16D-06
 IDIUse=1 WtCom= 1.00D+00 WtEn= 0.00D+00
 Coeff-Com:  0.307D+00 0.693D+00
 Coeff:      0.307D+00 0.693D+00
 Gap=     0.578 Goal=   None    Shift=    0.000
 Gap=     0.512 Goal=   None    Shift=    0.000
 RMSDP=1.57D-06 MaxDP=6.89D-05 DE=-3.53D-07 OVMax= 1.79D-04

 Cycle   7  Pass 1  IDiag  1:
 RMSU=  1.48D-06    CP:  1.00D+00  9.39D-01
 CoulSu:  requested number of processors reduced to:  20 ShMem   1 Linda.
 E= -56.1817347602580     Delta-E=       -0.000000168883 Rises=F Damp=F
 DIIS: error= 2.86D-05 at cycle   3 NSaved=   3.
 NSaved= 3 IEnMin= 3 EnMin= -56.1817347602580     IErMin= 3 ErrMin= 2.86D-05
 ErrMax= 2.86D-05  0.00D+00 EMaxC= 1.00D-01 BMatC= 7.16D-08 BMatP= 9.27D-07
 IDIUse=1 WtCom= 1.00D+00 WtEn= 0.00D+00
 Coeff-Com: -0.920D-01 0.992D-01 0.993D+00
 Coeff:     -0.920D-01 0.992D-01 0.993D+00
 Gap=     0.578 Goal=   None    Shift=    0.000
 Gap=     0.512 Goal=   None    Shift=    0.000
 RMSDP=5.56D-07 MaxDP=3.00D-05 DE=-1.69D-07 OVMax= 7.16D-05

 Cycle   8  Pass 1  IDiag  1:
 RMSU=  3.74D-07    CP:  1.00D+00  1.02D+00  9.54D-01
 CoulSu:  requested number of processors reduced to:  20 ShMem   1 Linda.
 E= -56.1817347812193     Delta-E=       -0.000000020961 Rises=F Damp=F
 DIIS: error= 4.58D-06 at cycle   4 NSaved=   4.
 NSaved= 4 IEnMin= 4 EnMin= -56.1817347812193     IErMin= 4 ErrMin= 4.58D-06
 ErrMax= 4.58D-06  0.00D+00 EMaxC= 1.00D-01 BMatC= 3.15D-09 BMatP= 7.16D-08
 IDIUse=1 WtCom= 1.00D+00 WtEn= 0.00D+00
 Coeff-Com:  0.196D-01-0.829D-01-0.411D+00 0.147D+01
 Coeff:      0.196D-01-0.829D-01-0.411D+00 0.147D+01
 Gap=     0.578 Goal=   None    Shift=    0.000
 Gap=     0.512 Goal=   None    Shift=    0.000
 RMSDP=1.92D-07 MaxDP=8.28D-06 DE=-2.10D-08 OVMax= 2.59D-05

 Cycle   9  Pass 1  IDiag  1:
 RMSU=  5.22D-08    CP:  1.00D+00  1.04D+00  9.84D-01  1.43D+00
 CoulSu:  requested number of processors reduced to:  20 ShMem   1 Linda.
 E= -56.1817347831695     Delta-E=       -0.000000001950 Rises=F Damp=F
 DIIS: error= 4.88D-07 at cycle   5 NSaved=   5.
 NSaved= 5 IEnMin= 5 EnMin= -56.1817347831695     IErMin= 5 ErrMin= 4.88D-07
 ErrMax= 4.88D-07  0.00D+00 EMaxC= 1.00D-01 BMatC= 3.47D-11 BMatP= 3.15D-09
 IDIUse=1 WtCom= 1.00D+00 WtEn= 0.00D+00
 Coeff-Com: -0.142D-02 0.133D-01 0.553D-01-0.295D+00 0.123D+01
 Coeff:     -0.142D-02 0.133D-01 0.553D-01-0.295D+00 0.123D+01
 Gap=     0.578 Goal=   None    Shift=    0.000
 Gap=     0.512 Goal=   None    Shift=    0.000
 RMSDP=1.91D-08 MaxDP=1.39D-06 DE=-1.95D-09 OVMax= 2.17D-06

 Cycle  10  Pass 1  IDiag  1:
 RMSU=  9.77D-09    CP:  1.00D+00  1.04D+00  9.85D-01  1.47D+00  1.18D+00
 CoulSu:  requested number of processors reduced to:  20 ShMem   1 Linda.
 E= -56.1817347831878     Delta-E=       -0.000000000018 Rises=F Damp=F
 DIIS: error= 6.55D-08 at cycle   6 NSaved=   6.
 NSaved= 6 IEnMin= 6 EnMin= -56.1817347831878     IErMin= 6 ErrMin= 6.55D-08
 ErrMax= 6.55D-08  0.00D+00 EMaxC= 1.00D-01 BMatC= 2.91D-13 BMatP= 3.47D-11
 IDIUse=1 WtCom= 1.00D+00 WtEn= 0.00D+00
 Coeff-Com:  0.640D-04-0.178D-02-0.624D-02 0.404D-01-0.236D+00 0.120D+01
 Coeff:      0.640D-04-0.178D-02-0.624D-02 0.404D-01-0.236D+00 0.120D+01
 Gap=     0.578 Goal=   None    Shift=    0.000
 Gap=     0.512 Goal=   None    Shift=    0.000
 RMSDP=2.05D-09 MaxDP=1.45D-07 DE=-1.83D-11 OVMax= 2.96D-07

 SCF Done:  E(UM062X) =  -56.1817347832     A.U. after   10 cycles
            NFock= 10  Conv=0.20D-08     -V/T= 2.0032
 <Sx>= 0.0000 <Sy>= 0.0000 <Sz>= 0.5000 <S**2>= 0.7546 S= 0.5023
 <L.S>= 0.000000000000E+00
 KE= 5.600447252424D+01 PE=-1.513440131252D+02 EE= 2.735050230178D+01
 Annihilation of the first spin contaminant:
 S**2 before annihilation     0.7546,   after     0.7500
 Leave Link  502 at Sun Apr 18 03:12:39 2021, MaxMem=   104857600 cpu:            1743.9 elap:              39.6
 (Enter /s/ls4/users/knvvv/bin/g16sse/l601.exe)
 Copying SCF densities to generalized density rwf, IOpCl= 1 IROHF=0.

 **********************************************************************

            Population analysis using the SCF density.

 **********************************************************************

 Orbital symmetries:
 Alpha Orbitals:
       Occupied  (A1') (A1') (E') (E') (A2")
       Virtual   (A1') (E') (E') (E') (E') (A2") (A1') (E') (E')
                 (A1') (E") (E") (A2') (E') (E') (A2") (A1') (E')
                 (E') (A1') (E") (E") (A2") (E') (E') (A1') (E')
                 (E') (E') (E') (E") (E") (A1") (A2') (E') (E')
                 (A1') (A2") (E") (E") (A1') (E') (E') (E") (E")
                 (A2") (A1') (E') (E') (A2') (E') (E') (A1') (E")
                 (E") (A2") (E') (E') (A1') (E') (E') (E") (E")
                 (E') (E') (A2") (A2') (A1') (E') (E') (E') (E')
                 (A1") (E") (E") (A2') (A2") (A1') (E') (E') (A1')
                 (E') (E') (A2') (A2") (E") (E") (E") (E") (E')
                 (E') (E') (E') (A2") (E") (E") (A1') (A1") (E')
                 (E') (E') (E') (A1') (E") (E") (A1') (E") (E")
                 (E') (E') (A2") (A2') (E') (E') (E") (E") (A1')
                 (A2") (E') (E') (E') (E') (A2') (E") (E") (A1')
                 (A1") (A1') (E') (E') (A2") (A1') (A2') (E") (E")
                 (E') (E') (E') (E') (A1') (A1') (A1')
 Beta  Orbitals:
       Occupied  (A1') (A1') (E') (E')
       Virtual   (A2") (A1') (E') (E') (E') (E') (A2") (A1') (E')
                 (E') (A1') (E") (E") (A2') (E') (E') (A2") (A1')
                 (E') (E') (A1') (E") (E") (A2") (E') (E') (A1')
                 (E') (E') (E') (E') (E") (E") (A1") (A2') (E')
                 (E') (A1') (A2") (E") (E") (A1') (E') (E') (E")
                 (E") (A1') (A2") (E') (E') (A2') (E') (E') (A1')
                 (E") (E") (A2") (E') (E') (A1') (E') (E') (E")
                 (E") (E') (E') (A2") (A2') (A1') (E') (E') (E')
                 (E') (E") (E") (A1") (A2') (A2") (A1') (E') (E')
                 (A1') (E') (E') (A2') (E") (E") (A2") (E") (E")
                 (E') (E') (E') (E') (A2") (E") (E") (A1') (A1")
                 (E') (E') (E') (E') (A1') (E") (E") (A1') (E")
                 (E") (E') (E') (A2") (A2') (E') (E') (A1') (E")
                 (E") (A2") (E') (E') (E') (E') (A2') (A1') (E")
                 (E") (A1") (A1') (E') (E') (A2') (A2") (A1') (E")
                 (E") (E') (E') (E') (E') (A1') (A1') (A1')
 The electronic state is 2-A2".
 Alpha  occ. eigenvalues --  -15.18605  -1.37508  -0.95304  -0.95304  -0.78668
 Alpha virt. eigenvalues --   -0.20834  -0.13394  -0.13394  -0.03359  -0.03359
 Alpha virt. eigenvalues --   -0.01621   0.01824   0.12384   0.12384   0.16384
 Alpha virt. eigenvalues --    0.21740   0.21740   0.45270   0.45566   0.45566
 Alpha virt. eigenvalues --    0.52077   0.57735   0.60553   0.60553   0.63431
 Alpha virt. eigenvalues --    0.71882   0.71882   0.79955   0.81178   0.81178
 Alpha virt. eigenvalues --    0.97019   1.04003   1.04003   1.35706   1.35706
 Alpha virt. eigenvalues --    1.59002   1.59002   1.79717   1.81624   1.82913
 Alpha virt. eigenvalues --    1.82913   1.87621   1.97567   2.00622   2.00622
 Alpha virt. eigenvalues --    2.06015   2.13717   2.13717   2.23526   2.23526
 Alpha virt. eigenvalues --    2.26819   2.28221   2.29651   2.29651   2.35110
 Alpha virt. eigenvalues --    2.40031   2.40031   2.64269   2.79896   2.79896
 Alpha virt. eigenvalues --    2.82920   2.89272   2.89272   3.05578   3.11315
 Alpha virt. eigenvalues --    3.11315   3.57600   3.57600   3.76191   3.76191
 Alpha virt. eigenvalues --    4.10563   4.27351   4.35139   4.55084   4.55084
 Alpha virt. eigenvalues --    5.36263   5.36263   5.36636   5.38189   5.38189
 Alpha virt. eigenvalues --    5.43622   5.57332   5.65130   6.11801   6.11801
 Alpha virt. eigenvalues --    6.16005   6.26582   6.26582   6.36220   6.36238
 Alpha virt. eigenvalues --    6.38194   6.38194   6.62352   6.62352   6.75359
 Alpha virt. eigenvalues --    6.75359   6.83993   6.83993   7.03505   7.12338
 Alpha virt. eigenvalues --    7.12338   7.15166   7.18242   7.27851   7.27851
 Alpha virt. eigenvalues --    7.33552   7.33552   7.36196   7.51980   7.51980
 Alpha virt. eigenvalues --    7.54977   7.57771   7.57771   7.75902   7.75902
 Alpha virt. eigenvalues --    7.77942   7.78799   8.04512   8.04512   8.15858
 Alpha virt. eigenvalues --    8.15858   8.22279   8.52589   8.69150   8.69150
 Alpha virt. eigenvalues --    8.78497   8.78497   8.88971   8.92309   8.92309
 Alpha virt. eigenvalues --    8.96054   9.12679   9.31124  10.63416  10.63416
 Alpha virt. eigenvalues --   10.73484  10.81833  10.82105  10.96859  10.96859
 Alpha virt. eigenvalues --   11.60929  11.60929  13.62149  13.62149  14.42540
 Alpha virt. eigenvalues --   37.72254 195.31996
  Beta  occ. eigenvalues --  -15.17218  -1.30525  -0.93228  -0.93228
  Beta virt. eigenvalues --   -0.42072  -0.20273  -0.12733  -0.12733  -0.04111
  Beta virt. eigenvalues --   -0.04111  -0.02069  -0.00716   0.13260   0.13260
  Beta virt. eigenvalues --    0.13649   0.21614   0.21614   0.45169   0.45347
  Beta virt. eigenvalues --    0.45347   0.49962   0.57582   0.59138   0.59138
  Beta virt. eigenvalues --    0.63847   0.70687   0.70687   0.79733   0.82266
  Beta virt. eigenvalues --    0.82266   0.97314   1.03487   1.03487   1.35170
  Beta virt. eigenvalues --    1.35170   1.60265   1.60265   1.79631   1.83012
  Beta virt. eigenvalues --    1.83801   1.83801   1.86945   1.97790   1.99916
  Beta virt. eigenvalues --    1.99916   2.07815   2.14955   2.14955   2.20919
  Beta virt. eigenvalues --    2.20919   2.25940   2.26367   2.30315   2.30315
  Beta virt. eigenvalues --    2.36708   2.38650   2.38650   2.65688   2.80940
  Beta virt. eigenvalues --    2.80940   2.82605   2.90293   2.90293   3.07813
  Beta virt. eigenvalues --    3.10888   3.10888   3.60359   3.60359   3.80255
  Beta virt. eigenvalues --    3.80255   4.15754   4.29566   4.44197   4.59644
  Beta virt. eigenvalues --    4.59644   5.38406   5.38406   5.39559   5.39559
  Beta virt. eigenvalues --    5.40762   5.44998   5.59442   5.70215   6.14856
  Beta virt. eigenvalues --    6.14856   6.25182   6.33390   6.33390   6.44836
  Beta virt. eigenvalues --    6.53252   6.53252   6.53348   6.66211   6.66211
  Beta virt. eigenvalues --    6.83172   6.83172   6.91023   6.91023   7.06469
  Beta virt. eigenvalues --    7.16580   7.16580   7.19573   7.20202   7.31654
  Beta virt. eigenvalues --    7.31654   7.38606   7.38606   7.40319   7.53630
  Beta virt. eigenvalues --    7.53630   7.59259   7.65019   7.65019   7.81163
  Beta virt. eigenvalues --    7.81163   7.90013   7.91144   8.17069   8.17069
  Beta virt. eigenvalues --    8.26982   8.27419   8.27419   8.63309   8.79446
  Beta virt. eigenvalues --    8.79446   8.87103   8.87103   8.94093   9.07284
  Beta virt. eigenvalues --    9.08986   9.08986   9.19373   9.44542  10.80648
  Beta virt. eigenvalues --   10.80648  10.93016  10.95764  11.02935  11.15473
  Beta virt. eigenvalues --   11.15473  11.71696  11.71696  13.98339  13.98339
  Beta virt. eigenvalues --   14.80156  37.88930 195.33012
          Condensed to atoms (all electrons):
               1          2          3          4
     1  N    5.938764   0.364496   0.364496   0.364496
     2  H    0.364496   0.308497  -0.008538  -0.008538
     3  H    0.364496  -0.008538   0.308497  -0.008538
     4  H    0.364496  -0.008538  -0.008538   0.308497
          Atomic-Atomic Spin Densities.
               1          2          3          4
     1  N    1.268125  -0.016067  -0.016067  -0.016067
     2  H   -0.016067  -0.062099   0.002429   0.002429
     3  H   -0.016067   0.002429  -0.062099   0.002429
     4  H   -0.016067   0.002429   0.002429  -0.062099
 Mulliken charges and spin densities:
               1          2
     1  N   -0.032252   1.219923
     2  H    0.344084  -0.073308
     3  H    0.344084  -0.073308
     4  H    0.344084  -0.073308
 Sum of Mulliken charges =   1.00000   1.00000
 Mulliken charges and spin densities with hydrogens summed into heavy atoms:
               1          2
     1  N    1.000000   1.000000
 Electronic spatial extent (au):  <R**2>=             20.0100
 Charge=              1.0000 electrons
 Dipole moment (field-independent basis, Debye):
    X=             -0.0000    Y=              0.0000    Z=             -0.0000  Tot=              0.0000
 Quadrupole moment (field-independent basis, Debye-Ang):
   XX=             -2.9703   YY=             -2.9703   ZZ=             -6.0169
   XY=             -0.0000   XZ=             -0.0000   YZ=             -0.0000
 Traceless Quadrupole moment (field-independent basis, Debye-Ang):
   XX=              1.0155   YY=              1.0155   ZZ=             -2.0311
   XY=             -0.0000   XZ=             -0.0000   YZ=             -0.0000
 Octapole moment (field-independent basis, Debye-Ang**2):
  XXX=             -0.0000  YYY=              1.9145  ZZZ=             -0.0000  XYY=              0.0000
  XXY=             -1.9145  XXZ=              0.0000  XZZ=              0.0000  YZZ=              0.0000
  YYZ=             -0.0000  XYZ=             -0.0000
 Hexadecapole moment (field-independent basis, Debye-Ang**3):
 XXXX=             -4.6639 YYYY=             -4.6639 ZZZZ=             -4.3883 XXXY=              0.0000
 XXXZ=              0.0000 YYYX=             -0.0000 YYYZ=             -0.0000 ZZZX=              0.0000
 ZZZY=             -0.0000 XXYY=             -1.5546 XXZZ=             -2.0949 YYZZ=             -2.0949
 XXYZ=             -0.0000 YYXZ=              0.0000 ZZXY=              0.0000
 N-N= 1.180730351596D+01 E-N=-1.513440130821D+02  KE= 5.600447252424D+01
                          Isotropic Fermi Contact Couplings
        Atom                 a.u.       MegaHertz       Gauss      10(-4) cm-1
     1  N(14)              0.26016      84.05986      29.99465      28.03935
     2  H(1)              -0.01884     -84.21271     -30.04919     -28.09034
     3  H(1)              -0.01884     -84.21271     -30.04919     -28.09034
     4  H(1)              -0.01884     -84.21271     -30.04919     -28.09034
 PrsmSu:  requested number of processors reduced to:  21 ShMem   1 Linda.
 --------------------------------------------------------
       Center         ----  Spin Dipole Couplings  ----
                      3XX-RR        3YY-RR        3ZZ-RR
 --------------------------------------------------------
     1   Atom       -1.230518     -1.230518      2.461035
     2   Atom       -0.104172      0.130196     -0.026025
     3   Atom        0.071604     -0.045580     -0.026025
     4   Atom        0.071604     -0.045580     -0.026025
 --------------------------------------------------------
                        XY            XZ            YZ
 --------------------------------------------------------
     1   Atom        0.000000      0.000000      0.000000
     2   Atom       -0.000000      0.000000      0.000000
     3   Atom        0.101484      0.000000      0.000000
     4   Atom       -0.101484      0.000000      0.000000
 --------------------------------------------------------


 ---------------------------------------------------------------------------------
              Anisotropic Spin Dipole Couplings in Principal Axis System
 ---------------------------------------------------------------------------------

       Atom             a.u.   MegaHertz   Gauss  10(-4) cm-1        Axes

              Baa    -1.2305   -47.458   -16.934   -15.830 -0.2692  0.9631  0.0000
     1 N(14)  Bbb    -1.2305   -47.458   -16.934   -15.830  0.9631  0.2692  0.0000
              Bcc     2.4610    94.917    33.869    31.661  0.0000  0.0000  1.0000
 
              Baa    -0.1042   -55.581   -19.833   -18.540  1.0000  0.0000  0.0000
     2 H(1)   Bbb    -0.0260   -13.885    -4.955    -4.632  0.0000  0.0000  1.0000
              Bcc     0.1302    69.467    24.787    23.172 -0.0000  1.0000  0.0000
 
              Baa    -0.1042   -55.581   -19.833   -18.540 -0.5000  0.8660 -0.0000
     3 H(1)   Bbb    -0.0260   -13.885    -4.955    -4.632  0.0000  0.0000  1.0000
              Bcc     0.1302    69.467    24.787    23.172  0.8660  0.5000  0.0000
 
              Baa    -0.1042   -55.581   -19.833   -18.540  0.5000  0.8660  0.0000
     4 H(1)   Bbb    -0.0260   -13.885    -4.955    -4.632  0.0000  0.0000  1.0000
              Bcc     0.1302    69.467    24.787    23.172  0.8660 -0.5000 -0.0000
 

 ---------------------------------------------------------------------------------

 PrsmSu:  requested number of processors reduced to:  21 ShMem   1 Linda.
 No NMR shielding tensors so no spin-rotation constants.
 Leave Link  601 at Sun Apr 18 03:12:49 2021, MaxMem=   104857600 cpu:             462.4 elap:              10.0
 (Enter /s/ls4/users/knvvv/bin/g16sse/l801.exe)
 DoSCS=F DFT=T ScalE2(SS,OS)=  1.000000  1.000000
 Range of M.O.s used for correlation:     1   147
 NBasis=   147 NAE=     5 NBE=     4 NFC=     0 NFV=     0
 NROrb=    147 NOA=     5 NOB=     4 NVA=   142 NVB=   143

 **** Warning!!: The largest alpha MO coefficient is  0.21734193D+02


 **** Warning!!: The largest beta MO coefficient is  0.22056147D+02

 Leave Link  801 at Sun Apr 18 03:12:49 2021, MaxMem=   104857600 cpu:               4.5 elap:               0.1
 (Enter /s/ls4/users/knvvv/bin/g16sse/l914.exe)
 UHF ground state
 Doing stability rather than CIS.
 Two-electron integrals replicated using symmetry.
 MDV=   104857600 DFT=T DoStab=T Mixed=T DoRPA=F DoScal=F NonHer=F
 Making orbital integer symmetry assigments:
 Orbital symmetries:
 Alpha Orbitals:
       Occupied  (A1') (A1') (E') (E') (A2")
       Virtual   (A1') (E') (E') (E') (E') (A2") (A1') (E') (E')
                 (A1') (E") (E") (A2') (E') (E') (A2") (A1') (E')
                 (E') (A1') (E") (E") (A2") (E') (E') (A1') (E')
                 (E') (E') (E') (E") (E") (A1") (A2') (E') (E')
                 (A1') (A2") (E") (E") (A1') (E') (E') (E") (E")
                 (A2") (A1') (E') (E') (A2') (E') (E') (A1') (E")
                 (E") (A2") (E') (E') (A1') (E') (E') (E") (E")
                 (E') (E') (A2") (A2') (A1') (E') (E') (E') (E')
                 (A1") (E") (E") (A2') (A2") (A1') (E') (E') (A1')
                 (E') (E') (A2') (A2") (E") (E") (E") (E") (E')
                 (E') (E') (E') (A2") (E") (E") (A1') (A1") (E')
                 (E') (E') (E') (A1') (E") (E") (A1') (E") (E")
                 (E') (E') (A2") (A2') (E') (E') (E") (E") (A1')
                 (A2") (E') (E') (E') (E') (A2') (E") (E") (A1')
                 (A1") (A1') (E') (E') (A2") (A1') (A2') (E") (E")
                 (E') (E') (E') (E') (A1') (A1') (A1')
 Beta  Orbitals:
       Occupied  (A1') (A1') (E') (E')
       Virtual   (A2") (A1') (E') (E') (E') (E') (A2") (A1') (E')
                 (E') (A1') (E") (E") (A2') (E') (E') (A2") (A1')
                 (E') (E') (A1') (E") (E") (A2") (E') (E') (A1')
                 (E') (E') (E') (E') (E") (E") (A1") (A2') (E')
                 (E') (A1') (A2") (E") (E") (A1') (E') (E') (E")
                 (E") (A1') (A2") (E') (E') (A2') (E') (E') (A1')
                 (E") (E") (A2") (E') (E') (A1') (E') (E') (E")
                 (E") (E') (E') (A2") (A2') (A1') (E') (E') (E')
                 (E') (E") (E") (A1") (A2') (A2") (A1') (E') (E')
                 (A1') (E') (E') (A2') (E") (E") (A2") (E") (E")
                 (E') (E') (E') (E') (A2") (E") (E") (A1') (A1")
                 (E') (E') (E') (E') (A1') (E") (E") (A1') (E")
                 (E") (E') (E') (A2") (A2') (E') (E') (A1') (E")
                 (E") (A2") (E') (E') (E') (E') (A2') (A1') (E")
                 (E") (A1") (A1') (E') (E') (A2') (A2") (A1') (E")
                 (E") (E') (E') (E') (E') (A1') (A1') (A1')
    12 initial guesses have been made.
 Convergence on wavefunction:    0.001000000000000
 Davidson Disk Diagonalization:  ConvIn= 1.00D-03 SkipCon=T Conv= 1.00D-03.
 Max sub-space:  2000 roots to seek:    12 dimension of matrix:         1282
 Iteration     1 Dimension    12 NMult     0 NNew     12
 Estimated number of processors is:   20
 CISAX will form     1 AO SS matrices at one time.
 NMat=     1 NSing=     1 JSym2X= 2.
 FoFJK:  IHMeth= 1 ICntrl=       0 DoSepK=F KAlg= 0 I1Cent=           0 FoldK=F
 IRaf= 990000000 NMat=       1 IRICut=       1 DoRegI=T DoRafI=F ISym2E= 2 IDoP0=0 IntGTp=1.
 FoFCou: FMM=F IPFlag=           0 FMFlag=      100000 FMFlg1=           0
         NFxFlg=           0 DoJE=F BraDBF=F KetDBF=F FulRan=T
         wScrn=  0.000000 ICntrl=         0 IOpCl=  1 I1Cent=           0 NGrid=           0
         NMat0=    1 NMatS0=      1 NMatT0=    0 NMatD0=    1 NMtDS0=    0 NMtDT0=    0
 Integrals replicated using symmetry in FoFCou.
 CoulSu:  requested number of processors reduced to:  18 ShMem   1 Linda.
 NMat=     1 NSing=     1 JSym2X= 2.
 CoulSu:  requested number of processors reduced to:  18 ShMem   1 Linda.
 NMat=     1 NSing=     1 JSym2X= 2.
 CoulSu:  requested number of processors reduced to:  18 ShMem   1 Linda.
 NMat=     1 NSing=     1 JSym2X= 2.
 CoulSu:  requested number of processors reduced to:  18 ShMem   1 Linda.
 NMat=     1 NSing=     1 JSym2X= 2.
 CoulSu:  requested number of processors reduced to:  18 ShMem   1 Linda.
 NMat=     1 NSing=     1 JSym2X= 2.
 CoulSu:  requested number of processors reduced to:  18 ShMem   1 Linda.
 NMat=     1 NSing=     1 JSym2X= 2.
 CoulSu:  requested number of processors reduced to:  18 ShMem   1 Linda.
 NMat=     1 NSing=     1 JSym2X= 2.
 CoulSu:  requested number of processors reduced to:  18 ShMem   1 Linda.
 NMat=     1 NSing=     1 JSym2X= 2.
 CoulSu:  requested number of processors reduced to:  18 ShMem   1 Linda.
 NMat=     1 NSing=     1 JSym2X= 2.
 CoulSu:  requested number of processors reduced to:  18 ShMem   1 Linda.
 NMat=     1 NSing=     1 JSym2X= 2.
 CoulSu:  requested number of processors reduced to:  18 ShMem   1 Linda.
 NMat=     1 NSing=     1 JSym2X= 2.
 CoulSu:  requested number of processors reduced to:  18 ShMem   1 Linda.
 New state      1 was old state      2
 Excitation Energies [eV] at current iteration:
 Root      1 :     7.260826662037782
 Root      2 :     7.260987589276212
 Root      3 :    11.836084820994190
 Root      4 :    13.716907258236610
 Root      5 :    13.717093086525540
 Root      6 :    15.789896509261920
 Root      7 :    15.789925485493850
 Root      8 :    16.313946490669690
 Root      9 :    16.313954875057950
 Root     10 :    16.881158652970060
 Root     11 :    16.881210484911620
 Root     12 :    17.945576892427670
 Iteration     2 Dimension    24 NMult    12 NNew     12
 Estimated number of processors is:   20
 CISAX will form     1 AO SS matrices at one time.
 NMat=     1 NSing=     1 JSym2X= 2.
 CoulSu:  requested number of processors reduced to:  18 ShMem   1 Linda.
 NMat=     1 NSing=     1 JSym2X= 2.
 CoulSu:  requested number of processors reduced to:  18 ShMem   1 Linda.
 NMat=     1 NSing=     1 JSym2X= 2.
 CoulSu:  requested number of processors reduced to:  18 ShMem   1 Linda.
 NMat=     1 NSing=     1 JSym2X= 2.
 CoulSu:  requested number of processors reduced to:  18 ShMem   1 Linda.
 NMat=     1 NSing=     1 JSym2X= 2.
 CoulSu:  requested number of processors reduced to:  18 ShMem   1 Linda.
 NMat=     1 NSing=     1 JSym2X= 2.
 CoulSu:  requested number of processors reduced to:  18 ShMem   1 Linda.
 NMat=     1 NSing=     1 JSym2X= 2.
 CoulSu:  requested number of processors reduced to:  18 ShMem   1 Linda.
 NMat=     1 NSing=     1 JSym2X= 2.
 CoulSu:  requested number of processors reduced to:  18 ShMem   1 Linda.
 NMat=     1 NSing=     1 JSym2X= 2.
 CoulSu:  requested number of processors reduced to:  18 ShMem   1 Linda.
 NMat=     1 NSing=     1 JSym2X= 2.
 CoulSu:  requested number of processors reduced to:  18 ShMem   1 Linda.
 NMat=     1 NSing=     1 JSym2X= 2.
 CoulSu:  requested number of processors reduced to:  18 ShMem   1 Linda.
 NMat=     1 NSing=     1 JSym2X= 2.
 CoulSu:  requested number of processors reduced to:  18 ShMem   1 Linda.
 Root      1 not converged, maximum delta is    0.095046461896529
 Excitation Energies [eV] at current iteration:
 Root      1 :     6.777585511894414   Change is   -0.483241150143368
 Root      2 :     6.777789900095914   Change is   -0.483197689180299
 Root      3 :    11.185041263841080   Change is   -0.651043557153113
 Root      4 :    13.229165509218450   Change is   -0.487741749018153
 Root      5 :    13.229570442438280   Change is   -0.487522644087259
 Root      6 :    14.661921072874650   Change is   -1.127975436387271
 Root      7 :    14.662020833018190   Change is   -1.127904652475656
 Root      8 :    16.157543541923920   Change is   -0.156402948745770
 Root      9 :    16.157562298974430   Change is   -0.156392576083521
 Root     10 :    16.435081553009910   Change is   -1.510495339417758
 Root     11 :    16.671830156016130   Change is   -0.209328496953936
 Root     12 :    16.671887573167390   Change is   -0.209322911744229
 Iteration     3 Dimension    27 NMult    24 NNew      3
 Estimated number of processors is:   20
 CISAX will form     1 AO SS matrices at one time.
 NMat=     1 NSing=     1 JSym2X= 2.
 CoulSu:  requested number of processors reduced to:  18 ShMem   1 Linda.
 NMat=     1 NSing=     1 JSym2X= 2.
 CoulSu:  requested number of processors reduced to:  18 ShMem   1 Linda.
 NMat=     1 NSing=     1 JSym2X= 2.
 CoulSu:  requested number of processors reduced to:  18 ShMem   1 Linda.
 Root      1 not converged, maximum delta is    0.005689580081802
 Excitation Energies [eV] at current iteration:
 Root      1 :     6.772132615443636   Change is   -0.005452896450778
 Root      2 :     6.772337362430359   Change is   -0.005452537665555
 Root      3 :    10.910144779197640   Change is   -0.274896484643439
 Iteration     4 Dimension    30 NMult    27 NNew      3
 Estimated number of processors is:   20
 CISAX will form     1 AO SS matrices at one time.
 NMat=     1 NSing=     1 JSym2X= 2.
 CoulSu:  requested number of processors reduced to:  18 ShMem   1 Linda.
 NMat=     1 NSing=     1 JSym2X= 2.
 CoulSu:  requested number of processors reduced to:  18 ShMem   1 Linda.
 NMat=     1 NSing=     1 JSym2X= 2.
 CoulSu:  requested number of processors reduced to:  18 ShMem   1 Linda.
 Root      1 has converged.
 Excitation Energies [eV] at current iteration:
 Root      1 :     6.772120053770132   Change is   -0.000012561673504
 Root      2 :     6.772324799947739   Change is   -0.000012562482620
 Root      3 :    10.839581879852230   Change is   -0.070562899345407
 Convergence achieved on expansion vectors.
 ***********************************************************************
 Stability analysis using <AA,BB:AA,BB> singles matrix:
 ***********************************************************************
 1PDM for each excited state written to RWF  633
 Ground to excited state transition densities written to RWF  633

 Eigenvectors of the stability matrix:
 
 Eigenvector   1:  2.010-E"   Eigenvalue= 0.2488708  <S**2>=0.760
      3B ->  5B        0.71367
      3B -> 11B       -0.10077
      4B ->  5B       -0.67880
 The wavefunction is stable under the perturbations considered.
 Leave Link  914 at Sun Apr 18 03:13:55 2021, MaxMem=   104857600 cpu:            2553.5 elap:              65.7
 (Enter /s/ls4/users/knvvv/bin/g16sse/l508.exe)
 The wavefunction is already stable.
 Leave Link  508 at Sun Apr 18 03:13:55 2021, MaxMem=   104857600 cpu:               2.2 elap:               0.1
 (Enter /s/ls4/users/knvvv/bin/g16sse/l601.exe)
 Copying SCF densities to generalized density rwf, IOpCl= 1 IROHF=0.

 **********************************************************************

            Population analysis using the SCF density.

 **********************************************************************

 Orbital symmetries:
 Alpha Orbitals:
       Occupied  (A1') (A1') (E') (E') (A2")
       Virtual   (A1') (E') (E') (E') (E') (A2") (A1') (E') (E')
                 (A1') (E") (E") (A2') (E') (E') (A2") (A1') (E')
                 (E') (A1') (E") (E") (A2") (E') (E') (A1') (E')
                 (E') (E') (E') (E") (E") (A1") (A2') (E') (E')
                 (A1') (A2") (E") (E") (A1') (E') (E') (E") (E")
                 (A2") (A1') (E') (E') (A2') (E') (E') (A1') (E")
                 (E") (A2") (E') (E') (A1') (E') (E') (E") (E")
                 (E') (E') (A2") (A2') (A1') (E') (E') (E') (E')
                 (A1") (E") (E") (A2') (A2") (A1') (E') (E') (A1')
                 (E') (E') (A2') (A2") (E") (E") (E") (E") (E')
                 (E') (E') (E') (A2") (E") (E") (A1') (A1") (E')
                 (E') (E') (E') (A1') (E") (E") (A1') (E") (E")
                 (E') (E') (A2") (A2') (E') (E') (E") (E") (A1')
                 (A2") (E') (E') (E') (E') (A2') (E") (E") (A1')
                 (A1") (A1') (E') (E') (A2") (A1') (A2') (E") (E")
                 (E') (E') (E') (E') (A1') (A1') (A1')
 Beta  Orbitals:
       Occupied  (A1') (A1') (E') (E')
       Virtual   (A2") (A1') (E') (E') (E') (E') (A2") (A1') (E')
                 (E') (A1') (E") (E") (A2') (E') (E') (A2") (A1')
                 (E') (E') (A1') (E") (E") (A2") (E') (E') (A1')
                 (E') (E') (E') (E') (E") (E") (A1") (A2') (E')
                 (E') (A1') (A2") (E") (E") (A1') (E') (E') (E")
                 (E") (A1') (A2") (E') (E') (A2') (E') (E') (A1')
                 (E") (E") (A2") (E') (E') (A1') (E') (E') (E")
                 (E") (E') (E') (A2") (A2') (A1') (E') (E') (E')
                 (E') (E") (E") (A1") (A2') (A2") (A1') (E') (E')
                 (A1') (E') (E') (A2') (E") (E") (A2") (E") (E")
                 (E') (E') (E') (E') (A2") (E") (E") (A1') (A1")
                 (E') (E') (E') (E') (A1') (E") (E") (A1') (E")
                 (E") (E') (E') (A2") (A2') (E') (E') (A1') (E")
                 (E") (A2") (E') (E') (E') (E') (A2') (A1') (E")
                 (E") (A1") (A1') (E') (E') (A2') (A2") (A1') (E")
                 (E") (E') (E') (E') (E') (A1') (A1') (A1')
 The electronic state is 2-A2".
 Alpha  occ. eigenvalues --  -15.18605  -1.37508  -0.95304  -0.95304  -0.78668
 Alpha virt. eigenvalues --   -0.20834  -0.13394  -0.13394  -0.03359  -0.03359
 Alpha virt. eigenvalues --   -0.01621   0.01824   0.12384   0.12384   0.16384
 Alpha virt. eigenvalues --    0.21740   0.21740   0.45270   0.45566   0.45566
 Alpha virt. eigenvalues --    0.52077   0.57735   0.60553   0.60553   0.63431
 Alpha virt. eigenvalues --    0.71882   0.71882   0.79955   0.81178   0.81178
 Alpha virt. eigenvalues --    0.97019   1.04003   1.04003   1.35706   1.35706
 Alpha virt. eigenvalues --    1.59002   1.59002   1.79717   1.81624   1.82913
 Alpha virt. eigenvalues --    1.82913   1.87621   1.97567   2.00622   2.00622
 Alpha virt. eigenvalues --    2.06015   2.13717   2.13717   2.23526   2.23526
 Alpha virt. eigenvalues --    2.26819   2.28221   2.29651   2.29651   2.35110
 Alpha virt. eigenvalues --    2.40031   2.40031   2.64269   2.79896   2.79896
 Alpha virt. eigenvalues --    2.82920   2.89272   2.89272   3.05578   3.11315
 Alpha virt. eigenvalues --    3.11315   3.57600   3.57600   3.76191   3.76191
 Alpha virt. eigenvalues --    4.10563   4.27351   4.35139   4.55084   4.55084
 Alpha virt. eigenvalues --    5.36263   5.36263   5.36636   5.38189   5.38189
 Alpha virt. eigenvalues --    5.43622   5.57332   5.65130   6.11801   6.11801
 Alpha virt. eigenvalues --    6.16005   6.26582   6.26582   6.36220   6.36238
 Alpha virt. eigenvalues --    6.38194   6.38194   6.62352   6.62352   6.75359
 Alpha virt. eigenvalues --    6.75359   6.83993   6.83993   7.03505   7.12338
 Alpha virt. eigenvalues --    7.12338   7.15166   7.18242   7.27851   7.27851
 Alpha virt. eigenvalues --    7.33552   7.33552   7.36196   7.51980   7.51980
 Alpha virt. eigenvalues --    7.54977   7.57771   7.57771   7.75902   7.75902
 Alpha virt. eigenvalues --    7.77942   7.78799   8.04512   8.04512   8.15858
 Alpha virt. eigenvalues --    8.15858   8.22279   8.52589   8.69150   8.69150
 Alpha virt. eigenvalues --    8.78497   8.78497   8.88971   8.92309   8.92309
 Alpha virt. eigenvalues --    8.96054   9.12679   9.31124  10.63416  10.63416
 Alpha virt. eigenvalues --   10.73484  10.81833  10.82105  10.96859  10.96859
 Alpha virt. eigenvalues --   11.60929  11.60929  13.62149  13.62149  14.42540
 Alpha virt. eigenvalues --   37.72254 195.31996
  Beta  occ. eigenvalues --  -15.17218  -1.30525  -0.93228  -0.93228
  Beta virt. eigenvalues --   -0.42072  -0.20273  -0.12733  -0.12733  -0.04111
  Beta virt. eigenvalues --   -0.04111  -0.02069  -0.00716   0.13260   0.13260
  Beta virt. eigenvalues --    0.13649   0.21614   0.21614   0.45169   0.45347
  Beta virt. eigenvalues --    0.45347   0.49962   0.57582   0.59138   0.59138
  Beta virt. eigenvalues --    0.63847   0.70687   0.70687   0.79733   0.82266
  Beta virt. eigenvalues --    0.82266   0.97314   1.03487   1.03487   1.35170
  Beta virt. eigenvalues --    1.35170   1.60265   1.60265   1.79631   1.83012
  Beta virt. eigenvalues --    1.83801   1.83801   1.86945   1.97790   1.99916
  Beta virt. eigenvalues --    1.99916   2.07815   2.14955   2.14955   2.20919
  Beta virt. eigenvalues --    2.20919   2.25940   2.26367   2.30315   2.30315
  Beta virt. eigenvalues --    2.36708   2.38650   2.38650   2.65688   2.80940
  Beta virt. eigenvalues --    2.80940   2.82605   2.90293   2.90293   3.07813
  Beta virt. eigenvalues --    3.10888   3.10888   3.60359   3.60359   3.80255
  Beta virt. eigenvalues --    3.80255   4.15754   4.29566   4.44197   4.59644
  Beta virt. eigenvalues --    4.59644   5.38406   5.38406   5.39559   5.39559
  Beta virt. eigenvalues --    5.40762   5.44998   5.59442   5.70215   6.14856
  Beta virt. eigenvalues --    6.14856   6.25182   6.33390   6.33390   6.44836
  Beta virt. eigenvalues --    6.53252   6.53252   6.53348   6.66211   6.66211
  Beta virt. eigenvalues --    6.83172   6.83172   6.91023   6.91023   7.06469
  Beta virt. eigenvalues --    7.16580   7.16580   7.19573   7.20202   7.31654
  Beta virt. eigenvalues --    7.31654   7.38606   7.38606   7.40319   7.53630
  Beta virt. eigenvalues --    7.53630   7.59259   7.65019   7.65019   7.81163
  Beta virt. eigenvalues --    7.81163   7.90013   7.91144   8.17069   8.17069
  Beta virt. eigenvalues --    8.26982   8.27419   8.27419   8.63309   8.79446
  Beta virt. eigenvalues --    8.79446   8.87103   8.87103   8.94093   9.07284
  Beta virt. eigenvalues --    9.08986   9.08986   9.19373   9.44542  10.80648
  Beta virt. eigenvalues --   10.80648  10.93016  10.95764  11.02935  11.15473
  Beta virt. eigenvalues --   11.15473  11.71696  11.71696  13.98339  13.98339
  Beta virt. eigenvalues --   14.80156  37.88930 195.33012
          Condensed to atoms (all electrons):
               1          2          3          4
     1  N    5.938764   0.364496   0.364496   0.364496
     2  H    0.364496   0.308497  -0.008538  -0.008538
     3  H    0.364496  -0.008538   0.308497  -0.008538
     4  H    0.364496  -0.008538  -0.008538   0.308497
          Atomic-Atomic Spin Densities.
               1          2          3          4
     1  N    1.268125  -0.016067  -0.016067  -0.016067
     2  H   -0.016067  -0.062099   0.002429   0.002429
     3  H   -0.016067   0.002429  -0.062099   0.002429
     4  H   -0.016067   0.002429   0.002429  -0.062099
 Mulliken charges and spin densities:
               1          2
     1  N   -0.032252   1.219923
     2  H    0.344084  -0.073308
     3  H    0.344084  -0.073308
     4  H    0.344084  -0.073308
 Sum of Mulliken charges =   1.00000   1.00000
 Mulliken charges and spin densities with hydrogens summed into heavy atoms:
               1          2
     1  N    1.000000   1.000000
 Electronic spatial extent (au):  <R**2>=             20.0100
 Charge=              1.0000 electrons
 Dipole moment (field-independent basis, Debye):
    X=             -0.0000    Y=              0.0000    Z=             -0.0000  Tot=              0.0000
 Quadrupole moment (field-independent basis, Debye-Ang):
   XX=             -2.9703   YY=             -2.9703   ZZ=             -6.0169
   XY=             -0.0000   XZ=             -0.0000   YZ=             -0.0000
 Traceless Quadrupole moment (field-independent basis, Debye-Ang):
   XX=              1.0155   YY=              1.0155   ZZ=             -2.0311
   XY=             -0.0000   XZ=             -0.0000   YZ=             -0.0000
 Octapole moment (field-independent basis, Debye-Ang**2):
  XXX=             -0.0000  YYY=              1.9145  ZZZ=             -0.0000  XYY=              0.0000
  XXY=             -1.9145  XXZ=              0.0000  XZZ=              0.0000  YZZ=              0.0000
  YYZ=             -0.0000  XYZ=             -0.0000
 Hexadecapole moment (field-independent basis, Debye-Ang**3):
 XXXX=             -4.6639 YYYY=             -4.6639 ZZZZ=             -4.3883 XXXY=              0.0000
 XXXZ=              0.0000 YYYX=             -0.0000 YYYZ=             -0.0000 ZZZX=              0.0000
 ZZZY=             -0.0000 XXYY=             -1.5546 XXZZ=             -2.0949 YYZZ=             -2.0949
 XXYZ=             -0.0000 YYXZ=              0.0000 ZZXY=              0.0000
 N-N= 1.180730351596D+01 E-N=-1.513440130821D+02  KE= 5.600447252424D+01
                          Isotropic Fermi Contact Couplings
        Atom                 a.u.       MegaHertz       Gauss      10(-4) cm-1
     1  N(14)              0.26016      84.05986      29.99465      28.03935
     2  H(1)              -0.01884     -84.21271     -30.04919     -28.09034
     3  H(1)              -0.01884     -84.21271     -30.04919     -28.09034
     4  H(1)              -0.01884     -84.21271     -30.04919     -28.09034
 PrsmSu:  requested number of processors reduced to:  21 ShMem   1 Linda.
 --------------------------------------------------------
       Center         ----  Spin Dipole Couplings  ----
                      3XX-RR        3YY-RR        3ZZ-RR
 --------------------------------------------------------
     1   Atom       -1.230518     -1.230518      2.461035
     2   Atom       -0.104172      0.130196     -0.026025
     3   Atom        0.071604     -0.045580     -0.026025
     4   Atom        0.071604     -0.045580     -0.026025
 --------------------------------------------------------
                        XY            XZ            YZ
 --------------------------------------------------------
     1   Atom        0.000000      0.000000      0.000000
     2   Atom       -0.000000      0.000000      0.000000
     3   Atom        0.101484      0.000000      0.000000
     4   Atom       -0.101484      0.000000      0.000000
 --------------------------------------------------------


 ---------------------------------------------------------------------------------
              Anisotropic Spin Dipole Couplings in Principal Axis System
 ---------------------------------------------------------------------------------

       Atom             a.u.   MegaHertz   Gauss  10(-4) cm-1        Axes

              Baa    -1.2305   -47.458   -16.934   -15.830 -0.2692  0.9631  0.0000
     1 N(14)  Bbb    -1.2305   -47.458   -16.934   -15.830  0.9631  0.2692  0.0000
              Bcc     2.4610    94.917    33.869    31.661  0.0000  0.0000  1.0000
 
              Baa    -0.1042   -55.581   -19.833   -18.540  1.0000  0.0000  0.0000
     2 H(1)   Bbb    -0.0260   -13.885    -4.955    -4.632  0.0000  0.0000  1.0000
              Bcc     0.1302    69.467    24.787    23.172 -0.0000  1.0000  0.0000
 
              Baa    -0.1042   -55.581   -19.833   -18.540 -0.5000  0.8660 -0.0000
     3 H(1)   Bbb    -0.0260   -13.885    -4.955    -4.632  0.0000  0.0000  1.0000
              Bcc     0.1302    69.467    24.787    23.172  0.8660  0.5000  0.0000
 
              Baa    -0.1042   -55.581   -19.833   -18.540  0.5000  0.8660  0.0000
     4 H(1)   Bbb    -0.0260   -13.885    -4.955    -4.632  0.0000  0.0000  1.0000
              Bcc     0.1302    69.467    24.787    23.172  0.8660 -0.5000 -0.0000
 

 ---------------------------------------------------------------------------------

 PrsmSu:  requested number of processors reduced to:  21 ShMem   1 Linda.
 No NMR shielding tensors so no spin-rotation constants.
 Leave Link  601 at Sun Apr 18 03:14:06 2021, MaxMem=   104857600 cpu:             482.6 elap:              10.5
 (Enter /s/ls4/users/knvvv/bin/g16sse/l9999.exe)

 Test job not archived.
 1\1\GINC-N305\Stability\UM062X\def2QZVP\H3N1(1+,2)\KNVVV\18-Apr-2021\0
 \\#P M062X/Def2QZVP Integral=UltraFineGrid SCF=NoSymm Stable=(RExt, Op
 t) IOp(1/33=1)\\Database calculations.\\1,2\N,0,0.,0.,0.\H,0,0.5094001
 ,-0.88230686,0.\H,0,0.5094001,0.88230686,0.\H,0,-1.01880021,0.,0.\\Ver
 sion=ES64L-G16RevA.03\State=2-A2"\HF=-56.1817348\S2=0.754637\S2-1=0.\S
 2A=0.750015\RMSD=2.049e-09\Dipole=0.,0.,0.\Quadrupole=0.7550258,0.7550
 258,-1.5100516,0.,0.,0.\PG=D03H [O(N1),3C2(H1)]\\@


                                                                                    A
                                                                                  AA
                                                                                 AAA
                                                                                AAAA
                                                                               AAAAA
                                                                              AAAAAA   KKKKKKKK
                                                                             AAAAAAA   KKKKKKKK
                                                                            AAAAAAAA   KKKKKKKK
                                       ZZZZZZZZZZZZZZZZZZZZ                AAAA  AAA   KKKKKKKK
                                       ZZZZZZZZZZZZZZZZZZZ                AAAA   AAA   KKKKKKKK          K
                                       ZZZZZZZZZZZZZZZZZZ                AAAA    AAA   KKKKKKKK         KKK
                                       ZZZZZZZZZZZZZZZZZ                AAAA     AAA   KKKKKKKK        KKKKK
                                       ZZZZZZZZZZZZZZZZ                AAAA      AAA   KKKKKKKK       KKKKKKK
                                                ZZZZZZ                AAAA       AAA   KKKKKKKK      KKKKKKK
                                               ZZZZZZ                AAAA        AAA   KKKKKKKK     KKKKKKK
                                              ZZZZZZ                AAAA         AAA   KKKKKKKK    KKKKKKK
                                             ZZZZZZ                AAAA          AAA   KKKKKKKK   KKKKKKK
                                            ZZZZZZ                AAAAAAAAAAAAAAAAAA   KKKKKKKK  KKKKKKK
                                           ZZZZZZ                AAAAAAAAAAAAAAAAAAA   KKKKKKKK KKKKKKK
                                          ZZZZZZ                AAAAAAAAAAAAAAAAAAAA   KKKKKKKKKKKKKKK
                                         ZZZZZZ                AAAAAAAAAAAAAAAAAAAAA   KKKKKKKKKKKKKK
                                        ZZZZZZ                AAAAAA        AAAAAAAA   KKKKKKKKKKKKK
                                       ZZZZZZ                AAAAAA         AAAAAAAA   KKKKKKKKKKKK
                                      ZZZZZZ                AAAAAA          AAAAAAAA   KKKKKKKKKKK
                                     ZZZZZZ                AAAAAA           AAAAAAAA   KKKKKKKKKKKK
                                    ZZZZZZ                AAAAAA            AAAAAAAA   KKKKKKKKKKKKK
                                   ZZZZZZ                AAAAAA             AAAAAAAA   KKKKKKKKKKKKKK
                                  ZZZZZZ                AAAAAA              AAAAAAAA   KKKKKKKKKKKKKKK
                                 ZZZZZZ                AAAAAA               AAAAAAAA   KKKKK KKKKKKKKKK
                                ZZZZZZ                AAAAAA                AAAAAAAA   KKKKK  KKKKKKKKKK
                               ZZZZZZ                AAAAAA                            KKKKK   KKKKKKKKKK
                              ZZZZZZ                AAAAAA                             KKKKK    KKKKKKKKKK
                             ZZZZZZ                                                    KKKKK     KKKKKKKKKK
                            ZZZZZZ                                                     KKKKK      KKKKKKKKKK
                           ZZZZZZ                                                      KKKKK       KKKKKKKKKK
                          ZZZZZZ                                                       KKKKK        KKKKKKKKKK
                         ZZZZZZZZZZZZZZZZZZZZZZZZZZZZZZZZZZZZZZZZ                      KKKKK         KKKKKKKKKK
                        ZZZZZZZZZZZZZZZZZZZZZZZZZZZZZZZZZZZZZZZZZ                      KKKKK          KKKKKKKKKK
                       ZZZZZZZZZZZZZZZZZZZZZZZZZZZZZZZZZZZZZZZZZZ                      KKKKK           KKKKKKKKKK
                       ZZZZZZZZZZZZZZZZZZZZZZZZZZZZZZZZZZZZZZZZZZ                      KKKKK            KKKKKKKKKK
                       ZZZZZZZZZZZZZZZZZZZZZZZZZZZZZZZZZZZZZZZZZZ                      KKKKK             KKKKKKKKKK
                       ZZZZZZZZZZZZZZZZZZZZZZZZZZZZZZZZZZZZZZZZZZ                      KKKKK              KKKKKKKKKK
                       ZZZZZZZZZZZZZZZZZZZZZZZZZZZZZZZZZZZZZZZZZZ                      KKKKK               KKKKKKKKKK
                       ZZZZZZZZZZZZZZZZZZZZZZZZZZZZZZZZZZZZZZZZZZ                      KKKKK                KKKKKKKKKK
                       ZZZZZZZZZZZZZZZZZZZZZZZZZZZZZZZZZZZZZZZZZZ                      KKKKK
                                                                                       KKKKK
                                                                                          (J.P.)
 Job cpu time:       0 days  1 hours 52 minutes 38.6 seconds.
 Elapsed time:       0 days  0 hours  2 minutes 38.7 seconds.
 File lengths (MBytes):  RWF=     54 Int=      0 D2E=      0 Chk=      4 Scr=      1
 Normal termination of Gaussian 16 at Sun Apr 18 03:14:06 2021.
