 Entering Gaussian System, Link 0=/s/ls4/users/knvvv/bin/g16sse/g16
 Input=data/database/M062X--def2-QZVPPD--169_f2_W4-11.gjf
 Output=data/database/M062X--def2-QZVPPD--169_f2_W4-11.log
 Initial command:
 /s/ls4/users/knvvv/bin/g16sse/l1.exe "/s/ls4/users/knvvv/bin/scratch/Gau-1417.inp" -scrdir="/s/ls4/users/knvvv/bin/scratch/"
 Entering Link 1 = /s/ls4/users/knvvv/bin/g16sse/l1.exe PID=      1418.
  
 Copyright (c) 1988,1990,1992,1993,1995,1998,2003,2009,2016,
            Gaussian, Inc.  All Rights Reserved.
  
 This is part of the Gaussian(R) 16 program.  It is based on
 the Gaussian(R) 09 system (copyright 2009, Gaussian, Inc.),
 the Gaussian(R) 03 system (copyright 2003, Gaussian, Inc.),
 the Gaussian(R) 98 system (copyright 1998, Gaussian, Inc.),
 the Gaussian(R) 94 system (copyright 1995, Gaussian, Inc.),
 the Gaussian 92(TM) system (copyright 1992, Gaussian, Inc.),
 the Gaussian 90(TM) system (copyright 1990, Gaussian, Inc.),
 the Gaussian 88(TM) system (copyright 1988, Gaussian, Inc.),
 the Gaussian 86(TM) system (copyright 1986, Carnegie Mellon
 University), and the Gaussian 82(TM) system (copyright 1983,
 Carnegie Mellon University). Gaussian is a federally registered
 trademark of Gaussian, Inc.
  
 This software contains proprietary and confidential information,
 including trade secrets, belonging to Gaussian, Inc.
  
 This software is provided under written license and may be
 used, copied, transmitted, or stored only in accord with that
 written license.
  
 The following legend is applicable only to US Government
 contracts under FAR:
  
                    RESTRICTED RIGHTS LEGEND
  
 Use, reproduction and disclosure by the US Government is
 subject to restrictions as set forth in subparagraphs (a)
 and (c) of the Commercial Computer Software - Restricted
 Rights clause in FAR 52.227-19.
  
 Gaussian, Inc.
 340 Quinnipiac St., Bldg. 40, Wallingford CT 06492
  
  
 ---------------------------------------------------------------
 Warning -- This program may not be used in any manner that
 competes with the business of Gaussian, Inc. or will provide
 assistance to any competitor of Gaussian, Inc.  The licensee
 of this program is prohibited from giving any competitor of
 Gaussian, Inc. access to this program.  By using this program,
 the user acknowledges that Gaussian, Inc. is engaged in the
 business of creating and licensing software in the field of
 computational chemistry and represents and warrants to the
 licensee that it is not a competitor of Gaussian, Inc. and that
 it will not use this program in any manner prohibited above.
 ---------------------------------------------------------------
  

 Cite this work as:
 Gaussian 16, Revision A.03,
 M. J. Frisch, G. W. Trucks, H. B. Schlegel, G. E. Scuseria, 
 M. A. Robb, J. R. Cheeseman, G. Scalmani, V. Barone, 
 G. A. Petersson, H. Nakatsuji, X. Li, M. Caricato, A. V. Marenich, 
 J. Bloino, B. G. Janesko, R. Gomperts, B. Mennucci, H. P. Hratchian, 
 J. V. Ortiz, A. F. Izmaylov, J. L. Sonnenberg, D. Williams-Young, 
 F. Ding, F. Lipparini, F. Egidi, J. Goings, B. Peng, A. Petrone, 
 T. Henderson, D. Ranasinghe, V. G. Zakrzewski, J. Gao, N. Rega, 
 G. Zheng, W. Liang, M. Hada, M. Ehara, K. Toyota, R. Fukuda, 
 J. Hasegawa, M. Ishida, T. Nakajima, Y. Honda, O. Kitao, H. Nakai, 
 T. Vreven, K. Throssell, J. A. Montgomery, Jr., J. E. Peralta, 
 F. Ogliaro, M. J. Bearpark, J. J. Heyd, E. N. Brothers, K. N. Kudin, 
 V. N. Staroverov, T. A. Keith, R. Kobayashi, J. Normand, 
 K. Raghavachari, A. P. Rendell, J. C. Burant, S. S. Iyengar, 
 J. Tomasi, M. Cossi, J. M. Millam, M. Klene, C. Adamo, R. Cammi, 
 J. W. Ochterski, R. L. Martin, K. Morokuma, O. Farkas, 
 J. B. Foresman, and D. J. Fox, Gaussian, Inc., Wallingford CT, 2016.
 
 ******************************************
 Gaussian 16:  ES64L-G16RevA.03 25-Dec-2016
                17-Apr-2021 
 ******************************************
 %RWF=temp18_22229,70GB
 %nprocshared=48
 Will use up to   48 processors via shared memory.
 Default route: MaxDisk=80GB
 ----------------------------------------------------------------------
 #P M062X/GEN Integral=UltraFineGrid SCF=NoSymm Stable=(RExt, Opt) IOp(
 1/33=1)
 ----------------------------------------------------------------------
 1/33=1,38=1,172=1/1;
 2/12=2,17=6,18=5,40=1/2;
 3/5=7,11=2,25=1,30=1,74=-55,75=-5/1,2,3;
 4/9=2/1;
 5/5=2,38=5/2;
 6/7=2,8=2,9=2,10=2,28=1/1;
 8/6=1,10=90,11=11/1;
 9/8=-3,42=1,46=1/14;
 5/5=2,8=3,17=40,38=5/8(-2);
 6/7=2,8=2,9=2,10=2,28=1/1;
 99/5=1,9=1/99;
 Leave Link    1 at Sat Apr 17 09:19:24 2021, MaxMem=           0 cpu:              10.9 elap:               0.2
 (Enter /s/ls4/users/knvvv/bin/g16sse/l101.exe)
 ONIOM data not found on unit 2.
 ----------------------
 Database calculations.
 ----------------------
 TstMul:  ICh=     0
 TstMul:  Mul=     1
 TstMul:  ICh=     0
 TstMul:  Mul=     1
 Symbolic Z-matrix:
 Charge =  0 Multiplicity = 1
 F                     0.        0.        0. 
 F                     0.        0.        1.4129 
 
 RdStrC is calling ZToCFu for IStruc=1 NZ=     2.
 PrtBox:  NBox=     1 Levels=  1 BoxLen=    8.00 SMaxX=        2.67
          Shift=            0.000000            0.000000            0.000000
 Box      1 Number                   0 centers from      1 to      2:
 After GenITR:
 ITRead=  0  0
 MicOpt= -1 -1
 ITRead=  0  0
 MicOpt= -1 -1
 NAtoms=      2 NQM=        2 NQMF=       0 NMMI=      0 NMMIF=      0
                NMic=       0 NMicF=      0.
                    Isotopes and Nuclear Properties:
 (Nuclear quadrupole moments (NQMom) in fm**2, nuclear magnetic moments (NMagM)
  in nuclear magnetons)

  Atom         1           2
 IAtWgt=          19          19
 AtmWgt=  18.9984033  18.9984033
 NucSpn=           1           1
 AtZEff=  -0.0000000  -0.0000000
 NQMom=    0.0000000   0.0000000
 NMagM=    2.6288670   2.6288670
 AtZNuc=   9.0000000   9.0000000
 No MM parameters found.
 Leave Link  101 at Sat Apr 17 09:19:24 2021, MaxMem=   104857600 cpu:               6.9 elap:               0.2
 (Enter /s/ls4/users/knvvv/bin/g16sse/l202.exe)
                          Input orientation:                          
 ---------------------------------------------------------------------
 Center     Atomic      Atomic             Coordinates (Angstroms)
 Number     Number       Type             X           Y           Z
 ---------------------------------------------------------------------
      1          9           0        0.000000    0.000000    0.000000
      2          9           0        0.000000    0.000000    1.412900
 ---------------------------------------------------------------------
 Stoichiometry    F2
 Framework group  D*H[C*(F.F)]
 Deg. of freedom     1
 Full point group                 D*H     NOp   8
 Largest Abelian subgroup         D2H     NOp   8
 Largest concise Abelian subgroup C2      NOp   2
                         Standard orientation:                         
 ---------------------------------------------------------------------
 Center     Atomic      Atomic             Coordinates (Angstroms)
 Number     Number       Type             X           Y           Z
 ---------------------------------------------------------------------
      1          9           0        0.000000    0.000000    0.706450
      2          9           0        0.000000    0.000000   -0.706450
 ---------------------------------------------------------------------
 Rotational constants (GHZ):           0.0000000          26.6506155          26.6506155
 Leave Link  202 at Sat Apr 17 09:19:24 2021, MaxMem=   104857600 cpu:               7.8 elap:               0.2
 (Enter /s/ls4/users/knvvv/bin/g16sse/l301.exe)
 General basis read from cards:  (5D, 7F)
 Centers:       1      2
 S 8 1.00
     Exponent=  1.3253597345D+05 Coefficients=  4.7387482743D-05
     Exponent=  1.9758112588D+04 Coefficients=  3.7070120897D-04
     Exponent=  4.4851996947D+03 Coefficients=  1.9450784713D-03
     Exponent=  1.2738151020D+03 Coefficients=  8.0573291994D-03
     Exponent=  4.1893831236D+02 Coefficients=  2.7992880781D-02
     Exponent=  1.5255721985D+02 Coefficients=  8.2735120175D-02
     Exponent=  5.9821524823D+01 Coefficients=  1.9854169012D-01
     Exponent=  2.4819076932D+01 Coefficients=  3.4860632233D-01
 S 2 1.00
     Exponent=  1.0074446673D+02 Coefficients=  1.0505068816D-01
     Exponent=  3.0103728290D+01 Coefficients=  9.4068472434D-01
 S 1 1.00
     Exponent=  1.0814283272D+01 Coefficients=  1.0000000000D+00
 S 1 1.00
     Exponent=  4.8172886770D+00 Coefficients=  1.0000000000D+00
 S 1 1.00
     Exponent=  1.6559334213D+00 Coefficients=  1.0000000000D+00
 S 1 1.00
     Exponent=  6.4893519582D-01 Coefficients=  1.0000000000D+00
 S 1 1.00
     Exponent=  2.4778104545D-01 Coefficients=  1.0000000000D+00
 S 1 1.00
     Exponent=  8.7626236800D-02 Coefficients=  1.0000000000D+00
 P 5 1.00
     Exponent=  2.4096654114D+02 Coefficients=  3.0389933451D-03
     Exponent=  5.7020699781D+01 Coefficients=  2.4357738582D-02
     Exponent=  1.8126952120D+01 Coefficients=  1.1442925768D-01
     Exponent=  6.6457404621D+00 Coefficients=  3.7064659853D-01
     Exponent=  2.6375722892D+00 Coefficients=  7.9791551766D-01
 P 1 1.00
     Exponent=  1.0638217200D+00 Coefficients=  1.0000000000D+00
 P 1 1.00
     Exponent=  4.1932562750D-01 Coefficients=  1.0000000000D+00
 P 1 1.00
     Exponent=  1.5747588299D-01 Coefficients=  1.0000000000D+00
 P 1 1.00
     Exponent=  4.6772400332D-02 Coefficients=  1.0000000000D+00
 D 1 1.00
     Exponent=  5.0140000000D+00 Coefficients=  1.0000000000D+00
 D 1 1.00
     Exponent=  1.7250000000D+00 Coefficients=  1.0000000000D+00
 D 1 1.00
     Exponent=  5.8600000000D-01 Coefficients=  1.0000000000D+00
 D 1 1.00
     Exponent=  1.5967986245D-01 Coefficients=  1.0000000000D+00
 F 1 1.00
     Exponent=  3.5620000000D+00 Coefficients=  1.0000000000D+00
 F 1 1.00
     Exponent=  1.1480000000D+00 Coefficients=  1.0000000000D+00
 G 1 1.00
     Exponent=  2.3760000000D+00 Coefficients=  1.0000000000D+00
 ****
 Ernie: Thresh=  0.10000D-02 Tol=  0.10000D-05 Strict=F.
 There are    37 symmetry adapted cartesian basis functions of AG  symmetry.
 There are     9 symmetry adapted cartesian basis functions of B1G symmetry.
 There are    18 symmetry adapted cartesian basis functions of B2G symmetry.
 There are    18 symmetry adapted cartesian basis functions of B3G symmetry.
 There are     9 symmetry adapted cartesian basis functions of AU  symmetry.
 There are    37 symmetry adapted cartesian basis functions of B1U symmetry.
 There are    18 symmetry adapted cartesian basis functions of B2U symmetry.
 There are    18 symmetry adapted cartesian basis functions of B3U symmetry.
 There are    28 symmetry adapted basis functions of AG  symmetry.
 There are     8 symmetry adapted basis functions of B1G symmetry.
 There are    15 symmetry adapted basis functions of B2G symmetry.
 There are    15 symmetry adapted basis functions of B3G symmetry.
 There are     8 symmetry adapted basis functions of AU  symmetry.
 There are    28 symmetry adapted basis functions of B1U symmetry.
 There are    15 symmetry adapted basis functions of B2U symmetry.
 There are    15 symmetry adapted basis functions of B3U symmetry.
   132 basis functions,   204 primitive gaussians,   164 cartesian basis functions
     9 alpha electrons        9 beta electrons
       nuclear repulsion energy        30.3371463547 Hartrees.
 IExCor= 4336 DFT=T Ex+Corr=M062X ExCW=0 ScaHFX=  0.540000
 ScaDFX=  1.000000  1.000000  1.000000  1.000000 ScalE2=  1.000000  1.000000
 IRadAn=      5 IRanWt=     -1 IRanGd=            0 ICorTp=0 IEmpDi=  4
 NAtoms=    2 NActive=    2 NUniq=    1 SFac= 4.00D+00 NAtFMM=   60 NAOKFM=F Big=F
 Integral buffers will be    131072 words long.
 Raffenetti 2 integral format.
 Two-electron integral symmetry is turned on.
 Leave Link  301 at Sat Apr 17 09:19:25 2021, MaxMem=   104857600 cpu:               6.6 elap:               0.2
 (Enter /s/ls4/users/knvvv/bin/g16sse/l302.exe)
 NPDir=0 NMtPBC=     1 NCelOv=     1 NCel=       1 NClECP=     1 NCelD=      1
         NCelK=      1 NCelE2=     1 NClLst=     1 CellRange=     0.0.
 One-electron integrals computed using PRISM.
 One-electron integral symmetry used in STVInt
 PrsmSu:  requested number of processors reduced to:   4 ShMem   1 Linda.
 PrsmSu:  requested number of processors reduced to:  21 ShMem   1 Linda.
 NBasis=   132 RedAO= T EigKep=  5.08D-04  NBF=    28     8    15    15     8    28    15    15
 NBsUse=   132 1.00D-06 EigRej= -1.00D+00 NBFU=    28     8    15    15     8    28    15    15
 Precomputing XC quadrature grid using
 IXCGrd= 4 IRadAn=           5 IRanWt=          -1 IRanGd=           0 AccXCQ= 0.00D+00.
 Generated NRdTot=       0 NPtTot=           0 NUsed=           0 NTot=          32
 NSgBfM=   162   162   162   162   162 MxSgAt=     2 MxSgA2=     2.
 Leave Link  302 at Sat Apr 17 09:19:31 2021, MaxMem=   104857600 cpu:             320.6 elap:               6.9
 (Enter /s/ls4/users/knvvv/bin/g16sse/l303.exe)
 DipDrv:  MaxL=1.
 Leave Link  303 at Sat Apr 17 09:19:32 2021, MaxMem=   104857600 cpu:              25.9 elap:               0.6
 (Enter /s/ls4/users/knvvv/bin/g16sse/l401.exe)
 SCF N**3 symmetry information disabled.
 ExpMin= 4.68D-02 ExpMax= 1.33D+05 ExpMxC= 1.27D+03 IAcc=3 IRadAn=         5 AccDes= 0.00D+00
 Harris functional with IExCor= 1009 and IRadAn=       5 diagonalized for initial guess.
 HarFok:  IExCor= 1009 AccDes= 0.00D+00 IRadAn=         5 IDoV= 1 UseB2=F ITyADJ=14
 ICtDFT=  3500011 ScaDFX=  1.000000  1.000000  1.000000  1.000000
 FoFCou: FMM=F IPFlag=           0 FMFlag=      100000 FMFlg1=           0
         NFxFlg=           0 DoJE=T BraDBF=F KetDBF=T FulRan=T
         wScrn=  0.000000 ICntrl=       500 IOpCl=  0 I1Cent=   200000004 NGrid=           0
         NMat0=    1 NMatS0=      1 NMatT0=    0 NMatD0=    1 NMtDS0=    0 NMtDT0=    0
 Petite list used in FoFCou.
 CoulSu:  requested number of processors reduced to:  21 ShMem   1 Linda.
 CoulSu:  requested number of processors reduced to:  21 ShMem   1 Linda.
 CoulSu:  requested number of processors reduced to:  21 ShMem   1 Linda.
 CoulSu:  requested number of processors reduced to:  21 ShMem   1 Linda.
 Harris En= -199.440674928692    
 JPrj=0 DoOrth=F DoCkMO=F.
 Initial guess orbital symmetries:
       Occupied  (SGG) (SGU) (SGG) (SGU) (SGG) (PIU) (PIU) (PIG)
                 (PIG)
       Virtual   (SGU) (SGU) (SGG) (PIU) (PIU) (SGG) (PIG) (PIG)
                 (SGU) (DLTG) (DLTG) (PIU) (PIU) (SGG) (PIG) (PIG)
                 (PIU) (PIU) (SGU) (DLTU) (DLTU) (SGU) (PIG) (PIG)
                 (SGG) (SGG) (PIU) (PIU) (SGU) (DLTG) (DLTG) (SGG)
                 (PIU) (PIU) (DLTU) (DLTU) (PIG) (PIG) (SGU) (SGG)
                 (PIG) (PIG) (SGU) (SGG) (DLTG) (DLTG) (PIU) (PIU)
                 (PHIU) (PHIU) (SGG) (PHIG) (PHIG) (SGU) (DLTU)
                 (DLTU) (PIG) (PIG) (DLTG) (DLTG) (DLTU) (DLTU)
                 (PIU) (PIU) (SGU) (SGG) (PIG) (PIG) (SGU) (PIU)
                 (PIU) (PIG) (PIG) (SGG) (SGU) (PIU) (PIU) (DLTG)
                 (DLTG) (SGG) (PHIU) (PHIU) (?A) (?A) (?B) (?B)
                 (PHIG) (PHIG) (DLTU) (DLTU) (PIG) (PIG) (SGU)
                 (DLTG) (DLTG) (PHIU) (PHIU) (PHIG) (PHIG) (PIU)
                 (PIU) (SGG) (DLTU) (DLTU) (SGG) (SGU) (PIG) (PIG)
                 (DLTG) (DLTG) (DLTU) (DLTU) (PIU) (PIU) (PIG)
                 (PIG) (SGU) (SGG) (SGU) (SGG) (SGU) (SGG) (SGU)
 The electronic state of the initial guess is 1-SGG.
 Leave Link  401 at Sat Apr 17 09:19:35 2021, MaxMem=   104857600 cpu:             118.3 elap:               2.7
 (Enter /s/ls4/users/knvvv/bin/g16sse/l502.exe)
 Keep R1 ints in memory in symmetry-blocked form, NReq=92821282.
 FoFCou: FMM=F IPFlag=           0 FMFlag=           0 FMFlg1=           0
         NFxFlg=           0 DoJE=F BraDBF=F KetDBF=F FulRan=T
         wScrn=  0.000000 ICntrl=       600 IOpCl=  0 I1Cent=           0 NGrid=           0
         NMat0=    1 NMatS0=   8778 NMatT0=    0 NMatD0=    1 NMtDS0=    0 NMtDT0=    0
 Petite list used in FoFCou.
 CoulSu:  requested number of processors reduced to:  14 ShMem   1 Linda.
 Closed shell SCF:
 Using DIIS extrapolation, IDIIS=  1040.
 NGot=   104857600 LenX=    99851147 LenY=    99823810
 Requested convergence on RMS density matrix=1.00D-08 within 128 cycles.
 Requested convergence on MAX density matrix=1.00D-06.
 Requested convergence on             energy=1.00D-06.
 No special actions if energy rises.

 Cycle   1  Pass 1  IDiag  1:
 E= -199.520143090388    
 DIIS: error= 4.17D-02 at cycle   1 NSaved=   1.
 NSaved= 1 IEnMin= 1 EnMin= -199.520143090388     IErMin= 1 ErrMin= 4.17D-02
 ErrMax= 4.17D-02  0.00D+00 EMaxC= 1.00D-01 BMatC= 8.39D-02 BMatP= 8.39D-02
 IDIUse=3 WtCom= 5.83D-01 WtEn= 4.17D-01
 Coeff-Com:  0.100D+01
 Coeff-En:   0.100D+01
 Coeff:      0.100D+01
 Gap=     0.430 Goal=   None    Shift=    0.000
 GapD=    0.430 DampG=2.000 DampE=0.500 DampFc=1.0000 IDamp=-1.
 RMSDP=6.81D-04 MaxDP=1.17D-02              OVMax= 2.74D-02

 Cycle   2  Pass 1  IDiag  1:
 E= -199.532032272069     Delta-E=       -0.011889181681 Rises=F Damp=F
 DIIS: error= 8.23D-03 at cycle   2 NSaved=   2.
 NSaved= 2 IEnMin= 2 EnMin= -199.532032272069     IErMin= 2 ErrMin= 8.23D-03
 ErrMax= 8.23D-03  0.00D+00 EMaxC= 1.00D-01 BMatC= 3.68D-03 BMatP= 8.39D-02
 IDIUse=3 WtCom= 9.18D-01 WtEn= 8.23D-02
 Coeff-Com:  0.104D+00 0.896D+00
 Coeff-En:   0.000D+00 0.100D+01
 Coeff:      0.951D-01 0.905D+00
 Gap=     0.442 Goal=   None    Shift=    0.000
 RMSDP=2.12D-04 MaxDP=4.57D-03 DE=-1.19D-02 OVMax= 1.54D-02

 Cycle   3  Pass 1  IDiag  1:
 E= -199.533455801184     Delta-E=       -0.001423529115 Rises=F Damp=F
 DIIS: error= 3.45D-03 at cycle   3 NSaved=   3.
 NSaved= 3 IEnMin= 3 EnMin= -199.533455801184     IErMin= 3 ErrMin= 3.45D-03
 ErrMax= 3.45D-03  0.00D+00 EMaxC= 1.00D-01 BMatC= 9.09D-04 BMatP= 3.68D-03
 IDIUse=3 WtCom= 9.66D-01 WtEn= 3.45D-02
 Coeff-Com: -0.847D-03 0.326D+00 0.674D+00
 Coeff-En:   0.000D+00 0.273D-01 0.973D+00
 Coeff:     -0.818D-03 0.316D+00 0.685D+00
 Gap=     0.440 Goal=   None    Shift=    0.000
 RMSDP=7.14D-05 MaxDP=1.61D-03 DE=-1.42D-03 OVMax= 4.14D-03

 Cycle   4  Pass 1  IDiag  1:
 E= -199.533878775915     Delta-E=       -0.000422974731 Rises=F Damp=F
 DIIS: error= 5.25D-04 at cycle   4 NSaved=   4.
 NSaved= 4 IEnMin= 4 EnMin= -199.533878775915     IErMin= 4 ErrMin= 5.25D-04
 ErrMax= 5.25D-04  0.00D+00 EMaxC= 1.00D-01 BMatC= 1.49D-05 BMatP= 9.09D-04
 IDIUse=3 WtCom= 9.95D-01 WtEn= 5.25D-03
 Coeff-Com: -0.179D-02 0.932D-01 0.229D+00 0.680D+00
 Coeff-En:   0.000D+00 0.000D+00 0.000D+00 0.100D+01
 Coeff:     -0.178D-02 0.927D-01 0.228D+00 0.681D+00
 Gap=     0.440 Goal=   None    Shift=    0.000
 RMSDP=9.53D-06 MaxDP=2.13D-04 DE=-4.23D-04 OVMax= 5.12D-04

 Cycle   5  Pass 1  IDiag  1:
 E= -199.533884932529     Delta-E=       -0.000006156614 Rises=F Damp=F
 DIIS: error= 3.28D-05 at cycle   5 NSaved=   5.
 NSaved= 5 IEnMin= 5 EnMin= -199.533884932529     IErMin= 5 ErrMin= 3.28D-05
 ErrMax= 3.28D-05  0.00D+00 EMaxC= 1.00D-01 BMatC= 6.04D-08 BMatP= 1.49D-05
 IDIUse=1 WtCom= 1.00D+00 WtEn= 0.00D+00
 Coeff-Com: -0.452D-04-0.100D-01-0.255D-01-0.302D-01 0.107D+01
 Coeff:     -0.452D-04-0.100D-01-0.255D-01-0.302D-01 0.107D+01
 Gap=     0.440 Goal=   None    Shift=    0.000
 RMSDP=2.28D-06 MaxDP=6.13D-05 DE=-6.16D-06 OVMax= 8.22D-05

 Cycle   6  Pass 1  IDiag  1:
 E= -199.533884994814     Delta-E=       -0.000000062285 Rises=F Damp=F
 DIIS: error= 3.84D-06 at cycle   6 NSaved=   6.
 NSaved= 6 IEnMin= 6 EnMin= -199.533884994814     IErMin= 6 ErrMin= 3.84D-06
 ErrMax= 3.84D-06  0.00D+00 EMaxC= 1.00D-01 BMatC= 8.69D-10 BMatP= 6.04D-08
 IDIUse=1 WtCom= 1.00D+00 WtEn= 0.00D+00
 Coeff-Com:  0.190D-04 0.264D-03 0.213D-03-0.794D-02-0.812D-01 0.109D+01
 Coeff:      0.190D-04 0.264D-03 0.213D-03-0.794D-02-0.812D-01 0.109D+01
 Gap=     0.440 Goal=   None    Shift=    0.000
 RMSDP=1.55D-07 MaxDP=4.28D-06 DE=-6.23D-08 OVMax= 8.19D-06

 Cycle   7  Pass 1  IDiag  1:
 E= -199.533884995445     Delta-E=       -0.000000000631 Rises=F Damp=F
 DIIS: error= 3.12D-07 at cycle   7 NSaved=   7.
 NSaved= 7 IEnMin= 7 EnMin= -199.533884995445     IErMin= 7 ErrMin= 3.12D-07
 ErrMax= 3.12D-07  0.00D+00 EMaxC= 1.00D-01 BMatC= 4.61D-12 BMatP= 8.69D-10
 IDIUse=1 WtCom= 1.00D+00 WtEn= 0.00D+00
 Coeff-Com: -0.161D-05 0.544D-04 0.107D-03 0.682D-03 0.161D-02-0.101D+00
 Coeff-Com:  0.110D+01
 Coeff:     -0.161D-05 0.544D-04 0.107D-03 0.682D-03 0.161D-02-0.101D+00
 Coeff:      0.110D+01
 Gap=     0.440 Goal=   None    Shift=    0.000
 RMSDP=1.16D-08 MaxDP=2.36D-07 DE=-6.31D-10 OVMax= 5.62D-07

 Cycle   8  Pass 1  IDiag  1:
 E= -199.533884995450     Delta-E=       -0.000000000005 Rises=F Damp=F
 DIIS: error= 1.55D-08 at cycle   8 NSaved=   8.
 NSaved= 8 IEnMin= 8 EnMin= -199.533884995450     IErMin= 8 ErrMin= 1.55D-08
 ErrMax= 1.55D-08  0.00D+00 EMaxC= 1.00D-01 BMatC= 1.50D-14 BMatP= 4.61D-12
 IDIUse=1 WtCom= 1.00D+00 WtEn= 0.00D+00
 Coeff-Com: -0.579D-07-0.345D-05-0.562D-05-0.923D-05 0.369D-03-0.140D-02
 Coeff-Com: -0.495D-01 0.105D+01
 Coeff:     -0.579D-07-0.345D-05-0.562D-05-0.923D-05 0.369D-03-0.140D-02
 Coeff:     -0.495D-01 0.105D+01
 Gap=     0.440 Goal=   None    Shift=    0.000
 RMSDP=6.91D-10 MaxDP=1.31D-08 DE=-4.69D-12 OVMax= 5.15D-08

 SCF Done:  E(RM062X) =  -199.533884995     A.U. after    8 cycles
            NFock=  8  Conv=0.69D-09     -V/T= 2.0031
 KE= 1.989218412682D+02 PE=-5.374179344481D+02 EE= 1.086250618298D+02
 Leave Link  502 at Sat Apr 17 09:19:42 2021, MaxMem=   104857600 cpu:             307.1 elap:               6.9
 (Enter /s/ls4/users/knvvv/bin/g16sse/l601.exe)
 Copying SCF densities to generalized density rwf, IOpCl= 0 IROHF=0.

 **********************************************************************

            Population analysis using the SCF density.

 **********************************************************************

 Orbital symmetries:
       Occupied  (SGG) (SGU) (SGG) (SGU) (SGG) (PIU) (PIU) (PIG)
                 (PIG)
       Virtual   (SGU) (SGU) (PIU) (PIU) (SGG) (PIG) (PIG) (SGG)
                 (SGU) (DLTG) (DLTG) (SGG) (PIU) (PIU) (PIG) (PIG)
                 (SGU) (PIU) (PIU) (DLTU) (DLTU) (SGU) (PIG) (PIG)
                 (SGG) (SGG) (PIU) (PIU) (SGU) (DLTG) (DLTG) (SGG)
                 (PIU) (PIU) (DLTU) (DLTU) (PIG) (PIG) (SGU) (SGG)
                 (PIG) (PIG) (SGU) (SGG) (DLTG) (DLTG) (PIU) (PIU)
                 (PHIU) (PHIU) (SGG) (PHIG) (PHIG) (SGU) (DLTU)
                 (DLTU) (PIG) (PIG) (DLTG) (DLTG) (DLTU) (DLTU)
                 (PIU) (PIU) (SGU) (SGG) (PIG) (PIG) (SGU) (PIU)
                 (PIU) (PIG) (PIG) (SGG) (SGU) (PIU) (PIU) (SGG)
                 (DLTG) (DLTG) (PHIU) (PHIU) (?A) (?A) (?B) (?B)
                 (PHIG) (PHIG) (DLTU) (DLTU) (PIG) (PIG) (SGU)
                 (DLTG) (DLTG) (PHIU) (PHIU) (PHIG) (PHIG) (PIU)
                 (PIU) (DLTU) (DLTU) (SGG) (SGG) (SGU) (PIG) (PIG)
                 (DLTG) (DLTG) (DLTU) (DLTU) (PIU) (PIU) (PIG)
                 (PIG) (SGU) (SGG) (SGU) (SGG) (SGU) (SGG) (SGU)
 The electronic state is 1-SGG.
 Alpha  occ. eigenvalues --  -25.36232 -25.36218  -1.50736  -1.25799  -0.68016
 Alpha  occ. eigenvalues --   -0.65716  -0.65716  -0.52246  -0.52246
 Alpha virt. eigenvalues --   -0.08289   0.05498   0.06533   0.06533   0.08308
 Alpha virt. eigenvalues --    0.11048   0.11048   0.12444   0.25460   0.38427
 Alpha virt. eigenvalues --    0.38428   0.45908   0.46596   0.46596   0.50838
 Alpha virt. eigenvalues --    0.50838   0.51591   0.52226   0.52226   0.54497
 Alpha virt. eigenvalues --    0.54498   0.69693   0.77207   0.77207   0.84335
 Alpha virt. eigenvalues --    0.87778   1.46206   1.46206   1.53193   1.56395
 Alpha virt. eigenvalues --    1.56403   1.70725   1.77421   1.77421   1.77578
 Alpha virt. eigenvalues --    1.77586   1.80545   1.80545   1.89065   2.09723
 Alpha virt. eigenvalues --    2.26083   2.26083   2.80563   3.67933   3.79788
 Alpha virt. eigenvalues --    3.79790   3.89067   3.89067   4.06948   4.06948
 Alpha virt. eigenvalues --    4.14413   4.22061   4.22061   4.41483   4.58534
 Alpha virt. eigenvalues --    4.58536   5.08253   5.08253   5.14878   5.14879
 Alpha virt. eigenvalues --    5.27755   5.27758   5.29411   5.29411   5.33729
 Alpha virt. eigenvalues --    5.66744   5.83640   5.83640   6.06151   6.24823
 Alpha virt. eigenvalues --    6.24823   6.38885   6.38885   6.98028   7.25771
 Alpha virt. eigenvalues --   10.77113  10.77113  10.99550  11.00642  11.00646
 Alpha virt. eigenvalues --   11.21403  11.21403  11.28792  11.28797  11.29588
 Alpha virt. eigenvalues --   11.29592  11.32353  11.32353  11.56090  11.56095
 Alpha virt. eigenvalues --   12.13637  12.13637  12.27244  14.23973  14.23975
 Alpha virt. eigenvalues --   14.33252  14.33252  14.41004  14.41004  14.42831
 Alpha virt. eigenvalues --   14.42831  14.65334  14.65335  14.67721  14.92213
 Alpha virt. eigenvalues --   15.05860  15.43982  15.43982  15.72796  15.72797
 Alpha virt. eigenvalues --   15.80495  15.80496  15.81654  15.81654  15.90999
 Alpha virt. eigenvalues --   15.90999  15.97680  16.54047  17.01814  53.87398
 Alpha virt. eigenvalues --   54.81319 282.62214 283.81706
          Condensed to atoms (all electrons):
               1          2
     1  F    9.009375  -0.009375
     2  F   -0.009375   9.009375
 Mulliken charges:
               1
     1  F   -0.000000
     2  F    0.000000
 Sum of Mulliken charges =  -0.00000
 Mulliken charges with hydrogens summed into heavy atoms:
               1
     1  F   -0.000000
     2  F    0.000000
 Electronic spatial extent (au):  <R**2>=             53.0097
 Charge=             -0.0000 electrons
 Dipole moment (field-independent basis, Debye):
    X=              0.0000    Y=              0.0000    Z=              0.0000  Tot=              0.0000
 Quadrupole moment (field-independent basis, Debye-Ang):
   XX=             -9.6398   YY=             -9.6398   ZZ=             -8.8716
   XY=              0.0000   XZ=              0.0000   YZ=              0.0000
 Traceless Quadrupole moment (field-independent basis, Debye-Ang):
   XX=             -0.2561   YY=             -0.2561   ZZ=              0.5122
   XY=              0.0000   XZ=              0.0000   YZ=              0.0000
 Octapole moment (field-independent basis, Debye-Ang**2):
  XXX=             -0.0000  YYY=              0.0000  ZZZ=             -0.0000  XYY=             -0.0000
  XXY=              0.0000  XXZ=             -0.0000  XZZ=             -0.0000  YZZ=              0.0000
  YYZ=             -0.0000  XYZ=              0.0000
 Hexadecapole moment (field-independent basis, Debye-Ang**3):
 XXXX=             -5.9473 YYYY=             -5.9473 ZZZZ=            -30.2180 XXXY=              0.0000
 XXXZ=              0.0000 YYYX=              0.0000 YYYZ=              0.0000 ZZZX=              0.0000
 ZZZY=              0.0000 XXYY=             -1.9824 XXZZ=             -6.8053 YYZZ=             -6.8053
 XXYZ=              0.0000 YYXZ=              0.0000 ZZXY=             -0.0000
 N-N= 3.033714635467D+01 E-N=-5.374179338555D+02  KE= 1.989218412682D+02
 PrsmSu:  requested number of processors reduced to:  21 ShMem   1 Linda.
 No NMR shielding tensors so no spin-rotation constants.
 Leave Link  601 at Sat Apr 17 09:19:45 2021, MaxMem=   104857600 cpu:             142.0 elap:               3.2
 (Enter /s/ls4/users/knvvv/bin/g16sse/l801.exe)
 DoSCS=F DFT=T ScalE2(SS,OS)=  1.000000  1.000000
 Range of M.O.s used for correlation:     1   132
 NBasis=   132 NAE=     9 NBE=     9 NFC=     0 NFV=     0
 NROrb=    132 NOA=     9 NOB=     9 NVA=   123 NVB=   123

 **** Warning!!: The largest alpha MO coefficient is  0.14114616D+02

 Leave Link  801 at Sat Apr 17 09:19:45 2021, MaxMem=   104857600 cpu:               3.7 elap:               0.1
 (Enter /s/ls4/users/knvvv/bin/g16sse/l914.exe)
 RHF ground state
 Doing stability rather than CIS.
 Two-electron integrals replicated using symmetry.
 MDV=   104857600 DFT=T DoStab=T Mixed=T DoRPA=F DoScal=F NonHer=F
 Making orbital integer symmetry assigments:
 Orbital symmetries:
       Occupied  (SGG) (SGU) (SGG) (SGU) (SGG) (PIU) (PIU) (PIG)
                 (PIG)
       Virtual   (SGU) (SGU) (PIU) (PIU) (SGG) (PIG) (PIG) (SGG)
                 (SGU) (DLTG) (DLTG) (SGG) (PIU) (PIU) (PIG) (PIG)
                 (SGU) (PIU) (PIU) (DLTU) (DLTU) (SGU) (PIG) (PIG)
                 (SGG) (SGG) (PIU) (PIU) (SGU) (DLTG) (DLTG) (SGG)
                 (PIU) (PIU) (DLTU) (DLTU) (PIG) (PIG) (SGU) (SGG)
                 (PIG) (PIG) (SGU) (SGG) (DLTG) (DLTG) (PIU) (PIU)
                 (PHIU) (PHIU) (SGG) (PHIG) (PHIG) (SGU) (DLTU)
                 (DLTU) (PIG) (PIG) (DLTG) (DLTG) (DLTU) (DLTU)
                 (PIU) (PIU) (SGU) (SGG) (PIG) (PIG) (SGU) (PIU)
                 (PIU) (PIG) (PIG) (SGG) (SGU) (PIU) (PIU) (SGG)
                 (DLTG) (DLTG) (PHIU) (PHIU) (?A) (?A) (?B) (?B)
                 (PHIG) (PHIG) (DLTU) (DLTU) (PIG) (PIG) (SGU)
                 (DLTG) (DLTG) (PHIU) (PHIU) (PHIG) (PHIG) (PIU)
                 (PIU) (DLTU) (DLTU) (SGG) (SGG) (SGU) (PIG) (PIG)
                 (DLTG) (DLTG) (DLTU) (DLTU) (PIU) (PIU) (PIG)
                 (PIG) (SGU) (SGG) (SGU) (SGG) (SGU) (SGG) (SGU)
    48 initial guesses have been made.
 Convergence on wavefunction:    0.001000000000000
 Davidson Disk Diagonalization:  ConvIn= 1.00D-03 SkipCon=T Conv= 1.00D-03.
 Max sub-space:  2000 roots to seek:    48 dimension of matrix:         2214
 Iteration     1 Dimension    48 NMult     0 NNew     48
 Estimated number of processors is:   20
 CISAX will form     1 AO SS matrices at one time.
 NMat=     1 NSing=     1 JSym2X= 2.
 FoFJK:  IHMeth= 1 ICntrl=       0 DoSepK=F KAlg= 0 I1Cent=           0 FoldK=F
 IRaf= 990000000 NMat=       1 IRICut=       1 DoRegI=T DoRafI=F ISym2E= 2 IDoP0=0 IntGTp=1.
 FoFCou: FMM=F IPFlag=           0 FMFlag=      100000 FMFlg1=           0
         NFxFlg=           0 DoJE=F BraDBF=F KetDBF=F FulRan=T
         wScrn=  0.000000 ICntrl=         0 IOpCl=  0 I1Cent=           0 NGrid=           0
         NMat0=    1 NMatS0=      1 NMatT0=    0 NMatD0=    1 NMtDS0=    0 NMtDT0=    0
 Integrals replicated using symmetry in FoFCou.
 CoulSu:  requested number of processors reduced to:  20 ShMem   1 Linda.
 NMat=     1 NSing=     1 JSym2X= 2.
 CoulSu:  requested number of processors reduced to:  20 ShMem   1 Linda.
 NMat=     1 NSing=     1 JSym2X= 2.
 CoulSu:  requested number of processors reduced to:  20 ShMem   1 Linda.
 NMat=     1 NSing=     1 JSym2X= 2.
 CoulSu:  requested number of processors reduced to:  20 ShMem   1 Linda.
 NMat=     1 NSing=     1 JSym2X= 2.
 CoulSu:  requested number of processors reduced to:  20 ShMem   1 Linda.
 NMat=     1 NSing=     1 JSym2X= 2.
 CoulSu:  requested number of processors reduced to:  20 ShMem   1 Linda.
 NMat=     1 NSing=     1 JSym2X= 2.
 CoulSu:  requested number of processors reduced to:  20 ShMem   1 Linda.
 NMat=     1 NSing=     1 JSym2X= 2.
 CoulSu:  requested number of processors reduced to:  20 ShMem   1 Linda.
 NMat=     1 NSing=     1 JSym2X= 2.
 CoulSu:  requested number of processors reduced to:  20 ShMem   1 Linda.
 NMat=     1 NSing=     1 JSym2X= 2.
 CoulSu:  requested number of processors reduced to:  20 ShMem   1 Linda.
 NMat=     1 NSing=     1 JSym2X= 2.
 CoulSu:  requested number of processors reduced to:  20 ShMem   1 Linda.
 NMat=     1 NSing=     1 JSym2X= 2.
 CoulSu:  requested number of processors reduced to:  20 ShMem   1 Linda.
 NMat=     1 NSing=     1 JSym2X= 2.
 CoulSu:  requested number of processors reduced to:  20 ShMem   1 Linda.
 NMat=     1 NSing=     1 JSym2X= 2.
 CoulSu:  requested number of processors reduced to:  20 ShMem   1 Linda.
 NMat=     1 NSing=     1 JSym2X= 2.
 CoulSu:  requested number of processors reduced to:  20 ShMem   1 Linda.
 NMat=     1 NSing=     1 JSym2X= 2.
 CoulSu:  requested number of processors reduced to:  20 ShMem   1 Linda.
 NMat=     1 NSing=     1 JSym2X= 2.
 CoulSu:  requested number of processors reduced to:  20 ShMem   1 Linda.
 NMat=     1 NSing=     1 JSym2X= 2.
 CoulSu:  requested number of processors reduced to:  20 ShMem   1 Linda.
 NMat=     1 NSing=     1 JSym2X= 2.
 CoulSu:  requested number of processors reduced to:  20 ShMem   1 Linda.
 NMat=     1 NSing=     1 JSym2X= 2.
 CoulSu:  requested number of processors reduced to:  20 ShMem   1 Linda.
 NMat=     1 NSing=     1 JSym2X= 2.
 CoulSu:  requested number of processors reduced to:  20 ShMem   1 Linda.
 NMat=     1 NSing=     1 JSym2X= 2.
 CoulSu:  requested number of processors reduced to:  20 ShMem   1 Linda.
 NMat=     1 NSing=     1 JSym2X= 2.
 CoulSu:  requested number of processors reduced to:  20 ShMem   1 Linda.
 NMat=     1 NSing=     1 JSym2X= 2.
 CoulSu:  requested number of processors reduced to:  20 ShMem   1 Linda.
 NMat=     1 NSing=     0 JSym2X= 2.
 CoulSu:  requested number of processors reduced to:  20 ShMem   1 Linda.
 NMat=     1 NSing=     0 JSym2X= 2.
 CoulSu:  requested number of processors reduced to:  20 ShMem   1 Linda.
 NMat=     1 NSing=     0 JSym2X= 2.
 CoulSu:  requested number of processors reduced to:  20 ShMem   1 Linda.
 NMat=     1 NSing=     0 JSym2X= 2.
 CoulSu:  requested number of processors reduced to:  20 ShMem   1 Linda.
 NMat=     1 NSing=     0 JSym2X= 2.
 CoulSu:  requested number of processors reduced to:  20 ShMem   1 Linda.
 NMat=     1 NSing=     0 JSym2X= 2.
 CoulSu:  requested number of processors reduced to:  20 ShMem   1 Linda.
 NMat=     1 NSing=     0 JSym2X= 2.
 CoulSu:  requested number of processors reduced to:  20 ShMem   1 Linda.
 NMat=     1 NSing=     0 JSym2X= 2.
 CoulSu:  requested number of processors reduced to:  20 ShMem   1 Linda.
 NMat=     1 NSing=     0 JSym2X= 2.
 CoulSu:  requested number of processors reduced to:  20 ShMem   1 Linda.
 NMat=     1 NSing=     0 JSym2X= 2.
 CoulSu:  requested number of processors reduced to:  20 ShMem   1 Linda.
 NMat=     1 NSing=     0 JSym2X= 2.
 CoulSu:  requested number of processors reduced to:  20 ShMem   1 Linda.
 NMat=     1 NSing=     0 JSym2X= 2.
 CoulSu:  requested number of processors reduced to:  20 ShMem   1 Linda.
 NMat=     1 NSing=     0 JSym2X= 2.
 CoulSu:  requested number of processors reduced to:  20 ShMem   1 Linda.
 NMat=     1 NSing=     0 JSym2X= 2.
 CoulSu:  requested number of processors reduced to:  20 ShMem   1 Linda.
 NMat=     1 NSing=     0 JSym2X= 2.
 CoulSu:  requested number of processors reduced to:  20 ShMem   1 Linda.
 NMat=     1 NSing=     0 JSym2X= 2.
 CoulSu:  requested number of processors reduced to:  20 ShMem   1 Linda.
 NMat=     1 NSing=     0 JSym2X= 2.
 CoulSu:  requested number of processors reduced to:  20 ShMem   1 Linda.
 NMat=     1 NSing=     0 JSym2X= 2.
 CoulSu:  requested number of processors reduced to:  20 ShMem   1 Linda.
 NMat=     1 NSing=     0 JSym2X= 2.
 CoulSu:  requested number of processors reduced to:  20 ShMem   1 Linda.
 NMat=     1 NSing=     0 JSym2X= 2.
 CoulSu:  requested number of processors reduced to:  20 ShMem   1 Linda.
 NMat=     1 NSing=     0 JSym2X= 2.
 CoulSu:  requested number of processors reduced to:  20 ShMem   1 Linda.
 NMat=     1 NSing=     0 JSym2X= 2.
 CoulSu:  requested number of processors reduced to:  20 ShMem   1 Linda.
 NMat=     1 NSing=     0 JSym2X= 2.
 CoulSu:  requested number of processors reduced to:  20 ShMem   1 Linda.
 NMat=     1 NSing=     0 JSym2X= 2.
 CoulSu:  requested number of processors reduced to:  20 ShMem   1 Linda.
 New state      1 was old state      4
 Excitation Energies [eV] at current iteration:
 Root      1 :     3.169947146892328
 Root      2 :     3.169947146892684
 Root      3 :     5.279139587449185
 Root      4 :     5.721697561902491
 Root      5 :     5.721697561903040
 Root      6 :     7.071937244612072
 Root      7 :     7.071937244612476
 Root      8 :     9.346344119827554
 Root      9 :     9.346344119827711
 Root     10 :    13.118239644937690
 Root     11 :    13.118239645118220
 Root     12 :    13.178696752741660
 Root     13 :    13.178696752764370
 Root     14 :    13.179716608360500
 Root     15 :    13.179723903301480
 Root     16 :    13.182015680469330
 Root     17 :    13.236962409292330
 Root     18 :    13.236962409299850
 Root     19 :    13.245963895351440
 Root     20 :    13.245963895351880
 Root     21 :    13.268608531997220
 Root     22 :    13.268608532099850
 Root     23 :    13.278031905829860
 Root     24 :    13.282990677853090
 Root     25 :    13.283003207362760
 Root     26 :    14.545851972273080
 Root     27 :    14.545851972379990
 Root     28 :    14.569397858810340
 Root     29 :    14.641539600809390
 Root     30 :    14.641539600858180
 Root     31 :    14.659326505205160
 Root     32 :    14.677010693230540
 Root     33 :    14.769886919586470
 Root     34 :    14.776081515586300
 Root     35 :    14.829117399740770
 Root     36 :    14.843661097391950
 Root     37 :    15.317326861049080
 Root     38 :    16.912391679134930
 Root     39 :    16.912391679164760
 Root     40 :    16.969398521926940
 Root     41 :    16.969398521949990
 Root     42 :    16.993847892157810
 Root     43 :    16.996926851445260
 Root     44 :    17.038440600879150
 Root     45 :    17.044796565580200
 Root     46 :    17.180645871773140
 Root     47 :    18.095820555656340
 Root     48 :    29.143508699616560
 Iteration     2 Dimension    96 NMult    48 NNew     48
 Estimated number of processors is:   20
 CISAX will form     1 AO SS matrices at one time.
 NMat=     1 NSing=     1 JSym2X= 2.
 CoulSu:  requested number of processors reduced to:  20 ShMem   1 Linda.
 NMat=     1 NSing=     1 JSym2X= 2.
 CoulSu:  requested number of processors reduced to:  20 ShMem   1 Linda.
 NMat=     1 NSing=     1 JSym2X= 2.
 CoulSu:  requested number of processors reduced to:  20 ShMem   1 Linda.
 NMat=     1 NSing=     1 JSym2X= 2.
 CoulSu:  requested number of processors reduced to:  20 ShMem   1 Linda.
 NMat=     1 NSing=     1 JSym2X= 2.
 CoulSu:  requested number of processors reduced to:  20 ShMem   1 Linda.
 NMat=     1 NSing=     1 JSym2X= 2.
 CoulSu:  requested number of processors reduced to:  20 ShMem   1 Linda.
 NMat=     1 NSing=     1 JSym2X= 2.
 CoulSu:  requested number of processors reduced to:  20 ShMem   1 Linda.
 NMat=     1 NSing=     1 JSym2X= 2.
 CoulSu:  requested number of processors reduced to:  20 ShMem   1 Linda.
 NMat=     1 NSing=     1 JSym2X= 2.
 CoulSu:  requested number of processors reduced to:  20 ShMem   1 Linda.
 NMat=     1 NSing=     1 JSym2X= 2.
 CoulSu:  requested number of processors reduced to:  20 ShMem   1 Linda.
 NMat=     1 NSing=     1 JSym2X= 2.
 CoulSu:  requested number of processors reduced to:  20 ShMem   1 Linda.
 NMat=     1 NSing=     1 JSym2X= 2.
 CoulSu:  requested number of processors reduced to:  20 ShMem   1 Linda.
 NMat=     1 NSing=     1 JSym2X= 2.
 CoulSu:  requested number of processors reduced to:  20 ShMem   1 Linda.
 NMat=     1 NSing=     1 JSym2X= 2.
 CoulSu:  requested number of processors reduced to:  20 ShMem   1 Linda.
 NMat=     1 NSing=     1 JSym2X= 2.
 CoulSu:  requested number of processors reduced to:  20 ShMem   1 Linda.
 NMat=     1 NSing=     1 JSym2X= 2.
 CoulSu:  requested number of processors reduced to:  20 ShMem   1 Linda.
 NMat=     1 NSing=     1 JSym2X= 2.
 CoulSu:  requested number of processors reduced to:  20 ShMem   1 Linda.
 NMat=     1 NSing=     1 JSym2X= 2.
 CoulSu:  requested number of processors reduced to:  20 ShMem   1 Linda.
 NMat=     1 NSing=     1 JSym2X= 2.
 CoulSu:  requested number of processors reduced to:  20 ShMem   1 Linda.
 NMat=     1 NSing=     1 JSym2X= 2.
 CoulSu:  requested number of processors reduced to:  20 ShMem   1 Linda.
 NMat=     1 NSing=     1 JSym2X= 2.
 CoulSu:  requested number of processors reduced to:  20 ShMem   1 Linda.
 NMat=     1 NSing=     1 JSym2X= 2.
 CoulSu:  requested number of processors reduced to:  20 ShMem   1 Linda.
 NMat=     1 NSing=     1 JSym2X= 2.
 CoulSu:  requested number of processors reduced to:  20 ShMem   1 Linda.
 NMat=     1 NSing=     1 JSym2X= 2.
 CoulSu:  requested number of processors reduced to:  20 ShMem   1 Linda.
 NMat=     1 NSing=     0 JSym2X= 2.
 CoulSu:  requested number of processors reduced to:  20 ShMem   1 Linda.
 NMat=     1 NSing=     0 JSym2X= 2.
 CoulSu:  requested number of processors reduced to:  20 ShMem   1 Linda.
 NMat=     1 NSing=     0 JSym2X= 2.
 CoulSu:  requested number of processors reduced to:  20 ShMem   1 Linda.
 NMat=     1 NSing=     0 JSym2X= 2.
 CoulSu:  requested number of processors reduced to:  20 ShMem   1 Linda.
 NMat=     1 NSing=     0 JSym2X= 2.
 CoulSu:  requested number of processors reduced to:  20 ShMem   1 Linda.
 NMat=     1 NSing=     0 JSym2X= 2.
 CoulSu:  requested number of processors reduced to:  20 ShMem   1 Linda.
 NMat=     1 NSing=     0 JSym2X= 2.
 CoulSu:  requested number of processors reduced to:  20 ShMem   1 Linda.
 NMat=     1 NSing=     0 JSym2X= 2.
 CoulSu:  requested number of processors reduced to:  20 ShMem   1 Linda.
 NMat=     1 NSing=     0 JSym2X= 2.
 CoulSu:  requested number of processors reduced to:  20 ShMem   1 Linda.
 NMat=     1 NSing=     0 JSym2X= 2.
 CoulSu:  requested number of processors reduced to:  20 ShMem   1 Linda.
 NMat=     1 NSing=     0 JSym2X= 2.
 CoulSu:  requested number of processors reduced to:  20 ShMem   1 Linda.
 NMat=     1 NSing=     0 JSym2X= 2.
 CoulSu:  requested number of processors reduced to:  20 ShMem   1 Linda.
 NMat=     1 NSing=     0 JSym2X= 2.
 CoulSu:  requested number of processors reduced to:  20 ShMem   1 Linda.
 NMat=     1 NSing=     0 JSym2X= 2.
 CoulSu:  requested number of processors reduced to:  20 ShMem   1 Linda.
 NMat=     1 NSing=     0 JSym2X= 2.
 CoulSu:  requested number of processors reduced to:  20 ShMem   1 Linda.
 NMat=     1 NSing=     0 JSym2X= 2.
 CoulSu:  requested number of processors reduced to:  20 ShMem   1 Linda.
 NMat=     1 NSing=     0 JSym2X= 2.
 CoulSu:  requested number of processors reduced to:  20 ShMem   1 Linda.
 NMat=     1 NSing=     0 JSym2X= 2.
 CoulSu:  requested number of processors reduced to:  20 ShMem   1 Linda.
 NMat=     1 NSing=     0 JSym2X= 2.
 CoulSu:  requested number of processors reduced to:  20 ShMem   1 Linda.
 NMat=     1 NSing=     0 JSym2X= 2.
 CoulSu:  requested number of processors reduced to:  20 ShMem   1 Linda.
 NMat=     1 NSing=     0 JSym2X= 2.
 CoulSu:  requested number of processors reduced to:  20 ShMem   1 Linda.
 NMat=     1 NSing=     0 JSym2X= 2.
 CoulSu:  requested number of processors reduced to:  20 ShMem   1 Linda.
 NMat=     1 NSing=     0 JSym2X= 2.
 CoulSu:  requested number of processors reduced to:  20 ShMem   1 Linda.
 NMat=     1 NSing=     0 JSym2X= 2.
 CoulSu:  requested number of processors reduced to:  20 ShMem   1 Linda.
 DSYEVD-2 returned Info=        4849 IAlg= 4 N=    96 NDim=    96 NE2=     1008769 trying  DSYEV.
 Root      1 not converged, maximum delta is    0.057865919259425
 Excitation Energies [eV] at current iteration:
 Root      1 :     2.711690643519856   Change is   -0.458256503372472
 Root      2 :     2.711690643520160   Change is   -0.458256503372524
 Root      3 :     4.194133111298194   Change is   -1.085006476150992
 Root      4 :     5.274116655723385   Change is   -0.447580906179106
 Root      5 :     5.274116655724013   Change is   -0.447580906179028
 Root      6 :     6.662631900426364   Change is   -0.409305344185708
 Root      7 :     6.662631900426716   Change is   -0.409305344185760
 Root      8 :     9.070091561704594   Change is   -0.276252558122960
 Root      9 :     9.070091561705064   Change is   -0.276252558122647
 Root     10 :    12.926637669755080   Change is   -0.252059082986584
 Root     11 :    12.926637669771840   Change is   -0.252059082992525
 Root     12 :    12.940635661433990   Change is   -0.177603983503700
 Root     13 :    12.940635661585440   Change is   -0.177603983532772
 Root     14 :    12.948733200226340   Change is   -0.233282480242986
 Root     15 :    12.969805471873110   Change is   -0.209911136487392
 Root     16 :    12.969954198663820   Change is   -0.209769704637659
 Root     17 :    13.022223236323230   Change is   -0.255808669506623
 Root     18 :    13.112743390653870   Change is   -0.155865141343354
 Root     19 :    13.112743390740080   Change is   -0.155865141359767
 Root     20 :    13.137886169445340   Change is   -0.145104508407748
 Root     21 :    13.137992324304420   Change is   -0.145010883058334
 Root     22 :    13.142714959472950   Change is   -0.094247449819379
 Root     23 :    13.142714959478420   Change is   -0.094247449821426
 Root     24 :    13.174118725229320   Change is   -0.071845170122118
 Root     25 :    13.174118725286070   Change is   -0.071845170065805
 Root     26 :    14.455221954387470   Change is   -0.090630017885610
 Root     27 :    14.455221954488860   Change is   -0.090630017891123
 Root     28 :    14.472498528293290   Change is   -0.096899330517046
 Root     29 :    14.552872260196660   Change is   -0.106454245008503
 Root     30 :    14.557117071070020   Change is   -0.119893622160514
 Root     31 :    14.557175055494180   Change is   -0.084364545315208
 Root     32 :    14.557175055538110   Change is   -0.084364545320069
 Root     33 :    14.712130574475460   Change is   -0.063950941110836
 Root     34 :    14.712144607073040   Change is   -0.057742312513434
 Root     35 :    14.737960368396750   Change is   -0.091157031344023
 Root     36 :    14.741735172473070   Change is   -0.101925924918886
 Root     37 :    15.143274035895710   Change is   -0.174052825153370
 Root     38 :    16.799988457814660   Change is   -0.112403221320275
 Root     39 :    16.799988457834250   Change is   -0.112403221330516
 Root     40 :    16.866166092114670   Change is   -0.103232429812273
 Root     41 :    16.866166092129830   Change is   -0.103232429820158
 Root     42 :    16.909707216504610   Change is   -0.084140675653197
 Root     43 :    16.911544221994130   Change is   -0.085382629451132
 Root     44 :    16.924491796886620   Change is   -0.113948803992535
 Root     45 :    16.929572955842090   Change is   -0.115223609738111
 Root     46 :    17.071341207919160   Change is   -0.109304663853979
 Root     47 :    17.509851039678890   Change is   -0.585969515977445
 Root     48 :    18.031880495298220
 Iteration     3 Dimension   102 NMult    96 NNew      6
 Estimated number of processors is:   20
 CISAX will form     1 AO SS matrices at one time.
 NMat=     1 NSing=     1 JSym2X= 2.
 CoulSu:  requested number of processors reduced to:  20 ShMem   1 Linda.
 NMat=     1 NSing=     1 JSym2X= 2.
 CoulSu:  requested number of processors reduced to:  20 ShMem   1 Linda.
 NMat=     1 NSing=     1 JSym2X= 2.
 CoulSu:  requested number of processors reduced to:  20 ShMem   1 Linda.
 NMat=     1 NSing=     0 JSym2X= 2.
 CoulSu:  requested number of processors reduced to:  20 ShMem   1 Linda.
 NMat=     1 NSing=     0 JSym2X= 2.
 CoulSu:  requested number of processors reduced to:  20 ShMem   1 Linda.
 NMat=     1 NSing=     0 JSym2X= 2.
 CoulSu:  requested number of processors reduced to:  20 ShMem   1 Linda.
 Root      1 not converged, maximum delta is    0.199042494487041
 Excitation Energies [eV] at current iteration:
 Root      1 :     2.708306183234376   Change is   -0.003384460285480
 Root      2 :     2.708306183234678   Change is   -0.003384460285482
 Root      3 :     4.179045877556448   Change is   -0.015087233741745
 Root      4 :     5.260230566028907   Change is   -0.013886089694478
 Root      5 :     5.260230566029198   Change is   -0.013886089694815
 Root      6 :     9.066697459947827   Change is   -0.003394101756766
 Iteration     4 Dimension   108 NMult   102 NNew      6
 Estimated number of processors is:   20
 CISAX will form     1 AO SS matrices at one time.
 NMat=     1 NSing=     1 JSym2X= 2.
 CoulSu:  requested number of processors reduced to:  20 ShMem   1 Linda.
 NMat=     1 NSing=     1 JSym2X= 2.
 CoulSu:  requested number of processors reduced to:  20 ShMem   1 Linda.
 NMat=     1 NSing=     1 JSym2X= 2.
 CoulSu:  requested number of processors reduced to:  20 ShMem   1 Linda.
 NMat=     1 NSing=     0 JSym2X= 2.
 CoulSu:  requested number of processors reduced to:  20 ShMem   1 Linda.
 NMat=     1 NSing=     0 JSym2X= 2.
 CoulSu:  requested number of processors reduced to:  20 ShMem   1 Linda.
 NMat=     1 NSing=     0 JSym2X= 2.
 CoulSu:  requested number of processors reduced to:  20 ShMem   1 Linda.
 DSYEVD-2 returned Info=         217 IAlg= 4 N=   108 NDim=   108 NE2=      896684 trying  DSYEV.
 Root      1 not converged, maximum delta is    0.160527898881656
 Excitation Energies [eV] at current iteration:
 Root      1 :     2.708271618895718   Change is   -0.000034564338658
 Root      2 :     2.708271618896108   Change is   -0.000034564338570
 Root      3 :     4.178872809147548   Change is   -0.000173068408900
 Root      4 :     5.259977803850027   Change is   -0.000252762178881
 Root      5 :     5.259977803850322   Change is   -0.000252762178876
 Root      6 :     9.066383332573640   Change is   -0.000314127374188
 Iteration     5 Dimension   114 NMult   108 NNew      6
 Estimated number of processors is:   20
 CISAX will form     1 AO SS matrices at one time.
 NMat=     1 NSing=     1 JSym2X= 2.
 CoulSu:  requested number of processors reduced to:  20 ShMem   1 Linda.
 NMat=     1 NSing=     1 JSym2X= 2.
 CoulSu:  requested number of processors reduced to:  20 ShMem   1 Linda.
 NMat=     1 NSing=     1 JSym2X= 2.
 CoulSu:  requested number of processors reduced to:  20 ShMem   1 Linda.
 NMat=     1 NSing=     0 JSym2X= 2.
 CoulSu:  requested number of processors reduced to:  20 ShMem   1 Linda.
 NMat=     1 NSing=     0 JSym2X= 2.
 CoulSu:  requested number of processors reduced to:  20 ShMem   1 Linda.
 NMat=     1 NSing=     0 JSym2X= 2.
 CoulSu:  requested number of processors reduced to:  20 ShMem   1 Linda.
 Root      1 not converged, maximum delta is    0.330571384806302
 Excitation Energies [eV] at current iteration:
 Root      1 :     2.708271487659387   Change is   -0.000000131236332
 Root      2 :     2.708271487659507   Change is   -0.000000131236601
 Root      3 :     4.178870859550823   Change is   -0.000001949596725
 Root      4 :     5.259975731663495   Change is   -0.000002072186532
 Root      5 :     5.259975731663803   Change is   -0.000002072186518
 Root      6 :     9.066379879871587   Change is   -0.000003452702053
 Iteration     6 Dimension   120 NMult   114 NNew      6
 Estimated number of processors is:   20
 CISAX will form     1 AO SS matrices at one time.
 NMat=     1 NSing=     1 JSym2X= 2.
 CoulSu:  requested number of processors reduced to:  20 ShMem   1 Linda.
 NMat=     1 NSing=     1 JSym2X= 2.
 CoulSu:  requested number of processors reduced to:  20 ShMem   1 Linda.
 NMat=     1 NSing=     1 JSym2X= 2.
 CoulSu:  requested number of processors reduced to:  20 ShMem   1 Linda.
 NMat=     1 NSing=     0 JSym2X= 2.
 CoulSu:  requested number of processors reduced to:  20 ShMem   1 Linda.
 NMat=     1 NSing=     0 JSym2X= 2.
 CoulSu:  requested number of processors reduced to:  20 ShMem   1 Linda.
 NMat=     1 NSing=     0 JSym2X= 2.
 CoulSu:  requested number of processors reduced to:  20 ShMem   1 Linda.
 New state      1 was old state      2
 Root      1 not converged, maximum delta is    0.448127442255498
 Excitation Energies [eV] at current iteration:
 Root      1 :     2.708271482998781   Change is   -0.000000004660726
 Root      2 :     2.708271482999149   Change is   -0.000000004660237
 Root      3 :     4.178870819228805   Change is   -0.000000040322018
 Root      4 :     5.259975723086633   Change is   -0.000000008576862
 Root      5 :     5.259975723086749   Change is   -0.000000008577055
 Root      6 :     9.066379861715683   Change is   -0.000000018155903
 Iteration     7 Dimension   122 NMult   120 NNew      2
 Estimated number of processors is:   21
 CISAX will form     1 AO SS matrices at one time.
 NMat=     1 NSing=     1 JSym2X= 2.
 CoulSu:  requested number of processors reduced to:  20 ShMem   1 Linda.
 NMat=     1 NSing=     1 JSym2X= 2.
 CoulSu:  requested number of processors reduced to:  20 ShMem   1 Linda.
 Root      1 not converged, maximum delta is    0.220891602504703
 Excitation Energies [eV] at current iteration:
 Root      1 :     2.708271482998775   Change is   -0.000000000000006
 Root      2 :     2.708271482999137   Change is   -0.000000000000012
 Root      3 :     4.178870819228744   Change is   -0.000000000000060
 Root      4 :     5.259975713354568   Change is   -0.000000009732180
 Root      5 :     5.259975713354611   Change is   -0.000000009732023
 Root      6 :     9.066379861715708   Change is    0.000000000000024
 Iteration     8 Dimension   126 NMult   122 NNew      4
 Estimated number of processors is:   20
 CISAX will form     1 AO SS matrices at one time.
 NMat=     1 NSing=     1 JSym2X= 2.
 CoulSu:  requested number of processors reduced to:  20 ShMem   1 Linda.
 NMat=     1 NSing=     1 JSym2X= 2.
 CoulSu:  requested number of processors reduced to:  20 ShMem   1 Linda.
 NMat=     1 NSing=     0 JSym2X= 2.
 CoulSu:  requested number of processors reduced to:  20 ShMem   1 Linda.
 NMat=     1 NSing=     0 JSym2X= 2.
 CoulSu:  requested number of processors reduced to:  20 ShMem   1 Linda.
 DSYEVD-2 returned Info=         253 IAlg= 4 N=   126 NDim=   126 NE2=      768586 trying  DSYEV.
 Root      1 not converged, maximum delta is    0.037418682285654
 Excitation Energies [eV] at current iteration:
 Root      1 :     2.708271480540076   Change is   -0.000000002458699
 Root      2 :     2.708271480540357   Change is   -0.000000002458780
 Root      3 :     4.178870819228807   Change is    0.000000000000063
 Root      4 :     5.259975711365382   Change is   -0.000000001989228
 Root      5 :     5.259975711365679   Change is   -0.000000001988889
 Root      6 :     9.066379861715708   Change is    0.000000000000000
 Convergence achieved on expansion vectors.
 ***********************************************************************
 Stability analysis using <AA,BB:AA,BB> singles matrix:
 ***********************************************************************
 1PDM for each excited state written to RWF  633
 Ground to excited state transition densities written to RWF  633

 Eigenvectors of the stability matrix:
 
 Excited state symmetry could not be determined.
 Eigenvector   1:      Triplet-?Sym  Eigenvalue= 0.0995271  <S**2>=2.000
       8 -> 10         0.58762
       9 -> 10        -0.36529
 
 Excited state symmetry could not be determined.
 Eigenvector   2:      Triplet-?Sym  Eigenvalue= 0.0995271  <S**2>=2.000
       8 -> 10         0.36529
       9 -> 10         0.58762
 
 Eigenvector   3:      Triplet-SGU  Eigenvalue= 0.1535707  <S**2>=2.000
       5 -> 10         0.68426
       5 -> 11         0.13506
 
 Excited state symmetry could not be determined.
 Eigenvector   4:      Singlet-?Sym  Eigenvalue= 0.1933006  <S**2>=0.000
       8 -> 10        -0.47859
       9 -> 10         0.50597
 
 Excited state symmetry could not be determined.
 Eigenvector   5:      Singlet-?Sym  Eigenvalue= 0.1933006  <S**2>=0.000
       8 -> 10         0.50597
       9 -> 10         0.47859
 
 Excited state symmetry could not be determined.
 Eigenvector   6:      Singlet-?Sym  Eigenvalue= 0.3331833  <S**2>=0.000
       7 -> 10         0.69483
 The wavefunction is stable under the perturbations considered.
 Leave Link  914 at Sat Apr 17 09:23:11 2021, MaxMem=   104857600 cpu:            7905.6 elap:             206.3
 (Enter /s/ls4/users/knvvv/bin/g16sse/l508.exe)
 The wavefunction is already stable.
 Leave Link  508 at Sat Apr 17 09:23:11 2021, MaxMem=   104857600 cpu:               2.2 elap:               0.1
 (Enter /s/ls4/users/knvvv/bin/g16sse/l601.exe)
 Copying SCF densities to generalized density rwf, IOpCl= 0 IROHF=0.

 **********************************************************************

            Population analysis using the SCF density.

 **********************************************************************

 Orbital symmetries:
       Occupied  (SGG) (SGU) (SGG) (SGU) (SGG) (PIU) (PIU) (PIG)
                 (PIG)
       Virtual   (SGU) (SGU) (PIU) (PIU) (SGG) (PIG) (PIG) (SGG)
                 (SGU) (DLTG) (DLTG) (SGG) (PIU) (PIU) (PIG) (PIG)
                 (SGU) (PIU) (PIU) (DLTU) (DLTU) (SGU) (PIG) (PIG)
                 (SGG) (SGG) (PIU) (PIU) (SGU) (DLTG) (DLTG) (SGG)
                 (PIU) (PIU) (DLTU) (DLTU) (PIG) (PIG) (SGU) (SGG)
                 (PIG) (PIG) (SGU) (SGG) (DLTG) (DLTG) (PIU) (PIU)
                 (PHIU) (PHIU) (SGG) (PHIG) (PHIG) (SGU) (DLTU)
                 (DLTU) (PIG) (PIG) (DLTG) (DLTG) (DLTU) (DLTU)
                 (PIU) (PIU) (SGU) (SGG) (PIG) (PIG) (SGU) (PIU)
                 (PIU) (PIG) (PIG) (SGG) (SGU) (PIU) (PIU) (SGG)
                 (DLTG) (DLTG) (PHIU) (PHIU) (?A) (?A) (?B) (?B)
                 (PHIG) (PHIG) (DLTU) (DLTU) (PIG) (PIG) (SGU)
                 (DLTG) (DLTG) (PHIU) (PHIU) (PHIG) (PHIG) (PIU)
                 (PIU) (DLTU) (DLTU) (SGG) (SGG) (SGU) (PIG) (PIG)
                 (DLTG) (DLTG) (DLTU) (DLTU) (PIU) (PIU) (PIG)
                 (PIG) (SGU) (SGG) (SGU) (SGG) (SGU) (SGG) (SGU)
 The electronic state is 1-SGG.
 Alpha  occ. eigenvalues --  -25.36232 -25.36218  -1.50736  -1.25799  -0.68016
 Alpha  occ. eigenvalues --   -0.65716  -0.65716  -0.52246  -0.52246
 Alpha virt. eigenvalues --   -0.08289   0.05498   0.06533   0.06533   0.08308
 Alpha virt. eigenvalues --    0.11048   0.11048   0.12444   0.25460   0.38427
 Alpha virt. eigenvalues --    0.38428   0.45908   0.46596   0.46596   0.50838
 Alpha virt. eigenvalues --    0.50838   0.51591   0.52226   0.52226   0.54497
 Alpha virt. eigenvalues --    0.54498   0.69693   0.77207   0.77207   0.84335
 Alpha virt. eigenvalues --    0.87778   1.46206   1.46206   1.53193   1.56395
 Alpha virt. eigenvalues --    1.56403   1.70725   1.77421   1.77421   1.77578
 Alpha virt. eigenvalues --    1.77586   1.80545   1.80545   1.89065   2.09723
 Alpha virt. eigenvalues --    2.26083   2.26083   2.80563   3.67933   3.79788
 Alpha virt. eigenvalues --    3.79790   3.89067   3.89067   4.06948   4.06948
 Alpha virt. eigenvalues --    4.14413   4.22061   4.22061   4.41483   4.58534
 Alpha virt. eigenvalues --    4.58536   5.08253   5.08253   5.14878   5.14879
 Alpha virt. eigenvalues --    5.27755   5.27758   5.29411   5.29411   5.33729
 Alpha virt. eigenvalues --    5.66744   5.83640   5.83640   6.06151   6.24823
 Alpha virt. eigenvalues --    6.24823   6.38885   6.38885   6.98028   7.25771
 Alpha virt. eigenvalues --   10.77113  10.77113  10.99550  11.00642  11.00646
 Alpha virt. eigenvalues --   11.21403  11.21403  11.28792  11.28797  11.29588
 Alpha virt. eigenvalues --   11.29592  11.32353  11.32353  11.56090  11.56095
 Alpha virt. eigenvalues --   12.13637  12.13637  12.27244  14.23973  14.23975
 Alpha virt. eigenvalues --   14.33252  14.33252  14.41004  14.41004  14.42831
 Alpha virt. eigenvalues --   14.42831  14.65334  14.65335  14.67721  14.92213
 Alpha virt. eigenvalues --   15.05860  15.43982  15.43982  15.72796  15.72797
 Alpha virt. eigenvalues --   15.80495  15.80496  15.81654  15.81654  15.90999
 Alpha virt. eigenvalues --   15.90999  15.97680  16.54047  17.01814  53.87398
 Alpha virt. eigenvalues --   54.81319 282.62214 283.81706
          Condensed to atoms (all electrons):
               1          2
     1  F    9.009375  -0.009375
     2  F   -0.009375   9.009375
 Mulliken charges:
               1
     1  F   -0.000000
     2  F    0.000000
 Sum of Mulliken charges =  -0.00000
 Mulliken charges with hydrogens summed into heavy atoms:
               1
     1  F   -0.000000
     2  F    0.000000
 Electronic spatial extent (au):  <R**2>=             53.0097
 Charge=             -0.0000 electrons
 Dipole moment (field-independent basis, Debye):
    X=              0.0000    Y=              0.0000    Z=              0.0000  Tot=              0.0000
 Quadrupole moment (field-independent basis, Debye-Ang):
   XX=             -9.6398   YY=             -9.6398   ZZ=             -8.8716
   XY=              0.0000   XZ=              0.0000   YZ=              0.0000
 Traceless Quadrupole moment (field-independent basis, Debye-Ang):
   XX=             -0.2561   YY=             -0.2561   ZZ=              0.5122
   XY=              0.0000   XZ=              0.0000   YZ=              0.0000
 Octapole moment (field-independent basis, Debye-Ang**2):
  XXX=             -0.0000  YYY=              0.0000  ZZZ=             -0.0000  XYY=             -0.0000
  XXY=              0.0000  XXZ=             -0.0000  XZZ=             -0.0000  YZZ=              0.0000
  YYZ=             -0.0000  XYZ=              0.0000
 Hexadecapole moment (field-independent basis, Debye-Ang**3):
 XXXX=             -5.9473 YYYY=             -5.9473 ZZZZ=            -30.2180 XXXY=              0.0000
 XXXZ=              0.0000 YYYX=              0.0000 YYYZ=              0.0000 ZZZX=              0.0000
 ZZZY=              0.0000 XXYY=             -1.9824 XXZZ=             -6.8053 YYZZ=             -6.8053
 XXYZ=              0.0000 YYXZ=              0.0000 ZZXY=             -0.0000
 N-N= 3.033714635467D+01 E-N=-5.374179338555D+02  KE= 1.989218412682D+02
 PrsmSu:  requested number of processors reduced to:  21 ShMem   1 Linda.
 No NMR shielding tensors so no spin-rotation constants.
 Leave Link  601 at Sat Apr 17 09:23:14 2021, MaxMem=   104857600 cpu:             139.7 elap:               3.1
 (Enter /s/ls4/users/knvvv/bin/g16sse/l9999.exe)

 Test job not archived.
 1\1\GINC-N184\Stability\RM062X\Gen\F2\KNVVV\17-Apr-2021\0\\#P M062X/GE
 N Integral=UltraFineGrid SCF=NoSymm Stable=(RExt, Opt) IOp(1/33=1)\\Da
 tabase calculations.\\0,1\F,0,0.,0.,0.\F,0,0.,0.,1.4129\\Version=ES64L
 -G16RevA.03\State=1-SGG\HF=-199.533885\RMSD=6.908e-10\Dipole=0.,0.,0.\
 Quadrupole=-0.1903873,-0.1903873,0.3807747,0.,0.,0.\PG=D*H [C*(F1.F1)]
 \\@


 WHEN YOU REACH FOR THE STARS, YOU MAY NOT QUITE GET ONE,
 BUT YOU WON'T COME UP WITH A HANDFUL OF MUD, EITHER.

                                         -- LEO BURNETT (AD AGENCY HEAD)
 Job cpu time:       0 days  2 hours 30 minutes  4.0 seconds.
 Elapsed time:       0 days  0 hours  3 minutes 50.8 seconds.
 File lengths (MBytes):  RWF=     99 Int=      0 D2E=      0 Chk=      6 Scr=      1
 Normal termination of Gaussian 16 at Sat Apr 17 09:23:15 2021.
