 Entering Gaussian System, Link 0=/s/ls4/users/knvvv/bin/g16sse/g16
 Input=data/database/M062X--def2-QZVP--FH51_H2.gjf
 Output=data/database/M062X--def2-QZVP--FH51_H2.log
 Initial command:
 /s/ls4/users/knvvv/bin/g16sse/l1.exe "/s/ls4/users/knvvv/bin/scratch/Gau-7390.inp" -scrdir="/s/ls4/users/knvvv/bin/scratch/"
 Entering Link 1 = /s/ls4/users/knvvv/bin/g16sse/l1.exe PID=      7391.
  
 Copyright (c) 1988,1990,1992,1993,1995,1998,2003,2009,2016,
            Gaussian, Inc.  All Rights Reserved.
  
 This is part of the Gaussian(R) 16 program.  It is based on
 the Gaussian(R) 09 system (copyright 2009, Gaussian, Inc.),
 the Gaussian(R) 03 system (copyright 2003, Gaussian, Inc.),
 the Gaussian(R) 98 system (copyright 1998, Gaussian, Inc.),
 the Gaussian(R) 94 system (copyright 1995, Gaussian, Inc.),
 the Gaussian 92(TM) system (copyright 1992, Gaussian, Inc.),
 the Gaussian 90(TM) system (copyright 1990, Gaussian, Inc.),
 the Gaussian 88(TM) system (copyright 1988, Gaussian, Inc.),
 the Gaussian 86(TM) system (copyright 1986, Carnegie Mellon
 University), and the Gaussian 82(TM) system (copyright 1983,
 Carnegie Mellon University). Gaussian is a federally registered
 trademark of Gaussian, Inc.
  
 This software contains proprietary and confidential information,
 including trade secrets, belonging to Gaussian, Inc.
  
 This software is provided under written license and may be
 used, copied, transmitted, or stored only in accord with that
 written license.
  
 The following legend is applicable only to US Government
 contracts under FAR:
  
                    RESTRICTED RIGHTS LEGEND
  
 Use, reproduction and disclosure by the US Government is
 subject to restrictions as set forth in subparagraphs (a)
 and (c) of the Commercial Computer Software - Restricted
 Rights clause in FAR 52.227-19.
  
 Gaussian, Inc.
 340 Quinnipiac St., Bldg. 40, Wallingford CT 06492
  
  
 ---------------------------------------------------------------
 Warning -- This program may not be used in any manner that
 competes with the business of Gaussian, Inc. or will provide
 assistance to any competitor of Gaussian, Inc.  The licensee
 of this program is prohibited from giving any competitor of
 Gaussian, Inc. access to this program.  By using this program,
 the user acknowledges that Gaussian, Inc. is engaged in the
 business of creating and licensing software in the field of
 computational chemistry and represents and warrants to the
 licensee that it is not a competitor of Gaussian, Inc. and that
 it will not use this program in any manner prohibited above.
 ---------------------------------------------------------------
  

 Cite this work as:
 Gaussian 16, Revision A.03,
 M. J. Frisch, G. W. Trucks, H. B. Schlegel, G. E. Scuseria, 
 M. A. Robb, J. R. Cheeseman, G. Scalmani, V. Barone, 
 G. A. Petersson, H. Nakatsuji, X. Li, M. Caricato, A. V. Marenich, 
 J. Bloino, B. G. Janesko, R. Gomperts, B. Mennucci, H. P. Hratchian, 
 J. V. Ortiz, A. F. Izmaylov, J. L. Sonnenberg, D. Williams-Young, 
 F. Ding, F. Lipparini, F. Egidi, J. Goings, B. Peng, A. Petrone, 
 T. Henderson, D. Ranasinghe, V. G. Zakrzewski, J. Gao, N. Rega, 
 G. Zheng, W. Liang, M. Hada, M. Ehara, K. Toyota, R. Fukuda, 
 J. Hasegawa, M. Ishida, T. Nakajima, Y. Honda, O. Kitao, H. Nakai, 
 T. Vreven, K. Throssell, J. A. Montgomery, Jr., J. E. Peralta, 
 F. Ogliaro, M. J. Bearpark, J. J. Heyd, E. N. Brothers, K. N. Kudin, 
 V. N. Staroverov, T. A. Keith, R. Kobayashi, J. Normand, 
 K. Raghavachari, A. P. Rendell, J. C. Burant, S. S. Iyengar, 
 J. Tomasi, M. Cossi, J. M. Millam, M. Klene, C. Adamo, R. Cammi, 
 J. W. Ochterski, R. L. Martin, K. Morokuma, O. Farkas, 
 J. B. Foresman, and D. J. Fox, Gaussian, Inc., Wallingford CT, 2016.
 
 ******************************************
 Gaussian 16:  ES64L-G16RevA.03 25-Dec-2016
                17-Apr-2021 
 ******************************************
 %RWF=temp0_58233,70GB
 %nprocshared=48
 Will use up to   48 processors via shared memory.
 Default route: MaxDisk=80GB
 ----------------------------------------------------------------------
 #P M062X/Def2QZVP Integral=UltraFineGrid SCF=NoSymm Stable=(RExt, Opt)
  IOp(1/33=1)
 ----------------------------------------------------------------------
 1/33=1,38=1,172=1/1;
 2/12=2,17=6,18=5,40=1/2;
 3/5=45,7=101,11=2,25=1,30=1,74=-55,75=-5/1,2,3;
 4/9=2/1;
 5/5=2,38=5/2;
 6/7=2,8=2,9=2,10=2,28=1/1;
 8/6=1,10=90,11=11/1;
 9/8=-3,42=1,46=1/14;
 5/5=2,8=3,17=40,38=5/8(-2);
 6/7=2,8=2,9=2,10=2,28=1/1;
 99/5=1,9=1/99;
 Leave Link    1 at Sat Apr 17 00:04:11 2021, MaxMem=           0 cpu:               8.3 elap:               0.2
 (Enter /s/ls4/users/knvvv/bin/g16sse/l101.exe)
 ONIOM data not found on unit 2.
 ----------------------
 Database calculations.
 ----------------------
 TstMul:  ICh=     0
 TstMul:  Mul=     1
 TstMul:  ICh=     0
 TstMul:  Mul=     1
 Symbolic Z-matrix:
 Charge =  0 Multiplicity = 1
 H                     0.07173  -0.99089   0. 
 H                    -0.67902  -0.99089   0. 
 
 RdStrC is calling ZToCFu for IStruc=1 NZ=     2.
 PrtBox:  NBox=     1 Levels=  0 BoxLen=    8.00 SMaxX=        1.42
          Shift=            1.283158            1.872508            0.000000
 Box      1 Number                   0 centers from      1 to      2:
 After GenITR:
 ITRead=  0  0
 MicOpt= -1 -1
 ITRead=  0  0
 MicOpt= -1 -1
 NAtoms=      2 NQM=        2 NQMF=       0 NMMI=      0 NMMIF=      0
                NMic=       0 NMicF=      0.
                    Isotopes and Nuclear Properties:
 (Nuclear quadrupole moments (NQMom) in fm**2, nuclear magnetic moments (NMagM)
  in nuclear magnetons)

  Atom         1           2
 IAtWgt=           1           1
 AtmWgt=   1.0078250   1.0078250
 NucSpn=           1           1
 AtZEff=  -0.0000000  -0.0000000
 NQMom=    0.0000000   0.0000000
 NMagM=    2.7928460   2.7928460
 AtZNuc=   1.0000000   1.0000000
 No MM parameters found.
 Leave Link  101 at Sat Apr 17 00:04:11 2021, MaxMem=   104857600 cpu:               6.9 elap:               0.2
 (Enter /s/ls4/users/knvvv/bin/g16sse/l202.exe)
                          Input orientation:                          
 ---------------------------------------------------------------------
 Center     Atomic      Atomic             Coordinates (Angstroms)
 Number     Number       Type             X           Y           Z
 ---------------------------------------------------------------------
      1          1           0        0.071729   -0.990888    0.000000
      2          1           0       -0.679018   -0.990888    0.000000
 ---------------------------------------------------------------------
 Stoichiometry    H2
 Framework group  D*H[C*(H.H)]
 Deg. of freedom     1
 Full point group                 D*H     NOp   8
 Largest Abelian subgroup         D2H     NOp   8
 Largest concise Abelian subgroup C2      NOp   2
                         Standard orientation:                         
 ---------------------------------------------------------------------
 Center     Atomic      Atomic             Coordinates (Angstroms)
 Number     Number       Type             X           Y           Z
 ---------------------------------------------------------------------
      1          1           0        0.000000    0.000000    0.375373
      2          1           0        0.000000    0.000000   -0.375373
 ---------------------------------------------------------------------
 Rotational constants (GHZ):           0.0000000        1779.4077021        1779.4077021
 Leave Link  202 at Sat Apr 17 00:04:12 2021, MaxMem=   104857600 cpu:              10.6 elap:               0.2
 (Enter /s/ls4/users/knvvv/bin/g16sse/l301.exe)
 Standard basis: def2QZVP (5D, 7F)
 Ernie: Thresh=  0.10000D-02 Tol=  0.10000D-05 Strict=F.
 There are    16 symmetry adapted cartesian basis functions of AG  symmetry.
 There are     3 symmetry adapted cartesian basis functions of B1G symmetry.
 There are     8 symmetry adapted cartesian basis functions of B2G symmetry.
 There are     8 symmetry adapted cartesian basis functions of B3G symmetry.
 There are     3 symmetry adapted cartesian basis functions of AU  symmetry.
 There are    16 symmetry adapted cartesian basis functions of B1U symmetry.
 There are     8 symmetry adapted cartesian basis functions of B2U symmetry.
 There are     8 symmetry adapted cartesian basis functions of B3U symmetry.
 There are    13 symmetry adapted basis functions of AG  symmetry.
 There are     3 symmetry adapted basis functions of B1G symmetry.
 There are     7 symmetry adapted basis functions of B2G symmetry.
 There are     7 symmetry adapted basis functions of B3G symmetry.
 There are     3 symmetry adapted basis functions of AU  symmetry.
 There are    13 symmetry adapted basis functions of B1U symmetry.
 There are     7 symmetry adapted basis functions of B2U symmetry.
 There are     7 symmetry adapted basis functions of B3U symmetry.
    60 basis functions,    76 primitive gaussians,    70 cartesian basis functions
     1 alpha electrons        1 beta electrons
       nuclear repulsion energy         0.7048680735 Hartrees.
 IExCor= 4336 DFT=T Ex+Corr=M062X ExCW=0 ScaHFX=  0.540000
 ScaDFX=  1.000000  1.000000  1.000000  1.000000 ScalE2=  1.000000  1.000000
 IRadAn=      5 IRanWt=     -1 IRanGd=            0 ICorTp=0 IEmpDi=  4
 NAtoms=    2 NActive=    2 NUniq=    1 SFac= 4.00D+00 NAtFMM=   60 NAOKFM=F Big=F
 Integral buffers will be    131072 words long.
 Raffenetti 2 integral format.
 Two-electron integral symmetry is turned on.
 Leave Link  301 at Sat Apr 17 00:04:12 2021, MaxMem=   104857600 cpu:               5.5 elap:               0.1
 (Enter /s/ls4/users/knvvv/bin/g16sse/l302.exe)
 NPDir=0 NMtPBC=     1 NCelOv=     1 NCel=       1 NClECP=     1 NCelD=      1
         NCelK=      1 NCelE2=     1 NClLst=     1 CellRange=     0.0.
 One-electron integrals computed using PRISM.
 One-electron integral symmetry used in STVInt
 PrsmSu:  requested number of processors reduced to:  13 ShMem   1 Linda.
   8 Symmetry operations used in ECPInt.
 ECPInt:  NShTT=     210 NPrTT=     363 LenC2=     211 LenP2D=     362.
 LDataN:  DoStor=T MaxTD1= 6 Len=  172
 NBasis=    60 RedAO= T EigKep=  1.75D-04  NBF=    13     3     7     7     3    13     7     7
 NBsUse=    60 1.00D-06 EigRej= -1.00D+00 NBFU=    13     3     7     7     3    13     7     7
 Precomputing XC quadrature grid using
 IXCGrd= 4 IRadAn=           5 IRanWt=          -1 IRanGd=           0 AccXCQ= 0.00D+00.
 Generated NRdTot=       0 NPtTot=           0 NUsed=           0 NTot=          32
 NSgBfM=    70    70    70    70    70 MxSgAt=     2 MxSgA2=     2.
 Leave Link  302 at Sat Apr 17 00:04:15 2021, MaxMem=   104857600 cpu:             129.8 elap:               2.8
 (Enter /s/ls4/users/knvvv/bin/g16sse/l303.exe)
 DipDrv:  MaxL=1.
 Leave Link  303 at Sat Apr 17 00:04:15 2021, MaxMem=   104857600 cpu:              10.1 elap:               0.2
 (Enter /s/ls4/users/knvvv/bin/g16sse/l401.exe)
 SCF N**3 symmetry information disabled.
 ExpMin= 8.03D-02 ExpMax= 1.91D+02 ExpMxC= 2.86D+01 IAcc=3 IRadAn=         5 AccDes= 0.00D+00
 Harris functional with IExCor= 1009 and IRadAn=       5 diagonalized for initial guess.
 HarFok:  IExCor= 1009 AccDes= 0.00D+00 IRadAn=         5 IDoV= 1 UseB2=F ITyADJ=14
 ICtDFT=  3500011 ScaDFX=  1.000000  1.000000  1.000000  1.000000
 FoFCou: FMM=F IPFlag=           0 FMFlag=      100000 FMFlg1=           0
         NFxFlg=           0 DoJE=T BraDBF=F KetDBF=T FulRan=T
         wScrn=  0.000000 ICntrl=       500 IOpCl=  0 I1Cent=   200000004 NGrid=           0
         NMat0=    1 NMatS0=      1 NMatT0=    0 NMatD0=    1 NMtDS0=    0 NMtDT0=    0
 Petite list used in FoFCou.
 Harris En= -1.18172474441684    
 JPrj=0 DoOrth=F DoCkMO=F.
 Initial guess orbital symmetries:
       Occupied  (SGG)
       Virtual   (SGU) (SGG) (SGU) (PIU) (PIU) (SGG) (PIG) (PIG)
                 (SGG) (SGU) (SGU) (DLTG) (DLTG) (PIU) (PIU) (SGG)
                 (PIG) (PIG) (PIU) (PIU) (DLTU) (DLTU) (SGU) (SGG)
                 (PIG) (PIG) (SGU) (SGG) (PHIU) (PHIU) (DLTG) (DLTG)
                 (SGU) (PHIG) (PHIG) (PIU) (PIU) (SGG) (PIG) (PIG)
                 (DLTU) (DLTU) (DLTG) (DLTG) (PIU) (PIU) (PIG)
                 (PIG) (SGU) (SGG) (PIU) (PIU) (DLTU) (DLTU) (SGU)
                 (PIG) (PIG) (SGG) (SGU)
 The electronic state of the initial guess is 1-SGG.
 Leave Link  401 at Sat Apr 17 00:04:17 2021, MaxMem=   104857600 cpu:              77.9 elap:               1.7
 (Enter /s/ls4/users/knvvv/bin/g16sse/l502.exe)
 Keep R1 ints in memory in symmetry-blocked form, NReq=44538721.
 FoFCou: FMM=F IPFlag=           0 FMFlag=           0 FMFlg1=           0
         NFxFlg=           0 DoJE=F BraDBF=F KetDBF=F FulRan=T
         wScrn=  0.000000 ICntrl=       600 IOpCl=  0 I1Cent=           0 NGrid=           0
         NMat0=    1 NMatS0=   1830 NMatT0=    0 NMatD0=    1 NMtDS0=    0 NMtDT0=    0
 Petite list used in FoFCou.
 Closed shell SCF:
 Using DIIS extrapolation, IDIIS=  1040.
 NGot=   104857600 LenX=   104618559 LenY=   104613218
 Requested convergence on RMS density matrix=1.00D-08 within 128 cycles.
 Requested convergence on MAX density matrix=1.00D-06.
 Requested convergence on             energy=1.00D-06.
 No special actions if energy rises.
 Integral accuracy reduced to 1.0D-05 until final iterations.

 Cycle   1  Pass 0  IDiag  1:
 E= -1.16508072582542    
 DIIS: error= 1.63D-02 at cycle   1 NSaved=   1.
 NSaved= 1 IEnMin= 1 EnMin= -1.16508072582542     IErMin= 1 ErrMin= 1.63D-02
 ErrMax= 1.63D-02  0.00D+00 EMaxC= 1.00D-01 BMatC= 2.89D-03 BMatP= 2.89D-03
 IDIUse=3 WtCom= 8.37D-01 WtEn= 1.63D-01
 Coeff-Com:  0.100D+01
 Coeff-En:   0.100D+01
 Coeff:      0.100D+01
 Gap=     0.582 Goal=   None    Shift=    0.000
 GapD=    0.582 DampG=2.000 DampE=0.500 DampFc=1.0000 IDamp=-1.
 RMSDP=4.91D-04 MaxDP=8.11D-03              OVMax= 4.80D-02

 Cycle   2  Pass 0  IDiag  1:
 E= -1.16917510913069     Delta-E=       -0.004094383305 Rises=F Damp=F
 DIIS: error= 2.45D-03 at cycle   2 NSaved=   2.
 NSaved= 2 IEnMin= 2 EnMin= -1.16917510913069     IErMin= 2 ErrMin= 2.45D-03
 ErrMax= 2.45D-03  0.00D+00 EMaxC= 1.00D-01 BMatC= 5.37D-05 BMatP= 2.89D-03
 IDIUse=3 WtCom= 9.76D-01 WtEn= 2.45D-02
 Coeff-Com:  0.745D-01 0.925D+00
 Coeff-En:   0.000D+00 0.100D+01
 Coeff:      0.727D-01 0.927D+00
 Gap=     0.569 Goal=   None    Shift=    0.000
 RMSDP=4.75D-05 MaxDP=9.97D-04 DE=-4.09D-03 OVMax= 2.16D-03

 Cycle   3  Pass 0  IDiag  1:
 E= -1.16919938727081     Delta-E=       -0.000024278140 Rises=F Damp=F
 DIIS: error= 3.60D-04 at cycle   3 NSaved=   3.
 NSaved= 3 IEnMin= 3 EnMin= -1.16919938727081     IErMin= 3 ErrMin= 3.60D-04
 ErrMax= 3.60D-04  0.00D+00 EMaxC= 1.00D-01 BMatC= 1.01D-06 BMatP= 5.37D-05
 IDIUse=3 WtCom= 9.96D-01 WtEn= 3.60D-03
 Coeff-Com: -0.116D-01-0.133D+00 0.114D+01
 Coeff-En:   0.000D+00 0.000D+00 0.100D+01
 Coeff:     -0.115D-01-0.133D+00 0.114D+01
 Gap=     0.569 Goal=   None    Shift=    0.000
 RMSDP=5.89D-06 MaxDP=1.01D-04 DE=-2.43D-05 OVMax= 3.01D-04

 Initial convergence to 1.0D-05 achieved.  Increase integral accuracy.
 Cycle   4  Pass 1  IDiag  1:
 E= -1.16939221739992     Delta-E=       -0.000192830129 Rises=F Damp=F
 DIIS: error= 1.16D-03 at cycle   1 NSaved=   1.
 NSaved= 1 IEnMin= 1 EnMin= -1.16939221739992     IErMin= 1 ErrMin= 1.16D-03
 ErrMax= 1.16D-03  0.00D+00 EMaxC= 1.00D-01 BMatC= 1.70D-05 BMatP= 1.70D-05
 IDIUse=3 WtCom= 9.88D-01 WtEn= 1.16D-02
 Coeff-Com:  0.100D+01
 Coeff-En:   0.100D+01
 Coeff:      0.100D+01
 Gap=     0.569 Goal=   None    Shift=    0.000
 RMSDP=5.89D-06 MaxDP=1.01D-04 DE=-1.93D-04 OVMax= 5.56D-04

 Cycle   5  Pass 1  IDiag  1:
 E= -1.16939734450041     Delta-E=       -0.000005127100 Rises=F Damp=F
 DIIS: error= 2.21D-04 at cycle   2 NSaved=   2.
 NSaved= 2 IEnMin= 2 EnMin= -1.16939734450041     IErMin= 2 ErrMin= 2.21D-04
 ErrMax= 2.21D-04  0.00D+00 EMaxC= 1.00D-01 BMatC= 4.66D-07 BMatP= 1.70D-05
 IDIUse=3 WtCom= 9.98D-01 WtEn= 2.21D-03
 Coeff-Com: -0.187D+00 0.119D+01
 Coeff-En:   0.000D+00 0.100D+01
 Coeff:     -0.187D+00 0.119D+01
 Gap=     0.569 Goal=   None    Shift=    0.000
 RMSDP=2.45D-06 MaxDP=3.74D-05 DE=-5.13D-06 OVMax= 1.36D-04

 Cycle   6  Pass 1  IDiag  1:
 E= -1.16939749870394     Delta-E=       -0.000000154204 Rises=F Damp=F
 DIIS: error= 1.01D-05 at cycle   3 NSaved=   3.
 NSaved= 3 IEnMin= 3 EnMin= -1.16939749870394     IErMin= 3 ErrMin= 1.01D-05
 ErrMax= 1.01D-05  0.00D+00 EMaxC= 1.00D-01 BMatC= 1.38D-09 BMatP= 4.66D-07
 IDIUse=1 WtCom= 1.00D+00 WtEn= 0.00D+00
 Coeff-Com:  0.106D-01-0.105D+00 0.109D+01
 Coeff:      0.106D-01-0.105D+00 0.109D+01
 Gap=     0.569 Goal=   None    Shift=    0.000
 RMSDP=1.44D-07 MaxDP=2.21D-06 DE=-1.54D-07 OVMax= 9.64D-06

 Cycle   7  Pass 1  IDiag  1:
 E= -1.16939749917779     Delta-E=       -0.000000000474 Rises=F Damp=F
 DIIS: error= 2.56D-06 at cycle   4 NSaved=   4.
 NSaved= 4 IEnMin= 4 EnMin= -1.16939749917779     IErMin= 4 ErrMin= 2.56D-06
 ErrMax= 2.56D-06  0.00D+00 EMaxC= 1.00D-01 BMatC= 4.38D-11 BMatP= 1.38D-09
 IDIUse=1 WtCom= 1.00D+00 WtEn= 0.00D+00
 Coeff-Com:  0.414D-02-0.188D-01-0.128D+00 0.114D+01
 Coeff:      0.414D-02-0.188D-01-0.128D+00 0.114D+01
 Gap=     0.569 Goal=   None    Shift=    0.000
 RMSDP=5.13D-08 MaxDP=5.84D-07 DE=-4.74D-10 OVMax= 1.12D-06

 Cycle   8  Pass 1  IDiag  1:
 E= -1.16939749918836     Delta-E=       -0.000000000011 Rises=F Damp=F
 DIIS: error= 7.13D-08 at cycle   5 NSaved=   5.
 NSaved= 5 IEnMin= 5 EnMin= -1.16939749918836     IErMin= 5 ErrMin= 7.13D-08
 ErrMax= 7.13D-08  0.00D+00 EMaxC= 1.00D-01 BMatC= 4.88D-14 BMatP= 4.38D-11
 IDIUse=1 WtCom= 1.00D+00 WtEn= 0.00D+00
 Coeff-Com: -0.264D-03 0.143D-02 0.531D-02-0.606D-01 0.105D+01
 Coeff:     -0.264D-03 0.143D-02 0.531D-02-0.606D-01 0.105D+01
 Gap=     0.569 Goal=   None    Shift=    0.000
 RMSDP=3.34D-09 MaxDP=3.99D-08 DE=-1.06D-11 OVMax= 1.04D-07

 SCF Done:  E(RM062X) =  -1.16939749919     A.U. after    8 cycles
            NFock=  8  Conv=0.33D-08     -V/T= 2.0324
 KE= 1.132737095000D+00 PE=-3.626929480743D+00 EE= 6.199268130911D-01
 Leave Link  502 at Sat Apr 17 00:04:33 2021, MaxMem=   104857600 cpu:             778.2 elap:              16.6
 (Enter /s/ls4/users/knvvv/bin/g16sse/l601.exe)
 Copying SCF densities to generalized density rwf, IOpCl= 0 IROHF=0.

 **********************************************************************

            Population analysis using the SCF density.

 **********************************************************************

 Orbital symmetries:
       Occupied  (SGG)
       Virtual   (SGU) (SGG) (SGU) (PIU) (PIU) (SGG) (PIG) (PIG)
                 (SGG) (SGU) (SGU) (DLTG) (DLTG) (PIU) (PIU) (SGG)
                 (PIG) (PIG) (PIU) (PIU) (DLTU) (DLTU) (SGU) (SGG)
                 (PIG) (PIG) (SGU) (SGG) (PHIU) (PHIU) (DLTG) (DLTG)
                 (SGU) (PHIG) (PHIG) (PIG) (PIG) (SGG) (DLTU) (DLTU)
                 (PIU) (PIU) (DLTG) (DLTG) (SGU) (PIG) (PIG) (SGG)
                 (PIU) (PIU) (DLTU) (DLTU) (PIU) (PIU) (SGU) (PIG)
                 (PIG) (SGG) (SGU)
 The electronic state is 1-SGG.
 Alpha  occ. eigenvalues --   -0.49453
 Alpha virt. eigenvalues --    0.07469   0.13624   0.35398   0.41677   0.41677
 Alpha virt. eigenvalues --    0.69925   0.72222   0.72222   0.90821   0.93285
 Alpha virt. eigenvalues --    1.53338   1.73693   1.73693   1.99193   1.99193
 Alpha virt. eigenvalues --    2.18776   2.20168   2.20168   2.35339   2.35339
 Alpha virt. eigenvalues --    2.35630   2.35630   2.52480   2.80572   3.33611
 Alpha virt. eigenvalues --    3.33611   4.43093   4.75449   5.23757   5.23757
 Alpha virt. eigenvalues --    5.83334   5.83335   5.94055   6.23204   6.23204
 Alpha virt. eigenvalues --    6.65249   6.65249   6.92765   7.13299   7.13299
 Alpha virt. eigenvalues --    7.22737   7.22737   7.45848   7.45850   7.87886
 Alpha virt. eigenvalues --    7.98512   7.98512   8.04510   8.19552   8.19552
 Alpha virt. eigenvalues --    8.53853   8.53855   9.26814   9.26814   9.88651
 Alpha virt. eigenvalues --   12.47603  12.47603  13.21281  18.11855
          Condensed to atoms (all electrons):
               1          2
     1  H    0.582191   0.417809
     2  H    0.417809   0.582191
 Mulliken charges:
               1
     1  H   -0.000000
     2  H   -0.000000
 Sum of Mulliken charges =  -0.00000
 Mulliken charges with hydrogens summed into heavy atoms:
               1
 Electronic spatial extent (au):  <R**2>=              5.2361
 Charge=             -0.0000 electrons
 Dipole moment (field-independent basis, Debye):
    X=              0.0000    Y=              0.0000    Z=             -0.0000  Tot=              0.0000
 Quadrupole moment (field-independent basis, Debye-Ang):
   XX=             -2.1033   YY=             -2.1033   ZZ=             -1.4826
   XY=              0.0000   XZ=             -0.0000   YZ=              0.0000
 Traceless Quadrupole moment (field-independent basis, Debye-Ang):
   XX=             -0.2069   YY=             -0.2069   ZZ=              0.4138
   XY=              0.0000   XZ=             -0.0000   YZ=              0.0000
 Octapole moment (field-independent basis, Debye-Ang**2):
  XXX=             -0.0000  YYY=              0.0000  ZZZ=              0.0000  XYY=             -0.0000
  XXY=              0.0000  XXZ=              0.0000  XZZ=             -0.0000  YZZ=              0.0000
  YYZ=             -0.0000  XYZ=              0.0000
 Hexadecapole moment (field-independent basis, Debye-Ang**3):
 XXXX=             -2.1646 YYYY=             -2.1646 ZZZZ=             -2.9495 XXXY=              0.0000
 XXXZ=              0.0000 YYYX=              0.0000 YYYZ=              0.0000 ZZZX=              0.0000
 ZZZY=              0.0000 XXYY=             -0.7215 XXZZ=             -0.8717 YYZZ=             -0.8717
 XXYZ=              0.0000 YYXZ=              0.0000 ZZXY=              0.0000
 N-N= 7.048680734638D-01 E-N=-3.626929488750D+00  KE= 1.132737095000D+00
 No NMR shielding tensors so no spin-rotation constants.
 Leave Link  601 at Sat Apr 17 00:04:34 2021, MaxMem=   104857600 cpu:              50.5 elap:               1.1
 (Enter /s/ls4/users/knvvv/bin/g16sse/l801.exe)
 DoSCS=F DFT=T ScalE2(SS,OS)=  1.000000  1.000000
 Range of M.O.s used for correlation:     1    60
 NBasis=    60 NAE=     1 NBE=     1 NFC=     0 NFV=     0
 NROrb=     60 NOA=     1 NOB=     1 NVA=    59 NVB=    59

 **** Warning!!: The largest alpha MO coefficient is  0.23055621D+02

 Leave Link  801 at Sat Apr 17 00:04:34 2021, MaxMem=   104857600 cpu:               3.2 elap:               0.1
 (Enter /s/ls4/users/knvvv/bin/g16sse/l914.exe)
 RHF ground state
 Doing stability rather than CIS.
 Keep R1 and R2 ints in memory in symmetry-blocked form, NReq=100744901.
 FoFCou: FMM=F IPFlag=           0 FMFlag=           0 FMFlg1=           0
         NFxFlg=           0 DoJE=F BraDBF=F KetDBF=F FulRan=T
         wScrn=  0.000000 ICntrl=       600 IOpCl=  0 I1Cent=           0 NGrid=           0
         NMat0=    1 NMatS0=   1830 NMatT0=    0 NMatD0=    1 NMtDS0=    0 NMtDT0=    0
 Petite list used in FoFCou.
 MDV=   104857600 DFT=T DoStab=T Mixed=T DoRPA=F DoScal=F NonHer=F
 Making orbital integer symmetry assigments:
 Orbital symmetries:
       Occupied  (SGG)
       Virtual   (SGU) (SGG) (SGU) (PIU) (PIU) (SGG) (PIG) (PIG)
                 (SGG) (SGU) (SGU) (DLTG) (DLTG) (PIU) (PIU) (SGG)
                 (PIG) (PIG) (PIU) (PIU) (DLTU) (DLTU) (SGU) (SGG)
                 (PIG) (PIG) (SGU) (SGG) (PHIU) (PHIU) (DLTG) (DLTG)
                 (SGU) (PHIG) (PHIG) (PIG) (PIG) (SGG) (DLTU) (DLTU)
                 (PIU) (PIU) (DLTG) (DLTG) (SGU) (PIG) (PIG) (SGG)
                 (PIU) (PIU) (DLTU) (DLTU) (PIU) (PIU) (SGU) (PIG)
                 (PIG) (SGG) (SGU)
    48 initial guesses have been made.
 Convergence on wavefunction:    0.001000000000000
 Davidson Disk Diagonalization:  ConvIn= 1.00D-03 SkipCon=T Conv= 1.00D-03.
 Max sub-space:   236 roots to seek:    48 dimension of matrix:          118
 Iteration     1 Dimension    48 NMult     0 NNew     48
 CISAX will form    48 AO SS matrices at one time.
 NMat=    48 NSing=    24 JSym2X= 2.
 New state      1 was old state      2
 Excitation Energies [eV] at current iteration:
 Root      1 :    10.122625358561000
 Root      2 :    13.204260400717650
 Root      3 :    13.273109643259590
 Root      4 :    15.534650712063130
 Root      5 :    17.651047041750920
 Root      6 :    17.904835727007130
 Root      7 :    17.904835727007480
 Root      8 :    22.318940050903340
 Root      9 :    22.318940050903700
 Root     10 :    23.037218630253550
 Root     11 :    27.246856018062620
 Root     12 :    27.836902169959270
 Root     13 :    27.836902169959760
 Root     14 :    28.003533187250110
 Root     15 :    28.003533187250440
 Root     16 :    28.386282634355040
 Root     17 :    31.870832865652540
 Root     18 :    33.980762672235830
 Root     19 :    34.285894237457430
 Root     20 :    37.622035093140570
 Root     21 :    49.056318559394850
 Root     22 :    53.378853725033300
 Root     23 :    54.190604232201160
 Root     24 :    54.190652183513890
 Root     25 :    54.475819757794260
 Root     26 :    54.475868521152830
 Root     27 :    62.946712951355880
 Root     28 :    62.946712951356040
 Root     29 :    64.997917584387200
 Root     30 :    64.997917584387410
 Root     31 :    66.464836581989520
 Root     32 :    66.464836581990060
 Root     33 :    67.049257381261040
 Root     34 :    67.134691011109870
 Root     35 :    67.134691011110140
 Root     36 :    67.447481755325910
 Root     37 :    67.744928332499430
 Root     38 :    67.744937812952370
 Root     39 :    68.332717011823190
 Root     40 :    68.332717011823230
 Root     41 :    68.696805937081790
 Root     42 :    68.696815299248070
 Root     43 :    68.924389520228710
 Root     44 :    68.924389520228810
 Root     45 :    72.845811504413460
 Root     46 :    74.190361240145560
 Root     47 :    91.375197302892660
 Root     48 :    91.756214392327320
 Iteration     2 Dimension    94 NMult    48 NNew     46
 CISAX will form    46 AO SS matrices at one time.
 NMat=    46 NSing=    23 JSym2X= 2.
 Root      1 not converged, maximum delta is    0.022293136752229
 Excitation Energies [eV] at current iteration:
 Root      1 :     9.734750902707871   Change is   -0.387874455853130
 Root      2 :    13.164263806585990   Change is   -0.039996594131652
 Root      3 :    13.266989365609880   Change is   -0.006120277649713
 Root      4 :    15.526857640145200   Change is   -0.007793071917934
 Root      5 :    17.389167166430990   Change is   -0.261879875319933
 Root      6 :    17.517005704081160   Change is   -0.387830022925971
 Root      7 :    17.517005704081520   Change is   -0.387830022925962
 Root      8 :    22.218817980057130   Change is   -0.100122070846207
 Root      9 :    22.218817980057280   Change is   -0.100122070846422
 Root     10 :    22.871475579398450   Change is   -0.165743050855106
 Root     11 :    27.073799833035220   Change is   -0.173056185027407
 Root     12 :    27.705298975284810   Change is   -0.131603194674457
 Root     13 :    27.705298975285420   Change is   -0.131603194674343
 Root     14 :    27.862763150458270   Change is   -0.140770036791835
 Root     15 :    27.862763150458510   Change is   -0.140770036791925
 Root     16 :    28.262879788732480   Change is   -0.123402845622562
 Root     17 :    31.838276847382350   Change is   -0.032556018270195
 Root     18 :    33.656075686824820   Change is   -0.324686985411015
 Root     19 :    34.139460311918800   Change is   -0.146433925538634
 Root     20 :    37.410202178230450   Change is   -0.211832914910118
 Root     21 :    46.918912630272220   Change is   -2.137405929122627
 Root     22 :    52.151980640530090   Change is   -1.226873084503209
 Root     23 :    54.149081365232240   Change is   -0.041522866968917
 Root     24 :    54.149112284822320   Change is   -0.041539898691581
 Root     25 :    54.462232667549630   Change is   -0.013587090244625
 Root     26 :    54.462272462567550   Change is   -0.013596058585283
 Root     27 :    59.960759021307620   Change is   -2.985953930048412
 Root     28 :    59.960759021307790   Change is   -2.985953930048098
 Root     29 :    63.282331172107960   Change is   -1.715586412279233
 Root     30 :    63.282331172108030   Change is   -1.715586412279378
 Root     31 :    65.595820373319430   Change is   -0.869016208670096
 Root     32 :    65.595820373319810   Change is   -0.869016208670253
 Root     33 :    66.243162380155670   Change is   -0.806095001105375
 Root     34 :    66.266188386888100   Change is   -0.868502624221765
 Root     35 :    66.266188386888420   Change is   -0.868502624221729
 Root     36 :    66.950816802149990   Change is   -0.496664953175930
 Root     37 :    67.585351132788420   Change is   -0.159577199711011
 Root     38 :    67.585362415814610   Change is   -0.159575397137759
 Root     39 :    67.920937193837520   Change is   -0.411779817985676
 Root     40 :    67.920937193837550   Change is   -0.411779817985688
 Root     41 :    68.569742707094390   Change is   -0.127063229987400
 Root     42 :    68.569753599764600   Change is   -0.127061699483478
 Root     43 :    68.703641316847860   Change is   -0.220748203380852
 Root     44 :    68.703641316847860   Change is   -0.220748203380937
 Root     45 :    72.611324095184050   Change is   -0.234487409229429
 Root     46 :    73.980166203120560   Change is   -0.210195037024997
 Root     47 :    90.070223101834730   Change is   -1.304974201057940
 Root     48 :    90.609543128065340   Change is   -1.146671264261989
 Convergence achieved on expansion vectors.
 ***********************************************************************
 Stability analysis using <AA,BB:AA,BB> singles matrix:
 ***********************************************************************
 1PDM for each excited state written to RWF  633
 Ground to excited state transition densities written to RWF  633

 Eigenvectors of the stability matrix:
 
 Eigenvector   1:      Triplet-SGU  Eigenvalue= 0.3577455  <S**2>=2.000
       1 ->  2         0.62136
       1 ->  4         0.32079
 
 Eigenvector   2:      Singlet-SGU  Eigenvalue= 0.4837778  <S**2>=0.000
       1 ->  2         0.70111
 
 Eigenvector   3:      Triplet-SGG  Eigenvalue= 0.4875529  <S**2>=2.000
       1 ->  3         0.69771
 
 Eigenvector   4:      Singlet-SGG  Eigenvalue= 0.5706015  <S**2>=0.000
       1 ->  3         0.70415
 
 Eigenvector   5:      Triplet-SGU  Eigenvalue= 0.6390401  <S**2>=2.000
       1 ->  2        -0.33457
       1 ->  4         0.61307
 
 Excited state symmetry could not be determined.
 Eigenvector   6:      Triplet-?Sym  Eigenvalue= 0.6437381  <S**2>=2.000
       1 ->  5         0.41999
       1 ->  6         0.56681
 The wavefunction is stable under the perturbations considered.
 Leave Link  914 at Sat Apr 17 00:04:44 2021, MaxMem=   104857600 cpu:             445.1 elap:               9.5
 (Enter /s/ls4/users/knvvv/bin/g16sse/l508.exe)
 The wavefunction is already stable.
 Leave Link  508 at Sat Apr 17 00:04:44 2021, MaxMem=   104857600 cpu:               2.2 elap:               0.1
 (Enter /s/ls4/users/knvvv/bin/g16sse/l601.exe)
 Copying SCF densities to generalized density rwf, IOpCl= 0 IROHF=0.

 **********************************************************************

            Population analysis using the SCF density.

 **********************************************************************

 Orbital symmetries:
       Occupied  (SGG)
       Virtual   (SGU) (SGG) (SGU) (PIU) (PIU) (SGG) (PIG) (PIG)
                 (SGG) (SGU) (SGU) (DLTG) (DLTG) (PIU) (PIU) (SGG)
                 (PIG) (PIG) (PIU) (PIU) (DLTU) (DLTU) (SGU) (SGG)
                 (PIG) (PIG) (SGU) (SGG) (PHIU) (PHIU) (DLTG) (DLTG)
                 (SGU) (PHIG) (PHIG) (PIG) (PIG) (SGG) (DLTU) (DLTU)
                 (PIU) (PIU) (DLTG) (DLTG) (SGU) (PIG) (PIG) (SGG)
                 (PIU) (PIU) (DLTU) (DLTU) (PIU) (PIU) (SGU) (PIG)
                 (PIG) (SGG) (SGU)
 The electronic state is 1-SGG.
 Alpha  occ. eigenvalues --   -0.49453
 Alpha virt. eigenvalues --    0.07469   0.13624   0.35398   0.41677   0.41677
 Alpha virt. eigenvalues --    0.69925   0.72222   0.72222   0.90821   0.93285
 Alpha virt. eigenvalues --    1.53338   1.73693   1.73693   1.99193   1.99193
 Alpha virt. eigenvalues --    2.18776   2.20168   2.20168   2.35339   2.35339
 Alpha virt. eigenvalues --    2.35630   2.35630   2.52480   2.80572   3.33611
 Alpha virt. eigenvalues --    3.33611   4.43093   4.75449   5.23757   5.23757
 Alpha virt. eigenvalues --    5.83334   5.83335   5.94055   6.23204   6.23204
 Alpha virt. eigenvalues --    6.65249   6.65249   6.92765   7.13299   7.13299
 Alpha virt. eigenvalues --    7.22737   7.22737   7.45848   7.45850   7.87886
 Alpha virt. eigenvalues --    7.98512   7.98512   8.04510   8.19552   8.19552
 Alpha virt. eigenvalues --    8.53853   8.53855   9.26814   9.26814   9.88651
 Alpha virt. eigenvalues --   12.47603  12.47603  13.21281  18.11855
          Condensed to atoms (all electrons):
               1          2
     1  H    0.582191   0.417809
     2  H    0.417809   0.582191
 Mulliken charges:
               1
     1  H   -0.000000
     2  H   -0.000000
 Sum of Mulliken charges =  -0.00000
 Mulliken charges with hydrogens summed into heavy atoms:
               1
 Electronic spatial extent (au):  <R**2>=              5.2361
 Charge=             -0.0000 electrons
 Dipole moment (field-independent basis, Debye):
    X=              0.0000    Y=              0.0000    Z=             -0.0000  Tot=              0.0000
 Quadrupole moment (field-independent basis, Debye-Ang):
   XX=             -2.1033   YY=             -2.1033   ZZ=             -1.4826
   XY=              0.0000   XZ=             -0.0000   YZ=              0.0000
 Traceless Quadrupole moment (field-independent basis, Debye-Ang):
   XX=             -0.2069   YY=             -0.2069   ZZ=              0.4138
   XY=              0.0000   XZ=             -0.0000   YZ=              0.0000
 Octapole moment (field-independent basis, Debye-Ang**2):
  XXX=             -0.0000  YYY=              0.0000  ZZZ=              0.0000  XYY=             -0.0000
  XXY=              0.0000  XXZ=              0.0000  XZZ=             -0.0000  YZZ=              0.0000
  YYZ=             -0.0000  XYZ=              0.0000
 Hexadecapole moment (field-independent basis, Debye-Ang**3):
 XXXX=             -2.1646 YYYY=             -2.1646 ZZZZ=             -2.9495 XXXY=              0.0000
 XXXZ=              0.0000 YYYX=              0.0000 YYYZ=              0.0000 ZZZX=              0.0000
 ZZZY=              0.0000 XXYY=             -0.7215 XXZZ=             -0.8717 YYZZ=             -0.8717
 XXYZ=              0.0000 YYXZ=              0.0000 ZZXY=              0.0000
 N-N= 7.048680734638D-01 E-N=-3.626929488750D+00  KE= 1.132737095000D+00
 No NMR shielding tensors so no spin-rotation constants.
 Leave Link  601 at Sat Apr 17 00:04:45 2021, MaxMem=   104857600 cpu:              61.6 elap:               1.3
 (Enter /s/ls4/users/knvvv/bin/g16sse/l9999.exe)

 Test job not archived.
 1\1\GINC-N146\Stability\RM062X\def2QZVP\H2\KNVVV\17-Apr-2021\0\\#P M06
 2X/Def2QZVP Integral=UltraFineGrid SCF=NoSymm Stable=(RExt, Opt) IOp(1
 /33=1)\\Database calculations.\\0,1\H,0,0.07172858,-0.99088844,0.\H,0,
 -0.67901788,-0.99088844,0.\\Version=ES64L-G16RevA.03\State=1-SGG\HF=-1
 .1693975\RMSD=3.335e-09\Dipole=0.,0.,0.\Quadrupole=0.3076338,-0.153816
 9,-0.1538169,0.,0.,0.\PG=D*H [C*(H1.H1)]\\@


 SUCCESS IS NEVER CERTAIN,
 FAILURE IS NEVER FINAL.
 Job cpu time:       0 days  0 hours 26 minutes 36.5 seconds.
 Elapsed time:       0 days  0 hours  0 minutes 34.3 seconds.
 File lengths (MBytes):  RWF=      6 Int=      0 D2E=      0 Chk=      2 Scr=      1
 Normal termination of Gaussian 16 at Sat Apr 17 00:04:45 2021.
