 Entering Gaussian System, Link 0=/s/ls4/users/knvvv/bin/g16sse/g16
 Input=data/database/M062X--def2-QZVP--BH76_OH.gjf
 Output=data/database/M062X--def2-QZVP--BH76_OH.log
 Initial command:
 /s/ls4/users/knvvv/bin/g16sse/l1.exe "/s/ls4/users/knvvv/bin/scratch/Gau-23657.inp" -scrdir="/s/ls4/users/knvvv/bin/scratch/"
 Entering Link 1 = /s/ls4/users/knvvv/bin/g16sse/l1.exe PID=     23658.
  
 Copyright (c) 1988,1990,1992,1993,1995,1998,2003,2009,2016,
            Gaussian, Inc.  All Rights Reserved.
  
 This is part of the Gaussian(R) 16 program.  It is based on
 the Gaussian(R) 09 system (copyright 2009, Gaussian, Inc.),
 the Gaussian(R) 03 system (copyright 2003, Gaussian, Inc.),
 the Gaussian(R) 98 system (copyright 1998, Gaussian, Inc.),
 the Gaussian(R) 94 system (copyright 1995, Gaussian, Inc.),
 the Gaussian 92(TM) system (copyright 1992, Gaussian, Inc.),
 the Gaussian 90(TM) system (copyright 1990, Gaussian, Inc.),
 the Gaussian 88(TM) system (copyright 1988, Gaussian, Inc.),
 the Gaussian 86(TM) system (copyright 1986, Carnegie Mellon
 University), and the Gaussian 82(TM) system (copyright 1983,
 Carnegie Mellon University). Gaussian is a federally registered
 trademark of Gaussian, Inc.
  
 This software contains proprietary and confidential information,
 including trade secrets, belonging to Gaussian, Inc.
  
 This software is provided under written license and may be
 used, copied, transmitted, or stored only in accord with that
 written license.
  
 The following legend is applicable only to US Government
 contracts under FAR:
  
                    RESTRICTED RIGHTS LEGEND
  
 Use, reproduction and disclosure by the US Government is
 subject to restrictions as set forth in subparagraphs (a)
 and (c) of the Commercial Computer Software - Restricted
 Rights clause in FAR 52.227-19.
  
 Gaussian, Inc.
 340 Quinnipiac St., Bldg. 40, Wallingford CT 06492
  
  
 ---------------------------------------------------------------
 Warning -- This program may not be used in any manner that
 competes with the business of Gaussian, Inc. or will provide
 assistance to any competitor of Gaussian, Inc.  The licensee
 of this program is prohibited from giving any competitor of
 Gaussian, Inc. access to this program.  By using this program,
 the user acknowledges that Gaussian, Inc. is engaged in the
 business of creating and licensing software in the field of
 computational chemistry and represents and warrants to the
 licensee that it is not a competitor of Gaussian, Inc. and that
 it will not use this program in any manner prohibited above.
 ---------------------------------------------------------------
  

 Cite this work as:
 Gaussian 16, Revision A.03,
 M. J. Frisch, G. W. Trucks, H. B. Schlegel, G. E. Scuseria, 
 M. A. Robb, J. R. Cheeseman, G. Scalmani, V. Barone, 
 G. A. Petersson, H. Nakatsuji, X. Li, M. Caricato, A. V. Marenich, 
 J. Bloino, B. G. Janesko, R. Gomperts, B. Mennucci, H. P. Hratchian, 
 J. V. Ortiz, A. F. Izmaylov, J. L. Sonnenberg, D. Williams-Young, 
 F. Ding, F. Lipparini, F. Egidi, J. Goings, B. Peng, A. Petrone, 
 T. Henderson, D. Ranasinghe, V. G. Zakrzewski, J. Gao, N. Rega, 
 G. Zheng, W. Liang, M. Hada, M. Ehara, K. Toyota, R. Fukuda, 
 J. Hasegawa, M. Ishida, T. Nakajima, Y. Honda, O. Kitao, H. Nakai, 
 T. Vreven, K. Throssell, J. A. Montgomery, Jr., J. E. Peralta, 
 F. Ogliaro, M. J. Bearpark, J. J. Heyd, E. N. Brothers, K. N. Kudin, 
 V. N. Staroverov, T. A. Keith, R. Kobayashi, J. Normand, 
 K. Raghavachari, A. P. Rendell, J. C. Burant, S. S. Iyengar, 
 J. Tomasi, M. Cossi, J. M. Millam, M. Klene, C. Adamo, R. Cammi, 
 J. W. Ochterski, R. L. Martin, K. Morokuma, O. Farkas, 
 J. B. Foresman, and D. J. Fox, Gaussian, Inc., Wallingford CT, 2016.
 
 ******************************************
 Gaussian 16:  ES64L-G16RevA.03 25-Dec-2016
                16-Apr-2021 
 ******************************************
 %RWF=temp3_69820,70GB
 %nprocshared=48
 Will use up to   48 processors via shared memory.
 Default route: MaxDisk=80GB
 ----------------------------------------------------------------------
 #P M062X/Def2QZVP Integral=UltraFineGrid SCF=NoSymm Stable=(RExt, Opt)
  IOp(1/33=1)
 ----------------------------------------------------------------------
 1/33=1,38=1,172=1/1;
 2/12=2,17=6,18=5,40=1/2;
 3/5=45,7=101,11=2,25=1,30=1,74=-55,75=-5/1,2,3;
 4/9=2/1;
 5/5=2,38=5/2;
 6/7=2,8=2,9=2,10=2,28=1/1;
 8/6=1,10=90,11=11/1;
 9/8=-3,42=1,46=1/14;
 5/5=2,8=3,17=40,38=5/8(-2);
 6/7=2,8=2,9=2,10=2,28=1/1;
 99/5=1,9=1/99;
 Leave Link    1 at Fri Apr 16 23:17:55 2021, MaxMem=           0 cpu:               9.2 elap:               0.2
 (Enter /s/ls4/users/knvvv/bin/g16sse/l101.exe)
 ONIOM data not found on unit 2.
 ----------------------
 Database calculations.
 ----------------------
 TstMul:  ICh=     0
 TstMul:  Mul=     2
 TstMul:  ICh=     0
 TstMul:  Mul=     2
 Symbolic Z-matrix:
 Charge =  0 Multiplicity = 2
 O                     0.        0.        0.10766 
 H                     0.        0.       -0.86124 
 
 RdStrC is calling ZToCFu for IStruc=1 NZ=     2.
 PrtBox:  NBox=     1 Levels=  1 BoxLen=    8.00 SMaxX=        1.83
          Shift=            0.000000            0.000000            1.627510
 Box      1 Number                   0 centers from      1 to      2:
 After GenITR:
 ITRead=  0  0
 MicOpt= -1 -1
 ITRead=  0  0
 MicOpt= -1 -1
 NAtoms=      2 NQM=        2 NQMF=       0 NMMI=      0 NMMIF=      0
                NMic=       0 NMicF=      0.
                    Isotopes and Nuclear Properties:
 (Nuclear quadrupole moments (NQMom) in fm**2, nuclear magnetic moments (NMagM)
  in nuclear magnetons)

  Atom         1           2
 IAtWgt=          16           1
 AtmWgt=  15.9949146   1.0078250
 NucSpn=           0           1
 AtZEff=  -0.0000000  -0.0000000
 NQMom=    0.0000000   0.0000000
 NMagM=    0.0000000   2.7928460
 AtZNuc=   8.0000000   1.0000000
 No MM parameters found.
 Leave Link  101 at Fri Apr 16 23:17:55 2021, MaxMem=   104857600 cpu:               8.4 elap:               0.2
 (Enter /s/ls4/users/knvvv/bin/g16sse/l202.exe)
                          Input orientation:                          
 ---------------------------------------------------------------------
 Center     Atomic      Atomic             Coordinates (Angstroms)
 Number     Number       Type             X           Y           Z
 ---------------------------------------------------------------------
      1          8           0        0.000000    0.000000    0.107655
      2          1           0        0.000000    0.000000   -0.861241
 ---------------------------------------------------------------------
 Stoichiometry    HO(2)
 Framework group  C*V[C*(HO)]
 Deg. of freedom     1
 Full point group                 C*V     NOp   4
 Largest Abelian subgroup         C2V     NOp   4
 Largest concise Abelian subgroup C1      NOp   1
                         Standard orientation:                         
 ---------------------------------------------------------------------
 Center     Atomic      Atomic             Coordinates (Angstroms)
 Number     Number       Type             X           Y           Z
 ---------------------------------------------------------------------
      1          8           0        0.000000    0.000000    0.107655
      2          1           0        0.000000    0.000000   -0.861241
 ---------------------------------------------------------------------
 Rotational constants (GHZ):           0.0000000         567.8246109         567.8246109
 Leave Link  202 at Fri Apr 16 23:17:55 2021, MaxMem=   104857600 cpu:               6.2 elap:               0.2
 (Enter /s/ls4/users/knvvv/bin/g16sse/l301.exe)
 Standard basis: def2QZVP (5D, 7F)
 Ernie: Thresh=  0.10000D-02 Tol=  0.10000D-05 Strict=F.
 There are    48 symmetry adapted cartesian basis functions of A1  symmetry.
 There are    11 symmetry adapted cartesian basis functions of A2  symmetry.
 There are    24 symmetry adapted cartesian basis functions of B1  symmetry.
 There are    24 symmetry adapted cartesian basis functions of B2  symmetry.
 There are    37 symmetry adapted basis functions of A1  symmetry.
 There are    10 symmetry adapted basis functions of A2  symmetry.
 There are    20 symmetry adapted basis functions of B1  symmetry.
 There are    20 symmetry adapted basis functions of B2  symmetry.
    87 basis functions,   130 primitive gaussians,   107 cartesian basis functions
     5 alpha electrons        4 beta electrons
       nuclear repulsion energy         4.3693185470 Hartrees.
 IExCor= 4336 DFT=T Ex+Corr=M062X ExCW=0 ScaHFX=  0.540000
 ScaDFX=  1.000000  1.000000  1.000000  1.000000 ScalE2=  1.000000  1.000000
 IRadAn=      5 IRanWt=     -1 IRanGd=            0 ICorTp=0 IEmpDi=  4
 NAtoms=    2 NActive=    2 NUniq=    2 SFac= 1.00D+00 NAtFMM=   60 NAOKFM=F Big=F
 Integral buffers will be    131072 words long.
 Raffenetti 2 integral format.
 Two-electron integral symmetry is turned on.
 Leave Link  301 at Fri Apr 16 23:17:55 2021, MaxMem=   104857600 cpu:               6.2 elap:               0.2
 (Enter /s/ls4/users/knvvv/bin/g16sse/l302.exe)
 NPDir=0 NMtPBC=     1 NCelOv=     1 NCel=       1 NClECP=     1 NCelD=      1
         NCelK=      1 NCelE2=     1 NClLst=     1 CellRange=     0.0.
 One-electron integrals computed using PRISM.
 One-electron integral symmetry used in STVInt
 PrsmSu:  requested number of processors reduced to:   4 ShMem   1 Linda.
 PrsmSu:  requested number of processors reduced to:  21 ShMem   1 Linda.
   4 Symmetry operations used in ECPInt.
 ECPInt:  NShTT=     378 NPrTT=     948 LenC2=     379 LenP2D=     926.
 LDataN:  DoStor=T MaxTD1= 8 Len=  415
 Number of processors reduced to  46 by ecpmxn.
 NBasis=    87 RedAO= T EigKep=  4.91D-04  NBF=    37    10    20    20
 NBsUse=    87 1.00D-06 EigRej= -1.00D+00 NBFU=    37    10    20    20
 Precomputing XC quadrature grid using
 IXCGrd= 4 IRadAn=           5 IRanWt=          -1 IRanGd=           0 AccXCQ= 0.00D+00.
 Generated NRdTot=       0 NPtTot=           0 NUsed=           0 NTot=          32
 NSgBfM=   107   107   107   107   107 MxSgAt=     2 MxSgA2=     2.
 Leave Link  302 at Fri Apr 16 23:17:58 2021, MaxMem=   104857600 cpu:             117.3 elap:               2.6
 (Enter /s/ls4/users/knvvv/bin/g16sse/l303.exe)
 DipDrv:  MaxL=1.
 Leave Link  303 at Fri Apr 16 23:17:58 2021, MaxMem=   104857600 cpu:              16.9 elap:               0.4
 (Enter /s/ls4/users/knvvv/bin/g16sse/l401.exe)
 SCF N**3 symmetry information disabled.
 ExpMin= 8.03D-02 ExpMax= 1.17D+05 ExpMxC= 1.13D+03 IAcc=3 IRadAn=         5 AccDes= 0.00D+00
 Harris functional with IExCor= 1009 and IRadAn=       5 diagonalized for initial guess.
 HarFok:  IExCor= 1009 AccDes= 0.00D+00 IRadAn=         5 IDoV= 1 UseB2=F ITyADJ=14
 ICtDFT=  3500011 ScaDFX=  1.000000  1.000000  1.000000  1.000000
 FoFCou: FMM=F IPFlag=           0 FMFlag=      100000 FMFlg1=           0
         NFxFlg=           0 DoJE=T BraDBF=F KetDBF=T FulRan=T
         wScrn=  0.000000 ICntrl=       500 IOpCl=  0 I1Cent=   200000004 NGrid=           0
         NMat0=    1 NMatS0=      1 NMatT0=    0 NMatD0=    1 NMtDS0=    0 NMtDT0=    0
 Petite list used in FoFCou.
 CoulSu:  requested number of processors reduced to:  21 ShMem   1 Linda.
 CoulSu:  requested number of processors reduced to:  21 ShMem   1 Linda.
 CoulSu:  requested number of processors reduced to:  21 ShMem   1 Linda.
 CoulSu:  requested number of processors reduced to:  21 ShMem   1 Linda.
 Harris En= -75.6664947107723    
 JPrj=0 DoOrth=F DoCkMO=F.
 Initial guess orbital symmetries:
 Alpha Orbitals:
       Occupied  (SG) (SG) (SG) (PI) (PI)
       Virtual   (SG) (SG) (PI) (PI) (SG) (PI) (PI) (SG) (SG) (SG)
                 (DLTA) (DLTA) (PI) (PI) (SG) (PI) (PI) (SG) (DLTA)
                 (DLTA) (PI) (PI) (SG) (PI) (PI) (SG) (PHI) (PHI)
                 (SG) (DLTA) (DLTA) (DLTA) (DLTA) (PI) (PI) (SG)
                 (SG) (PI) (PI) (PI) (PI) (SG) (PHI) (PHI) (DLTA)
                 (DLTA) (SG) (PI) (PI) (SG) (PI) (PI) (DLTA) (DLTA)
                 (SG) (PI) (PI) (?A) (?A) (PHI) (PHI) (DLTA) (DLTA)
                 (SG) (PI) (PI) (PHI) (PHI) (DLTA) (DLTA) (SG)
                 (PI) (PI) (SG) (DLTA) (DLTA) (SG) (PI) (PI) (SG)
                 (SG) (SG)
 Beta  Orbitals:
       Occupied  (SG) (SG) (SG) (PI)
       Virtual   (PI) (SG) (SG) (PI) (PI) (SG) (PI) (PI) (SG) (SG)
                 (SG) (DLTA) (DLTA) (PI) (PI) (SG) (PI) (PI) (SG)
                 (DLTA) (DLTA) (PI) (PI) (SG) (PI) (PI) (SG) (PHI)
                 (PHI) (SG) (DLTA) (DLTA) (DLTA) (DLTA) (PI) (PI)
                 (SG) (SG) (PI) (PI) (PI) (PI) (SG) (PHI) (PHI)
                 (DLTA) (DLTA) (SG) (PI) (PI) (SG) (PI) (PI) (DLTA)
                 (DLTA) (SG) (PI) (PI) (?A) (?A) (PHI) (PHI) (DLTA)
                 (DLTA) (SG) (PI) (PI) (PHI) (PHI) (DLTA) (DLTA)
                 (SG) (PI) (PI) (SG) (DLTA) (DLTA) (SG) (PI) (PI)
                 (SG) (SG) (SG)
 Initial guess <Sx>= 0.0000 <Sy>= 0.0000 <Sz>= 0.5000 <S**2>= 0.7500 S= 0.5000
 Leave Link  401 at Fri Apr 16 23:18:00 2021, MaxMem=   104857600 cpu:              65.9 elap:               1.6
 (Enter /s/ls4/users/knvvv/bin/g16sse/l502.exe)
 Keep R1 and R2 ints in memory in symmetry-blocked form, NReq=61526203.
 FoFCou: FMM=F IPFlag=           0 FMFlag=           0 FMFlg1=           0
         NFxFlg=           0 DoJE=F BraDBF=F KetDBF=F FulRan=T
         wScrn=  0.000000 ICntrl=       600 IOpCl=  0 I1Cent=           0 NGrid=           0
         NMat0=    1 NMatS0=   3828 NMatT0=    0 NMatD0=    1 NMtDS0=    0 NMtDT0=    0
 Petite list used in FoFCou.
 CoulSu:  requested number of processors reduced to:  21 ShMem   1 Linda.
 UHF open shell SCF:
 Using DIIS extrapolation, IDIIS=  1040.
 NGot=   104857600 LenX=   101065612 LenY=   101053722
 Requested convergence on RMS density matrix=1.00D-08 within 128 cycles.
 Requested convergence on MAX density matrix=1.00D-06.
 Requested convergence on             energy=1.00D-06.
 No special actions if energy rises.
 Integral accuracy reduced to 1.0D-05 until final iterations.

 Cycle   1  Pass 0  IDiag  1:
 E= -75.7238389944258    
 DIIS: error= 4.05D-02 at cycle   1 NSaved=   1.
 NSaved= 1 IEnMin= 1 EnMin= -75.7238389944258     IErMin= 1 ErrMin= 4.05D-02
 ErrMax= 4.05D-02  0.00D+00 EMaxC= 1.00D-01 BMatC= 1.94D-01 BMatP= 1.94D-01
 IDIUse=3 WtCom= 5.95D-01 WtEn= 4.05D-01
 Coeff-Com:  0.100D+01
 Coeff-En:   0.100D+01
 Coeff:      0.100D+01
 Gap=     0.497 Goal=   None    Shift=    0.000
 Gap=     0.329 Goal=   None    Shift=    0.000
 GapD=    0.329 DampG=1.000 DampE=0.500 DampFc=0.5000 IDamp=-1.
 Damping current iteration by 5.00D-01
 RMSDP=1.47D-03 MaxDP=6.07D-02              OVMax= 7.88D-02

 Cycle   2  Pass 0  IDiag  1:
 E= -75.7315720008419     Delta-E=       -0.007733006416 Rises=F Damp=T
 DIIS: error= 2.09D-02 at cycle   2 NSaved=   2.
 NSaved= 2 IEnMin= 2 EnMin= -75.7315720008419     IErMin= 2 ErrMin= 2.09D-02
 ErrMax= 2.09D-02  0.00D+00 EMaxC= 1.00D-01 BMatC= 3.87D-02 BMatP= 1.94D-01
 IDIUse=3 WtCom= 7.91D-01 WtEn= 2.09D-01
 Coeff-Com: -0.386D+00 0.139D+01
 Coeff-En:   0.000D+00 0.100D+01
 Coeff:     -0.305D+00 0.130D+01
 Gap=     0.498 Goal=   None    Shift=    0.000
 Gap=     0.307 Goal=   None    Shift=    0.000
 RMSDP=5.35D-04 MaxDP=1.16D-02 DE=-7.73D-03 OVMax= 3.84D-02

 Cycle   3  Pass 0  IDiag  1:
 E= -75.7388166790697     Delta-E=       -0.007244678228 Rises=F Damp=F
 DIIS: error= 6.84D-03 at cycle   3 NSaved=   3.
 NSaved= 3 IEnMin= 3 EnMin= -75.7388166790697     IErMin= 3 ErrMin= 6.84D-03
 ErrMax= 6.84D-03  0.00D+00 EMaxC= 1.00D-01 BMatC= 4.77D-03 BMatP= 3.87D-02
 IDIUse=3 WtCom= 9.32D-01 WtEn= 6.84D-02
 Coeff-Com: -0.220D+00 0.429D+00 0.792D+00
 Coeff-En:   0.000D+00 0.000D+00 0.100D+01
 Coeff:     -0.205D+00 0.399D+00 0.806D+00
 Gap=     0.483 Goal=   None    Shift=    0.000
 Gap=     0.303 Goal=   None    Shift=    0.000
 RMSDP=1.70D-04 MaxDP=5.61D-03 DE=-7.24D-03 OVMax= 1.11D-02

 Cycle   4  Pass 0  IDiag  1:
 E= -75.7395805241602     Delta-E=       -0.000763845091 Rises=F Damp=F
 DIIS: error= 6.46D-04 at cycle   4 NSaved=   4.
 NSaved= 4 IEnMin= 4 EnMin= -75.7395805241602     IErMin= 4 ErrMin= 6.46D-04
 ErrMax= 6.46D-04  0.00D+00 EMaxC= 1.00D-01 BMatC= 4.46D-05 BMatP= 4.77D-03
 IDIUse=3 WtCom= 9.94D-01 WtEn= 6.46D-03
 Coeff-Com:  0.442D-01-0.903D-01-0.964D-01 0.114D+01
 Coeff-En:   0.000D+00 0.000D+00 0.000D+00 0.100D+01
 Coeff:      0.439D-01-0.897D-01-0.958D-01 0.114D+01
 Gap=     0.484 Goal=   None    Shift=    0.000
 Gap=     0.303 Goal=   None    Shift=    0.000
 RMSDP=3.28D-05 MaxDP=9.32D-04 DE=-7.64D-04 OVMax= 2.32D-03

 Cycle   5  Pass 0  IDiag  1:
 E= -75.7395969623833     Delta-E=       -0.000016438223 Rises=F Damp=F
 DIIS: error= 1.57D-04 at cycle   5 NSaved=   5.
 NSaved= 5 IEnMin= 5 EnMin= -75.7395969623833     IErMin= 5 ErrMin= 1.57D-04
 ErrMax= 1.57D-04  0.00D+00 EMaxC= 1.00D-01 BMatC= 3.56D-06 BMatP= 4.46D-05
 IDIUse=3 WtCom= 9.98D-01 WtEn= 1.57D-03
 Coeff-Com:  0.204D-01-0.394D-01-0.697D-01-0.113D-01 0.110D+01
 Coeff-En:   0.000D+00 0.000D+00 0.000D+00 0.000D+00 0.100D+01
 Coeff:      0.204D-01-0.393D-01-0.696D-01-0.113D-01 0.110D+01
 Gap=     0.484 Goal=   None    Shift=    0.000
 Gap=     0.303 Goal=   None    Shift=    0.000
 RMSDP=1.12D-05 MaxDP=3.34D-04 DE=-1.64D-05 OVMax= 7.22D-04

 Cycle   6  Pass 0  IDiag  1:
 E= -75.7395988081883     Delta-E=       -0.000001845805 Rises=F Damp=F
 DIIS: error= 4.46D-05 at cycle   6 NSaved=   6.
 NSaved= 6 IEnMin= 6 EnMin= -75.7395988081883     IErMin= 6 ErrMin= 4.46D-05
 ErrMax= 4.46D-05  0.00D+00 EMaxC= 1.00D-01 BMatC= 2.24D-07 BMatP= 3.56D-06
 IDIUse=1 WtCom= 1.00D+00 WtEn= 0.00D+00
 Coeff-Com: -0.666D-02 0.131D-01 0.211D-01-0.576D-01-0.270D+00 0.130D+01
 Coeff:     -0.666D-02 0.131D-01 0.211D-01-0.576D-01-0.270D+00 0.130D+01
 Gap=     0.484 Goal=   None    Shift=    0.000
 Gap=     0.303 Goal=   None    Shift=    0.000
 RMSDP=3.00D-06 MaxDP=6.38D-05 DE=-1.85D-06 OVMax= 2.73D-04

 Initial convergence to 1.0D-05 achieved.  Increase integral accuracy.
 Cycle   7  Pass 1  IDiag  1:
 E= -75.7396232511551     Delta-E=       -0.000024442967 Rises=F Damp=F
 DIIS: error= 1.20D-04 at cycle   1 NSaved=   1.
 NSaved= 1 IEnMin= 1 EnMin= -75.7396232511551     IErMin= 1 ErrMin= 1.20D-04
 ErrMax= 1.20D-04  0.00D+00 EMaxC= 1.00D-01 BMatC= 2.09D-06 BMatP= 2.09D-06
 IDIUse=3 WtCom= 9.99D-01 WtEn= 1.20D-03
 Coeff-Com:  0.100D+01
 Coeff-En:   0.100D+01
 Coeff:      0.100D+01
 Gap=     0.484 Goal=   None    Shift=    0.000
 Gap=     0.303 Goal=   None    Shift=    0.000
 RMSDP=3.00D-06 MaxDP=6.38D-05 DE=-2.44D-05 OVMax= 9.14D-05

 Cycle   8  Pass 1  IDiag  1:
 E= -75.7396233791668     Delta-E=       -0.000000128012 Rises=F Damp=F
 DIIS: error= 6.34D-06 at cycle   2 NSaved=   2.
 NSaved= 2 IEnMin= 2 EnMin= -75.7396233791668     IErMin= 2 ErrMin= 6.34D-06
 ErrMax= 6.34D-06  0.00D+00 EMaxC= 1.00D-01 BMatC= 6.61D-09 BMatP= 2.09D-06
 IDIUse=1 WtCom= 1.00D+00 WtEn= 0.00D+00
 Coeff-Com: -0.164D-01 0.102D+01
 Coeff:     -0.164D-01 0.102D+01
 Gap=     0.484 Goal=   None    Shift=    0.000
 Gap=     0.303 Goal=   None    Shift=    0.000
 RMSDP=3.30D-07 MaxDP=8.10D-06 DE=-1.28D-07 OVMax= 3.14D-05

 Cycle   9  Pass 1  IDiag  1:
 E= -75.7396233814316     Delta-E=       -0.000000002265 Rises=F Damp=F
 DIIS: error= 3.05D-06 at cycle   3 NSaved=   3.
 NSaved= 3 IEnMin= 3 EnMin= -75.7396233814316     IErMin= 3 ErrMin= 3.05D-06
 ErrMax= 3.05D-06  0.00D+00 EMaxC= 1.00D-01 BMatC= 8.10D-10 BMatP= 6.61D-09
 IDIUse=1 WtCom= 1.00D+00 WtEn= 0.00D+00
 Coeff-Com: -0.120D-02-0.675D-01 0.107D+01
 Coeff:     -0.120D-02-0.675D-01 0.107D+01
 Gap=     0.484 Goal=   None    Shift=    0.000
 Gap=     0.303 Goal=   None    Shift=    0.000
 RMSDP=1.85D-07 MaxDP=5.75D-06 DE=-2.26D-09 OVMax= 1.62D-05

 Cycle  10  Pass 1  IDiag  1:
 E= -75.7396233818087     Delta-E=       -0.000000000377 Rises=F Damp=F
 DIIS: error= 1.74D-06 at cycle   4 NSaved=   4.
 NSaved= 4 IEnMin= 4 EnMin= -75.7396233818087     IErMin= 4 ErrMin= 1.74D-06
 ErrMax= 1.74D-06  0.00D+00 EMaxC= 1.00D-01 BMatC= 3.35D-10 BMatP= 8.10D-10
 IDIUse=1 WtCom= 1.00D+00 WtEn= 0.00D+00
 Coeff-Com:  0.122D-02-0.112D+00 0.366D+00 0.745D+00
 Coeff:      0.122D-02-0.112D+00 0.366D+00 0.745D+00
 Gap=     0.484 Goal=   None    Shift=    0.000
 Gap=     0.303 Goal=   None    Shift=    0.000
 RMSDP=7.21D-08 MaxDP=2.60D-06 DE=-3.77D-10 OVMax= 6.83D-06

 Cycle  11  Pass 1  IDiag  1:
 E= -75.7396233819063     Delta-E=       -0.000000000098 Rises=F Damp=F
 DIIS: error= 6.99D-07 at cycle   5 NSaved=   5.
 NSaved= 5 IEnMin= 5 EnMin= -75.7396233819063     IErMin= 5 ErrMin= 6.99D-07
 ErrMax= 6.99D-07  0.00D+00 EMaxC= 1.00D-01 BMatC= 4.71D-11 BMatP= 3.35D-10
 IDIUse=1 WtCom= 1.00D+00 WtEn= 0.00D+00
 Coeff-Com:  0.726D-03 0.346D-02-0.265D+00 0.785D-01 0.118D+01
 Coeff:      0.726D-03 0.346D-02-0.265D+00 0.785D-01 0.118D+01
 Gap=     0.484 Goal=   None    Shift=    0.000
 Gap=     0.303 Goal=   None    Shift=    0.000
 RMSDP=4.84D-08 MaxDP=1.10D-06 DE=-9.76D-11 OVMax= 4.78D-06

 Cycle  12  Pass 1  IDiag  1:
 E= -75.7396233819304     Delta-E=       -0.000000000024 Rises=F Damp=F
 DIIS: error= 7.04D-08 at cycle   6 NSaved=   6.
 NSaved= 6 IEnMin= 6 EnMin= -75.7396233819304     IErMin= 6 ErrMin= 7.04D-08
 ErrMax= 7.04D-08  0.00D+00 EMaxC= 1.00D-01 BMatC= 7.54D-13 BMatP= 4.71D-11
 IDIUse=1 WtCom= 1.00D+00 WtEn= 0.00D+00
 Coeff-Com: -0.194D-03 0.512D-02 0.357D-01-0.414D-01-0.232D+00 0.123D+01
 Coeff:     -0.194D-03 0.512D-02 0.357D-01-0.414D-01-0.232D+00 0.123D+01
 Gap=     0.484 Goal=   None    Shift=    0.000
 Gap=     0.303 Goal=   None    Shift=    0.000
 RMSDP=4.91D-09 MaxDP=1.27D-07 DE=-2.42D-11 OVMax= 4.12D-07

 SCF Done:  E(UM062X) =  -75.7396233819     A.U. after   12 cycles
            NFock= 12  Conv=0.49D-08     -V/T= 2.0027
 <Sx>= 0.0000 <Sy>= 0.0000 <Sz>= 0.5000 <S**2>= 0.7529 S= 0.5014
 <L.S>= 0.000000000000E+00
 KE= 7.553530556012D+01 PE=-1.881902235660D+02 EE= 3.254597607691D+01
 Annihilation of the first spin contaminant:
 S**2 before annihilation     0.7529,   after     0.7500
 Leave Link  502 at Fri Apr 16 23:18:45 2021, MaxMem=   104857600 cpu:            2137.7 elap:              45.8
 (Enter /s/ls4/users/knvvv/bin/g16sse/l601.exe)
 Copying SCF densities to generalized density rwf, IOpCl= 1 IROHF=0.

 **********************************************************************

            Population analysis using the SCF density.

 **********************************************************************

 Orbital symmetries:
 Alpha Orbitals:
       Occupied  (SG) (SG) (SG) (PI) (PI)
       Virtual   (SG) (SG) (PI) (PI) (SG) (PI) (PI) (SG) (?A) (?A)
                 (?A) (?A) (PI) (PI) (PI) (SG) (PI) (?B) (?B) (?B)
                 (PI) (PI) (SG) (PI) (PI) (SG) (PHI) (PHI) (SG)
                 (DLTA) (DLTA) (?C) (?C) (PI) (PI) (SG) (PI) (?C)
                 (PI) (PI) (PI) (SG) (PHI) (PHI) (DLTA) (DLTA)
                 (SG) (PI) (PI) (SG) (PI) (PI) (DLTA) (DLTA) (SG)
                 (PI) (PI) (?D) (?D) (PHI) (PHI) (?E) (?E) (?E)
                 (?F) (?F) (?F) (?F) (?E) (?E) (?E) (PI) (PI) (?G)
                 (?G) (?G) (SG) (PI) (PI) (SG) (SG) (SG)
 Beta  Orbitals:
       Occupied  (SG) (SG) (SG) (?A)
       Virtual   (?A) (SG) (SG) (?A) (?A) (SG) (PI) (PI) (?B) (SG)
                 (SG) (?B) (?B) (?A) (?A) (SG) (?A) (?A) (?C) (?C)
                 (?C) (PI) (PI) (SG) (PI) (PI) (SG) (PHI) (PHI)
                 (SG) (?D) (?D) (PI) (?D) (?D) (PI) (?D) (PI) (PI)
                 (SG) (PI) (PI) (SG) (PHI) (PHI) (DLTA) (DLTA)
                 (SG) (PI) (PI) (SG) (DLTA) (PI) (DLTA) (PI) (SG)
                 (PI) (PI) (?E) (?E) (PHI) (PHI) (DLTA) (DLTA)
                 (SG) (?F) (?F) (?F) (?G) (?F) (?G) (?G) (PI) (PI)
                 (?H) (?H) (?H) (?H) (PI) (PI) (SG) (SG) (SG)
 Unable to determine electronic state:  an orbital has unidentified symmetry.
 Alpha  occ. eigenvalues --  -19.69730  -1.14730  -0.56743  -0.50601  -0.44277
 Alpha virt. eigenvalues --    0.04094   0.28429   0.29289   0.29517   0.30878
 Alpha virt. eigenvalues --    0.55542   0.55958   0.58996   0.92170   0.99868
 Alpha virt. eigenvalues --    1.03935   1.04023   1.29692   1.31472   1.33708
 Alpha virt. eigenvalues --    1.34582   1.37769   1.84789   2.00799   2.00858
 Alpha virt. eigenvalues --    2.17409   2.17713   2.44107   2.58324   2.59112
 Alpha virt. eigenvalues --    2.98034   3.09511   3.09597   3.09866   3.43273
 Alpha virt. eigenvalues --    3.43287   3.75000   3.75093   3.76753   3.79982
 Alpha virt. eigenvalues --    4.20427   4.28046   4.29184   4.31317   5.06387
 Alpha virt. eigenvalues --    5.11471   5.27027   5.68805   5.68808   6.38078
 Alpha virt. eigenvalues --    6.38132   6.95525   7.00604   7.01417   7.11580
 Alpha virt. eigenvalues --    7.56235   7.57381   7.58802   7.58843   8.19250
 Alpha virt. eigenvalues --    8.38298   8.40489   8.73185   8.73213   8.89973
 Alpha virt. eigenvalues --    8.89979   9.93421   9.93521  10.17162  10.56251
 Alpha virt. eigenvalues --   10.61062  10.71809  10.71888  10.79178  10.89218
 Alpha virt. eigenvalues --   10.89581  11.44075  11.50586  11.75899  11.79241
 Alpha virt. eigenvalues --   11.79408  13.43340  13.47916  13.54122  16.16305
 Alpha virt. eigenvalues --   47.62426 250.63436
  Beta  occ. eigenvalues --  -19.68058  -1.06373  -0.53540  -0.40694
  Beta virt. eigenvalues --   -0.10387   0.03970   0.28216   0.28637   0.29773
  Beta virt. eigenvalues --    0.31164   0.54844   0.55941   0.57411   0.90429
  Beta virt. eigenvalues --    1.01338   1.04855   1.06007   1.30100   1.31857
  Beta virt. eigenvalues --    1.35350   1.37570   1.38799   1.83451   2.00607
  Beta virt. eigenvalues --    2.00896   2.16550   2.18139   2.44378   2.57782
  Beta virt. eigenvalues --    2.60451   2.98324   3.10142   3.11252   3.13635
  Beta virt. eigenvalues --    3.44072   3.44834   3.77434   3.77611   3.78866
  Beta virt. eigenvalues --    3.80656   4.20063   4.30101   4.31531   4.33474
  Beta virt. eigenvalues --    5.12683   5.13361   5.28861   5.68841   5.68893
  Beta virt. eigenvalues --    6.39226   6.39232   6.97271   7.02629   7.03121
  Beta virt. eigenvalues --    7.12751   7.58750   7.58776   7.58821   7.59613
  Beta virt. eigenvalues --    8.22268   8.42246   8.42399   8.78136   8.79162
  Beta virt. eigenvalues --    8.93299   8.95491   9.96126   9.98483  10.19079
  Beta virt. eigenvalues --   10.60124  10.63665  10.86034  10.87070  10.90011
  Beta virt. eigenvalues --   10.99178  11.02314  11.52957  11.61058  11.80935
  Beta virt. eigenvalues --   11.95500  11.97561  13.56217  13.57036  13.64284
  Beta virt. eigenvalues --   16.21659  47.73583 250.62836
          Condensed to atoms (all electrons):
               1          2
     1  O    8.019384   0.263838
     2  H    0.263838   0.452940
          Atomic-Atomic Spin Densities.
               1          2
     1  O    0.997944   0.030147
     2  H    0.030147  -0.058237
 Mulliken charges and spin densities:
               1          2
     1  O   -0.283222   1.028091
     2  H    0.283222  -0.028091
 Sum of Mulliken charges =  -0.00000   1.00000
 Mulliken charges and spin densities with hydrogens summed into heavy atoms:
               1          2
     1  O   -0.000000   1.000000
 Electronic spatial extent (au):  <R**2>=             15.5725
 Charge=              0.0000 electrons
 Dipole moment (field-independent basis, Debye):
    X=             -0.0000    Y=              0.0000    Z=             -1.7146  Tot=              1.7146
 Quadrupole moment (field-independent basis, Debye-Ang):
   XX=             -6.7838   YY=             -5.5119   ZZ=             -4.6418
   XY=             -0.0000   XZ=             -0.0000   YZ=              0.0000
 Traceless Quadrupole moment (field-independent basis, Debye-Ang):
   XX=             -1.1380   YY=              0.1340   ZZ=              1.0040
   XY=             -0.0000   XZ=             -0.0000   YZ=              0.0000
 Octapole moment (field-independent basis, Debye-Ang**2):
  XXX=             -0.0000  YYY=              0.0000  ZZZ=             -2.0021  XYY=             -0.0000
  XXY=              0.0000  XXZ=             -0.2436  XZZ=             -0.0000  YZZ=             -0.0000
  YYZ=             -0.1726  XYZ=             -0.0000
 Hexadecapole moment (field-independent basis, Debye-Ang**3):
 XXXX=             -5.9315 YYYY=             -3.9571 ZZZZ=             -5.5430 XXXY=             -0.0000
 XXXZ=             -0.0000 YYYX=             -0.0000 YYYZ=              0.0000 ZZZX=             -0.0000
 ZZZY=              0.0000 XXYY=             -1.6493 XXZZ=             -2.1877 YYZZ=             -1.8300
 XXYZ=              0.0000 YYXZ=             -0.0000 ZZXY=             -0.0000
 N-N= 4.369318547003D+00 E-N=-1.881902235586D+02  KE= 7.553530556012D+01
                          Isotropic Fermi Contact Couplings
        Atom                 a.u.       MegaHertz       Gauss      10(-4) cm-1
     1  O(17)              0.14651     -88.81218     -31.69040     -29.62456
     2  H(1)              -0.01639     -73.27540     -26.14648     -24.44204
 PrsmSu:  requested number of processors reduced to:  21 ShMem   1 Linda.
 --------------------------------------------------------
       Center         ----  Spin Dipole Couplings  ----
                      3XX-RR        3YY-RR        3ZZ-RR
 --------------------------------------------------------
     1   Atom       -1.941463      3.870609     -1.929146
     2   Atom       -0.134867     -0.035407      0.170274
 --------------------------------------------------------
                        XY            XZ            YZ
 --------------------------------------------------------
     1   Atom        0.000000      0.000000      0.000000
     2   Atom        0.000000      0.000000      0.000000
 --------------------------------------------------------


 ---------------------------------------------------------------------------------
              Anisotropic Spin Dipole Couplings in Principal Axis System
 ---------------------------------------------------------------------------------

       Atom             a.u.   MegaHertz   Gauss  10(-4) cm-1        Axes

              Baa    -1.9415   140.483    50.128    46.860  1.0000  0.0000  0.0000
     1 O(17)  Bbb    -1.9291   139.592    49.810    46.563  0.0000  0.0000  1.0000
              Bcc     3.8706  -280.075   -99.938   -93.423 -0.0000  1.0000  0.0000
 
              Baa    -0.1349   -71.959   -25.677   -24.003  1.0000  0.0000  0.0000
     2 H(1)   Bbb    -0.0354   -18.891    -6.741    -6.301 -0.0000  1.0000  0.0000
              Bcc     0.1703    90.850    32.418    30.304  0.0000  0.0000  1.0000
 

 ---------------------------------------------------------------------------------

 PrsmSu:  requested number of processors reduced to:  21 ShMem   1 Linda.
 No NMR shielding tensors so no spin-rotation constants.
 Leave Link  601 at Fri Apr 16 23:18:47 2021, MaxMem=   104857600 cpu:              79.4 elap:               1.9
 (Enter /s/ls4/users/knvvv/bin/g16sse/l801.exe)
 DoSCS=F DFT=T ScalE2(SS,OS)=  1.000000  1.000000
 Range of M.O.s used for correlation:     1    87
 NBasis=    87 NAE=     5 NBE=     4 NFC=     0 NFV=     0
 NROrb=     87 NOA=     5 NOB=     4 NVA=    82 NVB=    83

 **** Warning!!: The largest alpha MO coefficient is  0.12081508D+02


 **** Warning!!: The largest beta MO coefficient is  0.12127974D+02

 Leave Link  801 at Fri Apr 16 23:18:47 2021, MaxMem=   104857600 cpu:               3.1 elap:               0.1
 (Enter /s/ls4/users/knvvv/bin/g16sse/l914.exe)
 UHF ground state
 Doing stability rather than CIS.
 Keep R1 and R2 ints in memory in symmetry-blocked form, NReq=79415062.
 FoFCou: FMM=F IPFlag=           0 FMFlag=           0 FMFlg1=           0
         NFxFlg=           0 DoJE=F BraDBF=F KetDBF=F FulRan=T
         wScrn=  0.000000 ICntrl=       600 IOpCl=  0 I1Cent=           0 NGrid=           0
         NMat0=    1 NMatS0=   3828 NMatT0=    0 NMatD0=    1 NMtDS0=    0 NMtDT0=    0
 Petite list used in FoFCou.
 CoulSu:  requested number of processors reduced to:  21 ShMem   1 Linda.
 MDV=   104857600 DFT=T DoStab=T Mixed=T DoRPA=F DoScal=F NonHer=F
 Making orbital integer symmetry assigments:
 Orbital symmetries:
 Alpha Orbitals:
       Occupied  (SG) (SG) (SG) (PI) (PI)
       Virtual   (SG) (SG) (PI) (PI) (SG) (PI) (PI) (SG) (?A) (?A)
                 (?A) (?A) (PI) (PI) (PI) (SG) (PI) (?B) (?B) (?B)
                 (PI) (PI) (SG) (PI) (PI) (SG) (PHI) (PHI) (SG)
                 (DLTA) (DLTA) (?C) (?C) (PI) (PI) (SG) (PI) (?C)
                 (PI) (PI) (PI) (SG) (PHI) (PHI) (DLTA) (DLTA)
                 (SG) (PI) (PI) (SG) (PI) (PI) (DLTA) (DLTA) (SG)
                 (PI) (PI) (?D) (?D) (PHI) (PHI) (?E) (?E) (?E)
                 (?F) (?F) (?F) (?F) (?E) (?E) (?E) (PI) (PI) (?G)
                 (?G) (?G) (SG) (PI) (PI) (SG) (SG) (SG)
 Beta  Orbitals:
       Occupied  (SG) (SG) (SG) (?A)
       Virtual   (?A) (SG) (SG) (?A) (?A) (SG) (PI) (PI) (?B) (SG)
                 (SG) (?B) (?B) (?A) (?A) (SG) (?A) (?A) (?C) (?C)
                 (?C) (PI) (PI) (SG) (PI) (PI) (SG) (PHI) (PHI)
                 (SG) (?D) (?D) (PI) (?D) (?D) (PI) (?D) (PI) (PI)
                 (SG) (PI) (PI) (SG) (PHI) (PHI) (DLTA) (DLTA)
                 (SG) (PI) (PI) (SG) (DLTA) (PI) (DLTA) (PI) (SG)
                 (PI) (PI) (?E) (?E) (PHI) (PHI) (DLTA) (DLTA)
                 (SG) (?F) (?F) (?F) (?G) (?F) (?G) (?G) (PI) (PI)
                 (?H) (?H) (?H) (?H) (PI) (PI) (SG) (SG) (SG)
    12 initial guesses have been made.
 Convergence on wavefunction:    0.001000000000000
 Davidson Disk Diagonalization:  ConvIn= 1.00D-03 SkipCon=T Conv= 1.00D-03.
 Max sub-space:  1484 roots to seek:    12 dimension of matrix:          742
 Iteration     1 Dimension    12 NMult     0 NNew     12
 CISAX will form    12 AO SS matrices at one time.
 NMat=    12 NSing=    12 JSym2X= 2.
 Excitation Energies [eV] at current iteration:
 Root      1 :     0.254444083650442
 Root      2 :     4.647799979089758
 Root      3 :     8.267116418246951
 Root      4 :     9.400587319483463
 Root      5 :    10.972707566370900
 Root      6 :    12.043058730086130
 Root      7 :    13.168584335974350
 Root      8 :    14.360017007242230
 Root      9 :    14.601115815009320
 Root     10 :    14.981610300250540
 Root     11 :    15.661285199440210
 Root     12 :    17.228448193999420
 Iteration     2 Dimension    24 NMult    12 NNew     12
 CISAX will form    12 AO SS matrices at one time.
 NMat=    12 NSing=    12 JSym2X= 2.
 Root      1 not converged, maximum delta is    0.037452553339217
 Excitation Energies [eV] at current iteration:
 Root      1 :     0.003687907375840   Change is   -0.250756176274602
 Root      2 :     3.940532939641402   Change is   -0.707267039448356
 Root      3 :     7.940608198667231   Change is   -0.326508219579720
 Root      4 :     9.029153157326924   Change is   -0.371434162156540
 Root      5 :    10.447057127490950   Change is   -0.525650438879951
 Root      6 :    10.846441294445350   Change is   -1.196617435640777
 Root      7 :    12.781516184588520   Change is   -0.387068151385833
 Root      8 :    13.991881676869010   Change is   -0.368135330373217
 Root      9 :    14.333355764077340   Change is   -2.895092429922081
 Root     10 :    14.430043583617410   Change is   -0.171072231391914
 Root     11 :    14.758114164064580   Change is   -0.223496136185967
 Root     12 :    15.351884060505320   Change is   -0.309401138934890
 Iteration     3 Dimension    27 NMult    24 NNew      3
 CISAX will form     3 AO SS matrices at one time.
 NMat=     3 NSing=     3 JSym2X= 2.
 Root      1 not converged, maximum delta is    0.007405759802452
 Excitation Energies [eV] at current iteration:
 Root      1 :    -0.000005590721269   Change is   -0.003693498097109
 Root      2 :     3.891711202502901   Change is   -0.048821737138500
 Root      3 :     7.933502417579690   Change is   -0.007105781087542
 Iteration     4 Dimension    30 NMult    27 NNew      3
 CISAX will form     3 AO SS matrices at one time.
 NMat=     3 NSing=     3 JSym2X= 2.
 Root      1 has converged.
 Excitation Energies [eV] at current iteration:
 Root      1 :    -0.000083848838371   Change is   -0.000078258117102
 Root      2 :     3.889062562192795   Change is   -0.002648640310107
 Root      3 :     7.933393657635038   Change is   -0.000108759944652
 Convergence achieved on expansion vectors.
 ***********************************************************************
 Stability analysis using <AA,BB:AA,BB> singles matrix:
 ***********************************************************************
 1PDM for each excited state written to RWF  633
 Ground to excited state transition densities written to RWF  633

 Eigenvectors of the stability matrix:
 
 Excited state symmetry could not be determined.
 Eigenvector   1:  2.005-?Sym  Eigenvalue=-0.0000031  <S**2>=0.755
      4B ->  5B        0.98068
      4B ->  8B       -0.18148
 The wavefunction is stable under the perturbations considered.
 Leave Link  914 at Fri Apr 16 23:19:01 2021, MaxMem=   104857600 cpu:             639.8 elap:              13.9
 (Enter /s/ls4/users/knvvv/bin/g16sse/l508.exe)
 The wavefunction is already stable.
 Leave Link  508 at Fri Apr 16 23:19:01 2021, MaxMem=   104857600 cpu:               2.2 elap:               0.1
 (Enter /s/ls4/users/knvvv/bin/g16sse/l601.exe)
 Copying SCF densities to generalized density rwf, IOpCl= 1 IROHF=0.

 **********************************************************************

            Population analysis using the SCF density.

 **********************************************************************

 Orbital symmetries:
 Alpha Orbitals:
       Occupied  (SG) (SG) (SG) (PI) (PI)
       Virtual   (SG) (SG) (PI) (PI) (SG) (PI) (PI) (SG) (?A) (?A)
                 (?A) (?A) (PI) (PI) (PI) (SG) (PI) (?B) (?B) (?B)
                 (PI) (PI) (SG) (PI) (PI) (SG) (PHI) (PHI) (SG)
                 (DLTA) (DLTA) (?C) (?C) (PI) (PI) (SG) (PI) (?C)
                 (PI) (PI) (PI) (SG) (PHI) (PHI) (DLTA) (DLTA)
                 (SG) (PI) (PI) (SG) (PI) (PI) (DLTA) (DLTA) (SG)
                 (PI) (PI) (?D) (?D) (PHI) (PHI) (?E) (?E) (?E)
                 (?F) (?F) (?F) (?F) (?E) (?E) (?E) (PI) (PI) (?G)
                 (?G) (?G) (SG) (PI) (PI) (SG) (SG) (SG)
 Beta  Orbitals:
       Occupied  (SG) (SG) (SG) (?A)
       Virtual   (?A) (SG) (SG) (?A) (?A) (SG) (PI) (PI) (?B) (SG)
                 (SG) (?B) (?B) (?A) (?A) (SG) (?A) (?A) (?C) (?C)
                 (?C) (PI) (PI) (SG) (PI) (PI) (SG) (PHI) (PHI)
                 (SG) (?D) (?D) (PI) (?D) (?D) (PI) (?D) (PI) (PI)
                 (SG) (PI) (PI) (SG) (PHI) (PHI) (DLTA) (DLTA)
                 (SG) (PI) (PI) (SG) (DLTA) (PI) (DLTA) (PI) (SG)
                 (PI) (PI) (?E) (?E) (PHI) (PHI) (DLTA) (DLTA)
                 (SG) (?F) (?F) (?F) (?G) (?F) (?G) (?G) (PI) (PI)
                 (?H) (?H) (?H) (?H) (PI) (PI) (SG) (SG) (SG)
 Unable to determine electronic state:  an orbital has unidentified symmetry.
 Alpha  occ. eigenvalues --  -19.69730  -1.14730  -0.56743  -0.50601  -0.44277
 Alpha virt. eigenvalues --    0.04094   0.28429   0.29289   0.29517   0.30878
 Alpha virt. eigenvalues --    0.55542   0.55958   0.58996   0.92170   0.99868
 Alpha virt. eigenvalues --    1.03935   1.04023   1.29692   1.31472   1.33708
 Alpha virt. eigenvalues --    1.34582   1.37769   1.84789   2.00799   2.00858
 Alpha virt. eigenvalues --    2.17409   2.17713   2.44107   2.58324   2.59112
 Alpha virt. eigenvalues --    2.98034   3.09511   3.09597   3.09866   3.43273
 Alpha virt. eigenvalues --    3.43287   3.75000   3.75093   3.76753   3.79982
 Alpha virt. eigenvalues --    4.20427   4.28046   4.29184   4.31317   5.06387
 Alpha virt. eigenvalues --    5.11471   5.27027   5.68805   5.68808   6.38078
 Alpha virt. eigenvalues --    6.38132   6.95525   7.00604   7.01417   7.11580
 Alpha virt. eigenvalues --    7.56235   7.57381   7.58802   7.58843   8.19250
 Alpha virt. eigenvalues --    8.38298   8.40489   8.73185   8.73213   8.89973
 Alpha virt. eigenvalues --    8.89979   9.93421   9.93521  10.17162  10.56251
 Alpha virt. eigenvalues --   10.61062  10.71809  10.71888  10.79178  10.89218
 Alpha virt. eigenvalues --   10.89581  11.44075  11.50586  11.75899  11.79241
 Alpha virt. eigenvalues --   11.79408  13.43340  13.47916  13.54122  16.16305
 Alpha virt. eigenvalues --   47.62426 250.63436
  Beta  occ. eigenvalues --  -19.68058  -1.06373  -0.53540  -0.40694
  Beta virt. eigenvalues --   -0.10387   0.03970   0.28216   0.28637   0.29773
  Beta virt. eigenvalues --    0.31164   0.54844   0.55941   0.57411   0.90429
  Beta virt. eigenvalues --    1.01338   1.04855   1.06007   1.30100   1.31857
  Beta virt. eigenvalues --    1.35350   1.37570   1.38799   1.83451   2.00607
  Beta virt. eigenvalues --    2.00896   2.16550   2.18139   2.44378   2.57782
  Beta virt. eigenvalues --    2.60451   2.98324   3.10142   3.11252   3.13635
  Beta virt. eigenvalues --    3.44072   3.44834   3.77434   3.77611   3.78866
  Beta virt. eigenvalues --    3.80656   4.20063   4.30101   4.31531   4.33474
  Beta virt. eigenvalues --    5.12683   5.13361   5.28861   5.68841   5.68893
  Beta virt. eigenvalues --    6.39226   6.39232   6.97271   7.02629   7.03121
  Beta virt. eigenvalues --    7.12751   7.58750   7.58776   7.58821   7.59613
  Beta virt. eigenvalues --    8.22268   8.42246   8.42399   8.78136   8.79162
  Beta virt. eigenvalues --    8.93299   8.95491   9.96126   9.98483  10.19079
  Beta virt. eigenvalues --   10.60124  10.63665  10.86034  10.87070  10.90011
  Beta virt. eigenvalues --   10.99178  11.02314  11.52957  11.61058  11.80935
  Beta virt. eigenvalues --   11.95500  11.97561  13.56217  13.57036  13.64284
  Beta virt. eigenvalues --   16.21659  47.73583 250.62836
          Condensed to atoms (all electrons):
               1          2
     1  O    8.019384   0.263838
     2  H    0.263838   0.452940
          Atomic-Atomic Spin Densities.
               1          2
     1  O    0.997944   0.030147
     2  H    0.030147  -0.058237
 Mulliken charges and spin densities:
               1          2
     1  O   -0.283222   1.028091
     2  H    0.283222  -0.028091
 Sum of Mulliken charges =  -0.00000   1.00000
 Mulliken charges and spin densities with hydrogens summed into heavy atoms:
               1          2
     1  O   -0.000000   1.000000
 Electronic spatial extent (au):  <R**2>=             15.5725
 Charge=              0.0000 electrons
 Dipole moment (field-independent basis, Debye):
    X=             -0.0000    Y=              0.0000    Z=             -1.7146  Tot=              1.7146
 Quadrupole moment (field-independent basis, Debye-Ang):
   XX=             -6.7838   YY=             -5.5119   ZZ=             -4.6418
   XY=             -0.0000   XZ=             -0.0000   YZ=              0.0000
 Traceless Quadrupole moment (field-independent basis, Debye-Ang):
   XX=             -1.1380   YY=              0.1340   ZZ=              1.0040
   XY=             -0.0000   XZ=             -0.0000   YZ=              0.0000
 Octapole moment (field-independent basis, Debye-Ang**2):
  XXX=             -0.0000  YYY=              0.0000  ZZZ=             -2.0021  XYY=             -0.0000
  XXY=              0.0000  XXZ=             -0.2436  XZZ=             -0.0000  YZZ=             -0.0000
  YYZ=             -0.1726  XYZ=             -0.0000
 Hexadecapole moment (field-independent basis, Debye-Ang**3):
 XXXX=             -5.9315 YYYY=             -3.9571 ZZZZ=             -5.5430 XXXY=             -0.0000
 XXXZ=             -0.0000 YYYX=             -0.0000 YYYZ=              0.0000 ZZZX=             -0.0000
 ZZZY=              0.0000 XXYY=             -1.6493 XXZZ=             -2.1877 YYZZ=             -1.8300
 XXYZ=              0.0000 YYXZ=             -0.0000 ZZXY=             -0.0000
 N-N= 4.369318547003D+00 E-N=-1.881902235586D+02  KE= 7.553530556012D+01
                          Isotropic Fermi Contact Couplings
        Atom                 a.u.       MegaHertz       Gauss      10(-4) cm-1
     1  O(17)              0.14651     -88.81218     -31.69040     -29.62456
     2  H(1)              -0.01639     -73.27540     -26.14648     -24.44204
 PrsmSu:  requested number of processors reduced to:  21 ShMem   1 Linda.
 --------------------------------------------------------
       Center         ----  Spin Dipole Couplings  ----
                      3XX-RR        3YY-RR        3ZZ-RR
 --------------------------------------------------------
     1   Atom       -1.941463      3.870609     -1.929146
     2   Atom       -0.134867     -0.035407      0.170274
 --------------------------------------------------------
                        XY            XZ            YZ
 --------------------------------------------------------
     1   Atom        0.000000      0.000000      0.000000
     2   Atom        0.000000      0.000000      0.000000
 --------------------------------------------------------


 ---------------------------------------------------------------------------------
              Anisotropic Spin Dipole Couplings in Principal Axis System
 ---------------------------------------------------------------------------------

       Atom             a.u.   MegaHertz   Gauss  10(-4) cm-1        Axes

              Baa    -1.9415   140.483    50.128    46.860  1.0000  0.0000  0.0000
     1 O(17)  Bbb    -1.9291   139.592    49.810    46.563  0.0000  0.0000  1.0000
              Bcc     3.8706  -280.075   -99.938   -93.423 -0.0000  1.0000  0.0000
 
              Baa    -0.1349   -71.959   -25.677   -24.003  1.0000  0.0000  0.0000
     2 H(1)   Bbb    -0.0354   -18.891    -6.741    -6.301 -0.0000  1.0000  0.0000
              Bcc     0.1703    90.850    32.418    30.304  0.0000  0.0000  1.0000
 

 ---------------------------------------------------------------------------------

 PrsmSu:  requested number of processors reduced to:  21 ShMem   1 Linda.
 No NMR shielding tensors so no spin-rotation constants.
 Leave Link  601 at Fri Apr 16 23:19:03 2021, MaxMem=   104857600 cpu:              86.5 elap:               2.0
 (Enter /s/ls4/users/knvvv/bin/g16sse/l9999.exe)

 Test job not archived.
 1\1\GINC-N149\Stability\UM062X\def2QZVP\H1O1(2)\KNVVV\16-Apr-2021\0\\#
 P M062X/Def2QZVP Integral=UltraFineGrid SCF=NoSymm Stable=(RExt, Opt) 
 IOp(1/33=1)\\Database calculations.\\0,2\O,0,0.,0.,0.1076552904\H,0,0.
 ,0.,-0.8612412645\\Version=ES64L-G16RevA.03\HF=-75.7396234\S2=0.752882
 \S2-1=0.\S2A=0.750006\RMSD=4.907e-09\Dipole=0.,0.,-0.6745571\Quadrupol
 e=-0.8460425,0.0995893,0.7464533,0.,0.,0.\PG=C*V [C*(H1O1)]\\@


 NO SCIENCE HAS EVER MADE MORE RAPID PROGRESS IN A
 SHORTER TIME THAN CHEMISTRY.
   -- MARTIN HEINRICH KLOPROTH, 1791
 (FIRST PROFESSOR OF CHEMISTRY AT THE UNIVERSITY OF BERLIN)
 Job cpu time:       0 days  0 hours 53 minutes  4.5 seconds.
 Elapsed time:       0 days  0 hours  1 minutes  9.2 seconds.
 File lengths (MBytes):  RWF=     29 Int=      0 D2E=      0 Chk=      2 Scr=      1
 Normal termination of Gaussian 16 at Fri Apr 16 23:19:04 2021.
