 Entering Gaussian System, Link 0=/s/ls4/users/knvvv/bin/g16sse/g16
 Input=data/database/M062X--def2-QZVP--W4-11_foof.gjf
 Output=data/database/M062X--def2-QZVP--W4-11_foof.log
 Initial command:
 /s/ls4/users/knvvv/bin/g16sse/l1.exe "/s/ls4/users/knvvv/bin/scratch/Gau-10462.inp" -scrdir="/s/ls4/users/knvvv/bin/scratch/"
 Entering Link 1 = /s/ls4/users/knvvv/bin/g16sse/l1.exe PID=     10463.
  
 Copyright (c) 1988,1990,1992,1993,1995,1998,2003,2009,2016,
            Gaussian, Inc.  All Rights Reserved.
  
 This is part of the Gaussian(R) 16 program.  It is based on
 the Gaussian(R) 09 system (copyright 2009, Gaussian, Inc.),
 the Gaussian(R) 03 system (copyright 2003, Gaussian, Inc.),
 the Gaussian(R) 98 system (copyright 1998, Gaussian, Inc.),
 the Gaussian(R) 94 system (copyright 1995, Gaussian, Inc.),
 the Gaussian 92(TM) system (copyright 1992, Gaussian, Inc.),
 the Gaussian 90(TM) system (copyright 1990, Gaussian, Inc.),
 the Gaussian 88(TM) system (copyright 1988, Gaussian, Inc.),
 the Gaussian 86(TM) system (copyright 1986, Carnegie Mellon
 University), and the Gaussian 82(TM) system (copyright 1983,
 Carnegie Mellon University). Gaussian is a federally registered
 trademark of Gaussian, Inc.
  
 This software contains proprietary and confidential information,
 including trade secrets, belonging to Gaussian, Inc.
  
 This software is provided under written license and may be
 used, copied, transmitted, or stored only in accord with that
 written license.
  
 The following legend is applicable only to US Government
 contracts under FAR:
  
                    RESTRICTED RIGHTS LEGEND
  
 Use, reproduction and disclosure by the US Government is
 subject to restrictions as set forth in subparagraphs (a)
 and (c) of the Commercial Computer Software - Restricted
 Rights clause in FAR 52.227-19.
  
 Gaussian, Inc.
 340 Quinnipiac St., Bldg. 40, Wallingford CT 06492
  
  
 ---------------------------------------------------------------
 Warning -- This program may not be used in any manner that
 competes with the business of Gaussian, Inc. or will provide
 assistance to any competitor of Gaussian, Inc.  The licensee
 of this program is prohibited from giving any competitor of
 Gaussian, Inc. access to this program.  By using this program,
 the user acknowledges that Gaussian, Inc. is engaged in the
 business of creating and licensing software in the field of
 computational chemistry and represents and warrants to the
 licensee that it is not a competitor of Gaussian, Inc. and that
 it will not use this program in any manner prohibited above.
 ---------------------------------------------------------------
  

 Cite this work as:
 Gaussian 16, Revision A.03,
 M. J. Frisch, G. W. Trucks, H. B. Schlegel, G. E. Scuseria, 
 M. A. Robb, J. R. Cheeseman, G. Scalmani, V. Barone, 
 G. A. Petersson, H. Nakatsuji, X. Li, M. Caricato, A. V. Marenich, 
 J. Bloino, B. G. Janesko, R. Gomperts, B. Mennucci, H. P. Hratchian, 
 J. V. Ortiz, A. F. Izmaylov, J. L. Sonnenberg, D. Williams-Young, 
 F. Ding, F. Lipparini, F. Egidi, J. Goings, B. Peng, A. Petrone, 
 T. Henderson, D. Ranasinghe, V. G. Zakrzewski, J. Gao, N. Rega, 
 G. Zheng, W. Liang, M. Hada, M. Ehara, K. Toyota, R. Fukuda, 
 J. Hasegawa, M. Ishida, T. Nakajima, Y. Honda, O. Kitao, H. Nakai, 
 T. Vreven, K. Throssell, J. A. Montgomery, Jr., J. E. Peralta, 
 F. Ogliaro, M. J. Bearpark, J. J. Heyd, E. N. Brothers, K. N. Kudin, 
 V. N. Staroverov, T. A. Keith, R. Kobayashi, J. Normand, 
 K. Raghavachari, A. P. Rendell, J. C. Burant, S. S. Iyengar, 
 J. Tomasi, M. Cossi, J. M. Millam, M. Klene, C. Adamo, R. Cammi, 
 J. W. Ochterski, R. L. Martin, K. Morokuma, O. Farkas, 
 J. B. Foresman, and D. J. Fox, Gaussian, Inc., Wallingford CT, 2016.
 
 ******************************************
 Gaussian 16:  ES64L-G16RevA.03 25-Dec-2016
                18-Apr-2021 
 ******************************************
 %RWF=temp23_11713,70GB
 %nprocshared=48
 Will use up to   48 processors via shared memory.
 Default route: MaxDisk=80GB
 ----------------------------------------------------------------------
 #P M062X/Def2QZVP Integral=UltraFineGrid SCF=NoSymm Stable=(RExt, Opt)
  IOp(1/33=1)
 ----------------------------------------------------------------------
 1/33=1,38=1,172=1/1;
 2/12=2,17=6,18=5,40=1/2;
 3/5=45,7=101,11=2,25=1,30=1,74=-55,75=-5/1,2,3;
 4/9=2/1;
 5/5=2,38=5/2;
 6/7=2,8=2,9=2,10=2,28=1/1;
 8/6=1,10=90,11=11/1;
 9/8=-3,42=1,46=1/14;
 5/5=2,8=3,17=40,38=5/8(-2);
 6/7=2,8=2,9=2,10=2,28=1/1;
 99/5=1,9=1/99;
 Leave Link    1 at Sun Apr 18 04:00:08 2021, MaxMem=           0 cpu:               8.4 elap:               0.2
 (Enter /s/ls4/users/knvvv/bin/g16sse/l101.exe)
 ONIOM data not found on unit 2.
 ----------------------
 Database calculations.
 ----------------------
 TstMul:  ICh=     0
 TstMul:  Mul=     1
 TstMul:  ICh=     0
 TstMul:  Mul=     1
 Symbolic Z-matrix:
 Charge =  0 Multiplicity = 1
 F                     0.        0.        0. 
 O                     0.        0.        1.5323 
 O                     1.17059   0.        1.92303 
 F                     1.65066   1.45211   2.01708 
 
 RdStrC is calling ZToCFu for IStruc=1 NZ=     4.
 PrtBox:  NBox=     1 Levels=  1 BoxLen=    8.00 SMaxX=        3.81
          Shift=            0.000000            0.000000            0.000000
 Box      1 Number                   0 centers from      1 to      4:
 After GenITR:
 ITRead=  0  0  0  0
 MicOpt= -1 -1 -1 -1
 ITRead=  0  0  0  0
 MicOpt= -1 -1 -1 -1
 NAtoms=      4 NQM=        4 NQMF=       0 NMMI=      0 NMMIF=      0
                NMic=       0 NMicF=      0.
                    Isotopes and Nuclear Properties:
 (Nuclear quadrupole moments (NQMom) in fm**2, nuclear magnetic moments (NMagM)
  in nuclear magnetons)

  Atom         1           2           3           4
 IAtWgt=          19          16          16          19
 AtmWgt=  18.9984033  15.9949146  15.9949146  18.9984033
 NucSpn=           1           0           0           1
 AtZEff=  -0.0000000  -0.0000000  -0.0000000  -0.0000000
 NQMom=    0.0000000   0.0000000   0.0000000   0.0000000
 NMagM=    2.6288670   0.0000000   0.0000000   2.6288670
 AtZNuc=   9.0000000   8.0000000   8.0000000   9.0000000
 No MM parameters found.
 Leave Link  101 at Sun Apr 18 04:00:08 2021, MaxMem=   104857600 cpu:               5.3 elap:               0.1
 (Enter /s/ls4/users/knvvv/bin/g16sse/l202.exe)
                          Input orientation:                          
 ---------------------------------------------------------------------
 Center     Atomic      Atomic             Coordinates (Angstroms)
 Number     Number       Type             X           Y           Z
 ---------------------------------------------------------------------
      1          9           0        0.000000    0.000000    0.000000
      2          8           0        0.000000    0.000000    1.532297
      3          8           0        1.170585    0.000000    1.923028
      4          9           0        1.650660    1.452108    2.017076
 ---------------------------------------------------------------------
                    Distance matrix (angstroms):
                    1          2          3          4
     1  F    0.000000
     2  O    1.532297   0.000000
     3  O    2.251290   1.234075   0.000000
     4  F    2.983604   2.251290   1.532297   0.000000
 Stoichiometry    F2O2
 Framework group  C2[X(F2O2)]
 Deg. of freedom     4
 Full point group                 C2      NOp   2
 Largest Abelian subgroup         C2      NOp   2
 Largest concise Abelian subgroup C2      NOp   2
                         Standard orientation:                         
 ---------------------------------------------------------------------
 Center     Atomic      Atomic             Coordinates (Angstroms)
 Number     Number       Type             X           Y           Z
 ---------------------------------------------------------------------
      1          9           0        0.555710    1.384434   -0.493986
      2          8           0        0.555710    0.268181    0.555734
      3          8           0       -0.555710   -0.268181    0.555734
      4          9           0       -0.555710   -1.384434   -0.493986
 ---------------------------------------------------------------------
 Rotational constants (GHZ):          20.8474205           5.2240679           4.5622428
 Leave Link  202 at Sun Apr 18 04:00:08 2021, MaxMem=   104857600 cpu:               6.8 elap:               0.2
 (Enter /s/ls4/users/knvvv/bin/g16sse/l301.exe)
 Standard basis: def2QZVP (5D, 7F)
 Ernie: Thresh=  0.10000D-02 Tol=  0.10000D-05 Strict=F.
 There are   144 symmetry adapted cartesian basis functions of A   symmetry.
 There are   144 symmetry adapted cartesian basis functions of B   symmetry.
 There are   114 symmetry adapted basis functions of A   symmetry.
 There are   114 symmetry adapted basis functions of B   symmetry.
   228 basis functions,   368 primitive gaussians,   288 cartesian basis functions
    17 alpha electrons       17 beta electrons
       nuclear repulsion energy       125.3879884219 Hartrees.
 IExCor= 4336 DFT=T Ex+Corr=M062X ExCW=0 ScaHFX=  0.540000
 ScaDFX=  1.000000  1.000000  1.000000  1.000000 ScalE2=  1.000000  1.000000
 IRadAn=      5 IRanWt=     -1 IRanGd=            0 ICorTp=0 IEmpDi=  4
 NAtoms=    4 NActive=    4 NUniq=    2 SFac= 4.00D+00 NAtFMM=   60 NAOKFM=F Big=F
 Integral buffers will be    131072 words long.
 Raffenetti 2 integral format.
 Two-electron integral symmetry is turned on.
 Leave Link  301 at Sun Apr 18 04:00:09 2021, MaxMem=   104857600 cpu:               6.3 elap:               0.2
 (Enter /s/ls4/users/knvvv/bin/g16sse/l302.exe)
 NPDir=0 NMtPBC=     1 NCelOv=     1 NCel=       1 NClECP=     1 NCelD=      1
         NCelK=      1 NCelE2=     1 NClLst=     1 CellRange=     0.0.
 One-electron integrals computed using PRISM.
 One-electron integral symmetry used in STVInt
 PrsmSu:  requested number of processors reduced to:   4 ShMem   1 Linda.
 PrsmSu:  requested number of processors reduced to:  21 ShMem   1 Linda.
   2 Symmetry operations used in ECPInt.
 ECPInt:  NShTT=    2346 NPrTT=    6942 LenC2=    2261 LenP2D=    5452.
 LDataN:  DoStor=T MaxTD1= 8 Len=  415
 Number of processors reduced to  29 by ecpmxn.
 NBasis=   228 RedAO= T EigKep=  4.77D-04  NBF=   114   114
 NBsUse=   228 1.00D-06 EigRej= -1.00D+00 NBFU=   114   114
 Precomputing XC quadrature grid using
 IXCGrd= 4 IRadAn=           5 IRanWt=          -1 IRanGd=           0 AccXCQ= 0.00D+00.
 Generated NRdTot=       0 NPtTot=           0 NUsed=           0 NTot=          32
 NSgBfM=   285   285   285   285   285 MxSgAt=     4 MxSgA2=     4.
 Leave Link  302 at Sun Apr 18 04:00:17 2021, MaxMem=   104857600 cpu:             393.7 elap:               8.5
 (Enter /s/ls4/users/knvvv/bin/g16sse/l303.exe)
 DipDrv:  MaxL=1.
 Leave Link  303 at Sun Apr 18 04:00:19 2021, MaxMem=   104857600 cpu:              77.8 elap:               1.7
 (Enter /s/ls4/users/knvvv/bin/g16sse/l401.exe)
 SCF N**3 symmetry information disabled.
 ExpMin= 1.29D-01 ExpMax= 1.33D+05 ExpMxC= 1.27D+03 IAcc=3 IRadAn=         5 AccDes= 0.00D+00
 Harris functional with IExCor= 1009 and IRadAn=       5 diagonalized for initial guess.
 HarFok:  IExCor= 1009 AccDes= 0.00D+00 IRadAn=         5 IDoV= 1 UseB2=F ITyADJ=14
 ICtDFT=  3500011 ScaDFX=  1.000000  1.000000  1.000000  1.000000
 FoFCou: FMM=F IPFlag=           0 FMFlag=      100000 FMFlg1=           0
         NFxFlg=           0 DoJE=T BraDBF=F KetDBF=T FulRan=T
         wScrn=  0.000000 ICntrl=       500 IOpCl=  0 I1Cent=   200000004 NGrid=           0
         NMat0=    1 NMatS0=      1 NMatT0=    0 NMatD0=    1 NMtDS0=    0 NMtDT0=    0
 Petite list used in FoFCou.
 CoulSu:  requested number of processors reduced to:  21 ShMem   1 Linda.
 CoulSu:  requested number of processors reduced to:  21 ShMem   1 Linda.
 CoulSu:  requested number of processors reduced to:  21 ShMem   1 Linda.
 CoulSu:  requested number of processors reduced to:  21 ShMem   1 Linda.
 Harris En= -349.739364201221    
 JPrj=0 DoOrth=F DoCkMO=F.
 Initial guess orbital symmetries:
       Occupied  (B) (A) (A) (B) (A) (B) (A) (B) (A) (B) (A) (A)
                 (B) (B) (A) (B) (A)
       Virtual   (B) (A) (B) (A) (B) (B) (A) (A) (B) (A) (A) (B)
                 (A) (B) (B) (A) (B) (B) (A) (A) (B) (A) (B) (B)
                 (A) (B) (A) (B) (A) (A) (B) (A) (B) (B) (A) (B)
                 (A) (A) (A) (B) (B) (A) (B) (A) (B) (B) (A) (B)
                 (A) (B) (A) (A) (A) (B) (A) (B) (B) (A) (B) (A)
                 (A) (B) (A) (B) (B) (A) (A) (B) (A) (B) (B) (A)
                 (B) (B) (A) (B) (A) (A) (B) (A) (B) (A) (B) (B)
                 (A) (B) (A) (A) (B) (B) (A) (A) (B) (A) (B) (A)
                 (B) (A) (B) (A) (B) (A) (B) (A) (B) (A) (B) (A)
                 (B) (A) (B) (A) (B) (A) (B) (A) (B) (A) (B) (A)
                 (B) (A) (B) (A) (A) (B) (B) (A) (A) (B) (B) (B)
                 (A) (A) (B) (A) (B) (B) (A) (B) (B) (A) (A) (B)
                 (A) (A) (B) (B) (A) (A) (B) (A) (B) (B) (A) (B)
                 (A) (A) (B) (A) (A) (B) (B) (B) (A) (A) (B) (A)
                 (B) (A) (B) (A) (B) (A) (B) (A) (B) (A) (A) (B)
                 (A) (B) (B) (A) (A) (B) (A) (B) (B) (A) (B) (A)
                 (B) (A) (B) (B) (A) (B) (B) (A) (A) (A) (B) (A)
                 (B) (A) (B) (A) (B) (A) (B)
 The electronic state of the initial guess is 1-A.
 Leave Link  401 at Sun Apr 18 04:00:22 2021, MaxMem=   104857600 cpu:             162.9 elap:               3.7
 (Enter /s/ls4/users/knvvv/bin/g16sse/l502.exe)
 Integral symmetry usage will be decided dynamically.
 Closed shell SCF:
 Using DIIS extrapolation, IDIIS=  1040.
 NGot=   104857600 LenX=   104675000 LenY=   104591615
 Requested convergence on RMS density matrix=1.00D-08 within 128 cycles.
 Requested convergence on MAX density matrix=1.00D-06.
 Requested convergence on             energy=1.00D-06.
 No special actions if energy rises.
 Fock matrices will be formed incrementally for  20 cycles.
 Integral accuracy reduced to 1.0D-05 until final iterations.

 Cycle   1  Pass 0  IDiag  1:
 FoFJK:  IHMeth= 1 ICntrl=       0 DoSepK=F KAlg= 0 I1Cent=           0 FoldK=F
 IRaf= 940000000 NMat=       1 IRICut=       1 DoRegI=T DoRafI=F ISym2E= 1 IDoP0=0 IntGTp=1.
 FoFCou: FMM=F IPFlag=           0 FMFlag=      100000 FMFlg1=           0
         NFxFlg=           0 DoJE=F BraDBF=F KetDBF=F FulRan=T
         wScrn=  0.000000 ICntrl=         0 IOpCl=  0 I1Cent=           0 NGrid=           0
         NMat0=    1 NMatS0=      1 NMatT0=    0 NMatD0=    1 NMtDS0=    0 NMtDT0=    0
 Petite list used in FoFCou.
 CoulSu:  requested number of processors reduced to:  21 ShMem   1 Linda.
 E= -349.682777475930    
 DIIS: error= 4.06D-02 at cycle   1 NSaved=   1.
 NSaved= 1 IEnMin= 1 EnMin= -349.682777475930     IErMin= 1 ErrMin= 4.06D-02
 ErrMax= 4.06D-02  0.00D+00 EMaxC= 1.00D-01 BMatC= 3.20D-01 BMatP= 3.20D-01
 IDIUse=3 WtCom= 5.94D-01 WtEn= 4.06D-01
 Coeff-Com:  0.100D+01
 Coeff-En:   0.100D+01
 Coeff:      0.100D+01
 Gap=     0.324 Goal=   None    Shift=    0.000
 GapD=    0.324 DampG=1.000 DampE=0.500 DampFc=0.5000 IDamp=-1.
 Damping current iteration by 5.00D-01
 RMSDP=2.31D-03 MaxDP=4.89D-02              OVMax= 3.89D-01

 Cycle   2  Pass 0  IDiag  1:
 RMSU=  1.15D-03    CP:  9.86D-01
 CoulSu:  requested number of processors reduced to:  21 ShMem   1 Linda.
 E= -349.669496063763     Delta-E=        0.013281412166 Rises=F Damp=T
 DIIS: error= 2.20D-02 at cycle   2 NSaved=   2.
 NSaved= 2 IEnMin= 1 EnMin= -349.682777475930     IErMin= 2 ErrMin= 2.20D-02
 ErrMax= 2.20D-02  0.00D+00 EMaxC= 1.00D-01 BMatC= 1.24D-01 BMatP= 3.20D-01
 IDIUse=3 WtCom= 7.80D-01 WtEn= 2.20D-01
 Coeff-Com:  0.305D+00 0.695D+00
 Coeff-En:   0.529D+00 0.471D+00
 Coeff:      0.354D+00 0.646D+00
 Gap=     0.389 Goal=   None    Shift=    0.000
 RMSDP=5.79D-04 MaxDP=1.46D-02 DE= 1.33D-02 OVMax= 2.03D-01

 Cycle   3  Pass 0  IDiag  1:
 RMSU=  4.62D-04    CP:  9.98D-01  7.09D-01
 CoulSu:  requested number of processors reduced to:  21 ShMem   1 Linda.
 E= -349.839141960566     Delta-E=       -0.169645896802 Rises=F Damp=F
 DIIS: error= 4.48D-03 at cycle   3 NSaved=   3.
 NSaved= 3 IEnMin= 3 EnMin= -349.839141960566     IErMin= 3 ErrMin= 4.48D-03
 ErrMax= 4.48D-03  0.00D+00 EMaxC= 1.00D-01 BMatC= 4.49D-03 BMatP= 1.24D-01
 IDIUse=3 WtCom= 9.55D-01 WtEn= 4.48D-02
 Coeff-Com: -0.466D-01 0.123D+00 0.923D+00
 Coeff-En:   0.000D+00 0.000D+00 0.100D+01
 Coeff:     -0.445D-01 0.118D+00 0.927D+00
 Gap=     0.376 Goal=   None    Shift=    0.000
 RMSDP=2.02D-04 MaxDP=6.52D-03 DE=-1.70D-01 OVMax= 3.19D-02

 Cycle   4  Pass 0  IDiag  1:
 RMSU=  1.53D-04    CP:  9.94D-01  8.18D-01  1.04D+00
 CoulSu:  requested number of processors reduced to:  21 ShMem   1 Linda.
 E= -349.843079576409     Delta-E=       -0.003937615843 Rises=F Damp=F
 DIIS: error= 1.32D-03 at cycle   4 NSaved=   4.
 NSaved= 4 IEnMin= 4 EnMin= -349.843079576409     IErMin= 4 ErrMin= 1.32D-03
 ErrMax= 1.32D-03  0.00D+00 EMaxC= 1.00D-01 BMatC= 4.58D-04 BMatP= 4.49D-03
 IDIUse=3 WtCom= 9.87D-01 WtEn= 1.32D-02
 Coeff-Com: -0.130D-01 0.120D-01 0.281D+00 0.720D+00
 Coeff-En:   0.000D+00 0.000D+00 0.000D+00 0.100D+01
 Coeff:     -0.128D-01 0.118D-01 0.277D+00 0.724D+00
 Gap=     0.378 Goal=   None    Shift=    0.000
 RMSDP=4.56D-05 MaxDP=7.94D-04 DE=-3.94D-03 OVMax= 5.69D-03

 Cycle   5  Pass 0  IDiag  1:
 RMSU=  3.48D-05    CP:  9.94D-01  8.29D-01  1.09D+00  1.05D+00
 CoulSu:  requested number of processors reduced to:  21 ShMem   1 Linda.
 E= -349.843431630702     Delta-E=       -0.000352054293 Rises=F Damp=F
 DIIS: error= 3.94D-04 at cycle   5 NSaved=   5.
 NSaved= 5 IEnMin= 5 EnMin= -349.843431630702     IErMin= 5 ErrMin= 3.94D-04
 ErrMax= 3.94D-04  0.00D+00 EMaxC= 1.00D-01 BMatC= 4.59D-05 BMatP= 4.58D-04
 IDIUse=3 WtCom= 9.96D-01 WtEn= 3.94D-03
 Coeff-Com:  0.826D-02-0.180D-01-0.687D-01-0.578D-01 0.114D+01
 Coeff-En:   0.000D+00 0.000D+00 0.000D+00 0.000D+00 0.100D+01
 Coeff:      0.822D-02-0.179D-01-0.684D-01-0.576D-01 0.114D+01
 Gap=     0.380 Goal=   None    Shift=    0.000
 RMSDP=3.34D-05 MaxDP=5.49D-04 DE=-3.52D-04 OVMax= 5.27D-03

 Cycle   6  Pass 0  IDiag  1:
 RMSU=  1.86D-05    CP:  9.93D-01  8.34D-01  1.12D+00  1.18D+00  1.37D+00
 CoulSu:  requested number of processors reduced to:  21 ShMem   1 Linda.
 E= -349.843522271209     Delta-E=       -0.000090640507 Rises=F Damp=F
 DIIS: error= 1.95D-04 at cycle   6 NSaved=   6.
 NSaved= 6 IEnMin= 6 EnMin= -349.843522271209     IErMin= 6 ErrMin= 1.95D-04
 ErrMax= 1.95D-04  0.00D+00 EMaxC= 1.00D-01 BMatC= 7.44D-06 BMatP= 4.59D-05
 IDIUse=3 WtCom= 9.98D-01 WtEn= 1.95D-03
 Coeff-Com:  0.443D-02-0.766D-02-0.380D-01-0.976D-01 0.226D+00 0.913D+00
 Coeff-En:   0.000D+00 0.000D+00 0.000D+00 0.000D+00 0.000D+00 0.100D+01
 Coeff:      0.442D-02-0.764D-02-0.379D-01-0.974D-01 0.226D+00 0.913D+00
 Gap=     0.381 Goal=   None    Shift=    0.000
 RMSDP=1.09D-05 MaxDP=2.33D-04 DE=-9.06D-05 OVMax= 1.78D-03

 Cycle   7  Pass 0  IDiag  1:
 RMSU=  3.20D-06    CP:  9.93D-01  8.36D-01  1.13D+00  1.22D+00  1.56D+00
                    CP:  1.10D+00
 CoulSu:  requested number of processors reduced to:  21 ShMem   1 Linda.
 E= -349.843531559483     Delta-E=       -0.000009288274 Rises=F Damp=F
 DIIS: error= 4.67D-05 at cycle   7 NSaved=   7.
 NSaved= 7 IEnMin= 7 EnMin= -349.843531559483     IErMin= 7 ErrMin= 4.67D-05
 ErrMax= 4.67D-05  0.00D+00 EMaxC= 1.00D-01 BMatC= 6.48D-07 BMatP= 7.44D-06
 IDIUse=1 WtCom= 1.00D+00 WtEn= 0.00D+00
 Coeff-Com:  0.128D-03-0.114D-03 0.593D-02 0.880D-02-0.884D-01-0.186D-01
 Coeff-Com:  0.109D+01
 Coeff:      0.128D-03-0.114D-03 0.593D-02 0.880D-02-0.884D-01-0.186D-01
 Coeff:      0.109D+01
 Gap=     0.381 Goal=   None    Shift=    0.000
 RMSDP=2.92D-06 MaxDP=8.37D-05 DE=-9.29D-06 OVMax= 3.61D-04

 Initial convergence to 1.0D-05 achieved.  Increase integral accuracy.
 Cycle   8  Pass 1  IDiag  1:
 CoulSu:  requested number of processors reduced to:  21 ShMem   1 Linda.
 E= -349.843576029904     Delta-E=       -0.000044470421 Rises=F Damp=F
 DIIS: error= 3.58D-05 at cycle   1 NSaved=   1.
 NSaved= 1 IEnMin= 1 EnMin= -349.843576029904     IErMin= 1 ErrMin= 3.58D-05
 ErrMax= 3.58D-05  0.00D+00 EMaxC= 1.00D-01 BMatC= 6.19D-07 BMatP= 6.19D-07
 IDIUse=1 WtCom= 1.00D+00 WtEn= 0.00D+00
 Coeff-Com:  0.100D+01
 Coeff:      0.100D+01
 Gap=     0.381 Goal=   None    Shift=    0.000
 RMSDP=2.92D-06 MaxDP=8.37D-05 DE=-4.45D-05 OVMax= 1.13D-04

 Cycle   9  Pass 1  IDiag  1:
 RMSU=  5.40D-06    CP:  1.00D+00
 CoulSu:  requested number of processors reduced to:  21 ShMem   1 Linda.
 E= -349.843576337715     Delta-E=       -0.000000307811 Rises=F Damp=F
 DIIS: error= 5.75D-06 at cycle   2 NSaved=   2.
 NSaved= 2 IEnMin= 2 EnMin= -349.843576337715     IErMin= 2 ErrMin= 5.75D-06
 ErrMax= 5.75D-06  0.00D+00 EMaxC= 1.00D-01 BMatC= 8.32D-09 BMatP= 6.19D-07
 IDIUse=1 WtCom= 1.00D+00 WtEn= 0.00D+00
 Coeff-Com: -0.393D-01 0.104D+01
 Coeff:     -0.393D-01 0.104D+01
 Gap=     0.381 Goal=   None    Shift=    0.000
 RMSDP=6.85D-07 MaxDP=1.67D-05 DE=-3.08D-07 OVMax= 7.97D-05

 Cycle  10  Pass 1  IDiag  1:
 RMSU=  5.07D-07    CP:  1.00D+00  1.08D+00
 CoulSu:  requested number of processors reduced to:  21 ShMem   1 Linda.
 E= -349.843576338978     Delta-E=       -0.000000001263 Rises=F Damp=F
 DIIS: error= 8.18D-06 at cycle   3 NSaved=   3.
 NSaved= 3 IEnMin= 3 EnMin= -349.843576338978     IErMin= 2 ErrMin= 5.75D-06
 ErrMax= 8.18D-06  0.00D+00 EMaxC= 1.00D-01 BMatC= 2.04D-08 BMatP= 8.32D-09
 IDIUse=1 WtCom= 1.00D+00 WtEn= 0.00D+00
 Coeff-Com: -0.331D-01 0.682D+00 0.351D+00
 Coeff:     -0.331D-01 0.682D+00 0.351D+00
 Gap=     0.381 Goal=   None    Shift=    0.000
 RMSDP=2.31D-07 MaxDP=6.10D-06 DE=-1.26D-09 OVMax= 3.11D-05

 Cycle  11  Pass 1  IDiag  1:
 RMSU=  1.96D-07    CP:  1.00D+00  1.10D+00  7.87D-01
 CoulSu:  requested number of processors reduced to:  21 ShMem   1 Linda.
 E= -349.843576352159     Delta-E=       -0.000000013181 Rises=F Damp=F
 DIIS: error= 1.38D-06 at cycle   4 NSaved=   4.
 NSaved= 4 IEnMin= 4 EnMin= -349.843576352159     IErMin= 4 ErrMin= 1.38D-06
 ErrMax= 1.38D-06  0.00D+00 EMaxC= 1.00D-01 BMatC= 3.72D-10 BMatP= 8.32D-09
 IDIUse=1 WtCom= 1.00D+00 WtEn= 0.00D+00
 Coeff-Com:  0.401D-02-0.177D+00-0.393D-02 0.118D+01
 Coeff:      0.401D-02-0.177D+00-0.393D-02 0.118D+01
 Gap=     0.381 Goal=   None    Shift=    0.000
 RMSDP=1.45D-07 MaxDP=2.22D-06 DE=-1.32D-08 OVMax= 2.08D-05

 Cycle  12  Pass 1  IDiag  1:
 RMSU=  7.53D-08    CP:  1.00D+00  1.11D+00  9.70D-01  1.29D+00
 CoulSu:  requested number of processors reduced to:  21 ShMem   1 Linda.
 E= -349.843576353604     Delta-E=       -0.000000001446 Rises=F Damp=F
 DIIS: error= 5.04D-07 at cycle   5 NSaved=   5.
 NSaved= 5 IEnMin= 5 EnMin= -349.843576353604     IErMin= 5 ErrMin= 5.04D-07
 ErrMax= 5.04D-07  0.00D+00 EMaxC= 1.00D-01 BMatC= 5.30D-11 BMatP= 3.72D-10
 IDIUse=1 WtCom= 1.00D+00 WtEn= 0.00D+00
 Coeff-Com:  0.378D-02-0.719D-01-0.367D-01-0.225D-01 0.113D+01
 Coeff:      0.378D-02-0.719D-01-0.367D-01-0.225D-01 0.113D+01
 Gap=     0.381 Goal=   None    Shift=    0.000
 RMSDP=5.83D-08 MaxDP=8.47D-07 DE=-1.45D-09 OVMax= 9.98D-06

 Cycle  13  Pass 1  IDiag  1:
 RMSU=  1.76D-08    CP:  1.00D+00  1.11D+00  1.02D+00  1.41D+00  1.56D+00
 CoulSu:  requested number of processors reduced to:  21 ShMem   1 Linda.
 E= -349.843576353814     Delta-E=       -0.000000000210 Rises=F Damp=F
 DIIS: error= 1.33D-07 at cycle   6 NSaved=   6.
 NSaved= 6 IEnMin= 6 EnMin= -349.843576353814     IErMin= 6 ErrMin= 1.33D-07
 ErrMax= 1.33D-07  0.00D+00 EMaxC= 1.00D-01 BMatC= 5.69D-12 BMatP= 5.30D-11
 IDIUse=1 WtCom= 1.00D+00 WtEn= 0.00D+00
 Coeff-Com: -0.231D-03 0.178D-01 0.251D-02-0.167D+00 0.564D-01 0.109D+01
 Coeff:     -0.231D-03 0.178D-01 0.251D-02-0.167D+00 0.564D-01 0.109D+01
 Gap=     0.381 Goal=   None    Shift=    0.000
 RMSDP=2.07D-08 MaxDP=3.48D-07 DE=-2.10D-10 OVMax= 3.71D-06

 Cycle  14  Pass 1  IDiag  1:
 RMSU=  6.00D-09    CP:  1.00D+00  1.11D+00  1.04D+00  1.45D+00  1.77D+00
                    CP:  1.19D+00
 CoulSu:  requested number of processors reduced to:  21 ShMem   1 Linda.
 E= -349.843576353828     Delta-E=       -0.000000000014 Rises=F Damp=F
 DIIS: error= 6.32D-08 at cycle   7 NSaved=   7.
 NSaved= 7 IEnMin= 7 EnMin= -349.843576353828     IErMin= 7 ErrMin= 6.32D-08
 ErrMax= 6.32D-08  0.00D+00 EMaxC= 1.00D-01 BMatC= 4.67D-13 BMatP= 5.69D-12
 IDIUse=1 WtCom= 1.00D+00 WtEn= 0.00D+00
 Coeff-Com: -0.169D-03 0.615D-02 0.374D-02-0.257D-01-0.588D-01 0.233D+00
 Coeff-Com:  0.842D+00
 Coeff:     -0.169D-03 0.615D-02 0.374D-02-0.257D-01-0.588D-01 0.233D+00
 Coeff:      0.842D+00
 Gap=     0.381 Goal=   None    Shift=    0.000
 RMSDP=2.62D-09 MaxDP=6.50D-08 DE=-1.43D-11 OVMax= 3.66D-07

 SCF Done:  E(RM062X) =  -349.843576354     A.U. after   14 cycles
            NFock= 14  Conv=0.26D-08     -V/T= 2.0033
 KE= 3.486755313572D+02 PE=-1.082313796599D+03 EE= 2.584067004662D+02
 Leave Link  502 at Sun Apr 18 04:02:22 2021, MaxMem=   104857600 cpu:            5368.9 elap:             119.6
 (Enter /s/ls4/users/knvvv/bin/g16sse/l601.exe)
 Copying SCF densities to generalized density rwf, IOpCl= 0 IROHF=0.

 **********************************************************************

            Population analysis using the SCF density.

 **********************************************************************

 Orbital symmetries:
       Occupied  (B) (A) (A) (B) (A) (B) (A) (B) (A) (B) (A) (A)
                 (B) (B) (A) (B) (A)
       Virtual   (B) (A) (B) (A) (B) (B) (A) (B) (A) (A) (A) (B)
                 (A) (B) (B) (A) (B) (A) (B) (A) (B) (A) (B) (B)
                 (A) (B) (A) (B) (A) (A) (B) (A) (B) (B) (A) (B)
                 (A) (A) (A) (B) (B) (A) (B) (A) (B) (B) (A) (B)
                 (A) (A) (B) (A) (A) (B) (A) (B) (B) (A) (B) (A)
                 (A) (B) (A) (B) (B) (A) (A) (B) (A) (B) (B) (A)
                 (B) (B) (A) (A) (B) (A) (B) (B) (A) (A) (B) (B)
                 (A) (B) (A) (A) (B) (B) (A) (B) (A) (A) (A) (B)
                 (B) (A) (B) (A) (B) (A) (B) (B) (A) (A) (A) (B)
                 (A) (B) (B) (A) (B) (A) (B) (A) (B) (A) (A) (B)
                 (B) (A) (B) (A) (A) (B) (B) (A) (A) (B) (B) (A)
                 (B) (A) (B) (B) (A) (A) (B) (B) (B) (A) (A) (B)
                 (A) (B) (A) (B) (A) (B) (A) (B) (A) (B) (A) (A)
                 (B) (A) (B) (A) (A) (B) (B) (B) (A) (A) (B) (A)
                 (B) (A) (B) (A) (B) (A) (B) (A) (B) (A) (A) (B)
                 (A) (B) (B) (A) (A) (B) (A) (B) (B) (A) (B) (A)
                 (B) (A) (B) (B) (A) (B) (A) (B) (A) (A) (B) (A)
                 (B) (A) (B) (A) (B) (A) (B)
 The electronic state is 1-A.
 Alpha  occ. eigenvalues --  -25.30348 -25.30348 -19.89581 -19.89531  -1.52306
 Alpha  occ. eigenvalues --   -1.36887  -1.31184  -1.00143  -0.73836  -0.71506
 Alpha  occ. eigenvalues --   -0.70561  -0.56830  -0.56439  -0.54760  -0.53496
 Alpha  occ. eigenvalues --   -0.47678  -0.47080
 Alpha virt. eigenvalues --   -0.09015  -0.08824   0.14483   0.22321   0.23498
 Alpha virt. eigenvalues --    0.27818   0.29097   0.32721   0.32795   0.35235
 Alpha virt. eigenvalues --    0.36507   0.37418   0.42672   0.46166   0.48046
 Alpha virt. eigenvalues --    0.49872   0.62458   0.86959   0.87084   0.96777
 Alpha virt. eigenvalues --    0.98613   0.99652   1.13568   1.15219   1.20446
 Alpha virt. eigenvalues --    1.24059   1.27402   1.31141   1.32767   1.35532
 Alpha virt. eigenvalues --    1.40770   1.41318   1.49559   1.53554   1.59670
 Alpha virt. eigenvalues --    1.64537   1.65412   1.67118   1.67900   1.68433
 Alpha virt. eigenvalues --    1.73860   1.73972   1.76769   1.82891   1.83372
 Alpha virt. eigenvalues --    1.89974   1.93064   1.99864   2.14567   2.44305
 Alpha virt. eigenvalues --    2.45716   2.82492   2.85819   2.86100   3.03963
 Alpha virt. eigenvalues --    3.08968   3.16974   3.20619   3.25026   3.28534
 Alpha virt. eigenvalues --    3.42362   3.53761   3.62370   3.66066   3.71282
 Alpha virt. eigenvalues --    3.73311   3.76907   3.89180   3.90544   3.93815
 Alpha virt. eigenvalues --    3.95774   4.01683   4.03408   4.09515   4.16320
 Alpha virt. eigenvalues --    4.16505   4.17202   4.19195   4.20642   4.28748
 Alpha virt. eigenvalues --    4.30737   4.34971   4.45774   4.48926   4.51896
 Alpha virt. eigenvalues --    4.57849   4.62389   4.72263   4.73779   4.77495
 Alpha virt. eigenvalues --    4.81243   4.87100   4.88088   5.01416   5.04809
 Alpha virt. eigenvalues --    5.05548   5.12433   5.20487   5.28585   5.33027
 Alpha virt. eigenvalues --    5.42111   5.43772   5.43871   5.52007   5.52502
 Alpha virt. eigenvalues --    5.59621   6.25813   6.26056   6.28548   6.29005
 Alpha virt. eigenvalues --    6.29301   6.37492   6.71868   6.83456   7.55994
 Alpha virt. eigenvalues --    8.01786   8.15627   8.35913   8.40807   8.41641
 Alpha virt. eigenvalues --    8.43114   8.63150   8.71986   8.80526   8.83441
 Alpha virt. eigenvalues --    8.88302   9.15015   9.19202  10.01191  10.01720
 Alpha virt. eigenvalues --   10.23303  10.36811  10.36930  10.68199  10.72510
 Alpha virt. eigenvalues --   10.82204  10.82633  10.97802  10.98843  11.03070
 Alpha virt. eigenvalues --   11.04812  11.08278  11.13205  11.26469  11.27784
 Alpha virt. eigenvalues --   11.28430  11.29622  11.30906  11.32184  11.32336
 Alpha virt. eigenvalues --   11.32349  11.32360  11.32838  11.36904  11.39748
 Alpha virt. eigenvalues --   11.43070  11.44237  11.46344  11.49575  11.62589
 Alpha virt. eigenvalues --   11.69478  11.70303  11.73809  11.78117  11.78238
 Alpha virt. eigenvalues --   11.81415  11.89230  11.90811  12.03747  12.10046
 Alpha virt. eigenvalues --   12.21873  12.41366  13.45417  13.48171  13.56222
 Alpha virt. eigenvalues --   13.89274  14.40432  14.40433  14.40781  14.41367
 Alpha virt. eigenvalues --   14.46367  14.47193  14.48424  14.49088  14.66639
 Alpha virt. eigenvalues --   14.74283  14.82319  14.82812  14.88385  14.92455
 Alpha virt. eigenvalues --   15.16682  15.65809  15.66213  15.67659  15.70096
 Alpha virt. eigenvalues --   15.79696  15.79923  15.82477  15.85717  15.86310
 Alpha virt. eigenvalues --   15.93963  16.35739  16.38356  47.32664  47.89432
 Alpha virt. eigenvalues --   54.12319  54.22340 250.28890 250.91705 282.92833
 Alpha virt. eigenvalues --  283.05899
          Condensed to atoms (all electrons):
               1          2          3          4
     1  F    9.138998   0.062551  -0.040377   0.002066
     2  O    0.062551   7.632227   0.182361  -0.040377
     3  O   -0.040377   0.182361   7.632227   0.062551
     4  F    0.002066  -0.040377   0.062551   9.138998
 Mulliken charges:
               1
     1  F   -0.163237
     2  O    0.163237
     3  O    0.163237
     4  F   -0.163237
 Sum of Mulliken charges =  -0.00000
 Mulliken charges with hydrogens summed into heavy atoms:
               1
     1  F   -0.163237
     2  O    0.163237
     3  O    0.163237
     4  F   -0.163237
 Electronic spatial extent (au):  <R**2>=            243.9046
 Charge=             -0.0000 electrons
 Dipole moment (field-independent basis, Debye):
    X=              0.0000    Y=              0.0000    Z=              1.2945  Tot=              1.2945
 Quadrupole moment (field-independent basis, Debye-Ang):
   XX=            -20.0569   YY=            -21.9694   ZZ=            -19.5321
   XY=             -0.8460   XZ=              0.0000   YZ=             -0.0000
 Traceless Quadrupole moment (field-independent basis, Debye-Ang):
   XX=              0.4626   YY=             -1.4500   ZZ=              0.9874
   XY=             -0.8460   XZ=              0.0000   YZ=             -0.0000
 Octapole moment (field-independent basis, Debye-Ang**2):
  XXX=             -0.0000  YYY=              0.0000  ZZZ=             -1.3764  XYY=              0.0000
  XXY=              0.0000  XXZ=             -0.0377  XZZ=             -0.0000  YZZ=              0.0000
  YYZ=             -0.2149  XYZ=              0.2853
 Hexadecapole moment (field-independent basis, Debye-Ang**3):
 XXXX=            -49.4510 YYYY=           -133.6538 ZZZZ=            -44.8167 XXXY=            -27.3966
 XXXZ=             -0.0000 YYYX=            -28.6823 YYYZ=              0.0000 ZZZX=             -0.0000
 ZZZY=             -0.0000 XXYY=            -30.9714 XXZZ=            -15.8690 YYZZ=            -28.1402
 XXYZ=             -0.0000 YYXZ=             -0.0000 ZZXY=             -9.1783
 N-N= 1.253879884219D+02 E-N=-1.082313803405D+03  KE= 3.486755313572D+02
 PrsmSu:  requested number of processors reduced to:  21 ShMem   1 Linda.
 No NMR shielding tensors so no spin-rotation constants.
 Leave Link  601 at Sun Apr 18 04:02:26 2021, MaxMem=   104857600 cpu:             162.2 elap:               3.6
 (Enter /s/ls4/users/knvvv/bin/g16sse/l801.exe)
 DoSCS=F DFT=T ScalE2(SS,OS)=  1.000000  1.000000
 Range of M.O.s used for correlation:     1   228
 NBasis=   228 NAE=    17 NBE=    17 NFC=     0 NFV=     0
 NROrb=    228 NOA=    17 NOB=    17 NVA=   211 NVB=   211

 **** Warning!!: The largest alpha MO coefficient is  0.11680348D+02

 Leave Link  801 at Sun Apr 18 04:02:26 2021, MaxMem=   104857600 cpu:               3.5 elap:               0.1
 (Enter /s/ls4/users/knvvv/bin/g16sse/l914.exe)
 RHF ground state
 Doing stability rather than CIS.
 Two-electron integrals replicated using symmetry.
 MDV=   104857600 DFT=T DoStab=T Mixed=T DoRPA=F DoScal=F NonHer=F
 Making orbital integer symmetry assigments:
 Orbital symmetries:
       Occupied  (B) (A) (A) (B) (A) (B) (A) (B) (A) (B) (A) (A)
                 (B) (B) (A) (B) (A)
       Virtual   (B) (A) (B) (A) (B) (B) (A) (B) (A) (A) (A) (B)
                 (A) (B) (B) (A) (B) (A) (B) (A) (B) (A) (B) (B)
                 (A) (B) (A) (B) (A) (A) (B) (A) (B) (B) (A) (B)
                 (A) (A) (A) (B) (B) (A) (B) (A) (B) (B) (A) (B)
                 (A) (A) (B) (A) (A) (B) (A) (B) (B) (A) (B) (A)
                 (A) (B) (A) (B) (B) (A) (A) (B) (A) (B) (B) (A)
                 (B) (B) (A) (A) (B) (A) (B) (B) (A) (A) (B) (B)
                 (A) (B) (A) (A) (B) (B) (A) (B) (A) (A) (A) (B)
                 (B) (A) (B) (A) (B) (A) (B) (B) (A) (A) (A) (B)
                 (A) (B) (B) (A) (B) (A) (B) (A) (B) (A) (A) (B)
                 (B) (A) (B) (A) (A) (B) (B) (A) (A) (B) (B) (A)
                 (B) (A) (B) (B) (A) (A) (B) (B) (B) (A) (A) (B)
                 (A) (B) (A) (B) (A) (B) (A) (B) (A) (B) (A) (A)
                 (B) (A) (B) (A) (A) (B) (B) (B) (A) (A) (B) (A)
                 (B) (A) (B) (A) (B) (A) (B) (A) (B) (A) (A) (B)
                 (A) (B) (B) (A) (A) (B) (A) (B) (B) (A) (B) (A)
                 (B) (A) (B) (B) (A) (B) (A) (B) (A) (A) (B) (A)
                 (B) (A) (B) (A) (B) (A) (B)
    24 initial guesses have been made.
 Convergence on wavefunction:    0.001000000000000
 Davidson Disk Diagonalization:  ConvIn= 1.00D-03 SkipCon=T Conv= 1.00D-03.
 Max sub-space:  2000 roots to seek:    24 dimension of matrix:         7174
 Iteration     1 Dimension    24 NMult     0 NNew     24
 Estimated number of processors is:   19
 CISAX will form     1 AO SS matrices at one time.
 NMat=     1 NSing=     1 JSym2X= 2.
 FoFJK:  IHMeth= 1 ICntrl=       0 DoSepK=F KAlg= 0 I1Cent=           0 FoldK=F
 IRaf= 940000000 NMat=       1 IRICut=       1 DoRegI=T DoRafI=F ISym2E= 2 IDoP0=0 IntGTp=1.
 FoFCou: FMM=F IPFlag=           0 FMFlag=      100000 FMFlg1=           0
         NFxFlg=           0 DoJE=F BraDBF=F KetDBF=F FulRan=T
         wScrn=  0.000000 ICntrl=         0 IOpCl=  0 I1Cent=           0 NGrid=           0
         NMat0=    1 NMatS0=      1 NMatT0=    0 NMatD0=    1 NMtDS0=    0 NMtDT0=    0
 Integrals replicated using symmetry in FoFCou.
 CoulSu:  requested number of processors reduced to:  20 ShMem   1 Linda.
 NMat=     1 NSing=     1 JSym2X= 2.
 CoulSu:  requested number of processors reduced to:  20 ShMem   1 Linda.
 NMat=     1 NSing=     1 JSym2X= 2.
 CoulSu:  requested number of processors reduced to:  20 ShMem   1 Linda.
 NMat=     1 NSing=     1 JSym2X= 2.
 CoulSu:  requested number of processors reduced to:  20 ShMem   1 Linda.
 NMat=     1 NSing=     1 JSym2X= 2.
 CoulSu:  requested number of processors reduced to:  20 ShMem   1 Linda.
 NMat=     1 NSing=     1 JSym2X= 2.
 CoulSu:  requested number of processors reduced to:  20 ShMem   1 Linda.
 NMat=     1 NSing=     1 JSym2X= 2.
 CoulSu:  requested number of processors reduced to:  20 ShMem   1 Linda.
 NMat=     1 NSing=     1 JSym2X= 2.
 CoulSu:  requested number of processors reduced to:  20 ShMem   1 Linda.
 NMat=     1 NSing=     1 JSym2X= 2.
 CoulSu:  requested number of processors reduced to:  20 ShMem   1 Linda.
 NMat=     1 NSing=     1 JSym2X= 2.
 CoulSu:  requested number of processors reduced to:  20 ShMem   1 Linda.
 NMat=     1 NSing=     1 JSym2X= 2.
 CoulSu:  requested number of processors reduced to:  20 ShMem   1 Linda.
 NMat=     1 NSing=     1 JSym2X= 2.
 CoulSu:  requested number of processors reduced to:  20 ShMem   1 Linda.
 NMat=     1 NSing=     0 JSym2X= 2.
 CoulSu:  requested number of processors reduced to:  20 ShMem   1 Linda.
 NMat=     1 NSing=     0 JSym2X= 2.
 CoulSu:  requested number of processors reduced to:  20 ShMem   1 Linda.
 NMat=     1 NSing=     0 JSym2X= 2.
 CoulSu:  requested number of processors reduced to:  20 ShMem   1 Linda.
 NMat=     1 NSing=     0 JSym2X= 2.
 CoulSu:  requested number of processors reduced to:  20 ShMem   1 Linda.
 NMat=     1 NSing=     0 JSym2X= 2.
 CoulSu:  requested number of processors reduced to:  20 ShMem   1 Linda.
 NMat=     1 NSing=     0 JSym2X= 2.
 CoulSu:  requested number of processors reduced to:  20 ShMem   1 Linda.
 NMat=     1 NSing=     0 JSym2X= 2.
 CoulSu:  requested number of processors reduced to:  20 ShMem   1 Linda.
 NMat=     1 NSing=     0 JSym2X= 2.
 CoulSu:  requested number of processors reduced to:  20 ShMem   1 Linda.
 NMat=     1 NSing=     0 JSym2X= 2.
 CoulSu:  requested number of processors reduced to:  20 ShMem   1 Linda.
 NMat=     1 NSing=     0 JSym2X= 2.
 CoulSu:  requested number of processors reduced to:  20 ShMem   1 Linda.
 NMat=     1 NSing=     0 JSym2X= 2.
 CoulSu:  requested number of processors reduced to:  20 ShMem   1 Linda.
 NMat=     1 NSing=     0 JSym2X= 2.
 CoulSu:  requested number of processors reduced to:  20 ShMem   1 Linda.
 New state      1 was old state      4
 Excitation Energies [eV] at current iteration:
 Root      1 :     2.524448404791673
 Root      2 :     2.670278568833222
 Root      3 :     3.334664037915826
 Root      4 :     3.777264739884636
 Root      5 :     4.643254669995485
 Root      6 :     4.692238418555220
 Root      7 :     5.205416771471129
 Root      8 :     5.465559112129391
 Root      9 :     6.023521213932113
 Root     10 :     6.556164893761999
 Root     11 :     6.858286990667229
 Root     12 :     6.929075196608286
 Root     13 :     7.378837504956021
 Root     14 :     8.029297648158961
 Root     15 :     8.330948166173798
 Root     16 :     8.809653964445305
 Root     17 :     8.832852889689356
 Root     18 :     8.892846004846177
 Root     19 :     8.961507052614399
 Root     20 :     8.972313249983136
 Root     21 :     9.010407272984304
 Root     22 :     9.964402231767027
 Root     23 :    15.512905275661270
 Root     24 :    20.513534579256780
 Iteration     2 Dimension    48 NMult    24 NNew     24
 Estimated number of processors is:   19
 CISAX will form     1 AO SS matrices at one time.
 NMat=     1 NSing=     1 JSym2X= 2.
 CoulSu:  requested number of processors reduced to:  20 ShMem   1 Linda.
 NMat=     1 NSing=     1 JSym2X= 2.
 CoulSu:  requested number of processors reduced to:  20 ShMem   1 Linda.
 NMat=     1 NSing=     1 JSym2X= 2.
 CoulSu:  requested number of processors reduced to:  20 ShMem   1 Linda.
 NMat=     1 NSing=     1 JSym2X= 2.
 CoulSu:  requested number of processors reduced to:  20 ShMem   1 Linda.
 NMat=     1 NSing=     1 JSym2X= 2.
 CoulSu:  requested number of processors reduced to:  20 ShMem   1 Linda.
 NMat=     1 NSing=     1 JSym2X= 2.
 CoulSu:  requested number of processors reduced to:  20 ShMem   1 Linda.
 NMat=     1 NSing=     1 JSym2X= 2.
 CoulSu:  requested number of processors reduced to:  20 ShMem   1 Linda.
 NMat=     1 NSing=     1 JSym2X= 2.
 CoulSu:  requested number of processors reduced to:  20 ShMem   1 Linda.
 NMat=     1 NSing=     1 JSym2X= 2.
 CoulSu:  requested number of processors reduced to:  20 ShMem   1 Linda.
 NMat=     1 NSing=     1 JSym2X= 2.
 CoulSu:  requested number of processors reduced to:  20 ShMem   1 Linda.
 NMat=     1 NSing=     1 JSym2X= 2.
 CoulSu:  requested number of processors reduced to:  20 ShMem   1 Linda.
 NMat=     1 NSing=     1 JSym2X= 2.
 CoulSu:  requested number of processors reduced to:  20 ShMem   1 Linda.
 NMat=     1 NSing=     0 JSym2X= 2.
 CoulSu:  requested number of processors reduced to:  20 ShMem   1 Linda.
 NMat=     1 NSing=     0 JSym2X= 2.
 CoulSu:  requested number of processors reduced to:  20 ShMem   1 Linda.
 NMat=     1 NSing=     0 JSym2X= 2.
 CoulSu:  requested number of processors reduced to:  20 ShMem   1 Linda.
 NMat=     1 NSing=     0 JSym2X= 2.
 CoulSu:  requested number of processors reduced to:  20 ShMem   1 Linda.
 NMat=     1 NSing=     0 JSym2X= 2.
 CoulSu:  requested number of processors reduced to:  20 ShMem   1 Linda.
 NMat=     1 NSing=     0 JSym2X= 2.
 CoulSu:  requested number of processors reduced to:  20 ShMem   1 Linda.
 NMat=     1 NSing=     0 JSym2X= 2.
 CoulSu:  requested number of processors reduced to:  20 ShMem   1 Linda.
 NMat=     1 NSing=     0 JSym2X= 2.
 CoulSu:  requested number of processors reduced to:  20 ShMem   1 Linda.
 NMat=     1 NSing=     0 JSym2X= 2.
 CoulSu:  requested number of processors reduced to:  20 ShMem   1 Linda.
 NMat=     1 NSing=     0 JSym2X= 2.
 CoulSu:  requested number of processors reduced to:  20 ShMem   1 Linda.
 NMat=     1 NSing=     0 JSym2X= 2.
 CoulSu:  requested number of processors reduced to:  20 ShMem   1 Linda.
 NMat=     1 NSing=     0 JSym2X= 2.
 CoulSu:  requested number of processors reduced to:  20 ShMem   1 Linda.
 Root      1 not converged, maximum delta is    0.115805252443748
 Excitation Energies [eV] at current iteration:
 Root      1 :     1.483646172833050   Change is   -1.040802231958623
 Root      2 :     1.857102693819712   Change is   -0.813175875013510
 Root      3 :     2.722385034497954   Change is   -0.612279003417871
 Root      4 :     3.368068184419923   Change is   -0.409196555464713
 Root      5 :     4.161991150804254   Change is   -0.481263519191231
 Root      6 :     4.224328216158029   Change is   -0.467910202397191
 Root      7 :     4.784341304176971   Change is   -0.421075467294158
 Root      8 :     5.138519036384362   Change is   -0.327040075745030
 Root      9 :     5.446263624290623   Change is   -0.577257589641490
 Root     10 :     5.887478857166123   Change is   -0.970808133501106
 Root     11 :     6.204945724980179   Change is   -0.351219168781820
 Root     12 :     6.300606418318766   Change is   -0.628468778289521
 Root     13 :     7.056400210053863   Change is   -0.322437294902157
 Root     14 :     7.524064474057478   Change is   -1.448248775925658
 Root     15 :     7.587565090168189   Change is   -0.743383076005608
 Root     16 :     7.626636443266633   Change is   -0.402661204892328
 Root     17 :     8.011233011908173   Change is   -0.950274040706227
 Root     18 :     8.378898832369959   Change is   -0.513947172476217
 Root     19 :     8.446359643936226   Change is   -0.363294320509078
 Root     20 :     8.591676364028775   Change is   -0.241176525660582
 Root     21 :     8.916292883137514   Change is   -0.094114389846791
 Root     22 :     9.280507331028433   Change is   -0.683894900738593
 Root     23 :     9.828978991571889   Change is   -5.683926284089384
 Root     24 :    11.146483180634580   Change is   -9.367051398622207
 Iteration     3 Dimension    54 NMult    48 NNew      6
 Estimated number of processors is:   19
 CISAX will form     1 AO SS matrices at one time.
 NMat=     1 NSing=     1 JSym2X= 2.
 CoulSu:  requested number of processors reduced to:  20 ShMem   1 Linda.
 NMat=     1 NSing=     1 JSym2X= 2.
 CoulSu:  requested number of processors reduced to:  20 ShMem   1 Linda.
 NMat=     1 NSing=     1 JSym2X= 2.
 CoulSu:  requested number of processors reduced to:  20 ShMem   1 Linda.
 NMat=     1 NSing=     0 JSym2X= 2.
 CoulSu:  requested number of processors reduced to:  20 ShMem   1 Linda.
 NMat=     1 NSing=     0 JSym2X= 2.
 CoulSu:  requested number of processors reduced to:  20 ShMem   1 Linda.
 NMat=     1 NSing=     0 JSym2X= 2.
 CoulSu:  requested number of processors reduced to:  20 ShMem   1 Linda.
 Root      1 not converged, maximum delta is    0.011661874133531
 Excitation Energies [eV] at current iteration:
 Root      1 :     1.457269842784391   Change is   -0.026376330048659
 Root      2 :     1.827483491211204   Change is   -0.029619202608508
 Root      3 :     2.713801859987245   Change is   -0.008583174510710
 Root      4 :     4.748673598454069   Change is   -0.035667705722903
 Root      5 :     5.118418689402882   Change is   -0.020100346981480
 Root      6 :     6.180670929358624   Change is   -0.024274795621556
 Iteration     4 Dimension    60 NMult    54 NNew      6
 Estimated number of processors is:   19
 CISAX will form     1 AO SS matrices at one time.
 NMat=     1 NSing=     1 JSym2X= 2.
 CoulSu:  requested number of processors reduced to:  20 ShMem   1 Linda.
 NMat=     1 NSing=     1 JSym2X= 2.
 CoulSu:  requested number of processors reduced to:  20 ShMem   1 Linda.
 NMat=     1 NSing=     1 JSym2X= 2.
 CoulSu:  requested number of processors reduced to:  20 ShMem   1 Linda.
 NMat=     1 NSing=     0 JSym2X= 2.
 CoulSu:  requested number of processors reduced to:  20 ShMem   1 Linda.
 NMat=     1 NSing=     0 JSym2X= 2.
 CoulSu:  requested number of processors reduced to:  20 ShMem   1 Linda.
 NMat=     1 NSing=     0 JSym2X= 2.
 CoulSu:  requested number of processors reduced to:  20 ShMem   1 Linda.
 Root      1 not converged, maximum delta is    0.002291331115012
 Excitation Energies [eV] at current iteration:
 Root      1 :     1.456526083431489   Change is   -0.000743759352902
 Root      2 :     1.826195145414041   Change is   -0.001288345797163
 Root      3 :     2.713556463040929   Change is   -0.000245396946316
 Root      4 :     4.745436710213266   Change is   -0.003236888240803
 Root      5 :     5.116918913567501   Change is   -0.001499775835381
 Root      6 :     6.177549878092075   Change is   -0.003121051266549
 Iteration     5 Dimension    66 NMult    60 NNew      6
 Estimated number of processors is:   19
 CISAX will form     1 AO SS matrices at one time.
 NMat=     1 NSing=     1 JSym2X= 2.
 CoulSu:  requested number of processors reduced to:  20 ShMem   1 Linda.
 NMat=     1 NSing=     1 JSym2X= 2.
 CoulSu:  requested number of processors reduced to:  20 ShMem   1 Linda.
 NMat=     1 NSing=     1 JSym2X= 2.
 CoulSu:  requested number of processors reduced to:  20 ShMem   1 Linda.
 NMat=     1 NSing=     0 JSym2X= 2.
 CoulSu:  requested number of processors reduced to:  20 ShMem   1 Linda.
 NMat=     1 NSing=     0 JSym2X= 2.
 CoulSu:  requested number of processors reduced to:  20 ShMem   1 Linda.
 NMat=     1 NSing=     0 JSym2X= 2.
 CoulSu:  requested number of processors reduced to:  20 ShMem   1 Linda.
 Root      1 has converged.
 Excitation Energies [eV] at current iteration:
 Root      1 :     1.456507352461959   Change is   -0.000018730969530
 Root      2 :     1.826152007335680   Change is   -0.000043138078361
 Root      3 :     2.713541757354617   Change is   -0.000014705686312
 Root      4 :     4.745274477281036   Change is   -0.000162232932229
 Root      5 :     5.116865883668037   Change is   -0.000053029899463
 Root      6 :     6.177399709097068   Change is   -0.000150168995007
 Convergence achieved on expansion vectors.
 ***********************************************************************
 Stability analysis using <AA,BB:AA,BB> singles matrix:
 ***********************************************************************
 1PDM for each excited state written to RWF  633
 Ground to excited state transition densities written to RWF  633

 Eigenvectors of the stability matrix:
 
 Eigenvector   1:      Triplet-A    Eigenvalue= 0.0535257  <S**2>=2.000
       9 -> 19        -0.12560
      10 -> 18        -0.11716
      12 -> 19        -0.18255
      13 -> 18         0.22510
      16 -> 18        -0.39837
      17 -> 19         0.44489
 The wavefunction is stable under the perturbations considered.
 Leave Link  914 at Sun Apr 18 04:08:20 2021, MaxMem=   104857600 cpu:           14858.1 elap:             354.2
 (Enter /s/ls4/users/knvvv/bin/g16sse/l508.exe)
 The wavefunction is already stable.
 Leave Link  508 at Sun Apr 18 04:08:20 2021, MaxMem=   104857600 cpu:               2.2 elap:               0.1
 (Enter /s/ls4/users/knvvv/bin/g16sse/l601.exe)
 Copying SCF densities to generalized density rwf, IOpCl= 0 IROHF=0.

 **********************************************************************

            Population analysis using the SCF density.

 **********************************************************************

 Orbital symmetries:
       Occupied  (B) (A) (A) (B) (A) (B) (A) (B) (A) (B) (A) (A)
                 (B) (B) (A) (B) (A)
       Virtual   (B) (A) (B) (A) (B) (B) (A) (B) (A) (A) (A) (B)
                 (A) (B) (B) (A) (B) (A) (B) (A) (B) (A) (B) (B)
                 (A) (B) (A) (B) (A) (A) (B) (A) (B) (B) (A) (B)
                 (A) (A) (A) (B) (B) (A) (B) (A) (B) (B) (A) (B)
                 (A) (A) (B) (A) (A) (B) (A) (B) (B) (A) (B) (A)
                 (A) (B) (A) (B) (B) (A) (A) (B) (A) (B) (B) (A)
                 (B) (B) (A) (A) (B) (A) (B) (B) (A) (A) (B) (B)
                 (A) (B) (A) (A) (B) (B) (A) (B) (A) (A) (A) (B)
                 (B) (A) (B) (A) (B) (A) (B) (B) (A) (A) (A) (B)
                 (A) (B) (B) (A) (B) (A) (B) (A) (B) (A) (A) (B)
                 (B) (A) (B) (A) (A) (B) (B) (A) (A) (B) (B) (A)
                 (B) (A) (B) (B) (A) (A) (B) (B) (B) (A) (A) (B)
                 (A) (B) (A) (B) (A) (B) (A) (B) (A) (B) (A) (A)
                 (B) (A) (B) (A) (A) (B) (B) (B) (A) (A) (B) (A)
                 (B) (A) (B) (A) (B) (A) (B) (A) (B) (A) (A) (B)
                 (A) (B) (B) (A) (A) (B) (A) (B) (B) (A) (B) (A)
                 (B) (A) (B) (B) (A) (B) (A) (B) (A) (A) (B) (A)
                 (B) (A) (B) (A) (B) (A) (B)
 The electronic state is 1-A.
 Alpha  occ. eigenvalues --  -25.30348 -25.30348 -19.89581 -19.89531  -1.52306
 Alpha  occ. eigenvalues --   -1.36887  -1.31184  -1.00143  -0.73836  -0.71506
 Alpha  occ. eigenvalues --   -0.70561  -0.56830  -0.56439  -0.54760  -0.53496
 Alpha  occ. eigenvalues --   -0.47678  -0.47080
 Alpha virt. eigenvalues --   -0.09015  -0.08824   0.14483   0.22321   0.23498
 Alpha virt. eigenvalues --    0.27818   0.29097   0.32721   0.32795   0.35235
 Alpha virt. eigenvalues --    0.36507   0.37418   0.42672   0.46166   0.48046
 Alpha virt. eigenvalues --    0.49872   0.62458   0.86959   0.87084   0.96777
 Alpha virt. eigenvalues --    0.98613   0.99652   1.13568   1.15219   1.20446
 Alpha virt. eigenvalues --    1.24059   1.27402   1.31141   1.32767   1.35532
 Alpha virt. eigenvalues --    1.40770   1.41318   1.49559   1.53554   1.59670
 Alpha virt. eigenvalues --    1.64537   1.65412   1.67118   1.67900   1.68433
 Alpha virt. eigenvalues --    1.73860   1.73972   1.76769   1.82891   1.83372
 Alpha virt. eigenvalues --    1.89974   1.93064   1.99864   2.14567   2.44305
 Alpha virt. eigenvalues --    2.45716   2.82492   2.85819   2.86100   3.03963
 Alpha virt. eigenvalues --    3.08968   3.16974   3.20619   3.25026   3.28534
 Alpha virt. eigenvalues --    3.42362   3.53761   3.62370   3.66066   3.71282
 Alpha virt. eigenvalues --    3.73311   3.76907   3.89180   3.90544   3.93815
 Alpha virt. eigenvalues --    3.95774   4.01683   4.03408   4.09515   4.16320
 Alpha virt. eigenvalues --    4.16505   4.17202   4.19195   4.20642   4.28748
 Alpha virt. eigenvalues --    4.30737   4.34971   4.45774   4.48926   4.51896
 Alpha virt. eigenvalues --    4.57849   4.62389   4.72263   4.73779   4.77495
 Alpha virt. eigenvalues --    4.81243   4.87100   4.88088   5.01416   5.04809
 Alpha virt. eigenvalues --    5.05548   5.12433   5.20487   5.28585   5.33027
 Alpha virt. eigenvalues --    5.42111   5.43772   5.43871   5.52007   5.52502
 Alpha virt. eigenvalues --    5.59621   6.25813   6.26056   6.28548   6.29005
 Alpha virt. eigenvalues --    6.29301   6.37492   6.71868   6.83456   7.55994
 Alpha virt. eigenvalues --    8.01786   8.15627   8.35913   8.40807   8.41641
 Alpha virt. eigenvalues --    8.43114   8.63150   8.71986   8.80526   8.83441
 Alpha virt. eigenvalues --    8.88302   9.15015   9.19202  10.01191  10.01720
 Alpha virt. eigenvalues --   10.23303  10.36811  10.36930  10.68199  10.72510
 Alpha virt. eigenvalues --   10.82204  10.82633  10.97802  10.98843  11.03070
 Alpha virt. eigenvalues --   11.04812  11.08278  11.13205  11.26469  11.27784
 Alpha virt. eigenvalues --   11.28430  11.29622  11.30906  11.32184  11.32336
 Alpha virt. eigenvalues --   11.32349  11.32360  11.32838  11.36904  11.39748
 Alpha virt. eigenvalues --   11.43070  11.44237  11.46344  11.49575  11.62589
 Alpha virt. eigenvalues --   11.69478  11.70303  11.73809  11.78117  11.78238
 Alpha virt. eigenvalues --   11.81415  11.89230  11.90811  12.03747  12.10046
 Alpha virt. eigenvalues --   12.21873  12.41366  13.45417  13.48171  13.56222
 Alpha virt. eigenvalues --   13.89274  14.40432  14.40433  14.40781  14.41367
 Alpha virt. eigenvalues --   14.46367  14.47193  14.48424  14.49088  14.66639
 Alpha virt. eigenvalues --   14.74283  14.82319  14.82812  14.88385  14.92455
 Alpha virt. eigenvalues --   15.16682  15.65809  15.66213  15.67659  15.70096
 Alpha virt. eigenvalues --   15.79696  15.79923  15.82477  15.85717  15.86310
 Alpha virt. eigenvalues --   15.93963  16.35739  16.38356  47.32664  47.89432
 Alpha virt. eigenvalues --   54.12319  54.22340 250.28890 250.91705 282.92833
 Alpha virt. eigenvalues --  283.05899
          Condensed to atoms (all electrons):
               1          2          3          4
     1  F    9.138998   0.062551  -0.040377   0.002066
     2  O    0.062551   7.632227   0.182361  -0.040377
     3  O   -0.040377   0.182361   7.632227   0.062551
     4  F    0.002066  -0.040377   0.062551   9.138998
 Mulliken charges:
               1
     1  F   -0.163237
     2  O    0.163237
     3  O    0.163237
     4  F   -0.163237
 Sum of Mulliken charges =  -0.00000
 Mulliken charges with hydrogens summed into heavy atoms:
               1
     1  F   -0.163237
     2  O    0.163237
     3  O    0.163237
     4  F   -0.163237
 Electronic spatial extent (au):  <R**2>=            243.9046
 Charge=             -0.0000 electrons
 Dipole moment (field-independent basis, Debye):
    X=              0.0000    Y=              0.0000    Z=              1.2945  Tot=              1.2945
 Quadrupole moment (field-independent basis, Debye-Ang):
   XX=            -20.0569   YY=            -21.9694   ZZ=            -19.5321
   XY=             -0.8460   XZ=              0.0000   YZ=             -0.0000
 Traceless Quadrupole moment (field-independent basis, Debye-Ang):
   XX=              0.4626   YY=             -1.4500   ZZ=              0.9874
   XY=             -0.8460   XZ=              0.0000   YZ=             -0.0000
 Octapole moment (field-independent basis, Debye-Ang**2):
  XXX=             -0.0000  YYY=              0.0000  ZZZ=             -1.3764  XYY=              0.0000
  XXY=              0.0000  XXZ=             -0.0377  XZZ=             -0.0000  YZZ=              0.0000
  YYZ=             -0.2149  XYZ=              0.2853
 Hexadecapole moment (field-independent basis, Debye-Ang**3):
 XXXX=            -49.4510 YYYY=           -133.6538 ZZZZ=            -44.8167 XXXY=            -27.3966
 XXXZ=             -0.0000 YYYX=            -28.6823 YYYZ=              0.0000 ZZZX=             -0.0000
 ZZZY=             -0.0000 XXYY=            -30.9714 XXZZ=            -15.8690 YYZZ=            -28.1402
 XXYZ=             -0.0000 YYXZ=             -0.0000 ZZXY=             -9.1783
 N-N= 1.253879884219D+02 E-N=-1.082313803405D+03  KE= 3.486755313572D+02
 PrsmSu:  requested number of processors reduced to:  21 ShMem   1 Linda.
 No NMR shielding tensors so no spin-rotation constants.
 Leave Link  601 at Sun Apr 18 04:08:23 2021, MaxMem=   104857600 cpu:             148.6 elap:               3.3
 (Enter /s/ls4/users/knvvv/bin/g16sse/l9999.exe)

 Test job not archived.
 1\1\GINC-N305\Stability\RM062X\def2QZVP\F2O2\KNVVV\18-Apr-2021\0\\#P M
 062X/Def2QZVP Integral=UltraFineGrid SCF=NoSymm Stable=(RExt, Opt) IOp
 (1/33=1)\\Database calculations.\\0,1\F,0,0.,0.,0.\O,0,0.,0.,1.5322974
 1\O,0,1.1705852438,0.,1.9230280762\F,0,1.6506598353,1.4521083819,2.017
 0758648\\Version=ES64L-G16RevA.03\State=1-A\HF=-349.8435764\RMSD=2.625
 e-09\Dipole=-0.1164638,-0.3522745,0.3489124\Quadrupole=0.041713,0.1858
 467,-0.2275597,-0.4831402,-0.7189157,-0.7148269\PG=C02 [X(F2O2)]\\@


 THE ... SCIENTISTS WERE WRONG ... THE MOST PERSISTENT PRINCIPLES 
 OF THE UNIVERSE WERE ACCIDENT AND ERROR.

                          -- FRANK HERBERT IN DUNE
 Job cpu time:       0 days  5 hours 53 minutes 29.2 seconds.
 Elapsed time:       0 days  0 hours  8 minutes 15.3 seconds.
 File lengths (MBytes):  RWF=    196 Int=      0 D2E=      0 Chk=      8 Scr=      1
 Normal termination of Gaussian 16 at Sun Apr 18 04:08:23 2021.
