 Entering Gaussian System, Link 0=/s/ls4/users/knvvv/bin/g16sse/g16
 Input=data/database/M062X--def2-QZVP--BH76_RKT09.gjf
 Output=data/database/M062X--def2-QZVP--BH76_RKT09.log
 Initial command:
 /s/ls4/users/knvvv/bin/g16sse/l1.exe "/s/ls4/users/knvvv/bin/scratch/Gau-25345.inp" -scrdir="/s/ls4/users/knvvv/bin/scratch/"
 Entering Link 1 = /s/ls4/users/knvvv/bin/g16sse/l1.exe PID=     25346.
  
 Copyright (c) 1988,1990,1992,1993,1995,1998,2003,2009,2016,
            Gaussian, Inc.  All Rights Reserved.
  
 This is part of the Gaussian(R) 16 program.  It is based on
 the Gaussian(R) 09 system (copyright 2009, Gaussian, Inc.),
 the Gaussian(R) 03 system (copyright 2003, Gaussian, Inc.),
 the Gaussian(R) 98 system (copyright 1998, Gaussian, Inc.),
 the Gaussian(R) 94 system (copyright 1995, Gaussian, Inc.),
 the Gaussian 92(TM) system (copyright 1992, Gaussian, Inc.),
 the Gaussian 90(TM) system (copyright 1990, Gaussian, Inc.),
 the Gaussian 88(TM) system (copyright 1988, Gaussian, Inc.),
 the Gaussian 86(TM) system (copyright 1986, Carnegie Mellon
 University), and the Gaussian 82(TM) system (copyright 1983,
 Carnegie Mellon University). Gaussian is a federally registered
 trademark of Gaussian, Inc.
  
 This software contains proprietary and confidential information,
 including trade secrets, belonging to Gaussian, Inc.
  
 This software is provided under written license and may be
 used, copied, transmitted, or stored only in accord with that
 written license.
  
 The following legend is applicable only to US Government
 contracts under FAR:
  
                    RESTRICTED RIGHTS LEGEND
  
 Use, reproduction and disclosure by the US Government is
 subject to restrictions as set forth in subparagraphs (a)
 and (c) of the Commercial Computer Software - Restricted
 Rights clause in FAR 52.227-19.
  
 Gaussian, Inc.
 340 Quinnipiac St., Bldg. 40, Wallingford CT 06492
  
  
 ---------------------------------------------------------------
 Warning -- This program may not be used in any manner that
 competes with the business of Gaussian, Inc. or will provide
 assistance to any competitor of Gaussian, Inc.  The licensee
 of this program is prohibited from giving any competitor of
 Gaussian, Inc. access to this program.  By using this program,
 the user acknowledges that Gaussian, Inc. is engaged in the
 business of creating and licensing software in the field of
 computational chemistry and represents and warrants to the
 licensee that it is not a competitor of Gaussian, Inc. and that
 it will not use this program in any manner prohibited above.
 ---------------------------------------------------------------
  

 Cite this work as:
 Gaussian 16, Revision A.03,
 M. J. Frisch, G. W. Trucks, H. B. Schlegel, G. E. Scuseria, 
 M. A. Robb, J. R. Cheeseman, G. Scalmani, V. Barone, 
 G. A. Petersson, H. Nakatsuji, X. Li, M. Caricato, A. V. Marenich, 
 J. Bloino, B. G. Janesko, R. Gomperts, B. Mennucci, H. P. Hratchian, 
 J. V. Ortiz, A. F. Izmaylov, J. L. Sonnenberg, D. Williams-Young, 
 F. Ding, F. Lipparini, F. Egidi, J. Goings, B. Peng, A. Petrone, 
 T. Henderson, D. Ranasinghe, V. G. Zakrzewski, J. Gao, N. Rega, 
 G. Zheng, W. Liang, M. Hada, M. Ehara, K. Toyota, R. Fukuda, 
 J. Hasegawa, M. Ishida, T. Nakajima, Y. Honda, O. Kitao, H. Nakai, 
 T. Vreven, K. Throssell, J. A. Montgomery, Jr., J. E. Peralta, 
 F. Ogliaro, M. J. Bearpark, J. J. Heyd, E. N. Brothers, K. N. Kudin, 
 V. N. Staroverov, T. A. Keith, R. Kobayashi, J. Normand, 
 K. Raghavachari, A. P. Rendell, J. C. Burant, S. S. Iyengar, 
 J. Tomasi, M. Cossi, J. M. Millam, M. Klene, C. Adamo, R. Cammi, 
 J. W. Ochterski, R. L. Martin, K. Morokuma, O. Farkas, 
 J. B. Foresman, and D. J. Fox, Gaussian, Inc., Wallingford CT, 2016.
 
 ******************************************
 Gaussian 16:  ES64L-G16RevA.03 25-Dec-2016
                16-Apr-2021 
 ******************************************
 %RWF=temp17_93365,70GB
 %nprocshared=48
 Will use up to   48 processors via shared memory.
 Default route: MaxDisk=80GB
 ----------------------------------------------------------------------
 #P M062X/Def2QZVP Integral=UltraFineGrid SCF=NoSymm Stable=(RExt, Opt)
  IOp(1/33=1)
 ----------------------------------------------------------------------
 1/33=1,38=1,172=1/1;
 2/12=2,17=6,18=5,40=1/2;
 3/5=45,7=101,11=2,25=1,30=1,74=-55,75=-5/1,2,3;
 4/9=2/1;
 5/5=2,38=5/2;
 6/7=2,8=2,9=2,10=2,28=1/1;
 8/6=1,10=90,11=11/1;
 9/8=-3,42=1,46=1/14;
 5/5=2,8=3,17=40,38=5/8(-2);
 6/7=2,8=2,9=2,10=2,28=1/1;
 99/5=1,9=1/99;
 Leave Link    1 at Fri Apr 16 22:55:49 2021, MaxMem=           0 cpu:              10.9 elap:               0.3
 (Enter /s/ls4/users/knvvv/bin/g16sse/l101.exe)
 ONIOM data not found on unit 2.
 ----------------------
 Database calculations.
 ----------------------
 TstMul:  ICh=     0
 TstMul:  Mul=     2
 TstMul:  ICh=     0
 TstMul:  Mul=     2
 Symbolic Z-matrix:
 Charge =  0 Multiplicity = 2
 C                     1.45833  -0.44637   0.02548 
 C                     0.46942   0.69742  -0.02749 
 O                    -1.85304  -0.31466  -0.05305 
 H                     1.30177  -1.06108   0.91074 
 H                     1.36658  -1.08619  -0.85112 
 H                     2.48225  -0.06688   0.05715 
 H                     0.47107   1.32545   0.86103 
 H                     0.53352   1.3035   -0.92856 
 H                    -0.63023   0.20782  -0.07846 
 H                    -2.26721   0.38832   0.46575 
 
 RdStrC is calling ZToCFu for IStruc=1 NZ=    10.
 PrtBox:  NBox=     2 Levels=  1 BoxLen=    8.00 SMaxX=        8.98
          Shift=            4.284400            2.052600            1.754720
 Box      1 Number                   0 centers from      1 to      9:
 Box      2 Number                   4 centers from     10 to     10:
 After GenITR:
 ITRead=  0  0  0  0  0  0  0  0  0  0
 MicOpt= -1 -1 -1 -1 -1 -1 -1 -1 -1 -1
 ITRead=  0  0  0  0  0  0  0  0  0  0
 MicOpt= -1 -1 -1 -1 -1 -1 -1 -1 -1 -1
 NAtoms=     10 NQM=       10 NQMF=       0 NMMI=      0 NMMIF=      0
                NMic=       0 NMicF=      0.
                    Isotopes and Nuclear Properties:
 (Nuclear quadrupole moments (NQMom) in fm**2, nuclear magnetic moments (NMagM)
  in nuclear magnetons)

  Atom         1           2           3           4           5           6           7           8           9          10
 IAtWgt=          12          12          16           1           1           1           1           1           1           1
 AtmWgt=  12.0000000  12.0000000  15.9949146   1.0078250   1.0078250   1.0078250   1.0078250   1.0078250   1.0078250   1.0078250
 NucSpn=           0           0           0           1           1           1           1           1           1           1
 AtZEff=  -0.0000000  -0.0000000  -0.0000000  -0.0000000  -0.0000000  -0.0000000  -0.0000000  -0.0000000  -0.0000000  -0.0000000
 NQMom=    0.0000000   0.0000000   0.0000000   0.0000000   0.0000000   0.0000000   0.0000000   0.0000000   0.0000000   0.0000000
 NMagM=    0.0000000   0.0000000   0.0000000   2.7928460   2.7928460   2.7928460   2.7928460   2.7928460   2.7928460   2.7928460
 AtZNuc=   6.0000000   6.0000000   8.0000000   1.0000000   1.0000000   1.0000000   1.0000000   1.0000000   1.0000000   1.0000000
 No MM parameters found.
 Leave Link  101 at Fri Apr 16 22:55:49 2021, MaxMem=   104857600 cpu:               6.8 elap:               0.2
 (Enter /s/ls4/users/knvvv/bin/g16sse/l202.exe)
                          Input orientation:                          
 ---------------------------------------------------------------------
 Center     Atomic      Atomic             Coordinates (Angstroms)
 Number     Number       Type             X           Y           Z
 ---------------------------------------------------------------------
      1          6           0        1.458333   -0.446365    0.025478
      2          6           0        0.469423    0.697424   -0.027493
      3          8           0       -1.853036   -0.314659   -0.053055
      4          1           0        1.301765   -1.061080    0.910735
      5          1           0        1.366584   -1.086189   -0.851118
      6          1           0        2.482249   -0.066879    0.057150
      7          1           0        0.471069    1.325446    0.861035
      8          1           0        0.533522    1.303496   -0.928558
      9          1           0       -0.630234    0.207816   -0.078465
     10          1           0       -2.267207    0.388321    0.465751
 ---------------------------------------------------------------------
                    Distance matrix (angstroms):
                    1          2          3          4          5
     1  C    0.000000
     2  C    1.512945   0.000000
     3  O    3.314918   2.533531   0.000000
     4  H    1.089067   2.159954   3.382130   0.000000
     5  H    1.089134   2.159753   3.405601   1.763224   0.000000
     6  H    1.092436   2.154714   4.343758   1.763685   1.763137
     7  H    2.193664   1.088070   2.987804   2.527456   3.090210
     8  H    2.197151   1.087819   3.013402   3.092639   2.531913
     9  H    2.191089   1.204807   1.329989   2.514207   2.501745
    10  H    3.843201   2.797852   0.966892   3.877672   4.136758
                    6          7          8          9         10
     6  H    0.000000
     7  H    2.574809   0.000000
     8  H    2.578194   1.790817   0.000000
     9  H    3.127523   1.828832   1.810387   0.000000
    10  H    4.788684   2.921063   3.259712   1.734484   0.000000
 Stoichiometry    C2H7O(2)
 Framework group  C1[X(C2H7O)]
 Deg. of freedom    24
 Full point group                 C1      NOp   1
 Largest Abelian subgroup         C1      NOp   1
 Largest concise Abelian subgroup C1      NOp   1
                         Standard orientation:                         
 ---------------------------------------------------------------------
 Center     Atomic      Atomic             Coordinates (Angstroms)
 Number     Number       Type             X           Y           Z
 ---------------------------------------------------------------------
      1          6           0        1.458333   -0.446366    0.025478
      2          6           0        0.469423    0.697423   -0.027493
      3          8           0       -1.853036   -0.314659   -0.053055
      4          1           0        1.301765   -1.061080    0.910735
      5          1           0        1.366584   -1.086190   -0.851118
      6          1           0        2.482249   -0.066880    0.057150
      7          1           0        0.471070    1.325446    0.861035
      8          1           0        0.533522    1.303495   -0.928558
      9          1           0       -0.630234    0.207816   -0.078465
     10          1           0       -2.267207    0.388322    0.465751
 ---------------------------------------------------------------------
 Rotational constants (GHZ):          26.3585358           4.9397462           4.4113421
 Leave Link  202 at Fri Apr 16 22:55:49 2021, MaxMem=   104857600 cpu:               6.1 elap:               0.1
 (Enter /s/ls4/users/knvvv/bin/g16sse/l301.exe)
 Standard basis: def2QZVP (5D, 7F)
 Ernie: Thresh=  0.10000D-02 Tol=  0.10000D-05 Strict=F.
 There are   461 symmetry adapted cartesian basis functions of A   symmetry.
 There are   381 symmetry adapted basis functions of A   symmetry.
   381 basis functions,   542 primitive gaussians,   461 cartesian basis functions
    14 alpha electrons       13 beta electrons
       nuclear repulsion energy        76.6212824099 Hartrees.
 IExCor= 4336 DFT=T Ex+Corr=M062X ExCW=0 ScaHFX=  0.540000
 ScaDFX=  1.000000  1.000000  1.000000  1.000000 ScalE2=  1.000000  1.000000
 IRadAn=      5 IRanWt=     -1 IRanGd=            0 ICorTp=0 IEmpDi=  4
 NAtoms=   10 NActive=   10 NUniq=   10 SFac= 1.00D+00 NAtFMM=   60 NAOKFM=F Big=F
 Integral buffers will be    131072 words long.
 Raffenetti 2 integral format.
 Two-electron integral symmetry is turned on.
 Leave Link  301 at Fri Apr 16 22:55:50 2021, MaxMem=   104857600 cpu:               5.7 elap:               0.1
 (Enter /s/ls4/users/knvvv/bin/g16sse/l302.exe)
 NPDir=0 NMtPBC=     1 NCelOv=     1 NCel=       1 NClECP=     1 NCelD=      1
         NCelK=      1 NCelE2=     1 NClLst=     1 CellRange=     0.0.
 One-electron integrals computed using PRISM.
 One-electron integral symmetry used in STVInt
 PrsmSu:  requested number of processors reduced to:   4 ShMem   1 Linda.
 PrsmSu:  requested number of processors reduced to:  20 ShMem   1 Linda.
   1 Symmetry operations used in ECPInt.
 ECPInt:  NShTT=    7381 NPrTT=   16090 LenC2=    7258 LenP2D=   13891.
 LDataN:  DoStor=T MaxTD1= 8 Len=  415
 Number of processors reduced to  20 by ecpmxn.
 NBasis=   381 RedAO= T EigKep=  8.76D-05  NBF=   381
 NBsUse=   381 1.00D-06 EigRej= -1.00D+00 NBFU=   381
 Precomputing XC quadrature grid using
 IXCGrd= 4 IRadAn=           5 IRanWt=          -1 IRanGd=           0 AccXCQ= 0.00D+00.
 Generated NRdTot=       0 NPtTot=           0 NUsed=           0 NTot=          32
 NSgBfM=   461   461   461   461   461 MxSgAt=    10 MxSgA2=    10.
 Leave Link  302 at Fri Apr 16 22:55:52 2021, MaxMem=   104857600 cpu:             107.8 elap:               2.4
 (Enter /s/ls4/users/knvvv/bin/g16sse/l303.exe)
 DipDrv:  MaxL=1.
 Leave Link  303 at Fri Apr 16 22:55:54 2021, MaxMem=   104857600 cpu:              81.4 elap:               1.8
 (Enter /s/ls4/users/knvvv/bin/g16sse/l401.exe)
 SCF N**3 symmetry information disabled.
 ExpMin= 7.60D-02 ExpMax= 1.17D+05 ExpMxC= 1.13D+03 IAcc=3 IRadAn=         5 AccDes= 0.00D+00
 Harris functional with IExCor= 1009 and IRadAn=       5 diagonalized for initial guess.
 HarFok:  IExCor= 1009 AccDes= 0.00D+00 IRadAn=         5 IDoV= 1 UseB2=F ITyADJ=14
 ICtDFT=  3500011 ScaDFX=  1.000000  1.000000  1.000000  1.000000
 FoFCou: FMM=F IPFlag=           0 FMFlag=      100000 FMFlg1=           0
         NFxFlg=           0 DoJE=T BraDBF=F KetDBF=T FulRan=T
         wScrn=  0.000000 ICntrl=       500 IOpCl=  0 I1Cent=   200000004 NGrid=           0
         NMat0=    1 NMatS0=      1 NMatT0=    0 NMatD0=    1 NMtDS0=    0 NMtDT0=    0
 Petite list used in FoFCou.
 CoulSu:  requested number of processors reduced to:  20 ShMem   1 Linda.
 CoulSu:  requested number of processors reduced to:  20 ShMem   1 Linda.
 CoulSu:  requested number of processors reduced to:  21 ShMem   1 Linda.
 CoulSu:  requested number of processors reduced to:  21 ShMem   1 Linda.
 Harris En= -155.527647295649    
 JPrj=0 DoOrth=F DoCkMO=F.
 Initial guess <Sx>= 0.0000 <Sy>= 0.0000 <Sz>= 0.5000 <S**2>= 0.7500 S= 0.5000
 Leave Link  401 at Fri Apr 16 22:55:55 2021, MaxMem=   104857600 cpu:              69.4 elap:               1.7
 (Enter /s/ls4/users/knvvv/bin/g16sse/l502.exe)
 Integral symmetry usage will be decided dynamically.
 UHF open shell SCF:
 Using DIIS extrapolation, IDIIS=  1040.
 NGot=   104857600 LenX=   104406680 LenY=   104193698
 Requested convergence on RMS density matrix=1.00D-08 within 128 cycles.
 Requested convergence on MAX density matrix=1.00D-06.
 Requested convergence on             energy=1.00D-06.
 No special actions if energy rises.
 Fock matrices will be formed incrementally for  20 cycles.
 Integral accuracy reduced to 1.0D-05 until final iterations.

 Cycle   1  Pass 0  IDiag  1:
 FoFJK:  IHMeth= 1 ICntrl=       0 DoSepK=F KAlg= 0 I1Cent=           0 FoldK=F
 IRaf= 970000000 NMat=       1 IRICut=       1 DoRegI=T DoRafI=F ISym2E= 0 IDoP0=0 IntGTp=1.
 FoFCou: FMM=F IPFlag=           0 FMFlag=      100000 FMFlg1=           0
         NFxFlg=           0 DoJE=F BraDBF=F KetDBF=F FulRan=T
         wScrn=  0.000000 ICntrl=         0 IOpCl=  1 I1Cent=           0 NGrid=           0
         NMat0=    1 NMatS0=      1 NMatT0=    0 NMatD0=    1 NMtDS0=    0 NMtDT0=    0
 Symmetry not used in FoFCou.
 CoulSu:  requested number of processors reduced to:  19 ShMem   1 Linda.
 E= -155.402273287064    
 DIIS: error= 2.36D-02 at cycle   1 NSaved=   1.
 NSaved= 1 IEnMin= 1 EnMin= -155.402273287064     IErMin= 1 ErrMin= 2.36D-02
 ErrMax= 2.36D-02  0.00D+00 EMaxC= 1.00D-01 BMatC= 9.04D-01 BMatP= 9.04D-01
 IDIUse=3 WtCom= 7.64D-01 WtEn= 2.36D-01
 Coeff-Com:  0.100D+01
 Coeff-En:   0.100D+01
 Coeff:      0.100D+01
 Gap=     0.281 Goal=   None    Shift=    0.000
 Gap=     0.264 Goal=   None    Shift=    0.000
 GapD=    0.264 DampG=1.000 DampE=0.500 DampFc=0.5000 IDamp=-1.
 Damping current iteration by 5.00D-01
 RMSDP=1.36D-03 MaxDP=1.27D-01              OVMax= 1.61D-01

 Cycle   2  Pass 0  IDiag  1:
 RMSU=  6.79D-04    CP:  9.87D-01
 CoulSu:  requested number of processors reduced to:  19 ShMem   1 Linda.
 E= -155.475494997161     Delta-E=       -0.073221710097 Rises=F Damp=T
 DIIS: error= 1.15D-02 at cycle   2 NSaved=   2.
 NSaved= 2 IEnMin= 2 EnMin= -155.475494997161     IErMin= 2 ErrMin= 1.15D-02
 ErrMax= 1.15D-02  0.00D+00 EMaxC= 1.00D-01 BMatC= 1.01D-01 BMatP= 9.04D-01
 IDIUse=3 WtCom= 8.85D-01 WtEn= 1.15D-01
 Coeff-Com: -0.115D+00 0.112D+01
 Coeff-En:   0.000D+00 0.100D+01
 Coeff:     -0.102D+00 0.110D+01
 Gap=     0.385 Goal=   None    Shift=    0.000
 Gap=     0.289 Goal=   None    Shift=    0.000
 RMSDP=5.09D-04 MaxDP=5.20D-02 DE=-7.32D-02 OVMax= 8.08D-02

 Cycle   3  Pass 0  IDiag  1:
 RMSU=  4.91D-04    CP:  9.90D-01  8.00D-01
 CoulSu:  requested number of processors reduced to:  19 ShMem   1 Linda.
 E= -155.545881462897     Delta-E=       -0.070386465736 Rises=F Damp=F
 DIIS: error= 3.15D-03 at cycle   3 NSaved=   3.
 NSaved= 3 IEnMin= 3 EnMin= -155.545881462897     IErMin= 3 ErrMin= 3.15D-03
 ErrMax= 3.15D-03  0.00D+00 EMaxC= 1.00D-01 BMatC= 2.01D-02 BMatP= 1.01D-01
 IDIUse=3 WtCom= 9.69D-01 WtEn= 3.15D-02
 Coeff-Com: -0.106D+00 0.326D+00 0.780D+00
 Coeff-En:   0.000D+00 0.000D+00 0.100D+01
 Coeff:     -0.102D+00 0.316D+00 0.786D+00
 Gap=     0.375 Goal=   None    Shift=    0.000
 Gap=     0.260 Goal=   None    Shift=    0.000
 RMSDP=1.52D-04 MaxDP=8.78D-03 DE=-7.04D-02 OVMax= 5.78D-02

 Cycle   4  Pass 0  IDiag  1:
 RMSU=  1.29D-04    CP:  9.89D-01  9.16D-01  9.83D-01
 CoulSu:  requested number of processors reduced to:  19 ShMem   1 Linda.
 E= -155.548075587560     Delta-E=       -0.002194124664 Rises=F Damp=F
 DIIS: error= 2.32D-03 at cycle   4 NSaved=   4.
 NSaved= 4 IEnMin= 4 EnMin= -155.548075587560     IErMin= 4 ErrMin= 2.32D-03
 ErrMax= 2.32D-03  0.00D+00 EMaxC= 1.00D-01 BMatC= 8.77D-03 BMatP= 2.01D-02
 IDIUse=3 WtCom= 9.77D-01 WtEn= 2.32D-02
 Coeff-Com: -0.446D-01 0.921D-01 0.454D+00 0.499D+00
 Coeff-En:   0.000D+00 0.000D+00 0.286D+00 0.714D+00
 Coeff:     -0.436D-01 0.900D-01 0.450D+00 0.504D+00
 Gap=     0.373 Goal=   None    Shift=    0.000
 Gap=     0.274 Goal=   None    Shift=    0.000
 RMSDP=7.15D-05 MaxDP=4.23D-03 DE=-2.19D-03 OVMax= 1.34D-02

 Cycle   5  Pass 0  IDiag  1:
 RMSU=  3.72D-05    CP:  9.88D-01  8.77D-01  1.00D+00  5.83D-01
 CoulSu:  requested number of processors reduced to:  19 ShMem   1 Linda.
 E= -155.549842892625     Delta-E=       -0.001767305064 Rises=F Damp=F
 DIIS: error= 3.77D-04 at cycle   5 NSaved=   5.
 NSaved= 5 IEnMin= 5 EnMin= -155.549842892625     IErMin= 5 ErrMin= 3.77D-04
 ErrMax= 3.77D-04  0.00D+00 EMaxC= 1.00D-01 BMatC= 1.11D-04 BMatP= 8.77D-03
 IDIUse=3 WtCom= 9.96D-01 WtEn= 3.77D-03
 Coeff-Com:  0.113D-01-0.267D-01-0.648D-01-0.369D-01 0.112D+01
 Coeff-En:   0.000D+00 0.000D+00 0.000D+00 0.000D+00 0.100D+01
 Coeff:      0.113D-01-0.266D-01-0.646D-01-0.368D-01 0.112D+01
 Gap=     0.374 Goal=   None    Shift=    0.000
 Gap=     0.276 Goal=   None    Shift=    0.000
 RMSDP=2.25D-05 MaxDP=1.45D-03 DE=-1.77D-03 OVMax= 9.27D-03

 Cycle   6  Pass 0  IDiag  1:
 RMSU=  1.30D-05    CP:  9.88D-01  8.63D-01  1.02D+00  6.21D-01  1.35D+00
 CoulSu:  requested number of processors reduced to:  19 ShMem   1 Linda.
 E= -155.549921617291     Delta-E=       -0.000078724666 Rises=F Damp=F
 DIIS: error= 1.55D-04 at cycle   6 NSaved=   6.
 NSaved= 6 IEnMin= 6 EnMin= -155.549921617291     IErMin= 6 ErrMin= 1.55D-04
 ErrMax= 1.55D-04  0.00D+00 EMaxC= 1.00D-01 BMatC= 2.72D-05 BMatP= 1.11D-04
 IDIUse=3 WtCom= 9.98D-01 WtEn= 1.55D-03
 Coeff-Com:  0.723D-02-0.145D-01-0.691D-01-0.105D+00 0.320D-01 0.115D+01
 Coeff-En:   0.000D+00 0.000D+00 0.000D+00 0.000D+00 0.000D+00 0.100D+01
 Coeff:      0.721D-02-0.144D-01-0.690D-01-0.105D+00 0.319D-01 0.115D+01
 Gap=     0.374 Goal=   None    Shift=    0.000
 Gap=     0.277 Goal=   None    Shift=    0.000
 RMSDP=1.25D-05 MaxDP=8.51D-04 DE=-7.87D-05 OVMax= 4.80D-03

 Cycle   7  Pass 0  IDiag  1:
 RMSU=  5.60D-06    CP:  9.88D-01  8.57D-01  1.02D+00  6.26D-01  1.57D+00
                    CP:  1.46D+00
 CoulSu:  requested number of processors reduced to:  19 ShMem   1 Linda.
 E= -155.549939670953     Delta-E=       -0.000018053662 Rises=F Damp=F
 DIIS: error= 4.73D-05 at cycle   7 NSaved=   7.
 NSaved= 7 IEnMin= 7 EnMin= -155.549939670953     IErMin= 7 ErrMin= 4.73D-05
 ErrMax= 4.73D-05  0.00D+00 EMaxC= 1.00D-01 BMatC= 2.44D-06 BMatP= 2.72D-05
 IDIUse=1 WtCom= 1.00D+00 WtEn= 0.00D+00
 Coeff-Com: -0.140D-02 0.302D-02 0.996D-02-0.586D-03-0.694D-01-0.741D-01
 Coeff-Com:  0.113D+01
 Coeff:     -0.140D-02 0.302D-02 0.996D-02-0.586D-03-0.694D-01-0.741D-01
 Coeff:      0.113D+01
 Gap=     0.374 Goal=   None    Shift=    0.000
 Gap=     0.278 Goal=   None    Shift=    0.000
 RMSDP=3.98D-06 MaxDP=2.48D-04 DE=-1.81D-05 OVMax= 1.29D-03

 Initial convergence to 1.0D-05 achieved.  Increase integral accuracy.
 Cycle   8  Pass 1  IDiag  1:
 CoulSu:  requested number of processors reduced to:  19 ShMem   1 Linda.
 E= -155.549967953097     Delta-E=       -0.000028282144 Rises=F Damp=F
 DIIS: error= 3.71D-05 at cycle   1 NSaved=   1.
 NSaved= 1 IEnMin= 1 EnMin= -155.549967953097     IErMin= 1 ErrMin= 3.71D-05
 ErrMax= 3.71D-05  0.00D+00 EMaxC= 1.00D-01 BMatC= 3.72D-06 BMatP= 3.72D-06
 IDIUse=1 WtCom= 1.00D+00 WtEn= 0.00D+00
 Coeff-Com:  0.100D+01
 Coeff:      0.100D+01
 Gap=     0.374 Goal=   None    Shift=    0.000
 Gap=     0.278 Goal=   None    Shift=    0.000
 RMSDP=3.98D-06 MaxDP=2.48D-04 DE=-2.83D-05 OVMax= 2.56D-04

 Cycle   9  Pass 1  IDiag  1:
 RMSU=  8.99D-06    CP:  1.00D+00
 CoulSu:  requested number of processors reduced to:  19 ShMem   1 Linda.
 E= -155.549968363350     Delta-E=       -0.000000410253 Rises=F Damp=F
 DIIS: error= 2.33D-05 at cycle   2 NSaved=   2.
 NSaved= 2 IEnMin= 2 EnMin= -155.549968363350     IErMin= 2 ErrMin= 2.33D-05
 ErrMax= 2.33D-05  0.00D+00 EMaxC= 1.00D-01 BMatC= 3.73D-07 BMatP= 3.72D-06
 IDIUse=1 WtCom= 1.00D+00 WtEn= 0.00D+00
 Coeff-Com:  0.115D+00 0.885D+00
 Coeff:      0.115D+00 0.885D+00
 Gap=     0.374 Goal=   None    Shift=    0.000
 Gap=     0.278 Goal=   None    Shift=    0.000
 RMSDP=8.66D-07 MaxDP=7.86D-05 DE=-4.10D-07 OVMax= 3.16D-04

 Cycle  10  Pass 1  IDiag  1:
 RMSU=  8.03D-07    CP:  1.00D+00  1.04D+00
 CoulSu:  requested number of processors reduced to:  19 ShMem   1 Linda.
 E= -155.549968441121     Delta-E=       -0.000000077771 Rises=F Damp=F
 DIIS: error= 1.89D-05 at cycle   3 NSaved=   3.
 NSaved= 3 IEnMin= 3 EnMin= -155.549968441121     IErMin= 3 ErrMin= 1.89D-05
 ErrMax= 1.89D-05  0.00D+00 EMaxC= 1.00D-01 BMatC= 3.10D-07 BMatP= 3.73D-07
 IDIUse=1 WtCom= 1.00D+00 WtEn= 0.00D+00
 Coeff-Com: -0.329D-01 0.473D+00 0.560D+00
 Coeff:     -0.329D-01 0.473D+00 0.560D+00
 Gap=     0.374 Goal=   None    Shift=    0.000
 Gap=     0.278 Goal=   None    Shift=    0.000
 RMSDP=4.71D-07 MaxDP=3.49D-05 DE=-7.78D-08 OVMax= 8.90D-05

 Cycle  11  Pass 1  IDiag  1:
 RMSU=  4.33D-07    CP:  1.00D+00  1.05D+00  8.02D-01
 CoulSu:  requested number of processors reduced to:  19 ShMem   1 Linda.
 E= -155.549968512609     Delta-E=       -0.000000071488 Rises=F Damp=F
 DIIS: error= 4.66D-06 at cycle   4 NSaved=   4.
 NSaved= 4 IEnMin= 4 EnMin= -155.549968512609     IErMin= 4 ErrMin= 4.66D-06
 ErrMax= 4.66D-06  0.00D+00 EMaxC= 1.00D-01 BMatC= 1.96D-08 BMatP= 3.10D-07
 IDIUse=1 WtCom= 1.00D+00 WtEn= 0.00D+00
 Coeff-Com: -0.197D-01 0.804D-01 0.105D+00 0.834D+00
 Coeff:     -0.197D-01 0.804D-01 0.105D+00 0.834D+00
 Gap=     0.374 Goal=   None    Shift=    0.000
 Gap=     0.278 Goal=   None    Shift=    0.000
 RMSDP=2.24D-07 MaxDP=1.45D-05 DE=-7.15D-08 OVMax= 1.10D-04

 Cycle  12  Pass 1  IDiag  1:
 RMSU=  1.80D-07    CP:  1.00D+00  1.05D+00  8.96D-01  1.24D+00
 CoulSu:  requested number of processors reduced to:  19 ShMem   1 Linda.
 E= -155.549968524338     Delta-E=       -0.000000011729 Rises=F Damp=F
 DIIS: error= 3.13D-06 at cycle   5 NSaved=   5.
 NSaved= 5 IEnMin= 5 EnMin= -155.549968524338     IErMin= 5 ErrMin= 3.13D-06
 ErrMax= 3.13D-06  0.00D+00 EMaxC= 1.00D-01 BMatC= 1.37D-08 BMatP= 1.96D-08
 IDIUse=1 WtCom= 1.00D+00 WtEn= 0.00D+00
 Coeff-Com:  0.118D-01-0.251D+00-0.368D+00 0.434D+00 0.117D+01
 Coeff:      0.118D-01-0.251D+00-0.368D+00 0.434D+00 0.117D+01
 Gap=     0.374 Goal=   None    Shift=    0.000
 Gap=     0.278 Goal=   None    Shift=    0.000
 RMSDP=3.29D-07 MaxDP=1.32D-05 DE=-1.17D-08 OVMax= 1.08D-04

 Cycle  13  Pass 1  IDiag  1:
 RMSU=  9.59D-08    CP:  1.00D+00  1.05D+00  1.03D+00  1.91D+00  1.34D+00
 CoulSu:  requested number of processors reduced to:  19 ShMem   1 Linda.
 E= -155.549968533640     Delta-E=       -0.000000009302 Rises=F Damp=F
 DIIS: error= 7.90D-07 at cycle   6 NSaved=   6.
 NSaved= 6 IEnMin= 6 EnMin= -155.549968533640     IErMin= 6 ErrMin= 7.90D-07
 ErrMax= 7.90D-07  0.00D+00 EMaxC= 1.00D-01 BMatC= 3.97D-10 BMatP= 1.37D-08
 IDIUse=1 WtCom= 1.00D+00 WtEn= 0.00D+00
 Coeff-Com:  0.263D-02-0.219D-01-0.400D-01-0.121D-01 0.661D-01 0.101D+01
 Coeff:      0.263D-02-0.219D-01-0.400D-01-0.121D-01 0.661D-01 0.101D+01
 Gap=     0.374 Goal=   None    Shift=    0.000
 Gap=     0.278 Goal=   None    Shift=    0.000
 RMSDP=5.94D-08 MaxDP=3.11D-06 DE=-9.30D-09 OVMax= 3.17D-05

 Cycle  14  Pass 1  IDiag  1:
 RMSU=  3.07D-08    CP:  1.00D+00  1.05D+00  1.05D+00  2.00D+00  1.43D+00
                    CP:  1.26D+00
 CoulSu:  requested number of processors reduced to:  19 ShMem   1 Linda.
 E= -155.549968534248     Delta-E=       -0.000000000608 Rises=F Damp=F
 DIIS: error= 5.91D-07 at cycle   7 NSaved=   7.
 NSaved= 7 IEnMin= 7 EnMin= -155.549968534248     IErMin= 7 ErrMin= 5.91D-07
 ErrMax= 5.91D-07  0.00D+00 EMaxC= 1.00D-01 BMatC= 1.53D-10 BMatP= 3.97D-10
 IDIUse=1 WtCom= 1.00D+00 WtEn= 0.00D+00
 Coeff-Com: -0.152D-02 0.354D-01 0.517D-01-0.676D-01-0.172D+00 0.308D-01
 Coeff-Com:  0.112D+01
 Coeff:     -0.152D-02 0.354D-01 0.517D-01-0.676D-01-0.172D+00 0.308D-01
 Coeff:      0.112D+01
 Gap=     0.374 Goal=   None    Shift=    0.000
 Gap=     0.278 Goal=   None    Shift=    0.000
 RMSDP=3.99D-08 MaxDP=2.31D-06 DE=-6.08D-10 OVMax= 2.83D-05

 Cycle  15  Pass 1  IDiag  1:
 RMSU=  1.58D-08    CP:  1.00D+00  1.05D+00  1.05D+00  2.03D+00  1.47D+00
                    CP:  1.46D+00  1.86D+00
 CoulSu:  requested number of processors reduced to:  19 ShMem   1 Linda.
 E= -155.549968534571     Delta-E=       -0.000000000323 Rises=F Damp=F
 DIIS: error= 3.99D-07 at cycle   8 NSaved=   8.
 NSaved= 8 IEnMin= 8 EnMin= -155.549968534571     IErMin= 8 ErrMin= 3.99D-07
 ErrMax= 3.99D-07  0.00D+00 EMaxC= 1.00D-01 BMatC= 7.22D-11 BMatP= 1.53D-10
 IDIUse=1 WtCom= 1.00D+00 WtEn= 0.00D+00
 Coeff-Com: -0.399D-03-0.113D-01-0.110D-01 0.457D-01 0.825D-01-0.502D+00
 Coeff-Com: -0.695D+00 0.209D+01
 Coeff:     -0.399D-03-0.113D-01-0.110D-01 0.457D-01 0.825D-01-0.502D+00
 Coeff:     -0.695D+00 0.209D+01
 Gap=     0.374 Goal=   None    Shift=    0.000
 Gap=     0.278 Goal=   None    Shift=    0.000
 RMSDP=6.03D-08 MaxDP=3.85D-06 DE=-3.23D-10 OVMax= 4.43D-05

 Cycle  16  Pass 1  IDiag  1:
 RMSU=  1.57D-08    CP:  1.00D+00  1.05D+00  1.06D+00  2.05D+00  1.50D+00
                    CP:  1.73D+00  3.00D+00  2.49D+00
 CoulSu:  requested number of processors reduced to:  19 ShMem   1 Linda.
 E= -155.549968534868     Delta-E=       -0.000000000297 Rises=F Damp=F
 DIIS: error= 1.73D-07 at cycle   9 NSaved=   9.
 NSaved= 9 IEnMin= 9 EnMin= -155.549968534868     IErMin= 9 ErrMin= 1.73D-07
 ErrMax= 1.73D-07  0.00D+00 EMaxC= 1.00D-01 BMatC= 1.71D-11 BMatP= 7.22D-11
 IDIUse=1 WtCom= 1.00D+00 WtEn= 0.00D+00
 Coeff-Com:  0.413D-03-0.123D-01-0.169D-01 0.230D-01 0.611D-01-0.529D-01
 Coeff-Com: -0.392D+00 0.128D+00 0.126D+01
 Coeff:      0.413D-03-0.123D-01-0.169D-01 0.230D-01 0.611D-01-0.529D-01
 Coeff:     -0.392D+00 0.128D+00 0.126D+01
 Gap=     0.374 Goal=   None    Shift=    0.000
 Gap=     0.278 Goal=   None    Shift=    0.000
 RMSDP=3.13D-08 MaxDP=2.09D-06 DE=-2.97D-10 OVMax= 2.31D-05

 Cycle  17  Pass 1  IDiag  1:
 RMSU=  1.14D-08    CP:  1.00D+00  1.05D+00  1.06D+00  2.06D+00  1.52D+00
                    CP:  1.85D+00  3.00D+00  3.00D+00  2.41D+00
 CoulSu:  requested number of processors reduced to:  19 ShMem   1 Linda.
 E= -155.549968534929     Delta-E=       -0.000000000061 Rises=F Damp=F
 DIIS: error= 7.85D-08 at cycle  10 NSaved=  10.
 NSaved=10 IEnMin=10 EnMin= -155.549968534929     IErMin=10 ErrMin= 7.85D-08
 ErrMax= 7.85D-08  0.00D+00 EMaxC= 1.00D-01 BMatC= 4.51D-12 BMatP= 1.71D-11
 IDIUse=1 WtCom= 1.00D+00 WtEn= 0.00D+00
 Coeff-Com:  0.252D-03-0.796D-03-0.220D-02-0.592D-02-0.216D-02 0.127D+00
 Coeff-Com:  0.795D-01-0.591D+00 0.443D+00 0.953D+00
 Coeff:      0.252D-03-0.796D-03-0.220D-02-0.592D-02-0.216D-02 0.127D+00
 Coeff:      0.795D-01-0.591D+00 0.443D+00 0.953D+00
 Gap=     0.374 Goal=   None    Shift=    0.000
 Gap=     0.278 Goal=   None    Shift=    0.000
 RMSDP=1.27D-08 MaxDP=8.67D-07 DE=-6.12D-11 OVMax= 9.08D-06

 Cycle  18  Pass 1  IDiag  1:
 RMSU=  3.87D-09    CP:  1.00D+00  1.05D+00  1.06D+00  2.07D+00  1.52D+00
                    CP:  1.90D+00  3.00D+00  3.00D+00  3.00D+00  1.45D+00
 CoulSu:  requested number of processors reduced to:  19 ShMem   1 Linda.
 E= -155.549968534937     Delta-E=       -0.000000000007 Rises=F Damp=F
 DIIS: error= 2.11D-08 at cycle  11 NSaved=  11.
 NSaved=11 IEnMin=11 EnMin= -155.549968534937     IErMin=11 ErrMin= 2.11D-08
 ErrMax= 2.11D-08  0.00D+00 EMaxC= 1.00D-01 BMatC= 3.88D-13 BMatP= 4.51D-12
 IDIUse=1 WtCom= 1.00D+00 WtEn= 0.00D+00
 Coeff-Com: -0.136D-04 0.177D-02 0.229D-02-0.431D-02-0.100D-01 0.242D-01
 Coeff-Com:  0.802D-01-0.109D+00-0.131D+00 0.122D+00 0.102D+01
 Coeff:     -0.136D-04 0.177D-02 0.229D-02-0.431D-02-0.100D-01 0.242D-01
 Coeff:      0.802D-01-0.109D+00-0.131D+00 0.122D+00 0.102D+01
 Gap=     0.374 Goal=   None    Shift=    0.000
 Gap=     0.278 Goal=   None    Shift=    0.000
 RMSDP=2.71D-09 MaxDP=1.94D-07 DE=-7.42D-12 OVMax= 1.80D-06

 SCF Done:  E(UM062X) =  -155.549968535     A.U. after   18 cycles
            NFock= 18  Conv=0.27D-08     -V/T= 2.0041
 <Sx>= 0.0000 <Sy>= 0.0000 <Sz>= 0.5000 <S**2>= 0.7595 S= 0.5047
 <L.S>= 0.000000000000E+00
 KE= 1.549133720575D+02 PE=-5.168455312266D+02 EE= 1.297609082243D+02
 Annihilation of the first spin contaminant:
 S**2 before annihilation     0.7595,   after     0.7500
 Leave Link  502 at Fri Apr 16 22:58:30 2021, MaxMem=   104857600 cpu:            4841.3 elap:             154.1
 (Enter /s/ls4/users/knvvv/bin/g16sse/l601.exe)
 Copying SCF densities to generalized density rwf, IOpCl= 1 IROHF=0.

 **********************************************************************

            Population analysis using the SCF density.

 **********************************************************************

 Orbital symmetries:
 Alpha Orbitals:
       Occupied  (A) (A) (A) (A) (A) (A) (A) (A) (A) (A) (A) (A)
                 (A) (A)
       Virtual   (A) (A) (A) (A) (A) (A) (A) (A) (A) (A) (A) (A)
                 (A) (A) (A) (A) (A) (A) (A) (A) (A) (A) (A) (A)
                 (A) (A) (A) (A) (A) (A) (A) (A) (A) (A) (A) (A)
                 (A) (A) (A) (A) (A) (A) (A) (A) (A) (A) (A) (A)
                 (A) (A) (A) (A) (A) (A) (A) (A) (A) (A) (A) (A)
                 (A) (A) (A) (A) (A) (A) (A) (A) (A) (A) (A) (A)
                 (A) (A) (A) (A) (A) (A) (A) (A) (A) (A) (A) (A)
                 (A) (A) (A) (A) (A) (A) (A) (A) (A) (A) (A) (A)
                 (A) (A) (A) (A) (A) (A) (A) (A) (A) (A) (A) (A)
                 (A) (A) (A) (A) (A) (A) (A) (A) (A) (A) (A) (A)
                 (A) (A) (A) (A) (A) (A) (A) (A) (A) (A) (A) (A)
                 (A) (A) (A) (A) (A) (A) (A) (A) (A) (A) (A) (A)
                 (A) (A) (A) (A) (A) (A) (A) (A) (A) (A) (A) (A)
                 (A) (A) (A) (A) (A) (A) (A) (A) (A) (A) (A) (A)
                 (A) (A) (A) (A) (A) (A) (A) (A) (A) (A) (A) (A)
                 (A) (A) (A) (A) (A) (A) (A) (A) (A) (A) (A) (A)
                 (A) (A) (A) (A) (A) (A) (A) (A) (A) (A) (A) (A)
                 (A) (A) (A) (A) (A) (A) (A) (A) (A) (A) (A) (A)
                 (A) (A) (A) (A) (A) (A) (A) (A) (A) (A) (A) (A)
                 (A) (A) (A) (A) (A) (A) (A) (A) (A) (A) (A) (A)
                 (A) (A) (A) (A) (A) (A) (A) (A) (A) (A) (A) (A)
                 (A) (A) (A) (A) (A) (A) (A) (A) (A) (A) (A) (A)
                 (A) (A) (A) (A) (A) (A) (A) (A) (A) (A) (A) (A)
                 (A) (A) (A) (A) (A) (A) (A) (A) (A) (A) (A) (A)
                 (A) (A) (A) (A) (A) (A) (A) (A) (A) (A) (A) (A)
                 (A) (A) (A) (A) (A) (A) (A) (A) (A) (A) (A) (A)
                 (A) (A) (A) (A) (A) (A) (A) (A) (A) (A) (A) (A)
                 (A) (A) (A) (A) (A) (A) (A) (A) (A) (A) (A) (A)
                 (A) (A) (A) (A) (A) (A) (A) (A) (A) (A) (A) (A)
                 (A) (A) (A) (A) (A) (A) (A) (A) (A) (A) (A) (A)
                 (A) (A) (A) (A) (A) (A) (A)
 Beta  Orbitals:
       Occupied  (A) (A) (A) (A) (A) (A) (A) (A) (A) (A) (A) (A)
                 (A)
       Virtual   (A) (A) (A) (A) (A) (A) (A) (A) (A) (A) (A) (A)
                 (A) (A) (A) (A) (A) (A) (A) (A) (A) (A) (A) (A)
                 (A) (A) (A) (A) (A) (A) (A) (A) (A) (A) (A) (A)
                 (A) (A) (A) (A) (A) (A) (A) (A) (A) (A) (A) (A)
                 (A) (A) (A) (A) (A) (A) (A) (A) (A) (A) (A) (A)
                 (A) (A) (A) (A) (A) (A) (A) (A) (A) (A) (A) (A)
                 (A) (A) (A) (A) (A) (A) (A) (A) (A) (A) (A) (A)
                 (A) (A) (A) (A) (A) (A) (A) (A) (A) (A) (A) (A)
                 (A) (A) (A) (A) (A) (A) (A) (A) (A) (A) (A) (A)
                 (A) (A) (A) (A) (A) (A) (A) (A) (A) (A) (A) (A)
                 (A) (A) (A) (A) (A) (A) (A) (A) (A) (A) (A) (A)
                 (A) (A) (A) (A) (A) (A) (A) (A) (A) (A) (A) (A)
                 (A) (A) (A) (A) (A) (A) (A) (A) (A) (A) (A) (A)
                 (A) (A) (A) (A) (A) (A) (A) (A) (A) (A) (A) (A)
                 (A) (A) (A) (A) (A) (A) (A) (A) (A) (A) (A) (A)
                 (A) (A) (A) (A) (A) (A) (A) (A) (A) (A) (A) (A)
                 (A) (A) (A) (A) (A) (A) (A) (A) (A) (A) (A) (A)
                 (A) (A) (A) (A) (A) (A) (A) (A) (A) (A) (A) (A)
                 (A) (A) (A) (A) (A) (A) (A) (A) (A) (A) (A) (A)
                 (A) (A) (A) (A) (A) (A) (A) (A) (A) (A) (A) (A)
                 (A) (A) (A) (A) (A) (A) (A) (A) (A) (A) (A) (A)
                 (A) (A) (A) (A) (A) (A) (A) (A) (A) (A) (A) (A)
                 (A) (A) (A) (A) (A) (A) (A) (A) (A) (A) (A) (A)
                 (A) (A) (A) (A) (A) (A) (A) (A) (A) (A) (A) (A)
                 (A) (A) (A) (A) (A) (A) (A) (A) (A) (A) (A) (A)
                 (A) (A) (A) (A) (A) (A) (A) (A) (A) (A) (A) (A)
                 (A) (A) (A) (A) (A) (A) (A) (A) (A) (A) (A) (A)
                 (A) (A) (A) (A) (A) (A) (A) (A) (A) (A) (A) (A)
                 (A) (A) (A) (A) (A) (A) (A) (A) (A) (A) (A) (A)
                 (A) (A) (A) (A) (A) (A) (A) (A) (A) (A) (A) (A)
                 (A) (A) (A) (A) (A) (A) (A) (A)
 The electronic state is 2-A.
 Alpha  occ. eigenvalues --  -19.64461 -10.55847 -10.53933  -1.11134  -0.87250
 Alpha  occ. eigenvalues --   -0.72150  -0.57174  -0.52890  -0.51360  -0.47746
 Alpha  occ. eigenvalues --   -0.45052  -0.42601  -0.40016  -0.33731
 Alpha virt. eigenvalues --    0.03649   0.05582   0.07961   0.09027   0.10449
 Alpha virt. eigenvalues --    0.11784   0.14561   0.15343   0.17044   0.18038
 Alpha virt. eigenvalues --    0.19985   0.21024   0.25331   0.30755   0.31947
 Alpha virt. eigenvalues --    0.32881   0.34089   0.34501   0.35539   0.36152
 Alpha virt. eigenvalues --    0.36435   0.37386   0.40191   0.42592   0.43125
 Alpha virt. eigenvalues --    0.46980   0.49635   0.54339   0.57626   0.59360
 Alpha virt. eigenvalues --    0.61694   0.62138   0.64516   0.66899   0.67769
 Alpha virt. eigenvalues --    0.69777   0.72045   0.75154   0.76771   0.79083
 Alpha virt. eigenvalues --    0.82163   0.82967   0.84141   0.84768   0.86983
 Alpha virt. eigenvalues --    0.88165   0.89181   0.91422   0.92929   0.98336
 Alpha virt. eigenvalues --    0.99277   1.01960   1.03520   1.05467   1.06163
 Alpha virt. eigenvalues --    1.08270   1.09850   1.10479   1.10742   1.16533
 Alpha virt. eigenvalues --    1.23470   1.25174   1.26884   1.29254   1.30791
 Alpha virt. eigenvalues --    1.33626   1.35277   1.36286   1.41042   1.43484
 Alpha virt. eigenvalues --    1.44591   1.45272   1.45701   1.48164   1.62235
 Alpha virt. eigenvalues --    1.68028   1.69968   1.76679   1.78730   1.82773
 Alpha virt. eigenvalues --    1.84289   1.85536   1.86759   1.87466   1.91875
 Alpha virt. eigenvalues --    1.94593   1.98306   2.00083   2.01617   2.02934
 Alpha virt. eigenvalues --    2.03593   2.05576   2.06303   2.07591   2.09414
 Alpha virt. eigenvalues --    2.10400   2.11983   2.15122   2.15297   2.16787
 Alpha virt. eigenvalues --    2.17560   2.19451   2.21070   2.21608   2.25222
 Alpha virt. eigenvalues --    2.29101   2.32738   2.38476   2.42440   2.44168
 Alpha virt. eigenvalues --    2.47730   2.49250   2.51547   2.52833   2.54483
 Alpha virt. eigenvalues --    2.55374   2.59420   2.60677   2.62936   2.64629
 Alpha virt. eigenvalues --    2.65381   2.68873   2.71231   2.73348   2.74631
 Alpha virt. eigenvalues --    2.78059   2.79255   2.81818   2.83430   2.84885
 Alpha virt. eigenvalues --    2.89397   2.90290   2.92588   2.94806   2.97551
 Alpha virt. eigenvalues --    2.99974   3.02930   3.03687   3.05506   3.08427
 Alpha virt. eigenvalues --    3.10085   3.13451   3.18406   3.23823   3.27027
 Alpha virt. eigenvalues --    3.27256   3.28335   3.31951   3.37545   3.46604
 Alpha virt. eigenvalues --    3.47563   3.54787   3.57421   3.59326   3.60679
 Alpha virt. eigenvalues --    3.66569   3.71805   3.75492   3.78395   3.84869
 Alpha virt. eigenvalues --    3.86028   3.86665   3.88836   3.90793   3.91292
 Alpha virt. eigenvalues --    3.94791   4.03602   4.07643   4.14572   4.16040
 Alpha virt. eigenvalues --    4.18282   4.21621   4.26842   4.29191   4.41646
 Alpha virt. eigenvalues --    4.45624   4.53321   4.57075   4.67948   4.98972
 Alpha virt. eigenvalues --    5.06878   5.09027   5.12263   5.18022   5.24761
 Alpha virt. eigenvalues --    5.28036   5.35868   5.37153   5.40635   5.41588
 Alpha virt. eigenvalues --    5.44738   5.46833   5.54000   5.57980   5.65881
 Alpha virt. eigenvalues --    5.67648   5.72180   5.73516   5.75766   5.76887
 Alpha virt. eigenvalues --    5.77834   5.78723   5.80311   5.81091   5.82721
 Alpha virt. eigenvalues --    5.88139   5.91195   5.91904   5.97291   6.00022
 Alpha virt. eigenvalues --    6.01091   6.01867   6.07737   6.08268   6.09021
 Alpha virt. eigenvalues --    6.11756   6.13860   6.15453   6.22409   6.25204
 Alpha virt. eigenvalues --    6.27897   6.29232   6.32642   6.33977   6.41691
 Alpha virt. eigenvalues --    6.44483   6.45441   6.47520   6.51188   6.57080
 Alpha virt. eigenvalues --    6.57292   6.62228   6.64441   6.66088   6.68752
 Alpha virt. eigenvalues --    6.72247   6.72832   6.78703   6.91177   6.93245
 Alpha virt. eigenvalues --    7.01606   7.04449   7.05899   7.08383   7.11173
 Alpha virt. eigenvalues --    7.12511   7.14513   7.18935   7.21806   7.24866
 Alpha virt. eigenvalues --    7.25676   7.28592   7.29653   7.32544   7.35542
 Alpha virt. eigenvalues --    7.36313   7.37925   7.41638   7.43074   7.44820
 Alpha virt. eigenvalues --    7.47952   7.49234   7.54166   7.55697   7.55892
 Alpha virt. eigenvalues --    7.56882   7.59473   7.61490   7.62671   7.65924
 Alpha virt. eigenvalues --    7.68039   7.68899   7.69848   7.77710   7.79246
 Alpha virt. eigenvalues --    7.86575   7.87774   7.94339   7.95483   7.98090
 Alpha virt. eigenvalues --    8.11641   8.12266   8.13830   8.15305   8.17300
 Alpha virt. eigenvalues --    8.17645   8.21665   8.22385   8.22705   8.26712
 Alpha virt. eigenvalues --    8.27187   8.28343   8.31606   8.33275   8.35883
 Alpha virt. eigenvalues --    8.37611   8.40066   8.40606   8.42801   8.45954
 Alpha virt. eigenvalues --    8.47946   8.51639   8.57147   8.58813   8.62269
 Alpha virt. eigenvalues --    8.73338   8.74426   8.76769   8.78769   8.81913
 Alpha virt. eigenvalues --    8.88225   8.93072   8.97847   9.06450   9.13372
 Alpha virt. eigenvalues --    9.15724   9.18766   9.21897   9.46168   9.49953
 Alpha virt. eigenvalues --    9.52999   9.58883   9.64037   9.66003   9.66479
 Alpha virt. eigenvalues --    9.69839   9.77782   9.81665   9.89187   9.93362
 Alpha virt. eigenvalues --    9.97941  10.02161  10.04528  10.15168  10.23452
 Alpha virt. eigenvalues --   10.25298  10.35888  10.46992  10.64303  10.67734
 Alpha virt. eigenvalues --   10.94659  11.07658  11.20208  11.34204  11.36408
 Alpha virt. eigenvalues --   11.43240  11.58409  11.59297  11.61039  11.72247
 Alpha virt. eigenvalues --   11.76664  12.08411  12.18957  12.41202  12.76970
 Alpha virt. eigenvalues --   13.06818  13.43245  13.61142  13.80090  14.02774
 Alpha virt. eigenvalues --   16.30443  29.04653  29.13662  48.04905 146.59946
 Alpha virt. eigenvalues --  146.64096 251.11472
  Beta  occ. eigenvalues --  -19.63206 -10.55432 -10.53944  -1.06568  -0.86114
  Beta  occ. eigenvalues --   -0.70777  -0.53378  -0.52243  -0.48832  -0.44892
  Beta  occ. eigenvalues --   -0.42293  -0.41605  -0.37403
  Beta virt. eigenvalues --   -0.09612   0.03865   0.05719   0.08056   0.09134
  Beta virt. eigenvalues --    0.10410   0.11898   0.14659   0.15318   0.17168
  Beta virt. eigenvalues --    0.18018   0.20309   0.21366   0.25520   0.30325
  Beta virt. eigenvalues --    0.32289   0.33371   0.34393   0.34799   0.35883
  Beta virt. eigenvalues --    0.36528   0.37056   0.37767   0.41349   0.43080
  Beta virt. eigenvalues --    0.43422   0.47129   0.49708   0.54528   0.57925
  Beta virt. eigenvalues --    0.59738   0.61868   0.62557   0.64537   0.67232
  Beta virt. eigenvalues --    0.67999   0.70315   0.72138   0.75222   0.76948
  Beta virt. eigenvalues --    0.79238   0.82261   0.83100   0.84291   0.85034
  Beta virt. eigenvalues --    0.86845   0.87996   0.89235   0.91456   0.92967
  Beta virt. eigenvalues --    0.98398   0.99363   1.01775   1.03926   1.05625
  Beta virt. eigenvalues --    1.06491   1.08311   1.10004   1.10450   1.10891
  Beta virt. eigenvalues --    1.16390   1.23617   1.25285   1.26972   1.29357
  Beta virt. eigenvalues --    1.30942   1.33950   1.35912   1.36681   1.41872
  Beta virt. eigenvalues --    1.43534   1.45200   1.45496   1.46093   1.48503
  Beta virt. eigenvalues --    1.62611   1.69100   1.71249   1.77151   1.78799
  Beta virt. eigenvalues --    1.82962   1.84673   1.86140   1.87286   1.88465
  Beta virt. eigenvalues --    1.91946   1.94475   1.98200   2.00149   2.01715
  Beta virt. eigenvalues --    2.03104   2.03764   2.05764   2.06590   2.07498
  Beta virt. eigenvalues --    2.09632   2.10472   2.12047   2.15373   2.16009
  Beta virt. eigenvalues --    2.17043   2.17563   2.19541   2.20893   2.21436
  Beta virt. eigenvalues --    2.25126   2.29180   2.32837   2.38576   2.42629
  Beta virt. eigenvalues --    2.44045   2.47630   2.48911   2.51416   2.52696
  Beta virt. eigenvalues --    2.54444   2.55271   2.59512   2.60783   2.62838
  Beta virt. eigenvalues --    2.65123   2.65443   2.69231   2.71279   2.73324
  Beta virt. eigenvalues --    2.74735   2.78070   2.79196   2.81838   2.83535
  Beta virt. eigenvalues --    2.84790   2.89326   2.90506   2.92460   2.94963
  Beta virt. eigenvalues --    2.97207   3.00264   3.02901   3.03807   3.05254
  Beta virt. eigenvalues --    3.08753   3.10226   3.13052   3.18175   3.24176
  Beta virt. eigenvalues --    3.27146   3.27575   3.28429   3.31951   3.37868
  Beta virt. eigenvalues --    3.47193   3.47821   3.55745   3.57657   3.59785
  Beta virt. eigenvalues --    3.61152   3.67351   3.71908   3.75653   3.78674
  Beta virt. eigenvalues --    3.85541   3.86127   3.86516   3.88946   3.91211
  Beta virt. eigenvalues --    3.91640   3.95616   4.04337   4.08735   4.15674
  Beta virt. eigenvalues --    4.17452   4.19851   4.22729   4.28289   4.30619
  Beta virt. eigenvalues --    4.42421   4.46480   4.54529   4.59677   4.68671
  Beta virt. eigenvalues --    5.00121   5.08034   5.09948   5.13987   5.20098
  Beta virt. eigenvalues --    5.26707   5.28558   5.36792   5.38431   5.41148
  Beta virt. eigenvalues --    5.42254   5.45125   5.48331   5.54800   5.59506
  Beta virt. eigenvalues --    5.65915   5.68126   5.72074   5.73550   5.75997
  Beta virt. eigenvalues --    5.76636   5.77941   5.78807   5.79981   5.81120
  Beta virt. eigenvalues --    5.82441   5.89338   5.92631   5.93620   5.97892
  Beta virt. eigenvalues --    6.00397   6.02040   6.02328   6.07692   6.08966
  Beta virt. eigenvalues --    6.09384   6.12722   6.14298   6.17164   6.22971
  Beta virt. eigenvalues --    6.25303   6.28085   6.29419   6.32372   6.34702
  Beta virt. eigenvalues --    6.42242   6.45800   6.46264   6.48429   6.51716
  Beta virt. eigenvalues --    6.57082   6.58309   6.63540   6.65999   6.67028
  Beta virt. eigenvalues --    6.69024   6.73644   6.74284   6.78797   6.92144
  Beta virt. eigenvalues --    6.94888   7.02021   7.03132   7.05550   7.09039
  Beta virt. eigenvalues --    7.10797   7.13179   7.15064   7.17128   7.21225
  Beta virt. eigenvalues --    7.24275   7.25756   7.27613   7.29561   7.31491
  Beta virt. eigenvalues --    7.33858   7.36323   7.38331   7.40892   7.42040
  Beta virt. eigenvalues --    7.43287   7.45842   7.48731   7.53424   7.54342
  Beta virt. eigenvalues --    7.55862   7.56774   7.58878   7.60955   7.63048
  Beta virt. eigenvalues --    7.65406   7.66438   7.67012   7.69320   7.75944
  Beta virt. eigenvalues --    7.78569   7.85721   7.87377   7.92900   7.93679
  Beta virt. eigenvalues --    7.97339   8.11077   8.11574   8.12885   8.15069
  Beta virt. eigenvalues --    8.16968   8.17880   8.20904   8.21616   8.22386
  Beta virt. eigenvalues --    8.23045   8.26442   8.28643   8.30407   8.33114
  Beta virt. eigenvalues --    8.34461   8.35247   8.37546   8.38683   8.40134
  Beta virt. eigenvalues --    8.45789   8.48792   8.52210   8.57299   8.57993
  Beta virt. eigenvalues --    8.62737   8.72221   8.73725   8.76724   8.78309
  Beta virt. eigenvalues --    8.81826   8.87658   8.93588   8.97917   9.02794
  Beta virt. eigenvalues --    9.07209   9.11005   9.21405   9.26077   9.46642
  Beta virt. eigenvalues --    9.49850   9.52904   9.59084   9.64510   9.66203
  Beta virt. eigenvalues --    9.66542   9.70482   9.78939   9.81502   9.88882
  Beta virt. eigenvalues --    9.95852   9.99203  10.02964  10.05482  10.15072
  Beta virt. eigenvalues --   10.24172  10.25844  10.37719  10.50151  10.65562
  Beta virt. eigenvalues --   10.68014  10.96415  11.16932  11.25052  11.41165
  Beta virt. eigenvalues --   11.44175  11.50510  11.58817  11.62392  11.64244
  Beta virt. eigenvalues --   11.74244  11.84023  12.15278  12.29837  12.48177
  Beta virt. eigenvalues --   12.84993  13.06508  13.50940  13.64236  13.94493
  Beta virt. eigenvalues --   14.07902  16.33104  29.12877  29.16267  48.14426
  Beta virt. eigenvalues --  146.62163 146.64046 251.10750
          Condensed to atoms (all electrons):
               1          2          3          4          5          6
     1  C    5.316498   0.293978   0.000610   0.370307   0.369491   0.369258
     2  C    0.293978   5.477040  -0.059698  -0.045000  -0.047431  -0.040671
     3  O    0.000610  -0.059698   8.103330   0.001494   0.000047  -0.000248
     4  H    0.370307  -0.045000   0.001494   0.514839  -0.027078  -0.033936
     5  H    0.369491  -0.047431   0.000047  -0.027078   0.511288  -0.033617
     6  H    0.369258  -0.040671  -0.000248  -0.033936  -0.033617   0.536599
     7  H   -0.034693   0.334040  -0.003215  -0.004940   0.007921  -0.005290
     8  H   -0.045094   0.352859  -0.001252   0.007834  -0.004017  -0.003635
     9  H   -0.029494   0.273136   0.155369  -0.003492  -0.002677   0.003885
    10  H   -0.000040   0.030317   0.283399   0.000235  -0.000034   0.000050
               7          8          9         10
     1  C   -0.034693  -0.045094  -0.029494  -0.000040
     2  C    0.334040   0.352859   0.273136   0.030317
     3  O   -0.003215  -0.001252   0.155369   0.283399
     4  H   -0.004940   0.007834  -0.003492   0.000235
     5  H    0.007921  -0.004017  -0.002677  -0.000034
     6  H   -0.005290  -0.003635   0.003885   0.000050
     7  H    0.536139  -0.036796  -0.010265  -0.001196
     8  H   -0.036796   0.512179  -0.014158  -0.000133
     9  H   -0.010265  -0.014158   0.397650  -0.041941
    10  H   -0.001196  -0.000133  -0.041941   0.446057
          Atomic-Atomic Spin Densities.
               1          2          3          4          5          6
     1  C   -0.005018  -0.028366   0.008991   0.006781   0.006976   0.002524
     2  C   -0.028366   0.456323  -0.096802  -0.006121  -0.005746  -0.000415
     3  O    0.008991  -0.096802   0.709154   0.001512   0.001396  -0.001241
     4  H    0.006781  -0.006121   0.001512   0.005544  -0.000551  -0.003855
     5  H    0.006976  -0.005746   0.001396  -0.000551   0.004168  -0.003386
     6  H    0.002524  -0.000415  -0.001241  -0.003855  -0.003386   0.023676
     7  H    0.009572  -0.011441   0.004643   0.000852  -0.000039  -0.001423
     8  H    0.014569  -0.023281   0.006290   0.000326   0.001133  -0.002993
     9  H   -0.007660   0.091346  -0.037603  -0.000894  -0.000794   0.000148
    10  H   -0.000457   0.000478   0.015146  -0.000153  -0.000048   0.000074
               7          8          9         10
     1  C    0.009572   0.014569  -0.007660  -0.000457
     2  C   -0.011441  -0.023281   0.091346   0.000478
     3  O    0.004643   0.006290  -0.037603   0.015146
     4  H    0.000852   0.000326  -0.000894  -0.000153
     5  H   -0.000039   0.001133  -0.000794  -0.000048
     6  H   -0.001423  -0.002993   0.000148   0.000074
     7  H   -0.030623   0.011946  -0.003645  -0.000114
     8  H    0.011946  -0.016702  -0.005863  -0.000360
     9  H   -0.003645  -0.005863   0.001412   0.005130
    10  H   -0.000114  -0.000360   0.005130  -0.041098
 Mulliken charges and spin densities:
               1          2
     1  C   -0.610821   0.007912
     2  C   -0.568570   0.375975
     3  O   -0.479837   0.611487
     4  H    0.219738   0.003440
     5  H    0.226107   0.003109
     6  H    0.207604   0.013107
     7  H    0.218295  -0.020272
     8  H    0.232212  -0.014936
     9  H    0.271988   0.041578
    10  H    0.283285  -0.021402
 Sum of Mulliken charges =  -0.00000   1.00000
 Mulliken charges and spin densities with hydrogens summed into heavy atoms:
               1          2
     1  C    0.042627   0.027569
     2  C    0.153924   0.382346
     3  O   -0.196552   0.590085
 Electronic spatial extent (au):  <R**2>=            302.1849
 Charge=              0.0000 electrons
 Dipole moment (field-independent basis, Debye):
    X=              1.2163    Y=              1.5622    Z=              0.7735  Tot=              2.1256
 Quadrupole moment (field-independent basis, Debye-Ang):
   XX=            -20.8531   YY=            -20.9515   ZZ=            -20.7306
   XY=             -2.8075   XZ=             -2.1821   YZ=              0.5524
 Traceless Quadrupole moment (field-independent basis, Debye-Ang):
   XX=             -0.0080   YY=             -0.1064   ZZ=              0.1145
   XY=             -2.8075   XZ=             -2.1821   YZ=              0.5524
 Octapole moment (field-independent basis, Debye-Ang**2):
  XXX=             -9.7391  YYY=             -0.0405  ZZZ=              0.3674  XYY=             -1.9895
  XXY=              5.9639  XXZ=              5.2837  XZZ=             -1.8573  YZZ=              0.3671
  YYZ=              0.0106  XYZ=             -1.2107
 Hexadecapole moment (field-independent basis, Debye-Ang**3):
 XXXX=           -257.3046 YYYY=            -74.3159 ZZZZ=            -35.5045 XXXY=             -9.3240
 XXXZ=            -13.0294 YYYX=              0.0766 YYYZ=              0.6709 ZZZX=             -1.6659
 ZZZY=              0.3707 XXYY=            -59.4759 XXZZ=            -53.1832 YYZZ=            -15.7741
 XXYZ=              2.8108 YYXZ=             -0.5924 ZZXY=             -0.6381
 N-N= 7.662128240987D+01 E-N=-5.168455297123D+02  KE= 1.549133720575D+02
                          Isotropic Fermi Contact Couplings
        Atom                 a.u.       MegaHertz       Gauss      10(-4) cm-1
     1  C(13)             -0.00786      -8.83640      -3.15305      -2.94751
     2  C(13)              0.15338     172.42808      61.52663      57.51582
     3  O(17)              0.11846     -71.81221     -25.62438     -23.95397
     4  H(1)               0.00214       9.58735       3.42101       3.19800
     5  H(1)               0.00207       9.26324       3.30535       3.08988
     6  H(1)               0.01543      68.96953      24.61004      23.00576
     7  H(1)              -0.00318     -14.20685      -5.06936      -4.73889
     8  H(1)              -0.00210      -9.37075      -3.34372      -3.12575
     9  H(1)              -0.01810     -80.91828     -28.87366     -26.99143
    10  H(1)              -0.01083     -48.41318     -17.27503     -16.14890
 PrsmSu:  requested number of processors reduced to:  21 ShMem   1 Linda.
 --------------------------------------------------------
       Center         ----  Spin Dipole Couplings  ----
                      3XX-RR        3YY-RR        3ZZ-RR
 --------------------------------------------------------
     1   Atom        0.027648     -0.011012     -0.016636
     2   Atom        0.408079     -0.134111     -0.273969
     3   Atom        1.815634     -0.489462     -1.326172
     4   Atom        0.001368      0.001785     -0.003153
     5   Atom        0.001865      0.002221     -0.004087
     6   Atom        0.009042     -0.001990     -0.007051
     7   Atom       -0.008360     -0.006355      0.014715
     8   Atom       -0.008467     -0.008326      0.016793
     9   Atom        0.186802     -0.065602     -0.121200
    10   Atom        0.001347      0.029882     -0.031229
 --------------------------------------------------------
                        XY            XZ            YZ
 --------------------------------------------------------
     1   Atom       -0.008003      0.001932     -0.000449
     2   Atom        0.313766      0.014615      0.007122
     3   Atom        1.631293      0.107872      0.049231
     4   Atom       -0.005647      0.004728     -0.005733
     5   Atom       -0.006169     -0.004253      0.005154
     6   Atom        0.000035      0.000571     -0.000117
     7   Atom        0.010406     -0.001889      0.032664
     8   Atom        0.011795      0.000940     -0.031467
     9   Atom        0.132420      0.003049      0.001510
    10   Atom       -0.041821     -0.049056      0.081832
 --------------------------------------------------------


 ---------------------------------------------------------------------------------
              Anisotropic Spin Dipole Couplings in Principal Axis System
 ---------------------------------------------------------------------------------

       Atom             a.u.   MegaHertz   Gauss  10(-4) cm-1        Axes

              Baa    -0.0167    -2.244    -0.801    -0.749 -0.0392  0.0236  0.9990
     1 C(13)  Bbb    -0.0126    -1.691    -0.603    -0.564  0.1957  0.9805 -0.0155
              Bcc     0.0293     3.935     1.404     1.313  0.9799 -0.1949  0.0431
 
              Baa    -0.2777   -37.267   -13.298   -12.431 -0.4113  0.9043 -0.1145
     2 C(13)  Bbb    -0.2742   -36.801   -13.131   -12.275 -0.0654  0.0960  0.9932
              Bcc     0.5520    74.068    26.429    24.706  0.9092  0.4160  0.0197
 
              Baa    -1.3383    96.839    34.555    32.302 -0.3945  0.7255  0.5639
     3 O(17)  Bbb    -1.3257    95.924    34.228    31.997  0.2377 -0.5122  0.8253
              Bcc     2.6640  -192.763   -68.783   -64.299  0.8876  0.4596  0.0297
 
              Baa    -0.0071    -3.786    -1.351    -1.263 -0.1945  0.4418  0.8758
     4 H(1)   Bbb    -0.0040    -2.130    -0.760    -0.711  0.7739  0.6177 -0.1397
              Bcc     0.0111     5.916     2.111     1.973 -0.6027  0.6506 -0.4620
 
              Baa    -0.0071    -3.780    -1.349    -1.261  0.1556 -0.3977  0.9042
     5 H(1)   Bbb    -0.0040    -2.160    -0.771    -0.720  0.7625  0.6303  0.1460
              Bcc     0.0111     5.940     2.120     1.981 -0.6280  0.6668  0.4013
 
              Baa    -0.0071    -3.775    -1.347    -1.259 -0.0355  0.0233  0.9991
     6 H(1)   Bbb    -0.0020    -1.061    -0.378    -0.354 -0.0020  0.9997 -0.0234
              Bcc     0.0091     4.835     1.725     1.613  0.9994  0.0028  0.0354
 
              Baa    -0.0338   -18.010    -6.426    -6.007 -0.3547  0.7689 -0.5320
     7 H(1)   Bbb    -0.0052    -2.778    -0.991    -0.927  0.9297  0.2295 -0.2881
              Bcc     0.0390    20.787     7.417     6.934  0.0995  0.5968  0.7962
 
              Baa    -0.0339   -18.083    -6.453    -6.032 -0.3811  0.7823  0.4927
     8 H(1)   Bbb    -0.0050    -2.650    -0.946    -0.884  0.9158  0.2465  0.3170
              Bcc     0.0389    20.733     7.398     6.916 -0.1265 -0.5721  0.8104
 
              Baa    -0.1224   -65.284   -23.295   -21.776 -0.3870  0.9073 -0.1641
     9 H(1)   Bbb    -0.1212   -64.667   -23.075   -21.570 -0.0731  0.1472  0.9864
              Bcc     0.2436   129.951    46.370    43.347  0.9192  0.3937  0.0093
 
              Baa    -0.0918   -48.989   -17.481   -16.341  0.2239 -0.4897  0.8427
    10 H(1)   Bbb    -0.0280   -14.946    -5.333    -4.985  0.8542  0.5149  0.0723
              Bcc     0.1198    63.935    22.814    21.326 -0.4693  0.7036  0.5336
 

 ---------------------------------------------------------------------------------

 PrsmSu:  requested number of processors reduced to:  21 ShMem   1 Linda.
 No NMR shielding tensors so no spin-rotation constants.
 Leave Link  601 at Fri Apr 16 22:58:35 2021, MaxMem=   104857600 cpu:             247.4 elap:               5.6
 (Enter /s/ls4/users/knvvv/bin/g16sse/l801.exe)
 DoSCS=F DFT=T ScalE2(SS,OS)=  1.000000  1.000000
 Range of M.O.s used for correlation:     1   381
 NBasis=   381 NAE=    14 NBE=    13 NFC=     0 NFV=     0
 NROrb=    381 NOA=    14 NOB=    13 NVA=   367 NVB=   368

 **** Warning!!: The largest alpha MO coefficient is  0.21571415D+02


 **** Warning!!: The largest beta MO coefficient is  0.22504977D+02

 Leave Link  801 at Fri Apr 16 22:58:35 2021, MaxMem=   104857600 cpu:               4.5 elap:               0.1
 (Enter /s/ls4/users/knvvv/bin/g16sse/l914.exe)
 UHF ground state
 Doing stability rather than CIS.
 Two-electron integrals replicated using symmetry.
 MDV=   104857600 DFT=T DoStab=T Mixed=T DoRPA=F DoScal=F NonHer=F
 Making orbital integer symmetry assigments:
 Orbital symmetries:
 Alpha Orbitals:
       Occupied  (A) (A) (A) (A) (A) (A) (A) (A) (A) (A) (A) (A)
                 (A) (A)
       Virtual   (A) (A) (A) (A) (A) (A) (A) (A) (A) (A) (A) (A)
                 (A) (A) (A) (A) (A) (A) (A) (A) (A) (A) (A) (A)
                 (A) (A) (A) (A) (A) (A) (A) (A) (A) (A) (A) (A)
                 (A) (A) (A) (A) (A) (A) (A) (A) (A) (A) (A) (A)
                 (A) (A) (A) (A) (A) (A) (A) (A) (A) (A) (A) (A)
                 (A) (A) (A) (A) (A) (A) (A) (A) (A) (A) (A) (A)
                 (A) (A) (A) (A) (A) (A) (A) (A) (A) (A) (A) (A)
                 (A) (A) (A) (A) (A) (A) (A) (A) (A) (A) (A) (A)
                 (A) (A) (A) (A) (A) (A) (A) (A) (A) (A) (A) (A)
                 (A) (A) (A) (A) (A) (A) (A) (A) (A) (A) (A) (A)
                 (A) (A) (A) (A) (A) (A) (A) (A) (A) (A) (A) (A)
                 (A) (A) (A) (A) (A) (A) (A) (A) (A) (A) (A) (A)
                 (A) (A) (A) (A) (A) (A) (A) (A) (A) (A) (A) (A)
                 (A) (A) (A) (A) (A) (A) (A) (A) (A) (A) (A) (A)
                 (A) (A) (A) (A) (A) (A) (A) (A) (A) (A) (A) (A)
                 (A) (A) (A) (A) (A) (A) (A) (A) (A) (A) (A) (A)
                 (A) (A) (A) (A) (A) (A) (A) (A) (A) (A) (A) (A)
                 (A) (A) (A) (A) (A) (A) (A) (A) (A) (A) (A) (A)
                 (A) (A) (A) (A) (A) (A) (A) (A) (A) (A) (A) (A)
                 (A) (A) (A) (A) (A) (A) (A) (A) (A) (A) (A) (A)
                 (A) (A) (A) (A) (A) (A) (A) (A) (A) (A) (A) (A)
                 (A) (A) (A) (A) (A) (A) (A) (A) (A) (A) (A) (A)
                 (A) (A) (A) (A) (A) (A) (A) (A) (A) (A) (A) (A)
                 (A) (A) (A) (A) (A) (A) (A) (A) (A) (A) (A) (A)
                 (A) (A) (A) (A) (A) (A) (A) (A) (A) (A) (A) (A)
                 (A) (A) (A) (A) (A) (A) (A) (A) (A) (A) (A) (A)
                 (A) (A) (A) (A) (A) (A) (A) (A) (A) (A) (A) (A)
                 (A) (A) (A) (A) (A) (A) (A) (A) (A) (A) (A) (A)
                 (A) (A) (A) (A) (A) (A) (A) (A) (A) (A) (A) (A)
                 (A) (A) (A) (A) (A) (A) (A) (A) (A) (A) (A) (A)
                 (A) (A) (A) (A) (A) (A) (A)
 Beta  Orbitals:
       Occupied  (A) (A) (A) (A) (A) (A) (A) (A) (A) (A) (A) (A)
                 (A)
       Virtual   (A) (A) (A) (A) (A) (A) (A) (A) (A) (A) (A) (A)
                 (A) (A) (A) (A) (A) (A) (A) (A) (A) (A) (A) (A)
                 (A) (A) (A) (A) (A) (A) (A) (A) (A) (A) (A) (A)
                 (A) (A) (A) (A) (A) (A) (A) (A) (A) (A) (A) (A)
                 (A) (A) (A) (A) (A) (A) (A) (A) (A) (A) (A) (A)
                 (A) (A) (A) (A) (A) (A) (A) (A) (A) (A) (A) (A)
                 (A) (A) (A) (A) (A) (A) (A) (A) (A) (A) (A) (A)
                 (A) (A) (A) (A) (A) (A) (A) (A) (A) (A) (A) (A)
                 (A) (A) (A) (A) (A) (A) (A) (A) (A) (A) (A) (A)
                 (A) (A) (A) (A) (A) (A) (A) (A) (A) (A) (A) (A)
                 (A) (A) (A) (A) (A) (A) (A) (A) (A) (A) (A) (A)
                 (A) (A) (A) (A) (A) (A) (A) (A) (A) (A) (A) (A)
                 (A) (A) (A) (A) (A) (A) (A) (A) (A) (A) (A) (A)
                 (A) (A) (A) (A) (A) (A) (A) (A) (A) (A) (A) (A)
                 (A) (A) (A) (A) (A) (A) (A) (A) (A) (A) (A) (A)
                 (A) (A) (A) (A) (A) (A) (A) (A) (A) (A) (A) (A)
                 (A) (A) (A) (A) (A) (A) (A) (A) (A) (A) (A) (A)
                 (A) (A) (A) (A) (A) (A) (A) (A) (A) (A) (A) (A)
                 (A) (A) (A) (A) (A) (A) (A) (A) (A) (A) (A) (A)
                 (A) (A) (A) (A) (A) (A) (A) (A) (A) (A) (A) (A)
                 (A) (A) (A) (A) (A) (A) (A) (A) (A) (A) (A) (A)
                 (A) (A) (A) (A) (A) (A) (A) (A) (A) (A) (A) (A)
                 (A) (A) (A) (A) (A) (A) (A) (A) (A) (A) (A) (A)
                 (A) (A) (A) (A) (A) (A) (A) (A) (A) (A) (A) (A)
                 (A) (A) (A) (A) (A) (A) (A) (A) (A) (A) (A) (A)
                 (A) (A) (A) (A) (A) (A) (A) (A) (A) (A) (A) (A)
                 (A) (A) (A) (A) (A) (A) (A) (A) (A) (A) (A) (A)
                 (A) (A) (A) (A) (A) (A) (A) (A) (A) (A) (A) (A)
                 (A) (A) (A) (A) (A) (A) (A) (A) (A) (A) (A) (A)
                 (A) (A) (A) (A) (A) (A) (A) (A) (A) (A) (A) (A)
                 (A) (A) (A) (A) (A) (A) (A) (A)
    12 initial guesses have been made.
 Convergence on wavefunction:    0.001000000000000
 Davidson Disk Diagonalization:  ConvIn= 1.00D-03 SkipCon=T Conv= 1.00D-03.
 Max sub-space:  2000 roots to seek:    12 dimension of matrix:         9922
 Iteration     1 Dimension    12 NMult     0 NNew     12
 Estimated number of processors is:   17
 CISAX will form     1 AO SS matrices at one time.
 NMat=     1 NSing=     1 JSym2X= 0.
 FoFJK:  IHMeth= 1 ICntrl=       0 DoSepK=F KAlg= 0 I1Cent=           0 FoldK=F
 IRaf= 970000000 NMat=       1 IRICut=       1 DoRegI=T DoRafI=F ISym2E= 0 IDoP0=0 IntGTp=1.
 FoFCou: FMM=F IPFlag=           0 FMFlag=      100000 FMFlg1=           0
         NFxFlg=           0 DoJE=F BraDBF=F KetDBF=F FulRan=T
         wScrn=  0.000000 ICntrl=         0 IOpCl=  1 I1Cent=           0 NGrid=           0
         NMat0=    1 NMatS0=      1 NMatT0=    0 NMatD0=    1 NMtDS0=    0 NMtDT0=    0
 Symmetry not used in FoFCou.
 CoulSu:  requested number of processors reduced to:  19 ShMem   1 Linda.
 NMat=     1 NSing=     1 JSym2X= 0.
 CoulSu:  requested number of processors reduced to:  19 ShMem   1 Linda.
 NMat=     1 NSing=     1 JSym2X= 0.
 CoulSu:  requested number of processors reduced to:  19 ShMem   1 Linda.
 NMat=     1 NSing=     1 JSym2X= 0.
 CoulSu:  requested number of processors reduced to:  19 ShMem   1 Linda.
 NMat=     1 NSing=     1 JSym2X= 0.
 CoulSu:  requested number of processors reduced to:  19 ShMem   1 Linda.
 NMat=     1 NSing=     1 JSym2X= 0.
 CoulSu:  requested number of processors reduced to:  19 ShMem   1 Linda.
 NMat=     1 NSing=     1 JSym2X= 0.
 CoulSu:  requested number of processors reduced to:  19 ShMem   1 Linda.
 NMat=     1 NSing=     1 JSym2X= 0.
 CoulSu:  requested number of processors reduced to:  19 ShMem   1 Linda.
 NMat=     1 NSing=     1 JSym2X= 0.
 CoulSu:  requested number of processors reduced to:  19 ShMem   1 Linda.
 NMat=     1 NSing=     1 JSym2X= 0.
 CoulSu:  requested number of processors reduced to:  19 ShMem   1 Linda.
 NMat=     1 NSing=     1 JSym2X= 0.
 CoulSu:  requested number of processors reduced to:  19 ShMem   1 Linda.
 NMat=     1 NSing=     1 JSym2X= 0.
 CoulSu:  requested number of processors reduced to:  19 ShMem   1 Linda.
 Excitation Energies [eV] at current iteration:
 Root      1 :     2.021524423465002
 Root      2 :     5.630352983536191
 Root      3 :     6.127194567366625
 Root      4 :     7.066248311324443
 Root      5 :     7.422251402310299
 Root      6 :     7.748260984369183
 Root      7 :     8.361112050943310
 Root      8 :     8.436288837339973
 Root      9 :     8.650063676727362
 Root     10 :     9.037058711003366
 Root     11 :     9.235317780913961
 Root     12 :     9.811198307693596
 Iteration     2 Dimension    24 NMult    12 NNew     12
 Estimated number of processors is:   17
 CISAX will form     1 AO SS matrices at one time.
 NMat=     1 NSing=     1 JSym2X= 0.
 CoulSu:  requested number of processors reduced to:  19 ShMem   1 Linda.
 NMat=     1 NSing=     1 JSym2X= 0.
 CoulSu:  requested number of processors reduced to:  19 ShMem   1 Linda.
 NMat=     1 NSing=     1 JSym2X= 0.
 CoulSu:  requested number of processors reduced to:  19 ShMem   1 Linda.
 NMat=     1 NSing=     1 JSym2X= 0.
 CoulSu:  requested number of processors reduced to:  19 ShMem   1 Linda.
 NMat=     1 NSing=     1 JSym2X= 0.
 CoulSu:  requested number of processors reduced to:  19 ShMem   1 Linda.
 NMat=     1 NSing=     1 JSym2X= 0.
 CoulSu:  requested number of processors reduced to:  19 ShMem   1 Linda.
 NMat=     1 NSing=     1 JSym2X= 0.
 CoulSu:  requested number of processors reduced to:  19 ShMem   1 Linda.
 NMat=     1 NSing=     1 JSym2X= 0.
 CoulSu:  requested number of processors reduced to:  19 ShMem   1 Linda.
 NMat=     1 NSing=     1 JSym2X= 0.
 CoulSu:  requested number of processors reduced to:  19 ShMem   1 Linda.
 NMat=     1 NSing=     1 JSym2X= 0.
 CoulSu:  requested number of processors reduced to:  19 ShMem   1 Linda.
 NMat=     1 NSing=     1 JSym2X= 0.
 CoulSu:  requested number of processors reduced to:  19 ShMem   1 Linda.
 NMat=     1 NSing=     1 JSym2X= 0.
 CoulSu:  requested number of processors reduced to:  19 ShMem   1 Linda.
 Root      1 not converged, maximum delta is    0.049872528614195
 Excitation Energies [eV] at current iteration:
 Root      1 :     1.573447310287312   Change is   -0.448077113177691
 Root      2 :     4.859916908635435   Change is   -2.206331402689007
 Root      3 :     5.516123054197666   Change is   -0.114229929338525
 Root      4 :     6.025664913616718   Change is   -0.101529653749907
 Root      5 :     6.566659260757536   Change is   -0.855592141552762
 Root      6 :     7.262734315048525   Change is   -0.485526669320658
 Root      7 :     7.750118598341603   Change is   -0.686170238998369
 Root      8 :     8.102370602964214   Change is   -0.258741447979097
 Root      9 :     8.159469956845056   Change is   -0.490593719882306
 Root     10 :     8.814872001963295   Change is   -0.222186709040071
 Root     11 :     8.997612952226033   Change is   -0.237704828687928
 Root     12 :     9.512874455567893   Change is   -0.298323852125704
 Iteration     3 Dimension    27 NMult    24 NNew      3
 Estimated number of processors is:   17
 CISAX will form     1 AO SS matrices at one time.
 NMat=     1 NSing=     1 JSym2X= 0.
 CoulSu:  requested number of processors reduced to:  19 ShMem   1 Linda.
 NMat=     1 NSing=     1 JSym2X= 0.
 CoulSu:  requested number of processors reduced to:  19 ShMem   1 Linda.
 NMat=     1 NSing=     1 JSym2X= 0.
 CoulSu:  requested number of processors reduced to:  19 ShMem   1 Linda.
 Root      1 not converged, maximum delta is    0.006159711197178
 Excitation Energies [eV] at current iteration:
 Root      1 :     1.559259707221120   Change is   -0.014187603066192
 Root      2 :     4.600950641474488   Change is   -0.258966267160948
 Root      3 :     5.499102278838383   Change is   -0.017020775359283
 Iteration     4 Dimension    30 NMult    27 NNew      3
 Estimated number of processors is:   17
 CISAX will form     1 AO SS matrices at one time.
 NMat=     1 NSing=     1 JSym2X= 0.
 CoulSu:  requested number of processors reduced to:  19 ShMem   1 Linda.
 NMat=     1 NSing=     1 JSym2X= 0.
 CoulSu:  requested number of processors reduced to:  19 ShMem   1 Linda.
 NMat=     1 NSing=     1 JSym2X= 0.
 CoulSu:  requested number of processors reduced to:  19 ShMem   1 Linda.
 Root      1 not converged, maximum delta is    0.001260098873290
 Excitation Energies [eV] at current iteration:
 Root      1 :     1.558684607179042   Change is   -0.000575100042078
 Root      2 :     4.580304625287654   Change is   -0.020646016186834
 Root      3 :     5.496737304202718   Change is   -0.002364974635665
 Iteration     5 Dimension    33 NMult    30 NNew      3
 Estimated number of processors is:   17
 CISAX will form     1 AO SS matrices at one time.
 NMat=     1 NSing=     1 JSym2X= 0.
 CoulSu:  requested number of processors reduced to:  19 ShMem   1 Linda.
 NMat=     1 NSing=     1 JSym2X= 0.
 CoulSu:  requested number of processors reduced to:  19 ShMem   1 Linda.
 NMat=     1 NSing=     1 JSym2X= 0.
 CoulSu:  requested number of processors reduced to:  19 ShMem   1 Linda.
 Root      1 has converged.
 Excitation Energies [eV] at current iteration:
 Root      1 :     1.558645348691802   Change is   -0.000039258487240
 Root      2 :     4.578117241338738   Change is   -0.002187383948915
 Root      3 :     5.495608796013540   Change is   -0.001128508189177
 Convergence achieved on expansion vectors.
 ***********************************************************************
 Stability analysis using <AA,BB:AA,BB> singles matrix:
 ***********************************************************************
 1PDM for each excited state written to RWF  633
 Ground to excited state transition densities written to RWF  633

 Eigenvectors of the stability matrix:
 
 Eigenvector   1:  2.020-A    Eigenvalue= 0.0572792  <S**2>=0.770
     13B -> 14B        0.98408
 The wavefunction is stable under the perturbations considered.
 Leave Link  914 at Fri Apr 16 23:07:57 2021, MaxMem=   104857600 cpu:           20636.0 elap:             562.2
 (Enter /s/ls4/users/knvvv/bin/g16sse/l508.exe)
 The wavefunction is already stable.
 Leave Link  508 at Fri Apr 16 23:07:58 2021, MaxMem=   104857600 cpu:               2.2 elap:               0.1
 (Enter /s/ls4/users/knvvv/bin/g16sse/l601.exe)
 Copying SCF densities to generalized density rwf, IOpCl= 1 IROHF=0.

 **********************************************************************

            Population analysis using the SCF density.

 **********************************************************************

 Orbital symmetries:
 Alpha Orbitals:
       Occupied  (A) (A) (A) (A) (A) (A) (A) (A) (A) (A) (A) (A)
                 (A) (A)
       Virtual   (A) (A) (A) (A) (A) (A) (A) (A) (A) (A) (A) (A)
                 (A) (A) (A) (A) (A) (A) (A) (A) (A) (A) (A) (A)
                 (A) (A) (A) (A) (A) (A) (A) (A) (A) (A) (A) (A)
                 (A) (A) (A) (A) (A) (A) (A) (A) (A) (A) (A) (A)
                 (A) (A) (A) (A) (A) (A) (A) (A) (A) (A) (A) (A)
                 (A) (A) (A) (A) (A) (A) (A) (A) (A) (A) (A) (A)
                 (A) (A) (A) (A) (A) (A) (A) (A) (A) (A) (A) (A)
                 (A) (A) (A) (A) (A) (A) (A) (A) (A) (A) (A) (A)
                 (A) (A) (A) (A) (A) (A) (A) (A) (A) (A) (A) (A)
                 (A) (A) (A) (A) (A) (A) (A) (A) (A) (A) (A) (A)
                 (A) (A) (A) (A) (A) (A) (A) (A) (A) (A) (A) (A)
                 (A) (A) (A) (A) (A) (A) (A) (A) (A) (A) (A) (A)
                 (A) (A) (A) (A) (A) (A) (A) (A) (A) (A) (A) (A)
                 (A) (A) (A) (A) (A) (A) (A) (A) (A) (A) (A) (A)
                 (A) (A) (A) (A) (A) (A) (A) (A) (A) (A) (A) (A)
                 (A) (A) (A) (A) (A) (A) (A) (A) (A) (A) (A) (A)
                 (A) (A) (A) (A) (A) (A) (A) (A) (A) (A) (A) (A)
                 (A) (A) (A) (A) (A) (A) (A) (A) (A) (A) (A) (A)
                 (A) (A) (A) (A) (A) (A) (A) (A) (A) (A) (A) (A)
                 (A) (A) (A) (A) (A) (A) (A) (A) (A) (A) (A) (A)
                 (A) (A) (A) (A) (A) (A) (A) (A) (A) (A) (A) (A)
                 (A) (A) (A) (A) (A) (A) (A) (A) (A) (A) (A) (A)
                 (A) (A) (A) (A) (A) (A) (A) (A) (A) (A) (A) (A)
                 (A) (A) (A) (A) (A) (A) (A) (A) (A) (A) (A) (A)
                 (A) (A) (A) (A) (A) (A) (A) (A) (A) (A) (A) (A)
                 (A) (A) (A) (A) (A) (A) (A) (A) (A) (A) (A) (A)
                 (A) (A) (A) (A) (A) (A) (A) (A) (A) (A) (A) (A)
                 (A) (A) (A) (A) (A) (A) (A) (A) (A) (A) (A) (A)
                 (A) (A) (A) (A) (A) (A) (A) (A) (A) (A) (A) (A)
                 (A) (A) (A) (A) (A) (A) (A) (A) (A) (A) (A) (A)
                 (A) (A) (A) (A) (A) (A) (A)
 Beta  Orbitals:
       Occupied  (A) (A) (A) (A) (A) (A) (A) (A) (A) (A) (A) (A)
                 (A)
       Virtual   (A) (A) (A) (A) (A) (A) (A) (A) (A) (A) (A) (A)
                 (A) (A) (A) (A) (A) (A) (A) (A) (A) (A) (A) (A)
                 (A) (A) (A) (A) (A) (A) (A) (A) (A) (A) (A) (A)
                 (A) (A) (A) (A) (A) (A) (A) (A) (A) (A) (A) (A)
                 (A) (A) (A) (A) (A) (A) (A) (A) (A) (A) (A) (A)
                 (A) (A) (A) (A) (A) (A) (A) (A) (A) (A) (A) (A)
                 (A) (A) (A) (A) (A) (A) (A) (A) (A) (A) (A) (A)
                 (A) (A) (A) (A) (A) (A) (A) (A) (A) (A) (A) (A)
                 (A) (A) (A) (A) (A) (A) (A) (A) (A) (A) (A) (A)
                 (A) (A) (A) (A) (A) (A) (A) (A) (A) (A) (A) (A)
                 (A) (A) (A) (A) (A) (A) (A) (A) (A) (A) (A) (A)
                 (A) (A) (A) (A) (A) (A) (A) (A) (A) (A) (A) (A)
                 (A) (A) (A) (A) (A) (A) (A) (A) (A) (A) (A) (A)
                 (A) (A) (A) (A) (A) (A) (A) (A) (A) (A) (A) (A)
                 (A) (A) (A) (A) (A) (A) (A) (A) (A) (A) (A) (A)
                 (A) (A) (A) (A) (A) (A) (A) (A) (A) (A) (A) (A)
                 (A) (A) (A) (A) (A) (A) (A) (A) (A) (A) (A) (A)
                 (A) (A) (A) (A) (A) (A) (A) (A) (A) (A) (A) (A)
                 (A) (A) (A) (A) (A) (A) (A) (A) (A) (A) (A) (A)
                 (A) (A) (A) (A) (A) (A) (A) (A) (A) (A) (A) (A)
                 (A) (A) (A) (A) (A) (A) (A) (A) (A) (A) (A) (A)
                 (A) (A) (A) (A) (A) (A) (A) (A) (A) (A) (A) (A)
                 (A) (A) (A) (A) (A) (A) (A) (A) (A) (A) (A) (A)
                 (A) (A) (A) (A) (A) (A) (A) (A) (A) (A) (A) (A)
                 (A) (A) (A) (A) (A) (A) (A) (A) (A) (A) (A) (A)
                 (A) (A) (A) (A) (A) (A) (A) (A) (A) (A) (A) (A)
                 (A) (A) (A) (A) (A) (A) (A) (A) (A) (A) (A) (A)
                 (A) (A) (A) (A) (A) (A) (A) (A) (A) (A) (A) (A)
                 (A) (A) (A) (A) (A) (A) (A) (A) (A) (A) (A) (A)
                 (A) (A) (A) (A) (A) (A) (A) (A) (A) (A) (A) (A)
                 (A) (A) (A) (A) (A) (A) (A) (A)
 The electronic state is 2-A.
 Alpha  occ. eigenvalues --  -19.64461 -10.55847 -10.53933  -1.11134  -0.87250
 Alpha  occ. eigenvalues --   -0.72150  -0.57174  -0.52890  -0.51360  -0.47746
 Alpha  occ. eigenvalues --   -0.45052  -0.42601  -0.40016  -0.33731
 Alpha virt. eigenvalues --    0.03649   0.05582   0.07961   0.09027   0.10449
 Alpha virt. eigenvalues --    0.11784   0.14561   0.15343   0.17044   0.18038
 Alpha virt. eigenvalues --    0.19985   0.21024   0.25331   0.30755   0.31947
 Alpha virt. eigenvalues --    0.32881   0.34089   0.34501   0.35539   0.36152
 Alpha virt. eigenvalues --    0.36435   0.37386   0.40191   0.42592   0.43125
 Alpha virt. eigenvalues --    0.46980   0.49635   0.54339   0.57626   0.59360
 Alpha virt. eigenvalues --    0.61694   0.62138   0.64516   0.66899   0.67769
 Alpha virt. eigenvalues --    0.69777   0.72045   0.75154   0.76771   0.79083
 Alpha virt. eigenvalues --    0.82163   0.82967   0.84141   0.84768   0.86983
 Alpha virt. eigenvalues --    0.88165   0.89181   0.91422   0.92929   0.98336
 Alpha virt. eigenvalues --    0.99277   1.01960   1.03520   1.05467   1.06163
 Alpha virt. eigenvalues --    1.08270   1.09850   1.10479   1.10742   1.16533
 Alpha virt. eigenvalues --    1.23470   1.25174   1.26884   1.29254   1.30791
 Alpha virt. eigenvalues --    1.33626   1.35277   1.36286   1.41042   1.43484
 Alpha virt. eigenvalues --    1.44591   1.45272   1.45701   1.48164   1.62235
 Alpha virt. eigenvalues --    1.68028   1.69968   1.76679   1.78730   1.82773
 Alpha virt. eigenvalues --    1.84289   1.85536   1.86759   1.87466   1.91875
 Alpha virt. eigenvalues --    1.94593   1.98306   2.00083   2.01617   2.02934
 Alpha virt. eigenvalues --    2.03593   2.05576   2.06303   2.07591   2.09414
 Alpha virt. eigenvalues --    2.10400   2.11983   2.15122   2.15297   2.16787
 Alpha virt. eigenvalues --    2.17560   2.19451   2.21070   2.21608   2.25222
 Alpha virt. eigenvalues --    2.29101   2.32738   2.38476   2.42440   2.44168
 Alpha virt. eigenvalues --    2.47730   2.49250   2.51547   2.52833   2.54483
 Alpha virt. eigenvalues --    2.55374   2.59420   2.60677   2.62936   2.64629
 Alpha virt. eigenvalues --    2.65381   2.68873   2.71231   2.73348   2.74631
 Alpha virt. eigenvalues --    2.78059   2.79255   2.81818   2.83430   2.84885
 Alpha virt. eigenvalues --    2.89397   2.90290   2.92588   2.94806   2.97551
 Alpha virt. eigenvalues --    2.99974   3.02930   3.03687   3.05506   3.08427
 Alpha virt. eigenvalues --    3.10085   3.13451   3.18406   3.23823   3.27027
 Alpha virt. eigenvalues --    3.27256   3.28335   3.31951   3.37545   3.46604
 Alpha virt. eigenvalues --    3.47563   3.54787   3.57421   3.59326   3.60679
 Alpha virt. eigenvalues --    3.66569   3.71805   3.75492   3.78395   3.84869
 Alpha virt. eigenvalues --    3.86028   3.86665   3.88836   3.90793   3.91292
 Alpha virt. eigenvalues --    3.94791   4.03602   4.07643   4.14572   4.16040
 Alpha virt. eigenvalues --    4.18282   4.21621   4.26842   4.29191   4.41646
 Alpha virt. eigenvalues --    4.45624   4.53321   4.57075   4.67948   4.98972
 Alpha virt. eigenvalues --    5.06878   5.09027   5.12263   5.18022   5.24761
 Alpha virt. eigenvalues --    5.28036   5.35868   5.37153   5.40635   5.41588
 Alpha virt. eigenvalues --    5.44738   5.46833   5.54000   5.57980   5.65881
 Alpha virt. eigenvalues --    5.67648   5.72180   5.73516   5.75766   5.76887
 Alpha virt. eigenvalues --    5.77834   5.78723   5.80311   5.81091   5.82721
[...]
 Alpha virt. eigenvalues --    7.56882   7.59473   7.61490   7.62671   7.65924
 Alpha virt. eigenvalues --    7.68039   7.68899   7.69848   7.77710   7.79246
 Alpha virt. eigenvalues --    7.86575   7.87774   7.94339   7.95483   7.98090
 Alpha virt. eigenvalues --    8.11641   8.12266   8.13830   8.15305   8.17300
 Alpha virt. eigenvalues --    8.17645   8.21665   8.22385   8.22705   8.26712
 Alpha virt. eigenvalues --    8.27187   8.28343   8.31606   8.33275   8.35883
 Alpha virt. eigenvalues --    8.37611   8.40066   8.40606   8.42801   8.45954
 Alpha virt. eigenvalues --    8.47946   8.51639   8.57147   8.58813   8.62269
 Alpha virt. eigenvalues --    8.73338   8.74426   8.76769   8.78769   8.81913
 Alpha virt. eigenvalues --    8.88225   8.93072   8.97847   9.06450   9.13372
 Alpha virt. eigenvalues --    9.15724   9.18766   9.21897   9.46168   9.49953
 Alpha virt. eigenvalues --    9.52999   9.58883   9.64037   9.66003   9.66479
 Alpha virt. eigenvalues --    9.69839   9.77782   9.81665   9.89187   9.93362
 Alpha virt. eigenvalues --    9.97941  10.02161  10.04528  10.15168  10.23452
 Alpha virt. eigenvalues --   10.25298  10.35888  10.46992  10.64303  10.67734
 Alpha virt. eigenvalues --   10.94659  11.07658  11.20208  11.34204  11.36408
 Alpha virt. eigenvalues --   11.43240  11.58409  11.59297  11.61039  11.72247
 Alpha virt. eigenvalues --   11.76664  12.08411  12.18957  12.41202  12.76970
 Alpha virt. eigenvalues --   13.06818  13.43245  13.61142  13.80090  14.02774
 Alpha virt. eigenvalues --   16.30443  29.04653  29.13662  48.04905 146.59946
 Alpha virt. eigenvalues --  146.64096 251.11472
  Beta  occ. eigenvalues --  -19.63206 -10.55432 -10.53944  -1.06568  -0.86114
  Beta  occ. eigenvalues --   -0.70777  -0.53378  -0.52243  -0.48832  -0.44892
  Beta  occ. eigenvalues --   -0.42293  -0.41605  -0.37403
  Beta virt. eigenvalues --   -0.09612   0.03865   0.05719   0.08056   0.09134
  Beta virt. eigenvalues --    0.10410   0.11898   0.14659   0.15318   0.17168
  Beta virt. eigenvalues --    0.18018   0.20309   0.21366   0.25520   0.30325
  Beta virt. eigenvalues --    0.32289   0.33371   0.34393   0.34799   0.35883
  Beta virt. eigenvalues --    0.36528   0.37056   0.37767   0.41349   0.43080
  Beta virt. eigenvalues --    0.43422   0.47129   0.49708   0.54528   0.57925
  Beta virt. eigenvalues --    0.59738   0.61868   0.62557   0.64537   0.67232
  Beta virt. eigenvalues --    0.67999   0.70315   0.72138   0.75222   0.76948
  Beta virt. eigenvalues --    0.79238   0.82261   0.83100   0.84291   0.85034
  Beta virt. eigenvalues --    0.86845   0.87996   0.89235   0.91456   0.92967
  Beta virt. eigenvalues --    0.98398   0.99363   1.01775   1.03926   1.05625
  Beta virt. eigenvalues --    1.06491   1.08311   1.10004   1.10450   1.10891
  Beta virt. eigenvalues --    1.16390   1.23617   1.25285   1.26972   1.29357
  Beta virt. eigenvalues --    1.30942   1.33950   1.35912   1.36681   1.41872
  Beta virt. eigenvalues --    1.43534   1.45200   1.45496   1.46093   1.48503
  Beta virt. eigenvalues --    1.62611   1.69100   1.71249   1.77151   1.78799
  Beta virt. eigenvalues --    1.82962   1.84673   1.86140   1.87286   1.88465
  Beta virt. eigenvalues --    1.91946   1.94475   1.98200   2.00149   2.01715
  Beta virt. eigenvalues --    2.03104   2.03764   2.05764   2.06590   2.07498
  Beta virt. eigenvalues --    2.09632   2.10472   2.12047   2.15373   2.16009
  Beta virt. eigenvalues --    2.17043   2.17563   2.19541   2.20893   2.21436
  Beta virt. eigenvalues --    2.25126   2.29180   2.32837   2.38576   2.42629
  Beta virt. eigenvalues --    2.44045   2.47630   2.48911   2.51416   2.52696
  Beta virt. eigenvalues --    2.54444   2.55271   2.59512   2.60783   2.62838
  Beta virt. eigenvalues --    2.65123   2.65443   2.69231   2.71279   2.73324
  Beta virt. eigenvalues --    2.74735   2.78070   2.79196   2.81838   2.83535
  Beta virt. eigenvalues --    2.84790   2.89326   2.90506   2.92460   2.94963
  Beta virt. eigenvalues --    2.97207   3.00264   3.02901   3.03807   3.05254
  Beta virt. eigenvalues --    3.08753   3.10226   3.13052   3.18175   3.24176
  Beta virt. eigenvalues --    3.27146   3.27575   3.28429   3.31951   3.37868
  Beta virt. eigenvalues --    3.47193   3.47821   3.55745   3.57657   3.59785
  Beta virt. eigenvalues --    3.61152   3.67351   3.71908   3.75653   3.78674
  Beta virt. eigenvalues --    3.85541   3.86127   3.86516   3.88946   3.91211
  Beta virt. eigenvalues --    3.91640   3.95616   4.04337   4.08735   4.15674
  Beta virt. eigenvalues --    4.17452   4.19851   4.22729   4.28289   4.30619
  Beta virt. eigenvalues --    4.42421   4.46480   4.54529   4.59677   4.68671
  Beta virt. eigenvalues --    5.00121   5.08034   5.09948   5.13987   5.20098
  Beta virt. eigenvalues --    5.26707   5.28558   5.36792   5.38431   5.41148
  Beta virt. eigenvalues --    5.42254   5.45125   5.48331   5.54800   5.59506
  Beta virt. eigenvalues --    5.65915   5.68126   5.72074   5.73550   5.75997
  Beta virt. eigenvalues --    5.76636   5.77941   5.78807   5.79981   5.81120
  Beta virt. eigenvalues --    5.82441   5.89338   5.92631   5.93620   5.97892
  Beta virt. eigenvalues --    6.00397   6.02040   6.02328   6.07692   6.08966
  Beta virt. eigenvalues --    6.09384   6.12722   6.14298   6.17164   6.22971
  Beta virt. eigenvalues --    6.25303   6.28085   6.29419   6.32372   6.34702
  Beta virt. eigenvalues --    6.42242   6.45800   6.46264   6.48429   6.51716
  Beta virt. eigenvalues --    6.57082   6.58309   6.63540   6.65999   6.67028
  Beta virt. eigenvalues --    6.69024   6.73644   6.74284   6.78797   6.92144
  Beta virt. eigenvalues --    6.94888   7.02021   7.03132   7.05550   7.09039
  Beta virt. eigenvalues --    7.10797   7.13179   7.15064   7.17128   7.21225
  Beta virt. eigenvalues --    7.24275   7.25756   7.27613   7.29561   7.31491
  Beta virt. eigenvalues --    7.33858   7.36323   7.38331   7.40892   7.42040
  Beta virt. eigenvalues --    7.43287   7.45842   7.48731   7.53424   7.54342
  Beta virt. eigenvalues --    7.55862   7.56774   7.58878   7.60955   7.63048
  Beta virt. eigenvalues --    7.65406   7.66438   7.67012   7.69320   7.75944
  Beta virt. eigenvalues --    7.78569   7.85721   7.87377   7.92900   7.93679
  Beta virt. eigenvalues --    7.97339   8.11077   8.11574   8.12885   8.15069
  Beta virt. eigenvalues --    8.16968   8.17880   8.20904   8.21616   8.22386
  Beta virt. eigenvalues --    8.23045   8.26442   8.28643   8.30407   8.33114
  Beta virt. eigenvalues --    8.34461   8.35247   8.37546   8.38683   8.40134
  Beta virt. eigenvalues --    8.45789   8.48792   8.52210   8.57299   8.57993
  Beta virt. eigenvalues --    8.62737   8.72221   8.73725   8.76724   8.78309
  Beta virt. eigenvalues --    8.81826   8.87658   8.93588   8.97917   9.02794
  Beta virt. eigenvalues --    9.07209   9.11005   9.21405   9.26077   9.46642
  Beta virt. eigenvalues --    9.49850   9.52904   9.59084   9.64510   9.66203
  Beta virt. eigenvalues --    9.66542   9.70482   9.78939   9.81502   9.88882
  Beta virt. eigenvalues --    9.95852   9.99203  10.02964  10.05482  10.15072
  Beta virt. eigenvalues --   10.24172  10.25844  10.37719  10.50151  10.65562
  Beta virt. eigenvalues --   10.68014  10.96415  11.16932  11.25052  11.41165
  Beta virt. eigenvalues --   11.44175  11.50510  11.58817  11.62392  11.64244
  Beta virt. eigenvalues --   11.74244  11.84023  12.15278  12.29837  12.48177
  Beta virt. eigenvalues --   12.84993  13.06508  13.50940  13.64236  13.94493
  Beta virt. eigenvalues --   14.07902  16.33104  29.12877  29.16267  48.14426
  Beta virt. eigenvalues --  146.62163 146.64046 251.10750
          Condensed to atoms (all electrons):
               1          2          3          4          5          6
     1  C    5.316498   0.293978   0.000610   0.370307   0.369491   0.369258
     2  C    0.293978   5.477040  -0.059698  -0.045000  -0.047431  -0.040671
     3  O    0.000610  -0.059698   8.103330   0.001494   0.000047  -0.000248
     4  H    0.370307  -0.045000   0.001494   0.514839  -0.027078  -0.033936
     5  H    0.369491  -0.047431   0.000047  -0.027078   0.511288  -0.033617
     6  H    0.369258  -0.040671  -0.000248  -0.033936  -0.033617   0.536599
     7  H   -0.034693   0.334040  -0.003215  -0.004940   0.007921  -0.005290
     8  H   -0.045094   0.352859  -0.001252   0.007834  -0.004017  -0.003635
     9  H   -0.029494   0.273136   0.155369  -0.003492  -0.002677   0.003885
    10  H   -0.000040   0.030317   0.283399   0.000235  -0.000034   0.000050
               7          8          9         10
     1  C   -0.034693  -0.045094  -0.029494  -0.000040
     2  C    0.334040   0.352859   0.273136   0.030317
     3  O   -0.003215  -0.001252   0.155369   0.283399
     4  H   -0.004940   0.007834  -0.003492   0.000235
     5  H    0.007921  -0.004017  -0.002677  -0.000034
     6  H   -0.005290  -0.003635   0.003885   0.000050
     7  H    0.536139  -0.036796  -0.010265  -0.001196
     8  H   -0.036796   0.512179  -0.014158  -0.000133
     9  H   -0.010265  -0.014158   0.397650  -0.041941
    10  H   -0.001196  -0.000133  -0.041941   0.446057
          Atomic-Atomic Spin Densities.
               1          2          3          4          5          6
     1  C   -0.005018  -0.028366   0.008991   0.006781   0.006976   0.002524
     2  C   -0.028366   0.456323  -0.096802  -0.006121  -0.005746  -0.000415
     3  O    0.008991  -0.096802   0.709154   0.001512   0.001396  -0.001241
     4  H    0.006781  -0.006121   0.001512   0.005544  -0.000551  -0.003855
     5  H    0.006976  -0.005746   0.001396  -0.000551   0.004168  -0.003386
     6  H    0.002524  -0.000415  -0.001241  -0.003855  -0.003386   0.023676
     7  H    0.009572  -0.011441   0.004643   0.000852  -0.000039  -0.001423
     8  H    0.014569  -0.023281   0.006290   0.000326   0.001133  -0.002993
     9  H   -0.007660   0.091346  -0.037603  -0.000894  -0.000794   0.000148
    10  H   -0.000457   0.000478   0.015146  -0.000153  -0.000048   0.000074
               7          8          9         10
     1  C    0.009572   0.014569  -0.007660  -0.000457
     2  C   -0.011441  -0.023281   0.091346   0.000478
     3  O    0.004643   0.006290  -0.037603   0.015146
     4  H    0.000852   0.000326  -0.000894  -0.000153
     5  H   -0.000039   0.001133  -0.000794  -0.000048
     6  H   -0.001423  -0.002993   0.000148   0.000074
     7  H   -0.030623   0.011946  -0.003645  -0.000114
     8  H    0.011946  -0.016702  -0.005863  -0.000360
     9  H   -0.003645  -0.005863   0.001412   0.005130
    10  H   -0.000114  -0.000360   0.005130  -0.041098
 Mulliken charges and spin densities:
               1          2
     1  C   -0.610821   0.007912
     2  C   -0.568570   0.375975
     3  O   -0.479837   0.611487
     4  H    0.219738   0.003440
     5  H    0.226107   0.003109
     6  H    0.207604   0.013107
     7  H    0.218295  -0.020272
     8  H    0.232212  -0.014936
     9  H    0.271988   0.041578
    10  H    0.283285  -0.021402
 Sum of Mulliken charges =  -0.00000   1.00000
 Mulliken charges and spin densities with hydrogens summed into heavy atoms:
               1          2
     1  C    0.042627   0.027569
     2  C    0.153924   0.382346
     3  O   -0.196552   0.590085
 Electronic spatial extent (au):  <R**2>=            302.1849
 Charge=              0.0000 electrons
 Dipole moment (field-independent basis, Debye):
    X=              1.2163    Y=              1.5622    Z=              0.7735  Tot=              2.1256
 Quadrupole moment (field-independent basis, Debye-Ang):
   XX=            -20.8531   YY=            -20.9515   ZZ=            -20.7306
   XY=             -2.8075   XZ=             -2.1821   YZ=              0.5524
 Traceless Quadrupole moment (field-independent basis, Debye-Ang):
   XX=             -0.0080   YY=             -0.1064   ZZ=              0.1145
   XY=             -2.8075   XZ=             -2.1821   YZ=              0.5524
 Octapole moment (field-independent basis, Debye-Ang**2):
  XXX=             -9.7391  YYY=             -0.0405  ZZZ=              0.3674  XYY=             -1.9895
  XXY=              5.9639  XXZ=              5.2837  XZZ=             -1.8573  YZZ=              0.3671
  YYZ=              0.0106  XYZ=             -1.2107
 Hexadecapole moment (field-independent basis, Debye-Ang**3):
 XXXX=           -257.3046 YYYY=            -74.3159 ZZZZ=            -35.5045 XXXY=             -9.3240
 XXXZ=            -13.0294 YYYX=              0.0766 YYYZ=              0.6709 ZZZX=             -1.6659
 ZZZY=              0.3707 XXYY=            -59.4759 XXZZ=            -53.1832 YYZZ=            -15.7741
 XXYZ=              2.8108 YYXZ=             -0.5924 ZZXY=             -0.6381
 N-N= 7.662128240987D+01 E-N=-5.168455297123D+02  KE= 1.549133720575D+02
                          Isotropic Fermi Contact Couplings
        Atom                 a.u.       MegaHertz       Gauss      10(-4) cm-1
     1  C(13)             -0.00786      -8.83640      -3.15305      -2.94751
     2  C(13)              0.15338     172.42808      61.52663      57.51582
     3  O(17)              0.11846     -71.81221     -25.62438     -23.95397
     4  H(1)               0.00214       9.58735       3.42101       3.19800
     5  H(1)               0.00207       9.26324       3.30535       3.08988
     6  H(1)               0.01543      68.96953      24.61004      23.00576
     7  H(1)              -0.00318     -14.20685      -5.06936      -4.73889
     8  H(1)              -0.00210      -9.37075      -3.34372      -3.12575
     9  H(1)              -0.01810     -80.91828     -28.87366     -26.99143
    10  H(1)              -0.01083     -48.41318     -17.27503     -16.14890
 PrsmSu:  requested number of processors reduced to:  21 ShMem   1 Linda.
 --------------------------------------------------------
       Center         ----  Spin Dipole Couplings  ----
                      3XX-RR        3YY-RR        3ZZ-RR
 --------------------------------------------------------
     1   Atom        0.027648     -0.011012     -0.016636
     2   Atom        0.408079     -0.134111     -0.273969
     3   Atom        1.815634     -0.489462     -1.326172
     4   Atom        0.001368      0.001785     -0.003153
     5   Atom        0.001865      0.002221     -0.004087
     6   Atom        0.009042     -0.001990     -0.007051
     7   Atom       -0.008360     -0.006355      0.014715
     8   Atom       -0.008467     -0.008326      0.016793
     9   Atom        0.186802     -0.065602     -0.121200
    10   Atom        0.001347      0.029882     -0.031229
 --------------------------------------------------------
                        XY            XZ            YZ
 --------------------------------------------------------
     1   Atom       -0.008003      0.001932     -0.000449
     2   Atom        0.313766      0.014615      0.007122
     3   Atom        1.631293      0.107872      0.049231
     4   Atom       -0.005647      0.004728     -0.005733
     5   Atom       -0.006169     -0.004253      0.005154
     6   Atom        0.000035      0.000571     -0.000117
     7   Atom        0.010406     -0.001889      0.032664
     8   Atom        0.011795      0.000940     -0.031467
     9   Atom        0.132420      0.003049      0.001510
    10   Atom       -0.041821     -0.049056      0.081832
 --------------------------------------------------------


 ---------------------------------------------------------------------------------
              Anisotropic Spin Dipole Couplings in Principal Axis System
 ---------------------------------------------------------------------------------

       Atom             a.u.   MegaHertz   Gauss  10(-4) cm-1        Axes

              Baa    -0.0167    -2.244    -0.801    -0.749 -0.0392  0.0236  0.9990
     1 C(13)  Bbb    -0.0126    -1.691    -0.603    -0.564  0.1957  0.9805 -0.0155
              Bcc     0.0293     3.935     1.404     1.313  0.9799 -0.1949  0.0431
 
              Baa    -0.2777   -37.267   -13.298   -12.431 -0.4113  0.9043 -0.1145
     2 C(13)  Bbb    -0.2742   -36.801   -13.131   -12.275 -0.0654  0.0960  0.9932
              Bcc     0.5520    74.068    26.429    24.706  0.9092  0.4160  0.0197
 
              Baa    -1.3383    96.839    34.555    32.302 -0.3945  0.7255  0.5639
     3 O(17)  Bbb    -1.3257    95.924    34.228    31.997  0.2377 -0.5122  0.8253
              Bcc     2.6640  -192.763   -68.783   -64.299  0.8876  0.4596  0.0297
 
              Baa    -0.0071    -3.786    -1.351    -1.263 -0.1945  0.4418  0.8758
     4 H(1)   Bbb    -0.0040    -2.130    -0.760    -0.711  0.7739  0.6177 -0.1397
              Bcc     0.0111     5.916     2.111     1.973 -0.6027  0.6506 -0.4620
 
              Baa    -0.0071    -3.780    -1.349    -1.261  0.1556 -0.3977  0.9042
     5 H(1)   Bbb    -0.0040    -2.160    -0.771    -0.720  0.7625  0.6303  0.1460
              Bcc     0.0111     5.940     2.120     1.981 -0.6280  0.6668  0.4013
 
              Baa    -0.0071    -3.775    -1.347    -1.259 -0.0355  0.0233  0.9991
     6 H(1)   Bbb    -0.0020    -1.061    -0.378    -0.354 -0.0020  0.9997 -0.0234
              Bcc     0.0091     4.835     1.725     1.613  0.9994  0.0028  0.0354
 
              Baa    -0.0338   -18.010    -6.426    -6.007 -0.3547  0.7689 -0.5320
     7 H(1)   Bbb    -0.0052    -2.778    -0.991    -0.927  0.9297  0.2295 -0.2881
              Bcc     0.0390    20.787     7.417     6.934  0.0995  0.5968  0.7962
 
              Baa    -0.0339   -18.083    -6.453    -6.032 -0.3811  0.7823  0.4927
     8 H(1)   Bbb    -0.0050    -2.650    -0.946    -0.884  0.9158  0.2465  0.3170
              Bcc     0.0389    20.733     7.398     6.916 -0.1265 -0.5721  0.8104
 
              Baa    -0.1224   -65.284   -23.295   -21.776 -0.3870  0.9073 -0.1641
     9 H(1)   Bbb    -0.1212   -64.667   -23.075   -21.570 -0.0731  0.1472  0.9864
              Bcc     0.2436   129.951    46.370    43.347  0.9192  0.3937  0.0093
 
              Baa    -0.0918   -48.989   -17.481   -16.341  0.2239 -0.4897  0.8427
    10 H(1)   Bbb    -0.0280   -14.946    -5.333    -4.985  0.8542  0.5149  0.0723
              Bcc     0.1198    63.935    22.814    21.326 -0.4693  0.7036  0.5336
 

 ---------------------------------------------------------------------------------

 PrsmSu:  requested number of processors reduced to:  21 ShMem   1 Linda.
 No NMR shielding tensors so no spin-rotation constants.
 Leave Link  601 at Fri Apr 16 23:08:04 2021, MaxMem=   104857600 cpu:             274.4 elap:               6.1
 (Enter /s/ls4/users/knvvv/bin/g16sse/l9999.exe)

 Test job not archived.
 1\1\GINC-N183\Stability\UM062X\def2QZVP\C2H7O1(2)\KNVVV\16-Apr-2021\0\
 \#P M062X/Def2QZVP Integral=UltraFineGrid SCF=NoSymm Stable=(RExt, Opt
 ) IOp(1/33=1)\\Database calculations.\\0,2\C,0,1.4583331217,-0.4463652
 429,0.0254780324\C,0,0.4694230832,0.6974238635,-0.0274930335\O,0,-1.85
 30358481,-0.3146593758,-0.0530547818\H,0,1.301765449,-1.0610797608,0.9
 107352126\H,0,1.3665843702,-1.0861892213,-0.8511181037\H,0,2.482248764
 3,-0.0668790083,0.0571500845\H,0,0.4710693536,1.3254461309,0.861034885
 4\H,0,0.5335217942,1.3034958586,-0.9285579024\H,0,-0.6302342282,0.2078
 158433,-0.078464815\H,0,-2.2672070056,0.388321378,0.4657511223\\Versio
 n=ES64L-G16RevA.03\State=2-A\HF=-155.5499685\S2=0.759519\S2-1=0.\S2A=0
 .750041\RMSD=2.715e-09\Dipole=0.4785134,0.6146047,0.3043339\Quadrupole
 =-0.0059722,-0.0791379,0.08511,-2.0873192,-1.6223645,0.4106855\PG=C01 
 [X(C2H7O1)]\\@


 UNDER MOST GREENE GRASSE LY MOST GREATE SNAKES.
 -- PROVERBS AND REASONS OF THE YEAR 1585
           AS REPRINTED IN PAISLEY MAGAZINE 1828.
 Job cpu time:       0 days  7 hours 18 minutes 22.0 seconds.
 Elapsed time:       0 days  0 hours 12 minutes 14.9 seconds.
 File lengths (MBytes):  RWF=    289 Int=      0 D2E=      0 Chk=     19 Scr=      1
 Normal termination of Gaussian 16 at Fri Apr 16 23:08:04 2021.
