 Entering Gaussian System, Link 0=/s/ls4/users/knvvv/bin/g16sse/g16
 Input=data/database/M062X--def2-QZVP--G2RC_13.gjf
 Output=data/database/M062X--def2-QZVP--G2RC_13.log
 Initial command:
 /s/ls4/users/knvvv/bin/g16sse/l1.exe "/s/ls4/users/knvvv/bin/scratch/Gau-28158.inp" -scrdir="/s/ls4/users/knvvv/bin/scratch/"
 Entering Link 1 = /s/ls4/users/knvvv/bin/g16sse/l1.exe PID=     28159.
  
 Copyright (c) 1988,1990,1992,1993,1995,1998,2003,2009,2016,
            Gaussian, Inc.  All Rights Reserved.
  
 This is part of the Gaussian(R) 16 program.  It is based on
 the Gaussian(R) 09 system (copyright 2009, Gaussian, Inc.),
 the Gaussian(R) 03 system (copyright 2003, Gaussian, Inc.),
 the Gaussian(R) 98 system (copyright 1998, Gaussian, Inc.),
 the Gaussian(R) 94 system (copyright 1995, Gaussian, Inc.),
 the Gaussian 92(TM) system (copyright 1992, Gaussian, Inc.),
 the Gaussian 90(TM) system (copyright 1990, Gaussian, Inc.),
 the Gaussian 88(TM) system (copyright 1988, Gaussian, Inc.),
 the Gaussian 86(TM) system (copyright 1986, Carnegie Mellon
 University), and the Gaussian 82(TM) system (copyright 1983,
 Carnegie Mellon University). Gaussian is a federally registered
 trademark of Gaussian, Inc.
  
 This software contains proprietary and confidential information,
 including trade secrets, belonging to Gaussian, Inc.
  
 This software is provided under written license and may be
 used, copied, transmitted, or stored only in accord with that
 written license.
  
 The following legend is applicable only to US Government
 contracts under FAR:
  
                    RESTRICTED RIGHTS LEGEND
  
 Use, reproduction and disclosure by the US Government is
 subject to restrictions as set forth in subparagraphs (a)
 and (c) of the Commercial Computer Software - Restricted
 Rights clause in FAR 52.227-19.
  
 Gaussian, Inc.
 340 Quinnipiac St., Bldg. 40, Wallingford CT 06492
  
  
 ---------------------------------------------------------------
 Warning -- This program may not be used in any manner that
 competes with the business of Gaussian, Inc. or will provide
 assistance to any competitor of Gaussian, Inc.  The licensee
 of this program is prohibited from giving any competitor of
 Gaussian, Inc. access to this program.  By using this program,
 the user acknowledges that Gaussian, Inc. is engaged in the
 business of creating and licensing software in the field of
 computational chemistry and represents and warrants to the
 licensee that it is not a competitor of Gaussian, Inc. and that
 it will not use this program in any manner prohibited above.
 ---------------------------------------------------------------
  

 Cite this work as:
 Gaussian 16, Revision A.03,
 M. J. Frisch, G. W. Trucks, H. B. Schlegel, G. E. Scuseria, 
 M. A. Robb, J. R. Cheeseman, G. Scalmani, V. Barone, 
 G. A. Petersson, H. Nakatsuji, X. Li, M. Caricato, A. V. Marenich, 
 J. Bloino, B. G. Janesko, R. Gomperts, B. Mennucci, H. P. Hratchian, 
 J. V. Ortiz, A. F. Izmaylov, J. L. Sonnenberg, D. Williams-Young, 
 F. Ding, F. Lipparini, F. Egidi, J. Goings, B. Peng, A. Petrone, 
 T. Henderson, D. Ranasinghe, V. G. Zakrzewski, J. Gao, N. Rega, 
 G. Zheng, W. Liang, M. Hada, M. Ehara, K. Toyota, R. Fukuda, 
 J. Hasegawa, M. Ishida, T. Nakajima, Y. Honda, O. Kitao, H. Nakai, 
 T. Vreven, K. Throssell, J. A. Montgomery, Jr., J. E. Peralta, 
 F. Ogliaro, M. J. Bearpark, J. J. Heyd, E. N. Brothers, K. N. Kudin, 
 V. N. Staroverov, T. A. Keith, R. Kobayashi, J. Normand, 
 K. Raghavachari, A. P. Rendell, J. C. Burant, S. S. Iyengar, 
 J. Tomasi, M. Cossi, J. M. Millam, M. Klene, C. Adamo, R. Cammi, 
 J. W. Ochterski, R. L. Martin, K. Morokuma, O. Farkas, 
 J. B. Foresman, and D. J. Fox, Gaussian, Inc., Wallingford CT, 2016.
 
 ******************************************
 Gaussian 16:  ES64L-G16RevA.03 25-Dec-2016
                16-Apr-2021 
 ******************************************
 %RWF=temp22_61986,70GB
 %nprocshared=48
 Will use up to   48 processors via shared memory.
 Default route: MaxDisk=80GB
 ----------------------------------------------------------------------
 #P M062X/Def2QZVP Integral=UltraFineGrid SCF=NoSymm Stable=(RExt, Opt)
  IOp(1/33=1)
 ----------------------------------------------------------------------
 1/33=1,38=1,172=1/1;
 2/12=2,17=6,18=5,40=1/2;
 3/5=45,7=101,11=2,25=1,30=1,74=-55,75=-5/1,2,3;
 4/9=2/1;
 5/5=2,38=5/2;
 6/7=2,8=2,9=2,10=2,28=1/1;
 8/6=1,10=90,11=11/1;
 9/8=-3,42=1,46=1/14;
 5/5=2,8=3,17=40,38=5/8(-2);
 6/7=2,8=2,9=2,10=2,28=1/1;
 99/5=1,9=1/99;
 Leave Link    1 at Fri Apr 16 23:20:47 2021, MaxMem=           0 cpu:              10.9 elap:               0.2
 (Enter /s/ls4/users/knvvv/bin/g16sse/l101.exe)
 ONIOM data not found on unit 2.
 ----------------------
 Database calculations.
 ----------------------
 TstMul:  ICh=     0
 TstMul:  Mul=     1
 TstMul:  ICh=     0
 TstMul:  Mul=     1
 Symbolic Z-matrix:
 Charge =  0 Multiplicity = 1
 O                     0.        0.       -0.39061 
 H                    -0.76208   0.        0.1953 
 H                     0.76208   0.        0.1953 
 
 RdStrC is calling ZToCFu for IStruc=1 NZ=     3.
 PrtBox:  NBox=     1 Levels=  1 BoxLen=    8.00 SMaxX=        2.88
          Shift=            1.440123            0.000000            0.738138
 Box      1 Number                   0 centers from      1 to      3:
 After GenITR:
 ITRead=  0  0  0
 MicOpt= -1 -1 -1
 ITRead=  0  0  0
 MicOpt= -1 -1 -1
 NAtoms=      3 NQM=        3 NQMF=       0 NMMI=      0 NMMIF=      0
                NMic=       0 NMicF=      0.
                    Isotopes and Nuclear Properties:
 (Nuclear quadrupole moments (NQMom) in fm**2, nuclear magnetic moments (NMagM)
  in nuclear magnetons)

  Atom         1           2           3
 IAtWgt=          16           1           1
 AtmWgt=  15.9949146   1.0078250   1.0078250
 NucSpn=           0           1           1
 AtZEff=  -0.0000000  -0.0000000  -0.0000000
 NQMom=    0.0000000   0.0000000   0.0000000
 NMagM=    0.0000000   2.7928460   2.7928460
 AtZNuc=   8.0000000   1.0000000   1.0000000
 No MM parameters found.
 Leave Link  101 at Fri Apr 16 23:20:47 2021, MaxMem=   104857600 cpu:               6.6 elap:               0.2
 (Enter /s/ls4/users/knvvv/bin/g16sse/l202.exe)
                          Input orientation:                          
 ---------------------------------------------------------------------
 Center     Atomic      Atomic             Coordinates (Angstroms)
 Number     Number       Type             X           Y           Z
 ---------------------------------------------------------------------
      1          8           0        0.000000    0.000000   -0.390606
      2          1           0       -0.762080    0.000000    0.195303
      3          1           0        0.762080    0.000000    0.195303
 ---------------------------------------------------------------------
                    Distance matrix (angstroms):
                    1          2          3
     1  O    0.000000
     2  H    0.961278   0.000000
     3  H    0.961278   1.524161   0.000000
 Stoichiometry    H2O
 Framework group  C2V[C2(O),SGV(H2)]
 Deg. of freedom     2
 Full point group                 C2V     NOp   4
 Largest Abelian subgroup         C2V     NOp   4
 Largest concise Abelian subgroup C2      NOp   2
                         Standard orientation:                         
 ---------------------------------------------------------------------
 Center     Atomic      Atomic             Coordinates (Angstroms)
 Number     Number       Type             X           Y           Z
 ---------------------------------------------------------------------
      1          8           0        0.000000   -0.000000    0.117182
      2          1           0        0.000000    0.762080   -0.468727
      3          1           0       -0.000000   -0.762080   -0.468727
 ---------------------------------------------------------------------
 Rotational constants (GHZ):         822.4094846         431.7182720         283.1044921
 Leave Link  202 at Fri Apr 16 23:20:47 2021, MaxMem=   104857600 cpu:               7.0 elap:               0.2
 (Enter /s/ls4/users/knvvv/bin/g16sse/l301.exe)
 Standard basis: def2QZVP (5D, 7F)
 Ernie: Thresh=  0.10000D-02 Tol=  0.10000D-05 Strict=F.
 There are    56 symmetry adapted cartesian basis functions of A1  symmetry.
 There are    19 symmetry adapted cartesian basis functions of A2  symmetry.
 There are    27 symmetry adapted cartesian basis functions of B1  symmetry.
 There are    40 symmetry adapted cartesian basis functions of B2  symmetry.
 There are    44 symmetry adapted basis functions of A1  symmetry.
 There are    17 symmetry adapted basis functions of A2  symmetry.
 There are    23 symmetry adapted basis functions of B1  symmetry.
 There are    33 symmetry adapted basis functions of B2  symmetry.
   117 basis functions,   168 primitive gaussians,   142 cartesian basis functions
     5 alpha electrons        5 beta electrons
       nuclear repulsion energy         9.1550881947 Hartrees.
 IExCor= 4336 DFT=T Ex+Corr=M062X ExCW=0 ScaHFX=  0.540000
 ScaDFX=  1.000000  1.000000  1.000000  1.000000 ScalE2=  1.000000  1.000000
 IRadAn=      5 IRanWt=     -1 IRanGd=            0 ICorTp=0 IEmpDi=  4
 NAtoms=    3 NActive=    3 NUniq=    2 SFac= 2.25D+00 NAtFMM=   60 NAOKFM=F Big=F
 Integral buffers will be    131072 words long.
 Raffenetti 2 integral format.
 Two-electron integral symmetry is turned on.
 Leave Link  301 at Fri Apr 16 23:20:47 2021, MaxMem=   104857600 cpu:               6.2 elap:               0.2
 (Enter /s/ls4/users/knvvv/bin/g16sse/l302.exe)
 NPDir=0 NMtPBC=     1 NCelOv=     1 NCel=       1 NClECP=     1 NCelD=      1
         NCelK=      1 NCelE2=     1 NClLst=     1 CellRange=     0.0.
 One-electron integrals computed using PRISM.
 One-electron integral symmetry used in STVInt
 PrsmSu:  requested number of processors reduced to:   4 ShMem   1 Linda.
 PrsmSu:  requested number of processors reduced to:  21 ShMem   1 Linda.
   4 Symmetry operations used in ECPInt.
 ECPInt:  NShTT=     703 NPrTT=    1591 LenC2=     704 LenP2D=    1543.
 LDataN:  DoStor=T MaxTD1= 8 Len=  415
 Number of processors reduced to  42 by ecpmxn.
 NBasis=   117 RedAO= T EigKep=  3.17D-04  NBF=    44    17    23    33
 NBsUse=   117 1.00D-06 EigRej= -1.00D+00 NBFU=    44    17    23    33
 Precomputing XC quadrature grid using
 IXCGrd= 4 IRadAn=           5 IRanWt=          -1 IRanGd=           0 AccXCQ= 0.00D+00.
 Generated NRdTot=       0 NPtTot=           0 NUsed=           0 NTot=          32
 NSgBfM=   142   142   142   142   142 MxSgAt=     3 MxSgA2=     3.
 Leave Link  302 at Fri Apr 16 23:20:52 2021, MaxMem=   104857600 cpu:             237.0 elap:               5.2
 (Enter /s/ls4/users/knvvv/bin/g16sse/l303.exe)
 DipDrv:  MaxL=1.
 Leave Link  303 at Fri Apr 16 23:20:52 2021, MaxMem=   104857600 cpu:               6.4 elap:               0.2
 (Enter /s/ls4/users/knvvv/bin/g16sse/l401.exe)
 SCF N**3 symmetry information disabled.
 ExpMin= 8.03D-02 ExpMax= 1.17D+05 ExpMxC= 1.13D+03 IAcc=3 IRadAn=         5 AccDes= 0.00D+00
 Harris functional with IExCor= 1009 and IRadAn=       5 diagonalized for initial guess.
 HarFok:  IExCor= 1009 AccDes= 0.00D+00 IRadAn=         5 IDoV= 1 UseB2=F ITyADJ=14
 ICtDFT=  3500011 ScaDFX=  1.000000  1.000000  1.000000  1.000000
 FoFCou: FMM=F IPFlag=           0 FMFlag=      100000 FMFlg1=           0
         NFxFlg=           0 DoJE=T BraDBF=F KetDBF=T FulRan=T
         wScrn=  0.000000 ICntrl=       500 IOpCl=  0 I1Cent=   200000004 NGrid=           0
         NMat0=    1 NMatS0=      1 NMatT0=    0 NMatD0=    1 NMtDS0=    0 NMtDT0=    0
 Petite list used in FoFCou.
 CoulSu:  requested number of processors reduced to:  21 ShMem   1 Linda.
 CoulSu:  requested number of processors reduced to:  21 ShMem   1 Linda.
 CoulSu:  requested number of processors reduced to:  21 ShMem   1 Linda.
 CoulSu:  requested number of processors reduced to:  21 ShMem   1 Linda.
 Harris En= -76.4317781474819    
 JPrj=0 DoOrth=F DoCkMO=F.
 Initial guess orbital symmetries:
       Occupied  (A1) (A1) (B2) (A1) (B1)
       Virtual   (A1) (B2) (A1) (B2) (B1) (A1) (B2) (A1) (A2) (B1)
                 (A1) (B2) (A1) (B2) (B2) (A1) (A1) (B1) (A2) (B1)
                 (A1) (B2) (A1) (B1) (A1) (B2) (A2) (B2) (B1) (B2)
                 (A1) (A2) (A1) (B2) (A2) (B1) (A1) (B2) (A1) (B2)
                 (A1) (B1) (A2) (B1) (A1) (A1) (B2) (B1) (A1) (B2)
                 (A2) (A1) (B2) (B1) (B2) (A1) (B1) (A1) (A2) (B2)
                 (A2) (A1) (B2) (B2) (B1) (A2) (A1) (B1) (B2) (A1)
                 (B2) (A1) (B1) (B1) (A2) (A1) (B2) (A2) (A1) (B2)
                 (A1) (A2) (B2) (B1) (A1) (B2) (A1) (B1) (A1) (A2)
                 (B2) (A1) (A2) (B2) (B1) (B1) (A1) (B1) (A1) (A2)
                 (B2) (A1) (B2) (A1) (B2) (B1) (A2) (A1) (B2) (A1)
                 (A1) (A1)
 The electronic state of the initial guess is 1-A1.
 Leave Link  401 at Fri Apr 16 23:20:55 2021, MaxMem=   104857600 cpu:             107.8 elap:               2.5
 (Enter /s/ls4/users/knvvv/bin/g16sse/l502.exe)
 Keep R1 ints in memory in symmetry-blocked form, NReq=78080115.
 FoFCou: FMM=F IPFlag=           0 FMFlag=           0 FMFlg1=           0
         NFxFlg=           0 DoJE=F BraDBF=F KetDBF=F FulRan=T
         wScrn=  0.000000 ICntrl=       600 IOpCl=  0 I1Cent=           0 NGrid=           0
         NMat0=    1 NMatS0=   6903 NMatT0=    0 NMatD0=    1 NMtDS0=    0 NMtDT0=    0
 Petite list used in FoFCou.
 CoulSu:  requested number of processors reduced to:  17 ShMem   1 Linda.
 Closed shell SCF:
 Using DIIS extrapolation, IDIIS=  1040.
 NGot=   104857600 LenX=    98756703 LenY=    98736098
 Requested convergence on RMS density matrix=1.00D-08 within 128 cycles.
 Requested convergence on MAX density matrix=1.00D-06.
 Requested convergence on             energy=1.00D-06.
 No special actions if energy rises.
 Integral accuracy reduced to 1.0D-05 until final iterations.

 Cycle   1  Pass 0  IDiag  1:
 E= -76.3567767681069    
 DIIS: error= 4.92D-02 at cycle   1 NSaved=   1.
 NSaved= 1 IEnMin= 1 EnMin= -76.3567767681069     IErMin= 1 ErrMin= 4.92D-02
 ErrMax= 4.92D-02  0.00D+00 EMaxC= 1.00D-01 BMatC= 1.46D-01 BMatP= 1.46D-01
 IDIUse=3 WtCom= 5.08D-01 WtEn= 4.92D-01
 Coeff-Com:  0.100D+01
 Coeff-En:   0.100D+01
 Coeff:      0.100D+01
 Gap=     0.296 Goal=   None    Shift=    0.000
 GapD=    0.296 DampG=1.000 DampE=0.500 DampFc=0.5000 IDamp=-1.
 Damping current iteration by 5.00D-01
 RMSDP=2.21D-03 MaxDP=7.15D-02              OVMax= 1.65D-01

 Cycle   2  Pass 0  IDiag  1:
 E= -76.3908233842899     Delta-E=       -0.034046616183 Rises=F Damp=T
 DIIS: error= 2.25D-02 at cycle   2 NSaved=   2.
 NSaved= 2 IEnMin= 2 EnMin= -76.3908233842899     IErMin= 2 ErrMin= 2.25D-02
 ErrMax= 2.25D-02  0.00D+00 EMaxC= 1.00D-01 BMatC= 1.32D-02 BMatP= 1.46D-01
 IDIUse=3 WtCom= 7.75D-01 WtEn= 2.25D-01
 Coeff-Com:  0.487D-01 0.951D+00
 Coeff-En:   0.163D+00 0.837D+00
 Coeff:      0.745D-01 0.926D+00
 Gap=     0.436 Goal=   None    Shift=    0.000
 RMSDP=4.99D-04 MaxDP=1.05D-02 DE=-3.40D-02 OVMax= 9.50D-02

 Cycle   3  Pass 0  IDiag  1:
 E= -76.4360269316845     Delta-E=       -0.045203547395 Rises=F Damp=F
 DIIS: error= 2.56D-03 at cycle   3 NSaved=   3.
 NSaved= 3 IEnMin= 3 EnMin= -76.4360269316845     IErMin= 3 ErrMin= 2.56D-03
 ErrMax= 2.56D-03  0.00D+00 EMaxC= 1.00D-01 BMatC= 2.01D-04 BMatP= 1.32D-02
 IDIUse=3 WtCom= 9.74D-01 WtEn= 2.56D-02
 Coeff-Com: -0.312D-01 0.594D-01 0.972D+00
 Coeff-En:   0.000D+00 0.000D+00 0.100D+01
 Coeff:     -0.304D-01 0.579D-01 0.973D+00
 Gap=     0.438 Goal=   None    Shift=    0.000
 RMSDP=4.48D-05 MaxDP=2.30D-03 DE=-4.52D-02 OVMax= 3.76D-03

 Cycle   4  Pass 0  IDiag  1:
 E= -76.4361645104269     Delta-E=       -0.000137578742 Rises=F Damp=F
 DIIS: error= 1.78D-04 at cycle   4 NSaved=   4.
 NSaved= 4 IEnMin= 4 EnMin= -76.4361645104269     IErMin= 4 ErrMin= 1.78D-04
 ErrMax= 1.78D-04  0.00D+00 EMaxC= 1.00D-01 BMatC= 2.70D-06 BMatP= 2.01D-04
 IDIUse=3 WtCom= 9.98D-01 WtEn= 1.78D-03
 Coeff-Com: -0.160D-03-0.312D-03 0.686D-01 0.932D+00
 Coeff-En:   0.000D+00 0.000D+00 0.000D+00 0.100D+01
 Coeff:     -0.159D-03-0.311D-03 0.685D-01 0.932D+00
 Gap=     0.439 Goal=   None    Shift=    0.000
 RMSDP=1.20D-05 MaxDP=2.55D-04 DE=-1.38D-04 OVMax= 4.87D-04

 Cycle   5  Pass 0  IDiag  1:
 E= -76.4361660221529     Delta-E=       -0.000001511726 Rises=F Damp=F
 DIIS: error= 3.94D-05 at cycle   5 NSaved=   5.
 NSaved= 5 IEnMin= 5 EnMin= -76.4361660221529     IErMin= 5 ErrMin= 3.94D-05
 ErrMax= 3.94D-05  0.00D+00 EMaxC= 1.00D-01 BMatC= 6.94D-08 BMatP= 2.70D-06
 IDIUse=1 WtCom= 1.00D+00 WtEn= 0.00D+00
 Coeff-Com:  0.131D-02-0.237D-02-0.303D-01 0.356D-01 0.996D+00
 Coeff:      0.131D-02-0.237D-02-0.303D-01 0.356D-01 0.996D+00
 Gap=     0.439 Goal=   None    Shift=    0.000
 RMSDP=2.89D-06 MaxDP=7.37D-05 DE=-1.51D-06 OVMax= 1.36D-04

 Initial convergence to 1.0D-05 achieved.  Increase integral accuracy.
 Cycle   6  Pass 1  IDiag  1:
 E= -76.4361855888116     Delta-E=       -0.000019566659 Rises=F Damp=F
 DIIS: error= 1.00D-04 at cycle   1 NSaved=   1.
 NSaved= 1 IEnMin= 1 EnMin= -76.4361855888116     IErMin= 1 ErrMin= 1.00D-04
 ErrMax= 1.00D-04  0.00D+00 EMaxC= 1.00D-01 BMatC= 3.58D-07 BMatP= 3.58D-07
 IDIUse=3 WtCom= 9.99D-01 WtEn= 1.00D-03
 Coeff-Com:  0.100D+01
 Coeff-En:   0.100D+01
 Coeff:      0.100D+01
 Gap=     0.439 Goal=   None    Shift=    0.000
 RMSDP=2.89D-06 MaxDP=7.37D-05 DE=-1.96D-05 OVMax= 5.49D-05

 Cycle   7  Pass 1  IDiag  1:
 E= -76.4361856800719     Delta-E=       -0.000000091260 Rises=F Damp=F
 DIIS: error= 6.39D-06 at cycle   2 NSaved=   2.
 NSaved= 2 IEnMin= 2 EnMin= -76.4361856800719     IErMin= 2 ErrMin= 6.39D-06
 ErrMax= 6.39D-06  0.00D+00 EMaxC= 1.00D-01 BMatC= 1.87D-09 BMatP= 3.58D-07
 IDIUse=1 WtCom= 1.00D+00 WtEn= 0.00D+00
 Coeff-Com: -0.619D-01 0.106D+01
 Coeff:     -0.619D-01 0.106D+01
 Gap=     0.439 Goal=   None    Shift=    0.000
 RMSDP=3.72D-07 MaxDP=1.07D-05 DE=-9.13D-08 OVMax= 1.23D-05

 Cycle   8  Pass 1  IDiag  1:
 E= -76.4361856808031     Delta-E=       -0.000000000731 Rises=F Damp=F
 DIIS: error= 2.00D-06 at cycle   3 NSaved=   3.
 NSaved= 3 IEnMin= 3 EnMin= -76.4361856808031     IErMin= 3 ErrMin= 2.00D-06
 ErrMax= 2.00D-06  0.00D+00 EMaxC= 1.00D-01 BMatC= 1.91D-10 BMatP= 1.87D-09
 IDIUse=1 WtCom= 1.00D+00 WtEn= 0.00D+00
 Coeff-Com: -0.206D-01 0.312D+00 0.708D+00
 Coeff:     -0.206D-01 0.312D+00 0.708D+00
 Gap=     0.439 Goal=   None    Shift=    0.000
 RMSDP=7.51D-08 MaxDP=3.01D-06 DE=-7.31D-10 OVMax= 5.17D-06

 Cycle   9  Pass 1  IDiag  1:
 E= -76.4361856808920     Delta-E=       -0.000000000089 Rises=F Damp=F
 DIIS: error= 1.04D-06 at cycle   4 NSaved=   4.
 NSaved= 4 IEnMin= 4 EnMin= -76.4361856808920     IErMin= 4 ErrMin= 1.04D-06
 ErrMax= 1.04D-06  0.00D+00 EMaxC= 1.00D-01 BMatC= 5.33D-11 BMatP= 1.91D-10
 IDIUse=1 WtCom= 1.00D+00 WtEn= 0.00D+00
 Coeff-Com:  0.663D-03-0.374D-01 0.332D+00 0.705D+00
 Coeff:      0.663D-03-0.374D-01 0.332D+00 0.705D+00
 Gap=     0.439 Goal=   None    Shift=    0.000
 RMSDP=2.84D-08 MaxDP=9.69D-07 DE=-8.89D-11 OVMax= 2.41D-06

 Cycle  10  Pass 1  IDiag  1:
 E= -76.4361856809270     Delta-E=       -0.000000000035 Rises=F Damp=F
 DIIS: error= 7.64D-08 at cycle   5 NSaved=   5.
 NSaved= 5 IEnMin= 5 EnMin= -76.4361856809270     IErMin= 5 ErrMin= 7.64D-08
 ErrMax= 7.64D-08  0.00D+00 EMaxC= 1.00D-01 BMatC= 3.14D-13 BMatP= 5.33D-11
 IDIUse=1 WtCom= 1.00D+00 WtEn= 0.00D+00
 Coeff-Com:  0.336D-03-0.211D-02-0.728D-01-0.738D-01 0.115D+01
 Coeff:      0.336D-03-0.211D-02-0.728D-01-0.738D-01 0.115D+01
 Gap=     0.439 Goal=   None    Shift=    0.000
 RMSDP=5.26D-09 MaxDP=1.34D-07 DE=-3.50D-11 OVMax= 5.29D-07

 SCF Done:  E(RM062X) =  -76.4361856809     A.U. after   10 cycles
            NFock= 10  Conv=0.53D-08     -V/T= 2.0033
 KE= 7.618623393119D+01 PE=-1.991688792025D+02 EE= 3.739137139572D+01
 Leave Link  502 at Fri Apr 16 23:21:06 2021, MaxMem=   104857600 cpu:             523.4 elap:              11.5
 (Enter /s/ls4/users/knvvv/bin/g16sse/l601.exe)
 Copying SCF densities to generalized density rwf, IOpCl= 0 IROHF=0.

 **********************************************************************

            Population analysis using the SCF density.

 **********************************************************************

 Orbital symmetries:
       Occupied  (A1) (A1) (B2) (A1) (B1)
       Virtual   (A1) (B2) (A1) (B2) (B1) (A1) (B2) (A1) (A2) (B1)
                 (A1) (B2) (A1) (B2) (B2) (A1) (B1) (A1) (A2) (A1)
                 (B1) (B2) (A1) (B1) (A1) (B2) (A2) (B2) (B1) (A1)
                 (B2) (A2) (A1) (B2) (A2) (B1) (A1) (B2) (B2) (A1)
                 (A1) (B1) (A2) (A1) (B1) (B2) (A1) (B1) (A1) (B2)
                 (A2) (A1) (B2) (B1) (B2) (A1) (B1) (A1) (A2) (B2)
                 (A2) (A1) (B2) (B1) (B2) (A2) (A1) (B1) (B2) (A1)
                 (B2) (A1) (B1) (B1) (A1) (A2) (B2) (A2) (A1) (B2)
                 (A1) (A2) (B2) (B1) (A1) (B2) (A1) (B1) (A1) (A2)
                 (B2) (A1) (A2) (B2) (B1) (B1) (A1) (B1) (A1) (B2)
                 (A2) (A1) (B2) (B2) (A1) (B1) (A2) (A1) (B2) (A1)
                 (A1) (A1)
 The electronic state is 1-A1.
 Alpha  occ. eigenvalues --  -19.62714  -1.13428  -0.60916  -0.47482  -0.40191
 Alpha virt. eigenvalues --    0.03679   0.08461   0.26916   0.29610   0.30071
 Alpha virt. eigenvalues --    0.33605   0.41625   0.48363   0.54514   0.60357
 Alpha virt. eigenvalues --    0.63014   0.79138   0.91396   0.93711   1.01489
 Alpha virt. eigenvalues --    1.05590   1.29557   1.29868   1.31630   1.38272
 Alpha virt. eigenvalues --    1.40089   1.44820   1.79715   1.87596   1.97505
 Alpha virt. eigenvalues --    1.99395   2.08045   2.24818   2.26994   2.29897
 Alpha virt. eigenvalues --    2.30842   2.37696   2.49481   2.54513   2.62122
 Alpha virt. eigenvalues --    2.64602   2.83150   2.92640   3.08459   3.10835
 Alpha virt. eigenvalues --    3.20027   3.66840   3.79688   3.82083   3.84505
 Alpha virt. eigenvalues --    4.00514   4.06355   4.18268   4.19789   4.37686
 Alpha virt. eigenvalues --    4.55814   4.71084   4.74841   5.22816   5.28669
 Alpha virt. eigenvalues --    5.29118   5.61218   5.79561   5.85710   5.93556
 Alpha virt. eigenvalues --    6.28797   6.41031   6.63203   6.93832   6.95395
 Alpha virt. eigenvalues --    7.00372   7.00817   7.10754   7.16447   7.19429
 Alpha virt. eigenvalues --    7.24489   7.31270   7.51199   7.63461   7.68439
 Alpha virt. eigenvalues --    7.70691   7.71056   7.80955   7.92040   8.12672
 Alpha virt. eigenvalues --    8.29856   8.40127   8.53757   8.59166   8.84955
 Alpha virt. eigenvalues --    8.85556   9.66113   9.67456  10.06409  10.13162
 Alpha virt. eigenvalues --   10.52138  10.52475  10.73954  10.83234  10.94237
 Alpha virt. eigenvalues --   11.13932  11.25595  11.54337  11.56379  11.65018
 Alpha virt. eigenvalues --   11.68965  12.02386  12.60209  13.25810  13.35362
 Alpha virt. eigenvalues --   13.43947  13.85726  14.21578  16.31233  16.34743
 Alpha virt. eigenvalues --   48.23418 251.29680
          Condensed to atoms (all electrons):
               1          2          3
     1  O    7.944835   0.326287   0.326287
     2  H    0.326287   0.385420  -0.010411
     3  H    0.326287  -0.010411   0.385420
 Mulliken charges:
               1
     1  O   -0.597409
     2  H    0.298704
     3  H    0.298704
 Sum of Mulliken charges =  -0.00000
 Mulliken charges with hydrogens summed into heavy atoms:
               1
     1  O   -0.000000
 Electronic spatial extent (au):  <R**2>=             19.7242
 Charge=             -0.0000 electrons
 Dipole moment (field-independent basis, Debye):
    X=             -0.0000    Y=             -0.0000    Z=             -1.9420  Tot=              1.9420
 Quadrupole moment (field-independent basis, Debye-Ang):
   XX=             -7.6116   YY=             -4.3481   ZZ=             -6.3526
   XY=              0.0000   XZ=              0.0000   YZ=              0.0000
 Traceless Quadrupole moment (field-independent basis, Debye-Ang):
   XX=             -1.5075   YY=              1.7560   ZZ=             -0.2485
   XY=              0.0000   XZ=              0.0000   YZ=              0.0000
 Octapole moment (field-independent basis, Debye-Ang**2):
  XXX=              0.0000  YYY=             -0.0000  ZZZ=             -1.1480  XYY=             -0.0000
  XXY=             -0.0000  XXZ=             -0.2723  XZZ=              0.0000  YZZ=              0.0000
  YYZ=             -1.3709  XYZ=             -0.0000
 Hexadecapole moment (field-independent basis, Debye-Ang**3):
 XXXX=             -6.7336 YYYY=             -6.2366 ZZZZ=             -7.3940 XXXY=             -0.0000
 XXXZ=             -0.0000 YYYX=             -0.0000 YYYZ=              0.0000 ZZZX=             -0.0000
 ZZZY=              0.0000 XXYY=             -2.4937 XXZZ=             -2.4081 YYZZ=             -1.9363
 XXYZ=             -0.0000 YYXZ=              0.0000 ZZXY=              0.0000
 N-N= 9.155088194685D+00 E-N=-1.991688768357D+02  KE= 7.618623393119D+01
 PrsmSu:  requested number of processors reduced to:  21 ShMem   1 Linda.
 No NMR shielding tensors so no spin-rotation constants.
 Leave Link  601 at Fri Apr 16 23:21:09 2021, MaxMem=   104857600 cpu:              94.5 elap:               2.2
 (Enter /s/ls4/users/knvvv/bin/g16sse/l801.exe)
 DoSCS=F DFT=T ScalE2(SS,OS)=  1.000000  1.000000
 Range of M.O.s used for correlation:     1   117
 NBasis=   117 NAE=     5 NBE=     5 NFC=     0 NFV=     0
 NROrb=    117 NOA=     5 NOB=     5 NVA=   112 NVB=   112

 **** Warning!!: The largest alpha MO coefficient is  0.15703334D+02

 Leave Link  801 at Fri Apr 16 23:21:09 2021, MaxMem=   104857600 cpu:               4.1 elap:               0.1
 (Enter /s/ls4/users/knvvv/bin/g16sse/l914.exe)
 RHF ground state
 Doing stability rather than CIS.
 Two-electron integrals replicated using symmetry.
 MDV=   104857600 DFT=T DoStab=T Mixed=T DoRPA=F DoScal=F NonHer=F
 Making orbital integer symmetry assigments:
 Orbital symmetries:
       Occupied  (A1) (A1) (B2) (A1) (B1)
       Virtual   (A1) (B2) (A1) (B2) (B1) (A1) (B2) (A1) (A2) (B1)
                 (A1) (B2) (A1) (B2) (B2) (A1) (B1) (A1) (A2) (A1)
                 (B1) (B2) (A1) (B1) (A1) (B2) (A2) (B2) (B1) (A1)
                 (B2) (A2) (A1) (B2) (A2) (B1) (A1) (B2) (B2) (A1)
                 (A1) (B1) (A2) (A1) (B1) (B2) (A1) (B1) (A1) (B2)
                 (A2) (A1) (B2) (B1) (B2) (A1) (B1) (A1) (A2) (B2)
                 (A2) (A1) (B2) (B1) (B2) (A2) (A1) (B1) (B2) (A1)
                 (B2) (A1) (B1) (B1) (A1) (A2) (B2) (A2) (A1) (B2)
                 (A1) (A2) (B2) (B1) (A1) (B2) (A1) (B1) (A1) (A2)
                 (B2) (A1) (A2) (B2) (B1) (B1) (A1) (B1) (A1) (B2)
                 (A2) (A1) (B2) (B2) (A1) (B1) (A2) (A1) (B2) (A1)
                 (A1) (A1)
    24 initial guesses have been made.
 Convergence on wavefunction:    0.001000000000000
 Davidson Disk Diagonalization:  ConvIn= 1.00D-03 SkipCon=T Conv= 1.00D-03.
 Max sub-space:  2000 roots to seek:    24 dimension of matrix:         1120
 Iteration     1 Dimension    24 NMult     0 NNew     24
 Estimated number of processors is:   20
 CISAX will form     1 AO SS matrices at one time.
 NMat=     1 NSing=     1 JSym2X= 2.
 FoFJK:  IHMeth= 1 ICntrl=       0 DoSepK=F KAlg= 0 I1Cent=           0 FoldK=F
 IRaf= 990000000 NMat=       1 IRICut=       1 DoRegI=T DoRafI=F ISym2E= 2 IDoP0=0 IntGTp=1.
 FoFCou: FMM=F IPFlag=           0 FMFlag=      100000 FMFlg1=           0
         NFxFlg=           0 DoJE=F BraDBF=F KetDBF=F FulRan=T
         wScrn=  0.000000 ICntrl=         0 IOpCl=  0 I1Cent=           0 NGrid=           0
         NMat0=    1 NMatS0=      1 NMatT0=    0 NMatD0=    1 NMtDS0=    0 NMtDT0=    0
 Integrals replicated using symmetry in FoFCou.
 CoulSu:  requested number of processors reduced to:  20 ShMem   1 Linda.
 NMat=     1 NSing=     1 JSym2X= 2.
 CoulSu:  requested number of processors reduced to:  20 ShMem   1 Linda.
 NMat=     1 NSing=     1 JSym2X= 2.
 CoulSu:  requested number of processors reduced to:  20 ShMem   1 Linda.
 NMat=     1 NSing=     1 JSym2X= 2.
 CoulSu:  requested number of processors reduced to:  20 ShMem   1 Linda.
 NMat=     1 NSing=     1 JSym2X= 2.
 CoulSu:  requested number of processors reduced to:  20 ShMem   1 Linda.
 NMat=     1 NSing=     1 JSym2X= 2.
 CoulSu:  requested number of processors reduced to:  20 ShMem   1 Linda.
 NMat=     1 NSing=     1 JSym2X= 2.
 CoulSu:  requested number of processors reduced to:  20 ShMem   1 Linda.
 NMat=     1 NSing=     1 JSym2X= 2.
 CoulSu:  requested number of processors reduced to:  20 ShMem   1 Linda.
 NMat=     1 NSing=     1 JSym2X= 2.
 CoulSu:  requested number of processors reduced to:  20 ShMem   1 Linda.
 NMat=     1 NSing=     1 JSym2X= 2.
 CoulSu:  requested number of processors reduced to:  20 ShMem   1 Linda.
 NMat=     1 NSing=     1 JSym2X= 2.
 CoulSu:  requested number of processors reduced to:  20 ShMem   1 Linda.
 NMat=     1 NSing=     1 JSym2X= 2.
 CoulSu:  requested number of processors reduced to:  20 ShMem   1 Linda.
 NMat=     1 NSing=     0 JSym2X= 2.
 CoulSu:  requested number of processors reduced to:  20 ShMem   1 Linda.
 NMat=     1 NSing=     0 JSym2X= 2.
 CoulSu:  requested number of processors reduced to:  20 ShMem   1 Linda.
 NMat=     1 NSing=     0 JSym2X= 2.
 CoulSu:  requested number of processors reduced to:  20 ShMem   1 Linda.
 NMat=     1 NSing=     0 JSym2X= 2.
 CoulSu:  requested number of processors reduced to:  20 ShMem   1 Linda.
 NMat=     1 NSing=     0 JSym2X= 2.
 CoulSu:  requested number of processors reduced to:  20 ShMem   1 Linda.
 NMat=     1 NSing=     0 JSym2X= 2.
 CoulSu:  requested number of processors reduced to:  20 ShMem   1 Linda.
 NMat=     1 NSing=     0 JSym2X= 2.
 CoulSu:  requested number of processors reduced to:  20 ShMem   1 Linda.
 NMat=     1 NSing=     0 JSym2X= 2.
 CoulSu:  requested number of processors reduced to:  20 ShMem   1 Linda.
 NMat=     1 NSing=     0 JSym2X= 2.
 CoulSu:  requested number of processors reduced to:  20 ShMem   1 Linda.
 NMat=     1 NSing=     0 JSym2X= 2.
 CoulSu:  requested number of processors reduced to:  20 ShMem   1 Linda.
 NMat=     1 NSing=     0 JSym2X= 2.
 CoulSu:  requested number of processors reduced to:  20 ShMem   1 Linda.
 NMat=     1 NSing=     0 JSym2X= 2.
 CoulSu:  requested number of processors reduced to:  20 ShMem   1 Linda.
 New state      1 was old state      2
 Excitation Energies [eV] at current iteration:
 Root      1 :     7.680851699165966
 Root      2 :     8.263027073240263
 Root      3 :     9.723805649369892
 Root      4 :     9.873014859878932
 Root      5 :    10.099310496459720
 Root      6 :    10.537115986350970
 Root      7 :    11.747785421541360
 Root      8 :    12.223472922584170
 Root      9 :    13.422735315850200
 Root     10 :    13.949604796789620
 Root     11 :    14.078702537816590
 Root     12 :    14.104971518453080
 Root     13 :    14.133640982845200
 Root     14 :    14.440537376701130
 Root     15 :    14.524563874169450
 Root     16 :    14.826031805309310
 Root     17 :    15.162076368828250
 Root     18 :    15.260151890763710
 Root     19 :    15.753509709998140
 Root     20 :    16.058243332452890
 Root     21 :    16.093134345132090
 Root     22 :    16.185155939361890
 Root     23 :    18.217443894561110
 Root     24 :    24.478564517943860
 Iteration     2 Dimension    48 NMult    24 NNew     24
 Estimated number of processors is:   20
 CISAX will form     1 AO SS matrices at one time.
 NMat=     1 NSing=     1 JSym2X= 2.
 CoulSu:  requested number of processors reduced to:  20 ShMem   1 Linda.
 NMat=     1 NSing=     1 JSym2X= 2.
 CoulSu:  requested number of processors reduced to:  20 ShMem   1 Linda.
 NMat=     1 NSing=     1 JSym2X= 2.
 CoulSu:  requested number of processors reduced to:  20 ShMem   1 Linda.
 NMat=     1 NSing=     1 JSym2X= 2.
 CoulSu:  requested number of processors reduced to:  20 ShMem   1 Linda.
 NMat=     1 NSing=     1 JSym2X= 2.
 CoulSu:  requested number of processors reduced to:  20 ShMem   1 Linda.
 NMat=     1 NSing=     1 JSym2X= 2.
 CoulSu:  requested number of processors reduced to:  20 ShMem   1 Linda.
 NMat=     1 NSing=     1 JSym2X= 2.
 CoulSu:  requested number of processors reduced to:  20 ShMem   1 Linda.
 NMat=     1 NSing=     1 JSym2X= 2.
 CoulSu:  requested number of processors reduced to:  20 ShMem   1 Linda.
 NMat=     1 NSing=     1 JSym2X= 2.
 CoulSu:  requested number of processors reduced to:  20 ShMem   1 Linda.
 NMat=     1 NSing=     1 JSym2X= 2.
 CoulSu:  requested number of processors reduced to:  20 ShMem   1 Linda.
 NMat=     1 NSing=     1 JSym2X= 2.
 CoulSu:  requested number of processors reduced to:  20 ShMem   1 Linda.
 NMat=     1 NSing=     1 JSym2X= 2.
 CoulSu:  requested number of processors reduced to:  20 ShMem   1 Linda.
 NMat=     1 NSing=     0 JSym2X= 2.
 CoulSu:  requested number of processors reduced to:  20 ShMem   1 Linda.
 NMat=     1 NSing=     0 JSym2X= 2.
 CoulSu:  requested number of processors reduced to:  20 ShMem   1 Linda.
 NMat=     1 NSing=     0 JSym2X= 2.
 CoulSu:  requested number of processors reduced to:  20 ShMem   1 Linda.
 NMat=     1 NSing=     0 JSym2X= 2.
 CoulSu:  requested number of processors reduced to:  20 ShMem   1 Linda.
 NMat=     1 NSing=     0 JSym2X= 2.
 CoulSu:  requested number of processors reduced to:  20 ShMem   1 Linda.
 NMat=     1 NSing=     0 JSym2X= 2.
 CoulSu:  requested number of processors reduced to:  20 ShMem   1 Linda.
 NMat=     1 NSing=     0 JSym2X= 2.
 CoulSu:  requested number of processors reduced to:  20 ShMem   1 Linda.
 NMat=     1 NSing=     0 JSym2X= 2.
 CoulSu:  requested number of processors reduced to:  20 ShMem   1 Linda.
 NMat=     1 NSing=     0 JSym2X= 2.
 CoulSu:  requested number of processors reduced to:  20 ShMem   1 Linda.
 NMat=     1 NSing=     0 JSym2X= 2.
 CoulSu:  requested number of processors reduced to:  20 ShMem   1 Linda.
 NMat=     1 NSing=     0 JSym2X= 2.
 CoulSu:  requested number of processors reduced to:  20 ShMem   1 Linda.
 NMat=     1 NSing=     0 JSym2X= 2.
 CoulSu:  requested number of processors reduced to:  20 ShMem   1 Linda.
 Root      1 not converged, maximum delta is    0.058352700969833
 Excitation Energies [eV] at current iteration:
 Root      1 :     7.366426499223721   Change is   -0.314425199942245
 Root      2 :     8.165647224469129   Change is   -0.097379848771134
 Root      3 :     9.205132021961958   Change is   -0.518673627407932
 Root      4 :     9.289266067242062   Change is   -0.810044429217660
 Root      5 :     9.614418696886663   Change is   -0.258596162992270
 Root      6 :    10.341125464303180   Change is   -0.195990522047789
 Root      7 :    10.923510339909460   Change is   -0.824275081631894
 Root      8 :    11.955557234919460   Change is   -0.267915687664705
 Root      9 :    12.604985940304280   Change is   -0.817749375545923
 Root     10 :    12.943866635180830   Change is   -1.005738161608795
 Root     11 :    13.644834060589700   Change is   -0.433868477226890
 Root     12 :    13.809748291080240   Change is   -1.450403599683471
 Root     13 :    13.932628998426910   Change is   -0.172342520026168
 Root     14 :    14.000471998740960   Change is   -0.133168984104240
 Root     15 :    14.185322757366090   Change is   -0.339241116803364
 Root     16 :    14.338213034097210   Change is   -0.102324342603918
 Root     17 :    14.393884690471960   Change is   -0.432147114837346
 Root     18 :    14.770634430971000   Change is   -0.391441937857251
 Root     19 :    15.185318037412610   Change is   -0.999837901949283
 Root     20 :    15.486694919932480   Change is   -0.266814790065660
 Root     21 :    15.567718601925260   Change is   -0.490524730527626
 Root     22 :    15.609141247127280   Change is   -0.483993098004813
 Root     23 :    17.047516106711080   Change is   -1.169927787850040
 Root     24 :    18.522872683829520
 Iteration     3 Dimension    54 NMult    48 NNew      6
 Estimated number of processors is:   20
 CISAX will form     1 AO SS matrices at one time.
 NMat=     1 NSing=     1 JSym2X= 2.
 CoulSu:  requested number of processors reduced to:  20 ShMem   1 Linda.
 NMat=     1 NSing=     1 JSym2X= 2.
 CoulSu:  requested number of processors reduced to:  20 ShMem   1 Linda.
 NMat=     1 NSing=     1 JSym2X= 2.
 CoulSu:  requested number of processors reduced to:  20 ShMem   1 Linda.
 NMat=     1 NSing=     0 JSym2X= 2.
 CoulSu:  requested number of processors reduced to:  20 ShMem   1 Linda.
 NMat=     1 NSing=     0 JSym2X= 2.
 CoulSu:  requested number of processors reduced to:  20 ShMem   1 Linda.
 NMat=     1 NSing=     0 JSym2X= 2.
 CoulSu:  requested number of processors reduced to:  20 ShMem   1 Linda.
 Root      1 not converged, maximum delta is    0.003120148761800
 Excitation Energies [eV] at current iteration:
 Root      1 :     7.363459976692382   Change is   -0.002966522531339
 Root      2 :     8.163233332480306   Change is   -0.002413891988823
 Root      3 :     9.198728591191147   Change is   -0.006403430770813
 Root      4 :     9.249988658262554   Change is   -0.039277408979508
 Root      5 :     9.610583477780443   Change is   -0.003835219106220
 Root      6 :    10.329455629674780   Change is   -0.011669834628403
 Iteration     4 Dimension    60 NMult    54 NNew      6
 Estimated number of processors is:   20
 CISAX will form     1 AO SS matrices at one time.
 NMat=     1 NSing=     1 JSym2X= 2.
 CoulSu:  requested number of processors reduced to:  20 ShMem   1 Linda.
 NMat=     1 NSing=     1 JSym2X= 2.
 CoulSu:  requested number of processors reduced to:  20 ShMem   1 Linda.
 NMat=     1 NSing=     1 JSym2X= 2.
 CoulSu:  requested number of processors reduced to:  20 ShMem   1 Linda.
 NMat=     1 NSing=     0 JSym2X= 2.
 CoulSu:  requested number of processors reduced to:  20 ShMem   1 Linda.
 NMat=     1 NSing=     0 JSym2X= 2.
 CoulSu:  requested number of processors reduced to:  20 ShMem   1 Linda.
 NMat=     1 NSing=     0 JSym2X= 2.
 CoulSu:  requested number of processors reduced to:  20 ShMem   1 Linda.
 Root      1 has converged.
 Excitation Energies [eV] at current iteration:
 Root      1 :     7.363426797036978   Change is   -0.000033179655404
 Root      2 :     8.163215205200325   Change is   -0.000018127279980
 Root      3 :     9.198616394851086   Change is   -0.000112196340059
 Root      4 :     9.249067210731807   Change is   -0.000921447530748
 Root      5 :     9.610541308329349   Change is   -0.000042169451094
 Root      6 :    10.328857089920890   Change is   -0.000598539753892
 Convergence achieved on expansion vectors.
 ***********************************************************************
 Stability analysis using <AA,BB:AA,BB> singles matrix:
 ***********************************************************************
 1PDM for each excited state written to RWF  633
 Ground to excited state transition densities written to RWF  633

 Eigenvectors of the stability matrix:
 
 Eigenvector   1:      Triplet-B1   Eigenvalue= 0.2706010  <S**2>=2.000
       5 ->  6         0.67875
       5 -> 11        -0.17274
 The wavefunction is stable under the perturbations considered.
 Leave Link  914 at Fri Apr 16 23:22:28 2021, MaxMem=   104857600 cpu:            2849.9 elap:              79.5
 (Enter /s/ls4/users/knvvv/bin/g16sse/l508.exe)
 The wavefunction is already stable.
 Leave Link  508 at Fri Apr 16 23:22:28 2021, MaxMem=   104857600 cpu:               2.2 elap:               0.1
 (Enter /s/ls4/users/knvvv/bin/g16sse/l601.exe)
 Copying SCF densities to generalized density rwf, IOpCl= 0 IROHF=0.

 **********************************************************************

            Population analysis using the SCF density.

 **********************************************************************

 Orbital symmetries:
       Occupied  (A1) (A1) (B2) (A1) (B1)
       Virtual   (A1) (B2) (A1) (B2) (B1) (A1) (B2) (A1) (A2) (B1)
                 (A1) (B2) (A1) (B2) (B2) (A1) (B1) (A1) (A2) (A1)
                 (B1) (B2) (A1) (B1) (A1) (B2) (A2) (B2) (B1) (A1)
                 (B2) (A2) (A1) (B2) (A2) (B1) (A1) (B2) (B2) (A1)
                 (A1) (B1) (A2) (A1) (B1) (B2) (A1) (B1) (A1) (B2)
                 (A2) (A1) (B2) (B1) (B2) (A1) (B1) (A1) (A2) (B2)
                 (A2) (A1) (B2) (B1) (B2) (A2) (A1) (B1) (B2) (A1)
                 (B2) (A1) (B1) (B1) (A1) (A2) (B2) (A2) (A1) (B2)
                 (A1) (A2) (B2) (B1) (A1) (B2) (A1) (B1) (A1) (A2)
                 (B2) (A1) (A2) (B2) (B1) (B1) (A1) (B1) (A1) (B2)
                 (A2) (A1) (B2) (B2) (A1) (B1) (A2) (A1) (B2) (A1)
                 (A1) (A1)
 The electronic state is 1-A1.
 Alpha  occ. eigenvalues --  -19.62714  -1.13428  -0.60916  -0.47482  -0.40191
 Alpha virt. eigenvalues --    0.03679   0.08461   0.26916   0.29610   0.30071
 Alpha virt. eigenvalues --    0.33605   0.41625   0.48363   0.54514   0.60357
 Alpha virt. eigenvalues --    0.63014   0.79138   0.91396   0.93711   1.01489
 Alpha virt. eigenvalues --    1.05590   1.29557   1.29868   1.31630   1.38272
 Alpha virt. eigenvalues --    1.40089   1.44820   1.79715   1.87596   1.97505
 Alpha virt. eigenvalues --    1.99395   2.08045   2.24818   2.26994   2.29897
 Alpha virt. eigenvalues --    2.30842   2.37696   2.49481   2.54513   2.62122
 Alpha virt. eigenvalues --    2.64602   2.83150   2.92640   3.08459   3.10835
 Alpha virt. eigenvalues --    3.20027   3.66840   3.79688   3.82083   3.84505
 Alpha virt. eigenvalues --    4.00514   4.06355   4.18268   4.19789   4.37686
 Alpha virt. eigenvalues --    4.55814   4.71084   4.74841   5.22816   5.28669
 Alpha virt. eigenvalues --    5.29118   5.61218   5.79561   5.85710   5.93556
 Alpha virt. eigenvalues --    6.28797   6.41031   6.63203   6.93832   6.95395
 Alpha virt. eigenvalues --    7.00372   7.00817   7.10754   7.16447   7.19429
 Alpha virt. eigenvalues --    7.24489   7.31270   7.51199   7.63461   7.68439
 Alpha virt. eigenvalues --    7.70691   7.71056   7.80955   7.92040   8.12672
 Alpha virt. eigenvalues --    8.29856   8.40127   8.53757   8.59166   8.84955
 Alpha virt. eigenvalues --    8.85556   9.66113   9.67456  10.06409  10.13162
 Alpha virt. eigenvalues --   10.52138  10.52475  10.73954  10.83234  10.94237
 Alpha virt. eigenvalues --   11.13932  11.25595  11.54337  11.56379  11.65018
 Alpha virt. eigenvalues --   11.68965  12.02386  12.60209  13.25810  13.35362
 Alpha virt. eigenvalues --   13.43947  13.85726  14.21578  16.31233  16.34743
 Alpha virt. eigenvalues --   48.23418 251.29680
          Condensed to atoms (all electrons):
               1          2          3
     1  O    7.944835   0.326287   0.326287
     2  H    0.326287   0.385420  -0.010411
     3  H    0.326287  -0.010411   0.385420
 Mulliken charges:
               1
     1  O   -0.597409
     2  H    0.298704
     3  H    0.298704
 Sum of Mulliken charges =  -0.00000
 Mulliken charges with hydrogens summed into heavy atoms:
               1
     1  O   -0.000000
 Electronic spatial extent (au):  <R**2>=             19.7242
 Charge=             -0.0000 electrons
 Dipole moment (field-independent basis, Debye):
    X=             -0.0000    Y=             -0.0000    Z=             -1.9420  Tot=              1.9420
 Quadrupole moment (field-independent basis, Debye-Ang):
   XX=             -7.6116   YY=             -4.3481   ZZ=             -6.3526
   XY=              0.0000   XZ=              0.0000   YZ=              0.0000
 Traceless Quadrupole moment (field-independent basis, Debye-Ang):
   XX=             -1.5075   YY=              1.7560   ZZ=             -0.2485
   XY=              0.0000   XZ=              0.0000   YZ=              0.0000
 Octapole moment (field-independent basis, Debye-Ang**2):
  XXX=              0.0000  YYY=             -0.0000  ZZZ=             -1.1480  XYY=             -0.0000
  XXY=             -0.0000  XXZ=             -0.2723  XZZ=              0.0000  YZZ=              0.0000
  YYZ=             -1.3709  XYZ=             -0.0000
 Hexadecapole moment (field-independent basis, Debye-Ang**3):
 XXXX=             -6.7336 YYYY=             -6.2366 ZZZZ=             -7.3940 XXXY=             -0.0000
 XXXZ=             -0.0000 YYYX=             -0.0000 YYYZ=              0.0000 ZZZX=             -0.0000
 ZZZY=              0.0000 XXYY=             -2.4937 XXZZ=             -2.4081 YYZZ=             -1.9363
 XXYZ=             -0.0000 YYXZ=              0.0000 ZZXY=              0.0000
 N-N= 9.155088194685D+00 E-N=-1.991688768357D+02  KE= 7.618623393119D+01
 PrsmSu:  requested number of processors reduced to:  21 ShMem   1 Linda.
 No NMR shielding tensors so no spin-rotation constants.
 Leave Link  601 at Fri Apr 16 23:22:30 2021, MaxMem=   104857600 cpu:              76.2 elap:               1.7
 (Enter /s/ls4/users/knvvv/bin/g16sse/l9999.exe)

 Test job not archived.
 1\1\GINC-N304\Stability\RM062X\def2QZVP\H2O1\KNVVV\16-Apr-2021\0\\#P M
 062X/Def2QZVP Integral=UltraFineGrid SCF=NoSymm Stable=(RExt, Opt) IOp
 (1/33=1)\\Database calculations.\\0,1\O,0,0.,0.,-0.3906055574\H,0,-0.7
 620804408,0.,0.1953027787\H,0,0.7620804408,0.,0.1953027787\\Version=ES
 64L-G16RevA.03\State=1-A1\HF=-76.4361857\RMSD=5.262e-09\Dipole=0.,0.,0
 .7640591\Quadrupole=1.3055374,-1.1207919,-0.1847455,0.,0.,0.\PG=C02V [
 C2(O1),SGV(H2)]\\@


 AND HERE I AM, FOR ALL MY LORE,
 THE WRETCHED FOOL I WAS BEFORE.
 CALLED MASTER OF ARTS, AND DOCTOR TO BOOT,
 FOR TEN YEARS ALMOST I CONFUTE
 AND UP AND DOWN, WHEREVER IT GOES
 I DRAG MY STUDENTS BY THE NOSE --
 AND SEE THAT FOR ALL OUR SCIENCE AND ART
 WE CAN KNOW NOTHING.  IT BURNS MY HEART.

                                       -- FAUST
 Job cpu time:       0 days  1 hours  5 minutes 39.0 seconds.
 Elapsed time:       0 days  0 hours  1 minutes 43.9 seconds.
 File lengths (MBytes):  RWF=     52 Int=      0 D2E=      0 Chk=      3 Scr=      1
 Normal termination of Gaussian 16 at Fri Apr 16 23:22:30 2021.
