 Entering Gaussian System, Link 0=/s/ls4/users/knvvv/bin/g16sse/g16
 Input=data/database/M062X--def2-QZVP--W4-11_ch4.gjf
 Output=data/database/M062X--def2-QZVP--W4-11_ch4.log
 Initial command:
 /s/ls4/users/knvvv/bin/g16sse/l1.exe "/s/ls4/users/knvvv/bin/scratch/Gau-3707.inp" -scrdir="/s/ls4/users/knvvv/bin/scratch/"
 Entering Link 1 = /s/ls4/users/knvvv/bin/g16sse/l1.exe PID=      3708.
  
 Copyright (c) 1988,1990,1992,1993,1995,1998,2003,2009,2016,
            Gaussian, Inc.  All Rights Reserved.
  
 This is part of the Gaussian(R) 16 program.  It is based on
 the Gaussian(R) 09 system (copyright 2009, Gaussian, Inc.),
 the Gaussian(R) 03 system (copyright 2003, Gaussian, Inc.),
 the Gaussian(R) 98 system (copyright 1998, Gaussian, Inc.),
 the Gaussian(R) 94 system (copyright 1995, Gaussian, Inc.),
 the Gaussian 92(TM) system (copyright 1992, Gaussian, Inc.),
 the Gaussian 90(TM) system (copyright 1990, Gaussian, Inc.),
 the Gaussian 88(TM) system (copyright 1988, Gaussian, Inc.),
 the Gaussian 86(TM) system (copyright 1986, Carnegie Mellon
 University), and the Gaussian 82(TM) system (copyright 1983,
 Carnegie Mellon University). Gaussian is a federally registered
 trademark of Gaussian, Inc.
  
 This software contains proprietary and confidential information,
 including trade secrets, belonging to Gaussian, Inc.
  
 This software is provided under written license and may be
 used, copied, transmitted, or stored only in accord with that
 written license.
  
 The following legend is applicable only to US Government
 contracts under FAR:
  
                    RESTRICTED RIGHTS LEGEND
  
 Use, reproduction and disclosure by the US Government is
 subject to restrictions as set forth in subparagraphs (a)
 and (c) of the Commercial Computer Software - Restricted
 Rights clause in FAR 52.227-19.
  
 Gaussian, Inc.
 340 Quinnipiac St., Bldg. 40, Wallingford CT 06492
  
  
 ---------------------------------------------------------------
 Warning -- This program may not be used in any manner that
 competes with the business of Gaussian, Inc. or will provide
 assistance to any competitor of Gaussian, Inc.  The licensee
 of this program is prohibited from giving any competitor of
 Gaussian, Inc. access to this program.  By using this program,
 the user acknowledges that Gaussian, Inc. is engaged in the
 business of creating and licensing software in the field of
 computational chemistry and represents and warrants to the
 licensee that it is not a competitor of Gaussian, Inc. and that
 it will not use this program in any manner prohibited above.
 ---------------------------------------------------------------
  

 Cite this work as:
 Gaussian 16, Revision A.03,
 M. J. Frisch, G. W. Trucks, H. B. Schlegel, G. E. Scuseria, 
 M. A. Robb, J. R. Cheeseman, G. Scalmani, V. Barone, 
 G. A. Petersson, H. Nakatsuji, X. Li, M. Caricato, A. V. Marenich, 
 J. Bloino, B. G. Janesko, R. Gomperts, B. Mennucci, H. P. Hratchian, 
 J. V. Ortiz, A. F. Izmaylov, J. L. Sonnenberg, D. Williams-Young, 
 F. Ding, F. Lipparini, F. Egidi, J. Goings, B. Peng, A. Petrone, 
 T. Henderson, D. Ranasinghe, V. G. Zakrzewski, J. Gao, N. Rega, 
 G. Zheng, W. Liang, M. Hada, M. Ehara, K. Toyota, R. Fukuda, 
 J. Hasegawa, M. Ishida, T. Nakajima, Y. Honda, O. Kitao, H. Nakai, 
 T. Vreven, K. Throssell, J. A. Montgomery, Jr., J. E. Peralta, 
 F. Ogliaro, M. J. Bearpark, J. J. Heyd, E. N. Brothers, K. N. Kudin, 
 V. N. Staroverov, T. A. Keith, R. Kobayashi, J. Normand, 
 K. Raghavachari, A. P. Rendell, J. C. Burant, S. S. Iyengar, 
 J. Tomasi, M. Cossi, J. M. Millam, M. Klene, C. Adamo, R. Cammi, 
 J. W. Ochterski, R. L. Martin, K. Morokuma, O. Farkas, 
 J. B. Foresman, and D. J. Fox, Gaussian, Inc., Wallingford CT, 2016.
 
 ******************************************
 Gaussian 16:  ES64L-G16RevA.03 25-Dec-2016
                18-Apr-2021 
 ******************************************
 %RWF=temp12_97346,70GB
 %nprocshared=48
 Will use up to   48 processors via shared memory.
 Default route: MaxDisk=80GB
 ----------------------------------------------------------------------
 #P M062X/Def2QZVP Integral=UltraFineGrid SCF=NoSymm Stable=(RExt, Opt)
  IOp(1/33=1)
 ----------------------------------------------------------------------
 1/33=1,38=1,172=1/1;
 2/12=2,17=6,18=5,40=1/2;
 3/5=45,7=101,11=2,25=1,30=1,74=-55,75=-5/1,2,3;
 4/9=2/1;
 5/5=2,38=5/2;
 6/7=2,8=2,9=2,10=2,28=1/1;
 8/6=1,10=90,11=11/1;
 9/8=-3,42=1,46=1/14;
 5/5=2,8=3,17=40,38=5/8(-2);
 6/7=2,8=2,9=2,10=2,28=1/1;
 99/5=1,9=1/99;
 Leave Link    1 at Sun Apr 18 04:50:36 2021, MaxMem=           0 cpu:               8.6 elap:               0.2
 (Enter /s/ls4/users/knvvv/bin/g16sse/l101.exe)
 ONIOM data not found on unit 2.
 ----------------------
 Database calculations.
 ----------------------
 TstMul:  ICh=     0
 TstMul:  Mul=     1
 TstMul:  ICh=     0
 TstMul:  Mul=     1
 Symbolic Z-matrix:
 Charge =  0 Multiplicity = 1
 H                     0.        0.        0. 
 C                     0.        0.        1.0879 
 H                     1.02568   0.        1.45053 
 H                    -0.51284   0.88827   1.45053 
 H                    -0.51284  -0.88827   1.45053 
 
 RdStrC is calling ZToCFu for IStruc=1 NZ=     5.
 PrtBox:  NBox=     1 Levels=  1 BoxLen=    8.00 SMaxX=        3.36
          Shift=            0.969129            1.678581            0.000000
 Box      1 Number                   0 centers from      1 to      5:
 After GenITR:
 ITRead=  0  0  0  0  0
 MicOpt= -1 -1 -1 -1 -1
 ITRead=  0  0  0  0  0
 MicOpt= -1 -1 -1 -1 -1
 NAtoms=      5 NQM=        5 NQMF=       0 NMMI=      0 NMMIF=      0
                NMic=       0 NMicF=      0.
                    Isotopes and Nuclear Properties:
 (Nuclear quadrupole moments (NQMom) in fm**2, nuclear magnetic moments (NMagM)
  in nuclear magnetons)

  Atom         1           2           3           4           5
 IAtWgt=           1          12           1           1           1
 AtmWgt=   1.0078250  12.0000000   1.0078250   1.0078250   1.0078250
 NucSpn=           1           0           1           1           1
 AtZEff=  -0.0000000  -0.0000000  -0.0000000  -0.0000000  -0.0000000
 NQMom=    0.0000000   0.0000000   0.0000000   0.0000000   0.0000000
 NMagM=    2.7928460   0.0000000   2.7928460   2.7928460   2.7928460
 AtZNuc=   1.0000000   6.0000000   1.0000000   1.0000000   1.0000000
 No MM parameters found.
 Leave Link  101 at Sun Apr 18 04:50:36 2021, MaxMem=   104857600 cpu:               6.7 elap:               0.2
 (Enter /s/ls4/users/knvvv/bin/g16sse/l202.exe)
                          Input orientation:                          
 ---------------------------------------------------------------------
 Center     Atomic      Atomic             Coordinates (Angstroms)
 Number     Number       Type             X           Y           Z
 ---------------------------------------------------------------------
      1          1           0        0.000000    0.000000    0.000000
      2          6           0        0.000000    0.000000    1.087900
      3          1           0        1.025682    0.000000    1.450533
      4          1           0       -0.512841    0.888267    1.450533
      5          1           0       -0.512841   -0.888267    1.450533
 ---------------------------------------------------------------------
                    Distance matrix (angstroms):
                    1          2          3          4          5
     1  H    0.000000
     2  C    1.087900   0.000000
     3  H    1.776533   1.087900   0.000000
     4  H    1.776533   1.087900   1.776533   0.000000
     5  H    1.776533   1.087900   1.776533   1.776533   0.000000
 Stoichiometry    CH4
 Framework group  TD[O(C),4C3(H)]
 Deg. of freedom     1
 Full point group                 TD      NOp  24
 Largest Abelian subgroup         D2      NOp   4
 Largest concise Abelian subgroup D2      NOp   4
                         Standard orientation:                         
 ---------------------------------------------------------------------
 Center     Atomic      Atomic             Coordinates (Angstroms)
 Number     Number       Type             X           Y           Z
 ---------------------------------------------------------------------
      1          1           0        0.628099    0.628099    0.628099
      2          6           0        0.000000    0.000000    0.000000
      3          1           0       -0.628099   -0.628099    0.628099
      4          1           0       -0.628099    0.628099   -0.628099
      5          1           0        0.628099   -0.628099   -0.628099
 ---------------------------------------------------------------------
 Rotational constants (GHZ):         158.8859045         158.8859045         158.8859045
 Leave Link  202 at Sun Apr 18 04:50:37 2021, MaxMem=   104857600 cpu:              22.3 elap:               0.5
 (Enter /s/ls4/users/knvvv/bin/g16sse/l301.exe)
 Standard basis: def2QZVP (5D, 7F)
 Ernie: Thresh=  0.10000D-02 Tol=  0.10000D-05 Strict=F.
 There are    59 symmetry adapted cartesian basis functions of A   symmetry.
 There are    51 symmetry adapted cartesian basis functions of B1  symmetry.
 There are    51 symmetry adapted cartesian basis functions of B2  symmetry.
 There are    51 symmetry adapted cartesian basis functions of B3  symmetry.
 There are    48 symmetry adapted basis functions of A   symmetry.
 There are    43 symmetry adapted basis functions of B1  symmetry.
 There are    43 symmetry adapted basis functions of B2  symmetry.
 There are    43 symmetry adapted basis functions of B3  symmetry.
   177 basis functions,   244 primitive gaussians,   212 cartesian basis functions
     5 alpha electrons        5 beta electrons
       nuclear repulsion energy        13.4613239153 Hartrees.
 IExCor= 4336 DFT=T Ex+Corr=M062X ExCW=0 ScaHFX=  0.540000
 ScaDFX=  1.000000  1.000000  1.000000  1.000000 ScalE2=  1.000000  1.000000
 IRadAn=      5 IRanWt=     -1 IRanGd=            0 ICorTp=0 IEmpDi=  4
 NAtoms=    5 NActive=    5 NUniq=    2 SFac= 4.00D+00 NAtFMM=   60 NAOKFM=F Big=F
 Integral buffers will be    131072 words long.
 Raffenetti 2 integral format.
 Two-electron integral symmetry is turned on.
 Leave Link  301 at Sun Apr 18 04:50:37 2021, MaxMem=   104857600 cpu:               6.0 elap:               0.1
 (Enter /s/ls4/users/knvvv/bin/g16sse/l302.exe)
 NPDir=0 NMtPBC=     1 NCelOv=     1 NCel=       1 NClECP=     1 NCelD=      1
         NCelK=      1 NCelE2=     1 NClLst=     1 CellRange=     0.0.
 One-electron integrals computed using PRISM.
 One-electron integral symmetry used in STVInt
 PrsmSu:  requested number of processors reduced to:   4 ShMem   1 Linda.
 PrsmSu:  requested number of processors reduced to:  21 ShMem   1 Linda.
  24 Symmetry operations used in ECPInt.
 ECPInt:  NShTT=    1653 NPrTT=    3384 LenC2=    1654 LenP2D=    3252.
 LDataN:  DoStor=T MaxTD1= 8 Len=  415
 Number of processors reduced to  35 by ecpmxn.
 NBasis=   177 RedAO= T EigKep=  1.38D-04  NBF=    48    43    43    43
 NBsUse=   177 1.00D-06 EigRej= -1.00D+00 NBFU=    48    43    43    43
 Precomputing XC quadrature grid using
 IXCGrd= 4 IRadAn=           5 IRanWt=          -1 IRanGd=           0 AccXCQ= 0.00D+00.
 Generated NRdTot=       0 NPtTot=           0 NUsed=           0 NTot=          32
 NSgBfM=   212   212   212   212   212 MxSgAt=     5 MxSgA2=     5.
 Leave Link  302 at Sun Apr 18 04:51:17 2021, MaxMem=   104857600 cpu:            1869.3 elap:              39.8
 (Enter /s/ls4/users/knvvv/bin/g16sse/l303.exe)
 DipDrv:  MaxL=1.
 Leave Link  303 at Sun Apr 18 04:51:17 2021, MaxMem=   104857600 cpu:              30.1 elap:               0.7
 (Enter /s/ls4/users/knvvv/bin/g16sse/l401.exe)
 SCF N**3 symmetry information disabled.
 ExpMin= 7.60D-02 ExpMax= 6.70D+04 ExpMxC= 6.47D+02 IAcc=3 IRadAn=         5 AccDes= 0.00D+00
 Harris functional with IExCor= 1009 and IRadAn=       5 diagonalized for initial guess.
 HarFok:  IExCor= 1009 AccDes= 0.00D+00 IRadAn=         5 IDoV= 1 UseB2=F ITyADJ=14
 ICtDFT=  3500011 ScaDFX=  1.000000  1.000000  1.000000  1.000000
 FoFCou: FMM=F IPFlag=           0 FMFlag=      100000 FMFlg1=           0
         NFxFlg=           0 DoJE=T BraDBF=F KetDBF=T FulRan=T
         wScrn=  0.000000 ICntrl=       500 IOpCl=  0 I1Cent=   200000004 NGrid=           0
         NMat0=    1 NMatS0=      1 NMatT0=    0 NMatD0=    1 NMtDS0=    0 NMtDT0=    0
 Petite list used in FoFCou.
 CoulSu:  requested number of processors reduced to:  21 ShMem   1 Linda.
 CoulSu:  requested number of processors reduced to:  21 ShMem   1 Linda.
 CoulSu:  requested number of processors reduced to:  21 ShMem   1 Linda.
 CoulSu:  requested number of processors reduced to:  21 ShMem   1 Linda.
 Harris En= -40.5448581935411    
 JPrj=0 DoOrth=F DoCkMO=F.
 Initial guess orbital symmetries:
       Occupied  (A1) (A1) (T2) (T2) (T2)
       Virtual   (A1) (T2) (T2) (T2) (T2) (T2) (T2) (T2) (T2) (T2)
                 (A1) (E) (E) (A1) (T2) (T2) (T2) (T1) (T1) (T1)
                 (T2) (T2) (T2) (T2) (T2) (T2) (A1) (T2) (T2) (T2)
                 (E) (E) (A1) (T2) (T2) (T2) (E) (E) (T1) (T1)
                 (T1) (T2) (T2) (T2) (A1) (T2) (T2) (T2) (T1) (T1)
                 (T1) (E) (E) (A1) (T2) (T2) (T2) (E) (E) (T2)
                 (T2) (T2) (T1) (T1) (T1) (A1) (T2) (T2) (T2) (T2)
                 (T2) (T2) (T1) (T1) (T1) (A1) (T2) (T2) (T2) (E)
                 (E) (T2) (T2) (T2) (E) (E) (T1) (T1) (T1) (A1)
                 (T2) (T2) (T2) (T2) (T2) (T2) (A2) (T1) (T1) (T1)
                 (T1) (T1) (T1) (A1) (T2) (T2) (T2) (A1) (T2) (T2)
                 (T2) (E) (E) (A1) (T1) (T1) (T1) (E) (E) (T2)
                 (T2) (T2) (T2) (T2) (T2) (E) (E) (T1) (T1) (T1)
                 (T2) (T2) (T2) (A1) (A1) (T2) (T2) (T2) (E) (E)
                 (T1) (T1) (T1) (T2) (T2) (T2) (T2) (T2) (T2) (T1)
                 (T1) (T1) (E) (E) (T2) (T2) (T2) (E) (E) (T2)
                 (T2) (T2) (A1) (T1) (T1) (T1) (T2) (T2) (T2) (A1)
                 (A1) (A1)
 The electronic state of the initial guess is 1-A1.
 Leave Link  401 at Sun Apr 18 04:51:38 2021, MaxMem=   104857600 cpu:             960.8 elap:              20.6
 (Enter /s/ls4/users/knvvv/bin/g16sse/l502.exe)
 Integral symmetry usage will be decided dynamically.
 Closed shell SCF:
 Using DIIS extrapolation, IDIIS=  1040.
 NGot=   104857600 LenX=   104753225 LenY=   104707840
 Requested convergence on RMS density matrix=1.00D-08 within 128 cycles.
 Requested convergence on MAX density matrix=1.00D-06.
 Requested convergence on             energy=1.00D-06.
 No special actions if energy rises.
 Fock matrices will be formed incrementally for  20 cycles.
 Integral accuracy reduced to 1.0D-05 until final iterations.

 Cycle   1  Pass 0  IDiag  1:
 FoFJK:  IHMeth= 1 ICntrl=       0 DoSepK=F KAlg= 0 I1Cent=           0 FoldK=F
 IRaf= 990000000 NMat=       1 IRICut=       1 DoRegI=T DoRafI=F ISym2E= 1 IDoP0=0 IntGTp=1.
 FoFCou: FMM=F IPFlag=           0 FMFlag=      100000 FMFlg1=           0
         NFxFlg=           0 DoJE=F BraDBF=F KetDBF=F FulRan=T
         wScrn=  0.000000 ICntrl=         0 IOpCl=  0 I1Cent=           0 NGrid=           0
         NMat0=    1 NMatS0=      1 NMatT0=    0 NMatD0=    1 NMtDS0=    0 NMtDT0=    0
 Petite list used in FoFCou.
 CoulSu:  requested number of processors reduced to:  21 ShMem   1 Linda.
 E= -40.4068097856256    
 DIIS: error= 4.57D-02 at cycle   1 NSaved=   1.
 NSaved= 1 IEnMin= 1 EnMin= -40.4068097856256     IErMin= 1 ErrMin= 4.57D-02
 ErrMax= 4.57D-02  0.00D+00 EMaxC= 1.00D-01 BMatC= 1.20D-01 BMatP= 1.20D-01
 IDIUse=3 WtCom= 5.43D-01 WtEn= 4.57D-01
 Coeff-Com:  0.100D+01
 Coeff-En:   0.100D+01
 Coeff:      0.100D+01
 Gap=     0.414 Goal=   None    Shift=    0.000
 GapD=    0.414 DampG=2.000 DampE=0.500 DampFc=1.0000 IDamp=-1.
 RMSDP=1.33D-03 MaxDP=4.53D-02              OVMax= 1.73D-01

 Cycle   2  Pass 0  IDiag  1:
 RMSU=  1.24D-03    CP:  8.95D-01
 CoulSu:  requested number of processors reduced to:  21 ShMem   1 Linda.
 E= -40.4375048164925     Delta-E=       -0.030695030867 Rises=F Damp=F
 DIIS: error= 4.23D-02 at cycle   2 NSaved=   2.
 NSaved= 2 IEnMin= 2 EnMin= -40.4375048164925     IErMin= 2 ErrMin= 4.23D-02
 ErrMax= 4.23D-02  0.00D+00 EMaxC= 1.00D-01 BMatC= 7.00D-02 BMatP= 1.20D-01
 IDIUse=3 WtCom= 5.77D-01 WtEn= 4.23D-01
 Coeff-Com:  0.429D+00 0.571D+00
 Coeff-En:   0.398D+00 0.602D+00
 Coeff:      0.416D+00 0.584D+00
 Gap=     0.511 Goal=   None    Shift=    0.000
 RMSDP=8.12D-04 MaxDP=5.63D-02 DE=-3.07D-02 OVMax= 8.47D-02

 Cycle   3  Pass 0  IDiag  1:
 RMSU=  5.57D-04    CP:  9.68D-01  6.07D-01
 CoulSu:  requested number of processors reduced to:  21 ShMem   1 Linda.
 E= -40.5058401220008     Delta-E=       -0.068335305508 Rises=F Damp=F
 DIIS: error= 3.74D-03 at cycle   3 NSaved=   3.
 NSaved= 3 IEnMin= 3 EnMin= -40.5058401220008     IErMin= 3 ErrMin= 3.74D-03
 ErrMax= 3.74D-03  0.00D+00 EMaxC= 1.00D-01 BMatC= 6.37D-04 BMatP= 7.00D-02
 IDIUse=3 WtCom= 9.63D-01 WtEn= 3.74D-02
 Coeff-Com: -0.243D-01 0.587D-01 0.966D+00
 Coeff-En:   0.000D+00 0.000D+00 0.100D+01
 Coeff:     -0.234D-01 0.565D-01 0.967D+00
 Gap=     0.508 Goal=   None    Shift=    0.000
 RMSDP=1.28D-04 MaxDP=7.08D-03 DE=-6.83D-02 OVMax= 7.24D-03

 Cycle   4  Pass 0  IDiag  1:
 RMSU=  5.38D-05    CP:  9.63D-01  6.66D-01  1.16D+00
 CoulSu:  requested number of processors reduced to:  21 ShMem   1 Linda.
 E= -40.5064097217387     Delta-E=       -0.000569599738 Rises=F Damp=F
 DIIS: error= 1.19D-04 at cycle   4 NSaved=   4.
 NSaved= 4 IEnMin= 4 EnMin= -40.5064097217387     IErMin= 4 ErrMin= 1.19D-04
 ErrMax= 1.19D-04  0.00D+00 EMaxC= 1.00D-01 BMatC= 1.14D-06 BMatP= 6.37D-04
 IDIUse=3 WtCom= 9.99D-01 WtEn= 1.19D-03
 Coeff-Com: -0.610D-03-0.760D-02-0.424D-01 0.105D+01
 Coeff-En:   0.000D+00 0.000D+00 0.000D+00 0.100D+01
 Coeff:     -0.609D-03-0.759D-02-0.424D-01 0.105D+01
 Gap=     0.508 Goal=   None    Shift=    0.000
 RMSDP=1.73D-05 MaxDP=5.09D-04 DE=-5.70D-04 OVMax= 2.08D-04

 Cycle   5  Pass 0  IDiag  1:
 RMSU=  7.60D-06    CP:  9.63D-01  6.68D-01  1.18D+00  1.15D+00
 CoulSu:  requested number of processors reduced to:  21 ShMem   1 Linda.
 E= -40.5064103700606     Delta-E=       -0.000000648322 Rises=F Damp=F
 DIIS: error= 2.16D-05 at cycle   5 NSaved=   5.
 NSaved= 5 IEnMin= 5 EnMin= -40.5064103700606     IErMin= 5 ErrMin= 2.16D-05
 ErrMax= 2.16D-05  0.00D+00 EMaxC= 1.00D-01 BMatC= 1.88D-08 BMatP= 1.14D-06
 IDIUse=1 WtCom= 1.00D+00 WtEn= 0.00D+00
 Coeff-Com:  0.129D-03-0.349D-03-0.591D-03-0.137D-01 0.101D+01
 Coeff:      0.129D-03-0.349D-03-0.591D-03-0.137D-01 0.101D+01
 Gap=     0.508 Goal=   None    Shift=    0.000
 RMSDP=6.18D-07 MaxDP=3.44D-05 DE=-6.48D-07 OVMax= 3.60D-05

 Initial convergence to 1.0D-05 achieved.  Increase integral accuracy.
 Cycle   6  Pass 1  IDiag  1:
 CoulSu:  requested number of processors reduced to:  21 ShMem   1 Linda.
 E= -40.5063806849813     Delta-E=        0.000029685079 Rises=F Damp=F
 DIIS: error= 5.51D-05 at cycle   1 NSaved=   1.
 NSaved= 1 IEnMin= 1 EnMin= -40.5063806849813     IErMin= 1 ErrMin= 5.51D-05
 ErrMax= 5.51D-05  0.00D+00 EMaxC= 1.00D-01 BMatC= 4.55D-07 BMatP= 4.55D-07
 IDIUse=1 WtCom= 1.00D+00 WtEn= 0.00D+00
 Coeff-Com:  0.100D+01
 Coeff:      0.100D+01
 Gap=     0.508 Goal=   None    Shift=    0.000
 RMSDP=6.18D-07 MaxDP=3.44D-05 DE= 2.97D-05 OVMax= 7.43D-05

 Cycle   7  Pass 1  IDiag  1:
 RMSU=  1.04D-05    CP:  1.00D+00
 CoulSu:  requested number of processors reduced to:  21 ShMem   1 Linda.
 E= -40.5063808251508     Delta-E=       -0.000000140169 Rises=F Damp=F
 DIIS: error= 5.92D-06 at cycle   2 NSaved=   2.
 NSaved= 2 IEnMin= 2 EnMin= -40.5063808251508     IErMin= 2 ErrMin= 5.92D-06
 ErrMax= 5.92D-06  0.00D+00 EMaxC= 1.00D-01 BMatC= 3.45D-09 BMatP= 4.55D-07
 IDIUse=1 WtCom= 1.00D+00 WtEn= 0.00D+00
 Coeff-Com:  0.173D-01 0.983D+00
 Coeff:      0.173D-01 0.983D+00
 Gap=     0.508 Goal=   None    Shift=    0.000
 RMSDP=4.52D-07 MaxDP=3.57D-05 DE=-1.40D-07 OVMax= 2.46D-05

 Cycle   8  Pass 1  IDiag  1:
 RMSU=  4.42D-07    CP:  1.00D+00  9.99D-01
 CoulSu:  requested number of processors reduced to:  21 ShMem   1 Linda.
 E= -40.5063808265557     Delta-E=       -0.000000001405 Rises=F Damp=F
 DIIS: error= 5.78D-06 at cycle   3 NSaved=   3.
 NSaved= 3 IEnMin= 3 EnMin= -40.5063808265557     IErMin= 3 ErrMin= 5.78D-06
 ErrMax= 5.78D-06  0.00D+00 EMaxC= 1.00D-01 BMatC= 1.38D-09 BMatP= 3.45D-09
 IDIUse=1 WtCom= 1.00D+00 WtEn= 0.00D+00
 Coeff-Com: -0.825D-03 0.364D+00 0.636D+00
 Coeff:     -0.825D-03 0.364D+00 0.636D+00
 Gap=     0.508 Goal=   None    Shift=    0.000
 RMSDP=1.26D-07 MaxDP=1.00D-05 DE=-1.40D-09 OVMax= 1.17D-05

 Cycle   9  Pass 1  IDiag  1:
 RMSU=  1.08D-07    CP:  1.00D+00  9.96D-01  1.03D+00
 CoulSu:  requested number of processors reduced to:  21 ShMem   1 Linda.
 E= -40.5063808277536     Delta-E=       -0.000000001198 Rises=F Damp=F
 DIIS: error= 9.27D-07 at cycle   4 NSaved=   4.
 NSaved= 4 IEnMin= 4 EnMin= -40.5063808277536     IErMin= 4 ErrMin= 9.27D-07
 ErrMax= 9.27D-07  0.00D+00 EMaxC= 1.00D-01 BMatC= 4.70D-11 BMatP= 1.38D-09
 IDIUse=1 WtCom= 1.00D+00 WtEn= 0.00D+00
 Coeff-Com: -0.171D-02-0.557D-01 0.105D+00 0.953D+00
 Coeff:     -0.171D-02-0.557D-01 0.105D+00 0.953D+00
 Gap=     0.508 Goal=   None    Shift=    0.000
 RMSDP=4.58D-08 MaxDP=2.14D-06 DE=-1.20D-09 OVMax= 2.28D-06

 Cycle  10  Pass 1  IDiag  1:
 RMSU=  9.25D-09    CP:  1.00D+00  9.97D-01  1.13D+00  1.02D+00
 CoulSu:  requested number of processors reduced to:  21 ShMem   1 Linda.
 E= -40.5063808277997     Delta-E=       -0.000000000046 Rises=F Damp=F
 DIIS: error= 4.14D-08 at cycle   5 NSaved=   5.
 NSaved= 5 IEnMin= 5 EnMin= -40.5063808277997     IErMin= 5 ErrMin= 4.14D-08
 ErrMax= 4.14D-08  0.00D+00 EMaxC= 1.00D-01 BMatC= 6.30D-14 BMatP= 4.70D-11
 IDIUse=1 WtCom= 1.00D+00 WtEn= 0.00D+00
 Coeff-Com:  0.180D-03 0.271D-02-0.157D-01-0.785D-01 0.109D+01
 Coeff:      0.180D-03 0.271D-02-0.157D-01-0.785D-01 0.109D+01
 Gap=     0.508 Goal=   None    Shift=    0.000
 RMSDP=3.28D-09 MaxDP=2.75D-07 DE=-4.61D-11 OVMax= 1.24D-07

 SCF Done:  E(RM062X) =  -40.5063808278     A.U. after   10 cycles
            NFock= 10  Conv=0.33D-08     -V/T= 2.0053
 KE= 4.029086267637D+01 PE=-1.201604543348D+02 EE= 2.590188691529D+01
 Leave Link  502 at Sun Apr 18 04:58:46 2021, MaxMem=   104857600 cpu:           20020.2 elap:             428.3
 (Enter /s/ls4/users/knvvv/bin/g16sse/l601.exe)
 Copying SCF densities to generalized density rwf, IOpCl= 0 IROHF=0.

 **********************************************************************

            Population analysis using the SCF density.

 **********************************************************************

 Orbital symmetries:
       Occupied  (A1) (A1) (T2) (T2) (T2)
       Virtual   (A1) (T2) (T2) (T2) (T2) (T2) (T2) (T2) (T2) (T2)
                 (A1) (E) (E) (A1) (T2) (T2) (T2) (T1) (T1) (T1)
                 (T2) (T2) (T2) (T2) (T2) (T2) (A1) (T2) (T2) (T2)
                 (E) (E) (A1) (T2) (T2) (T2) (E) (E) (T1) (T1)
                 (T1) (T2) (T2) (T2) (A1) (T2) (T2) (T2) (T1) (T1)
                 (T1) (E) (E) (A1) (E) (E) (T2) (T2) (T2) (T2)
                 (T2) (T2) (T1) (T1) (T1) (A1) (T2) (T2) (T2) (T2)
                 (T2) (T2) (T1) (T1) (T1) (A1) (T2) (T2) (T2) (E)
                 (E) (T2) (T2) (T2) (E) (E) (T1) (T1) (T1) (A1)
                 (T2) (T2) (T2) (A2) (T2) (T2) (T2) (T1) (T1) (T1)
                 (T1) (T1) (T1) (A1) (T2) (T2) (T2) (A1) (T2) (T2)
                 (T2) (E) (E) (A1) (T1) (T1) (T1) (E) (E) (T2)
                 (T2) (T2) (T2) (T2) (T2) (E) (E) (T1) (T1) (T1)
                 (T2) (T2) (T2) (A1) (A1) (E) (E) (T1) (T1) (T1)
                 (T2) (T2) (T2) (T2) (T2) (T2) (T2) (T2) (T2) (T1)
                 (T1) (T1) (E) (E) (T2) (T2) (T2) (E) (E) (T2)
                 (T2) (T2) (A1) (T1) (T1) (T1) (T2) (T2) (T2) (A1)
                 (A1) (A1)
 The electronic state is 1-A1.
 Alpha  occ. eigenvalues --  -10.51812  -0.78669  -0.45679  -0.45679  -0.45679
 Alpha virt. eigenvalues --    0.05085   0.12218   0.12218   0.12218   0.15123
 Alpha virt. eigenvalues --    0.15123   0.15123   0.36439   0.36439   0.36439
 Alpha virt. eigenvalues --    0.37644   0.42573   0.42573   0.46249   0.66692
 Alpha virt. eigenvalues --    0.66692   0.66692   0.71343   0.71343   0.71343
 Alpha virt. eigenvalues --    0.76013   0.76013   0.76013   0.95889   0.95889
 Alpha virt. eigenvalues --    0.95889   1.01625   1.07573   1.07573   1.07573
 Alpha virt. eigenvalues --    1.09444   1.09444   1.17385   1.45284   1.45284
 Alpha virt. eigenvalues --    1.45284   1.71027   1.71027   1.84123   1.84123
 Alpha virt. eigenvalues --    1.84123   1.89004   1.89004   1.89004   2.01667
 Alpha virt. eigenvalues --    2.11730   2.11730   2.11730   2.13483   2.13483
 Alpha virt. eigenvalues --    2.13483   2.26507   2.26507   2.46193   2.52840
 Alpha virt. eigenvalues --    2.52840   2.54228   2.54228   2.54228   2.71666
 Alpha virt. eigenvalues --    2.71666   2.71666   2.88150   2.88150   2.88150
 Alpha virt. eigenvalues --    2.95643   2.98303   2.98303   2.98303   3.11286
 Alpha virt. eigenvalues --    3.11286   3.11286   3.19443   3.19443   3.19443
 Alpha virt. eigenvalues --    3.37897   3.75183   3.75183   3.75183   3.81600
 Alpha virt. eigenvalues --    3.81600   4.05104   4.05104   4.05104   5.18185
 Alpha virt. eigenvalues --    5.18185   5.30301   5.30301   5.30301   5.54613
 Alpha virt. eigenvalues --    5.59886   5.59886   5.59886   5.74554   5.77613
 Alpha virt. eigenvalues --    5.77613   5.77613   5.86701   5.86701   5.86701
 Alpha virt. eigenvalues --    5.99399   5.99399   5.99399   6.12546   6.23542
 Alpha virt. eigenvalues --    6.23542   6.23542   6.40626   6.43935   6.43935
 Alpha virt. eigenvalues --    6.43935   6.51820   6.51820   6.82971   7.06721
 Alpha virt. eigenvalues --    7.06721   7.06721   7.10688   7.10688   7.20283
 Alpha virt. eigenvalues --    7.20283   7.20283   7.39071   7.39071   7.39071
 Alpha virt. eigenvalues --    7.46208   7.46208   7.49538   7.49538   7.49538
 Alpha virt. eigenvalues --    7.61872   7.61872   7.61872   7.91766   7.98745
 Alpha virt. eigenvalues --    8.07995   8.07995   8.14324   8.14324   8.14324
 Alpha virt. eigenvalues --    8.15378   8.15378   8.15378   8.17187   8.17187
 Alpha virt. eigenvalues --    8.17187   8.55964   8.55964   8.55964   8.73501
 Alpha virt. eigenvalues --    8.73501   8.73501   9.16957   9.16957   9.43128
 Alpha virt. eigenvalues --    9.43128   9.43128   9.55573   9.55573   9.79730
 Alpha virt. eigenvalues --    9.79730   9.79730   9.88416  10.21023  10.21023
 Alpha virt. eigenvalues --   10.21023  11.33459  11.33459  11.33459  13.49558
 Alpha virt. eigenvalues --   29.11934 146.60056
          Condensed to atoms (all electrons):
               1          2          3          4          5
     1  H    0.506842   0.371537  -0.028472  -0.028472  -0.028472
     2  C    0.371537   5.342004   0.371537   0.371537   0.371537
     3  H   -0.028472   0.371537   0.506842  -0.028472  -0.028472
     4  H   -0.028472   0.371537  -0.028472   0.506842  -0.028472
     5  H   -0.028472   0.371537  -0.028472  -0.028472   0.506842
 Mulliken charges:
               1
     1  H    0.207038
     2  C   -0.828151
     3  H    0.207038
     4  H    0.207038
     5  H    0.207038
 Sum of Mulliken charges =  -0.00000
 Mulliken charges with hydrogens summed into heavy atoms:
               1
     2  C   -0.000000
 Electronic spatial extent (au):  <R**2>=             35.7266
 Charge=             -0.0000 electrons
 Dipole moment (field-independent basis, Debye):
    X=              0.0000    Y=              0.0000    Z=              0.0000  Tot=              0.0000
 Quadrupole moment (field-independent basis, Debye-Ang):
   XX=             -8.4382   YY=             -8.4382   ZZ=             -8.4382
   XY=              0.0000   XZ=              0.0000   YZ=              0.0000
 Traceless Quadrupole moment (field-independent basis, Debye-Ang):
   XX=             -0.0000   YY=              0.0000   ZZ=              0.0000
   XY=              0.0000   XZ=              0.0000   YZ=              0.0000
 Octapole moment (field-independent basis, Debye-Ang**2):
  XXX=              0.0000  YYY=              0.0000  ZZZ=              0.0000  XYY=              0.0000
  XXY=              0.0000  XXZ=              0.0000  XZZ=              0.0000  YZZ=              0.0000
  YYZ=              0.0000  XYZ=              0.7556
 Hexadecapole moment (field-independent basis, Debye-Ang**3):
 XXXX=            -17.0133 YYYY=            -17.0133 ZZZZ=            -17.0133 XXXY=             -0.0000
 XXXZ=             -0.0000 YYYX=             -0.0000 YYYZ=              0.0000 ZZZX=             -0.0000
 ZZZY=              0.0000 XXYY=             -5.1239 XXZZ=             -5.1239 YYZZ=             -5.1239
 XXYZ=              0.0000 YYXZ=              0.0000 ZZXY=              0.0000
 N-N= 1.346132391532D+01 E-N=-1.201604537268D+02  KE= 4.029086267637D+01
 PrsmSu:  requested number of processors reduced to:  21 ShMem   1 Linda.
 No NMR shielding tensors so no spin-rotation constants.
 Leave Link  601 at Sun Apr 18 04:58:57 2021, MaxMem=   104857600 cpu:             481.1 elap:              10.4
 (Enter /s/ls4/users/knvvv/bin/g16sse/l801.exe)
 DoSCS=F DFT=T ScalE2(SS,OS)=  1.000000  1.000000
 Range of M.O.s used for correlation:     1   177
 NBasis=   177 NAE=     5 NBE=     5 NFC=     0 NFV=     0
 NROrb=    177 NOA=     5 NOB=     5 NVA=   172 NVB=   172

 **** Warning!!: The largest alpha MO coefficient is  0.39711559D+02

 Leave Link  801 at Sun Apr 18 04:58:57 2021, MaxMem=   104857600 cpu:               4.3 elap:               0.1
 (Enter /s/ls4/users/knvvv/bin/g16sse/l914.exe)
 RHF ground state
 Doing stability rather than CIS.
 Two-electron integrals replicated using symmetry.
 MDV=   104857600 DFT=T DoStab=T Mixed=T DoRPA=F DoScal=F NonHer=F
 Making orbital integer symmetry assigments:
 Orbital symmetries:
       Occupied  (A1) (A1) (T2) (T2) (T2)
       Virtual   (A1) (T2) (T2) (T2) (T2) (T2) (T2) (T2) (T2) (T2)
                 (A1) (E) (E) (A1) (T2) (T2) (T2) (T1) (T1) (T1)
                 (T2) (T2) (T2) (T2) (T2) (T2) (A1) (T2) (T2) (T2)
                 (E) (E) (A1) (T2) (T2) (T2) (E) (E) (T1) (T1)
                 (T1) (T2) (T2) (T2) (A1) (T2) (T2) (T2) (T1) (T1)
                 (T1) (E) (E) (A1) (E) (E) (T2) (T2) (T2) (T2)
                 (T2) (T2) (T1) (T1) (T1) (A1) (T2) (T2) (T2) (T2)
                 (T2) (T2) (T1) (T1) (T1) (A1) (T2) (T2) (T2) (E)
                 (E) (T2) (T2) (T2) (E) (E) (T1) (T1) (T1) (A1)
                 (T2) (T2) (T2) (A2) (T2) (T2) (T2) (T1) (T1) (T1)
                 (T1) (T1) (T1) (A1) (T2) (T2) (T2) (A1) (T2) (T2)
                 (T2) (E) (E) (A1) (T1) (T1) (T1) (E) (E) (T2)
                 (T2) (T2) (T2) (T2) (T2) (E) (E) (T1) (T1) (T1)
                 (T2) (T2) (T2) (A1) (A1) (E) (E) (T1) (T1) (T1)
                 (T2) (T2) (T2) (T2) (T2) (T2) (T2) (T2) (T2) (T1)
                 (T1) (T1) (E) (E) (T2) (T2) (T2) (E) (E) (T2)
                 (T2) (T2) (A1) (T1) (T1) (T1) (T2) (T2) (T2) (A1)
                 (A1) (A1)
    24 initial guesses have been made.
 Convergence on wavefunction:    0.001000000000000
 Davidson Disk Diagonalization:  ConvIn= 1.00D-03 SkipCon=T Conv= 1.00D-03.
 Max sub-space:  2000 roots to seek:    24 dimension of matrix:         1720
 Iteration     1 Dimension    24 NMult     0 NNew     24
 Estimated number of processors is:   19
 CISAX will form     1 AO SS matrices at one time.
 NMat=     1 NSing=     1 JSym2X= 2.
 FoFJK:  IHMeth= 1 ICntrl=       0 DoSepK=F KAlg= 0 I1Cent=           0 FoldK=F
 IRaf= 990000000 NMat=       1 IRICut=       1 DoRegI=T DoRafI=F ISym2E= 2 IDoP0=0 IntGTp=1.
 FoFCou: FMM=F IPFlag=           0 FMFlag=      100000 FMFlg1=           0
         NFxFlg=           0 DoJE=F BraDBF=F KetDBF=F FulRan=T
         wScrn=  0.000000 ICntrl=         0 IOpCl=  0 I1Cent=           0 NGrid=           0
         NMat0=    1 NMatS0=      1 NMatT0=    0 NMatD0=    1 NMtDS0=    0 NMtDT0=    0
 Integrals replicated using symmetry in FoFCou.
 CoulSu:  requested number of processors reduced to:  18 ShMem   1 Linda.
 NMat=     1 NSing=     1 JSym2X= 2.
 CoulSu:  requested number of processors reduced to:  18 ShMem   1 Linda.
 NMat=     1 NSing=     1 JSym2X= 2.
 CoulSu:  requested number of processors reduced to:  18 ShMem   1 Linda.
 NMat=     1 NSing=     1 JSym2X= 2.
 CoulSu:  requested number of processors reduced to:  18 ShMem   1 Linda.
 NMat=     1 NSing=     1 JSym2X= 2.
 CoulSu:  requested number of processors reduced to:  18 ShMem   1 Linda.
 NMat=     1 NSing=     1 JSym2X= 2.
 CoulSu:  requested number of processors reduced to:  18 ShMem   1 Linda.
 NMat=     1 NSing=     1 JSym2X= 2.
 CoulSu:  requested number of processors reduced to:  18 ShMem   1 Linda.
 NMat=     1 NSing=     1 JSym2X= 2.
 CoulSu:  requested number of processors reduced to:  18 ShMem   1 Linda.
 NMat=     1 NSing=     1 JSym2X= 2.
 CoulSu:  requested number of processors reduced to:  18 ShMem   1 Linda.
 NMat=     1 NSing=     1 JSym2X= 2.
 CoulSu:  requested number of processors reduced to:  18 ShMem   1 Linda.
 NMat=     1 NSing=     1 JSym2X= 2.
 CoulSu:  requested number of processors reduced to:  18 ShMem   1 Linda.
 NMat=     1 NSing=     1 JSym2X= 2.
 CoulSu:  requested number of processors reduced to:  18 ShMem   1 Linda.
 NMat=     1 NSing=     0 JSym2X= 2.
 CoulSu:  requested number of processors reduced to:  18 ShMem   1 Linda.
 NMat=     1 NSing=     0 JSym2X= 2.
 CoulSu:  requested number of processors reduced to:  18 ShMem   1 Linda.
 NMat=     1 NSing=     0 JSym2X= 2.
 CoulSu:  requested number of processors reduced to:  18 ShMem   1 Linda.
 NMat=     1 NSing=     0 JSym2X= 2.
 CoulSu:  requested number of processors reduced to:  18 ShMem   1 Linda.
 NMat=     1 NSing=     0 JSym2X= 2.
 CoulSu:  requested number of processors reduced to:  18 ShMem   1 Linda.
 NMat=     1 NSing=     0 JSym2X= 2.
 CoulSu:  requested number of processors reduced to:  18 ShMem   1 Linda.
 NMat=     1 NSing=     0 JSym2X= 2.
 CoulSu:  requested number of processors reduced to:  18 ShMem   1 Linda.
 NMat=     1 NSing=     0 JSym2X= 2.
 CoulSu:  requested number of processors reduced to:  18 ShMem   1 Linda.
 NMat=     1 NSing=     0 JSym2X= 2.
 CoulSu:  requested number of processors reduced to:  18 ShMem   1 Linda.
 NMat=     1 NSing=     0 JSym2X= 2.
 CoulSu:  requested number of processors reduced to:  18 ShMem   1 Linda.
 NMat=     1 NSing=     0 JSym2X= 2.
 CoulSu:  requested number of processors reduced to:  18 ShMem   1 Linda.
 NMat=     1 NSing=     0 JSym2X= 2.
 CoulSu:  requested number of processors reduced to:  18 ShMem   1 Linda.
 New state      1 was old state      2
 Excitation Energies [eV] at current iteration:
 Root      1 :    10.899993181123580
 Root      2 :    10.899993181125180
 Root      3 :    10.899993181126730
 Root      4 :    11.087400608336250
 Root      5 :    11.087400608336670
 Root      6 :    11.087400608338340
 Root      7 :    12.544815319841080
 Root      8 :    12.716820740293300
 Root      9 :    12.716820740298740
 Root     10 :    12.716820740305730
 Root     11 :    12.793172731375340
 Root     12 :    12.793172731376560
 Root     13 :    12.868046452810020
 Root     14 :    12.868046452810880
 Root     15 :    12.868046452811080
 Root     16 :    12.883313592367260
 Root     17 :    12.883313592368340
 Root     18 :    12.883313592368540
 Root     19 :    12.897411646004080
 Root     20 :    12.897411646004540
 Root     21 :    13.106521825524710
 Root     22 :    13.106521825529450
 Root     23 :    13.106521825529980
 Root     24 :    16.878098178956590
 Iteration     2 Dimension    48 NMult    24 NNew     24
 Estimated number of processors is:   19
 CISAX will form     1 AO SS matrices at one time.
 NMat=     1 NSing=     1 JSym2X= 2.
 CoulSu:  requested number of processors reduced to:  18 ShMem   1 Linda.
 NMat=     1 NSing=     1 JSym2X= 2.
 CoulSu:  requested number of processors reduced to:  18 ShMem   1 Linda.
 NMat=     1 NSing=     1 JSym2X= 2.
 CoulSu:  requested number of processors reduced to:  18 ShMem   1 Linda.
 NMat=     1 NSing=     1 JSym2X= 2.
 CoulSu:  requested number of processors reduced to:  18 ShMem   1 Linda.
 NMat=     1 NSing=     1 JSym2X= 2.
 CoulSu:  requested number of processors reduced to:  18 ShMem   1 Linda.
 NMat=     1 NSing=     1 JSym2X= 2.
 CoulSu:  requested number of processors reduced to:  18 ShMem   1 Linda.
 NMat=     1 NSing=     1 JSym2X= 2.
 CoulSu:  requested number of processors reduced to:  18 ShMem   1 Linda.
 NMat=     1 NSing=     1 JSym2X= 2.
 CoulSu:  requested number of processors reduced to:  18 ShMem   1 Linda.
 NMat=     1 NSing=     1 JSym2X= 2.
 CoulSu:  requested number of processors reduced to:  18 ShMem   1 Linda.
 NMat=     1 NSing=     1 JSym2X= 2.
 CoulSu:  requested number of processors reduced to:  18 ShMem   1 Linda.
 NMat=     1 NSing=     1 JSym2X= 2.
 CoulSu:  requested number of processors reduced to:  18 ShMem   1 Linda.
 NMat=     1 NSing=     1 JSym2X= 2.
 CoulSu:  requested number of processors reduced to:  18 ShMem   1 Linda.
 NMat=     1 NSing=     0 JSym2X= 2.
 CoulSu:  requested number of processors reduced to:  18 ShMem   1 Linda.
 NMat=     1 NSing=     0 JSym2X= 2.
 CoulSu:  requested number of processors reduced to:  18 ShMem   1 Linda.
 NMat=     1 NSing=     0 JSym2X= 2.
 CoulSu:  requested number of processors reduced to:  18 ShMem   1 Linda.
 NMat=     1 NSing=     0 JSym2X= 2.
 CoulSu:  requested number of processors reduced to:  18 ShMem   1 Linda.
 NMat=     1 NSing=     0 JSym2X= 2.
 CoulSu:  requested number of processors reduced to:  18 ShMem   1 Linda.
 NMat=     1 NSing=     0 JSym2X= 2.
 CoulSu:  requested number of processors reduced to:  18 ShMem   1 Linda.
 NMat=     1 NSing=     0 JSym2X= 2.
 CoulSu:  requested number of processors reduced to:  18 ShMem   1 Linda.
 NMat=     1 NSing=     0 JSym2X= 2.
 CoulSu:  requested number of processors reduced to:  18 ShMem   1 Linda.
 NMat=     1 NSing=     0 JSym2X= 2.
 CoulSu:  requested number of processors reduced to:  18 ShMem   1 Linda.
 NMat=     1 NSing=     0 JSym2X= 2.
 CoulSu:  requested number of processors reduced to:  18 ShMem   1 Linda.
 NMat=     1 NSing=     0 JSym2X= 2.
 CoulSu:  requested number of processors reduced to:  18 ShMem   1 Linda.
 NMat=     1 NSing=     0 JSym2X= 2.
 CoulSu:  requested number of processors reduced to:  18 ShMem   1 Linda.
 New state      1 was old state      2
 Root      1 not converged, maximum delta is    0.217336053014752
 Excitation Energies [eV] at current iteration:
 Root      1 :    10.408519678360510   Change is   -0.491473502764672
 Root      2 :    10.408519746750000   Change is   -0.491473434376730
 Root      3 :    10.408519880609100   Change is   -0.491473300514477
 Root      4 :    10.912950848550450   Change is   -1.631864471290626
 Root      5 :    10.975072881882260   Change is   -0.112327726456082
 Root      6 :    10.975072948544140   Change is   -0.112327659792112
 Root      7 :    10.975073035077500   Change is   -0.112327573259173
 Root      8 :    12.111275732222030   Change is   -0.605545008076709
 Root      9 :    12.111276112912470   Change is   -0.605544627393256
 Root     10 :    12.111276620731890   Change is   -0.605544119561408
 Root     11 :    12.500950355119540   Change is   -0.292222376255802
 Root     12 :    12.500950416743050   Change is   -0.292222314633508
 Root     13 :    12.614398535006240   Change is   -0.268915057361021
 Root     14 :    12.614398551060250   Change is   -0.268915041308284
 Root     15 :    12.614398599542690   Change is   -0.268914992825651
 Root     16 :    12.700609952110900   Change is   -0.167436500699981
 Root     17 :    12.700610025260590   Change is   -0.167436427549425
 Root     18 :    12.700610200622710   Change is   -0.167436252188372
 Root     19 :    12.764795073472940   Change is   -0.132616572531145
 Root     20 :    12.764795088576100   Change is   -0.132616557428444
 Root     21 :    12.784533344970270   Change is   -0.321988480554434
 Root     22 :    12.784533437514600   Change is   -0.321988388015388
 Root     23 :    12.784533440366000   Change is   -0.321988385163454
 Root     24 :    13.949964565202980   Change is   -2.928133613753610
 Iteration     3 Dimension    54 NMult    48 NNew      6
 Estimated number of processors is:   19
 CISAX will form     1 AO SS matrices at one time.
 NMat=     1 NSing=     1 JSym2X= 2.
 CoulSu:  requested number of processors reduced to:  18 ShMem   1 Linda.
 NMat=     1 NSing=     1 JSym2X= 2.
 CoulSu:  requested number of processors reduced to:  18 ShMem   1 Linda.
 NMat=     1 NSing=     1 JSym2X= 2.
 CoulSu:  requested number of processors reduced to:  18 ShMem   1 Linda.
 NMat=     1 NSing=     0 JSym2X= 2.
 CoulSu:  requested number of processors reduced to:  18 ShMem   1 Linda.
 NMat=     1 NSing=     0 JSym2X= 2.
 CoulSu:  requested number of processors reduced to:  18 ShMem   1 Linda.
 NMat=     1 NSing=     0 JSym2X= 2.
 CoulSu:  requested number of processors reduced to:  18 ShMem   1 Linda.
 Root      1 not converged, maximum delta is    0.364377982963109
 Excitation Energies [eV] at current iteration:
 Root      1 :    10.380509259636210   Change is   -0.028010418724295
 Root      2 :    10.380509346851770   Change is   -0.028010399898232
 Root      3 :    10.380509448645460   Change is   -0.028010431963646
 Root      4 :    10.967412722065650   Change is   -0.007660226478496
 Root      5 :    10.967412802253960   Change is   -0.007660232823541
 Root      6 :    10.967432663640150   Change is   -0.007640218242103
 Iteration     4 Dimension    60 NMult    54 NNew      6
 Estimated number of processors is:   19
 CISAX will form     1 AO SS matrices at one time.
 NMat=     1 NSing=     1 JSym2X= 2.
 CoulSu:  requested number of processors reduced to:  18 ShMem   1 Linda.
 NMat=     1 NSing=     1 JSym2X= 2.
 CoulSu:  requested number of processors reduced to:  18 ShMem   1 Linda.
 NMat=     1 NSing=     1 JSym2X= 2.
 CoulSu:  requested number of processors reduced to:  18 ShMem   1 Linda.
 NMat=     1 NSing=     0 JSym2X= 2.
 CoulSu:  requested number of processors reduced to:  18 ShMem   1 Linda.
 NMat=     1 NSing=     0 JSym2X= 2.
 CoulSu:  requested number of processors reduced to:  18 ShMem   1 Linda.
 NMat=     1 NSing=     0 JSym2X= 2.
 CoulSu:  requested number of processors reduced to:  18 ShMem   1 Linda.
 Root      1 not converged, maximum delta is    0.383198092513814
 Excitation Energies [eV] at current iteration:
 Root      1 :    10.378418094763020   Change is   -0.002091164873196
 Root      2 :    10.378418175432790   Change is   -0.002091273212663
 Root      3 :    10.378418201212040   Change is   -0.002091145639731
 Root      4 :    10.967036439866400   Change is   -0.000376282199242
 Root      5 :    10.967036473813010   Change is   -0.000376328440955
 Root      6 :    10.967037680676350   Change is   -0.000394982963803
 Iteration     5 Dimension    66 NMult    60 NNew      6
 Estimated number of processors is:   19
 CISAX will form     1 AO SS matrices at one time.
 NMat=     1 NSing=     1 JSym2X= 2.
 CoulSu:  requested number of processors reduced to:  18 ShMem   1 Linda.
 NMat=     1 NSing=     1 JSym2X= 2.
 CoulSu:  requested number of processors reduced to:  18 ShMem   1 Linda.
 NMat=     1 NSing=     1 JSym2X= 2.
 CoulSu:  requested number of processors reduced to:  18 ShMem   1 Linda.
 NMat=     1 NSing=     0 JSym2X= 2.
 CoulSu:  requested number of processors reduced to:  18 ShMem   1 Linda.
 NMat=     1 NSing=     0 JSym2X= 2.
 CoulSu:  requested number of processors reduced to:  18 ShMem   1 Linda.
 NMat=     1 NSing=     0 JSym2X= 2.
 CoulSu:  requested number of processors reduced to:  18 ShMem   1 Linda.
 New state      1 was old state      3
 Root      1 not converged, maximum delta is    0.495118001925761
 Excitation Energies [eV] at current iteration:
 Root      1 :    10.378115160345750   Change is   -0.000303040866289
 Root      2 :    10.378115211875240   Change is   -0.000302963557552
 Root      3 :    10.378115226273820   Change is   -0.000302868489195
 Root      4 :    10.967024183653090   Change is   -0.000012256213312
 Root      5 :    10.967024192188650   Change is   -0.000012281624351
 Root      6 :    10.967024232480360   Change is   -0.000013448195986
 Iteration     6 Dimension    72 NMult    66 NNew      6
 Estimated number of processors is:   19
 CISAX will form     1 AO SS matrices at one time.
 NMat=     1 NSing=     1 JSym2X= 2.
 CoulSu:  requested number of processors reduced to:  18 ShMem   1 Linda.
 NMat=     1 NSing=     1 JSym2X= 2.
 CoulSu:  requested number of processors reduced to:  18 ShMem   1 Linda.
 NMat=     1 NSing=     1 JSym2X= 2.
 CoulSu:  requested number of processors reduced to:  18 ShMem   1 Linda.
 NMat=     1 NSing=     0 JSym2X= 2.
 CoulSu:  requested number of processors reduced to:  18 ShMem   1 Linda.
 NMat=     1 NSing=     0 JSym2X= 2.
 CoulSu:  requested number of processors reduced to:  18 ShMem   1 Linda.
 NMat=     1 NSing=     0 JSym2X= 2.
 CoulSu:  requested number of processors reduced to:  18 ShMem   1 Linda.
 Root      1 not converged, maximum delta is    0.331458326994288
 Excitation Energies [eV] at current iteration:
 Root      1 :    10.378090615311980   Change is   -0.000024545033769
 Root      2 :    10.378090628077130   Change is   -0.000024598196697
 Root      3 :    10.378090639639310   Change is   -0.000024572235932
 Root      4 :    10.967023955723970   Change is   -0.000000227929126
 Root      5 :    10.967023960451440   Change is   -0.000000231737210
 Root      6 :    10.967023963078950   Change is   -0.000000269401411
 Iteration     7 Dimension    78 NMult    72 NNew      6
 Estimated number of processors is:   19
 CISAX will form     1 AO SS matrices at one time.
 NMat=     1 NSing=     1 JSym2X= 2.
 CoulSu:  requested number of processors reduced to:  18 ShMem   1 Linda.
 NMat=     1 NSing=     1 JSym2X= 2.
 CoulSu:  requested number of processors reduced to:  18 ShMem   1 Linda.
 NMat=     1 NSing=     1 JSym2X= 2.
 CoulSu:  requested number of processors reduced to:  18 ShMem   1 Linda.
 NMat=     1 NSing=     0 JSym2X= 2.
 CoulSu:  requested number of processors reduced to:  18 ShMem   1 Linda.
 NMat=     1 NSing=     0 JSym2X= 2.
 CoulSu:  requested number of processors reduced to:  18 ShMem   1 Linda.
 NMat=     1 NSing=     0 JSym2X= 2.
 CoulSu:  requested number of processors reduced to:  18 ShMem   1 Linda.
 Root      1 not converged, maximum delta is    0.186691251518314
 Excitation Energies [eV] at current iteration:
 Root      1 :    10.378089853542380   Change is   -0.000000761769600
 Root      2 :    10.378089859155650   Change is   -0.000000780483661
 Root      3 :    10.378089864474310   Change is   -0.000000763602817
 Root      4 :    10.967023937837790   Change is   -0.000000017886178
 Root      5 :    10.967023952035060   Change is   -0.000000008416383
 Root      6 :    10.967023956120930   Change is   -0.000000006958018
 Iteration     8 Dimension    83 NMult    78 NNew      5
 Estimated number of processors is:   19
 CISAX will form     1 AO SS matrices at one time.
 NMat=     1 NSing=     1 JSym2X= 2.
 CoulSu:  requested number of processors reduced to:  18 ShMem   1 Linda.
 NMat=     1 NSing=     1 JSym2X= 2.
 CoulSu:  requested number of processors reduced to:  18 ShMem   1 Linda.
 NMat=     1 NSing=     0 JSym2X= 2.
 CoulSu:  requested number of processors reduced to:  18 ShMem   1 Linda.
 NMat=     1 NSing=     0 JSym2X= 2.
 CoulSu:  requested number of processors reduced to:  18 ShMem   1 Linda.
 NMat=     1 NSing=     0 JSym2X= 2.
 CoulSu:  requested number of processors reduced to:  18 ShMem   1 Linda.
 Root      1 not converged, maximum delta is    0.188633991325641
 Excitation Energies [eV] at current iteration:
 Root      1 :    10.378089832752910   Change is   -0.000000020789470
 Root      2 :    10.378089838504550   Change is   -0.000000020651095
 Root      3 :    10.378089840306160   Change is   -0.000000024168147
 Root      4 :    10.967023934233010   Change is   -0.000000003604781
 Root      5 :    10.967023937018100   Change is   -0.000000015016963
 Root      6 :    10.967023955366150   Change is   -0.000000000754789
 Iteration     9 Dimension    88 NMult    83 NNew      5
 Estimated number of processors is:   19
 CISAX will form     1 AO SS matrices at one time.
 NMat=     1 NSing=     1 JSym2X= 2.
 CoulSu:  requested number of processors reduced to:  18 ShMem   1 Linda.
 NMat=     1 NSing=     1 JSym2X= 2.
 CoulSu:  requested number of processors reduced to:  18 ShMem   1 Linda.
 NMat=     1 NSing=     0 JSym2X= 2.
 CoulSu:  requested number of processors reduced to:  18 ShMem   1 Linda.
 NMat=     1 NSing=     0 JSym2X= 2.
 CoulSu:  requested number of processors reduced to:  18 ShMem   1 Linda.
 NMat=     1 NSing=     0 JSym2X= 2.
 CoulSu:  requested number of processors reduced to:  18 ShMem   1 Linda.
 Root      1 not converged, maximum delta is    0.047403664837970
 Excitation Energies [eV] at current iteration:
 Root      1 :    10.378089830125480   Change is   -0.000000002627430
 Root      2 :    10.378089835313150   Change is   -0.000000003191400
 Root      3 :    10.378089835683720   Change is   -0.000000004622440
 Root      4 :    10.967023933237910   Change is   -0.000000000995103
 Root      5 :    10.967023936033430   Change is   -0.000000000984667
 Root      6 :    10.967023943080430   Change is   -0.000000012285714
 Iteration    10 Dimension    93 NMult    88 NNew      5
 Estimated number of processors is:   19
 CISAX will form     1 AO SS matrices at one time.
 NMat=     1 NSing=     1 JSym2X= 2.
 CoulSu:  requested number of processors reduced to:  18 ShMem   1 Linda.
 NMat=     1 NSing=     1 JSym2X= 2.
 CoulSu:  requested number of processors reduced to:  18 ShMem   1 Linda.
 NMat=     1 NSing=     0 JSym2X= 2.
 CoulSu:  requested number of processors reduced to:  18 ShMem   1 Linda.
 NMat=     1 NSing=     0 JSym2X= 2.
 CoulSu:  requested number of processors reduced to:  18 ShMem   1 Linda.
 NMat=     1 NSing=     0 JSym2X= 2.
 CoulSu:  requested number of processors reduced to:  18 ShMem   1 Linda.
 Root      1 not converged, maximum delta is    0.029284555238507
 Excitation Energies [eV] at current iteration:
 Root      1 :    10.378089829048800   Change is   -0.000000001076687
 Root      2 :    10.378089833018770   Change is   -0.000000002664948
 Root      3 :    10.378089833737150   Change is   -0.000000001575999
 Root      4 :    10.967023932373080   Change is   -0.000000000864827
 Root      5 :    10.967023935347280   Change is   -0.000000000686150
 Root      6 :    10.967023942915630   Change is   -0.000000000164804
 Iteration    11 Dimension    95 NMult    93 NNew      2
 Estimated number of processors is:   19
 CISAX will form     1 AO SS matrices at one time.
 NMat=     1 NSing=     0 JSym2X= 2.
 CoulSu:  requested number of processors reduced to:  18 ShMem   1 Linda.
 NMat=     1 NSing=     0 JSym2X= 2.
 CoulSu:  requested number of processors reduced to:  18 ShMem   1 Linda.
 Root      1 not converged, maximum delta is    0.011403834645750
 Excitation Energies [eV] at current iteration:
 Root      1 :    10.378089829023750   Change is   -0.000000000025048
 Root      2 :    10.378089832562050   Change is   -0.000000000456727
 Root      3 :    10.378089833448550   Change is   -0.000000000288606
 Root      4 :    10.967023932373080   Change is    0.000000000000005
 Root      5 :    10.967023935347290   Change is    0.000000000000003
 Root      6 :    10.967023942915640   Change is    0.000000000000008
 Convergence achieved on expansion vectors.
 ***********************************************************************
 Stability analysis using <AA,BB:AA,BB> singles matrix:
 ***********************************************************************
 1PDM for each excited state written to RWF  633
 Ground to excited state transition densities written to RWF  633

 Eigenvectors of the stability matrix:
 
 Eigenvector   1:      Triplet-T2   Eigenvalue= 0.3813878  <S**2>=2.000
       3 ->  6         0.59049
       3 -> 16        -0.11895
       4 ->  6         0.30030
       5 ->  6         0.10086
 
 Eigenvector   2:      Triplet-T2   Eigenvalue= 0.3813878  <S**2>=2.000
       3 ->  6        -0.19656
       4 ->  6         0.51463
       4 -> 16        -0.10367
       5 ->  6        -0.38151
 
 Eigenvector   3:      Triplet-T2   Eigenvalue= 0.3813878  <S**2>=2.000
       3 ->  6        -0.24843
       4 ->  6         0.30660
       5 ->  6         0.54158
       5 -> 16        -0.10909
 
 Eigenvector   4:      Singlet-T2   Eigenvalue= 0.4030307  <S**2>=0.000
       3 ->  6         0.55301
       4 ->  6         0.19965
       5 ->  6         0.38337
 
 Eigenvector   5:      Singlet-T2   Eigenvalue= 0.4030307  <S**2>=0.000
       3 ->  6        -0.28948
       4 ->  6        -0.29123
       5 ->  6         0.56924
 
 Eigenvector   6:      Singlet-T2   Eigenvalue= 0.4030307  <S**2>=0.000
       3 ->  6        -0.32099
       4 ->  6         0.60661
       5 ->  6         0.14712
 The wavefunction is stable under the perturbations considered.
 Leave Link  914 at Sun Apr 18 05:02:39 2021, MaxMem=   104857600 cpu:            8832.6 elap:             222.6
 (Enter /s/ls4/users/knvvv/bin/g16sse/l508.exe)
 The wavefunction is already stable.
 Leave Link  508 at Sun Apr 18 05:02:39 2021, MaxMem=   104857600 cpu:               2.2 elap:               0.1
 (Enter /s/ls4/users/knvvv/bin/g16sse/l601.exe)
 Copying SCF densities to generalized density rwf, IOpCl= 0 IROHF=0.

 **********************************************************************

            Population analysis using the SCF density.

 **********************************************************************

 Orbital symmetries:
       Occupied  (A1) (A1) (T2) (T2) (T2)
       Virtual   (A1) (T2) (T2) (T2) (T2) (T2) (T2) (T2) (T2) (T2)
                 (A1) (E) (E) (A1) (T2) (T2) (T2) (T1) (T1) (T1)
                 (T2) (T2) (T2) (T2) (T2) (T2) (A1) (T2) (T2) (T2)
                 (E) (E) (A1) (T2) (T2) (T2) (E) (E) (T1) (T1)
                 (T1) (T2) (T2) (T2) (A1) (T2) (T2) (T2) (T1) (T1)
                 (T1) (E) (E) (A1) (E) (E) (T2) (T2) (T2) (T2)
                 (T2) (T2) (T1) (T1) (T1) (A1) (T2) (T2) (T2) (T2)
                 (T2) (T2) (T1) (T1) (T1) (A1) (T2) (T2) (T2) (E)
                 (E) (T2) (T2) (T2) (E) (E) (T1) (T1) (T1) (A1)
                 (T2) (T2) (T2) (A2) (T2) (T2) (T2) (T1) (T1) (T1)
                 (T1) (T1) (T1) (A1) (T2) (T2) (T2) (A1) (T2) (T2)
                 (T2) (E) (E) (A1) (T1) (T1) (T1) (E) (E) (T2)
                 (T2) (T2) (T2) (T2) (T2) (E) (E) (T1) (T1) (T1)
                 (T2) (T2) (T2) (A1) (A1) (E) (E) (T1) (T1) (T1)
                 (T2) (T2) (T2) (T2) (T2) (T2) (T2) (T2) (T2) (T1)
                 (T1) (T1) (E) (E) (T2) (T2) (T2) (E) (E) (T2)
                 (T2) (T2) (A1) (T1) (T1) (T1) (T2) (T2) (T2) (A1)
                 (A1) (A1)
 The electronic state is 1-A1.
 Alpha  occ. eigenvalues --  -10.51812  -0.78669  -0.45679  -0.45679  -0.45679
 Alpha virt. eigenvalues --    0.05085   0.12218   0.12218   0.12218   0.15123
 Alpha virt. eigenvalues --    0.15123   0.15123   0.36439   0.36439   0.36439
 Alpha virt. eigenvalues --    0.37644   0.42573   0.42573   0.46249   0.66692
 Alpha virt. eigenvalues --    0.66692   0.66692   0.71343   0.71343   0.71343
 Alpha virt. eigenvalues --    0.76013   0.76013   0.76013   0.95889   0.95889
 Alpha virt. eigenvalues --    0.95889   1.01625   1.07573   1.07573   1.07573
 Alpha virt. eigenvalues --    1.09444   1.09444   1.17385   1.45284   1.45284
 Alpha virt. eigenvalues --    1.45284   1.71027   1.71027   1.84123   1.84123
 Alpha virt. eigenvalues --    1.84123   1.89004   1.89004   1.89004   2.01667
 Alpha virt. eigenvalues --    2.11730   2.11730   2.11730   2.13483   2.13483
 Alpha virt. eigenvalues --    2.13483   2.26507   2.26507   2.46193   2.52840
 Alpha virt. eigenvalues --    2.52840   2.54228   2.54228   2.54228   2.71666
 Alpha virt. eigenvalues --    2.71666   2.71666   2.88150   2.88150   2.88150
 Alpha virt. eigenvalues --    2.95643   2.98303   2.98303   2.98303   3.11286
 Alpha virt. eigenvalues --    3.11286   3.11286   3.19443   3.19443   3.19443
 Alpha virt. eigenvalues --    3.37897   3.75183   3.75183   3.75183   3.81600
 Alpha virt. eigenvalues --    3.81600   4.05104   4.05104   4.05104   5.18185
 Alpha virt. eigenvalues --    5.18185   5.30301   5.30301   5.30301   5.54613
 Alpha virt. eigenvalues --    5.59886   5.59886   5.59886   5.74554   5.77613
 Alpha virt. eigenvalues --    5.77613   5.77613   5.86701   5.86701   5.86701
 Alpha virt. eigenvalues --    5.99399   5.99399   5.99399   6.12546   6.23542
 Alpha virt. eigenvalues --    6.23542   6.23542   6.40626   6.43935   6.43935
 Alpha virt. eigenvalues --    6.43935   6.51820   6.51820   6.82971   7.06721
 Alpha virt. eigenvalues --    7.06721   7.06721   7.10688   7.10688   7.20283
 Alpha virt. eigenvalues --    7.20283   7.20283   7.39071   7.39071   7.39071
 Alpha virt. eigenvalues --    7.46208   7.46208   7.49538   7.49538   7.49538
 Alpha virt. eigenvalues --    7.61872   7.61872   7.61872   7.91766   7.98745
 Alpha virt. eigenvalues --    8.07995   8.07995   8.14324   8.14324   8.14324
 Alpha virt. eigenvalues --    8.15378   8.15378   8.15378   8.17187   8.17187
 Alpha virt. eigenvalues --    8.17187   8.55964   8.55964   8.55964   8.73501
 Alpha virt. eigenvalues --    8.73501   8.73501   9.16957   9.16957   9.43128
 Alpha virt. eigenvalues --    9.43128   9.43128   9.55573   9.55573   9.79730
 Alpha virt. eigenvalues --    9.79730   9.79730   9.88416  10.21023  10.21023
 Alpha virt. eigenvalues --   10.21023  11.33459  11.33459  11.33459  13.49558
 Alpha virt. eigenvalues --   29.11934 146.60056
          Condensed to atoms (all electrons):
               1          2          3          4          5
     1  H    0.506842   0.371537  -0.028472  -0.028472  -0.028472
     2  C    0.371537   5.342004   0.371537   0.371537   0.371537
     3  H   -0.028472   0.371537   0.506842  -0.028472  -0.028472
     4  H   -0.028472   0.371537  -0.028472   0.506842  -0.028472
     5  H   -0.028472   0.371537  -0.028472  -0.028472   0.506842
 Mulliken charges:
               1
     1  H    0.207038
     2  C   -0.828151
     3  H    0.207038
     4  H    0.207038
     5  H    0.207038
 Sum of Mulliken charges =  -0.00000
 Mulliken charges with hydrogens summed into heavy atoms:
               1
     2  C   -0.000000
 Electronic spatial extent (au):  <R**2>=             35.7266
 Charge=             -0.0000 electrons
 Dipole moment (field-independent basis, Debye):
    X=              0.0000    Y=              0.0000    Z=              0.0000  Tot=              0.0000
 Quadrupole moment (field-independent basis, Debye-Ang):
   XX=             -8.4382   YY=             -8.4382   ZZ=             -8.4382
   XY=              0.0000   XZ=              0.0000   YZ=              0.0000
 Traceless Quadrupole moment (field-independent basis, Debye-Ang):
   XX=             -0.0000   YY=              0.0000   ZZ=              0.0000
   XY=              0.0000   XZ=              0.0000   YZ=              0.0000
 Octapole moment (field-independent basis, Debye-Ang**2):
  XXX=              0.0000  YYY=              0.0000  ZZZ=              0.0000  XYY=              0.0000
  XXY=              0.0000  XXZ=              0.0000  XZZ=              0.0000  YZZ=              0.0000
  YYZ=              0.0000  XYZ=              0.7556
 Hexadecapole moment (field-independent basis, Debye-Ang**3):
 XXXX=            -17.0133 YYYY=            -17.0133 ZZZZ=            -17.0133 XXXY=             -0.0000
 XXXZ=             -0.0000 YYYX=             -0.0000 YYYZ=              0.0000 ZZZX=             -0.0000
 ZZZY=              0.0000 XXYY=             -5.1239 XXZZ=             -5.1239 YYZZ=             -5.1239
 XXYZ=              0.0000 YYXZ=              0.0000 ZZXY=              0.0000
 N-N= 1.346132391532D+01 E-N=-1.201604537268D+02  KE= 4.029086267637D+01
 PrsmSu:  requested number of processors reduced to:  21 ShMem   1 Linda.
 No NMR shielding tensors so no spin-rotation constants.
 Leave Link  601 at Sun Apr 18 05:02:50 2021, MaxMem=   104857600 cpu:             493.6 elap:              10.6
 (Enter /s/ls4/users/knvvv/bin/g16sse/l9999.exe)

 Test job not archived.
 1\1\GINC-N178\Stability\RM062X\def2QZVP\C1H4\KNVVV\18-Apr-2021\0\\#P M
 062X/Def2QZVP Integral=UltraFineGrid SCF=NoSymm Stable=(RExt, Opt) IOp
 (1/33=1)\\Database calculations.\\0,1\H,0,0.,0.,0.\C,0,0.,0.,1.0879\H,
 0,1.0256819563,0.,1.4505333333\H,0,-0.5128409782,0.8882666304,1.450533
 3333\H,0,-0.5128409782,-0.8882666304,1.4505333333\\Version=ES64L-G16Re
 vA.03\State=1-A1\HF=-40.5063808\RMSD=3.282e-09\Dipole=0.,0.,0.\Quadrup
 ole=0.,0.,0.,0.,0.,0.\PG=TD [O(C1),4C3(H1)]\\@


 IT IS A PROFOUNDLY ERRONEOUS TRUISM ... THAT WE SHOULD CULTIVATE
 THE HABIT OF THINKING OF WHAT WE ARE DOING.
 THE PRECISE OPPOSITE IS THE CASE.
 CIVILIZATION ADVANCES BY EXTENDING THE NUMBER OF IMPORTANT OPERATIONS
 WHICH WE CAN PERFORM WITHOUT THINKING ABOUT THEM.

                                    -- ALFRED NORTH WHITEHEAD
 Job cpu time:       0 days  9 hours  5 minutes 46.8 seconds.
 Elapsed time:       0 days  0 hours 12 minutes 14.4 seconds.
 File lengths (MBytes):  RWF=     74 Int=      0 D2E=      0 Chk=      7 Scr=      1
 Normal termination of Gaussian 16 at Sun Apr 18 05:02:50 2021.
