 Entering Gaussian System, Link 0=/s/ls4/users/knvvv/bin/g16sse/g16
 Input=data/database/M062X--def2-TZVP--05_V_MR-TMD-BE3.gjf
 Output=data/database/M062X--def2-TZVP--05_V_MR-TMD-BE3.log
 Initial command:
 /s/ls4/users/knvvv/bin/g16sse/l1.exe "/s/ls4/users/knvvv/bin/scratch/Gau-37827.inp" -scrdir="/s/ls4/users/knvvv/bin/scratch/"
 Entering Link 1 = /s/ls4/users/knvvv/bin/g16sse/l1.exe PID=     37828.
  
 Copyright (c) 1988,1990,1992,1993,1995,1998,2003,2009,2016,
            Gaussian, Inc.  All Rights Reserved.
  
 This is part of the Gaussian(R) 16 program.  It is based on
 the Gaussian(R) 09 system (copyright 2009, Gaussian, Inc.),
 the Gaussian(R) 03 system (copyright 2003, Gaussian, Inc.),
 the Gaussian(R) 98 system (copyright 1998, Gaussian, Inc.),
 the Gaussian(R) 94 system (copyright 1995, Gaussian, Inc.),
 the Gaussian 92(TM) system (copyright 1992, Gaussian, Inc.),
 the Gaussian 90(TM) system (copyright 1990, Gaussian, Inc.),
 the Gaussian 88(TM) system (copyright 1988, Gaussian, Inc.),
 the Gaussian 86(TM) system (copyright 1986, Carnegie Mellon
 University), and the Gaussian 82(TM) system (copyright 1983,
 Carnegie Mellon University). Gaussian is a federally registered
 trademark of Gaussian, Inc.
  
 This software contains proprietary and confidential information,
 including trade secrets, belonging to Gaussian, Inc.
  
 This software is provided under written license and may be
 used, copied, transmitted, or stored only in accord with that
 written license.
  
 The following legend is applicable only to US Government
 contracts under FAR:
  
                    RESTRICTED RIGHTS LEGEND
  
 Use, reproduction and disclosure by the US Government is
 subject to restrictions as set forth in subparagraphs (a)
 and (c) of the Commercial Computer Software - Restricted
 Rights clause in FAR 52.227-19.
  
 Gaussian, Inc.
 340 Quinnipiac St., Bldg. 40, Wallingford CT 06492
  
  
 ---------------------------------------------------------------
 Warning -- This program may not be used in any manner that
 competes with the business of Gaussian, Inc. or will provide
 assistance to any competitor of Gaussian, Inc.  The licensee
 of this program is prohibited from giving any competitor of
 Gaussian, Inc. access to this program.  By using this program,
 the user acknowledges that Gaussian, Inc. is engaged in the
 business of creating and licensing software in the field of
 computational chemistry and represents and warrants to the
 licensee that it is not a competitor of Gaussian, Inc. and that
 it will not use this program in any manner prohibited above.
 ---------------------------------------------------------------
  

 Cite this work as:
 Gaussian 16, Revision A.03,
 M. J. Frisch, G. W. Trucks, H. B. Schlegel, G. E. Scuseria, 
 M. A. Robb, J. R. Cheeseman, G. Scalmani, V. Barone, 
 G. A. Petersson, H. Nakatsuji, X. Li, M. Caricato, A. V. Marenich, 
 J. Bloino, B. G. Janesko, R. Gomperts, B. Mennucci, H. P. Hratchian, 
 J. V. Ortiz, A. F. Izmaylov, J. L. Sonnenberg, D. Williams-Young, 
 F. Ding, F. Lipparini, F. Egidi, J. Goings, B. Peng, A. Petrone, 
 T. Henderson, D. Ranasinghe, V. G. Zakrzewski, J. Gao, N. Rega, 
 G. Zheng, W. Liang, M. Hada, M. Ehara, K. Toyota, R. Fukuda, 
 J. Hasegawa, M. Ishida, T. Nakajima, Y. Honda, O. Kitao, H. Nakai, 
 T. Vreven, K. Throssell, J. A. Montgomery, Jr., J. E. Peralta, 
 F. Ogliaro, M. J. Bearpark, J. J. Heyd, E. N. Brothers, K. N. Kudin, 
 V. N. Staroverov, T. A. Keith, R. Kobayashi, J. Normand, 
 K. Raghavachari, A. P. Rendell, J. C. Burant, S. S. Iyengar, 
 J. Tomasi, M. Cossi, J. M. Millam, M. Klene, C. Adamo, R. Cammi, 
 J. W. Ochterski, R. L. Martin, K. Morokuma, O. Farkas, 
 J. B. Foresman, and D. J. Fox, Gaussian, Inc., Wallingford CT, 2016.
 
 ******************************************
 Gaussian 16:  ES64L-G16RevA.03 25-Dec-2016
                18-Apr-2021 
 ******************************************
 %RWF=temp12_80749,70GB
 %nprocshared=48
 Will use up to   48 processors via shared memory.
 Default route: MaxDisk=80GB
 ----------------------------------------------------------------------
 #P M062X/Def2TZVP Integral=UltraFineGrid SCF=NoSymm Stable=(RExt, Opt)
  IOp(1/33=1)
 ----------------------------------------------------------------------
 1/33=1,38=1,172=1/1;
 2/12=2,17=6,18=5,40=1/2;
 3/5=44,7=101,11=2,25=1,30=1,74=-55,75=-5/1,2,3;
 4/9=2/1;
 5/5=2,38=5/2;
 6/7=2,8=2,9=2,10=2,28=1/1;
 8/6=1,10=90,11=11/1;
 9/8=-3,42=1,46=1/14;
 5/5=2,8=3,17=40,38=5/8(-2);
 6/7=2,8=2,9=2,10=2,28=1/1;
 99/5=1,9=1/99;
 Leave Link    1 at Sun Apr 18 07:46:45 2021, MaxMem=           0 cpu:               8.0 elap:               0.2
 (Enter /s/ls4/users/knvvv/bin/g16sse/l101.exe)
 ONIOM data not found on unit 2.
 ----------------------
 Database calculations.
 ----------------------
 TstMul:  ICh=     0
 TstMul:  Mul=     4
 TstMul:  ICh=     0
 TstMul:  Mul=     4
 Symbolic Z-matrix:
 Charge =  0 Multiplicity = 4
 V                     0.        0.        0. 
 
 RdStrC is calling ZToCFu for IStruc=1 NZ=     1.
 PrtBox:  NBox=     1 Levels=  0 BoxLen=    8.00 SMaxX=        0.00
          Shift=            0.000000            0.000000            0.000000
 Box      1 Number                   0 centers from      1 to      1:
 After GenITR:
 ITRead=  0
 MicOpt= -1
 ITRead=  0
 MicOpt= -1
 NAtoms=      1 NQM=        1 NQMF=       0 NMMI=      0 NMMIF=      0
                NMic=       0 NMicF=      0.
                    Isotopes and Nuclear Properties:
 (Nuclear quadrupole moments (NQMom) in fm**2, nuclear magnetic moments (NMagM)
  in nuclear magnetons)

  Atom         1
 IAtWgt=          51
 AtmWgt=  50.9439625
 NucSpn=           7
 AtZEff=  -0.0000000
 NQMom=   -5.2000000
 NMagM=    5.1514000
 AtZNuc=  23.0000000
 No MM parameters found.
 Leave Link  101 at Sun Apr 18 07:46:45 2021, MaxMem=   104857600 cpu:               6.9 elap:               0.2
 (Enter /s/ls4/users/knvvv/bin/g16sse/l202.exe)
                          Input orientation:                          
 ---------------------------------------------------------------------
 Center     Atomic      Atomic             Coordinates (Angstroms)
 Number     Number       Type             X           Y           Z
 ---------------------------------------------------------------------
      1         23           0        0.000000    0.000000    0.000000
 ---------------------------------------------------------------------
 Stoichiometry    V(4)
 Framework group  OH[O(V)]
 Deg. of freedom     0
 Full point group                 OH      NOp  48
 Largest Abelian subgroup         D2H     NOp   8
 Largest concise Abelian subgroup C1      NOp   1
                         Standard orientation:                         
 ---------------------------------------------------------------------
 Center     Atomic      Atomic             Coordinates (Angstroms)
 Number     Number       Type             X           Y           Z
 ---------------------------------------------------------------------
      1         23           0        0.000000    0.000000    0.000000
 ---------------------------------------------------------------------
 Leave Link  202 at Sun Apr 18 07:46:46 2021, MaxMem=   104857600 cpu:              47.5 elap:               1.0
 (Enter /s/ls4/users/knvvv/bin/g16sse/l301.exe)
 Standard basis: def2TZVP (5D, 7F)
 Ernie: Thresh=  0.10000D-02 Tol=  0.10000D-05 Strict=F.
 There are    18 symmetry adapted cartesian basis functions of AG  symmetry.
 There are     4 symmetry adapted cartesian basis functions of B1G symmetry.
 There are     4 symmetry adapted cartesian basis functions of B2G symmetry.
 There are     4 symmetry adapted cartesian basis functions of B3G symmetry.
 There are     1 symmetry adapted cartesian basis functions of AU  symmetry.
 There are     7 symmetry adapted cartesian basis functions of B1U symmetry.
 There are     7 symmetry adapted cartesian basis functions of B2U symmetry.
 There are     7 symmetry adapted cartesian basis functions of B3U symmetry.
 There are    14 symmetry adapted basis functions of AG  symmetry.
 There are     4 symmetry adapted basis functions of B1G symmetry.
 There are     4 symmetry adapted basis functions of B2G symmetry.
 There are     4 symmetry adapted basis functions of B3G symmetry.
 There are     1 symmetry adapted basis functions of AU  symmetry.
 There are     6 symmetry adapted basis functions of B1U symmetry.
 There are     6 symmetry adapted basis functions of B2U symmetry.
 There are     6 symmetry adapted basis functions of B3U symmetry.
    45 basis functions,   102 primitive gaussians,    52 cartesian basis functions
    13 alpha electrons       10 beta electrons
       nuclear repulsion energy         0.0000000000 Hartrees.
 IExCor= 4336 DFT=T Ex+Corr=M062X ExCW=0 ScaHFX=  0.540000
 ScaDFX=  1.000000  1.000000  1.000000  1.000000 ScalE2=  1.000000  1.000000
 IRadAn=      5 IRanWt=     -1 IRanGd=            0 ICorTp=0 IEmpDi=  4
 NAtoms=    1 NActive=    1 NUniq=    1 SFac= 1.00D+00 NAtFMM=   60 NAOKFM=F Big=F
 Integral buffers will be    131072 words long.
 Raffenetti 2 integral format.
 Two-electron integral symmetry is turned on.
 Leave Link  301 at Sun Apr 18 07:46:46 2021, MaxMem=   104857600 cpu:               6.8 elap:               0.2
 (Enter /s/ls4/users/knvvv/bin/g16sse/l302.exe)
 NPDir=0 NMtPBC=     1 NCelOv=     1 NCel=       1 NClECP=     1 NCelD=      1
         NCelK=      1 NCelE2=     1 NClLst=     1 CellRange=     0.0.
 One-electron integrals computed using PRISM.
 One-electron integral symmetry used in STVInt
 PrsmSu:  requested number of processors reduced to:  13 ShMem   1 Linda.
  48 Symmetry operations used in ECPInt.
 ECPInt:  NShTT=     120 NPrTT=     725 LenC2=     121 LenP2D=     725.
 LDataN:  DoStor=T MaxTD1= 6 Len=  172
 NBasis=    45 RedAO= T EigKep=  4.74D-02  NBF=    14     4     4     4     1     6     6     6
 NBsUse=    45 1.00D-06 EigRej= -1.00D+00 NBFU=    14     4     4     4     1     6     6     6
 Precomputing XC quadrature grid using
 IXCGrd= 4 IRadAn=           5 IRanWt=          -1 IRanGd=           0 AccXCQ= 0.00D+00.
 Generated NRdTot=       0 NPtTot=           0 NUsed=           0 NTot=          32
 NSgBfM=    52    52    52    52    52 MxSgAt=     1 MxSgA2=     1.
 Leave Link  302 at Sun Apr 18 07:46:54 2021, MaxMem=   104857600 cpu:             336.4 elap:               7.2
 (Enter /s/ls4/users/knvvv/bin/g16sse/l303.exe)
 DipDrv:  MaxL=1.
 Leave Link  303 at Sun Apr 18 07:46:54 2021, MaxMem=   104857600 cpu:               9.1 elap:               0.2
 (Enter /s/ls4/users/knvvv/bin/g16sse/l401.exe)
 SCF N**3 symmetry information disabled.
 ExpMin= 3.50D-02 ExpMax= 2.32D+05 ExpMxC= 2.24D+03 IAcc=3 IRadAn=         5 AccDes= 0.00D+00
 Harris functional with IExCor= 1009 and IRadAn=       5 diagonalized for initial guess.
 HarFok:  IExCor= 1009 AccDes= 0.00D+00 IRadAn=         5 IDoV= 1 UseB2=F ITyADJ=14
 ICtDFT=  3500011 ScaDFX=  1.000000  1.000000  1.000000  1.000000
 FoFCou: FMM=F IPFlag=           0 FMFlag=      100000 FMFlg1=           0
         NFxFlg=           0 DoJE=T BraDBF=F KetDBF=T FulRan=T
         wScrn=  0.000000 ICntrl=       500 IOpCl=  0 I1Cent=   200000004 NGrid=           0
         NMat0=    1 NMatS0=      1 NMatT0=    0 NMatD0=    1 NMtDS0=    0 NMtDT0=    0
 Petite list used in FoFCou.
 Harris En= -943.386606216836    
 JPrj=0 DoOrth=F DoCkMO=F.
 Initial guess orbital symmetries:
 Alpha Orbitals:
       Occupied  (A1G) (A1G) (T1U) (T1U) (T1U) (A1G) (T1U) (T1U)
                 (T1U) (A1G) (T2G) (T2G) (T2G)
       Virtual   (EG) (EG) (T1U) (T1U) (T1U) (A1G) (T2G) (T2G)
                 (T2G) (EG) (EG) (T2G) (T2G) (T2G) (EG) (EG) (T1U)
                 (T1U) (T1U) (A1G) (T2U) (T2U) (T2U) (A2U) (T1U)
                 (T1U) (T1U) (T2G) (T2G) (T2G) (EG) (EG)
 Beta  Orbitals:
       Occupied  (A1G) (A1G) (T1U) (T1U) (T1U) (A1G) (T1U) (T1U)
                 (T1U) (A1G)
       Virtual   (T2G) (T2G) (T2G) (EG) (EG) (T1U) (T1U) (T1U)
                 (A1G) (T2G) (T2G) (T2G) (EG) (EG) (T2G) (T2G)
                 (T2G) (EG) (EG) (T1U) (T1U) (T1U) (A1G) (T2U)
                 (T2U) (T2U) (A2U) (T1U) (T1U) (T1U) (T2G) (T2G)
                 (T2G) (EG) (EG)
 The electronic state of the initial guess is 4-A1G.
 Initial guess <Sx>= 0.0000 <Sy>= 0.0000 <Sz>= 1.5000 <S**2>= 3.7500 S= 1.5000
 Leave Link  401 at Sun Apr 18 07:46:58 2021, MaxMem=   104857600 cpu:             215.9 elap:               4.6
 (Enter /s/ls4/users/knvvv/bin/g16sse/l502.exe)
 Keep R1 and R2 ints in memory in symmetry-blocked form, NReq=42597388.
 FoFCou: FMM=F IPFlag=           0 FMFlag=           0 FMFlg1=           0
         NFxFlg=           0 DoJE=F BraDBF=F KetDBF=F FulRan=T
         wScrn=  0.000000 ICntrl=       600 IOpCl=  0 I1Cent=           0 NGrid=           0
         NMat0=    1 NMatS0=   1035 NMatT0=    0 NMatD0=    1 NMtDS0=    0 NMtDT0=    0
 Petite list used in FoFCou.
 UHF open shell SCF:
 Using DIIS extrapolation, IDIIS=  1040.
 NGot=   104857600 LenX=   104698530 LenY=   104695385
 Requested convergence on RMS density matrix=1.00D-08 within 128 cycles.
 Requested convergence on MAX density matrix=1.00D-06.
 Requested convergence on             energy=1.00D-06.
 No special actions if energy rises.

 Cycle   1  Pass 1  IDiag  1:
 E= -943.808087840421    
 DIIS: error= 5.30D-02 at cycle   1 NSaved=   1.
 NSaved= 1 IEnMin= 1 EnMin= -943.808087840421     IErMin= 1 ErrMin= 5.30D-02
 ErrMax= 5.30D-02  0.00D+00 EMaxC= 1.00D-01 BMatC= 4.23D-01 BMatP= 4.23D-01
 IDIUse=3 WtCom= 4.70D-01 WtEn= 5.30D-01
 Coeff-Com:  0.100D+01
 Coeff-En:   0.100D+01
 Coeff:      0.100D+01
 Gap=     0.307 Goal=   None    Shift=    0.000
 Gap=     0.141 Goal=   None    Shift=    0.000
 GapD=    0.141 DampG=1.000 DampE=0.250 DampFc=0.2500 IDamp=-1.
 Damping current iteration by 2.50D-01
 RMSDP=7.22D-03 MaxDP=1.70D-01              OVMax= 1.41D-01

 Cycle   2  Pass 1  IDiag  1:
 E= -943.825004136823     Delta-E=       -0.016916296402 Rises=F Damp=T
 DIIS: error= 3.33D-02 at cycle   2 NSaved=   2.
 NSaved= 2 IEnMin= 2 EnMin= -943.825004136823     IErMin= 2 ErrMin= 3.33D-02
 ErrMax= 3.33D-02  0.00D+00 EMaxC= 1.00D-01 BMatC= 1.59D-01 BMatP= 4.23D-01
 IDIUse=3 WtCom= 6.67D-01 WtEn= 3.33D-01
 Coeff-Com: -0.142D+01 0.242D+01
 Coeff-En:   0.000D+00 0.100D+01
 Coeff:     -0.945D+00 0.195D+01
 Gap=     0.161 Goal=   None    Shift=    0.000
 Gap=     0.202 Goal=   None    Shift=    0.000
 RMSDP=2.88D-03 MaxDP=3.99D-02 DE=-1.69D-02 OVMax= 3.26D-02

 Cycle   3  Pass 1  IDiag  1:
 E= -943.858679285727     Delta-E=       -0.033675148904 Rises=F Damp=F
 DIIS: error= 6.07D-03 at cycle   3 NSaved=   3.
 NSaved= 3 IEnMin= 3 EnMin= -943.858679285727     IErMin= 3 ErrMin= 6.07D-03
 ErrMax= 6.07D-03  0.00D+00 EMaxC= 1.00D-01 BMatC= 6.11D-03 BMatP= 1.59D-01
 IDIUse=3 WtCom= 9.39D-01 WtEn= 6.07D-02
 Coeff-Com:  0.766D+00-0.107D+01 0.130D+01
 Coeff-En:   0.000D+00 0.000D+00 0.100D+01
 Coeff:      0.720D+00-0.100D+01 0.128D+01
 Gap=     0.168 Goal=   None    Shift=    0.000
 Gap=     0.208 Goal=   None    Shift=    0.000
 RMSDP=1.61D-03 MaxDP=6.15D-02 DE=-3.37D-02 OVMax= 1.99D-02

 Cycle   4  Pass 1  IDiag  1:
 E= -943.859625250157     Delta-E=       -0.000945964430 Rises=F Damp=F
 DIIS: error= 7.58D-04 at cycle   4 NSaved=   4.
 NSaved= 4 IEnMin= 4 EnMin= -943.859625250157     IErMin= 4 ErrMin= 7.58D-04
 ErrMax= 7.58D-04  0.00D+00 EMaxC= 1.00D-01 BMatC= 1.86D-05 BMatP= 6.11D-03
 IDIUse=3 WtCom= 9.92D-01 WtEn= 7.58D-03
 Coeff-Com: -0.145D+00 0.197D+00-0.243D+00 0.119D+01
 Coeff-En:   0.000D+00 0.000D+00 0.000D+00 0.100D+01
 Coeff:     -0.144D+00 0.195D+00-0.241D+00 0.119D+01
 Gap=     0.166 Goal=   None    Shift=    0.000
 Gap=     0.207 Goal=   None    Shift=    0.000
 RMSDP=2.57D-04 MaxDP=1.09D-02 DE=-9.46D-04 OVMax= 3.35D-03

 Cycle   5  Pass 1  IDiag  1:
 E= -943.859642506264     Delta-E=       -0.000017256107 Rises=F Damp=F
 DIIS: error= 1.60D-04 at cycle   5 NSaved=   5.
 NSaved= 5 IEnMin= 5 EnMin= -943.859642506264     IErMin= 5 ErrMin= 1.60D-04
 ErrMax= 1.60D-04  0.00D+00 EMaxC= 1.00D-01 BMatC= 3.06D-06 BMatP= 1.86D-05
 IDIUse=3 WtCom= 9.98D-01 WtEn= 1.60D-03
 Coeff-Com:  0.244D-01-0.330D-01 0.140D-01-0.245D+00 0.124D+01
 Coeff-En:   0.000D+00 0.000D+00 0.000D+00 0.000D+00 0.100D+01
 Coeff:      0.243D-01-0.329D-01 0.139D-01-0.245D+00 0.124D+01
 Gap=     0.166 Goal=   None    Shift=    0.000
 Gap=     0.207 Goal=   None    Shift=    0.000
 RMSDP=7.65D-05 MaxDP=3.56D-03 DE=-1.73D-05 OVMax= 1.16D-03

 Cycle   6  Pass 1  IDiag  1:
 E= -943.859643256404     Delta-E=       -0.000000750140 Rises=F Damp=F
 DIIS: error= 1.85D-05 at cycle   6 NSaved=   6.
 NSaved= 6 IEnMin= 6 EnMin= -943.859643256404     IErMin= 6 ErrMin= 1.85D-05
 ErrMax= 1.85D-05  0.00D+00 EMaxC= 1.00D-01 BMatC= 4.08D-08 BMatP= 3.06D-06
 IDIUse=1 WtCom= 1.00D+00 WtEn= 0.00D+00
 Coeff-Com:  0.551D-03-0.722D-03 0.537D-02 0.676D-03-0.769D-01 0.107D+01
 Coeff:      0.551D-03-0.722D-03 0.537D-02 0.676D-03-0.769D-01 0.107D+01
 Gap=     0.166 Goal=   None    Shift=    0.000
 Gap=     0.207 Goal=   None    Shift=    0.000
 RMSDP=7.10D-06 MaxDP=3.31D-04 DE=-7.50D-07 OVMax= 1.15D-04

 Cycle   7  Pass 1  IDiag  1:
 E= -943.859643266247     Delta-E=       -0.000000009843 Rises=F Damp=F
 DIIS: error= 1.46D-06 at cycle   7 NSaved=   7.
 NSaved= 7 IEnMin= 7 EnMin= -943.859643266247     IErMin= 7 ErrMin= 1.46D-06
 ErrMax= 1.46D-06  0.00D+00 EMaxC= 1.00D-01 BMatC= 1.14D-10 BMatP= 4.08D-08
 IDIUse=1 WtCom= 1.00D+00 WtEn= 0.00D+00
 Coeff-Com: -0.157D-03 0.205D-03-0.115D-02 0.381D-03 0.106D-01-0.274D+00
 Coeff-Com:  0.126D+01
 Coeff:     -0.157D-03 0.205D-03-0.115D-02 0.381D-03 0.106D-01-0.274D+00
 Coeff:      0.126D+01
 Gap=     0.166 Goal=   None    Shift=    0.000
 Gap=     0.207 Goal=   None    Shift=    0.000
 RMSDP=1.59D-06 MaxDP=5.80D-05 DE=-9.84D-09 OVMax= 1.88D-05

 Cycle   8  Pass 1  IDiag  1:
 E= -943.859643266427     Delta-E=       -0.000000000180 Rises=F Damp=F
 DIIS: error= 1.83D-07 at cycle   8 NSaved=   8.
 NSaved= 8 IEnMin= 8 EnMin= -943.859643266427     IErMin= 8 ErrMin= 1.83D-07
 ErrMax= 1.83D-07  0.00D+00 EMaxC= 1.00D-01 BMatC= 1.37D-12 BMatP= 1.14D-10
 IDIUse=1 WtCom= 1.00D+00 WtEn= 0.00D+00
 Coeff-Com: -0.185D-04 0.268D-04 0.129D-03 0.202D-03-0.275D-02 0.452D-01
 Coeff-Com: -0.263D+00 0.122D+01
 Coeff:     -0.185D-04 0.268D-04 0.129D-03 0.202D-03-0.275D-02 0.452D-01
 Coeff:     -0.263D+00 0.122D+01
 Gap=     0.166 Goal=   None    Shift=    0.000
 Gap=     0.207 Goal=   None    Shift=    0.000
 RMSDP=1.86D-07 MaxDP=7.77D-06 DE=-1.80D-10 OVMax= 2.45D-06

 Cycle   9  Pass 1  IDiag  1:
 E= -943.859643266429     Delta-E=       -0.000000000002 Rises=F Damp=F
 DIIS: error= 2.26D-08 at cycle   9 NSaved=   9.
 NSaved= 9 IEnMin= 9 EnMin= -943.859643266429     IErMin= 9 ErrMin= 2.26D-08
 ErrMax= 2.26D-08  0.00D+00 EMaxC= 1.00D-01 BMatC= 6.62D-14 BMatP= 1.37D-12
 IDIUse=1 WtCom= 1.00D+00 WtEn= 0.00D+00
 Coeff-Com:  0.140D-05-0.209D-05-0.138D-04-0.951D-05 0.220D-03-0.379D-02
 Coeff-Com:  0.290D-01-0.207D+00 0.118D+01
 Coeff:      0.140D-05-0.209D-05-0.138D-04-0.951D-05 0.220D-03-0.379D-02
 Coeff:      0.290D-01-0.207D+00 0.118D+01
 Gap=     0.166 Goal=   None    Shift=    0.000
 Gap=     0.207 Goal=   None    Shift=    0.000
 RMSDP=1.24D-08 MaxDP=5.95D-07 DE=-1.59D-12 OVMax= 1.87D-07

 Cycle  10  Pass 1  IDiag  1:
 E= -943.859643266427     Delta-E=        0.000000000002 Rises=F Damp=F
 DIIS: error= 1.70D-09 at cycle  10 NSaved=  10.
 NSaved=10 IEnMin= 9 EnMin= -943.859643266429     IErMin=10 ErrMin= 1.70D-09
 ErrMax= 1.70D-09  0.00D+00 EMaxC= 1.00D-01 BMatC= 3.77D-16 BMatP= 6.62D-14
 IDIUse=1 WtCom= 1.00D+00 WtEn= 0.00D+00
 Coeff-Com:  0.478D-07-0.615D-07 0.161D-07-0.129D-05 0.626D-05-0.958D-04
 Coeff-Com:  0.267D-03 0.218D-02-0.189D-01 0.102D+01
 Coeff:      0.478D-07-0.615D-07 0.161D-07-0.129D-05 0.626D-05-0.958D-04
 Coeff:      0.267D-03 0.218D-02-0.189D-01 0.102D+01
 Gap=     0.166 Goal=   None    Shift=    0.000
 Gap=     0.207 Goal=   None    Shift=    0.000
 RMSDP=5.82D-10 MaxDP=2.70D-08 DE= 2.05D-12 OVMax= 8.52D-09

 SCF Done:  E(UM062X) =  -943.859643266     A.U. after   10 cycles
            NFock= 10  Conv=0.58D-09     -V/T= 2.0012
 <Sx>= 0.0000 <Sy>= 0.0000 <Sz>= 1.5000 <S**2>= 3.7516 S= 1.5004
 <L.S>= 0.000000000000E+00
 KE= 9.426851697857D+02 PE=-2.237163638331D+03 EE= 3.506188252786D+02
 Annihilation of the first spin contaminant:
 S**2 before annihilation     3.7516,   after     3.7500
 Leave Link  502 at Sun Apr 18 07:48:49 2021, MaxMem=   104857600 cpu:            5205.4 elap:             110.7
 (Enter /s/ls4/users/knvvv/bin/g16sse/l601.exe)
 Copying SCF densities to generalized density rwf, IOpCl= 1 IROHF=0.

 **********************************************************************

            Population analysis using the SCF density.

 **********************************************************************

 Orbital symmetries:
 Alpha Orbitals:
       Occupied  (A1G) (A1G) (T1U) (T1U) (T1U) (A1G) (T1U) (T1U)
                 (T1U) (T2G) (T2G) (T2G) (A1G)
       Virtual   (EG) (EG) (T1U) (T1U) (T1U) (A1G) (T2G) (T2G)
                 (T2G) (EG) (EG) (T2G) (T2G) (T2G) (EG) (EG) (T1U)
                 (T1U) (T1U) (A1G) (A2U) (T2U) (T2U) (T2U) (T1U)
                 (T1U) (T1U) (T2G) (T2G) (T2G) (EG) (EG)
 Beta  Orbitals:
       Occupied  (A1G) (A1G) (T1U) (T1U) (T1U) (A1G) (T1U) (T1U)
                 (T1U) (A1G)
       Virtual   (EG) (EG) (T2G) (T2G) (T2G) (T1U) (T1U) (T1U)
                 (A1G) (EG) (EG) (T2G) (T2G) (T2G) (EG) (EG) (T2G)
                 (T2G) (T2G) (T1U) (T1U) (T1U) (A1G) (T1U) (T1U)
                 (T1U) (T2U) (T2U) (T2U) (A2U) (EG) (EG) (T2G)
                 (T2G) (T2G)
 The electronic state is 4-A1G.
 Alpha  occ. eigenvalues -- -198.50631 -22.79106 -19.27681 -19.27681 -19.27681
 Alpha  occ. eigenvalues --   -2.89523  -1.89141  -1.89141  -1.89141  -0.37233
 Alpha  occ. eigenvalues --   -0.37233  -0.37233  -0.21324
 Alpha virt. eigenvalues --   -0.04741  -0.04741   0.04613   0.04613   0.04613
 Alpha virt. eigenvalues --    0.09666   0.13651   0.13651   0.13651   0.14662
 Alpha virt. eigenvalues --    0.14662   0.62458   0.62458   0.62458   0.64217
 Alpha virt. eigenvalues --    0.64217   1.20783   1.20783   1.20783   1.87574
 Alpha virt. eigenvalues --    2.13966   2.16405   2.16405   2.16405   2.17519
 Alpha virt. eigenvalues --    2.17519   2.17519   2.40138   2.40138   2.40138
 Alpha virt. eigenvalues --    2.46116   2.46116
  Beta  occ. eigenvalues -- -198.50574 -22.74600 -19.23686 -19.23686 -19.23686
  Beta  occ. eigenvalues --   -2.76955  -1.73903  -1.73903  -1.73903  -0.20746
  Beta virt. eigenvalues --   -0.00034  -0.00034   0.01859   0.01859   0.01859
  Beta virt. eigenvalues --    0.04520   0.04520   0.04520   0.10989   0.16316
  Beta virt. eigenvalues --    0.16316   0.16694   0.16694   0.16694   0.66014
  Beta virt. eigenvalues --    0.66014   0.66438   0.66438   0.66438   1.24819
  Beta virt. eigenvalues --    1.24819   1.24819   1.92576   2.21442   2.21442
  Beta virt. eigenvalues --    2.21442   2.22701   2.22701   2.22701   2.23865
  Beta virt. eigenvalues --    2.47688   2.47688   2.49555   2.49555   2.49555
          Condensed to atoms (all electrons):
               1
     1  V   23.000000
          Atomic-Atomic Spin Densities.
               1
     1  V    3.000000
 Mulliken charges and spin densities:
               1          2
     1  V   -0.000000   3.000000
 Sum of Mulliken charges =  -0.00000   3.00000
 Mulliken charges and spin densities with hydrogens summed into heavy atoms:
               1          2
     1  V   -0.000000   3.000000
 Electronic spatial extent (au):  <R**2>=             45.1752
 Charge=             -0.0000 electrons
 Dipole moment (field-independent basis, Debye):
    X=             -0.0000    Y=             -0.0000    Z=              0.0000  Tot=              0.0000
 Quadrupole moment (field-independent basis, Debye-Ang):
   XX=            -20.2541   YY=            -20.2541   ZZ=            -20.2541
   XY=              0.0000   XZ=              0.0000   YZ=             -0.0000
 Traceless Quadrupole moment (field-independent basis, Debye-Ang):
   XX=              0.0000   YY=              0.0000   ZZ=              0.0000
   XY=              0.0000   XZ=              0.0000   YZ=             -0.0000
 Octapole moment (field-independent basis, Debye-Ang**2):
  XXX=              0.0000  YYY=             -0.0000  ZZZ=              0.0000  XYY=             -0.0000
  XXY=             -0.0000  XXZ=              0.0000  XZZ=             -0.0000  YZZ=             -0.0000
  YYZ=              0.0000  XYZ=              0.0000
 Hexadecapole moment (field-independent basis, Debye-Ang**3):
 XXXX=            -52.6858 YYYY=            -52.6858 ZZZZ=            -52.6858 XXXY=              0.0000
 XXXZ=             -0.0000 YYYX=             -0.0000 YYYZ=              0.0000 ZZZX=              0.0000
 ZZZY=             -0.0000 XXYY=            -17.9140 XXZZ=            -17.9140 YYZZ=            -17.9140
 XXYZ=             -0.0000 YYXZ=              0.0000 ZZXY=             -0.0000
 N-N= 0.000000000000D+00 E-N=-2.237163638500D+03  KE= 9.426851697857D+02
                          Isotropic Fermi Contact Couplings
        Atom                 a.u.       MegaHertz       Gauss      10(-4) cm-1
     1  V(51)              0.44014     172.80006      61.65936      57.63989
 --------------------------------------------------------
       Center         ----  Spin Dipole Couplings  ----
                      3XX-RR        3YY-RR        3ZZ-RR
 --------------------------------------------------------
     1   Atom        0.000000      0.000000     -0.000000
 --------------------------------------------------------
                        XY            XZ            YZ
 --------------------------------------------------------
     1   Atom        0.000000      0.000000      0.000000
 --------------------------------------------------------


 ---------------------------------------------------------------------------------
              Anisotropic Spin Dipole Couplings in Principal Axis System
 ---------------------------------------------------------------------------------

       Atom             a.u.   MegaHertz   Gauss  10(-4) cm-1        Axes

              Baa    -0.0000    -0.000    -0.000    -0.000  0.0000  0.0000  1.0000
     1 V(51)  Bbb     0.0000     0.000     0.000     0.000  1.0000  0.0000  0.0000
              Bcc     0.0000     0.000     0.000     0.000 -0.0000  1.0000  0.0000
 

 ---------------------------------------------------------------------------------

 No NMR shielding tensors so no spin-rotation constants.
 Leave Link  601 at Sun Apr 18 07:48:53 2021, MaxMem=   104857600 cpu:             193.1 elap:               4.1
 (Enter /s/ls4/users/knvvv/bin/g16sse/l801.exe)
 DoSCS=F DFT=T ScalE2(SS,OS)=  1.000000  1.000000
 Range of M.O.s used for correlation:     1    45
 NBasis=    45 NAE=    13 NBE=    10 NFC=     0 NFV=     0
 NROrb=     45 NOA=    13 NOB=    10 NVA=    32 NVB=    35
 Leave Link  801 at Sun Apr 18 07:48:53 2021, MaxMem=   104857600 cpu:               4.6 elap:               0.1
 (Enter /s/ls4/users/knvvv/bin/g16sse/l914.exe)
 UHF ground state
 Doing stability rather than CIS.
 Keep R1 and R2 ints in memory in symmetry-blocked form, NReq=59360624.
 FoFCou: FMM=F IPFlag=           0 FMFlag=           0 FMFlg1=           0
         NFxFlg=           0 DoJE=F BraDBF=F KetDBF=F FulRan=T
         wScrn=  0.000000 ICntrl=       600 IOpCl=  0 I1Cent=           0 NGrid=           0
         NMat0=    1 NMatS0=   1035 NMatT0=    0 NMatD0=    1 NMtDS0=    0 NMtDT0=    0
 Petite list used in FoFCou.
 MDV=   104857600 DFT=T DoStab=T Mixed=T DoRPA=F DoScal=F NonHer=F
 Making orbital integer symmetry assigments:
 Orbital symmetries:
 Alpha Orbitals:
       Occupied  (A1G) (A1G) (T1U) (T1U) (T1U) (A1G) (T1U) (T1U)
                 (T1U) (T2G) (T2G) (T2G) (A1G)
       Virtual   (EG) (EG) (T1U) (T1U) (T1U) (A1G) (T2G) (T2G)
                 (T2G) (EG) (EG) (T2G) (T2G) (T2G) (EG) (EG) (T1U)
                 (T1U) (T1U) (A1G) (A2U) (T2U) (T2U) (T2U) (T1U)
                 (T1U) (T1U) (T2G) (T2G) (T2G) (EG) (EG)
 Beta  Orbitals:
       Occupied  (A1G) (A1G) (T1U) (T1U) (T1U) (A1G) (T1U) (T1U)
                 (T1U) (A1G)
       Virtual   (EG) (EG) (T2G) (T2G) (T2G) (T1U) (T1U) (T1U)
                 (A1G) (EG) (EG) (T2G) (T2G) (T2G) (EG) (EG) (T2G)
                 (T2G) (T2G) (T1U) (T1U) (T1U) (A1G) (T1U) (T1U)
                 (T1U) (T2U) (T2U) (T2U) (A2U) (EG) (EG) (T2G)
                 (T2G) (T2G)
    24 initial guesses have been made.
 Convergence on wavefunction:    0.001000000000000
 Davidson Disk Diagonalization:  ConvIn= 1.00D-03 SkipCon=T Conv= 1.00D-03.
 Max sub-space:  1532 roots to seek:    24 dimension of matrix:          766
 Iteration     1 Dimension    24 NMult     0 NNew     24
 CISAX will form    24 AO SS matrices at one time.
 NMat=    24 NSing=    24 JSym2X= 2.
 Excitation Energies [eV] at current iteration:
 Root      1 :    -0.161101041854455
 Root      2 :    -0.161101041853476
 Root      3 :     0.559996247005718
 Root      4 :     0.559996247005966
 Root      5 :     0.559996247006056
 Root      6 :     1.014448563003085
 Root      7 :     1.014448563003151
 Root      8 :     1.014448563003653
 Root      9 :     1.516397034552142
 Root     10 :     1.516397034554208
 Root     11 :     1.516397034555399
 Root     12 :     2.613929780530597
 Root     13 :     2.613929780531183
 Root     14 :     2.815337902629366
 Root     15 :     2.815337902630696
 Root     16 :     2.815337902632901
 Root     17 :     5.814153024452821
 Root     18 :     6.901297550596868
 Root     19 :     6.901297550599907
 Root     20 :     6.901297550601170
 Root     21 :     7.658793423650663
 Root     22 :     8.472414296413833
 Root     23 :     8.472414296415767
 Root     24 :     8.472414296416220
 Iteration     2 Dimension    48 NMult    24 NNew     24
 CISAX will form    24 AO SS matrices at one time.
 NMat=    24 NSing=    24 JSym2X= 2.
 Root      1 not converged, maximum delta is    0.081528452850383
 Excitation Energies [eV] at current iteration:
 Root      1 :    -0.281973439542385   Change is   -0.120872397687930
 Root      2 :    -0.281973439541460   Change is   -0.120872397687984
 Root      3 :     0.001746983986154   Change is   -0.558249263019564
 Root      4 :     0.001746983986444   Change is   -0.558249263019522
 Root      5 :     0.001746983986516   Change is   -0.558249263019540
 Root      6 :     0.487489548758680   Change is   -0.526959014244405
 Root      7 :     0.487489548758758   Change is   -0.526959014244393
 Root      8 :     0.487489548759211   Change is   -0.526959014244442
 Root      9 :     1.348608285943640   Change is   -0.167788748608502
 Root     10 :     1.348608285945652   Change is   -0.167788748608557
 Root     11 :     1.348608285946818   Change is   -0.167788748608581
 Root     12 :     2.328570474596014   Change is   -0.285359305934583
 Root     13 :     2.328570474596334   Change is   -0.285359305934849
 Root     14 :     2.500689607569338   Change is   -0.314648295060028
 Root     15 :     2.500689607570734   Change is   -0.314648295059961
 Root     16 :     2.500689607572873   Change is   -0.314648295060028
 Root     17 :     5.750540759328494   Change is   -0.063612265124327
 Root     18 :     6.310592805208628   Change is   -2.161821491205204
 Root     19 :     6.310592805209964   Change is   -2.161821491206255
 Root     20 :     6.310592805210224   Change is   -2.161821491205543
 Root     21 :     6.674963664912850   Change is   -0.226333885684018
 Root     22 :     6.674963664915454   Change is   -0.226333885684453
 Root     23 :     6.674963664917249   Change is   -0.226333885683921
 Root     24 :     7.250047406534232   Change is   -0.408746017116431
 Iteration     3 Dimension    51 NMult    48 NNew      3
 CISAX will form     3 AO SS matrices at one time.
 NMat=     3 NSing=     3 JSym2X= 2.
 Root      1 not converged, maximum delta is    0.022642737638032
 Excitation Energies [eV] at current iteration:
 Root      1 :    -0.283366033011612   Change is   -0.001392593469227
 Root      2 :    -0.283366033010670   Change is   -0.001392593469209
 Root      3 :     0.000070367437148   Change is   -0.001676616549006
 Iteration     4 Dimension    54 NMult    51 NNew      3
 CISAX will form     3 AO SS matrices at one time.
 NMat=     3 NSing=     3 JSym2X= 2.
 DSYEVD-2 returned Info=          82 IAlg= 4 N=    54 NDim=    54 NE2=     1851907 trying  DSYEV.
 Root      1 not converged, maximum delta is    0.006345647621029
 Excitation Energies [eV] at current iteration:
 Root      1 :    -0.283381354247597   Change is   -0.000015321235985
 Root      2 :    -0.283381354246695   Change is   -0.000015321236025
 Root      3 :     0.000068246457344   Change is   -0.000002120979805
 Cease iterating as an instability has been found.
 ***********************************************************************
 Stability analysis using <AA,BB:AA,BB> singles matrix:
 ***********************************************************************
 1PDM for each excited state written to RWF  633
 Ground to excited state transition densities written to RWF  633

 Eigenvectors of the stability matrix:
 
 Eigenvector   1:  4.732-EG   Eigenvalue=-0.0104141  <S**2>=5.349
     13A -> 14A        0.89146
     13A -> 15A        0.30149
     10B -> 11B       -0.30968
 
 Eigenvector   2:  4.732-EG   Eigenvalue=-0.0104141  <S**2>=5.349
     13A -> 14A       -0.30149
     13A -> 15A        0.89146
     10B -> 12B       -0.30968
 
 Excited state symmetry could not be determined.
 Eigenvector   3:  4.001-?Sym  Eigenvalue= 0.0000025  <S**2>=3.752
     10A -> 14A       -0.26237
     11A -> 14A        0.90918
     11A -> 23A       -0.16820
     12A -> 14A        0.21317
 The wavefunction has an internal instability.
 Leave Link  914 at Sun Apr 18 07:49:01 2021, MaxMem=   104857600 cpu:             337.5 elap:               7.2
 (Enter /s/ls4/users/knvvv/bin/g16sse/l508.exe)
 Keep R1 and R2 ints in memory in symmetry-blocked form, NReq=42597788.
 FoFCou: FMM=F IPFlag=           0 FMFlag=           0 FMFlg1=           0
         NFxFlg=           0 DoJE=F BraDBF=F KetDBF=F FulRan=T
         wScrn=  0.000000 ICntrl=       600 IOpCl=  0 I1Cent=           0 NGrid=           0
         NMat0=    1 NMatS0=   1035 NMatT0=    0 NMatD0=    1 NMtDS0=    0 NMtDT0=    0
 Petite list used in FoFCou.
 Tight linear equation convergence will be used.
 UM062X wavefunction.
 Quadratic Convergence SCF Method.
 Line search only if initial step raises energy.
 Perform preliminary linear searches along instability eigenvector.
     ILin= 1 X=0.000D+00 Y=-9.438596432664D+02 DE= 0.00D+00
     ILin= 2 X=1.000D-01 Y=-9.438597302457D+02 DE=-8.70D-05
     ILin= 3 X=1.414D-01 Y=-9.438597921958D+02 DE=-1.49D-04
     ILin= 4 X=2.000D-01 Y=-9.438598518673D+02 DE=-2.09D-04
     ILin= 5 X=2.828D-01 Y=-9.438597477244D+02 DE=-1.04D-04
     An  expanding polynomial of degree  5 produced  0.2130
 Iteration F X= 2.130D-01 EE=-9.438598545744717D+02
     ILin= 1 X=0.000D+00 Y=-9.438596432664D+02 DE= 0.00D+00
     ILin= 2 X=1.000D-01 Y=-9.438597437699D+02 DE=-1.01D-04
     ILin= 3 X=1.414D-01 Y=-9.438598284383D+02 DE=-1.85D-04
     ILin= 4 X=2.000D-01 Y=-9.438599434054D+02 DE=-3.00D-04
     ILin= 5 X=2.828D-01 Y=-9.438599493788D+02 DE=-3.06D-04
     ILin= 6 X=4.000D-01 Y=-9.438591055605D+02 DE= 5.38D-04
     An  expanding polynomial of degree  6 produced  0.2465
 Iteration B X= 2.465D-01 EE=-9.438599836091727D+02
 Take backward step, X= 2.465D-01 Step= 2.465D-01
 Iteration   1 EE= -943.859983703814                                    Grad=2.017D-02 Max rot=    0.3142 deg.
 Gradient too large for Newton-Raphson -- use scaled steepest descent instead.
 Alpha Gap=     0.176 HL deriv= 1.13D-05
  Beta Gap=     0.218 HL deriv= 2.00D-03
     ILin= 1 X=0.000D+00 Y=-9.438599837038D+02 DE= 0.00D+00 F= -5.27D-04
     ILin= 2 X=3.000D-01 Y=-9.438601034482D+02 DE=-1.20D-04 F= -2.71D-04
     ILin= 3 X=6.000D-01 Y=-9.438601460839D+02 DE=-1.62D-04 F= -1.34D-05
     ILin= 4 X=1.200D+00 Y=-9.438599993244D+02 DE=-1.56D-05 F=  5.03D-04
     An  expanding polynomial of degree  4 produced  0.6156
     Minimum is close to point  3 DX=  1.56D-02 DF= -1.05D-07 DXR=  2.54D-02 DFR=  6.45D-04 which will be used.
 Iteration   2 EE= -943.860146083874     Delta-E=       -0.000162380060 Grad=4.525D-03 Max rot=    0.0649 deg.
 QCNR:  CnvC1=2.77D-09 CnvC2=2.77D-08
 LinEq1:  Iter=  0 NonCon=     1 RMS=3.38D-04 Max=7.59D-03 NDo=     1
 AX will form     1 AO Fock derivatives at one time.
 LinEq1:  Iter=  1 NonCon=     1 RMS=8.01D-05 Max=1.15D-03 NDo=     1
 LinEq1:  Iter=  2 NonCon=     1 RMS=6.87D-05 Max=9.24D-04 NDo=     1
 LinEq1:  Iter=  3 NonCon=     1 RMS=2.22D-05 Max=2.53D-04 NDo=     1
 LinEq1:  Iter=  4 NonCon=     1 RMS=6.07D-06 Max=1.02D-04 NDo=     1
 LinEq1:  Iter=  5 NonCon=     1 RMS=1.79D-06 Max=2.27D-05 NDo=     1
 LinEq1:  Iter=  6 NonCon=     1 RMS=2.91D-07 Max=3.78D-06 NDo=     1
 LinEq1:  Iter=  7 NonCon=     1 RMS=2.60D-08 Max=3.13D-07 NDo=     1
 LinEq1:  Iter=  8 NonCon=     1 RMS=5.07D-09 Max=9.96D-08 NDo=     1
 LinEq1:  Iter=  9 NonCon=     0 RMS=8.55D-10 Max=1.07D-08 NDo=     1
 Linear equations converged to 2.768D-09 2.768D-08 after     9 iterations.
 Angle between quadratic step and gradient= 103.58 degrees.
 Incorrect curvature in search direction -- initial direction reversed.
     ILin= 1 X=0.000D+00 Y=-9.438601460839D+02 DE= 0.00D+00 F= -1.72D-03
     ILin= 2 X=1.000D+00 Y=-9.438400412842D+02 DE= 2.01D-02 F=  6.00D-02
     Reject lnstep minimum 9.144D-02 FVal=-9.438602288591D+02 Lims=  0.00D+00  1.00D+00
     ILin= 3 X=9.144D-02 Y=-9.438602958150D+02 DE=-1.50D-04 F= -1.36D-03
     A contracting polynomial of degree  3 produced  0.0799
 Iteration   3 EE= -943.860279463071     Delta-E=       -0.000133379197 Grad=4.299D-03 Max rot=    0.0693 deg.
 QCNR:  CnvC1=2.77D-09 CnvC2=2.77D-08
 LinEq1:  Iter=  0 NonCon=     1 RMS=3.18D-04 Max=7.92D-03 NDo=     1
 LinEq1:  Iter=  1 NonCon=     1 RMS=7.60D-05 Max=1.13D-03 NDo=     1
 LinEq1:  Iter=  2 NonCon=     1 RMS=2.68D-05 Max=2.61D-04 NDo=     1
 LinEq1:  Iter=  3 NonCon=     1 RMS=1.93D-05 Max=2.79D-04 NDo=     1
 LinEq1:  Iter=  4 NonCon=     1 RMS=4.13D-06 Max=7.12D-05 NDo=     1
 LinEq1:  Iter=  5 NonCon=     1 RMS=1.12D-06 Max=2.42D-05 NDo=     1
 LinEq1:  Iter=  6 NonCon=     1 RMS=2.89D-07 Max=3.35D-06 NDo=     1
 LinEq1:  Iter=  7 NonCon=     1 RMS=2.78D-08 Max=3.05D-07 NDo=     1
 LinEq1:  Iter=  8 NonCon=     1 RMS=3.49D-09 Max=3.35D-08 NDo=     1
 LinEq1:  Iter=  9 NonCon=     0 RMS=3.27D-10 Max=3.19D-09 NDo=     1
 Linear equations converged to 2.768D-09 2.768D-08 after     9 iterations.
 Angle between quadratic step and gradient=  69.85 degrees.
     ILin= 1 X=0.000D+00 Y=-9.438602794631D+02 DE= 0.00D+00 F= -5.30D-04
     ILin= 2 X=1.000D+00 Y=-9.438602712826D+02 DE= 8.18D-06 F=  8.38D-04
     Reject lnstep minimum 5.476D-01 FVal=-9.438604448246D+02 Lims=  0.00D+00  1.00D+00
     ILin= 3 X=5.000D-01 Y=-9.438604457813D+02 DE=-1.66D-04 F= -6.61D-05
     A contracting polynomial of degree  3 produced  0.4940
     Minimum is close to point  3 DX= -6.00D-03 DF= -2.45D-08 DXR=  1.21D-02 DFR=  1.48D-04 which will be used.
 Iteration   4 EE= -943.860445781288     Delta-E=       -0.000166318217 Grad=2.928D-03 Max rot=    0.0585 deg.
 QCNR:  CnvC1=2.77D-09 CnvC2=2.77D-08
 LinEq1:  Iter=  0 NonCon=     1 RMS=1.53D-04 Max=2.22D-03 NDo=     1
 LinEq1:  Iter=  1 NonCon=     1 RMS=1.14D-04 Max=2.69D-03 NDo=     1
 LinEq1:  Iter=  2 NonCon=     1 RMS=3.52D-05 Max=3.92D-04 NDo=     1
 LinEq1:  Iter=  3 NonCon=     1 RMS=1.39D-05 Max=2.06D-04 NDo=     1
 LinEq1:  Iter=  4 NonCon=     1 RMS=3.21D-06 Max=5.79D-05 NDo=     1
 LinEq1:  Iter=  5 NonCon=     1 RMS=5.01D-07 Max=8.26D-06 NDo=     1
 LinEq1:  Iter=  6 NonCon=     1 RMS=1.79D-07 Max=2.58D-06 NDo=     1
 LinEq1:  Iter=  7 NonCon=     1 RMS=1.61D-08 Max=2.02D-07 NDo=     1
 LinEq1:  Iter=  8 NonCon=     1 RMS=2.75D-09 Max=3.31D-08 NDo=     1
 LinEq1:  Iter=  9 NonCon=     0 RMS=3.12D-10 Max=4.93D-09 NDo=     1
 Linear equations converged to 2.768D-09 2.768D-08 after     9 iterations.
 Angle between quadratic step and gradient=  74.47 degrees.
     ILin= 1 X=0.000D+00 Y=-9.438604457813D+02 DE= 0.00D+00 F= -3.16D-05
     ILin= 2 X=1.000D+00 Y=-9.438604617408D+02 DE=-1.60D-05 F= -5.14D-07
     Reject lnstep minimum 1.017D+00 FVal=-9.438604617451D+02 Lims=  0.00D+00  1.00D+00
     ILin= 3 X=2.000D+00 Y=-9.438604471120D+02 DE=-1.33D-06 F=  2.96D-05
     An  expanding polynomial of degree  3 produced  1.0218
     Minimum is close to point  2 DX=  2.18D-02 DF= -7.24D-09 DXR=  2.13D-02 DFR=  4.53D-04 which will be used.
 Iteration   5 EE= -943.860461740813     Delta-E=       -0.000015959525 Grad=1.139D-04 Max rot=    0.0017 deg.
 QCNR:  CnvC1=1.14D-09 CnvC2=1.14D-08
 LinEq1:  Iter=  0 NonCon=     1 RMS=4.18D-06 Max=5.76D-05 NDo=     1
 LinEq1:  Iter=  1 NonCon=     1 RMS=3.19D-06 Max=6.56D-05 NDo=     1
 LinEq1:  Iter=  2 NonCon=     1 RMS=8.36D-07 Max=9.22D-06 NDo=     1
 LinEq1:  Iter=  3 NonCon=     1 RMS=2.85D-07 Max=4.47D-06 NDo=     1
 LinEq1:  Iter=  4 NonCon=     1 RMS=5.44D-08 Max=7.46D-07 NDo=     1
 LinEq1:  Iter=  5 NonCon=     1 RMS=1.11D-08 Max=1.93D-07 NDo=     1
 LinEq1:  Iter=  6 NonCon=     1 RMS=3.31D-09 Max=4.45D-08 NDo=     1
 LinEq1:  Iter=  7 NonCon=     0 RMS=3.41D-10 Max=4.37D-09 NDo=     1
 Linear equations converged to 1.139D-09 1.139D-08 after     7 iterations.
 Angle between quadratic step and gradient=  76.93 degrees.
     ILin= 1 X=0.000D+00 Y=-9.438604617408D+02 DE= 0.00D+00 F= -1.76D-08
     ILin= 2 X=1.000D+00 Y=-9.438604617496D+02 DE=-8.79D-09 F=  6.89D-11
     Accept linear search using points  1 and  2.
     An  expanding polynomial of degree  2 produced  0.9961
     Minimum is close to point  2 DX= -3.89D-03 DF= -1.14D-13 DXR=  3.91D-03 DFR=  1.29D-05 which will be used.
 Iteration   6 EE= -943.860461749601     Delta-E=       -0.000000008788 Grad=5.798D-06 Max rot=    0.0001 deg.
 QCNR:  CnvC1=5.80D-11 CnvC2=5.80D-10
 LinEq1:  Iter=  0 NonCon=     1 RMS=9.59D-08 Max=1.23D-06 NDo=     1
 LinEq1:  Iter=  1 NonCon=     1 RMS=1.96D-08 Max=2.46D-07 NDo=     1
 LinEq1:  Iter=  2 NonCon=     1 RMS=9.87D-09 Max=9.99D-08 NDo=     1
 LinEq1:  Iter=  3 NonCon=     1 RMS=7.55D-09 Max=1.24D-07 NDo=     1
 LinEq1:  Iter=  4 NonCon=     1 RMS=1.31D-09 Max=1.36D-08 NDo=     1
 LinEq1:  Iter=  5 NonCon=     1 RMS=4.47D-10 Max=6.75D-09 NDo=     1
 LinEq1:  Iter=  6 NonCon=     1 RMS=7.77D-11 Max=8.89D-10 NDo=     1
 LinEq1:  Iter=  7 NonCon=     0 RMS=2.36D-11 Max=3.26D-10 NDo=     1
 Linear equations converged to 5.798D-11 5.798D-10 after     7 iterations.
 Angle between quadratic step and gradient=  66.21 degrees.
     ILin= 1 X=0.000D+00 Y=-9.438604617496D+02 DE= 0.00D+00 F= -2.27D-11
     ILin= 2 X=1.000D+00 Y=-9.438604617496D+02 DE=-1.21D-11
 Iteration   7 EE= -943.860461749613     Delta-E=       -0.000000000012 Grad=6.098D-08 Max rot=    0.0000 deg.
 Rotation gradient small -- convergence achieved.
 SCF Done:  E(UM062X) =  -943.860461750     a.u. after    7 cycles
            Convg  =    0.6098D-07                    63 Fock formations.
              S**2 =  3.9417                  -V/T =  2.0013
 <Sx>= 0.0000 <Sy>= 0.0000 <Sz>= 1.5000 <S**2>= 3.9417 S= 1.5474
 <L.S>= 0.000000000000E+00
 Annihilation of the first spin contaminant:
 S**2 before annihilation     3.9417,   after     3.7501
 Leave Link  508 at Sun Apr 18 07:49:26 2021, MaxMem=   104857600 cpu:            1156.8 elap:              24.8
 (Enter /s/ls4/users/knvvv/bin/g16sse/l801.exe)
 DoSCS=F DFT=T ScalE2(SS,OS)=  1.000000  1.000000
 Range of M.O.s used for correlation:     1    45
 NBasis=    45 NAE=    13 NBE=    10 NFC=     0 NFV=     0
 NROrb=     45 NOA=    13 NOB=    10 NVA=    32 NVB=    35
 Leave Link  801 at Sun Apr 18 07:49:26 2021, MaxMem=   104857600 cpu:               4.8 elap:               0.1
 (Enter /s/ls4/users/knvvv/bin/g16sse/l914.exe)
 UHF ground state
 Doing stability rather than CIS.
 Keep R1 and R2 ints in memory in symmetry-blocked form, NReq=59360624.
 FoFCou: FMM=F IPFlag=           0 FMFlag=           0 FMFlg1=           0
         NFxFlg=           0 DoJE=F BraDBF=F KetDBF=F FulRan=T
         wScrn=  0.000000 ICntrl=       600 IOpCl=  0 I1Cent=           0 NGrid=           0
         NMat0=    1 NMatS0=   1035 NMatT0=    0 NMatD0=    1 NMtDS0=    0 NMtDT0=    0
 Petite list used in FoFCou.
 MDV=   104857600 DFT=T DoStab=T Mixed=T DoRPA=F DoScal=F NonHer=F
 Making orbital integer symmetry assigments:
 Orbital symmetries:
 Alpha Orbitals:
       Occupied  (A1G) (A1G) (T1U) (T1U) (T1U) (A1G) (T1U) (T1U)
                 (T1U) (T2G) (T2G) (T2G) (?A)
       Virtual   (?A) (?A) (T1U) (T1U) (T1U) (?A) (?B) (?B) (?A)
                 (?B) (?A) (?B) (?B) (?B) (?A) (?A) (?C) (?C) (?C)
                 (A1G) (A2U) (?C) (?C) (?C) (?C) (?C) (?C) (T2G)
                 (T2G) (T2G) (EG) (EG)
 Beta  Orbitals:
       Occupied  (A1G) (A1G) (T1U) (T1U) (T1U) (A1G) (T1U) (T1U)
                 (T1U) (?A)
       Virtual   (?A) (?A) (?B) (?B) (?B) (T1U) (T1U) (T1U) (?A)
                 (?A) (?A) (T2G) (T2G) (T2G) (?A) (?A) (?B) (?B)
                 (?B) (T1U) (T1U) (T1U) (T2G) (?C) (?C) (?C) (?C)
                 (?C) (?C) (A2U) (T2G) (T2G) (T2G) (T2G) (T2G)
    24 initial guesses have been made.
 Convergence on wavefunction:    0.001000000000000
 Davidson Disk Diagonalization:  ConvIn= 1.00D-03 SkipCon=T Conv= 1.00D-03.
 Max sub-space:  1532 roots to seek:    24 dimension of matrix:          766
 Iteration     1 Dimension    24 NMult     0 NNew     24
 CISAX will form    24 AO SS matrices at one time.
 Spin AA IR=   22 I=  20 J=  13 Mu=    5 Nu=   36 IOp=3 MuP=     5 NuP=   -36
 Err= 1.54D+00 FactIJ= 1.0 Fact=-1.0
 A= 7.6992814377D-01 AP=-7.6992814377D-01 B= 0.0000000000D+00 BP=-0.0000000000D+00
 NMat=    24 NSing=    24 JSym2X= 2.
 New state      1 was old state      2
 Excitation Energies [eV] at current iteration:
 Root      1 :     0.495898547428672
 Root      2 :     0.544218257388546
 Root      3 :     0.655091993064448
 Root      4 :     0.655091993738232
 Root      5 :     1.061100673902331
 Root      6 :     1.061100948068453
 Root      7 :     1.115207873384397
 Root      8 :     1.249508548714177
 Root      9 :     1.476545002279838
 Root     10 :     1.476546943075608
 Root     11 :     2.790538983701714
 Root     12 :     2.814661741820579
 Root     13 :     2.824752115921260
 Root     14 :     2.877945411207365
 Root     15 :     3.366740617820802
 Root     16 :     3.366741061939742
 Root     17 :     5.984691371201400
 Root     18 :     6.916174936300937
 Root     19 :     7.214652368055299
 Root     20 :     7.214652895185833
 Root     21 :     7.814455769679030
 Root     22 :     8.161984033522707
 Root     23 :     8.161985829661271
 Root     24 :     8.614168238787135
 Iteration     2 Dimension    48 NMult    24 NNew     24
 CISAX will form    24 AO SS matrices at one time.
 Spin AA IR=   20 I=  19 J=  11 Mu=   21 Nu=    5 IOp=3 MuP=   -21 NuP=     5
 Err= 1.52D+00 FactIJ= 1.0 Fact=-1.0
 A=-7.6241914794D-01 AP= 7.6241914794D-01 B= 1.4526083206D-18 BP=-1.4526083206D-18
 NMat=    24 NSing=    24 JSym2X= 2.
 New state      1 was old state      2
 Root      1 not converged, maximum delta is    0.194218203996708
 Excitation Energies [eV] at current iteration:
 Root      1 :     0.002798987433129   Change is   -0.541419269955417
 Root      2 :     0.006318920937764   Change is   -0.648773072126684
 Root      3 :     0.006318951595057   Change is   -0.648773042143175
 Root      4 :     0.343795766770649   Change is   -0.152102780658023
 Root      5 :     0.475426414449552   Change is   -0.585674259452778
 Root      6 :     0.475426660143401   Change is   -0.585674287925052
 Root      7 :     0.550078179559520   Change is   -0.699430369154657
 Root      8 :     0.577188635990149   Change is   -0.538019237394248
 Root      9 :     1.273178916367425   Change is   -0.203366085912413
 Root     10 :     1.273180539070809   Change is   -0.203366404004800
 Root     11 :     2.496104987456446   Change is   -0.318556754364133
 Root     12 :     2.567585576598280   Change is   -0.257166539322979
 Root     13 :     2.614695894837340   Change is   -0.263249516370025
 Root     14 :     2.626013867001163   Change is   -0.164525116700551
 Root     15 :     3.022954128817583   Change is   -0.343786489003219
 Root     16 :     3.022954491629065   Change is   -0.343786570310677
 Root     17 :     5.903004850743359   Change is   -0.081686520458040
 Root     18 :     5.921104483104548   Change is   -2.240879550418158
 Root     19 :     5.921105410802540   Change is   -2.240880418858731
 Root     20 :     5.995231710129108   Change is   -2.618936528658027
 Root     21 :     6.742901780043162   Change is   -0.173273156257774
 Root     22 :     7.070520282093141   Change is   -0.144132085962158
 Root     23 :     7.070520906808419   Change is   -0.144131988377414
 Root     24 :     7.258314734501258   Change is   -0.556141035177772
 Iteration     3 Dimension    51 NMult    48 NNew      3
 CISAX will form     3 AO SS matrices at one time.
 Spin AA IR=    1 I=  29 J=  10 Mu=   20 Nu=   29 IOp=2 MuP=   -20 NuP=    29
 Err= 1.26D+00 FactIJ= 1.0 Fact=-1.0
 A=-6.2983164645D-01 AP= 6.2983164645D-01 B= 9.4207527488D-21 BP=-9.4207527488D-21
 NMat=     3 NSing=     3 JSym2X= 2.
 Root      1 not converged, maximum delta is    0.006522452209201
 Excitation Energies [eV] at current iteration:
 Root      1 :     0.000082797466518   Change is   -0.002716189966611
 Root      2 :     0.004028993271186   Change is   -0.002289927666578
 Root      3 :     0.004029023335878   Change is   -0.002289928259179
 Iteration     4 Dimension    54 NMult    51 NNew      3
 CISAX will form     3 AO SS matrices at one time.
 Spin AA IR=    1 I=  45 J=  10 Mu=   12 Nu=   40 IOp=2 MuP=   -12 NuP=    40
 Err= 6.83D-01 FactIJ= 1.0 Fact=-1.0
 A= 3.4172004415D-01 AP=-3.4172004415D-01 B=-7.2187576400D-02 BP= 7.2187576400D-02
 NMat=     3 NSing=     3 JSym2X= 2.
 Root      1 has converged.
 Excitation Energies [eV] at current iteration:
 Root      1 :     0.000076809393670   Change is   -0.000005988072848
 Root      2 :     0.003999138636308   Change is   -0.000029854634878
 Root      3 :     0.003999168710619   Change is   -0.000029854625259
 Convergence achieved on expansion vectors.
 ***********************************************************************
 Stability analysis using <AA,BB:AA,BB> singles matrix:
 ***********************************************************************
 1PDM for each excited state written to RWF  633
 Ground to excited state transition densities written to RWF  633

 Eigenvectors of the stability matrix:
 
 Excited state symmetry could not be determined.
 Eigenvector   1:  4.095-?Sym  Eigenvalue= 0.0000028  <S**2>=3.942
     10A -> 15A        0.97697
     10A -> 24A       -0.19391
 The wavefunction is stable under the perturbations considered.
 Leave Link  914 at Sun Apr 18 07:49:32 2021, MaxMem=   104857600 cpu:             319.4 elap:               6.8
 (Enter /s/ls4/users/knvvv/bin/g16sse/l508.exe)
 The wavefunction is already stable.
 Leave Link  508 at Sun Apr 18 07:49:33 2021, MaxMem=   104857600 cpu:               2.2 elap:               0.1
 (Enter /s/ls4/users/knvvv/bin/g16sse/l601.exe)
 Copying SCF densities to generalized density rwf, IOpCl= 1 IROHF=0.
 SCF density gives NOpUse=  8 NOpAll= 48.
 Marking SCF density as not fully symmetric.

 **********************************************************************

            Population analysis using the SCF density.

 **********************************************************************

 Orbital symmetries:
 Alpha Orbitals:
       Occupied  (A1G) (A1G) (T1U) (T1U) (T1U) (A1G) (T1U) (T1U)
                 (T1U) (T2G) (T2G) (T2G) (?A)
       Virtual   (?A) (?A) (T1U) (T1U) (T1U) (?A) (?B) (?B) (?A)
                 (?B) (?A) (?B) (?B) (?B) (?A) (?A) (?C) (?C) (?C)
                 (A1G) (A2U) (?C) (?C) (?C) (?C) (?C) (?C) (T2G)
                 (T2G) (T2G) (EG) (EG)
 Beta  Orbitals:
       Occupied  (A1G) (A1G) (T1U) (T1U) (T1U) (A1G) (T1U) (T1U)
                 (T1U) (?A)
       Virtual   (?A) (?A) (?B) (?B) (?B) (T1U) (T1U) (T1U) (?A)
                 (?A) (?A) (T2G) (T2G) (T2G) (?A) (?A) (?B) (?B)
                 (?B) (T1U) (T1U) (T1U) (T2G) (?C) (?C) (?C) (?C)
                 (?C) (?C) (A2U) (T2G) (T2G) (T2G) (T2G) (T2G)
 Unable to determine electronic state:  an orbital has unidentified symmetry.
 Alpha  occ. eigenvalues -- -198.48387 -22.76488 -19.25249 -19.25249 -19.24908
 Alpha  occ. eigenvalues --   -2.87170  -1.87112  -1.86933  -1.86933  -0.35390
 Alpha  occ. eigenvalues --   -0.35084  -0.35084  -0.21492
 Alpha virt. eigenvalues --   -0.04573  -0.03066   0.04943   0.04943   0.05814
 Alpha virt. eigenvalues --    0.09896   0.13322   0.13322   0.13890   0.13984
 Alpha virt. eigenvalues --    0.15100   0.63212   0.63443   0.63443   0.64552
 Alpha virt. eigenvalues --    0.65737   1.22251   1.22251   1.22736   1.89364
 Alpha virt. eigenvalues --    2.15816   2.17991   2.17991   2.18161   2.19074
 Alpha virt. eigenvalues --    2.19074   2.19203   2.42109   2.42381   2.42381
 Alpha virt. eigenvalues --    2.47855   2.47873
  Beta  occ. eigenvalues -- -198.48351 -22.72006 -19.21292 -19.21292 -19.20827
  Beta  occ. eigenvalues --   -2.74479  -1.71787  -1.71787  -1.70948  -0.20327
  Beta virt. eigenvalues --    0.01434   0.01564   0.03045   0.03045   0.03327
  Beta virt. eigenvalues --    0.03969   0.05362   0.05362   0.11602   0.16827
  Beta virt. eigenvalues --    0.17135   0.17265   0.17538   0.17538   0.66621
  Beta virt. eigenvalues --    0.67005   0.67306   0.67306   0.67375   1.26161
  Beta virt. eigenvalues --    1.26161   1.26584   1.94390   2.23360   2.23366
  Beta virt. eigenvalues --    2.23366   2.24242   2.24497   2.24497   2.25414
  Beta virt. eigenvalues --    2.49279   2.50252   2.51048   2.51433   2.51433
          Condensed to atoms (all electrons):
               1
     1  V   23.000000
          Atomic-Atomic Spin Densities.
               1
     1  V    3.000000
 Mulliken charges and spin densities:
               1          2
     1  V   -0.000000   3.000000
 Sum of Mulliken charges =  -0.00000   3.00000
 Mulliken charges and spin densities with hydrogens summed into heavy atoms:
               1          2
     1  V   -0.000000   3.000000
 Electronic spatial extent (au):  <R**2>=             44.4328
 Charge=             -0.0000 electrons
 Dipole moment (field-independent basis, Debye):
    X=              0.0000    Y=             -0.0000    Z=              0.0000  Tot=              0.0000
 Quadrupole moment (field-independent basis, Debye-Ang):
   XX=            -20.2236   YY=            -19.3165   ZZ=            -20.2236
   XY=             -0.0000   XZ=              0.0000   YZ=             -0.0000
 Traceless Quadrupole moment (field-independent basis, Debye-Ang):
   XX=             -0.3024   YY=              0.6047   ZZ=             -0.3024
   XY=             -0.0000   XZ=              0.0000   YZ=             -0.0000
 Octapole moment (field-independent basis, Debye-Ang**2):
  XXX=              0.0000  YYY=             -0.0000  ZZZ=              0.0000  XYY=             -0.0000
  XXY=              0.0000  XXZ=              0.0000  XZZ=              0.0000  YZZ=              0.0000
  YYZ=             -0.0000  XYZ=              0.0000
 Hexadecapole moment (field-independent basis, Debye-Ang**3):
 XXXX=            -52.3511 YYYY=            -49.6603 ZZZZ=            -52.3511 XXXY=             -0.0000
 XXXZ=             -0.0000 YYYX=             -0.0000 YYYZ=             -0.0000 ZZZX=              0.0000
 ZZZY=             -0.0000 XXYY=            -17.2984 XXZZ=            -17.8452 YYZZ=            -17.2984
 XXYZ=             -0.0000 YYXZ=              0.0000 ZZXY=             -0.0000
 N-N= 0.000000000000D+00 E-N=-2.237632443617D+03  KE= 9.426669925552D+02
                          Isotropic Fermi Contact Couplings
        Atom                 a.u.       MegaHertz       Gauss      10(-4) cm-1
     1  V(51)              0.16247      63.78801      22.76115      21.27739
 --------------------------------------------------------
       Center         ----  Spin Dipole Couplings  ----
                      3XX-RR        3YY-RR        3ZZ-RR
 --------------------------------------------------------
     1   Atom       -0.198209      0.396418     -0.198209
 --------------------------------------------------------
                        XY            XZ            YZ
 --------------------------------------------------------
     1   Atom       -0.000000      0.000000     -0.000000
 --------------------------------------------------------


 ---------------------------------------------------------------------------------
              Anisotropic Spin Dipole Couplings in Principal Axis System
 ---------------------------------------------------------------------------------

       Atom             a.u.   MegaHertz   Gauss  10(-4) cm-1        Axes

              Baa    -0.1982   -27.866    -9.943    -9.295 -0.0046  0.0000  1.0000
     1 V(51)  Bbb    -0.1982   -27.866    -9.943    -9.295  1.0000  0.0000  0.0046
              Bcc     0.3964    55.733    19.887    18.590 -0.0000  1.0000 -0.0000
 

 ---------------------------------------------------------------------------------

 No NMR shielding tensors so no spin-rotation constants.
 Leave Link  601 at Sun Apr 18 07:49:37 2021, MaxMem=   104857600 cpu:             210.7 elap:               4.5
 (Enter /s/ls4/users/knvvv/bin/g16sse/l9999.exe)

 Test job not archived.
 1\1\GINC-N178\Stability\UM062X\def2TZVP\V1(4)\KNVVV\18-Apr-2021\0\\#P 
 M062X/Def2TZVP Integral=UltraFineGrid SCF=NoSymm Stable=(RExt, Opt) IO
 p(1/33=1)\\Database calculations.\\0,4\V,0,0.,0.,0.\\Version=ES64L-G16
 RevA.03\State=4-A1G\HF=-943.8604617\S2=3.94168\S2-1=0.\S2A=3.750099\RM
 SD=2.203e-09\Dipole=0.,0.,0.\Quadrupole=-0.2247971,0.4495946,-0.224797
 6,0.,0.,0.0000003\PG=OH [O(V1)]\\@


 A COMPLEXITY IS MERELY A DISARRANGEMENT OF SIMPLICITIES.

                                    -- G. O. ABELL IN "EXPLORATION OF THE UNIVERSE"
 Job cpu time:       0 days  2 hours 14 minutes 31.8 seconds.
 Elapsed time:       0 days  0 hours  2 minutes 52.3 seconds.
 File lengths (MBytes):  RWF=     31 Int=      0 D2E=      0 Chk=      2 Scr=      1
 Normal termination of Gaussian 16 at Sun Apr 18 07:49:37 2021.
