 Entering Gaussian System, Link 0=/s/ls4/users/knvvv/bin/g16sse/g16
 Input=data/database/M062X--def2-QZVP--DC13_omcb.gjf
 Output=data/database/M062X--def2-QZVP--DC13_omcb.log
 Initial command:
 /s/ls4/users/knvvv/bin/g16sse/l1.exe "/s/ls4/users/knvvv/bin/scratch/Gau-19136.inp" -scrdir="/s/ls4/users/knvvv/bin/scratch/"
 Entering Link 1 = /s/ls4/users/knvvv/bin/g16sse/l1.exe PID=     19137.
  
 Copyright (c) 1988,1990,1992,1993,1995,1998,2003,2009,2016,
            Gaussian, Inc.  All Rights Reserved.
  
 This is part of the Gaussian(R) 16 program.  It is based on
 the Gaussian(R) 09 system (copyright 2009, Gaussian, Inc.),
 the Gaussian(R) 03 system (copyright 2003, Gaussian, Inc.),
 the Gaussian(R) 98 system (copyright 1998, Gaussian, Inc.),
 the Gaussian(R) 94 system (copyright 1995, Gaussian, Inc.),
 the Gaussian 92(TM) system (copyright 1992, Gaussian, Inc.),
 the Gaussian 90(TM) system (copyright 1990, Gaussian, Inc.),
 the Gaussian 88(TM) system (copyright 1988, Gaussian, Inc.),
 the Gaussian 86(TM) system (copyright 1986, Carnegie Mellon
 University), and the Gaussian 82(TM) system (copyright 1983,
 Carnegie Mellon University). Gaussian is a federally registered
 trademark of Gaussian, Inc.
  
 This software contains proprietary and confidential information,
 including trade secrets, belonging to Gaussian, Inc.
  
 This software is provided under written license and may be
 used, copied, transmitted, or stored only in accord with that
 written license.
  
 The following legend is applicable only to US Government
 contracts under FAR:
  
                    RESTRICTED RIGHTS LEGEND
  
 Use, reproduction and disclosure by the US Government is
 subject to restrictions as set forth in subparagraphs (a)
 and (c) of the Commercial Computer Software - Restricted
 Rights clause in FAR 52.227-19.
  
 Gaussian, Inc.
 340 Quinnipiac St., Bldg. 40, Wallingford CT 06492
  
  
 ---------------------------------------------------------------
 Warning -- This program may not be used in any manner that
 competes with the business of Gaussian, Inc. or will provide
 assistance to any competitor of Gaussian, Inc.  The licensee
 of this program is prohibited from giving any competitor of
 Gaussian, Inc. access to this program.  By using this program,
 the user acknowledges that Gaussian, Inc. is engaged in the
 business of creating and licensing software in the field of
 computational chemistry and represents and warrants to the
 licensee that it is not a competitor of Gaussian, Inc. and that
 it will not use this program in any manner prohibited above.
 ---------------------------------------------------------------
  

 Cite this work as:
 Gaussian 16, Revision A.03,
 M. J. Frisch, G. W. Trucks, H. B. Schlegel, G. E. Scuseria, 
 M. A. Robb, J. R. Cheeseman, G. Scalmani, V. Barone, 
 G. A. Petersson, H. Nakatsuji, X. Li, M. Caricato, A. V. Marenich, 
 J. Bloino, B. G. Janesko, R. Gomperts, B. Mennucci, H. P. Hratchian, 
 J. V. Ortiz, A. F. Izmaylov, J. L. Sonnenberg, D. Williams-Young, 
 F. Ding, F. Lipparini, F. Egidi, J. Goings, B. Peng, A. Petrone, 
 T. Henderson, D. Ranasinghe, V. G. Zakrzewski, J. Gao, N. Rega, 
 G. Zheng, W. Liang, M. Hada, M. Ehara, K. Toyota, R. Fukuda, 
 J. Hasegawa, M. Ishida, T. Nakajima, Y. Honda, O. Kitao, H. Nakai, 
 T. Vreven, K. Throssell, J. A. Montgomery, Jr., J. E. Peralta, 
 F. Ogliaro, M. J. Bearpark, J. J. Heyd, E. N. Brothers, K. N. Kudin, 
 V. N. Staroverov, T. A. Keith, R. Kobayashi, J. Normand, 
 K. Raghavachari, A. P. Rendell, J. C. Burant, S. S. Iyengar, 
 J. Tomasi, M. Cossi, J. M. Millam, M. Klene, C. Adamo, R. Cammi, 
 J. W. Ochterski, R. L. Martin, K. Morokuma, O. Farkas, 
 J. B. Foresman, and D. J. Fox, Gaussian, Inc., Wallingford CT, 2016.
 
 ******************************************
 Gaussian 16:  ES64L-G16RevA.03 25-Dec-2016
                16-Apr-2021 
 ******************************************
 %RWF=temp23_43633,70GB
 %nprocshared=48
 Will use up to   48 processors via shared memory.
 Default route: MaxDisk=80GB
 ----------------------------------------------------------------------
 #P M062X/Def2QZVP Integral=UltraFineGrid SCF=NoSymm Stable=(RExt, Opt)
  IOp(1/33=1)
 ----------------------------------------------------------------------
 1/33=1,38=1,172=1/1;
 2/12=2,17=6,18=5,40=1/2;
 3/5=45,7=101,11=2,25=1,30=1,74=-55,75=-5/1,2,3;
 4/9=2/1;
 5/5=2,38=5/2;
 6/7=2,8=2,9=2,10=2,28=1/1;
 8/6=1,10=90,11=11/1;
 9/8=-3,42=1,46=1/14;
 5/5=2,8=3,17=40,38=5/8(-2);
 6/7=2,8=2,9=2,10=2,28=1/1;
 99/5=1,9=1/99;
 Leave Link    1 at Fri Apr 16 23:00:33 2021, MaxMem=           0 cpu:               8.3 elap:               0.2
 (Enter /s/ls4/users/knvvv/bin/g16sse/l101.exe)
 ONIOM data not found on unit 2.
 ----------------------
 Database calculations.
 ----------------------
 TstMul:  ICh=     0
 TstMul:  Mul=     1
 TstMul:  ICh=     0
 TstMul:  Mul=     1
 Symbolic Z-matrix:
 Charge =  0 Multiplicity = 1
 C                    -0.78969   0.78969  -0.0934 
 C                    -0.78969  -0.78969   0.0934 
 C                     0.78969  -0.78969  -0.0934 
 C                     0.78969   0.78969   0.0934 
 C                    -1.60758   1.60758   0.91943 
 C                    -1.24698   1.24698  -1.49107 
 C                    -1.24698  -1.24698   1.49107 
 C                    -1.60758  -1.60758  -0.91943 
 C                     1.24698  -1.24698  -1.49107 
 C                     1.60758  -1.60758   0.91943 
 C                     1.24698   1.24698   1.49107 
 C                     1.60758   1.60758  -0.91943 
 H                    -1.36727   1.36727   1.95538 
 H                    -1.42693   2.67788   0.76935 
 H                    -2.67788   1.42693   0.76935 
 H                    -0.73174   0.73174  -2.30167 
 H                    -2.32046   1.06761  -1.60859 
 H                    -1.06761   2.32046  -1.60859 
 H                    -0.73174  -0.73174   2.30167 
 H                    -2.32046  -1.06761   1.60859 
 H                    -1.06761  -2.32046   1.60859 
 H                    -1.36727  -1.36727  -1.95538 
 H                    -1.42693  -2.67788  -0.76935 
 H                    -2.67788  -1.42693  -0.76935 
 H                     0.73174  -0.73174  -2.30167 
 H                     2.32046  -1.06761  -1.60859 
 H                     1.06761  -2.32046  -1.60859 
 H                     1.36727  -1.36727   1.95538 
 H                     1.42693  -2.67788   0.76935 
 H                     2.67788  -1.42693   0.76935 
 H                     0.73174   0.73174   2.30167 
 H                     2.32046   1.06761   1.60859 
 H                     1.06761   2.32046   1.60859 
 H                     1.36727   1.36727  -1.95538 
 H                     1.42693   2.67788  -0.76935 
 H                     2.67788   1.42693  -0.76935 
 
 RdStrC is calling ZToCFu for IStruc=1 NZ=    36.
 PrtBox:  NBox=     5 Levels=  1 BoxLen=    8.00 SMaxX=       10.12
          Shift=            5.060459            5.060459            4.349532
 Box      1 Number                   0 centers from      1 to     21:
 Box      2 Number                   1 centers from     22 to     25:
 Box      3 Number                   2 centers from     26 to     30:
 Box      4 Number                   4 centers from     31 to     35:
 Box      5 Number                   6 centers from     36 to     36:
 After GenITR:
 ITRead=  0  0  0  0  0  0  0  0  0  0  0  0  0  0  0  0  0  0  0  0
 ITRead=  0  0  0  0  0  0  0  0  0  0  0  0  0  0  0  0
 MicOpt= -1 -1 -1 -1 -1 -1 -1 -1 -1 -1 -1 -1 -1 -1 -1 -1 -1 -1 -1 -1
 MicOpt= -1 -1 -1 -1 -1 -1 -1 -1 -1 -1 -1 -1 -1 -1 -1 -1
 ITRead=  0  0  0  0  0  0  0  0  0  0  0  0  0  0  0  0  0  0  0  0
 ITRead=  0  0  0  0  0  0  0  0  0  0  0  0  0  0  0  0
 MicOpt= -1 -1 -1 -1 -1 -1 -1 -1 -1 -1 -1 -1 -1 -1 -1 -1 -1 -1 -1 -1
 MicOpt= -1 -1 -1 -1 -1 -1 -1 -1 -1 -1 -1 -1 -1 -1 -1 -1
 NAtoms=     36 NQM=       36 NQMF=       0 NMMI=      0 NMMIF=      0
                NMic=       0 NMicF=      0.
                    Isotopes and Nuclear Properties:
 (Nuclear quadrupole moments (NQMom) in fm**2, nuclear magnetic moments (NMagM)
  in nuclear magnetons)

  Atom         1           2           3           4           5           6           7           8           9          10
 IAtWgt=          12          12          12          12          12          12          12          12          12          12
 AtmWgt=  12.0000000  12.0000000  12.0000000  12.0000000  12.0000000  12.0000000  12.0000000  12.0000000  12.0000000  12.0000000
 NucSpn=           0           0           0           0           0           0           0           0           0           0
 AtZEff=  -0.0000000  -0.0000000  -0.0000000  -0.0000000  -0.0000000  -0.0000000  -0.0000000  -0.0000000  -0.0000000  -0.0000000
 NQMom=    0.0000000   0.0000000   0.0000000   0.0000000   0.0000000   0.0000000   0.0000000   0.0000000   0.0000000   0.0000000
 NMagM=    0.0000000   0.0000000   0.0000000   0.0000000   0.0000000   0.0000000   0.0000000   0.0000000   0.0000000   0.0000000
 AtZNuc=   6.0000000   6.0000000   6.0000000   6.0000000   6.0000000   6.0000000   6.0000000   6.0000000   6.0000000   6.0000000

  Atom        11          12          13          14          15          16          17          18          19          20
 IAtWgt=          12          12           1           1           1           1           1           1           1           1
 AtmWgt=  12.0000000  12.0000000   1.0078250   1.0078250   1.0078250   1.0078250   1.0078250   1.0078250   1.0078250   1.0078250
 NucSpn=           0           0           1           1           1           1           1           1           1           1
 AtZEff=  -0.0000000  -0.0000000  -0.0000000  -0.0000000  -0.0000000  -0.0000000  -0.0000000  -0.0000000  -0.0000000  -0.0000000
 NQMom=    0.0000000   0.0000000   0.0000000   0.0000000   0.0000000   0.0000000   0.0000000   0.0000000   0.0000000   0.0000000
 NMagM=    0.0000000   0.0000000   2.7928460   2.7928460   2.7928460   2.7928460   2.7928460   2.7928460   2.7928460   2.7928460
 AtZNuc=   6.0000000   6.0000000   1.0000000   1.0000000   1.0000000   1.0000000   1.0000000   1.0000000   1.0000000   1.0000000

  Atom        21          22          23          24          25          26          27          28          29          30
 IAtWgt=           1           1           1           1           1           1           1           1           1           1
 AtmWgt=   1.0078250   1.0078250   1.0078250   1.0078250   1.0078250   1.0078250   1.0078250   1.0078250   1.0078250   1.0078250
 NucSpn=           1           1           1           1           1           1           1           1           1           1
 AtZEff=  -0.0000000  -0.0000000  -0.0000000  -0.0000000  -0.0000000  -0.0000000  -0.0000000  -0.0000000  -0.0000000  -0.0000000
 NQMom=    0.0000000   0.0000000   0.0000000   0.0000000   0.0000000   0.0000000   0.0000000   0.0000000   0.0000000   0.0000000
 NMagM=    2.7928460   2.7928460   2.7928460   2.7928460   2.7928460   2.7928460   2.7928460   2.7928460   2.7928460   2.7928460
 AtZNuc=   1.0000000   1.0000000   1.0000000   1.0000000   1.0000000   1.0000000   1.0000000   1.0000000   1.0000000   1.0000000

  Atom        31          32          33          34          35          36
 IAtWgt=           1           1           1           1           1           1
 AtmWgt=   1.0078250   1.0078250   1.0078250   1.0078250   1.0078250   1.0078250
 NucSpn=           1           1           1           1           1           1
 AtZEff=  -0.0000000  -0.0000000  -0.0000000  -0.0000000  -0.0000000  -0.0000000
 NQMom=    0.0000000   0.0000000   0.0000000   0.0000000   0.0000000   0.0000000
 NMagM=    2.7928460   2.7928460   2.7928460   2.7928460   2.7928460   2.7928460
 AtZNuc=   1.0000000   1.0000000   1.0000000   1.0000000   1.0000000   1.0000000
 No MM parameters found.
 Leave Link  101 at Fri Apr 16 23:00:34 2021, MaxMem=   104857600 cpu:               7.7 elap:               0.2
 (Enter /s/ls4/users/knvvv/bin/g16sse/l202.exe)
                          Input orientation:                          
 ---------------------------------------------------------------------
 Center     Atomic      Atomic             Coordinates (Angstroms)
 Number     Number       Type             X           Y           Z
 ---------------------------------------------------------------------
      1          6           0       -0.789688    0.789688   -0.093403
      2          6           0       -0.789688   -0.789688    0.093403
      3          6           0        0.789688   -0.789688   -0.093403
      4          6           0        0.789688    0.789688    0.093403
      5          6           0       -1.607582    1.607582    0.919427
      6          6           0       -1.246984    1.246984   -1.491065
      7          6           0       -1.246984   -1.246984    1.491065
      8          6           0       -1.607582   -1.607582   -0.919427
      9          6           0        1.246984   -1.246984   -1.491065
     10          6           0        1.607582   -1.607582    0.919427
     11          6           0        1.246984    1.246984    1.491065
     12          6           0        1.607582    1.607582   -0.919427
     13          1           0       -1.367271    1.367271    1.955379
     14          1           0       -1.426927    2.677880    0.769354
     15          1           0       -2.677880    1.426927    0.769354
     16          1           0       -0.731736    0.731736   -2.301673
     17          1           0       -2.320461    1.067608   -1.608586
     18          1           0       -1.067608    2.320461   -1.608586
     19          1           0       -0.731736   -0.731736    2.301673
     20          1           0       -2.320461   -1.067608    1.608586
     21          1           0       -1.067608   -2.320461    1.608586
     22          1           0       -1.367271   -1.367271   -1.955379
     23          1           0       -1.426927   -2.677880   -0.769354
     24          1           0       -2.677880   -1.426927   -0.769354
     25          1           0        0.731736   -0.731736   -2.301673
     26          1           0        2.320461   -1.067608   -1.608586
     27          1           0        1.067608   -2.320461   -1.608586
     28          1           0        1.367271   -1.367271    1.955379
     29          1           0        1.426927   -2.677880    0.769354
     30          1           0        2.677880   -1.426927    0.769354
     31          1           0        0.731736    0.731736    2.301673
     32          1           0        2.320461    1.067608    1.608586
     33          1           0        1.067608    2.320461    1.608586
     34          1           0        1.367271    1.367271   -1.955379
     35          1           0        1.426927    2.677880   -0.769354
     36          1           0        2.677880    1.426927   -0.769354
 ---------------------------------------------------------------------
                    Distance matrix (angstroms):
                    1          2          3          4          5
     1  C    0.000000
     2  C    1.590385   0.000000
     3  C    2.233575   1.590385   0.000000
     4  C    1.590385   2.233575   1.590385   0.000000
     5  C    1.537442   2.664240   3.538309   2.664240   0.000000
     6  C    1.540032   2.620627   3.201488   2.620627   2.463846
     7  C    2.620627   1.540032   2.620627   3.201488   2.933487
     8  C    2.664240   1.537442   2.664240   3.538309   3.703872
     9  C    3.201488   2.620627   1.540032   2.620627   4.701868
    10  C    3.538309   2.664240   1.537442   2.664240   4.546929
    11  C    2.620627   3.201488   2.620627   1.540032   2.933487
    12  C    2.664240   3.538309   2.664240   1.537442   3.703872
    13  H    2.205608   2.907409   3.674567   2.907409   1.090273
    14  H    2.171564   3.589848   4.204968   2.989241   1.095762
    15  H    2.171564   2.989241   4.204968   3.589848   1.095762
    16  H    2.209791   2.838041   3.083168   2.838041   3.451044
    17  H    2.171701   2.947809   3.926621   3.556266   2.681533
    18  H    2.171701   3.556266   3.926621   2.947809   2.681533
    19  H    2.838041   2.209791   2.838041   3.083168   2.854842
    20  H    2.947809   2.171701   3.556266   3.926621   2.853030
    21  H    3.556266   2.171701   2.947809   3.926621   4.024429
    22  H    2.907409   2.205608   2.907409   3.674567   4.143912
    23  H    3.589848   2.171564   2.989241   4.204968   4.609751
    24  H    2.989241   2.171564   3.589848   4.204968   3.633974
    25  H    3.083168   2.838041   2.209791   2.838041   4.617392
    26  H    3.926621   3.556266   2.171701   2.947809   5.383030
    27  H    3.926621   2.947809   2.171701   3.556266   5.383030
    28  H    3.674567   2.907409   2.205608   2.907409   4.332747
    29  H    4.204968   2.989241   2.171564   3.589848   5.253185
    30  H    4.204968   3.589848   2.171564   2.989241   5.253185
    31  H    2.838041   3.083168   2.838041   2.209791   2.854842
    32  H    3.556266   3.926621   2.947809   2.171701   4.024429
    33  H    2.947809   3.926621   3.556266   2.171701   2.853030
    34  H    2.907409   3.674567   2.907409   2.205608   4.143912
    35  H    2.989241   4.204968   3.589848   2.171564   3.633974
    36  H    3.589848   4.204968   2.989241   2.171564   4.609751
                    6          7          8          9         10
     6  C    0.000000
     7  C    3.887541   0.000000
     8  C    2.933487   2.463846   0.000000
     9  C    3.527003   3.887541   2.933487   0.000000
    10  C    4.701868   2.933487   3.703872   2.463846   0.000000
    11  C    3.887541   3.527003   4.701868   3.887541   2.933487
    12  C    2.933487   4.701868   4.546929   2.933487   3.703872
    13  H    3.450639   2.657890   4.143912   5.054367   4.332747
    14  H    2.681294   3.994721   4.609751   5.259643   5.253185
    15  H    2.681294   3.117391   3.633974   5.259643   5.253185
    16  H    1.089975   4.308791   2.854842   2.913374   4.617392
    17  H    1.094687   4.014663   2.853030   4.254152   5.383030
    18  H    1.094687   4.729341   4.024429   4.254152   5.383030
    19  H    4.308791   1.089975   3.451044   4.308791   2.854842
    20  H    4.014663   1.094687   2.681533   4.729341   4.024429
    21  H    4.729341   1.094687   2.681533   4.014663   2.853030
    22  H    2.657890   3.450639   1.090273   2.657890   4.143912
    23  H    3.994721   2.681294   1.095762   3.117391   3.633974
    24  H    3.117391   2.681294   1.095762   3.994721   4.609751
    25  H    2.913374   4.308791   2.854842   1.089975   3.451044
    26  H    4.254152   4.729341   4.024429   1.094687   2.681533
    27  H    4.254152   4.014663   2.853030   1.094687   2.681533
    28  H    5.054367   2.657890   4.143912   3.450639   1.090273
    29  H    5.259643   3.117391   3.633974   2.681294   1.095762
    30  H    5.259643   3.994721   4.609751   2.681294   1.095762
    31  H    4.308791   2.913374   4.617392   4.308791   2.854842
    32  H    4.729341   4.254152   5.383030   4.014663   2.853030
    33  H    4.014663   4.254152   5.383030   4.729341   4.024429
    34  H    2.657890   5.054367   4.332747   2.657890   4.143912
    35  H    3.117391   5.259643   5.253185   3.994721   4.609751
    36  H    3.994721   5.259643   5.253185   3.117391   3.633974
                   11         12         13         14         15
    11  C    0.000000
    12  C    2.463846   0.000000
    13  H    2.657890   4.143912   0.000000
    14  H    3.117391   3.633974   1.768590   0.000000
    15  H    3.994721   4.609751   1.768590   1.769114   0.000000
    16  H    4.308791   2.854842   4.350896   3.701617   3.701617
    17  H    4.729341   4.024429   3.701380   3.007652   2.431348
    18  H    4.014663   2.853030   3.701380   2.431348   3.007652
    19  H    2.913374   4.617392   2.220282   3.802206   3.285621
    20  H    4.254152   5.383030   2.637702   3.940988   2.656080
    21  H    4.254152   5.383030   3.716103   5.081026   4.164156
    22  H    5.054367   4.332747   4.771974   4.877598   4.116965
    23  H    5.259643   5.253185   4.877598   5.572412   4.558721
    24  H    5.259643   5.253185   4.116965   4.558721   3.242237
    25  H    4.308791   2.854842   5.189812   5.071145   5.071145
    26  H    4.014663   2.853030   5.677133   5.807425   6.071302
    27  H    4.729341   4.024429   5.677133   6.071302   5.807425
    28  H    2.657890   4.143912   3.867225   5.057414   5.057414
    29  H    3.994721   4.609751   5.057414   6.068660   5.805073
    30  H    3.117391   3.633974   5.057414   5.805073   6.068660
    31  H    1.089975   3.451044   2.220282   3.285621   3.802206
    32  H    1.094687   2.681533   3.716103   4.164156   5.081026
    33  H    1.094687   2.681533   2.637702   2.656080   3.940988
    34  H    3.450639   1.090273   4.771974   4.116965   4.877598
    35  H    2.681294   1.095762   4.116965   3.242237   4.558721
    36  H    2.681294   1.095762   4.877598   4.558721   5.572412
                   16         17         18         19         20
    16  H    0.000000
    17  H    1.765567   0.000000
    18  H    1.765567   1.771801   0.000000
    19  H    4.830378   4.588225   4.971804   0.000000
    20  H    4.588225   3.861261   4.837235   1.765567   0.000000
    21  H    4.971804   4.837235   5.646976   1.765567   1.771801
    22  H    2.220282   2.637702   3.716103   4.350896   3.701380
    23  H    3.802206   3.940988   5.081026   3.701617   3.007652
    24  H    3.285621   2.656080   4.164156   3.701617   2.431348
    25  H    2.069663   3.610252   3.610252   4.830378   4.971804
    26  H    3.610252   5.108552   4.791453   4.971804   5.646976
    27  H    3.610252   4.791453   5.108552   4.588225   4.837235
    28  H    5.189812   5.677133   5.677133   2.220282   3.716103
    29  H    5.071145   5.807425   6.071302   3.285621   4.164156
    30  H    5.071145   6.071302   5.807425   3.802206   5.081026
    31  H    4.830378   4.971804   4.588225   2.069663   3.610252
    32  H    4.971804   5.646976   4.837235   3.610252   5.108552
    33  H    4.588225   4.837235   3.861261   3.610252   4.791453
    34  H    2.220282   3.716103   2.637702   5.189812   5.677133
    35  H    3.285621   4.164156   2.656080   5.071145   5.807425
    36  H    3.802206   5.081026   3.940988   5.071145   6.071302
                   21         22         23         24         25
    21  H    0.000000
    22  H    3.701380   0.000000
    23  H    2.431348   1.768590   0.000000
    24  H    3.007652   1.768590   1.769114   0.000000
    25  H    4.588225   2.220282   3.285621   3.802206   0.000000
    26  H    4.837235   3.716103   4.164156   5.081026   1.765567
    27  H    3.861261   2.637702   2.656080   3.940988   1.765567
    28  H    2.637702   4.771974   4.116965   4.877598   4.350896
    29  H    2.656080   4.116965   3.242237   4.558721   3.701617
    30  H    3.940988   4.877598   4.558721   5.572412   3.701617
    31  H    3.610252   5.189812   5.071145   5.071145   4.830378
    32  H    4.791453   5.677133   5.807425   6.071302   4.588225
    33  H    5.108552   5.677133   6.071302   5.807425   4.971804
    34  H    5.677133   3.867225   5.057414   5.057414   2.220282
    35  H    6.071302   5.057414   6.068660   5.805073   3.802206
    36  H    5.807425   5.057414   5.805073   6.068660   3.285621
                   26         27         28         29         30
    26  H    0.000000
    27  H    1.771801   0.000000
    28  H    3.701380   3.701380   0.000000
    29  H    3.007652   2.431348   1.768590   0.000000
    30  H    2.431348   3.007652   1.768590   1.769114   0.000000
    31  H    4.588225   4.971804   2.220282   3.802206   3.285621
    32  H    3.861261   4.837235   2.637702   3.940988   2.656080
    33  H    4.837235   5.646976   3.716103   5.081026   4.164156
    34  H    2.637702   3.716103   4.771974   4.877598   4.116965
    35  H    3.940988   5.081026   4.877598   5.572412   4.558721
    36  H    2.656080   4.164156   4.116965   4.558721   3.242237
                   31         32         33         34         35
    31  H    0.000000
    32  H    1.765567   0.000000
    33  H    1.765567   1.771801   0.000000
    34  H    4.350896   3.701380   3.701380   0.000000
    35  H    3.701617   3.007652   2.431348   1.768590   0.000000
    36  H    3.701617   2.431348   3.007652   1.768590   1.769114
                   36
    36  H    0.000000
 Stoichiometry    C12H24
 Framework group  D2D[2SGD(C6H4),X(H16)]
 Deg. of freedom    16
 Full point group                 D2D     NOp   8
 Largest Abelian subgroup         C2V     NOp   4
 Largest concise Abelian subgroup C2V     NOp   4
                         Standard orientation:                         
 ---------------------------------------------------------------------
 Center     Atomic      Atomic             Coordinates (Angstroms)
 Number     Number       Type             X           Y           Z
 ---------------------------------------------------------------------
      1          6           0        0.000000    1.116787    0.093403
      2          6           0        1.116787   -0.000000   -0.093403
      3          6           0       -0.000000   -1.116787    0.093403
      4          6           0       -1.116787    0.000000   -0.093403
      5          6           0        0.000000    2.273465   -0.919427
      6          6           0        0.000000    1.763501    1.491065
      7          6           0        1.763501   -0.000000   -1.491065
      8          6           0        2.273465   -0.000000    0.919427
      9          6           0       -0.000000   -1.763501    1.491065
     10          6           0       -0.000000   -2.273465   -0.919427
     11          6           0       -1.763501    0.000000   -1.491065
     12          6           0       -2.273465    0.000000    0.919427
     13          1           0        0.000000    1.933612   -1.955379
     14          1           0       -0.884557    2.902536   -0.769354
     15          1           0        0.884557    2.902536   -0.769354
     16          1           0        0.000000    1.034831    2.301673
     17          1           0        0.885901    2.395726    1.608586
     18          1           0       -0.885901    2.395726    1.608586
     19          1           0        1.034831   -0.000000   -2.301673
     20          1           0        2.395726    0.885901   -1.608586
     21          1           0        2.395726   -0.885901   -1.608586
     22          1           0        1.933612   -0.000000    1.955379
     23          1           0        2.902536   -0.884557    0.769354
     24          1           0        2.902536    0.884557    0.769354
     25          1           0       -0.000000   -1.034831    2.301673
     26          1           0       -0.885901   -2.395726    1.608586
     27          1           0        0.885901   -2.395726    1.608586
     28          1           0       -0.000000   -1.933612   -1.955379
     29          1           0        0.884557   -2.902536   -0.769354
     30          1           0       -0.884557   -2.902536   -0.769354
     31          1           0       -1.034831    0.000000   -2.301673
     32          1           0       -2.395726   -0.885901   -1.608586
     33          1           0       -2.395726    0.885901   -1.608586
     34          1           0       -1.933612    0.000000    1.955379
     35          1           0       -2.902536    0.884557    0.769354
     36          1           0       -2.902536   -0.884557    0.769354
 ---------------------------------------------------------------------
 Rotational constants (GHZ):           0.9873583           0.9873583           0.8374632
 Leave Link  202 at Fri Apr 16 23:00:34 2021, MaxMem=   104857600 cpu:              11.9 elap:               0.3
 (Enter /s/ls4/users/knvvv/bin/g16sse/l301.exe)
 Standard basis: def2QZVP (5D, 7F)
 Ernie: Thresh=  0.10000D-02 Tol=  0.10000D-05 Strict=F.
 There are   524 symmetry adapted cartesian basis functions of A1  symmetry.
 There are   328 symmetry adapted cartesian basis functions of A2  symmetry.
 There are   426 symmetry adapted cartesian basis functions of B1  symmetry.
 There are   426 symmetry adapted cartesian basis functions of B2  symmetry.
 There are   422 symmetry adapted basis functions of A1  symmetry.
 There are   280 symmetry adapted basis functions of A2  symmetry.
 There are   351 symmetry adapted basis functions of B1  symmetry.
 There are   351 symmetry adapted basis functions of B2  symmetry.
  1404 basis functions,  2016 primitive gaussians,  1704 cartesian basis functions
    48 alpha electrons       48 beta electrons
       nuclear repulsion energy       841.2216487450 Hartrees.
 IExCor= 4336 DFT=T Ex+Corr=M062X ExCW=0 ScaHFX=  0.540000
 ScaDFX=  1.000000  1.000000  1.000000  1.000000 ScalE2=  1.000000  1.000000
 IRadAn=      5 IRanWt=     -1 IRanGd=            0 ICorTp=0 IEmpDi=  4
 NAtoms=   36 NActive=   36 NUniq=    7 SFac= 4.00D+00 NAtFMM=   60 NAOKFM=F Big=F
 Integral buffers will be    131072 words long.
 Raffenetti 2 integral format.
 Two-electron integral symmetry is turned on.
 Leave Link  301 at Fri Apr 16 23:00:34 2021, MaxMem=   104857600 cpu:               6.1 elap:               0.1
 (Enter /s/ls4/users/knvvv/bin/g16sse/l302.exe)
 NPDir=0 NMtPBC=     1 NCelOv=     1 NCel=       1 NClECP=     1 NCelD=      1
         NCelK=      1 NCelE2=     1 NClLst=     1 CellRange=     0.0.
 One-electron integrals computed using PRISM.
 One-electron integral symmetry used in STVInt
 PrsmSu:  requested number of processors reduced to:   3 ShMem   1 Linda.
 PrsmSu:  requested number of processors reduced to:  13 ShMem   1 Linda.
   8 Symmetry operations used in ECPInt.
 ECPInt:  NShTT=   98790 NPrTT=  218742 LenC2=   92221 LenP2D=  162716.
 LDataN:  DoStor=T MaxTD1= 8 Len=  415
 Number of processors reduced to   5 by ecpmxn.
 NBasis=  1404 RedAO= T EigKep=  1.81D-06  NBF=   422   280   351   351
 NBsUse=  1404 1.00D-06 EigRej= -1.00D+00 NBFU=   422   280   351   351
 Precomputing XC quadrature grid using
 IXCGrd= 4 IRadAn=           5 IRanWt=          -1 IRanGd=           0 AccXCQ= 0.00D+00.
 Generated NRdTot=       0 NPtTot=           0 NUsed=           0 NTot=          32
 NSgBfM=  1698  1698  1698  1698  1698 MxSgAt=    36 MxSgA2=    36.
 Leave Link  302 at Fri Apr 16 23:03:15 2021, MaxMem=   104857600 cpu:            7581.9 elap:             161.4
 (Enter /s/ls4/users/knvvv/bin/g16sse/l303.exe)
 DipDrv:  MaxL=1.
 Leave Link  303 at Fri Apr 16 23:03:38 2021, MaxMem=   104857600 cpu:            1050.1 elap:              22.4
 (Enter /s/ls4/users/knvvv/bin/g16sse/l401.exe)
 SCF N**3 symmetry information disabled.
 ExpMin= 7.60D-02 ExpMax= 6.70D+04 ExpMxC= 6.47D+02 IAcc=3 IRadAn=         5 AccDes= 0.00D+00
 Harris functional with IExCor= 1009 and IRadAn=       5 diagonalized for initial guess.
 HarFok:  IExCor= 1009 AccDes= 0.00D+00 IRadAn=         5 IDoV= 1 UseB2=F ITyADJ=14
 ICtDFT=  3500011 ScaDFX=  1.000000  1.000000  1.000000  1.000000
 CalDSu:  requested number of processors reduced to:  25 ShMem   1 Linda.
 FoFCou: FMM=F IPFlag=           0 FMFlag=      100000 FMFlg1=           0
         NFxFlg=           0 DoJE=T BraDBF=F KetDBF=T FulRan=T
         wScrn=  0.000000 ICntrl=       500 IOpCl=  0 I1Cent=   200000004 NGrid=           0
         NMat0=    1 NMatS0=      1 NMatT0=    0 NMatD0=    1 NMtDS0=    0 NMtDT0=    0
 Petite list used in FoFCou.
 CoulSu:  requested number of processors reduced to:  10 ShMem   1 Linda.
 CoulSu:  requested number of processors reduced to:  11 ShMem   1 Linda.
 CoulSu:  requested number of processors reduced to:  20 ShMem   1 Linda.
 CoulSu:  requested number of processors reduced to:  20 ShMem   1 Linda.
 Harris En= -471.641408154091    
 JPrj=0 DoOrth=F DoCkMO=F.
 Initial guess orbital symmetries:
       Occupied  (E) (E) (B2) (A1) (B2) (E) (E) (A1) (A1) (E) (E)
                 (B2) (A1) (E) (E) (B2) (B2) (E) (E) (A1) (A1)
                 (E) (E) (A1) (B2) (B1) (B2) (E) (E) (E) (E) (A2)
                 (E) (E) (A1) (A2) (B2) (B2) (E) (E) (A1) (B1)
                 (E) (E) (A1) (B1) (E) (E)
       Virtual   (A1) (B2) (A1) (E) (E) (B2) (E) (E) (B1) (A1)
                 (E) (E) (A2) (B2) (E) (E) (B2) (E) (E) (A2) (A1)
                 (B2) (E) (E) (E) (E) (A1) (B2) (E) (E) (B1) (A2)
                 (A1) (B2) (E) (E) (B1) (E) (E) (A2) (A1) (A1)
                 (B2) (E) (E) (B2) (E) (E) (A1) (E) (E) (B1) (B2)
                 (A2) (B1) (E) (E) (B2) (A1) (E) (E) (A1) (A2)
                 (E) (E) (A1) (E) (E) (B2) (E) (E) (B1) (B2) (A1)
                 (A2) (E) (E) (E) (E) (B2) (B1) (B2) (A1) (E) (E)
                 (A1) (A1) (B2) (E) (E) (E) (E) (A2) (B2) (E) (E)
                 (A1) (E) (E) (B1) (B2) (A1) (E) (E) (E) (E) (A2)
                 (B2) (A1) (E) (E) (B2) (A1) (A2) (B1) (E) (E)
                 (B2) (E) (E) (A2) (A1) (E) (E) (E) (E) (A1) (B1)
                 (E) (E) (B1) (A2) (B2) (B2) (E) (E) (E) (E) (A1)
                 (B2) (B1) (E) (E) (A2) (B2) (B1) (A2) (E) (E)
                 (A2) (A1) (E) (E) (A1) (A1) (E) (E) (B2) (B1)
                 (A1) (B2) (A2) (A1) (E) (E) (E) (E) (B2) (B1)
                 (E) (E) (B2) (E) (E) (B1) (B2) (A2) (A1) (E) (E)
                 (A1) (E) (E) (E) (E) (B2) (E) (E) (A1) (E) (E)
                 (B2) (A1) (B1) (A1) (E) (E) (A1) (B2) (E) (E)
                 (B1) (A2) (E) (E) (E) (E) (B2) (E) (E) (B1) (B2)
                 (A2) (E) (E) (B2) (A2) (E) (E) (A1) (E) (E) (B2)
                 (A1) (E) (E) (B2) (B2) (A2) (A1) (E) (E) (A2)
                 (B2) (B1) (A1) (E) (E) (E) (E) (B1) (A1) (B1)
                 (E) (E) (E) (E) (A2) (A1) (B2) (E) (E) (A1) (A2)
                 (B2) (E) (E) (B1) (A1) (E) (E) (B2) (B1) (A1)
                 (E) (E) (B1) (E) (E) (B2) (A1) (E) (E) (A2) (E)
                 (E) (A2) (B2) (A1) (E) (E) (B2) (B2) (E) (E) (B1)
                 (A1) (E) (E) (A2) (E) (E) (A1) (B2) (B1) (E) (E)
                 (A1) (A2) (E) (E) (B1) (E) (E) (B2) (A2) (A1)
                 (E) (E) (E) (E) (B2) (A1) (B1) (E) (E) (B1) (A1)
                 (E) (E) (A2) (E) (E) (B2) (B2) (A1) (B1) (A1)
                 (B2) (A2) (E) (E) (A1) (B2) (E) (E) (E) (E) (E)
                 (E) (B1) (E) (E) (B2) (A2) (E) (E) (B2) (A2) (A1)
                 (E) (E) (B1) (E) (E) (A2) (B1) (B2) (A1) (A2)
                 (B1) (E) (E) (E) (E) (A2) (B2) (E) (E) (A1) (E)
                 (E) (E) (E) (A1) (A1) (E) (E) (E) (E) (B1) (B2)
                 (A2) (B2) (A1) (B2) (E) (E) (A2) (B2) (B1) (A1)
                 (A2) (E) (E) (A1) (E) (E) (B2) (A1) (B1) (B2)
                 (E) (E) (E) (E) (A2) (E) (E) (B2) (A1) (E) (E)
                 (B1) (B1) (E) (E) (B2) (E) (E) (A2) (B1) (E) (E)
                 (B2) (A1) (E) (E) (A1) (E) (E) (A1) (A2) (B2)
                 (E) (E) (B1) (A1) (B2) (E) (E) (A1) (A2) (B1)
                 (E) (E) (B2) (A1) (E) (E) (A2) (E) (E) (B1) (E)
                 (E) (A2) (B2) (A1) (E) (E) (B1) (E) (E) (B2) (B1)
                 (E) (E) (A1) (A2) (A1) (E) (E) (B2) (E) (E) (A1)
                 (E) (E) (B2) (B1) (A2) (E) (E) (B2) (A1) (A2)
                 (E) (E) (B1) (B2) (A1) (E) (E) (A2) (B1) (E) (E)
                 (E) (E) (A1) (B2) (A2) (E) (E) (B2) (A1) (E) (E)
                 (B2) (E) (E) (B2) (A1) (A2) (B1) (E) (E) (E) (E)
                 (B2) (A2) (E) (E) (B2) (A2) (E) (E) (A1) (B1)
                 (E) (E) (B1) (A1) (E) (E) (B1) (A1) (E) (E) (B2)
                 (A1) (A2) (E) (E) (B1) (B2) (B1) (E) (E) (A1)
                 (E) (E) (A1) (B1) (E) (E) (B2) (E) (E) (E) (E)
                 (B2) (A1) (A2) (E) (E) (B2) (B2) (E) (E) (A1)
                 (A2) (A1) (B1) (E) (E) (B1) (A2) (B2) (E) (E)
                 (A2) (E) (E) (A1) (E) (E) (B2) (E) (E) (B2) (A1)
                 (E) (E) (E) (E) (B1) (A1) (A2) (E) (E) (B2) (E)
                 (E) (B2) (A2) (B2) (E) (E) (A1) (E) (E) (A2) (B2)
                 (A1) (A1) (E) (E) (B1) (B2) (A2) (E) (E) (B1)
                 (E) (E) (B2) (E) (E) (A1) (B1) (E) (E) (A1) (A2)
                 (B2) (A1) (B2) (A2) (E) (E) (E) (E) (A1) (B1)
                 (E) (E) (E) (E) (B1) (B2) (A1) (A1) (E) (E) (A2)
                 (E) (E) (A1) (B2) (E) (E) (B1) (A1) (E) (E) (A1)
                 (B2) (A2) (E) (E) (E) (E) (B1) (B2) (A2) (E) (E)
                 (A2) (E) (E) (B2) (B1) (B2) (E) (E) (B2) (A1)
                 (A1) (A2) (E) (E) (B1) (A1) (E) (E) (B1) (A1)
                 (E) (E) (E) (E) (B1) (B2) (E) (E) (A2) (E) (E)
                 (B2) (B1) (A1) (B2) (A2) (A2) (E) (E) (B1) (B2)
                 (E) (E) (E) (E) (A1) (E) (E) (A2) (E) (E) (B1)
                 (A2) (B2) (E) (E) (A1) (A2) (E) (E) (A1) (A1)
                 (B2) (B1) (E) (E) (E) (E) (E) (E) (B1) (A2) (E)
                 (E) (A1) (E) (E) (B2) (E) (E) (B1) (A2) (B1) (A1)
                 (A1) (E) (E) (B2) (B2) (A1) (A2) (E) (E) (B1)
                 (A2) (B2) (E) (E) (B1) (E) (E) (B2) (A2) (E) (E)
                 (B1) (E) (E) (B2) (B1) (A1) (E) (E) (B2) (A1)
                 (A2) (E) (E) (B1) (A2) (E) (E) (B2) (E) (E) (B2)
                 (A2) (A2) (B1) (E) (E) (A1) (B1) (A1) (E) (E)
                 (B2) (B1) (E) (E) (A1) (A2) (E) (E) (E) (E) (B2)
                 (A2) (A1) (A1) (E) (E) (E) (E) (B2) (E) (E) (B2)
                 (E) (E) (A1) (B1) (E) (E) (A2) (A1) (E) (E) (B1)
                 (A1) (B2) (A2) (E) (E) (A1) (E) (E) (B2) (E) (E)
                 (A2) (B2) (B1) (A2) (E) (E) (B1) (A1) (B2) (E)
                 (E) (A1) (E) (E) (A2) (B2) (B2) (E) (E) (B1) (A1)
                 (B2) (E) (E) (E) (E) (A1) (E) (E) (A1) (B1) (E)
                 (E) (A2) (B2) (E) (E) (A1) (E) (E) (B1) (B2) (A2)
                 (E) (E) (A1) (A1) (A2) (E) (E) (E) (E) (B1) (B2)
                 (E) (E) (B2) (E) (E) (E) (E) (A1) (B2) (A1) (E)
                 (E) (B1) (A2) (B2) (B1) (A1) (B1) (E) (E) (A2)
                 (E) (E) (A1) (E) (E) (B2) (B1) (A1) (B2) (E) (E)
                 (A2) (E) (E) (B2) (A1) (A2) (E) (E) (B2) (B2)
                 (E) (E) (B1) (A1) (E) (E) (E) (E) (A1) (B1) (E)
                 (E) (A2) (A1) (B2) (E) (E) (A1) (B2) (A2) (E)
                 (E) (B1) (A2) (A1) (B2) (B1) (E) (E) (E) (E) (B2)
                 (E) (E) (E) (E) (A2) (B2) (E) (E) (B1) (A1) (E)
                 (E) (A1) (B2) (B1) (E) (E) (A2) (A1) (E) (E) (A2)
                 (B2) (E) (E) (B1) (A1) (B2) (A1) (E) (E) (A1)
                 (E) (E) (E) (E) (A2) (E) (E) (E) (E) (B1) (B2)
                 (B2) (A1) (A2) (E) (E) (A2) (B1) (A2) (E) (E)
                 (A1) (E) (E) (B1) (B2) (E) (E) (B1) (E) (E) (A2)
                 (E) (E) (E) (E) (A1) (B2) (B2) (E) (E) (A2) (A1)
                 (B1) (B2) (E) (E) (E) (E) (A1) (B2) (B1) (A2)
                 (B2) (E) (E) (B2) (B1) (A1) (E) (E) (A2) (E) (E)
                 (A1) (B2) (A1) (B1) (E) (E) (A2) (E) (E) (B1)
                 (A1) (E) (E) (E) (E) (B2) (A2) (E) (E) (A1) (B1)
                 (E) (E) (B2) (A2) (E) (E) (A2) (A1) (B1) (B2)
                 (A1) (E) (E) (B1) (E) (E) (B2) (B1) (E) (E) (A1)
                 (E) (E) (A1) (B2) (E) (E) (A2) (B1) (E) (E) (A1)
                 (B2) (A2) (B2) (E) (E) (E) (E) (B1) (A1) (E) (E)
                 (A2) (B2) (E) (E) (B2) (E) (E) (B1) (A2) (B2)
                 (E) (E) (A1) (A1) (E) (E) (A2) (A1) (B2) (E) (E)
                 (E) (E) (B1) (B2) (A1) (E) (E) (A1) (B1) (E) (E)
                 (B2) (A2) (E) (E) (B1) (A2) (E) (E) (A1) (E) (E)
                 (A2) (B2) (E) (E) (A2) (B1) (B2) (A1) (E) (E)
                 (B1) (B2) (A2) (E) (E) (A1) (B2) (E) (E) (A1)
                 (E) (E) (A1) (B2) (B1) (E) (E) (E) (E) (A2) (B1)
                 (A1) (E) (E) (B2) (A1) (E) (E) (B2) (E) (E) (A2)
                 (A2) (B1) (A1) (E) (E) (B2) (E) (E) (B2) (E) (E)
                 (A1) (E) (E) (B2) (B1) (A2) (E) (E) (B1) (B2)
                 (A1) (A1) (E) (E) (A2) (E) (E) (E) (E) (B2) (A1)
                 (A1) (E) (E) (B1) (B2) (A2) (A1) (E) (E) (E) (E)
                 (A1) (B2) (B2) (E) (E) (A1) (E) (E) (A2) (B2)
                 (B1) (E) (E) (E) (E) (A2) (A1) (E) (E) (B1) (B2)
                 (A1) (B1) (B2) (E) (E) (E) (E) (A2) (A2) (B1)
                 (E) (E) (A1) (A2) (E) (E) (A1) (E) (E) (B1) (B2)
                 (B1) (E) (E) (E) (E) (B2) (A2) (A1) (E) (E) (B2)
                 (B2) (E) (E) (A1) (A1) (E) (E) (A1) (B2) (B2)
                 (E) (E) (A1) (B2) (E) (E) (A1) (E) (E) (A1) (B2)
                 (B2) (E) (E) (A1) (B2) (E) (E)
 The electronic state of the initial guess is 1-A1.
 Leave Link  401 at Fri Apr 16 23:04:34 2021, MaxMem=   104857600 cpu:            2559.4 elap:              56.3
 (Enter /s/ls4/users/knvvv/bin/g16sse/l502.exe)
 Integral symmetry usage will be decided dynamically.
 Closed shell SCF:
 Using DIIS extrapolation, IDIIS=  1040.
 NGot=   104857600 LenX=    98942784 LenY=    96037464
 Requested convergence on RMS density matrix=1.00D-08 within 128 cycles.
 Requested convergence on MAX density matrix=1.00D-06.
 Requested convergence on             energy=1.00D-06.
 No special actions if energy rises.
 Fock matrices will be formed incrementally for  20 cycles.
 Integral accuracy reduced to 1.0D-05 until final iterations.

 Cycle   1  Pass 0  IDiag  1:
 FoFJK:  IHMeth= 1 ICntrl=       0 DoSepK=F KAlg= 0 I1Cent=           0 FoldK=F
 IRaf= 870000000 NMat=       1 IRICut=       1 DoRegI=T DoRafI=F ISym2E= 1 IDoP0=0 IntGTp=1.
 FoFCou: FMM=F IPFlag=           0 FMFlag=      100000 FMFlg1=           0
         NFxFlg=           0 DoJE=F BraDBF=F KetDBF=F FulRan=T
         wScrn=  0.000000 ICntrl=         0 IOpCl=  0 I1Cent=           0 NGrid=           0
         NMat0=    1 NMatS0=      1 NMatT0=    0 NMatD0=    1 NMtDS0=    0 NMtDT0=    0
 Petite list used in FoFCou.
 CoulSu:  requested number of processors reduced to:  13 ShMem   1 Linda.
 CalDSu:  requested number of processors reduced to:  25 ShMem   1 Linda.
 E= -471.135273550093    
 DIIS: error= 3.77D-02 at cycle   1 NSaved=   1.
 NSaved= 1 IEnMin= 1 EnMin= -471.135273550093     IErMin= 1 ErrMin= 3.77D-02
 ErrMax= 3.77D-02  0.00D+00 EMaxC= 1.00D-01 BMatC= 7.84D-01 BMatP= 7.84D-01
 IDIUse=3 WtCom= 6.23D-01 WtEn= 3.77D-01
 Coeff-Com:  0.100D+01
 Coeff-En:   0.100D+01
 Coeff:      0.100D+01
 Gap=     0.260 Goal=   None    Shift=    0.000
 GapD=    0.260 DampG=1.000 DampE=0.500 DampFc=0.5000 IDamp=-1.
 Damping current iteration by 5.00D-01
 RMSDP=1.59D-03 MaxDP=2.31D-01              OVMax= 1.67D-01

 Cycle   2  Pass 0  IDiag  1:
 RMSU=  7.82D-04    CP:  9.37D-01
 CoulSu:  requested number of processors reduced to:  13 ShMem   1 Linda.
 CalDSu:  requested number of processors reduced to:  25 ShMem   1 Linda.
 E= -471.421077045456     Delta-E=       -0.285803495363 Rises=F Damp=T
 DIIS: error= 1.24D-02 at cycle   2 NSaved=   2.
 NSaved= 2 IEnMin= 2 EnMin= -471.421077045456     IErMin= 2 ErrMin= 1.24D-02
 ErrMax= 1.24D-02  0.00D+00 EMaxC= 1.00D-01 BMatC= 7.82D-02 BMatP= 7.84D-01
 IDIUse=3 WtCom= 8.76D-01 WtEn= 1.24D-01
 Coeff-Com: -0.154D+00 0.115D+01
 Coeff-En:   0.000D+00 0.100D+01
 Coeff:     -0.135D+00 0.113D+01
 Gap=     0.389 Goal=   None    Shift=    0.000
 RMSDP=1.40D-03 MaxDP=2.32D-01 DE=-2.86D-01 OVMax= 9.43D-02

 Cycle   3  Pass 0  IDiag  1:
 RMSU=  1.33D-03    CP:  9.99D-01  1.50D+00
 CoulSu:  requested number of processors reduced to:  13 ShMem   1 Linda.
 CalDSu:  requested number of processors reduced to:  25 ShMem   1 Linda.
 E= -471.688584176632     Delta-E=       -0.267507131176 Rises=F Damp=F
 DIIS: error= 7.12D-03 at cycle   3 NSaved=   3.
 NSaved= 3 IEnMin= 3 EnMin= -471.688584176632     IErMin= 3 ErrMin= 7.12D-03
 ErrMax= 7.12D-03  0.00D+00 EMaxC= 1.00D-01 BMatC= 1.20D-02 BMatP= 7.82D-02
 IDIUse=3 WtCom= 9.29D-01 WtEn= 7.12D-02
 Coeff-Com: -0.983D-01 0.304D+00 0.794D+00
 Coeff-En:   0.000D+00 0.000D+00 0.100D+01
 Coeff:     -0.913D-01 0.282D+00 0.809D+00
 Gap=     0.335 Goal=   None    Shift=    0.000
 DSYEVD-2 returned Info=        2809 IAlg= 4 N=  1404 NDim=  1404 NE2=       68401 trying  DSYEV.
 RMSDP=8.60D-04 MaxDP=1.80D-01 DE=-2.68D-01 OVMax= 2.40D-02

 Cycle   4  Pass 0  IDiag  1:
 RMSU=  7.57D-04    CP:  9.82D-01  1.99D+00  1.10D+00
 CoulSu:  requested number of processors reduced to:  13 ShMem   1 Linda.
 CalDSu:  requested number of processors reduced to:  25 ShMem   1 Linda.
 E= -471.696880072304     Delta-E=       -0.008295895672 Rises=F Damp=F
 DIIS: error= 4.83D-03 at cycle   4 NSaved=   4.
 NSaved= 4 IEnMin= 4 EnMin= -471.696880072304     IErMin= 4 ErrMin= 4.83D-03
 ErrMax= 4.83D-03  0.00D+00 EMaxC= 1.00D-01 BMatC= 4.49D-03 BMatP= 1.20D-02
 IDIUse=3 WtCom= 9.52D-01 WtEn= 4.83D-02
 Coeff-Com: -0.402D-01 0.963D-01 0.432D+00 0.511D+00
 Coeff-En:   0.000D+00 0.000D+00 0.232D+00 0.768D+00
 Coeff:     -0.383D-01 0.916D-01 0.423D+00 0.524D+00
 Gap=     0.350 Goal=   None    Shift=    0.000
 RMSDP=3.48D-03 MaxDP=9.68D-01 DE=-8.30D-03 OVMax= 1.16D-02

 Cycle   5  Pass 0  IDiag  1:
 RMSU=  1.68D-03    CP:  1.23D+00  3.00D+00  2.64D+00  3.00D+00
 CoulSu:  requested number of processors reduced to:  13 ShMem   1 Linda.
 CalDSu:  requested number of processors reduced to:  25 ShMem   1 Linda.
 E= -471.701123875626     Delta-E=       -0.004243803322 Rises=F Damp=F
 DIIS: error= 2.61D-03 at cycle   5 NSaved=   5.
 NSaved= 5 IEnMin= 5 EnMin= -471.701123875626     IErMin= 5 ErrMin= 2.61D-03
 ErrMax= 2.61D-03  0.00D+00 EMaxC= 1.00D-01 BMatC= 3.84D-04 BMatP= 4.49D-03
 IDIUse=3 WtCom= 9.74D-01 WtEn= 2.61D-02
 Coeff-Com: -0.219D-01 0.530D-01 0.256D+00 0.338D+00 0.376D+00
 Coeff-En:   0.000D+00 0.000D+00 0.000D+00 0.000D+00 0.100D+01
 Coeff:     -0.214D-01 0.516D-01 0.249D+00 0.329D+00 0.392D+00
 Gap=    -0.061 Goal=   None    Shift=    0.000
 DSYEVD-2 returned Info=     1482274 IAlg= 4 N=  1404 NDim=  1404 NE2=       68401 trying  DSYEV.
 RMSDP=2.33D+02 MaxDP=6.83D+04 DE=-4.24D-03 OVMax= 1.00D+00

 Problem detected with inexpensive integrals.
 Switching to full accuracy and repeating last cycle.
 Cycle   6  Pass 1  IDiag  1:
 CoulSu:  requested number of processors reduced to:  12 ShMem   1 Linda.
 CalDSu:  requested number of processors reduced to:  25 ShMem   1 Linda.
 E= -471.701013234147     Delta-E=        0.000110641479 Rises=F Damp=F
 DIIS: error= 2.66D-03 at cycle   1 NSaved=   1.
 NSaved= 1 IEnMin= 1 EnMin= -471.701013234147     IErMin= 1 ErrMin= 2.66D-03
 ErrMax= 2.66D-03  0.00D+00 EMaxC= 1.00D-01 BMatC= 3.07D-04 BMatP= 3.07D-04
 IDIUse=3 WtCom= 9.73D-01 WtEn= 2.66D-02
 Coeff-Com:  0.100D+01
 Coeff-En:   0.100D+01
 Coeff:      0.100D+01
 Gap=     1.275 Goal=   None    Shift=    0.000
 GapD=    1.275 DampG=2.000 DampE=1.000 DampFc=2.0000 IDamp=-1.
 RMSDP=5.08D-03 MaxDP=1.38D+00 DE= 1.11D-04 OVMax= 3.33D-03

 Cycle   7  Pass 1  IDiag  1:
 RMSU=  1.81D-03    CP:  2.17D-01
 CoulSu:  requested number of processors reduced to:  12 ShMem   1 Linda.
 CalDSu:  requested number of processors reduced to:  25 ShMem   1 Linda.
 E= -471.701130202789     Delta-E=       -0.000116968642 Rises=F Damp=F
 DIIS: error= 6.39D-04 at cycle   2 NSaved=   2.
 NSaved= 2 IEnMin= 2 EnMin= -471.701130202789     IErMin= 2 ErrMin= 6.39D-04
 ErrMax= 6.39D-04  0.00D+00 EMaxC= 1.00D-01 BMatC= 8.43D-05 BMatP= 3.07D-04
 IDIUse=3 WtCom= 9.94D-01 WtEn= 6.39D-03
 Coeff-Com:  0.290D+00 0.710D+00
 Coeff-En:   0.594D-01 0.941D+00
 Coeff:      0.288D+00 0.712D+00
 Gap=     0.349 Goal=   None    Shift=    0.000
 DSYEVD-2 returned Info=        2809 IAlg= 4 N=  1404 NDim=  1404 NE2=       68401 trying  DSYEV.
 RMSDP=4.95D-05 MaxDP=1.04D-02 DE=-1.17D-04 OVMax= 2.19D-03

 Cycle   8  Pass 1  IDiag  1:
 RMSU=  2.58D-05    CP:  2.10D-01  1.01D+00
 CoulSu:  requested number of processors reduced to:  12 ShMem   1 Linda.
 CalDSu:  requested number of processors reduced to:  25 ShMem   1 Linda.
 E= -471.701178252058     Delta-E=       -0.000048049269 Rises=F Damp=F
 DIIS: error= 3.88D-04 at cycle   3 NSaved=   3.
 NSaved= 3 IEnMin= 3 EnMin= -471.701178252058     IErMin= 3 ErrMin= 3.88D-04
 ErrMax= 3.88D-04  0.00D+00 EMaxC= 1.00D-01 BMatC= 2.91D-05 BMatP= 8.43D-05
 IDIUse=3 WtCom= 9.96D-01 WtEn= 3.88D-03
 Coeff-Com: -0.160D-02 0.368D+00 0.633D+00
 Coeff-En:   0.000D+00 0.267D+00 0.733D+00
 Coeff:     -0.160D-02 0.368D+00 0.634D+00
 Gap=     0.348 Goal=   None    Shift=    0.000
 DSYEVD-2 returned Info=        2809 IAlg= 4 N=  1404 NDim=  1404 NE2=       68401 trying  DSYEV.
 RMSDP=2.18D-05 MaxDP=4.26D-03 DE=-4.80D-05 OVMax= 8.54D-04

 Cycle   9  Pass 1  IDiag  1:
 RMSU=  7.18D-06    CP:  2.07D-01  1.01D+00  1.35D+00
 CoulSu:  requested number of processors reduced to:  13 ShMem   1 Linda.
 CalDSu:  requested number of processors reduced to:  25 ShMem   1 Linda.
 E= -471.701204229573     Delta-E=       -0.000025977515 Rises=F Damp=F
 DIIS: error= 4.14D-05 at cycle   4 NSaved=   4.
 NSaved= 4 IEnMin= 4 EnMin= -471.701204229573     IErMin= 4 ErrMin= 4.14D-05
 ErrMax= 4.14D-05  0.00D+00 EMaxC= 1.00D-01 BMatC= 4.42D-07 BMatP= 2.91D-05
 IDIUse=1 WtCom= 1.00D+00 WtEn= 0.00D+00
 Coeff-Com: -0.509D-02 0.156D+00 0.290D+00 0.559D+00
 Coeff:     -0.509D-02 0.156D+00 0.290D+00 0.559D+00
 Gap=     0.348 Goal=   None    Shift=    0.000
 DSYEVD-2 returned Info=        2809 IAlg= 4 N=  1404 NDim=  1404 NE2=       68401 trying  DSYEV.
 RMSDP=1.47D-06 MaxDP=2.91D-04 DE=-2.60D-05 OVMax= 9.47D-05

 Cycle  10  Pass 1  IDiag  1:
 RMSU=  4.78D-07    CP:  2.07D-01  1.01D+00  1.38D+00  9.84D-01
 CoulSu:  requested number of processors reduced to:  13 ShMem   1 Linda.
 CalDSu:  requested number of processors reduced to:  25 ShMem   1 Linda.
 E= -471.701204676850     Delta-E=       -0.000000447277 Rises=F Damp=F
 DIIS: error= 4.14D-06 at cycle   5 NSaved=   5.
 NSaved= 5 IEnMin= 5 EnMin= -471.701204676850     IErMin= 5 ErrMin= 4.14D-06
 ErrMax= 4.14D-06  0.00D+00 EMaxC= 1.00D-01 BMatC= 6.48D-09 BMatP= 4.42D-07
 IDIUse=1 WtCom= 1.00D+00 WtEn= 0.00D+00
 Coeff-Com: -0.108D-02 0.192D-01 0.369D-01 0.132D+00 0.813D+00
 Coeff:     -0.108D-02 0.192D-01 0.369D-01 0.132D+00 0.813D+00
 Gap=     0.348 Goal=   None    Shift=    0.000
 DSYEVD-2 returned Info=        2809 IAlg= 4 N=  1404 NDim=  1404 NE2=       68401 trying  DSYEV.
 RMSDP=4.60D-07 MaxDP=6.48D-05 DE=-4.47D-07 OVMax= 1.35D-05

 Cycle  11  Pass 1  IDiag  1:
 RMSU=  1.52D-07    CP:  2.07D-01  1.01D+00  1.40D+00  1.00D+00  1.05D+00
 CoulSu:  requested number of processors reduced to:  13 ShMem   1 Linda.
 CalDSu:  requested number of processors reduced to:  25 ShMem   1 Linda.
 E= -471.701204683244     Delta-E=       -0.000000006394 Rises=F Damp=F
 DIIS: error= 8.36D-07 at cycle   6 NSaved=   6.
 NSaved= 6 IEnMin= 6 EnMin= -471.701204683244     IErMin= 6 ErrMin= 8.36D-07
 ErrMax= 8.36D-07  0.00D+00 EMaxC= 1.00D-01 BMatC= 3.69D-10 BMatP= 6.48D-09
 IDIUse=1 WtCom= 1.00D+00 WtEn= 0.00D+00
 Coeff-Com:  0.317D-03-0.118D-01-0.222D-01-0.332D-01 0.104D+00 0.963D+00
 Coeff:      0.317D-03-0.118D-01-0.222D-01-0.332D-01 0.104D+00 0.963D+00
 Gap=     0.348 Goal=   None    Shift=    0.000
 DSYEVD-2 returned Info=        2809 IAlg= 4 N=  1404 NDim=  1404 NE2=       68401 trying  DSYEV.
 RMSDP=1.31D-07 MaxDP=1.89D-05 DE=-6.39D-09 OVMax= 3.86D-06

 Cycle  12  Pass 1  IDiag  1:
 RMSU=  3.21D-08    CP:  2.07D-01  1.01D+00  1.40D+00  1.00D+00  1.10D+00
                    CP:  1.24D+00
 CoulSu:  requested number of processors reduced to:  13 ShMem   1 Linda.
 CalDSu:  requested number of processors reduced to:  25 ShMem   1 Linda.
 E= -471.701204683472     Delta-E=       -0.000000000228 Rises=F Damp=F
 DIIS: error= 1.82D-07 at cycle   7 NSaved=   7.
 NSaved= 7 IEnMin= 7 EnMin= -471.701204683472     IErMin= 7 ErrMin= 1.82D-07
 ErrMax= 1.82D-07  0.00D+00 EMaxC= 1.00D-01 BMatC= 1.33D-11 BMatP= 3.69D-10
 IDIUse=1 WtCom= 1.00D+00 WtEn= 0.00D+00
 Coeff-Com:  0.104D-03-0.320D-02-0.607D-02-0.111D-01 0.209D-02 0.228D+00
 Coeff-Com:  0.790D+00
 Coeff:      0.104D-03-0.320D-02-0.607D-02-0.111D-01 0.209D-02 0.228D+00
 Coeff:      0.790D+00
 Gap=     0.348 Goal=   None    Shift=    0.000
 DSYEVD-2 returned Info=     1482274 IAlg= 4 N=  1404 NDim=  1404 NE2=       68401 trying  DSYEV.
 RMSDP=2.50D-08 MaxDP=4.76D-06 DE=-2.28D-10 OVMax= 6.20D-07

 Cycle  13  Pass 1  IDiag  1:
 RMSU=  6.78D-09    CP:  2.07D-01  1.01D+00  1.40D+00  1.00D+00  1.10D+00
                    CP:  1.25D+00  1.04D+00
 CoulSu:  requested number of processors reduced to:  13 ShMem   1 Linda.
 CalDSu:  requested number of processors reduced to:  25 ShMem   1 Linda.
 E= -471.701204683539     Delta-E=       -0.000000000067 Rises=F Damp=F
 DIIS: error= 4.25D-08 at cycle   8 NSaved=   8.
 NSaved= 8 IEnMin= 8 EnMin= -471.701204683539     IErMin= 8 ErrMin= 4.25D-08
 ErrMax= 4.25D-08  0.00D+00 EMaxC= 1.00D-01 BMatC= 6.43D-13 BMatP= 1.33D-11
 IDIUse=1 WtCom= 1.00D+00 WtEn= 0.00D+00
 Coeff-Com:  0.220D-05 0.355D-04 0.748D-04-0.303D-03-0.547D-02-0.978D-02
 Coeff-Com:  0.159D+00 0.856D+00
 Coeff:      0.220D-05 0.355D-04 0.748D-04-0.303D-03-0.547D-02-0.978D-02
 Coeff:      0.159D+00 0.856D+00
 Gap=     0.348 Goal=   None    Shift=    0.000
 DSYEVD-2 returned Info=        2809 IAlg= 4 N=  1404 NDim=  1404 NE2=       68401 trying  DSYEV.
 RMSDP=1.09D-08 MaxDP=2.29D-06 DE=-6.71D-11 OVMax= 1.34D-07

 Cycle  14  Pass 1  IDiag  1:
 RMSU=  2.03D-09    CP:  2.07D-01  1.01D+00  1.40D+00  1.00D+00  1.10D+00
                    CP:  1.26D+00  1.04D+00  1.18D+00
 CoulSu:  requested number of processors reduced to:  13 ShMem   1 Linda.
 CalDSu:  requested number of processors reduced to:  25 ShMem   1 Linda.
 E= -471.701204683499     Delta-E=        0.000000000040 Rises=F Damp=F
 DIIS: error= 1.09D-08 at cycle   9 NSaved=   9.
 NSaved= 9 IEnMin= 8 EnMin= -471.701204683539     IErMin= 9 ErrMin= 1.09D-08
 ErrMax= 1.09D-08  0.00D+00 EMaxC= 1.00D-01 BMatC= 5.19D-14 BMatP= 6.43D-13
 IDIUse=1 WtCom= 1.00D+00 WtEn= 0.00D+00
 Coeff-Com: -0.219D-05 0.106D-03 0.205D-03 0.198D-03-0.220D-02-0.104D-01
 Coeff-Com:  0.353D-01 0.316D+00 0.661D+00
 Coeff:     -0.219D-05 0.106D-03 0.205D-03 0.198D-03-0.220D-02-0.104D-01
 Coeff:      0.353D-01 0.316D+00 0.661D+00
 Gap=     0.348 Goal=   None    Shift=    0.000
 DSYEVD-2 returned Info=        2809 IAlg= 4 N=  1404 NDim=  1404 NE2=       68401 trying  DSYEV.
 RMSDP=9.20D-10 MaxDP=2.11D-07 DE= 4.05D-11 OVMax= 3.55D-08

 SCF Done:  E(RM062X) =  -471.701204683     A.U. after   14 cycles
            NFock= 14  Conv=0.92D-09     -V/T= 2.0056
 KE= 4.690699500476D+02 PE=-2.773557636763D+03 EE= 9.915648332869D+02
 Leave Link  502 at Fri Apr 16 23:59:03 2021, MaxMem=   104857600 cpu:          123391.5 elap:            3269.3
 (Enter /s/ls4/users/knvvv/bin/g16sse/l601.exe)
 Copying SCF densities to generalized density rwf, IOpCl= 0 IROHF=0.

 **********************************************************************

            Population analysis using the SCF density.

 **********************************************************************

 Orbital symmetries:
       Occupied  (A1) (E) (E) (B2) (E) (E) (A1) (B2) (E) (E) (A1)
                 (B2) (A1) (E) (E) (B2) (B2) (E) (E) (A1) (A1)
                 (E) (E) (B1) (A1) (B2) (B2) (E) (E) (E) (E) (A2)
                 (E) (E) (A2) (B2) (A1) (B2) (E) (E) (A1) (B1)
                 (E) (E) (A1) (B1) (E) (E)
       Virtual   (A1) (E) (E) (B2) (A1) (B1) (E) (E) (B2) (E) (E)
                 (B2) (A1) (A2) (E) (E) (A1) (A1) (A2) (E) (E)
                 (B2) (E) (E) (E) (E) (B1) (B2) (B2) (E) (E) (A1)
                 (B1) (E) (E) (B2) (A2) (E) (E) (A1) (A2) (B2)
                 (E) (E) (A1) (A1) (B2) (B1) (A2) (E) (E) (E) (E)
                 (B2) (A1) (B2) (B1) (E) (E) (E) (E) (A2) (E) (E)
                 (A1) (B2) (E) (E) (E) (E) (B2) (B1) (B2) (A1)
                 (E) (E) (E) (E) (A1) (A2) (B1) (E) (E) (A1) (B2)
                 (A1) (E) (E) (A1) (E) (E) (B2) (A2) (B2) (A1)
                 (E) (E) (E) (E) (B1) (B2) (A2) (A1) (E) (E) (E)
                 (E) (B2) (E) (E) (A1) (A2) (B1) (A1) (B2) (E)
                 (E) (A2) (E) (E) (B2) (A1) (E) (E) (A1) (B1) (E)
                 (E) (E) (E) (B2) (B1) (B2) (A2) (E) (E) (E) (E)
                 (E) (E) (B2) (A1) (B1) (A2) (B2) (E) (E) (A2)
                 (B1) (A2) (A1) (E) (E) (A1) (E) (E) (B1) (A1)
                 (B2) (B2) (A1) (E) (E) (A2) (B1) (A1) (B2) (E)
                 (E) (E) (E) (B2) (B2) (E) (E) (A1) (A2) (B1) (E)
                 (E) (A1) (E) (E) (E) (E) (B2) (E) (E) (A1) (E)
                 (E) (B1) (B2) (A1) (A1) (E) (E) (B2) (A1) (B1)
                 (E) (E) (A2) (E) (E) (E) (E) (B2) (E) (E) (A2)
                 (B2) (A2) (E) (E) (A1) (E) (E) (B2) (B1) (E) (E)
                 (B2) (B2) (E) (E) (A2) (A1) (A1) (B2) (E) (E)
                 (A2) (B2) (B1) (A1) (E) (E) (E) (E) (B1) (B1)
                 (A1) (E) (E) (E) (E) (A1) (A2) (E) (E) (B2) (A1)
                 (E) (E) (B2) (A2) (A1) (B1) (E) (E) (B1) (B2)
                 (A1) (E) (E) (B2) (A2) (E) (E) (B1) (A1) (A2)
                 (E) (E) (E) (E) (B2) (E) (E) (A1) (B2) (B2) (E)
                 (E) (B2) (A2) (A1) (E) (E) (B1) (E) (E) (A1) (B1)
                 (E) (E) (A2) (E) (E) (B1) (A1) (E) (E) (B2) (A2)
                 (A1) (E) (E) (E) (E) (B2) (B1) (A1) (E) (E) (B1)
                 (A1) (A2) (E) (E) (B2) (E) (E) (B2) (A1) (B2)
                 (B1) (A2) (A1) (E) (E) (A1) (B2) (E) (E) (E) (E)
                 (B1) (E) (E) (B2) (E) (E) (A2) (E) (E) (A2) (B2)
                 (E) (E) (B1) (A1) (E) (E) (B1) (A2) (A1) (B2)
                 (E) (E) (B1) (E) (E) (A2) (A2) (E) (E) (A1) (E)
                 (E) (B2) (A1) (E) (E) (A1) (E) (E) (B1) (E) (E)
                 (A2) (B2) (A1) (B2) (E) (E) (A2) (B2) (A2) (B2)
                 (A1) (B1) (E) (E) (A1) (B2) (E) (E) (A1) (B2)
                 (E) (E) (B1) (A2) (E) (E) (B1) (B2) (E) (E) (E)
                 (E) (B1) (A1) (E) (E) (B2) (E) (E) (A2) (B1) (E)
                 (E) (B2) (A1) (E) (E) (E) (E) (A1) (A1) (B2) (A2)
                 (E) (E) (B1) (A1) (E) (E) (B2) (A2) (A1) (E) (E)
                 (B2) (B1) (A2) (E) (E) (A1) (E) (E) (A1) (E) (E)
                 (B1) (A2) (B2) (E) (E) (E) (E) (B1) (B2) (B1)
                 (E) (E) (A1) (A2) (B2) (E) (E) (E) (E) (A1) (B1)
                 (B2) (E) (E) (A2) (E) (E) (A1) (B2) (B1) (A2)
                 (A1) (E) (E) (B2) (A2) (A1) (E) (E) (B1) (E) (E)
                 (A1) (E) (E) (E) (E) (B2) (A2) (B2) (A1) (E) (E)
                 (B2) (E) (E) (A1) (A2) (B2) (B2) (E) (E) (B1)
                 (A2) (E) (E) (E) (E) (A2) (A1) (B1) (E) (E) (B2)
                 (B1) (E) (E) (A1) (E) (E) (B1) (A1) (E) (E) (A2)
                 (B2) (E) (E) (A1) (B2) (B1) (E) (E) (A1) (B1)
                 (E) (E) (A1) (B2) (E) (E) (B1) (E) (E) (B2) (A1)
                 (E) (E) (A2) (E) (E) (B2) (A2) (E) (E) (A1) (B2)
                 (E) (E) (A1) (B1) (B2) (B1) (A2) (E) (E) (B2)
                 (E) (E) (A2) (A1) (E) (E) (A1) (B2) (E) (E) (E)
                 (E) (A1) (E) (E) (B1) (B2) (E) (E) (A2) (E) (E)
                 (B2) (A2) (E) (E) (B2) (A1) (B2) (A2) (A1) (E)
                 (E) (A1) (E) (E) (B1) (B2) (A2) (E) (E) (B1) (E)
                 (E) (A1) (E) (E) (B2) (E) (E) (A1) (B1) (B2) (A2)
                 (A2) (E) (E) (A1) (B2) (E) (E) (B1) (E) (E) (A1)
                 (B1) (E) (E) (B2) (A1) (A1) (E) (E) (A2) (E) (E)
                 (B2) (A1) (E) (E) (B1) (E) (E) (A1) (B2) (A1)
                 (E) (E) (A2) (E) (E) (B1) (B2) (A2) (A2) (E) (E)
                 (B1) (E) (E) (B2) (B2) (E) (E) (A1) (B2) (A2)
                 (A1) (E) (E) (B1) (A1) (B1) (E) (E) (A1) (E) (E)
                 (E) (E) (B1) (B2) (E) (E) (A2) (A1) (B2) (E) (E)
                 (B1) (B2) (A2) (A2) (E) (E) (B1) (E) (E) (B2)
                 (E) (E) (A1) (E) (E) (A2) (E) (E) (A2) (B1) (B2)
                 (E) (E) (A1) (B1) (A2) (B2) (E) (E) (E) (E) (A1)
                 (A1) (E) (E) (E) (E) (B1) (A2) (E) (E) (A1) (E)
                 (E) (B1) (B1) (A2) (E) (E) (A2) (E) (E) (B2) (A2)
                 (B1) (A1) (E) (E) (B2) (A1) (E) (E) (B1) (B2)
                 (A1) (B2) (E) (E) (E) (E) (B1) (B1) (A2) (E) (E)
                 (B2) (A1) (B2) (E) (E) (B2) (E) (E) (A2) (A2)
                 (A1) (B1) (B2) (E) (E) (E) (E) (A2) (B2) (A1)
                 (E) (E) (A2) (B2) (A1) (B1) (E) (E) (B1) (A1)
                 (A2) (B1) (E) (E) (E) (E) (A2) (E) (E) (B2) (A1)
                 (E) (E) (B2) (A1) (E) (E) (E) (E) (E) (E) (B2)
                 (A1) (B1) (A2) (E) (E) (B2) (E) (E) (B1) (A1)
                 (A1) (A1) (E) (E) (A2) (B2) (E) (E) (A2) (E) (E)
                 (B2) (B1) (A2) (B1) (E) (E) (A1) (B2) (E) (E)
                 (A1) (A2) (B2) (E) (E) (E) (E) (E) (E) (B2) (A1)
                 (B2) (E) (E) (B1) (A1) (B1) (A1) (E) (E) (E) (E)
                 (B2) (A2) (E) (E) (E) (E) (A1) (B1) (B2) (A2)
                 (A1) (A2) (E) (E) (E) (E) (B1) (A1) (E) (E) (B2)
                 (E) (E) (B2) (E) (E) (A2) (B1) (E) (E) (E) (E)
                 (A1) (B1) (B2) (B2) (E) (E) (A1) (A1) (B1) (A2)
                 (E) (E) (B1) (B2) (E) (E) (A1) (A2) (E) (E) (B2)
                 (A1) (A2) (A1) (E) (E) (B2) (E) (E) (B1) (E) (E)
                 (B2) (B2) (E) (E) (A1) (E) (E) (B1) (A1) (A2)
                 (E) (E) (A1) (B2) (E) (E) (A1) (A2) (B2) (E) (E)
                 (B2) (A1) (B1) (A2) (E) (E) (B1) (B2) (E) (E)
                 (E) (E) (B1) (E) (E) (A1) (B2) (A2) (E) (E) (E)
                 (E) (A1) (B1) (B2) (A2) (E) (E) (E) (E) (A2) (A1)
                 (B1) (E) (E) (B2) (A1) (B2) (E) (E) (A1) (E) (E)
                 (A2) (E) (E) (E) (E) (A1) (B1) (E) (E) (B2) (B1)
                 (A2) (A1) (B2) (A2) (E) (E) (E) (E) (A2) (B1)
                 (E) (E) (A1) (A2) (B2) (B1) (E) (E) (E) (E) (A1)
                 (E) (E) (B2) (A2) (E) (E) (A1) (E) (E) (B2) (E)
                 (E) (B1) (E) (E) (B1) (B2) (A1) (B2) (A2) (E)
                 (E) (B2) (B1) (A1) (E) (E) (B2) (A2) (E) (E) (B1)
                 (A1) (B2) (A2) (E) (E) (A1) (E) (E) (A1) (B1)
                 (E) (E) (E) (E) (E) (E) (A2) (B1) (A1) (A2) (B2)
                 (E) (E) (A2) (B2) (B1) (A1) (E) (E) (B2) (B1)
                 (A1) (E) (E) (E) (E) (B2) (E) (E) (A1) (E) (E)
                 (A1) (B2) (A2) (B1) (E) (E) (A1) (B2) (B1) (E)
                 (E) (A2) (E) (E) (B2) (B1) (E) (E) (A1) (E) (E)
                 (B2) (A2) (E) (E) (B1) (B2) (E) (E) (A1) (B2)
                 (E) (E) (A2) (A1) (E) (E) (A2) (E) (E) (B2) (A1)
                 (B1) (E) (E) (B2) (A1) (E) (E) (B1) (E) (E) (E)
                 (E) (A1) (A2) (B2) (B1) (A2) (E) (E) (A1) (A2)
                 (B2) (A2) (E) (E) (E) (E) (B1) (E) (E) (A1) (B1)
                 (B2) (B2) (E) (E) (A2) (B2) (E) (E) (A1) (A1)
                 (E) (E) (B1) (E) (E) (B2) (A1) (A2) (E) (E) (B1)
                 (A1) (E) (E) (E) (E) (B2) (E) (E) (B2) (A1) (A2)
                 (A2) (B1) (A1) (E) (E) (B2) (E) (E) (E) (E) (B2)
                 (A1) (E) (E) (B2) (A2) (E) (E) (B1) (A1) (B1)
                 (A1) (A2) (B2) (E) (E) (E) (E) (A1) (E) (E) (B2)
                 (B2) (E) (E) (B1) (A1) (A2) (E) (E) (A1) (E) (E)
                 (B2) (A1) (B2) (E) (E) (A1) (A2) (E) (E) (B1)
                 (E) (E) (E) (E) (B2) (A2) (B1) (E) (E) (A1) (B2)
                 (A1) (B1) (B2) (E) (E) (A2) (E) (E) (A2) (B1)
                 (E) (E) (A1) (A2) (E) (E) (A1) (E) (E) (B1) (B2)
                 (B1) (E) (E) (E) (E) (B2) (A2) (A1) (E) (E) (B2)
                 (B2) (E) (E) (A1) (A1) (E) (E) (A1) (B2) (B2)
                 (E) (E) (A1) (B2) (E) (E) (A1) (E) (E) (A1) (B2)
                 (B2) (E) (E) (A1) (B2) (E) (E)
 The electronic state is 1-A1.
 Alpha  occ. eigenvalues --  -10.54529 -10.54500 -10.54500 -10.54471 -10.52316
 Alpha  occ. eigenvalues --  -10.52316 -10.52316 -10.52316 -10.52182 -10.52182
 Alpha  occ. eigenvalues --  -10.52182 -10.52182  -0.96547  -0.86600  -0.86600
 Alpha  occ. eigenvalues --   -0.82098  -0.79715  -0.76492  -0.76492  -0.75284
 Alpha  occ. eigenvalues --   -0.74192  -0.62462  -0.62462  -0.55063  -0.55031
 Alpha  occ. eigenvalues --   -0.53777  -0.51446  -0.50795  -0.50795  -0.46455
 Alpha  occ. eigenvalues --   -0.46455  -0.46400  -0.45342  -0.45342  -0.44999
 Alpha  occ. eigenvalues --   -0.44737  -0.44434  -0.43423  -0.42687  -0.42687
 Alpha  occ. eigenvalues --   -0.41991  -0.41794  -0.38637  -0.38637  -0.34535
 Alpha  occ. eigenvalues --   -0.33889  -0.31868  -0.31868
 Alpha virt. eigenvalues --    0.02921   0.04926   0.04926   0.05141   0.06470
 Alpha virt. eigenvalues --    0.07624   0.08067   0.08067   0.08096   0.09984
 Alpha virt. eigenvalues --    0.09984   0.10663   0.11121   0.11724   0.12165
 Alpha virt. eigenvalues --    0.12165   0.12647   0.13821   0.14289   0.14996
 Alpha virt. eigenvalues --    0.14996   0.15163   0.15536   0.15536   0.16454
 Alpha virt. eigenvalues --    0.16454   0.17317   0.17584   0.18621   0.19231
 Alpha virt. eigenvalues --    0.19231   0.20334   0.20981   0.21992   0.21992
 Alpha virt. eigenvalues --    0.22637   0.23414   0.23855   0.23855   0.25513
 Alpha virt. eigenvalues --    0.25919   0.26363   0.27053   0.27053   0.27947
 Alpha virt. eigenvalues --    0.28412   0.29119   0.29334   0.30474   0.30916
 Alpha virt. eigenvalues --    0.30916   0.31435   0.31435   0.32008   0.32569
 Alpha virt. eigenvalues --    0.32694   0.33025   0.33360   0.33360   0.33720
 Alpha virt. eigenvalues --    0.33720   0.33932   0.34543   0.34543   0.34841
 Alpha virt. eigenvalues --    0.35028   0.35608   0.35608   0.36417   0.36417
 Alpha virt. eigenvalues --    0.36859   0.36968   0.37124   0.38045   0.38419
 Alpha virt. eigenvalues --    0.38419   0.38984   0.38984   0.39538   0.39894
 Alpha virt. eigenvalues --    0.39969   0.42235   0.42235   0.42528   0.42739
 Alpha virt. eigenvalues --    0.43323   0.44373   0.44373   0.44946   0.47507
 Alpha virt. eigenvalues --    0.47507   0.49937   0.51597   0.52289   0.52925
 Alpha virt. eigenvalues --    0.52935   0.52935   0.54666   0.54666   0.55094
 Alpha virt. eigenvalues --    0.55782   0.57682   0.58162   0.58604   0.58604
 Alpha virt. eigenvalues --    0.60097   0.60097   0.61497   0.62555   0.62555
 Alpha virt. eigenvalues --    0.62665   0.63239   0.63520   0.63836   0.64646
 Alpha virt. eigenvalues --    0.66227   0.66227   0.68732   0.69433   0.69433
 Alpha virt. eigenvalues --    0.69935   0.70235   0.70639   0.70639   0.73599
 Alpha virt. eigenvalues --    0.73856   0.74145   0.74145   0.74830   0.74830
 Alpha virt. eigenvalues --    0.75822   0.76183   0.77604   0.77711   0.78263
 Alpha virt. eigenvalues --    0.78263   0.78724   0.78724   0.80167   0.80167
 Alpha virt. eigenvalues --    0.80297   0.80606   0.81846   0.81985   0.82783
 Alpha virt. eigenvalues --    0.84100   0.84100   0.84215   0.84659   0.86822
 Alpha virt. eigenvalues --    0.87404   0.87552   0.87552   0.87657   0.88679
 Alpha virt. eigenvalues --    0.88679   0.88694   0.89483   0.89818   0.90561
 Alpha virt. eigenvalues --    0.91984   0.93705   0.93705   0.94183   0.94512
 Alpha virt. eigenvalues --    0.94888   0.95381   0.95559   0.95559   0.97857
 Alpha virt. eigenvalues --    0.97857   0.98254   0.98476   0.98556   0.98556
 Alpha virt. eigenvalues --    0.98748   0.99217   1.00357   1.00596   1.00596
 Alpha virt. eigenvalues --    1.00772   1.01304   1.01304   1.02780   1.02780
 Alpha virt. eigenvalues --    1.03516   1.04765   1.04765   1.05491   1.06317
 Alpha virt. eigenvalues --    1.06317   1.06981   1.07598   1.09098   1.10707
 Alpha virt. eigenvalues --    1.10726   1.10726   1.12835   1.12850   1.12960
 Alpha virt. eigenvalues --    1.13488   1.13488   1.14001   1.14577   1.14577
 Alpha virt. eigenvalues --    1.17843   1.17843   1.18465   1.19656   1.19656
 Alpha virt. eigenvalues --    1.21167   1.21359   1.21554   1.21576   1.21576
 Alpha virt. eigenvalues --    1.22489   1.22960   1.22960   1.23474   1.24507
 Alpha virt. eigenvalues --    1.27056   1.27056   1.27600   1.29477   1.30168
 Alpha virt. eigenvalues --    1.30168   1.30642   1.30874   1.32090   1.32436
 Alpha virt. eigenvalues --    1.32659   1.32659   1.33279   1.35761   1.36609
 Alpha virt. eigenvalues --    1.36684   1.38304   1.38304   1.38765   1.38765
 Alpha virt. eigenvalues --    1.40242   1.42028   1.42399   1.42461   1.42461
 Alpha virt. eigenvalues --    1.44750   1.44750   1.44951   1.46760   1.47139
 Alpha virt. eigenvalues --    1.47139   1.47830   1.50047   1.50411   1.50411
 Alpha virt. eigenvalues --    1.50440   1.50674   1.51867   1.52819   1.54099
 Alpha virt. eigenvalues --    1.54099   1.55253   1.55326   1.55909   1.57300
 Alpha virt. eigenvalues --    1.57300   1.58063   1.58438   1.58721   1.58721
 Alpha virt. eigenvalues --    1.59276   1.59578   1.60936   1.61017   1.61017
 Alpha virt. eigenvalues --    1.61118   1.61118   1.61504   1.63182   1.63182
 Alpha virt. eigenvalues --    1.63340   1.64593   1.68017   1.70343   1.70343
 Alpha virt. eigenvalues --    1.70893   1.71611   1.72024   1.72828   1.72828
 Alpha virt. eigenvalues --    1.73730   1.74594   1.74594   1.75822   1.80979
 Alpha virt. eigenvalues --    1.81334   1.81334   1.83946   1.84090   1.84090
 Alpha virt. eigenvalues --    1.84150   1.84864   1.85284   1.85284   1.87998
 Alpha virt. eigenvalues --    1.88628   1.89609   1.90863   1.90863   1.91893
 Alpha virt. eigenvalues --    1.91893   1.92018   1.92692   1.93402   1.94985
 Alpha virt. eigenvalues --    1.94985   1.97244   1.97245   1.98344   1.98703
 Alpha virt. eigenvalues --    1.98703   1.99982   2.01492   2.01492   2.04103
 Alpha virt. eigenvalues --    2.04113   2.04870   2.05097   2.06177   2.06646
 Alpha virt. eigenvalues --    2.08650   2.08650   2.08700   2.08813   2.08885
 Alpha virt. eigenvalues --    2.08885   2.10403   2.10403   2.11332   2.12295
 Alpha virt. eigenvalues --    2.12295   2.13878   2.14169   2.14169   2.14833
 Alpha virt. eigenvalues --    2.16084   2.16084   2.18210   2.18626   2.19075
 Alpha virt. eigenvalues --    2.19075   2.19411   2.20515   2.21968   2.21968
 Alpha virt. eigenvalues --    2.22837   2.23031   2.24095   2.24223   2.26405
 Alpha virt. eigenvalues --    2.26405   2.26479   2.26897   2.26897   2.27217
 Alpha virt. eigenvalues --    2.28566   2.28712   2.28712   2.29021   2.29816
 Alpha virt. eigenvalues --    2.29816   2.29851   2.30343   2.32801   2.32801
 Alpha virt. eigenvalues --    2.33053   2.33944   2.33944   2.34377   2.35193
 Alpha virt. eigenvalues --    2.35193   2.35886   2.35998   2.36402   2.36654
 Alpha virt. eigenvalues --    2.39531   2.39531   2.40319   2.40466   2.41387
 Alpha virt. eigenvalues --    2.42677   2.42844   2.43146   2.43765   2.43765
 Alpha virt. eigenvalues --    2.46095   2.46292   2.47028   2.47028   2.48643
 Alpha virt. eigenvalues --    2.48819   2.49610   2.49610   2.49893   2.50806
 Alpha virt. eigenvalues --    2.50826   2.50826   2.52667   2.52757   2.53110
 Alpha virt. eigenvalues --    2.53110   2.54471   2.54471   2.54707   2.55287
 Alpha virt. eigenvalues --    2.56155   2.56155   2.57412   2.58549   2.58549
 Alpha virt. eigenvalues --    2.58697   2.58789   2.60735   2.60735   2.61420
 Alpha virt. eigenvalues --    2.61741   2.62356   2.62356   2.64214   2.64214
 Alpha virt. eigenvalues --    2.64650   2.65604   2.65675   2.65973   2.66479
 Alpha virt. eigenvalues --    2.66479   2.67460   2.69643   2.70607   2.70607
 Alpha virt. eigenvalues --    2.71548   2.71664   2.73555   2.73649   2.73649
 Alpha virt. eigenvalues --    2.74189   2.75664   2.77185   2.77438   2.77438
 Alpha virt. eigenvalues --    2.78212   2.78906   2.78906   2.80283   2.80394
 Alpha virt. eigenvalues --    2.80394   2.80434   2.80969   2.82946   2.84357
 Alpha virt. eigenvalues --    2.84357   2.85534   2.85534   2.85700   2.87718
 Alpha virt. eigenvalues --    2.89303   2.89655   2.89655   2.90393   2.90863
 Alpha virt. eigenvalues --    2.92504   2.93134   2.93134   2.94054   2.94054
 Alpha virt. eigenvalues --    2.94183   2.94982   2.96351   2.96379   2.96379
 Alpha virt. eigenvalues --    2.96567   2.97536   2.97536   2.97944   2.99129
 Alpha virt. eigenvalues --    2.99658   3.00164   3.00465   3.01348   3.01348
 Alpha virt. eigenvalues --    3.02581   3.03206   3.03261   3.03789   3.03789
 Alpha virt. eigenvalues --    3.05112   3.05871   3.05871   3.06044   3.06117
 Alpha virt. eigenvalues --    3.06117   3.08374   3.08374   3.08428   3.09398
 Alpha virt. eigenvalues --    3.11713   3.12887   3.12998   3.12998   3.13915
 Alpha virt. eigenvalues --    3.14597   3.14597   3.15851   3.16425   3.17691
 Alpha virt. eigenvalues --    3.18462   3.19158   3.19158   3.19216   3.19957
 Alpha virt. eigenvalues --    3.20551   3.20551   3.22369   3.22369   3.22979
 Alpha virt. eigenvalues --    3.23053   3.24370   3.24514   3.24514   3.25666
 Alpha virt. eigenvalues --    3.27011   3.28260   3.28260   3.28909   3.29828
 Alpha virt. eigenvalues --    3.29828   3.31385   3.32253   3.32822   3.32822
 Alpha virt. eigenvalues --    3.35193   3.35298   3.36184   3.36184   3.36878
 Alpha virt. eigenvalues --    3.37142   3.38700   3.39381   3.39381   3.39681
 Alpha virt. eigenvalues --    3.40002   3.40861   3.40861   3.42730   3.43621
 Alpha virt. eigenvalues --    3.44163   3.44163   3.45114   3.46494   3.46494
 Alpha virt. eigenvalues --    3.47270   3.48198   3.48256   3.48256   3.50091
 Alpha virt. eigenvalues --    3.50963   3.50963   3.51659   3.53556   3.54014
 Alpha virt. eigenvalues --    3.54014   3.54117   3.55017   3.55638   3.55638
 Alpha virt. eigenvalues --    3.56206   3.57690   3.58839   3.58999   3.59892
 Alpha virt. eigenvalues --    3.60240   3.60240   3.64059   3.64826   3.64826
 Alpha virt. eigenvalues --    3.66213   3.66410   3.67289   3.67289   3.71946
 Alpha virt. eigenvalues --    3.72390   3.73098   3.73098   3.74792   3.74792
 Alpha virt. eigenvalues --    3.75022   3.76059   3.76059   3.76428   3.76700
 Alpha virt. eigenvalues --    3.77271   3.77271   3.79560   3.79761   3.79761
 Alpha virt. eigenvalues --    3.81676   3.84115   3.84127   3.84127   3.85171
 Alpha virt. eigenvalues --    3.85771   3.86046   3.87006   3.87951   3.89109
 Alpha virt. eigenvalues --    3.89109   3.90151   3.90252   3.90252   3.92442
 Alpha virt. eigenvalues --    3.93622   3.94038   3.95750   3.95750   3.95966
 Alpha virt. eigenvalues --    3.96396   3.96396   3.97687   3.98075   3.98075
 Alpha virt. eigenvalues --    3.98425   3.99413   3.99413   4.00315   4.02063
 Alpha virt. eigenvalues --    4.02191   4.03480   4.04842   4.05221   4.05221
 Alpha virt. eigenvalues --    4.05463   4.05908   4.06594   4.06594   4.12904
 Alpha virt. eigenvalues --    4.13531   4.13531   4.14083   4.18901   4.22081
 Alpha virt. eigenvalues --    4.22081   4.22400   4.31254   4.38656   4.38943
 Alpha virt. eigenvalues --    4.38943   4.43370   4.44554   4.44554   4.49294
 Alpha virt. eigenvalues --    4.49923   4.53073   4.53073   4.55571   4.60912
 Alpha virt. eigenvalues --    4.60912   4.62341   4.63828   4.65508   4.66893
 Alpha virt. eigenvalues --    4.66893   4.67533   4.67986   4.67986   4.68782
 Alpha virt. eigenvalues --    4.69824   4.72858   4.75222   4.79518   4.79518
 Alpha virt. eigenvalues --    4.84130   4.87231   4.87231   4.91221   4.96035
 Alpha virt. eigenvalues --    4.96115   4.96115   4.97429   5.01744   5.03750
 Alpha virt. eigenvalues --    5.06722   5.08887   5.08887   5.11773   5.13341
 Alpha virt. eigenvalues --    5.21024   5.21768   5.21768   5.30152   5.31498
 Alpha virt. eigenvalues --    5.31498   5.35396   5.35396   5.36427   5.36512
 Alpha virt. eigenvalues --    5.40906   5.40906   5.42058   5.45110   5.45529
 Alpha virt. eigenvalues --    5.45534   5.45534   5.46707   5.47548   5.48161
 Alpha virt. eigenvalues --    5.51248   5.51392   5.51392   5.52329   5.54568
 Alpha virt. eigenvalues --    5.54568   5.55408   5.56947   5.56947   5.57540
 Alpha virt. eigenvalues --    5.58413   5.58413   5.58741   5.59910   5.59910
 Alpha virt. eigenvalues --    5.61244   5.62700   5.63809   5.64291   5.64291
 Alpha virt. eigenvalues --    5.65710   5.69476   5.70508   5.70909   5.70943
 Alpha virt. eigenvalues --    5.70943   5.73009   5.73009   5.73096   5.73342
 Alpha virt. eigenvalues --    5.75808   5.75808   5.76455   5.76455   5.76473
 Alpha virt. eigenvalues --    5.76605   5.77379   5.77379   5.79496   5.79603
 Alpha virt. eigenvalues --    5.79603   5.81056   5.81506   5.82683   5.83038
 Alpha virt. eigenvalues --    5.83038   5.83595   5.84781   5.84781   5.85015
 Alpha virt. eigenvalues --    5.85437   5.85692   5.85703   5.87375   5.87375
 Alpha virt. eigenvalues --    5.88974   5.89290   5.89905   5.89905   5.90664
 Alpha virt. eigenvalues --    5.90995   5.91397   5.92206   5.96407   5.96407
 Alpha virt. eigenvalues --    5.96578   5.96578   5.97869   5.98369   5.99117
 Alpha virt. eigenvalues --    5.99172   5.99172   5.99789   6.01625   6.01939
 Alpha virt. eigenvalues --    6.03638   6.03638   6.04442   6.04837   6.04837
 Alpha virt. eigenvalues --    6.05119   6.06074   6.06325   6.07188   6.08709
 Alpha virt. eigenvalues --    6.09142   6.09142   6.10034   6.10034   6.11657
 Alpha virt. eigenvalues --    6.12050   6.13113   6.13768   6.13768   6.13770
 Alpha virt. eigenvalues --    6.15664   6.16296   6.17555   6.18014   6.18014
 Alpha virt. eigenvalues --    6.18731   6.18817   6.19481   6.19726   6.21018
 Alpha virt. eigenvalues --    6.21018   6.22894   6.22894   6.22991   6.23043
 Alpha virt. eigenvalues --    6.23043   6.23975   6.24691   6.25421   6.25421
 Alpha virt. eigenvalues --    6.25536   6.25942   6.26439   6.26439   6.28345
 Alpha virt. eigenvalues --    6.28345   6.29450   6.29450   6.29802   6.29952
 Alpha virt. eigenvalues --    6.30427   6.32081   6.32415   6.32415   6.33704
 Alpha virt. eigenvalues --    6.33814   6.33814   6.34185   6.34406   6.34736
 Alpha virt. eigenvalues --    6.37120   6.37477   6.37477   6.38262   6.39423
 Alpha virt. eigenvalues --    6.39861   6.39861   6.42422   6.43474   6.43474
 Alpha virt. eigenvalues --    6.44581   6.45363   6.46729   6.47202   6.47336
 Alpha virt. eigenvalues --    6.47336   6.49351   6.50381   6.50754   6.50754
 Alpha virt. eigenvalues --    6.51541   6.52432   6.52704   6.52805   6.52805
 Alpha virt. eigenvalues --    6.54793   6.54793   6.56199   6.56199   6.56282
 Alpha virt. eigenvalues --    6.57530   6.57635   6.58457   6.58457   6.59026
 Alpha virt. eigenvalues --    6.59879   6.62590   6.63319   6.64012   6.64012
 Alpha virt. eigenvalues --    6.67267   6.67267   6.68134   6.70287   6.71660
 Alpha virt. eigenvalues --    6.71660   6.74420   6.74420   6.75098   6.75473
 Alpha virt. eigenvalues --    6.76336   6.77211   6.77525   6.78683   6.79087
 Alpha virt. eigenvalues --    6.79087   6.79410   6.79410   6.82019   6.82357
 Alpha virt. eigenvalues --    6.83277   6.83277   6.85730   6.86970   6.86970
 Alpha virt. eigenvalues --    6.87457   6.88179   6.88179   6.90060   6.90240
 Alpha virt. eigenvalues --    6.90796   6.90796   6.91466   6.91466   6.92069
 Alpha virt. eigenvalues --    6.95123   6.96255   6.96662   6.96689   6.96689
 Alpha virt. eigenvalues --    6.96996   6.98221   6.98543   7.01452   7.01727
 Alpha virt. eigenvalues --    7.01727   7.03146   7.05287   7.06476   7.06476
 Alpha virt. eigenvalues --    7.07263   7.09445   7.10168   7.10168   7.11066
 Alpha virt. eigenvalues --    7.11950   7.15345   7.18973   7.19074   7.19074
 Alpha virt. eigenvalues --    7.20340   7.20372   7.20372   7.20600   7.22333
 Alpha virt. eigenvalues --    7.22333   7.22510   7.26073   7.26683   7.26683
 Alpha virt. eigenvalues --    7.26885   7.29212   7.29212   7.31180   7.31249
 Alpha virt. eigenvalues --    7.31505   7.32241   7.32241   7.34899   7.35857
 Alpha virt. eigenvalues --    7.36095   7.36095   7.37677   7.37988   7.39322
 Alpha virt. eigenvalues --    7.40339   7.40339   7.42380   7.42604   7.42642
 Alpha virt. eigenvalues --    7.42909   7.44669   7.44669   7.45115   7.45354
 Alpha virt. eigenvalues --    7.45656   7.45656   7.46000   7.46000   7.48298
 Alpha virt. eigenvalues --    7.49035   7.49035   7.49499   7.49531   7.49532
[...]
    28  H   -0.002412  -0.000075  -0.052607  -0.000075   0.000119  -0.000167
    29  H    0.000039   0.002101  -0.046051  -0.000202   0.000139   0.000234
    30  H    0.000039  -0.000202  -0.046051   0.002101   0.000139   0.000234
    31  H    0.019158   0.010562   0.019158  -0.069446  -0.009939   0.000106
    32  H    0.002917  -0.005831  -0.003915  -0.038959   0.000981  -0.001041
    33  H   -0.003915  -0.005831   0.002917  -0.038959  -0.000084   0.000863
    34  H   -0.000075  -0.002412  -0.000075  -0.052607   0.000867  -0.008671
    35  H    0.002101   0.000039  -0.000202  -0.046051   0.000209  -0.002016
    36  H   -0.000202   0.000039   0.002101  -0.046051  -0.001400   0.000653
               7          8          9         10         11         12
     1  C   -0.093605  -0.081664   0.062919   0.009447  -0.093605  -0.081664
     2  C    0.374072   0.393668  -0.093605  -0.081664   0.062919   0.009447
     3  C   -0.093605  -0.081664   0.374072   0.393668  -0.093605  -0.081664
     4  C    0.062919   0.009447  -0.093605  -0.081664   0.374072   0.393668
     5  C   -0.030082  -0.001132  -0.001143  -0.001927  -0.030082  -0.001132
     6  C    0.006073  -0.030082  -0.024175  -0.001143   0.006073  -0.030082
     7  C    5.586119  -0.049244   0.006073  -0.030082  -0.024175  -0.001143
     8  C   -0.049244   5.664216  -0.030082  -0.001132  -0.001143  -0.001927
     9  C    0.006073  -0.030082   5.586119  -0.049244   0.006073  -0.030082
    10  C   -0.030082  -0.001132  -0.049244   5.664216  -0.030082  -0.001132
    11  C   -0.024175  -0.001143   0.006073  -0.030082   5.586119  -0.049244
    12  C   -0.001143  -0.001927  -0.030082  -0.001132  -0.049244   5.664216
    13  H   -0.008671   0.000867  -0.000167   0.000119  -0.008671   0.000867
    14  H    0.000653  -0.001400   0.000234   0.000139  -0.002016   0.000209
    15  H   -0.002016   0.000209   0.000234   0.000139   0.000653  -0.001400
    16  H    0.000106  -0.009939  -0.012574   0.000190   0.000106  -0.009939
    17  H    0.000863  -0.000084   0.001061   0.000010  -0.001041   0.000981
    18  H   -0.001041   0.000981   0.001061   0.000010   0.000863  -0.000084
    19  H    0.312007   0.011893   0.000106  -0.009939  -0.012574   0.000190
    20  H    0.341597  -0.008291  -0.001041   0.000981   0.001061   0.000010
    21  H    0.341597  -0.008291   0.000863  -0.000084   0.001061   0.000010
    22  H    0.012594   0.306386  -0.008671   0.000867  -0.000167   0.000119
    23  H   -0.007664   0.329431  -0.002016   0.000209   0.000234   0.000139
    24  H   -0.007664   0.329431   0.000653  -0.001400   0.000234   0.000139
    25  H    0.000106  -0.009939   0.312007   0.011893   0.000106  -0.009939
    26  H   -0.001041   0.000981   0.341597  -0.008291   0.000863  -0.000084
    27  H    0.000863  -0.000084   0.341597  -0.008291  -0.001041   0.000981
    28  H   -0.008671   0.000867   0.012594   0.306386  -0.008671   0.000867
    29  H   -0.002016   0.000209  -0.007664   0.329431   0.000653  -0.001400
    30  H    0.000653  -0.001400  -0.007664   0.329431  -0.002016   0.000209
    31  H   -0.012574   0.000190   0.000106  -0.009939   0.312007   0.011893
    32  H    0.001061   0.000010   0.000863  -0.000084   0.341597  -0.008291
    33  H    0.001061   0.000010  -0.001041   0.000981   0.341597  -0.008291
    34  H   -0.000167   0.000119  -0.008671   0.000867   0.012594   0.306386
    35  H    0.000234   0.000139   0.000653  -0.001400  -0.007664   0.329431
    36  H    0.000234   0.000139  -0.002016   0.000209  -0.007664   0.329431
              13         14         15         16         17         18
     1  C   -0.052607  -0.046051  -0.046051  -0.069446  -0.038959  -0.038959
     2  C   -0.000075  -0.000202   0.002101   0.019158  -0.003915   0.002917
     3  C   -0.002412   0.000039   0.000039   0.010562  -0.005831  -0.005831
     4  C   -0.000075   0.002101  -0.000202   0.019158   0.002917  -0.003915
     5  C    0.306386   0.329431   0.329431   0.011893  -0.008291  -0.008291
     6  C    0.012594  -0.007664  -0.007664   0.312007   0.341597   0.341597
     7  C   -0.008671   0.000653  -0.002016   0.000106   0.000863  -0.001041
     8  C    0.000867  -0.001400   0.000209  -0.009939  -0.000084   0.000981
     9  C   -0.000167   0.000234   0.000234  -0.012574   0.001061   0.001061
    10  C    0.000119   0.000139   0.000139   0.000190   0.000010   0.000010
    11  C   -0.008671  -0.002016   0.000653   0.000106  -0.001041   0.000863
    12  C    0.000867   0.000209  -0.001400  -0.009939   0.000981  -0.000084
    13  H    0.559043  -0.043697  -0.043697  -0.000336   0.000110   0.000110
    14  H   -0.043697   0.535499  -0.026329   0.000069  -0.000003  -0.000229
    15  H   -0.043697  -0.026329   0.535499   0.000069  -0.000229  -0.000003
    16  H   -0.000336   0.000069   0.000069   0.547147  -0.043783  -0.043783
    17  H    0.000110  -0.000003  -0.000229  -0.043783   0.555044  -0.033383
    18  H    0.000110  -0.000229  -0.000003  -0.043783  -0.033383   0.555044
    19  H   -0.004199  -0.000262   0.000530   0.000046   0.000135  -0.000017
    20  H   -0.001405  -0.000137  -0.002743   0.000135  -0.000006  -0.000123
    21  H    0.000250   0.000121  -0.000205  -0.000017  -0.000123   0.000039
    22  H    0.000010  -0.000040   0.000171  -0.004199  -0.001405   0.000250
    23  H   -0.000040   0.000042  -0.000217  -0.000262  -0.000137   0.000121
    24  H    0.000171  -0.000217   0.000247   0.000530  -0.002743  -0.000205
    25  H   -0.000020   0.000063   0.000063  -0.003520   0.000200   0.000200
    26  H   -0.000003  -0.000023  -0.000002   0.000200  -0.000035   0.000024
    27  H   -0.000003  -0.000002  -0.000023   0.000200   0.000024  -0.000035
    28  H   -0.000226   0.000043   0.000043  -0.000020  -0.000003  -0.000003
    29  H    0.000043  -0.000005  -0.000009   0.000063  -0.000023  -0.000002
    30  H    0.000043  -0.000009  -0.000005   0.000063  -0.000002  -0.000023
    31  H   -0.004199   0.000530  -0.000262   0.000046  -0.000017   0.000135
    32  H    0.000250  -0.000205   0.000121  -0.000017   0.000039  -0.000123
    33  H   -0.001405  -0.002743  -0.000137   0.000135  -0.000123  -0.000006
    34  H    0.000010   0.000171  -0.000040  -0.004199   0.000250  -0.001405
    35  H    0.000171   0.000247  -0.000217   0.000530  -0.000205  -0.002743
    36  H   -0.000040  -0.000217   0.000042  -0.000262   0.000121  -0.000137
              19         20         21         22         23         24
     1  C    0.019158  -0.003915   0.002917  -0.000075  -0.000202   0.002101
     2  C   -0.069446  -0.038959  -0.038959  -0.052607  -0.046051  -0.046051
     3  C    0.019158   0.002917  -0.003915  -0.000075   0.002101  -0.000202
     4  C    0.010562  -0.005831  -0.005831  -0.002412   0.000039   0.000039
     5  C   -0.009939  -0.000084   0.000981   0.000867  -0.001400   0.000209
     6  C    0.000106   0.000863  -0.001041  -0.008671   0.000653  -0.002016
     7  C    0.312007   0.341597   0.341597   0.012594  -0.007664  -0.007664
     8  C    0.011893  -0.008291  -0.008291   0.306386   0.329431   0.329431
     9  C    0.000106  -0.001041   0.000863  -0.008671  -0.002016   0.000653
    10  C   -0.009939   0.000981  -0.000084   0.000867   0.000209  -0.001400
    11  C   -0.012574   0.001061   0.001061  -0.000167   0.000234   0.000234
    12  C    0.000190   0.000010   0.000010   0.000119   0.000139   0.000139
    13  H   -0.004199  -0.001405   0.000250   0.000010  -0.000040   0.000171
    14  H   -0.000262  -0.000137   0.000121  -0.000040   0.000042  -0.000217
    15  H    0.000530  -0.002743  -0.000205   0.000171  -0.000217   0.000247
    16  H    0.000046   0.000135  -0.000017  -0.004199  -0.000262   0.000530
    17  H    0.000135  -0.000006  -0.000123  -0.001405  -0.000137  -0.002743
    18  H   -0.000017  -0.000123   0.000039   0.000250   0.000121  -0.000205
    19  H    0.547147  -0.043783  -0.043783  -0.000336   0.000069   0.000069
    20  H   -0.043783   0.555044  -0.033383   0.000110  -0.000003  -0.000229
    21  H   -0.043783  -0.033383   0.555044   0.000110  -0.000229  -0.000003
    22  H   -0.000336   0.000110   0.000110   0.559043  -0.043697  -0.043697
    23  H    0.000069  -0.000003  -0.000229  -0.043697   0.535499  -0.026329
    24  H    0.000069  -0.000229  -0.000003  -0.043697  -0.026329   0.535499
    25  H    0.000046  -0.000017   0.000135  -0.004199   0.000530  -0.000262
    26  H   -0.000017   0.000039  -0.000123   0.000250  -0.000205   0.000121
    27  H    0.000135  -0.000123  -0.000006  -0.001405  -0.002743  -0.000137
    28  H   -0.004199   0.000250  -0.001405   0.000010   0.000171  -0.000040
    29  H    0.000530  -0.000205  -0.002743   0.000171   0.000247  -0.000217
    30  H   -0.000262   0.000121  -0.000137  -0.000040  -0.000217   0.000042
    31  H   -0.003520   0.000200   0.000200  -0.000020   0.000063   0.000063
    32  H    0.000200  -0.000035   0.000024  -0.000003  -0.000023  -0.000002
    33  H    0.000200   0.000024  -0.000035  -0.000003  -0.000002  -0.000023
    34  H   -0.000020  -0.000003  -0.000003  -0.000226   0.000043   0.000043
    35  H    0.000063  -0.000023  -0.000002   0.000043  -0.000005  -0.000009
    36  H    0.000063  -0.000002  -0.000023   0.000043  -0.000009  -0.000005
              25         26         27         28         29         30
     1  C    0.010562  -0.005831  -0.005831  -0.002412   0.000039   0.000039
     2  C    0.019158   0.002917  -0.003915  -0.000075   0.002101  -0.000202
     3  C   -0.069446  -0.038959  -0.038959  -0.052607  -0.046051  -0.046051
     4  C    0.019158  -0.003915   0.002917  -0.000075  -0.000202   0.002101
     5  C    0.000190   0.000010   0.000010   0.000119   0.000139   0.000139
     6  C   -0.012574   0.001061   0.001061  -0.000167   0.000234   0.000234
     7  C    0.000106  -0.001041   0.000863  -0.008671  -0.002016   0.000653
     8  C   -0.009939   0.000981  -0.000084   0.000867   0.000209  -0.001400
     9  C    0.312007   0.341597   0.341597   0.012594  -0.007664  -0.007664
    10  C    0.011893  -0.008291  -0.008291   0.306386   0.329431   0.329431
    11  C    0.000106   0.000863  -0.001041  -0.008671   0.000653  -0.002016
    12  C   -0.009939  -0.000084   0.000981   0.000867  -0.001400   0.000209
    13  H   -0.000020  -0.000003  -0.000003  -0.000226   0.000043   0.000043
    14  H    0.000063  -0.000023  -0.000002   0.000043  -0.000005  -0.000009
    15  H    0.000063  -0.000002  -0.000023   0.000043  -0.000009  -0.000005
    16  H   -0.003520   0.000200   0.000200  -0.000020   0.000063   0.000063
    17  H    0.000200  -0.000035   0.000024  -0.000003  -0.000023  -0.000002
    18  H    0.000200   0.000024  -0.000035  -0.000003  -0.000002  -0.000023
    19  H    0.000046  -0.000017   0.000135  -0.004199   0.000530  -0.000262
    20  H   -0.000017   0.000039  -0.000123   0.000250  -0.000205   0.000121
    21  H    0.000135  -0.000123  -0.000006  -0.001405  -0.002743  -0.000137
    22  H   -0.004199   0.000250  -0.001405   0.000010   0.000171  -0.000040
    23  H    0.000530  -0.000205  -0.002743   0.000171   0.000247  -0.000217
    24  H   -0.000262   0.000121  -0.000137  -0.000040  -0.000217   0.000042
    25  H    0.547147  -0.043783  -0.043783  -0.000336   0.000069   0.000069
    26  H   -0.043783   0.555044  -0.033383   0.000110  -0.000003  -0.000229
    27  H   -0.043783  -0.033383   0.555044   0.000110  -0.000229  -0.000003
    28  H   -0.000336   0.000110   0.000110   0.559043  -0.043697  -0.043697
    29  H    0.000069  -0.000003  -0.000229  -0.043697   0.535499  -0.026329
    30  H    0.000069  -0.000229  -0.000003  -0.043697  -0.026329   0.535499
    31  H    0.000046   0.000135  -0.000017  -0.004199  -0.000262   0.000530
    32  H    0.000135  -0.000006  -0.000123  -0.001405  -0.000137  -0.002743
    33  H   -0.000017  -0.000123   0.000039   0.000250   0.000121  -0.000205
    34  H   -0.004199  -0.001405   0.000250   0.000010  -0.000040   0.000171
    35  H   -0.000262  -0.000137   0.000121  -0.000040   0.000042  -0.000217
    36  H    0.000530  -0.002743  -0.000205   0.000171  -0.000217   0.000247
              31         32         33         34         35         36
     1  C    0.019158   0.002917  -0.003915  -0.000075   0.002101  -0.000202
     2  C    0.010562  -0.005831  -0.005831  -0.002412   0.000039   0.000039
     3  C    0.019158  -0.003915   0.002917  -0.000075  -0.000202   0.002101
     4  C   -0.069446  -0.038959  -0.038959  -0.052607  -0.046051  -0.046051
     5  C   -0.009939   0.000981  -0.000084   0.000867   0.000209  -0.001400
     6  C    0.000106  -0.001041   0.000863  -0.008671  -0.002016   0.000653
     7  C   -0.012574   0.001061   0.001061  -0.000167   0.000234   0.000234
     8  C    0.000190   0.000010   0.000010   0.000119   0.000139   0.000139
     9  C    0.000106   0.000863  -0.001041  -0.008671   0.000653  -0.002016
    10  C   -0.009939  -0.000084   0.000981   0.000867  -0.001400   0.000209
    11  C    0.312007   0.341597   0.341597   0.012594  -0.007664  -0.007664
    12  C    0.011893  -0.008291  -0.008291   0.306386   0.329431   0.329431
    13  H   -0.004199   0.000250  -0.001405   0.000010   0.000171  -0.000040
    14  H    0.000530  -0.000205  -0.002743   0.000171   0.000247  -0.000217
    15  H   -0.000262   0.000121  -0.000137  -0.000040  -0.000217   0.000042
    16  H    0.000046  -0.000017   0.000135  -0.004199   0.000530  -0.000262
    17  H   -0.000017   0.000039  -0.000123   0.000250  -0.000205   0.000121
    18  H    0.000135  -0.000123  -0.000006  -0.001405  -0.002743  -0.000137
    19  H   -0.003520   0.000200   0.000200  -0.000020   0.000063   0.000063
    20  H    0.000200  -0.000035   0.000024  -0.000003  -0.000023  -0.000002
    21  H    0.000200   0.000024  -0.000035  -0.000003  -0.000002  -0.000023
    22  H   -0.000020  -0.000003  -0.000003  -0.000226   0.000043   0.000043
    23  H    0.000063  -0.000023  -0.000002   0.000043  -0.000005  -0.000009
    24  H    0.000063  -0.000002  -0.000023   0.000043  -0.000009  -0.000005
    25  H    0.000046   0.000135  -0.000017  -0.004199  -0.000262   0.000530
    26  H    0.000135  -0.000006  -0.000123  -0.001405  -0.000137  -0.002743
    27  H   -0.000017  -0.000123   0.000039   0.000250   0.000121  -0.000205
    28  H   -0.004199  -0.001405   0.000250   0.000010  -0.000040   0.000171
    29  H   -0.000262  -0.000137   0.000121  -0.000040   0.000042  -0.000217
    30  H    0.000530  -0.002743  -0.000205   0.000171  -0.000217   0.000247
    31  H    0.547147  -0.043783  -0.043783  -0.000336   0.000069   0.000069
    32  H   -0.043783   0.555044  -0.033383   0.000110  -0.000003  -0.000229
    33  H   -0.043783  -0.033383   0.555044   0.000110  -0.000229  -0.000003
    34  H   -0.000336   0.000110   0.000110   0.559043  -0.043697  -0.043697
    35  H    0.000069  -0.000003  -0.000229  -0.043697   0.535499  -0.026329
    36  H    0.000069  -0.000229  -0.000003  -0.043697  -0.026329   0.535499
 Mulliken charges:
               1
     1  C   -0.161365
     2  C   -0.161365
     3  C   -0.161365
     4  C   -0.161365
     5  C   -0.731692
     6  C   -0.675423
     7  C   -0.675423
     8  C   -0.731692
     9  C   -0.675423
    10  C   -0.731692
    11  C   -0.675423
    12  C   -0.731692
    13  H    0.290905
    14  H    0.261858
    15  H    0.261858
    16  H    0.279881
    17  H    0.236989
    18  H    0.236989
    19  H    0.279881
    20  H    0.236989
    21  H    0.236989
    22  H    0.290905
    23  H    0.261858
    24  H    0.261858
    25  H    0.279881
    26  H    0.236989
    27  H    0.236989
    28  H    0.290905
    29  H    0.261858
    30  H    0.261858
    31  H    0.279881
    32  H    0.236989
    33  H    0.236989
    34  H    0.290905
    35  H    0.261858
    36  H    0.261858
 Sum of Mulliken charges =   0.00000
 Mulliken charges with hydrogens summed into heavy atoms:
               1
     1  C   -0.161365
     2  C   -0.161365
     3  C   -0.161365
     4  C   -0.161365
     5  C    0.082930
     6  C    0.078435
     7  C    0.078435
     8  C    0.082930
     9  C    0.078435
    10  C    0.082930
    11  C    0.078435
    12  C    0.082930
 Electronic spatial extent (au):  <R**2>=           2001.3553
 Charge=              0.0000 electrons
 Dipole moment (field-independent basis, Debye):
    X=              0.0000    Y=             -0.0000    Z=              0.0000  Tot=              0.0000
 Quadrupole moment (field-independent basis, Debye-Ang):
   XX=            -81.3254   YY=            -81.3254   ZZ=            -82.0727
   XY=              0.0000   XZ=             -0.0000   YZ=              0.0000
 Traceless Quadrupole moment (field-independent basis, Debye-Ang):
   XX=              0.2491   YY=              0.2491   ZZ=             -0.4982
   XY=              0.0000   XZ=             -0.0000   YZ=              0.0000
 Octapole moment (field-independent basis, Debye-Ang**2):
  XXX=              0.0000  YYY=             -0.0000  ZZZ=              0.0000  XYY=              0.0000
  XXY=             -0.0000  XXZ=             -0.7701  XZZ=             -0.0000  YZZ=             -0.0000
  YYZ=              0.7701  XYZ=             -0.0000
 Hexadecapole moment (field-independent basis, Debye-Ang**3):
 XXXX=          -1052.0532 YYYY=          -1052.0532 ZZZZ=           -779.8887 XXXY=              0.0000
 XXXZ=             -0.0000 YYYX=              0.0000 YYYZ=              0.0000 ZZZX=             -0.0000
 ZZZY=             -0.0000 XXYY=           -323.4398 XXZZ=           -315.6578 YYZZ=           -315.6578
 XXYZ=             -0.0000 YYXZ=             -0.0000 ZZXY=             -0.0000
 N-N= 8.412216487450D+02 E-N=-2.773557637203D+03  KE= 4.690699500476D+02
 PrsmSu:  requested number of processors reduced to:  16 ShMem   1 Linda.
 No NMR shielding tensors so no spin-rotation constants.
 Leave Link  601 at Sat Apr 17 19:08:12 2021, MaxMem=   104857600 cpu:            3774.1 elap:              88.0
 (Enter /s/ls4/users/knvvv/bin/g16sse/l9999.exe)

 Test job not archived.
 1\1\GINC-N305\Stability\RM062X\def2QZVP\C12H24\KNVVV\17-Apr-2021\0\\#P
  M062X/Def2QZVP Integral=UltraFineGrid SCF=NoSymm Stable=(RExt, Opt) I
 Op(1/33=1)\\Database calculations.\\0,1\C,0,-0.7896879,0.7896879,-0.09
 34025\C,0,-0.7896879,-0.7896879,0.0934025\C,0,0.7896879,-0.7896879,-0.
 0934025\C,0,0.7896879,0.7896879,0.0934025\C,0,-1.6075822,1.6075822,0.9
 194274\C,0,-1.2469837,1.2469837,-1.4910651\C,0,-1.2469837,-1.2469837,1
 .4910651\C,0,-1.6075822,-1.6075822,-0.9194274\C,0,1.2469837,-1.2469837
 ,-1.4910651\C,0,1.6075822,-1.6075822,0.9194274\C,0,1.2469837,1.2469837
 ,1.4910651\C,0,1.6075822,1.6075822,-0.9194274\H,0,-1.3672705,1.3672705
 ,1.9553787\H,0,-1.4269269,2.6778795,0.769354\H,0,-2.6778795,1.4269269,
 0.769354\H,0,-0.7317362,0.7317362,-2.3016732\H,0,-2.3204607,1.0676081,
 -1.6085856\H,0,-1.0676081,2.3204607,-1.6085856\H,0,-0.7317362,-0.73173
 62,2.3016732\H,0,-2.3204607,-1.0676081,1.6085856\H,0,-1.0676081,-2.320
 4607,1.6085856\H,0,-1.3672705,-1.3672705,-1.9553787\H,0,-1.4269269,-2.
 6778795,-0.769354\H,0,-2.6778795,-1.4269269,-0.769354\H,0,0.7317362,-0
 .7317362,-2.3016732\H,0,2.3204607,-1.0676081,-1.6085856\H,0,1.0676081,
 -2.3204607,-1.6085856\H,0,1.3672705,-1.3672705,1.9553787\H,0,1.4269269
 ,-2.6778795,0.769354\H,0,2.6778795,-1.4269269,0.769354\H,0,0.7317362,0
 .7317362,2.3016732\H,0,2.3204607,1.0676081,1.6085856\H,0,1.0676081,2.3
 204607,1.6085856\H,0,1.3672705,1.3672705,-1.9553787\H,0,1.4269269,2.67
 78795,-0.769354\H,0,2.6778795,1.4269269,-0.769354\\Version=ES64L-G16Re
 vA.03\State=1-A1\HF=-471.7012047\RMSD=9.202e-10\Dipole=0.,0.,0.\Quadru
 pole=0.1852047,0.1852047,-0.3704095,0.,0.,0.\PG=D02D [2SGD(C6H4),X(H16
 )]\\@


 ROSE IS A RED
 TY COBB IS BLUE
 'CAUSE PETE JUST HIT
 NO. 4592.
 Job cpu time:      11 days 14 hours 52 minutes 23.8 seconds.
 Elapsed time:       0 days 20 hours  7 minutes 44.4 seconds.
 File lengths (MBytes):  RWF=   3255 Int=      0 D2E=      0 Chk=    215 Scr=      1
 Normal termination of Gaussian 16 at Sat Apr 17 19:08:22 2021.
