 Entering Gaussian System, Link 0=/s/ls4/users/knvvv/bin/g16sse/g16
 Input=data/database/M062X--def2-QZVP--PCONF21_GLY_ab.gjf
 Output=data/database/M062X--def2-QZVP--PCONF21_GLY_ab.log
 Initial command:
 /s/ls4/users/knvvv/bin/g16sse/l1.exe "/s/ls4/users/knvvv/bin/scratch/Gau-1326.inp" -scrdir="/s/ls4/users/knvvv/bin/scratch/"
 Entering Link 1 = /s/ls4/users/knvvv/bin/g16sse/l1.exe PID=      1327.
  
 Copyright (c) 1988,1990,1992,1993,1995,1998,2003,2009,2016,
            Gaussian, Inc.  All Rights Reserved.
  
 This is part of the Gaussian(R) 16 program.  It is based on
 the Gaussian(R) 09 system (copyright 2009, Gaussian, Inc.),
 the Gaussian(R) 03 system (copyright 2003, Gaussian, Inc.),
 the Gaussian(R) 98 system (copyright 1998, Gaussian, Inc.),
 the Gaussian(R) 94 system (copyright 1995, Gaussian, Inc.),
 the Gaussian 92(TM) system (copyright 1992, Gaussian, Inc.),
 the Gaussian 90(TM) system (copyright 1990, Gaussian, Inc.),
 the Gaussian 88(TM) system (copyright 1988, Gaussian, Inc.),
 the Gaussian 86(TM) system (copyright 1986, Carnegie Mellon
 University), and the Gaussian 82(TM) system (copyright 1983,
 Carnegie Mellon University). Gaussian is a federally registered
 trademark of Gaussian, Inc.
  
 This software contains proprietary and confidential information,
 including trade secrets, belonging to Gaussian, Inc.
  
 This software is provided under written license and may be
 used, copied, transmitted, or stored only in accord with that
 written license.
  
 The following legend is applicable only to US Government
 contracts under FAR:
  
                    RESTRICTED RIGHTS LEGEND
  
 Use, reproduction and disclosure by the US Government is
 subject to restrictions as set forth in subparagraphs (a)
 and (c) of the Commercial Computer Software - Restricted
 Rights clause in FAR 52.227-19.
  
 Gaussian, Inc.
 340 Quinnipiac St., Bldg. 40, Wallingford CT 06492
  
  
 ---------------------------------------------------------------
 Warning -- This program may not be used in any manner that
 competes with the business of Gaussian, Inc. or will provide
 assistance to any competitor of Gaussian, Inc.  The licensee
 of this program is prohibited from giving any competitor of
 Gaussian, Inc. access to this program.  By using this program,
 the user acknowledges that Gaussian, Inc. is engaged in the
 business of creating and licensing software in the field of
 computational chemistry and represents and warrants to the
 licensee that it is not a competitor of Gaussian, Inc. and that
 it will not use this program in any manner prohibited above.
 ---------------------------------------------------------------
  

 Cite this work as:
 Gaussian 16, Revision A.03,
 M. J. Frisch, G. W. Trucks, H. B. Schlegel, G. E. Scuseria, 
 M. A. Robb, J. R. Cheeseman, G. Scalmani, V. Barone, 
 G. A. Petersson, H. Nakatsuji, X. Li, M. Caricato, A. V. Marenich, 
 J. Bloino, B. G. Janesko, R. Gomperts, B. Mennucci, H. P. Hratchian, 
 J. V. Ortiz, A. F. Izmaylov, J. L. Sonnenberg, D. Williams-Young, 
 F. Ding, F. Lipparini, F. Egidi, J. Goings, B. Peng, A. Petrone, 
 T. Henderson, D. Ranasinghe, V. G. Zakrzewski, J. Gao, N. Rega, 
 G. Zheng, W. Liang, M. Hada, M. Ehara, K. Toyota, R. Fukuda, 
 J. Hasegawa, M. Ishida, T. Nakajima, Y. Honda, O. Kitao, H. Nakai, 
 T. Vreven, K. Throssell, J. A. Montgomery, Jr., J. E. Peralta, 
 F. Ogliaro, M. J. Bearpark, J. J. Heyd, E. N. Brothers, K. N. Kudin, 
 V. N. Staroverov, T. A. Keith, R. Kobayashi, J. Normand, 
 K. Raghavachari, A. P. Rendell, J. C. Burant, S. S. Iyengar, 
 J. Tomasi, M. Cossi, J. M. Millam, M. Klene, C. Adamo, R. Cammi, 
 J. W. Ochterski, R. L. Martin, K. Morokuma, O. Farkas, 
 J. B. Foresman, and D. J. Fox, Gaussian, Inc., Wallingford CT, 2016.
 
 ******************************************
 Gaussian 16:  ES64L-G16RevA.03 25-Dec-2016
                17-Apr-2021 
 ******************************************
 %RWF=temp9_25381,70GB
 %nprocshared=48
 Will use up to   48 processors via shared memory.
 Default route: MaxDisk=80GB
 ----------------------------------------------------------------------
 #P M062X/Def2QZVP Integral=UltraFineGrid SCF=NoSymm Stable=(RExt, Opt)
  IOp(1/33=1)
 ----------------------------------------------------------------------
 1/33=1,38=1,172=1/1;
 2/12=2,17=6,18=5,40=1/2;
 3/5=45,7=101,11=2,25=1,30=1,74=-55,75=-5/1,2,3;
 4/9=2/1;
 5/5=2,38=5/2;
 6/7=2,8=2,9=2,10=2,28=1/1;
 8/6=1,10=90,11=11/1;
 9/8=-3,42=1,46=1/14;
 5/5=2,8=3,17=40,38=5/8(-2);
 6/7=2,8=2,9=2,10=2,28=1/1;
 99/5=1,9=1/99;
 Leave Link    1 at Sat Apr 17 05:27:35 2021, MaxMem=           0 cpu:              10.9 elap:               0.3
 (Enter /s/ls4/users/knvvv/bin/g16sse/l101.exe)
 ONIOM data not found on unit 2.
 ----------------------
 Database calculations.
 ----------------------
 TstMul:  ICh=     0
 TstMul:  Mul=     1
 TstMul:  ICh=     0
 TstMul:  Mul=     1
 Symbolic Z-matrix:
 Charge =  0 Multiplicity = 1
 H                    -7.55408   0.66949   1.06623 
 C                    -6.73734   1.05688   0.45775 
 H                    -6.38505   2.00197   0.88469 
 H                    -7.10592   1.26458  -0.55191 
 C                    -5.62138   0.0216    0.42734 
 O                    -5.69877  -1.05723   1.00471 
 N                    -4.5243    0.38851  -0.29979 
 H                    -4.4551    1.30319  -0.72711 
 C                    -3.33628  -0.44471  -0.39856 
 H                    -3.36107  -1.12513   0.45763 
 C                    -3.30495  -1.26473  -1.69979 
 H                    -3.29618  -0.59689  -2.5661 
 H                    -2.41335  -1.89949  -1.74028 
 H                    -4.18936  -1.90413  -1.7491 
 C                    -2.12573   0.49317  -0.33101 
 O                    -2.10022   1.53482  -0.9856 
 N                    -1.11421   0.09636   0.48176 
 H                    -1.16554  -0.77114   0.99855 
 C                     0.13536   0.82486   0.58885 
 H                     0.20812   1.49646  -0.26976 
 H                     0.15859   1.43949   1.49961 
 C                     1.27902  -0.18735   0.6689 
 O                     1.17947  -1.18095   1.38667 
 N                     2.35785   0.07479  -0.10549 
 H                     2.41323   0.913    -0.67076 
 C                     3.55847  -0.75187  -0.08736 
 H                     3.5469   -1.3006    0.85863 
 C                     3.58663  -1.74706  -1.25751 
 H                     3.58418  -1.20985  -2.21016 
 H                     4.48398  -2.37214  -1.21569 
 H                     2.70784  -2.39566  -1.21035 
 C                     4.75365   0.20851  -0.17081 
 O                     4.75224   1.13965  -0.97155 
 N                     5.78167  -0.03419   0.67796 
 H                     5.71027  -0.79463   1.33547 
 C                     6.98304   0.78808   0.66474 
 H                     6.73654   1.83555   0.86482 
 H                     7.66786   0.42643   1.43328 
 H                     7.47832   0.73951  -0.31033 
 
 RdStrC is calling ZToCFu for IStruc=1 NZ=    39.
 PrtBox:  NBox=     5 Levels=  3 BoxLen=    8.00 SMaxX=       28.77
          Shift=           14.275134            4.527136            4.849234
 Box      1 Number                   0 centers from      1 to     10:
 Box      2 Number                   2 centers from     11 to     11:
 Box      3 Number                   4 centers from     12 to     21:
 Box      4 Number                  32 centers from     22 to     33:
 Box      5 Number                  36 centers from     34 to     39:
 After GenITR:
 ITRead=  0  0  0  0  0  0  0  0  0  0  0  0  0  0  0  0  0  0  0  0
 ITRead=  0  0  0  0  0  0  0  0  0  0  0  0  0  0  0  0  0  0  0
 MicOpt= -1 -1 -1 -1 -1 -1 -1 -1 -1 -1 -1 -1 -1 -1 -1 -1 -1 -1 -1 -1
 MicOpt= -1 -1 -1 -1 -1 -1 -1 -1 -1 -1 -1 -1 -1 -1 -1 -1 -1 -1 -1
 ITRead=  0  0  0  0  0  0  0  0  0  0  0  0  0  0  0  0  0  0  0  0
 ITRead=  0  0  0  0  0  0  0  0  0  0  0  0  0  0  0  0  0  0  0
 MicOpt= -1 -1 -1 -1 -1 -1 -1 -1 -1 -1 -1 -1 -1 -1 -1 -1 -1 -1 -1 -1
 MicOpt= -1 -1 -1 -1 -1 -1 -1 -1 -1 -1 -1 -1 -1 -1 -1 -1 -1 -1 -1
 NAtoms=     39 NQM=       39 NQMF=       0 NMMI=      0 NMMIF=      0
                NMic=       0 NMicF=      0.
                    Isotopes and Nuclear Properties:
 (Nuclear quadrupole moments (NQMom) in fm**2, nuclear magnetic moments (NMagM)
  in nuclear magnetons)

  Atom         1           2           3           4           5           6           7           8           9          10
 IAtWgt=           1          12           1           1          12          16          14           1          12           1
 AtmWgt=   1.0078250  12.0000000   1.0078250   1.0078250  12.0000000  15.9949146  14.0030740   1.0078250  12.0000000   1.0078250
 NucSpn=           1           0           1           1           0           0           2           1           0           1
 AtZEff=  -0.0000000  -0.0000000  -0.0000000  -0.0000000  -0.0000000  -0.0000000  -0.0000000  -0.0000000  -0.0000000  -0.0000000
 NQMom=    0.0000000   0.0000000   0.0000000   0.0000000   0.0000000   0.0000000   2.0440000   0.0000000   0.0000000   0.0000000
 NMagM=    2.7928460   0.0000000   2.7928460   2.7928460   0.0000000   0.0000000   0.4037610   2.7928460   0.0000000   2.7928460
 AtZNuc=   1.0000000   6.0000000   1.0000000   1.0000000   6.0000000   8.0000000   7.0000000   1.0000000   6.0000000   1.0000000

  Atom        11          12          13          14          15          16          17          18          19          20
 IAtWgt=          12           1           1           1          12          16          14           1          12           1
 AtmWgt=  12.0000000   1.0078250   1.0078250   1.0078250  12.0000000  15.9949146  14.0030740   1.0078250  12.0000000   1.0078250
 NucSpn=           0           1           1           1           0           0           2           1           0           1
 AtZEff=  -0.0000000  -0.0000000  -0.0000000  -0.0000000  -0.0000000  -0.0000000  -0.0000000  -0.0000000  -0.0000000  -0.0000000
 NQMom=    0.0000000   0.0000000   0.0000000   0.0000000   0.0000000   0.0000000   2.0440000   0.0000000   0.0000000   0.0000000
 NMagM=    0.0000000   2.7928460   2.7928460   2.7928460   0.0000000   0.0000000   0.4037610   2.7928460   0.0000000   2.7928460
 AtZNuc=   6.0000000   1.0000000   1.0000000   1.0000000   6.0000000   8.0000000   7.0000000   1.0000000   6.0000000   1.0000000

  Atom        21          22          23          24          25          26          27          28          29          30
 IAtWgt=           1          12          16          14           1          12           1          12           1           1
 AtmWgt=   1.0078250  12.0000000  15.9949146  14.0030740   1.0078250  12.0000000   1.0078250  12.0000000   1.0078250   1.0078250
 NucSpn=           1           0           0           2           1           0           1           0           1           1
 AtZEff=  -0.0000000  -0.0000000  -0.0000000  -0.0000000  -0.0000000  -0.0000000  -0.0000000  -0.0000000  -0.0000000  -0.0000000
 NQMom=    0.0000000   0.0000000   0.0000000   2.0440000   0.0000000   0.0000000   0.0000000   0.0000000   0.0000000   0.0000000
 NMagM=    2.7928460   0.0000000   0.0000000   0.4037610   2.7928460   0.0000000   2.7928460   0.0000000   2.7928460   2.7928460
 AtZNuc=   1.0000000   6.0000000   8.0000000   7.0000000   1.0000000   6.0000000   1.0000000   6.0000000   1.0000000   1.0000000

  Atom        31          32          33          34          35          36          37          38          39
 IAtWgt=           1          12          16          14           1          12           1           1           1
 AtmWgt=   1.0078250  12.0000000  15.9949146  14.0030740   1.0078250  12.0000000   1.0078250   1.0078250   1.0078250
 NucSpn=           1           0           0           2           1           0           1           1           1
 AtZEff=  -0.0000000  -0.0000000  -0.0000000  -0.0000000  -0.0000000  -0.0000000  -0.0000000  -0.0000000  -0.0000000
 NQMom=    0.0000000   0.0000000   0.0000000   2.0440000   0.0000000   0.0000000   0.0000000   0.0000000   0.0000000
 NMagM=    2.7928460   0.0000000   0.0000000   0.4037610   2.7928460   0.0000000   2.7928460   2.7928460   2.7928460
 AtZNuc=   1.0000000   6.0000000   8.0000000   7.0000000   1.0000000   6.0000000   1.0000000   1.0000000   1.0000000
 No MM parameters found.
 Leave Link  101 at Sat Apr 17 05:27:35 2021, MaxMem=   104857600 cpu:               7.8 elap:               0.2
 (Enter /s/ls4/users/knvvv/bin/g16sse/l202.exe)
                          Input orientation:                          
 ---------------------------------------------------------------------
 Center     Atomic      Atomic             Coordinates (Angstroms)
 Number     Number       Type             X           Y           Z
 ---------------------------------------------------------------------
      1          1           0       -7.554076    0.669490    1.066228
      2          6           0       -6.737341    1.056885    0.457749
      3          1           0       -6.385054    2.001968    0.884689
      4          1           0       -7.105919    1.264579   -0.551912
      5          6           0       -5.621380    0.021602    0.427343
      6          8           0       -5.698775   -1.057233    1.004710
      7          7           0       -4.524301    0.388515   -0.299786
      8          1           0       -4.455101    1.303192   -0.727114
      9          6           0       -3.336284   -0.444714   -0.398560
     10          1           0       -3.361067   -1.125126    0.457633
     11          6           0       -3.304952   -1.264728   -1.699787
     12          1           0       -3.296184   -0.596887   -2.566104
     13          1           0       -2.413348   -1.899495   -1.740277
     14          1           0       -4.189361   -1.904132   -1.749096
     15          6           0       -2.125735    0.493167   -0.331013
     16          8           0       -2.100216    1.534817   -0.985602
     17          7           0       -1.114209    0.096355    0.481762
     18          1           0       -1.165537   -0.771145    0.998554
     19          6           0        0.135359    0.824857    0.588852
     20          1           0        0.208116    1.496459   -0.269763
     21          1           0        0.158591    1.439491    1.499614
     22          6           0        1.279019   -0.187345    0.668903
     23          8           0        1.179468   -1.180948    1.386672
     24          7           0        2.357845    0.074794   -0.105493
     25          1           0        2.413227    0.913004   -0.670759
     26          6           0        3.558473   -0.751867   -0.087362
     27          1           0        3.546900   -1.300602    0.858628
     28          6           0        3.586635   -1.747060   -1.257506
     29          1           0        3.584184   -1.209854   -2.210164
     30          1           0        4.483985   -2.372141   -1.215691
     31          1           0        2.707845   -2.395657   -1.210347
     32          6           0        4.753650    0.208506   -0.170808
     33          8           0        4.752243    1.139647   -0.971547
     34          7           0        5.781668   -0.034188    0.677962
     35          1           0        5.710270   -0.794627    1.335467
     36          6           0        6.983040    0.788083    0.664741
     37          1           0        6.736537    1.835549    0.864820
     38          1           0        7.667861    0.426429    1.433276
     39          1           0        7.478320    0.739506   -0.310328
 ---------------------------------------------------------------------
                    Distance matrix (angstroms):
                    1          2          3          4          5
     1  H    0.000000
     2  C    1.089669   0.000000
     3  H    1.781872   1.095247   0.000000
     4  H    1.781391   1.094716   1.768393   0.000000
     5  C    2.136176   1.522532   2.171224   2.169743   0.000000
     6  O    2.535252   2.418115   3.137531   3.129527   1.226062
     7  N    3.335338   2.432719   2.732876   2.737847   1.366354
     8  H    3.636111   2.583251   2.609773   2.656882   2.082175
     9  C    4.601828   3.815134   4.114362   4.141901   2.474112
    10  H    4.601343   4.019999   4.370994   4.555632   2.534742
    11  C    5.426518   4.671846   5.180526   4.707692   3.397818
    12  H    5.738222   4.870340   5.310663   4.694263   3.840546
    13  H    6.395564   5.680530   6.155186   5.783061   4.322113
    14  H    5.086343   4.486645   5.197644   4.469931   3.239755
    15  C    5.608053   4.712413   4.679339   5.044413   3.607910
    16  O    5.890958   4.880021   4.698516   5.031717   4.084707
    17  N    6.491685   5.704630   5.619210   6.191431   4.508120
    18  H    6.549308   5.888901   5.911555   6.468095   4.561718
    19  C    7.705805   6.877865   6.632412   7.343759   5.814753
    20  H    7.919620   6.997276   6.712539   7.323147   6.053444
    21  H    7.763114   6.984679   6.596499   7.550659   6.047168
    22  C    8.883446   8.115092   7.973561   8.596840   6.907787
    23  O    8.933174   8.279290   8.222222   8.853606   6.972659
    24  N    9.998638   9.165378   9.007371   9.548702   7.997173
    25  H   10.120453   9.221016   9.000834   9.526378   8.158146
    26  C   11.262316  10.467688  10.363504  10.863291   9.226748
    27  H   11.276348  10.558601  10.466678  11.047729   9.273165
    28  C   11.634212  10.834605  10.866406  11.130972   9.526511
    29  H   11.761272  10.899070  10.921521  11.097338   9.654809
    30  H   12.624325  11.852289  11.902958  12.165204  10.514179
    31  H   10.949198  10.193828  10.315478  10.494800   8.826164
    32  C   12.378323  11.539397  11.331430  11.912594  10.393939
    33  O   12.482751  11.578440  11.323806  11.866242  10.527060
    34  N   13.359939  12.568393  12.337657  13.011121  11.405938
    35  H   13.347621  12.615129  12.422600  13.117058  11.397246
    36  C   14.543142  13.724574  13.424896  14.149419  12.629935
    37  H   14.339521  13.502496  13.122661  13.926475  12.497996
    38  H   15.228301  14.451953  14.151596  14.930105  13.333406
    39  H   15.095455  14.239933  13.971937  14.595688  13.140080
                    6          7          8          9         10
     6  O    0.000000
     7  N    2.274046   0.000000
     8  H    3.180809   1.011946   0.000000
     9  C    2.815263   1.454445   2.101160   0.000000
    10  H    2.401828   2.053754   2.915007   1.093911   0.000000
    11  C    3.617699   2.485967   2.977105   1.538375   2.162661
    12  H    4.328403   2.759617   2.887088   2.173249   3.070217
    13  H    4.363300   3.430179   3.930962   2.183668   2.515677
    14  H    3.252539   2.732931   3.376683   2.163697   2.482453
    15  C    4.117585   2.401051   2.497796   1.532844   2.183319
    16  O    4.861038   2.767768   2.380325   2.406454   3.278409
    17  N    4.756310   3.510684   3.752252   2.450580   2.557532
    18  H    4.542260   3.783093   4.254649   2.602043   2.288723
    19  C    6.144292   4.763665   4.799260   3.826107   4.005577
    20  H    6.560258   4.860475   4.689575   4.043206   4.487860
    21  H    6.386493   5.125609   5.124748   4.400845   4.477831
    22  C    7.039821   5.911726   6.086929   4.744127   4.738615
    23  O    6.889951   6.151450   6.510562   4.911325   4.634942
    24  N    8.211161   6.892032   6.950655   5.725284   5.870509
    25  H    8.514318   6.967210   6.879634   5.913913   6.226534
    26  C    9.326441   8.165588   8.297585   6.908607   6.950998
    27  H    9.250031   8.327024   8.563080   7.049205   6.921821
    28  C    9.581874   8.441871   8.617126   7.096527   7.183249
    29  H    9.825071   8.482444   8.552481   7.194458   7.440486
    30  H   10.504654   9.466219   9.677501   8.095633   8.117875
    31  H    8.795971   7.802863   8.076063   6.402864   6.420911
    32  C   10.594202   9.280593   9.290259   8.119458   8.247554
    33  O   10.860739   9.331117   9.212040   8.262130   8.543861
    34  N   11.530566  10.360872  10.418938   9.190456   9.210228
    35  H   11.416858  10.431698  10.582526   9.217886   9.119703
    36  C   12.819875  11.554604  11.534022  10.446954  10.521588
    37  H   12.768114  11.413005  11.316820  10.404684  10.530575
    38  H   13.455551  12.314778  12.345128  11.189536  11.180181
    39  H   13.363885  12.007757  11.953995  10.879606  11.025377
                   11         12         13         14         15
    11  C    0.000000
    12  H    1.093889   0.000000
    13  H    1.095229   1.777126   0.000000
    14  H    1.092450   1.781616   1.776041   0.000000
    15  C    2.520772   2.748417   2.791697   3.466489   0.000000
    16  O    3.130320   2.910754   3.530167   4.095585   1.230517
    17  N    3.378026   3.811966   3.257090   4.293627   1.356926
    18  H    3.478759   4.156538   3.214250   4.239899   2.070800
    19  C    4.630332   4.873457   4.398050   5.622862   2.463476
    20  H    4.691564   4.683524   4.535084   5.752412   2.541104
    21  H    5.435540   5.710724   5.316069   6.374842   3.076503
    22  C    5.271076   5.618316   4.729607   6.220711   3.613209
    23  O    5.444563   5.999752   4.816891   6.259421   4.083806
    24  N    6.033520   6.202725   5.416144   7.034449   4.508701
    25  H    6.204756   6.202377   5.687692   7.259010   4.570981
    26  C    7.068913   7.290713   6.301731   8.007371   5.824061
    27  H    7.314004   7.684517   6.529742   8.186220   6.067260
    28  C    6.922588   7.099895   6.021303   7.793102   6.205495
    29  H    6.908233   6.916782   6.055310   7.818094   6.247772
    30  H    7.882147   8.093587   6.933381   8.702326   7.258170
    31  H    6.137774   6.412644   5.172390   6.935654   5.699300
    32  C    8.333622   8.437175   7.633659   9.323715   6.887135
    33  O    8.439772   8.386617   7.821319   9.477418   6.937925
    34  N    9.472834   9.656499   8.745601  10.431141   7.988939
    35  H    9.524074   9.817207   8.756374  10.428241   8.114095
    36  C   10.753967  10.863652  10.064755  11.742962   9.167785
    37  H   10.817598  10.878578  10.220444  11.840312   9.042780
    38  H   11.535975  11.715480  10.821835  12.496107   9.951466
    39  H   11.055610  11.088932  10.337029  12.049633   9.607236
                   16         17         18         19         20
    16  O    0.000000
    17  N    2.279153   0.000000
    18  H    3.182445   1.011071   0.000000
    19  C    2.825021   1.450380   2.099383   0.000000
    20  H    2.417084   2.067274   2.938976   1.092502   0.000000
    21  H    3.359701   2.111884   2.625126   1.099001   1.770987
    22  C    4.137929   2.417240   2.534827   1.529353   2.205249
    23  O    4.874360   2.776926   2.411975   2.397902   3.294816
    24  N    4.772899   3.521433   3.787975   2.446253   2.582528
    25  H    4.566941   3.799740   4.293078   2.604433   2.315974
    26  C    6.168996   4.783025   4.847252   3.828972   4.038952
    27  H    6.582606   4.880518   4.744151   4.028519   4.499366
    28  C    6.571523   5.340521   5.350267   4.683492   4.786485
    29  H    6.430021   5.570237   5.748755   4.885584   4.742058
    30  H    7.659566   6.349377   6.275600   5.691020   5.843278
    31  H    6.214224   4.866359   4.745669   4.497389   4.720372
    32  C    7.028404   5.905098   6.112601   4.720761   4.725515
    33  O    6.863859   6.133174   6.523232   4.883601   4.611823
    34  N    8.206906   6.899902   6.993536   5.711979   5.857093
    35  H    8.474512   6.935140   6.884096   5.853187   6.172482
    36  C    9.262115   8.128801   8.303128   6.848200   6.875659
    37  H    9.033421   8.050201   8.321989   6.683802   6.634948
    38  H   10.123972   8.839631   8.924801   7.590150   7.726131
    39  H    9.635189   8.652896   8.871951   7.398303   7.309617
                   21         22         23         24         25
    21  H    0.000000
    22  C    2.142904   0.000000
    23  O    2.814542   1.229776   0.000000
    24  N    3.045569   1.353614   2.278600   0.000000
    25  H    3.173499   2.071688   3.184308   1.012516   0.000000
    26  C    4.345082   2.467089   2.831351   1.457808   2.103268
    27  H    4.404499   2.533499   2.428556   2.057935   2.919639
    28  C    5.432063   3.386569   3.620306   2.481171   2.965990
    29  H    5.702295   3.827314   4.326745   2.753882   2.871834
    30  H    6.372633   4.312404   4.371620   3.426441   3.921372
    31  H    5.343309   3.232609   3.248994   2.728796   3.365292
    32  C    5.041845   3.596508   4.138973   2.400422   2.494764
    33  O    5.224767   4.063898   4.869403   2.759910   2.369142
    34  N    5.870761   4.505262   4.795578   3.514006   3.750015
    35  H    5.986599   4.522066   4.547530   3.751134   4.220360
    36  C    6.906117   5.786824   6.170876   4.742833   4.762599
    37  H    6.620363   5.823657   6.344493   4.818164   4.679754
    38  H    7.577588   6.463612   6.684689   5.539650   5.681099
    39  H    7.572603   6.344232   6.800257   5.167501   5.080864
                   26         27         28         29         30
    26  C    0.000000
    27  H    1.093682   0.000000
    28  C    1.536373   2.163083   0.000000
    29  H    2.171797   3.070360   1.093688   0.000000
    30  H    2.180593   2.515775   1.094400   1.774691   0.000000
    31  H    2.164881   2.486729   1.093240   1.781497   1.776303
    32  C    1.535490   2.189381   2.523307   2.745609   2.797184
    33  O    2.405140   3.279819   3.126259   2.901498   3.530471
    34  N    2.458329   2.575001   3.390891   3.814760   3.276572
    35  H    2.580020   2.272345   3.484317   4.155015   3.240483
    36  C    3.829460   4.025823   4.653768   4.879452   4.446157
    37  H    4.207311   4.473172   5.221230   5.354188   5.206455
    38  H    4.537377   4.505016   5.349838   5.712135   4.998608
    39  H    4.199895   4.580891   4.714380   4.751176   4.412264
                   31         32         33         34         35
    31  H    0.000000
    32  C    3.470969   0.000000
    33  O    4.090839   1.228092   0.000000
    34  N    4.311686   1.355039   2.271230   0.000000
    35  H    4.249591   2.047013   3.159359   1.007809   0.000000
    36  C    5.650615   2.450353   2.788815   1.455884   2.138875
    37  H    6.199983   2.766159   2.791764   2.107749   2.862265
    38  H    6.289250   3.333647   3.846125   2.083360   2.309265
    39  H    5.778989   2.779435   2.833517   2.110438   2.861505
                   36         37         38         39
    36  C    0.000000
    37  H    1.094524   0.000000
    38  H    1.091063   1.782169   0.000000
    39  H    1.094725   1.769895   1.781600   0.000000
 Stoichiometry    C11H20N4O4
 Framework group  C1[X(C11H20N4O4)]
 Deg. of freedom   111
 Full point group                 C1      NOp   1
 Largest Abelian subgroup         C1      NOp   1
 Largest concise Abelian subgroup C1      NOp   1
                         Standard orientation:                         
 ---------------------------------------------------------------------
 Center     Atomic      Atomic             Coordinates (Angstroms)
 Number     Number       Type             X           Y           Z
 ---------------------------------------------------------------------
      1          1           0       -7.569040   -0.937780   -0.873043
      2          6           0       -6.756046   -1.135848   -0.175054
      3          1           0       -6.406063   -2.164844   -0.310132
      4          1           0       -7.129050   -1.042922    0.849952
      5          6           0       -5.636028   -0.138848   -0.438971
      6          8           0       -5.707008    0.728221   -1.302904
      7          7           0       -4.543034   -0.283930    0.368023
      8          1           0       -4.479050   -1.036983    1.040965
      9          6           0       -3.352019    0.539061    0.228093
     10          1           0       -3.371007    0.944140   -0.787875
     11          6           0       -3.322004    1.698982    1.238183
     12          1           0       -3.319016    1.308903    2.260153
     13          1           0       -2.427993    2.315978    1.098236
     14          1           0       -4.203993    2.328009    1.097228
     15          6           0       -2.145036   -0.381976    0.439028
     16          8           0       -2.126055   -1.191049    1.365965
     17          7           0       -1.129030   -0.238925   -0.448956
     18          1           0       -1.175014    0.443134   -1.193903
     19          6           0        0.117958   -0.970955   -0.336006
     20          1           0        0.184946   -1.367036    0.679963
     21          1           0        0.141946   -1.821902   -1.031072
     22          6           0        1.265976   -0.027947   -0.698927
     23          8           0        1.172993    0.717130   -1.672870
     24          7           0        2.340971   -0.059030    0.123076
     25          1           0        2.390955   -0.699091    0.906026
     26          6           0        3.544986    0.723969   -0.126857
     27          1           0        3.538996    0.977051   -1.190838
     28          6           0        3.573004    2.013904    0.707243
     29          1           0        3.564994    1.773821    1.774224
     30          1           0        4.473015    2.597905    0.491293
     31          1           0        2.697016    2.623937    0.471286
     32          6           0        4.735969   -0.175080    0.235079
     33          8           0        4.727952   -0.836160    1.270028
     34          7           0        5.767972   -0.190030   -0.642917
     35          1           0        5.701987    0.349038   -1.491876
     36          6           0        6.965958   -0.977070   -0.387972
     37          1           0        6.715938   -2.037074   -0.279055
     38          1           0        7.654964   -0.854017   -1.224959
     39          1           0        7.457958   -0.651150    0.534056
 ---------------------------------------------------------------------
 Rotational constants (GHZ):           1.1507825           0.1027762           0.1018981
 Leave Link  202 at Sat Apr 17 05:27:36 2021, MaxMem=   104857600 cpu:               6.6 elap:               0.2
 (Enter /s/ls4/users/knvvv/bin/g16sse/l301.exe)
 Standard basis: def2QZVP (5D, 7F)
 Ernie: Thresh=  0.10000D-02 Tol=  0.10000D-05 Strict=F.
 There are  2068 symmetry adapted cartesian basis functions of A   symmetry.
 There are  1683 symmetry adapted basis functions of A   symmetry.
  1683 basis functions,  2508 primitive gaussians,  2068 cartesian basis functions
    73 alpha electrons       73 beta electrons
       nuclear repulsion energy      1420.8701987320 Hartrees.
 IExCor= 4336 DFT=T Ex+Corr=M062X ExCW=0 ScaHFX=  0.540000
 ScaDFX=  1.000000  1.000000  1.000000  1.000000 ScalE2=  1.000000  1.000000
 IRadAn=      5 IRanWt=     -1 IRanGd=            0 ICorTp=0 IEmpDi=  4
 NAtoms=   39 NActive=   39 NUniq=   39 SFac= 1.00D+00 NAtFMM=   60 NAOKFM=F Big=F
 Integral buffers will be    131072 words long.
 Raffenetti 2 integral format.
 Two-electron integral symmetry is turned on.
 Leave Link  301 at Sat Apr 17 05:27:36 2021, MaxMem=   104857600 cpu:               6.7 elap:               0.2
 (Enter /s/ls4/users/knvvv/bin/g16sse/l302.exe)
 NPDir=0 NMtPBC=     1 NCelOv=     1 NCel=       1 NClECP=     1 NCelD=      1
         NCelK=      1 NCelE2=     1 NClLst=     1 CellRange=     0.0.
 One-electron integrals computed using PRISM.
 One-electron integral symmetry used in STVInt
 PrsmSu:  requested number of processors reduced to:   3 ShMem   1 Linda.
 PrsmSu:  requested number of processors reduced to:  12 ShMem   1 Linda.
   1 Symmetry operations used in ECPInt.
 ECPInt:  NShTT=  137026 NPrTT=  330127 LenC2=   94791 LenP2D=  169006.
 LDataN:  DoStor=T MaxTD1= 8 Len=  415
 Number of processors reduced to   5 by ecpmxn.
 NBasis=  1683 RedAO= T EigKep=  2.48D-05  NBF=  1683
 NBsUse=  1683 1.00D-06 EigRej= -1.00D+00 NBFU=  1683
 Precomputing XC quadrature grid using
 IXCGrd= 4 IRadAn=           5 IRanWt=          -1 IRanGd=           0 AccXCQ= 0.00D+00.
 Generated NRdTot=       0 NPtTot=           0 NUsed=           0 NTot=          32
 NSgBfM=  1917  1916  1916  1917  1917 MxSgAt=    39 MxSgA2=    39.
 Leave Link  302 at Sat Apr 17 05:29:00 2021, MaxMem=   104857600 cpu:            3948.5 elap:              84.2
 (Enter /s/ls4/users/knvvv/bin/g16sse/l303.exe)
 DipDrv:  MaxL=1.
 Leave Link  303 at Sat Apr 17 05:29:53 2021, MaxMem=   104857600 cpu:            2451.8 elap:              53.3
 (Enter /s/ls4/users/knvvv/bin/g16sse/l401.exe)
 SCF N**3 symmetry information disabled.
 ExpMin= 7.60D-02 ExpMax= 1.17D+05 ExpMxC= 1.13D+03 IAcc=3 IRadAn=         5 AccDes= 0.00D+00
 Harris functional with IExCor= 1009 and IRadAn=       5 diagonalized for initial guess.
 HarFok:  IExCor= 1009 AccDes= 0.00D+00 IRadAn=         5 IDoV= 1 UseB2=F ITyADJ=14
 ICtDFT=  3500011 ScaDFX=  1.000000  1.000000  1.000000  1.000000
 CalDSu:  requested number of processors reduced to:  19 ShMem   1 Linda.
 FoFCou: FMM=F IPFlag=           0 FMFlag=      100000 FMFlg1=           0
         NFxFlg=           0 DoJE=T BraDBF=F KetDBF=T FulRan=T
         wScrn=  0.000000 ICntrl=       500 IOpCl=  0 I1Cent=   200000004 NGrid=           0
         NMat0=    1 NMatS0=      1 NMatT0=    0 NMatD0=    1 NMtDS0=    0 NMtDT0=    0
 Petite list used in FoFCou.
 CoulSu:  requested number of processors reduced to:   9 ShMem   1 Linda.
 CoulSu:  requested number of processors reduced to:  10 ShMem   1 Linda.
 CoulSu:  requested number of processors reduced to:  19 ShMem   1 Linda.
 CoulSu:  requested number of processors reduced to:  19 ShMem   1 Linda.
 Harris En= -950.834398868504    
 JPrj=0 DoOrth=F DoCkMO=F.
 Leave Link  401 at Sat Apr 17 05:30:42 2021, MaxMem=   104857600 cpu:            1894.3 elap:              49.0
 (Enter /s/ls4/users/knvvv/bin/g16sse/l502.exe)
 Integral symmetry usage will be decided dynamically.
 Closed shell SCF:
 Using DIIS extrapolation, IDIIS=  1040.
 NGot=   104857600 LenX=    96189093 LenY=    91910401
 Requested convergence on RMS density matrix=1.00D-08 within 128 cycles.
 Requested convergence on MAX density matrix=1.00D-06.
 Requested convergence on             energy=1.00D-06.
 No special actions if energy rises.
 Fock matrices will be formed incrementally for  20 cycles.
 Integral accuracy reduced to 1.0D-05 until final iterations.

 Cycle   1  Pass 0  IDiag  1:
 FoFJK:  IHMeth= 1 ICntrl=       0 DoSepK=F KAlg= 0 I1Cent=           0 FoldK=F
 IRaf= 610000000 NMat=       1 IRICut=       1 DoRegI=T DoRafI=F ISym2E= 0 IDoP0=0 IntGTp=1.
 FoFCou: FMM=F IPFlag=           0 FMFlag=      100000 FMFlg1=           0
         NFxFlg=           0 DoJE=F BraDBF=F KetDBF=F FulRan=T
         wScrn=  0.000000 ICntrl=         0 IOpCl=  0 I1Cent=           0 NGrid=           0
         NMat0=    1 NMatS0=      1 NMatT0=    0 NMatD0=    1 NMtDS0=    0 NMtDT0=    0
 Symmetry not used in FoFCou.
 CoulSu:  requested number of processors reduced to:  11 ShMem   1 Linda.
 CalDSu:  requested number of processors reduced to:  19 ShMem   1 Linda.
 E= -950.639694729111    
 DIIS: error= 1.61D-02 at cycle   1 NSaved=   1.
 NSaved= 1 IEnMin= 1 EnMin= -950.639694729111     IErMin= 1 ErrMin= 1.61D-02
 ErrMax= 1.61D-02  0.00D+00 EMaxC= 1.00D-01 BMatC= 1.20D+00 BMatP= 1.20D+00
 IDIUse=3 WtCom= 8.39D-01 WtEn= 1.61D-01
 Coeff-Com:  0.100D+01
 Coeff-En:   0.100D+01
 Coeff:      0.100D+01
 Gap=     0.351 Goal=   None    Shift=    0.000
 GapD=    0.351 DampG=1.000 DampE=0.500 DampFc=0.5000 IDamp=-1.
 Damping current iteration by 5.00D-01
 RMSDP=4.12D+00 MaxDP=4.46D+02              OVMax= 9.91D-01

 Problem detected with inexpensive integrals.
 Switching to full accuracy and repeating last cycle.
 Cycle   2  Pass 1  IDiag  1:
 CoulSu:  requested number of processors reduced to:  11 ShMem   1 Linda.
 CalDSu:  requested number of processors reduced to:  19 ShMem   1 Linda.
 E= -950.639745424318     Delta-E=       -0.000050695206 Rises=F Damp=F
 DIIS: error= 1.61D-02 at cycle   1 NSaved=   1.
 NSaved= 1 IEnMin= 1 EnMin= -950.639745424318     IErMin= 1 ErrMin= 1.61D-02
 ErrMax= 1.61D-02  0.00D+00 EMaxC= 1.00D-01 BMatC= 1.20D+00 BMatP= 1.20D+00
 IDIUse=3 WtCom= 8.39D-01 WtEn= 1.61D-01
 Coeff-Com:  0.100D+01
 Coeff-En:   0.100D+01
 Coeff:      0.100D+01
 Gap=     0.351 Goal=   None    Shift=    0.000
 GapD=    0.351 DampG=1.000 DampE=0.500 DampFc=0.5000 IDamp=-1.
 Damping current iteration by 5.00D-01
 RMSDP=8.37D-04 MaxDP=1.92D-01 DE=-5.07D-05 OVMax= 2.12D-01

 Cycle   3  Pass 1  IDiag  1:
 RMSU=  4.18D-04    CP:  9.87D-01
 CoulSu:  requested number of processors reduced to:  11 ShMem   1 Linda.
 CalDSu:  requested number of processors reduced to:  19 ShMem   1 Linda.
 E= -950.916969167663     Delta-E=       -0.277223743345 Rises=F Damp=T
 DIIS: error= 9.18D-03 at cycle   2 NSaved=   2.
 NSaved= 2 IEnMin= 2 EnMin= -950.916969167663     IErMin= 2 ErrMin= 9.18D-03
 ErrMax= 9.18D-03  0.00D+00 EMaxC= 1.00D-01 BMatC= 1.73D-01 BMatP= 1.20D+00
 IDIUse=3 WtCom= 9.08D-01 WtEn= 9.18D-02
 Coeff-Com: -0.588D-01 0.106D+01
 Coeff-En:   0.564D-01 0.944D+00
 Coeff:     -0.482D-01 0.105D+01
 Gap=     0.364 Goal=   None    Shift=    0.000
 GapD=    0.364 DampG=1.000 DampE=1.000 DampFc=1.0000 IDamp=-1.
 RMSDP=3.93D-04 MaxDP=5.90D-02 DE=-2.77D-01 OVMax= 1.07D-01

 Cycle   4  Pass 1  IDiag  1:
 RMSU=  3.77D-04    CP:  9.65D-01  7.61D-01
 CoulSu:  requested number of processors reduced to:  11 ShMem   1 Linda.
 CalDSu:  requested number of processors reduced to:  19 ShMem   1 Linda.
 E= -951.195627998286     Delta-E=       -0.278658830623 Rises=F Damp=F
 DIIS: error= 4.78D-03 at cycle   3 NSaved=   3.
 NSaved= 3 IEnMin= 3 EnMin= -951.195627998286     IErMin= 3 ErrMin= 4.78D-03
 ErrMax= 4.78D-03  0.00D+00 EMaxC= 1.00D-01 BMatC= 9.25D-02 BMatP= 1.73D-01
 IDIUse=3 WtCom= 9.52D-01 WtEn= 4.78D-02
 Coeff-Com: -0.151D+00 0.492D+00 0.659D+00
 Coeff-En:   0.000D+00 0.000D+00 0.100D+01
 Coeff:     -0.144D+00 0.468D+00 0.676D+00
 Gap=     0.341 Goal=   None    Shift=    0.000
 RMSDP=1.22D-04 MaxDP=1.22D-02 DE=-2.79D-01 OVMax= 5.22D-02

 Cycle   5  Pass 1  IDiag  1:
 RMSU=  1.13D-04    CP:  9.65D-01  8.69D-01  9.72D-01
 CoulSu:  requested number of processors reduced to:  11 ShMem   1 Linda.
 CalDSu:  requested number of processors reduced to:  19 ShMem   1 Linda.
 E= -951.248484031659     Delta-E=       -0.052856033373 Rises=F Damp=F
 DIIS: error= 1.65D-03 at cycle   4 NSaved=   4.
 NSaved= 4 IEnMin= 4 EnMin= -951.248484031659     IErMin= 4 ErrMin= 1.65D-03
 ErrMax= 1.65D-03  0.00D+00 EMaxC= 1.00D-01 BMatC= 1.43D-02 BMatP= 9.25D-02
 IDIUse=3 WtCom= 9.83D-01 WtEn= 1.65D-02
 Coeff-Com: -0.619D-01 0.135D+00 0.352D+00 0.574D+00
 Coeff-En:   0.000D+00 0.000D+00 0.128D+00 0.872D+00
 Coeff:     -0.608D-01 0.133D+00 0.349D+00 0.579D+00
 Gap=     0.330 Goal=   None    Shift=    0.000
 RMSDP=4.58D-05 MaxDP=7.06D-03 DE=-5.29D-02 OVMax= 1.58D-02

 Cycle   6  Pass 1  IDiag  1:
 RMSU=  2.20D-05    CP:  9.62D-01  8.54D-01  9.81D-01  6.55D-01
 CoulSu:  requested number of processors reduced to:  11 ShMem   1 Linda.
 CalDSu:  requested number of processors reduced to:  19 ShMem   1 Linda.
 E= -951.259615374163     Delta-E=       -0.011131342504 Rises=F Damp=F
 DIIS: error= 2.14D-04 at cycle   5 NSaved=   5.
 NSaved= 5 IEnMin= 5 EnMin= -951.259615374163     IErMin= 5 ErrMin= 2.14D-04
 ErrMax= 2.14D-04  0.00D+00 EMaxC= 1.00D-01 BMatC= 1.94D-04 BMatP= 1.43D-02
 IDIUse=3 WtCom= 9.98D-01 WtEn= 2.14D-03
 Coeff-Com: -0.169D-01 0.346D-01 0.103D+00 0.210D+00 0.669D+00
 Coeff-En:   0.000D+00 0.000D+00 0.000D+00 0.000D+00 0.100D+01
 Coeff:     -0.169D-01 0.346D-01 0.103D+00 0.210D+00 0.670D+00
 Gap=     0.327 Goal=   None    Shift=    0.000
 RMSDP=7.56D-06 MaxDP=1.05D-03 DE=-1.11D-02 OVMax= 3.30D-03

 Cycle   7  Pass 1  IDiag  1:
 RMSU=  7.27D-06    CP:  9.61D-01  8.54D-01  9.81D-01  6.67D-01  1.06D+00
 CoulSu:  requested number of processors reduced to:  11 ShMem   1 Linda.
 CalDSu:  requested number of processors reduced to:  19 ShMem   1 Linda.
 E= -951.259772917309     Delta-E=       -0.000157543145 Rises=F Damp=F
 DIIS: error= 7.06D-05 at cycle   6 NSaved=   6.
 NSaved= 6 IEnMin= 6 EnMin= -951.259772917309     IErMin= 6 ErrMin= 7.06D-05
 ErrMax= 7.06D-05  0.00D+00 EMaxC= 1.00D-01 BMatC= 2.56D-05 BMatP= 1.94D-04
 IDIUse=1 WtCom= 1.00D+00 WtEn= 0.00D+00
 Coeff-Com:  0.164D-02-0.401D-02-0.617D-02 0.517D-02 0.268D+00 0.735D+00
 Coeff:      0.164D-02-0.401D-02-0.617D-02 0.517D-02 0.268D+00 0.735D+00
 Gap=     0.327 Goal=   None    Shift=    0.000
 RMSDP=3.46D-06 MaxDP=7.57D-04 DE=-1.58D-04 OVMax= 7.85D-04

 Cycle   8  Pass 1  IDiag  1:
 RMSU=  2.08D-06    CP:  9.61D-01  8.51D-01  9.83D-01  6.67D-01  1.16D+00
                    CP:  1.09D+00
 CoulSu:  requested number of processors reduced to:  11 ShMem   1 Linda.
 CalDSu:  requested number of processors reduced to:  19 ShMem   1 Linda.
 E= -951.259795061972     Delta-E=       -0.000022144663 Rises=F Damp=F
 DIIS: error= 2.10D-05 at cycle   7 NSaved=   7.
 NSaved= 7 IEnMin= 7 EnMin= -951.259795061972     IErMin= 7 ErrMin= 2.10D-05
 ErrMax= 2.10D-05  0.00D+00 EMaxC= 1.00D-01 BMatC= 1.84D-06 BMatP= 2.56D-05
 IDIUse=1 WtCom= 1.00D+00 WtEn= 0.00D+00
 Coeff-Com:  0.239D-02-0.507D-02-0.121D-01-0.215D-01 0.266D-01 0.197D+00
 Coeff-Com:  0.813D+00
 Coeff:      0.239D-02-0.507D-02-0.121D-01-0.215D-01 0.266D-01 0.197D+00
 Coeff:      0.813D+00
 Gap=     0.328 Goal=   None    Shift=    0.000
 RMSDP=1.34D-06 MaxDP=1.81D-04 DE=-2.21D-05 OVMax= 5.26D-04

 Cycle   9  Pass 1  IDiag  1:
 RMSU=  8.96D-07    CP:  9.61D-01  8.49D-01  9.84D-01  6.67D-01  1.19D+00
                    CP:  1.12D+00  1.10D+00
 CoulSu:  requested number of processors reduced to:  11 ShMem   1 Linda.
 CalDSu:  requested number of processors reduced to:  19 ShMem   1 Linda.
 E= -951.259796975133     Delta-E=       -0.000001913161 Rises=F Damp=F
 DIIS: error= 1.11D-05 at cycle   8 NSaved=   8.
 NSaved= 8 IEnMin= 8 EnMin= -951.259796975133     IErMin= 8 ErrMin= 1.11D-05
 ErrMax= 1.11D-05  0.00D+00 EMaxC= 1.00D-01 BMatC= 5.29D-07 BMatP= 1.84D-06
 IDIUse=1 WtCom= 1.00D+00 WtEn= 0.00D+00
 Coeff-Com:  0.902D-03-0.188D-02-0.433D-02-0.105D-01-0.123D-01 0.586D-02
 Coeff-Com:  0.369D+00 0.654D+00
 Coeff:      0.902D-03-0.188D-02-0.433D-02-0.105D-01-0.123D-01 0.586D-02
 Coeff:      0.369D+00 0.654D+00
 Gap=     0.328 Goal=   None    Shift=    0.000
 RMSDP=4.68D-07 MaxDP=5.81D-05 DE=-1.91D-06 OVMax= 1.98D-04

 Cycle  10  Pass 1  IDiag  1:
 RMSU=  4.00D-07    CP:  9.61D-01  8.49D-01  9.84D-01  6.67D-01  1.20D+00
                    CP:  1.13D+00  1.17D+00  1.02D+00
 CoulSu:  requested number of processors reduced to:  11 ShMem   1 Linda.
 CalDSu:  requested number of processors reduced to:  19 ShMem   1 Linda.
 E= -951.259797414808     Delta-E=       -0.000000439674 Rises=F Damp=F
 DIIS: error= 4.92D-06 at cycle   9 NSaved=   9.
 NSaved= 9 IEnMin= 9 EnMin= -951.259797414808     IErMin= 9 ErrMin= 4.92D-06
 ErrMax= 4.92D-06  0.00D+00 EMaxC= 1.00D-01 BMatC= 8.94D-08 BMatP= 5.29D-07
 IDIUse=1 WtCom= 1.00D+00 WtEn= 0.00D+00
 Coeff-Com:  0.288D-04-0.647D-04 0.578D-04-0.164D-02-0.911D-02-0.311D-01
 Coeff-Com:  0.314D-01 0.309D+00 0.702D+00
 Coeff:      0.288D-04-0.647D-04 0.578D-04-0.164D-02-0.911D-02-0.311D-01
 Coeff:      0.314D-01 0.309D+00 0.702D+00
 Gap=     0.328 Goal=   None    Shift=    0.000
 RMSDP=2.10D-07 MaxDP=2.69D-05 DE=-4.40D-07 OVMax= 9.77D-05

 Cycle  11  Pass 1  IDiag  1:
 RMSU=  1.55D-07    CP:  9.61D-01  8.49D-01  9.84D-01  6.67D-01  1.20D+00
                    CP:  1.13D+00  1.18D+00  1.13D+00  1.19D+00
 CoulSu:  requested number of processors reduced to:  11 ShMem   1 Linda.
 CalDSu:  requested number of processors reduced to:  19 ShMem   1 Linda.
 E= -951.259797493309     Delta-E=       -0.000000078502 Rises=F Damp=F
 DIIS: error= 2.15D-06 at cycle  10 NSaved=  10.
 NSaved=10 IEnMin=10 EnMin= -951.259797493309     IErMin=10 ErrMin= 2.15D-06
 ErrMax= 2.15D-06  0.00D+00 EMaxC= 1.00D-01 BMatC= 1.21D-08 BMatP= 8.94D-08
 IDIUse=1 WtCom= 1.00D+00 WtEn= 0.00D+00
 Coeff-Com: -0.142D-03 0.292D-03 0.764D-03 0.106D-02-0.125D-02-0.133D-01
 Coeff-Com: -0.532D-01 0.423D-02 0.316D+00 0.746D+00
 Coeff:     -0.142D-03 0.292D-03 0.764D-03 0.106D-02-0.125D-02-0.133D-01
 Coeff:     -0.532D-01 0.423D-02 0.316D+00 0.746D+00
 Gap=     0.328 Goal=   None    Shift=    0.000
 RMSDP=8.76D-08 MaxDP=1.15D-05 DE=-7.85D-08 OVMax= 3.37D-05

 Cycle  12  Pass 1  IDiag  1:
 RMSU=  4.65D-08    CP:  9.61D-01  8.49D-01  9.84D-01  6.67D-01  1.20D+00
                    CP:  1.12D+00  1.19D+00  1.18D+00  1.31D+00  9.48D-01
 CoulSu:  requested number of processors reduced to:  11 ShMem   1 Linda.
 CalDSu:  requested number of processors reduced to:  19 ShMem   1 Linda.
 E= -951.259797505851     Delta-E=       -0.000000012541 Rises=F Damp=F
 DIIS: error= 3.79D-07 at cycle  11 NSaved=  11.
 NSaved=11 IEnMin=11 EnMin= -951.259797505851     IErMin=11 ErrMin= 3.79D-07
 ErrMax= 3.79D-07  0.00D+00 EMaxC= 1.00D-01 BMatC= 5.73D-10 BMatP= 1.21D-08
 IDIUse=1 WtCom= 1.00D+00 WtEn= 0.00D+00
 Coeff-Com: -0.331D-04 0.701D-04 0.179D-03 0.330D-03 0.245D-03-0.154D-02
 Coeff-Com: -0.165D-01-0.223D-01 0.434D-01 0.230D+00 0.766D+00
 Coeff:     -0.331D-04 0.701D-04 0.179D-03 0.330D-03 0.245D-03-0.154D-02
 Coeff:     -0.165D-01-0.223D-01 0.434D-01 0.230D+00 0.766D+00
 Gap=     0.328 Goal=   None    Shift=    0.000
 RMSDP=1.69D-08 MaxDP=2.27D-06 DE=-1.25D-08 OVMax= 6.64D-06

 Cycle  13  Pass 1  IDiag  1:
 RMSU=  1.46D-08    CP:  9.61D-01  8.49D-01  9.84D-01  6.67D-01  1.20D+00
                    CP:  1.12D+00  1.19D+00  1.18D+00  1.31D+00  9.66D-01
                    CP:  1.06D+00
 CoulSu:  requested number of processors reduced to:  11 ShMem   1 Linda.
 CalDSu:  requested number of processors reduced to:  19 ShMem   1 Linda.
 E= -951.259797506496     Delta-E=       -0.000000000646 Rises=F Damp=F
 DIIS: error= 1.78D-07 at cycle  12 NSaved=  12.
 NSaved=12 IEnMin=12 EnMin= -951.259797506496     IErMin=12 ErrMin= 1.78D-07
 ErrMax= 1.78D-07  0.00D+00 EMaxC= 1.00D-01 BMatC= 8.52D-11 BMatP= 5.73D-10
 IDIUse=1 WtCom= 1.00D+00 WtEn= 0.00D+00
 Coeff-Com:  0.176D-05-0.230D-05 0.375D-05 0.237D-04 0.211D-03 0.571D-03
 Coeff-Com: -0.126D-02-0.898D-02-0.147D-01 0.162D-01 0.267D+00 0.741D+00
 Coeff:      0.176D-05-0.230D-05 0.375D-05 0.237D-04 0.211D-03 0.571D-03
 Coeff:     -0.126D-02-0.898D-02-0.147D-01 0.162D-01 0.267D+00 0.741D+00
 Gap=     0.328 Goal=   None    Shift=    0.000
 RMSDP=5.81D-09 MaxDP=7.38D-07 DE=-6.46D-10 OVMax= 1.79D-06

 SCF Done:  E(RM062X) =  -951.259797506     A.U. after   13 cycles
            NFock= 13  Conv=0.58D-08     -V/T= 2.0045
 KE= 9.470097790738D+02 PE=-5.063758918200D+03 EE= 1.744619142888D+03
 Leave Link  502 at Sat Apr 17 07:42:04 2021, MaxMem=   104857600 cpu:          116406.4 elap:            7881.4
 (Enter /s/ls4/users/knvvv/bin/g16sse/l601.exe)
 Copying SCF densities to generalized density rwf, IOpCl= 0 IROHF=0.

 **********************************************************************

            Population analysis using the SCF density.

 **********************************************************************

 Orbital symmetries:
       Occupied  (A) (A) (A) (A) (A) (A) (A) (A) (A) (A) (A) (A)
                 (A) (A) (A) (A) (A) (A) (A) (A) (A) (A) (A) (A)
                 (A) (A) (A) (A) (A) (A) (A) (A) (A) (A) (A) (A)
                 (A) (A) (A) (A) (A) (A) (A) (A) (A) (A) (A) (A)
                 (A) (A) (A) (A) (A) (A) (A) (A) (A) (A) (A) (A)
                 (A) (A) (A) (A) (A) (A) (A) (A) (A) (A) (A) (A)
                 (A)
       Virtual   (A) (A) (A) (A) (A) (A) (A) (A) (A) (A) (A) (A)
                 (A) (A) (A) (A) (A) (A) (A) (A) (A) (A) (A) (A)
                 (A) (A) (A) (A) (A) (A) (A) (A) (A) (A) (A) (A)
                 (A) (A) (A) (A) (A) (A) (A) (A) (A) (A) (A) (A)
                 (A) (A) (A) (A) (A) (A) (A) (A) (A) (A) (A) (A)
                 (A) (A) (A) (A) (A) (A) (A) (A) (A) (A) (A) (A)
                 (A) (A) (A) (A) (A) (A) (A) (A) (A) (A) (A) (A)
                 (A) (A) (A) (A) (A) (A) (A) (A) (A) (A) (A) (A)
                 (A) (A) (A) (A) (A) (A) (A) (A) (A) (A) (A) (A)
                 (A) (A) (A) (A) (A) (A) (A) (A) (A) (A) (A) (A)
                 (A) (A) (A) (A) (A) (A) (A) (A) (A) (A) (A) (A)
                 (A) (A) (A) (A) (A) (A) (A) (A) (A) (A) (A) (A)
                 (A) (A) (A) (A) (A) (A) (A) (A) (A) (A) (A) (A)
                 (A) (A) (A) (A) (A) (A) (A) (A) (A) (A) (A) (A)
                 (A) (A) (A) (A) (A) (A) (A) (A) (A) (A) (A) (A)
                 (A) (A) (A) (A) (A) (A) (A) (A) (A) (A) (A) (A)
                 (A) (A) (A) (A) (A) (A) (A) (A) (A) (A) (A) (A)
                 (A) (A) (A) (A) (A) (A) (A) (A) (A) (A) (A) (A)
                 (A) (A) (A) (A) (A) (A) (A) (A) (A) (A) (A) (A)
                 (A) (A) (A) (A) (A) (A) (A) (A) (A) (A) (A) (A)
                 (A) (A) (A) (A) (A) (A) (A) (A) (A) (A) (A) (A)
                 (A) (A) (A) (A) (A) (A) (A) (A) (A) (A) (A) (A)
                 (A) (A) (A) (A) (A) (A) (A) (A) (A) (A) (A) (A)
                 (A) (A) (A) (A) (A) (A) (A) (A) (A) (A) (A) (A)
                 (A) (A) (A) (A) (A) (A) (A) (A) (A) (A) (A) (A)
                 (A) (A) (A) (A) (A) (A) (A) (A) (A) (A) (A) (A)
                 (A) (A) (A) (A) (A) (A) (A) (A) (A) (A) (A) (A)
                 (A) (A) (A) (A) (A) (A) (A) (A) (A) (A) (A) (A)
                 (A) (A) (A) (A) (A) (A) (A) (A) (A) (A) (A) (A)
                 (A) (A) (A) (A) (A) (A) (A) (A) (A) (A) (A) (A)
                 (A) (A) (A) (A) (A) (A) (A) (A) (A) (A) (A) (A)
                 (A) (A) (A) (A) (A) (A) (A) (A) (A) (A) (A) (A)
                 (A) (A) (A) (A) (A) (A) (A) (A) (A) (A) (A) (A)
                 (A) (A) (A) (A) (A) (A) (A) (A) (A) (A) (A) (A)
                 (A) (A) (A) (A) (A) (A) (A) (A) (A) (A) (A) (A)
                 (A) (A) (A) (A) (A) (A) (A) (A) (A) (A) (A) (A)
                 (A) (A) (A) (A) (A) (A) (A) (A) (A) (A) (A) (A)
                 (A) (A) (A) (A) (A) (A) (A) (A) (A) (A) (A) (A)
                 (A) (A) (A) (A) (A) (A) (A) (A) (A) (A) (A) (A)
                 (A) (A) (A) (A) (A) (A) (A) (A) (A) (A) (A) (A)
                 (A) (A) (A) (A) (A) (A) (A) (A) (A) (A) (A) (A)
                 (A) (A) (A) (A) (A) (A) (A) (A) (A) (A) (A) (A)
                 (A) (A) (A) (A) (A) (A) (A) (A) (A) (A) (A) (A)
                 (A) (A) (A) (A) (A) (A) (A) (A) (A) (A) (A) (A)
                 (A) (A) (A) (A) (A) (A) (A) (A) (A) (A) (A) (A)
                 (A) (A) (A) (A) (A) (A) (A) (A) (A) (A) (A) (A)
                 (A) (A) (A) (A) (A) (A) (A) (A) (A) (A) (A) (A)
                 (A) (A) (A) (A) (A) (A) (A) (A) (A) (A) (A) (A)
                 (A) (A) (A) (A) (A) (A) (A) (A) (A) (A) (A) (A)
                 (A) (A) (A) (A) (A) (A) (A) (A) (A) (A) (A) (A)
                 (A) (A) (A) (A) (A) (A) (A) (A) (A) (A) (A) (A)
                 (A) (A) (A) (A) (A) (A) (A) (A) (A) (A) (A) (A)
                 (A) (A) (A) (A) (A) (A) (A) (A) (A) (A) (A) (A)
                 (A) (A) (A) (A) (A) (A) (A) (A) (A) (A) (A) (A)
                 (A) (A) (A) (A) (A) (A) (A) (A) (A) (A) (A) (A)
                 (A) (A) (A) (A) (A) (A) (A) (A) (A) (A) (A) (A)
                 (A) (A) (A) (A) (A) (A) (A) (A) (A) (A) (A) (A)
                 (A) (A) (A) (A) (A) (A) (A) (A) (A) (A) (A) (A)
                 (A) (A) (A) (A) (A) (A) (A) (A) (A) (A) (A) (A)
                 (A) (A) (A) (A) (A) (A) (A) (A) (A) (A) (A) (A)
                 (A) (A) (A) (A) (A) (A) (A) (A) (A) (A) (A) (A)
                 (A) (A) (A) (A) (A) (A) (A) (A) (A) (A) (A) (A)
                 (A) (A) (A) (A) (A) (A) (A) (A) (A) (A) (A) (A)
                 (A) (A) (A) (A) (A) (A) (A) (A) (A) (A) (A) (A)
                 (A) (A) (A) (A) (A) (A) (A) (A) (A) (A) (A) (A)
                 (A) (A) (A) (A) (A) (A) (A) (A) (A) (A) (A) (A)
                 (A) (A) (A) (A) (A) (A) (A) (A) (A) (A) (A) (A)
                 (A) (A) (A) (A) (A) (A) (A) (A) (A) (A) (A) (A)
                 (A) (A) (A) (A) (A) (A) (A) (A) (A) (A) (A) (A)
                 (A) (A) (A) (A) (A) (A) (A) (A) (A) (A) (A) (A)
                 (A) (A) (A) (A) (A) (A) (A) (A) (A) (A) (A) (A)
                 (A) (A) (A) (A) (A) (A) (A) (A) (A) (A) (A) (A)
                 (A) (A) (A) (A) (A) (A) (A) (A) (A) (A) (A) (A)
                 (A) (A) (A) (A) (A) (A) (A) (A) (A) (A) (A) (A)
                 (A) (A) (A) (A) (A) (A) (A) (A) (A) (A) (A) (A)
                 (A) (A) (A) (A) (A) (A) (A) (A) (A) (A) (A) (A)
                 (A) (A) (A) (A) (A) (A) (A) (A) (A) (A) (A) (A)
                 (A) (A) (A) (A) (A) (A) (A) (A) (A) (A) (A) (A)
                 (A) (A) (A) (A) (A) (A) (A) (A) (A) (A) (A) (A)
                 (A) (A) (A) (A) (A) (A) (A) (A) (A) (A) (A) (A)
                 (A) (A) (A) (A) (A) (A) (A) (A) (A) (A) (A) (A)
                 (A) (A) (A) (A) (A) (A) (A) (A) (A) (A) (A) (A)
                 (A) (A) (A) (A) (A) (A) (A) (A) (A) (A) (A) (A)
                 (A) (A) (A) (A) (A) (A) (A) (A) (A) (A) (A) (A)
                 (A) (A) (A) (A) (A) (A) (A) (A) (A) (A) (A) (A)
                 (A) (A) (A) (A) (A) (A) (A) (A) (A) (A) (A) (A)
                 (A) (A) (A) (A) (A) (A) (A) (A) (A) (A) (A) (A)
                 (A) (A) (A) (A) (A) (A) (A) (A) (A) (A) (A) (A)
                 (A) (A) (A) (A) (A) (A) (A) (A) (A) (A) (A) (A)
                 (A) (A) (A) (A) (A) (A) (A) (A) (A) (A) (A) (A)
                 (A) (A) (A) (A) (A) (A) (A) (A) (A) (A) (A) (A)
                 (A) (A) (A) (A) (A) (A) (A) (A) (A) (A) (A) (A)
                 (A) (A) (A) (A) (A) (A) (A) (A) (A) (A) (A) (A)
                 (A) (A) (A) (A) (A) (A) (A) (A) (A) (A) (A) (A)
                 (A) (A) (A) (A) (A) (A) (A) (A) (A) (A) (A) (A)
                 (A) (A) (A) (A) (A) (A) (A) (A) (A) (A) (A) (A)
                 (A) (A) (A) (A) (A) (A) (A) (A) (A) (A) (A) (A)
                 (A) (A) (A) (A) (A) (A) (A) (A) (A) (A) (A) (A)
                 (A) (A) (A) (A) (A) (A) (A) (A) (A) (A) (A) (A)
                 (A) (A) (A) (A) (A) (A) (A) (A) (A) (A) (A) (A)
                 (A) (A) (A) (A) (A) (A) (A) (A) (A) (A) (A) (A)
                 (A) (A) (A) (A) (A) (A) (A) (A) (A) (A) (A) (A)
                 (A) (A) (A) (A) (A) (A) (A) (A) (A) (A) (A) (A)
                 (A) (A) (A) (A) (A) (A) (A) (A) (A) (A) (A) (A)
                 (A) (A) (A) (A) (A) (A) (A) (A) (A) (A) (A) (A)
                 (A) (A) (A) (A) (A) (A) (A) (A) (A) (A) (A) (A)
                 (A) (A) (A) (A) (A) (A) (A) (A) (A) (A) (A) (A)
                 (A) (A) (A) (A) (A) (A) (A) (A) (A) (A) (A) (A)
                 (A) (A) (A) (A) (A) (A) (A) (A) (A) (A) (A) (A)
                 (A) (A) (A) (A) (A) (A) (A) (A) (A) (A) (A) (A)
                 (A) (A) (A) (A) (A) (A) (A) (A) (A) (A) (A) (A)
                 (A) (A) (A) (A) (A) (A) (A) (A) (A) (A) (A) (A)
                 (A) (A) (A) (A) (A) (A) (A) (A) (A) (A) (A) (A)
                 (A) (A) (A) (A) (A) (A) (A) (A) (A) (A) (A) (A)
                 (A) (A) (A) (A) (A) (A) (A) (A) (A) (A) (A) (A)
                 (A) (A) (A) (A) (A) (A) (A) (A) (A) (A) (A) (A)
                 (A) (A) (A) (A) (A) (A) (A) (A) (A) (A) (A) (A)
                 (A) (A) (A) (A) (A) (A) (A) (A) (A) (A) (A) (A)
                 (A) (A) (A) (A) (A) (A) (A) (A) (A) (A) (A) (A)
                 (A) (A) (A) (A) (A) (A) (A) (A) (A) (A) (A) (A)
                 (A) (A) (A) (A) (A) (A) (A) (A) (A) (A) (A) (A)
                 (A) (A) (A) (A) (A) (A) (A) (A) (A) (A) (A) (A)
                 (A) (A) (A) (A) (A) (A) (A) (A) (A) (A) (A) (A)
                 (A) (A) (A) (A) (A) (A) (A) (A) (A) (A) (A) (A)
                 (A) (A) (A) (A) (A) (A) (A) (A) (A) (A) (A) (A)
                 (A) (A) (A) (A) (A) (A) (A) (A) (A) (A) (A) (A)
                 (A) (A) (A) (A) (A) (A) (A) (A) (A) (A) (A) (A)
                 (A) (A) (A) (A) (A) (A) (A) (A) (A) (A) (A) (A)
                 (A) (A) (A) (A) (A) (A) (A) (A) (A) (A) (A) (A)
                 (A) (A) (A) (A) (A) (A) (A) (A) (A) (A) (A) (A)
                 (A) (A) (A) (A) (A) (A) (A) (A) (A) (A) (A) (A)
                 (A) (A) (A) (A) (A) (A) (A) (A) (A) (A) (A) (A)
                 (A) (A) (A) (A) (A) (A) (A) (A) (A) (A) (A) (A)
                 (A) (A) (A) (A) (A) (A) (A) (A) (A) (A) (A) (A)
                 (A) (A)
 The electronic state is 1-A.
 Alpha  occ. eigenvalues --  -19.61366 -19.61046 -19.60334 -19.58769 -14.80155
 Alpha  occ. eigenvalues --  -14.79567 -14.79088 -14.77086 -10.66809 -10.66683
 Alpha  occ. eigenvalues --  -10.65842 -10.64667 -10.61203 -10.60108 -10.59565
 Alpha  occ. eigenvalues --  -10.59180 -10.55294 -10.54326 -10.53955  -1.18314
 Alpha  occ. eigenvalues --   -1.17617  -1.16865  -1.15231  -1.05457  -1.05334
 Alpha  occ. eigenvalues --   -1.04643  -1.03129  -0.89789  -0.88087  -0.83641
 Alpha  occ. eigenvalues --   -0.82140  -0.81738  -0.75673  -0.73491  -0.69670
 Alpha  occ. eigenvalues --   -0.68565  -0.68280  -0.66586  -0.64528  -0.61264
 Alpha  occ. eigenvalues --   -0.58011  -0.57172  -0.56653  -0.56046  -0.55346
 Alpha  occ. eigenvalues --   -0.54670  -0.54185  -0.53166  -0.52893  -0.51565
 Alpha  occ. eigenvalues --   -0.51438  -0.50179  -0.49325  -0.48573  -0.48183
 Alpha  occ. eigenvalues --   -0.48143  -0.47085  -0.46773  -0.46178  -0.45027
 Alpha  occ. eigenvalues --   -0.44801  -0.44234  -0.43680  -0.43599  -0.41830
 Alpha  occ. eigenvalues --   -0.36539  -0.35970  -0.34962  -0.34502  -0.33655
 Alpha  occ. eigenvalues --   -0.33047  -0.32833  -0.31535
 Alpha virt. eigenvalues --    0.01225   0.02728   0.03076   0.03955   0.04275
 Alpha virt. eigenvalues --    0.04571   0.04743   0.05505   0.05747   0.06248
 Alpha virt. eigenvalues --    0.06890   0.07773   0.08208   0.08416   0.09006
 Alpha virt. eigenvalues --    0.09485   0.10118   0.10480   0.10654   0.10827
 Alpha virt. eigenvalues --    0.11291   0.11700   0.12498   0.12563   0.12920
 Alpha virt. eigenvalues --    0.13329   0.13568   0.14090   0.14920   0.15232
 Alpha virt. eigenvalues --    0.15394   0.15574   0.15839   0.16632   0.16942
 Alpha virt. eigenvalues --    0.17284   0.17625   0.18342   0.18939   0.19530
 Alpha virt. eigenvalues --    0.19733   0.20025   0.21289   0.21784   0.21864
 Alpha virt. eigenvalues --    0.22902   0.23095   0.24121   0.24289   0.25109
 Alpha virt. eigenvalues --    0.25590   0.26127   0.26387   0.26829   0.27273
 Alpha virt. eigenvalues --    0.27704   0.28054   0.28486   0.28668   0.29190
 Alpha virt. eigenvalues --    0.29600   0.30185   0.30648   0.31223   0.31248
 Alpha virt. eigenvalues --    0.31338   0.32108   0.32282   0.32533   0.32690
 Alpha virt. eigenvalues --    0.32852   0.33577   0.33751   0.34055   0.34527
 Alpha virt. eigenvalues --    0.34726   0.34854   0.35221   0.35269   0.35928
 Alpha virt. eigenvalues --    0.36035   0.36170   0.36467   0.36824   0.37068
 Alpha virt. eigenvalues --    0.37282   0.37805   0.38152   0.38392   0.38564
 Alpha virt. eigenvalues --    0.38822   0.39856   0.39949   0.41065   0.41446
 Alpha virt. eigenvalues --    0.42104   0.42632   0.43405   0.43594   0.43958
 Alpha virt. eigenvalues --    0.44357   0.45368   0.45729   0.46283   0.46838
 Alpha virt. eigenvalues --    0.47409   0.47860   0.48170   0.48679   0.49180
 Alpha virt. eigenvalues --    0.49614   0.49975   0.50065   0.50677   0.51358
 Alpha virt. eigenvalues --    0.51958   0.52903   0.53095   0.53958   0.54122
 Alpha virt. eigenvalues --    0.54882   0.55553   0.55690   0.56301   0.56447
 Alpha virt. eigenvalues --    0.56730   0.57393   0.58174   0.58537   0.59288
 Alpha virt. eigenvalues --    0.59633   0.59995   0.60227   0.60511   0.61090
 Alpha virt. eigenvalues --    0.61259   0.62614   0.62986   0.63381   0.63655
 Alpha virt. eigenvalues --    0.64085   0.64744   0.65037   0.65620   0.66056
 Alpha virt. eigenvalues --    0.66549   0.67019   0.67519   0.67983   0.68864
 Alpha virt. eigenvalues --    0.69095   0.69690   0.69913   0.70023   0.70984
 Alpha virt. eigenvalues --    0.71264   0.71764   0.72383   0.72757   0.73444
 Alpha virt. eigenvalues --    0.73574   0.73989   0.74366   0.75314   0.75704
 Alpha virt. eigenvalues --    0.75868   0.76374   0.77263   0.77575   0.77953
 Alpha virt. eigenvalues --    0.78491   0.79007   0.79302   0.80335   0.80696
 Alpha virt. eigenvalues --    0.81087   0.81429   0.82004   0.82175   0.82600
 Alpha virt. eigenvalues --    0.83259   0.83683   0.83714   0.83938   0.84671
 Alpha virt. eigenvalues --    0.84916   0.85493   0.85739   0.85900   0.86351
 Alpha virt. eigenvalues --    0.86593   0.87010   0.87199   0.87640   0.87894
 Alpha virt. eigenvalues --    0.88143   0.89191   0.89246   0.89532   0.89942
 Alpha virt. eigenvalues --    0.90739   0.91219   0.91702   0.91846   0.92375
 Alpha virt. eigenvalues --    0.92855   0.93104   0.93367   0.94445   0.95212
 Alpha virt. eigenvalues --    0.95332   0.95660   0.95836   0.97178   0.97595
 Alpha virt. eigenvalues --    0.97728   0.98271   0.99055   0.99882   1.00168
 Alpha virt. eigenvalues --    1.00593   1.01633   1.02083   1.02439   1.02777
 Alpha virt. eigenvalues --    1.03059   1.03381   1.03920   1.04378   1.04680
 Alpha virt. eigenvalues --    1.05344   1.05785   1.05960   1.06193   1.06897
 Alpha virt. eigenvalues --    1.07151   1.07496   1.07996   1.08156   1.08811
 Alpha virt. eigenvalues --    1.09226   1.09769   1.10443   1.10726   1.10937
 Alpha virt. eigenvalues --    1.12046   1.12221   1.13223   1.13333   1.13990
 Alpha virt. eigenvalues --    1.14510   1.15192   1.15519   1.16410   1.16653
 Alpha virt. eigenvalues --    1.17329   1.17497   1.18023   1.19343   1.20478
 Alpha virt. eigenvalues --    1.20823   1.21078   1.21590   1.22359   1.22789
 Alpha virt. eigenvalues --    1.23330   1.24126   1.24840   1.25322   1.25722
 Alpha virt. eigenvalues --    1.26115   1.26894   1.27462   1.28043   1.28829
 Alpha virt. eigenvalues --    1.29890   1.30584   1.31224   1.32056   1.32241
 Alpha virt. eigenvalues --    1.33777   1.33935   1.34742   1.35347   1.35580
 Alpha virt. eigenvalues --    1.35850   1.36323   1.37249   1.37723   1.38401
 Alpha virt. eigenvalues --    1.39655   1.39814   1.40283   1.40630   1.41353
 Alpha virt. eigenvalues --    1.42011   1.42764   1.42935   1.43666   1.44245
 Alpha virt. eigenvalues --    1.44972   1.45143   1.45455   1.45940   1.46347
 Alpha virt. eigenvalues --    1.46690   1.47498   1.48427   1.48939   1.49149
 Alpha virt. eigenvalues --    1.49418   1.50391   1.50940   1.51085   1.51840
 Alpha virt. eigenvalues --    1.52463   1.54092   1.54518   1.54628   1.55444
 Alpha virt. eigenvalues --    1.55664   1.56161   1.57482   1.57993   1.59088
 Alpha virt. eigenvalues --    1.59352   1.60435   1.61781   1.62168   1.62396
 Alpha virt. eigenvalues --    1.62793   1.63987   1.64444   1.65009   1.65148
 Alpha virt. eigenvalues --    1.65794   1.66910   1.67416   1.68681   1.69202
 Alpha virt. eigenvalues --    1.70285   1.71220   1.71595   1.72834   1.73074
 Alpha virt. eigenvalues --    1.74026   1.74664   1.75390   1.75442   1.77548
 Alpha virt. eigenvalues --    1.78676   1.79141   1.79783   1.80632   1.81209
 Alpha virt. eigenvalues --    1.81408   1.82585   1.82658   1.83424   1.84312
 Alpha virt. eigenvalues --    1.84794   1.85050   1.85344   1.85591   1.86421
 Alpha virt. eigenvalues --    1.86763   1.87319   1.88302   1.89013   1.89133
 Alpha virt. eigenvalues --    1.89727   1.90151   1.90894   1.90974   1.91556
 Alpha virt. eigenvalues --    1.92535   1.93001   1.93135   1.93623   1.94097
 Alpha virt. eigenvalues --    1.94787   1.95326   1.95782   1.96184   1.96357
 Alpha virt. eigenvalues --    1.96955   1.97487   1.98256   1.99237   1.99289
 Alpha virt. eigenvalues --    1.99890   2.00359   2.00907   2.01243   2.01473
 Alpha virt. eigenvalues --    2.02699   2.02806   2.03722   2.04224   2.04558
 Alpha virt. eigenvalues --    2.05071   2.05651   2.06437   2.07014   2.07166
 Alpha virt. eigenvalues --    2.07557   2.08080   2.08644   2.08933   2.09166
 Alpha virt. eigenvalues --    2.09826   2.10349   2.10829   2.11207   2.11560
 Alpha virt. eigenvalues --    2.11717   2.12621   2.12680   2.12922   2.13247
 Alpha virt. eigenvalues --    2.13767   2.14430   2.14697   2.15322   2.15385
 Alpha virt. eigenvalues --    2.15722   2.16313   2.17095   2.17211   2.17850
 Alpha virt. eigenvalues --    2.18197   2.18580   2.19542   2.20130   2.20865
 Alpha virt. eigenvalues --    2.21275   2.21913   2.22494   2.23019   2.23377
 Alpha virt. eigenvalues --    2.23480   2.24071   2.24582   2.25331   2.25595
 Alpha virt. eigenvalues --    2.26557   2.26609   2.27338   2.27597   2.28326
 Alpha virt. eigenvalues --    2.28507   2.28934   2.29660   2.29895   2.30655
 Alpha virt. eigenvalues --    2.31063   2.31449   2.31863   2.32228   2.33123
 Alpha virt. eigenvalues --    2.33276   2.34051   2.34377   2.34970   2.35894
 Alpha virt. eigenvalues --    2.36137   2.37307   2.37761   2.38656   2.39002
 Alpha virt. eigenvalues --    2.39917   2.40193   2.41479   2.41784   2.42386
 Alpha virt. eigenvalues --    2.42605   2.43105   2.43502   2.43851   2.44456
 Alpha virt. eigenvalues --    2.45069   2.45227   2.46360   2.46676   2.46998
 Alpha virt. eigenvalues --    2.47935   2.48691   2.49054   2.49533   2.50131
 Alpha virt. eigenvalues --    2.50442   2.51000   2.52006   2.52641   2.53107
 Alpha virt. eigenvalues --    2.54145   2.54420   2.55172   2.55971   2.56440
 Alpha virt. eigenvalues --    2.56608   2.56957   2.57660   2.58849   2.59016
 Alpha virt. eigenvalues --    2.59480   2.59894   2.60075   2.61046   2.61426
 Alpha virt. eigenvalues --    2.61972   2.62676   2.63529   2.63629   2.64777
 Alpha virt. eigenvalues --    2.65230   2.65676   2.65962   2.66236   2.67019
 Alpha virt. eigenvalues --    2.67656   2.68215   2.68775   2.69436   2.69879
 Alpha virt. eigenvalues --    2.70694   2.71170   2.71643   2.72266   2.72562
 Alpha virt. eigenvalues --    2.73330   2.74007   2.74364   2.74689   2.75329
 Alpha virt. eigenvalues --    2.75532   2.76112   2.76125   2.76688   2.77783
 Alpha virt. eigenvalues --    2.77875   2.78305   2.78569   2.79687   2.79849
 Alpha virt. eigenvalues --    2.80307   2.81122   2.81500   2.81984   2.82639
 Alpha virt. eigenvalues --    2.82785   2.82847   2.83879   2.84198   2.85195
 Alpha virt. eigenvalues --    2.85805   2.86113   2.86596   2.87064   2.87325
 Alpha virt. eigenvalues --    2.87671   2.88508   2.89188   2.89538   2.90085
 Alpha virt. eigenvalues --    2.90784   2.91242   2.91387   2.91877   2.92617
 Alpha virt. eigenvalues --    2.92879   2.93420   2.93778   2.94199   2.94572
 Alpha virt. eigenvalues --    2.95354   2.95881   2.96539   2.96772   2.97146
 Alpha virt. eigenvalues --    2.97602   2.98172   2.99111   2.99832   3.00115
 Alpha virt. eigenvalues --    3.00645   3.02265   3.02579   3.02973   3.04231
 Alpha virt. eigenvalues --    3.04607   3.04875   3.05519   3.05746   3.06514
 Alpha virt. eigenvalues --    3.07827   3.08234   3.08869   3.09941   3.11162
 Alpha virt. eigenvalues --    3.11447   3.11787   3.12345   3.13145   3.13524
 Alpha virt. eigenvalues --    3.13754   3.14496   3.15174   3.16083   3.16800
 Alpha virt. eigenvalues --    3.17576   3.18390   3.18816   3.19846   3.20457
 Alpha virt. eigenvalues --    3.20908   3.21878   3.22078   3.22463   3.23375
 Alpha virt. eigenvalues --    3.24012   3.24236   3.24706   3.25324   3.26577
 Alpha virt. eigenvalues --    3.26704   3.27736   3.28592   3.29818   3.29927
 Alpha virt. eigenvalues --    3.31182   3.31654   3.32194   3.33629   3.34034
 Alpha virt. eigenvalues --    3.34623   3.34799   3.35531   3.35959   3.36556
 Alpha virt. eigenvalues --    3.37262   3.37989   3.38927   3.39262   3.40050
 Alpha virt. eigenvalues --    3.40543   3.41349   3.42302   3.42634   3.42762
 Alpha virt. eigenvalues --    3.43784   3.44620   3.44985   3.45424   3.46736
 Alpha virt. eigenvalues --    3.47208   3.47925   3.48120   3.48820   3.50061
 Alpha virt. eigenvalues --    3.50691   3.52261   3.52786   3.52902   3.53026
 Alpha virt. eigenvalues --    3.53418   3.53925   3.54912   3.55777   3.55992
 Alpha virt. eigenvalues --    3.57909   3.58448   3.59730   3.60275   3.60571
 Alpha virt. eigenvalues --    3.61467   3.62058   3.62757   3.63721   3.64605
 Alpha virt. eigenvalues --    3.65893   3.66146   3.67619   3.67967   3.68201
 Alpha virt. eigenvalues --    3.68393   3.68865   3.70644   3.71547   3.71809
 Alpha virt. eigenvalues --    3.72221   3.73405   3.73809   3.75090   3.75990
 Alpha virt. eigenvalues --    3.76928   3.77831   3.79293   3.79939   3.80594
 Alpha virt. eigenvalues --    3.81780   3.82396   3.83737   3.84365   3.84714
 Alpha virt. eigenvalues --    3.85218   3.85816   3.86499   3.87451   3.87622
 Alpha virt. eigenvalues --    3.87923   3.88348   3.88744   3.88787   3.89270
 Alpha virt. eigenvalues --    3.89879   3.91301   3.92196   3.93235   3.93362
 Alpha virt. eigenvalues --    3.94351   3.94850   3.95087   3.96418   3.97040
 Alpha virt. eigenvalues --    3.97782   3.99473   3.99763   4.01037   4.02692
 Alpha virt. eigenvalues --    4.04340   4.04667   4.05499   4.06747   4.06949
 Alpha virt. eigenvalues --    4.09449   4.09790   4.11562   4.12986   4.13884
 Alpha virt. eigenvalues --    4.14174   4.16127   4.16352   4.17683   4.18830
 Alpha virt. eigenvalues --    4.19893   4.21701   4.22169   4.23046   4.24393
 Alpha virt. eigenvalues --    4.24684   4.25106   4.26226   4.26686   4.27529
 Alpha virt. eigenvalues --    4.28024   4.28396   4.29000   4.31077   4.32824
 Alpha virt. eigenvalues --    4.33176   4.34770   4.34873   4.35864   4.38293
 Alpha virt. eigenvalues --    4.38624   4.39713   4.41104   4.43074   4.43352
 Alpha virt. eigenvalues --    4.43693   4.44257   4.47063   4.48685   4.49569
 Alpha virt. eigenvalues --    4.51706   4.53674   4.54139   4.56086   4.57464
 Alpha virt. eigenvalues --    4.57522   4.58750   4.59693   4.61351   4.63042
 Alpha virt. eigenvalues --    4.65163   4.66172   4.67047   4.68549   4.70132
 Alpha virt. eigenvalues --    4.70557   4.71302   4.72858   4.74878   4.75906
 Alpha virt. eigenvalues --    4.76995   4.77298   4.78003   4.80927   4.81934
 Alpha virt. eigenvalues --    4.82924   4.84584   4.85872   4.86912   4.89428
 Alpha virt. eigenvalues --    4.90526   4.92229   4.93675   4.95287   4.97440
 Alpha virt. eigenvalues --    5.00100   5.00816   5.01626   5.05045   5.06434
 Alpha virt. eigenvalues --    5.07463   5.08899   5.09720   5.11541   5.12045
 Alpha virt. eigenvalues --    5.13821   5.16117   5.16677   5.18077   5.18620
 Alpha virt. eigenvalues --    5.18901   5.20366   5.20811   5.21691   5.22794
 Alpha virt. eigenvalues --    5.24200   5.25025   5.25541   5.28109   5.28660
 Alpha virt. eigenvalues --    5.28914   5.30487   5.30738   5.32185   5.33168
 Alpha virt. eigenvalues --    5.34488   5.36639   5.37123   5.38228   5.38813
 Alpha virt. eigenvalues --    5.40379   5.41058   5.42035   5.42149   5.43134
 Alpha virt. eigenvalues --    5.43510   5.44062   5.44879   5.45331   5.45684
 Alpha virt. eigenvalues --    5.47306   5.47621   5.48513   5.49146   5.50263
 Alpha virt. eigenvalues --    5.50566   5.52374   5.53254   5.53434   5.55034
 Alpha virt. eigenvalues --    5.56355   5.56502   5.58468   5.58709   5.59812
 Alpha virt. eigenvalues --    5.60709   5.61791   5.62215   5.63247   5.64840
 Alpha virt. eigenvalues --    5.65393   5.66053   5.66386   5.66912   5.66962
 Alpha virt. eigenvalues --    5.68389   5.69013   5.69427   5.69512   5.70478
 Alpha virt. eigenvalues --    5.70830   5.71493   5.71874   5.72629   5.73133
 Alpha virt. eigenvalues --    5.73632   5.73941   5.74293   5.74640   5.75430
 Alpha virt. eigenvalues --    5.75711   5.76277   5.76624   5.77170   5.77487
 Alpha virt. eigenvalues --    5.78025   5.78689   5.79270   5.79676   5.79932
 Alpha virt. eigenvalues --    5.80574   5.81503   5.81910   5.82372   5.83130
 Alpha virt. eigenvalues --    5.83659   5.83941   5.84337   5.85127   5.86345
 Alpha virt. eigenvalues --    5.86743   5.87906   5.89004   5.89924   5.91453
 Alpha virt. eigenvalues --    5.91745   5.92115   5.92547   5.93011   5.93488
 Alpha virt. eigenvalues --    5.95519   5.95665   5.96581   5.96863   5.97626
 Alpha virt. eigenvalues --    5.97722   5.98384   5.99450   5.99843   6.00275
 Alpha virt. eigenvalues --    6.01122   6.01369   6.01963   6.02454   6.02499
 Alpha virt. eigenvalues --    6.02853   6.03252   6.04267   6.04823   6.05457
 Alpha virt. eigenvalues --    6.05828   6.07024   6.07617   6.08124   6.08700
 Alpha virt. eigenvalues --    6.09425   6.09890   6.09977   6.10765   6.11212
 Alpha virt. eigenvalues --    6.12091   6.13230   6.13718   6.14415   6.14859
 Alpha virt. eigenvalues --    6.15653   6.15905   6.16478   6.16657   6.17373
 Alpha virt. eigenvalues --    6.18366   6.18641   6.19500   6.19599   6.19861
 Alpha virt. eigenvalues --    6.21185   6.21578   6.21857   6.22821   6.23426
 Alpha virt. eigenvalues --    6.24352   6.24966   6.26326   6.26939   6.27289
 Alpha virt. eigenvalues --    6.27438   6.28497   6.28976   6.29088   6.29836
 Alpha virt. eigenvalues --    6.29914   6.31159   6.31375   6.32977   6.34493
 Alpha virt. eigenvalues --    6.34836   6.35367   6.35429   6.36159   6.36588
 Alpha virt. eigenvalues --    6.38247   6.38640   6.38852   6.39339   6.40067
 Alpha virt. eigenvalues --    6.40859   6.41816   6.41884   6.42597   6.42977
 Alpha virt. eigenvalues --    6.43978   6.44778   6.45256   6.45659   6.46885
 Alpha virt. eigenvalues --    6.47858   6.48145   6.48231   6.48824   6.50336
 Alpha virt. eigenvalues --    6.50648   6.51532   6.52216   6.53061   6.54616
 Alpha virt. eigenvalues --    6.55623   6.56207   6.57064   6.57779   6.58756
 Alpha virt. eigenvalues --    6.59518   6.59867   6.60669   6.61178   6.62363
 Alpha virt. eigenvalues --    6.63431   6.64771   6.65560   6.65908   6.66366
 Alpha virt. eigenvalues --    6.67135   6.67415   6.67958   6.69061   6.69331
 Alpha virt. eigenvalues --    6.71494   6.71802   6.72122   6.72463   6.74830
 Alpha virt. eigenvalues --    6.76070   6.76938   6.77249   6.78383   6.79227
 Alpha virt. eigenvalues --    6.79890   6.81935   6.82456   6.82611   6.83561
 Alpha virt. eigenvalues --    6.83803   6.85432   6.86395   6.87493   6.88131
 Alpha virt. eigenvalues --    6.88806   6.89539   6.89899   6.90927   6.91611
 Alpha virt. eigenvalues --    6.93495   6.94358   6.94776   6.95126   6.95873
 Alpha virt. eigenvalues --    6.96012   6.97275   6.97598   6.98596   6.99579
 Alpha virt. eigenvalues --    7.00009   7.00761   7.02190   7.02319   7.03523
 Alpha virt. eigenvalues --    7.04177   7.04381   7.06121   7.06821   7.07038
 Alpha virt. eigenvalues --    7.07773   7.09532   7.10211   7.12101   7.13188
 Alpha virt. eigenvalues --    7.13542   7.13867   7.14552   7.15429   7.16816
 Alpha virt. eigenvalues --    7.17340   7.18099   7.18701   7.19090   7.19653
 Alpha virt. eigenvalues --    7.20110   7.20770   7.21648   7.23053   7.23336
 Alpha virt. eigenvalues --    7.23949   7.24419   7.25146   7.26116   7.26991
 Alpha virt. eigenvalues --    7.27642   7.28394   7.28982   7.29141   7.29733
 Alpha virt. eigenvalues --    7.30981   7.31964   7.32480   7.32967   7.33681
 Alpha virt. eigenvalues --    7.34428   7.34753   7.35962   7.36975   7.37427
 Alpha virt. eigenvalues --    7.38125   7.39150   7.39655   7.40522   7.41156
 Alpha virt. eigenvalues --    7.41595   7.42351   7.42517   7.43207   7.43405
 Alpha virt. eigenvalues --    7.44636   7.45257   7.45619   7.46047   7.46609
 Alpha virt. eigenvalues --    7.47579   7.47802   7.48187   7.48585   7.49290
 Alpha virt. eigenvalues --    7.49700   7.49929   7.50389   7.51108   7.51437
 Alpha virt. eigenvalues --    7.52296   7.53348   7.53839   7.53955   7.54417
 Alpha virt. eigenvalues --    7.55612   7.56429   7.56876   7.57629   7.58108
 Alpha virt. eigenvalues --    7.59334   7.59573   7.60616   7.61491   7.62014
 Alpha virt. eigenvalues --    7.62950   7.63181   7.63896   7.64078   7.64612
 Alpha virt. eigenvalues --    7.65174   7.65365   7.65990   7.67183   7.67399
 Alpha virt. eigenvalues --    7.69064   7.69945   7.70354   7.70776   7.71279
 Alpha virt. eigenvalues --    7.71933   7.72932   7.73510   7.74229   7.74740
 Alpha virt. eigenvalues --    7.75942   7.76212   7.77010   7.77609   7.78130
 Alpha virt. eigenvalues --    7.79305   7.79808   7.81261   7.81706   7.81844
 Alpha virt. eigenvalues --    7.83270   7.84124   7.84658   7.85521   7.86985
 Alpha virt. eigenvalues --    7.87537   7.88911   7.89477   7.90092   7.92399
 Alpha virt. eigenvalues --    7.93491   7.93826   7.94533   7.95282   7.95374
 Alpha virt. eigenvalues --    7.96381   7.97627   7.97986   7.98325   7.99025
 Alpha virt. eigenvalues --    8.00774   8.01614   8.02003   8.03239   8.03649
 Alpha virt. eigenvalues --    8.05117   8.05834   8.06221   8.06519   8.07367
 Alpha virt. eigenvalues --    8.08259   8.09320   8.10368   8.10783   8.11668
 Alpha virt. eigenvalues --    8.12262   8.12562   8.13023   8.13937   8.14244
 Alpha virt. eigenvalues --    8.14697   8.15120   8.15647   8.15933   8.16325
 Alpha virt. eigenvalues --    8.17007   8.17401   8.17553   8.18306   8.18956
 Alpha virt. eigenvalues --    8.19289   8.19967   8.20516   8.20857   8.21397
 Alpha virt. eigenvalues --    8.22017   8.22883   8.23450   8.23871   8.24552
 Alpha virt. eigenvalues --    8.25081   8.25764   8.26404   8.27046   8.27761
 Alpha virt. eigenvalues --    8.28705   8.29696   8.30570   8.31736   8.31778
 Alpha virt. eigenvalues --    8.32245   8.33002   8.33136   8.33613   8.33984
 Alpha virt. eigenvalues --    8.34157   8.34730   8.35989   8.36318   8.36403
 Alpha virt. eigenvalues --    8.37393   8.38614   8.38941   8.39250   8.39633
 Alpha virt. eigenvalues --    8.40972   8.41767   8.42592   8.43085   8.44848
 Alpha virt. eigenvalues --    8.46085   8.46463   8.47583   8.48142   8.48998
 Alpha virt. eigenvalues --    8.49931   8.53240   8.53812   8.54853   8.56642
 Alpha virt. eigenvalues --    8.58596   8.59136   8.61286   8.61488   8.62082
 Alpha virt. eigenvalues --    8.62798   8.64249   8.64673   8.65686   8.67224
 Alpha virt. eigenvalues --    8.67652   8.67945   8.68955   8.69144   8.69769
 Alpha virt. eigenvalues --    8.69958   8.70847   8.73211   8.73773   8.74097
 Alpha virt. eigenvalues --    8.75259   8.75977   8.76411   8.76870   8.77201
 Alpha virt. eigenvalues --    8.78077   8.79443   8.79736   8.80654   8.80831
 Alpha virt. eigenvalues --    8.81573   8.82347   8.82791   8.83039   8.83203
 Alpha virt. eigenvalues --    8.84047   8.84072   8.84419   8.85327   8.85703
 Alpha virt. eigenvalues --    8.86175   8.86864   8.87619   8.88111   8.89091
 Alpha virt. eigenvalues --    8.89827   8.89914   8.92516   8.92916   8.95132
 Alpha virt. eigenvalues --    8.95782   8.96815   8.97555   8.98076   8.99161
 Alpha virt. eigenvalues --    8.99980   9.01804   9.02289   9.02684   9.03942
 Alpha virt. eigenvalues --    9.05878   9.06535   9.08116   9.12279   9.14113
 Alpha virt. eigenvalues --    9.14341   9.14935   9.16759   9.17434   9.17802
 Alpha virt. eigenvalues --    9.19990   9.20470   9.21150   9.21902   9.23691
 Alpha virt. eigenvalues --    9.24952   9.25751   9.28277   9.29505   9.30045
 Alpha virt. eigenvalues --    9.30423   9.31044   9.32422   9.37548   9.40584
 Alpha virt. eigenvalues --    9.44678   9.45652   9.47194   9.47717   9.48573
 Alpha virt. eigenvalues --    9.49962   9.50621   9.51946   9.52704   9.54418
 Alpha virt. eigenvalues --    9.54805   9.54919   9.55362   9.56617   9.57010
 Alpha virt. eigenvalues --    9.57883   9.58173   9.58646   9.59299   9.59424
 Alpha virt. eigenvalues --    9.60049   9.61109   9.61684   9.62503   9.63169
 Alpha virt. eigenvalues --    9.63467   9.63945   9.64673   9.65685   9.66497
[...]
    38  H    0.000000  -0.000000  -0.000000   0.000000   0.000000  -0.000000
    39  H    0.000000   0.000000   0.000000  -0.000000  -0.000000  -0.000000
              13         14         15         16         17         18
     1  H   -0.000003  -0.000003   0.000099  -0.000011  -0.000004   0.000000
     2  C   -0.000076   0.000053  -0.002616  -0.000302   0.000099  -0.000016
     3  H   -0.000007   0.000021  -0.000296   0.000109  -0.000015  -0.000002
     4  H    0.000033  -0.000092   0.000523  -0.000031  -0.000025   0.000000
     5  C    0.000490  -0.000237   0.001496  -0.003032  -0.000024  -0.000116
     6  O   -0.000730   0.002482  -0.001679   0.000015   0.000033  -0.000002
     7  N    0.007574   0.001303  -0.055492  -0.037105   0.005622  -0.001186
     8  H   -0.000400   0.000288  -0.008309   0.030674   0.001534  -0.000094
     9  C   -0.039991  -0.043596   0.320185  -0.021346  -0.076492   0.006881
    10  H   -0.002339  -0.003727  -0.060058   0.007755  -0.002100   0.004463
    11  C    0.334541   0.364049  -0.105182  -0.009777   0.000835  -0.000760
    12  H   -0.031490  -0.030786  -0.005052   0.004946  -0.000505   0.000131
    13  H    0.551382  -0.029923   0.007697  -0.001407   0.002132  -0.000391
    14  H   -0.029923   0.505410   0.005400  -0.000495  -0.000050  -0.000079
    15  C    0.007697   0.005400   4.492960   0.655232   0.445100  -0.013009
    16  O   -0.001407  -0.000495   0.655232   7.900392  -0.108297   0.004755
    17  N    0.002132  -0.000050   0.445100  -0.108297   6.694430   0.326462
    18  H   -0.000391  -0.000079  -0.013009   0.004755   0.326462   0.373088
    19  C   -0.000568   0.000018  -0.054757  -0.010742   0.283565  -0.027484
    20  H   -0.000022   0.000016  -0.013667   0.018361  -0.049610   0.007135
    21  H    0.000025   0.000001   0.004912  -0.000742  -0.052036  -0.001501
    22  C    0.000015  -0.000005  -0.002464   0.001635  -0.067901  -0.000866
    23  O    0.000080  -0.000000  -0.004418   0.000003  -0.024812   0.033437
    24  N    0.000031   0.000000  -0.001606   0.000192   0.002466   0.001840
    25  H   -0.000006  -0.000000   0.000092  -0.000039  -0.000887  -0.000093
    26  C   -0.000003  -0.000000   0.000042   0.000049  -0.000466  -0.000141
    27  H   -0.000002   0.000000  -0.000060   0.000006  -0.000418  -0.000236
    28  C    0.000011   0.000000  -0.000074  -0.000016   0.000486   0.000137
    29  H   -0.000000   0.000000  -0.000029   0.000001  -0.000035   0.000005
    30  H    0.000000  -0.000000  -0.000007  -0.000000  -0.000004  -0.000003
    31  H    0.000023  -0.000000   0.000043  -0.000004   0.000193  -0.000027
    32  C    0.000001   0.000000  -0.000023  -0.000004   0.000063   0.000004
    33  O   -0.000000  -0.000000  -0.000005   0.000000  -0.000001   0.000002
    34  N   -0.000000  -0.000000   0.000000   0.000000  -0.000003  -0.000000
    35  H    0.000000  -0.000000   0.000000  -0.000000   0.000001  -0.000000
    36  C    0.000000   0.000000  -0.000000  -0.000000  -0.000000  -0.000000
    37  H   -0.000000  -0.000000   0.000000  -0.000000   0.000000   0.000000
    38  H    0.000000   0.000000   0.000000  -0.000000  -0.000000  -0.000000
    39  H    0.000000   0.000000  -0.000000  -0.000000  -0.000000  -0.000000
              19         20         21         22         23         24
     1  H    0.000001   0.000000  -0.000000  -0.000000  -0.000000  -0.000000
     2  C   -0.000017   0.000002  -0.000005   0.000001  -0.000000   0.000000
     3  H   -0.000007  -0.000003   0.000004  -0.000000   0.000000  -0.000000
     4  H    0.000002   0.000000  -0.000000   0.000000  -0.000000   0.000000
     5  C   -0.000211  -0.000007   0.000002  -0.000009  -0.000005   0.000001
     6  O   -0.000034   0.000004  -0.000012   0.000003   0.000000   0.000000
     7  N   -0.000500  -0.000233   0.000279  -0.000041  -0.000003  -0.000005
     8  H   -0.000222  -0.000255   0.000086  -0.000003   0.000001  -0.000001
     9  C   -0.000746   0.000521  -0.000309  -0.000459  -0.000121  -0.000030
    10  H   -0.000610  -0.000322   0.000039  -0.000027  -0.000405  -0.000034
    11  C    0.002390   0.000087  -0.000126  -0.000564  -0.000021  -0.000033
    12  H    0.000022  -0.000077  -0.000013   0.000065   0.000006  -0.000028
    13  H   -0.000568  -0.000022   0.000025   0.000015   0.000080   0.000031
    14  H    0.000018   0.000016   0.000001  -0.000005  -0.000000   0.000000
    15  C   -0.054757  -0.013667   0.004912  -0.002464  -0.004418  -0.001606
    16  O   -0.010742   0.018361  -0.000742   0.001635   0.000003   0.000192
    17  N    0.283565  -0.049610  -0.052036  -0.067901  -0.024812   0.002466
    18  H   -0.027484   0.007135  -0.001501  -0.000866   0.033437   0.001840
    19  C    5.239557   0.351686   0.359260   0.359935  -0.066386  -0.076951
    20  H    0.351686   0.545843  -0.048042  -0.037793   0.006175  -0.001357
    21  H    0.359260  -0.048042   0.535647  -0.049763  -0.003969  -0.000178
    22  C    0.359935  -0.037793  -0.049763   4.352765   0.669089   0.452699
    23  O   -0.066386   0.006175  -0.003969   0.669089   7.909992  -0.107341
    24  N   -0.076951  -0.001357  -0.000178   0.452699  -0.107341   6.769781
    25  H    0.006988   0.003886  -0.000227  -0.007468   0.005114   0.311673
    26  C    0.002840  -0.000387  -0.000498  -0.059571  -0.000706   0.247469
    27  H    0.001259  -0.000207   0.000053  -0.017338   0.021703  -0.062260
    28  C   -0.002138   0.000174  -0.000026  -0.001217  -0.007841  -0.055609
    29  H   -0.000070   0.000024  -0.000001  -0.000057   0.000038   0.001322
    30  H   -0.000020   0.000006   0.000014  -0.000351  -0.000546   0.006595
    31  H   -0.000012  -0.000069  -0.000002  -0.001048   0.002157   0.001702
    32  C   -0.001012   0.000116   0.000259   0.003598  -0.000113  -0.051756
    33  O    0.000037  -0.000212   0.000014  -0.002706  -0.000014  -0.031806
    34  N    0.000080  -0.000020  -0.000048  -0.000640   0.000207   0.003037
    35  H   -0.000011   0.000000   0.000002  -0.000013  -0.000037  -0.000561
    36  C   -0.000012   0.000002   0.000004   0.000028   0.000000  -0.000405
    37  H    0.000003  -0.000000   0.000002   0.000113   0.000000   0.000357
    38  H    0.000000   0.000000   0.000000   0.000014   0.000001   0.000004
    39  H   -0.000001  -0.000000  -0.000000  -0.000054  -0.000000  -0.000233
              25         26         27         28         29         30
     1  H    0.000000   0.000000   0.000000  -0.000000   0.000000  -0.000000
     2  C   -0.000000   0.000000   0.000000  -0.000000   0.000000  -0.000000
     3  H    0.000000  -0.000000  -0.000000   0.000000  -0.000000   0.000000
     4  H   -0.000000   0.000000   0.000000   0.000000   0.000000   0.000000
     5  C   -0.000000  -0.000000   0.000000  -0.000000  -0.000000  -0.000000
     6  O   -0.000000  -0.000000   0.000000  -0.000000   0.000000   0.000000
     7  N    0.000001  -0.000000  -0.000000  -0.000000  -0.000000  -0.000000
     8  H    0.000000  -0.000000  -0.000000   0.000000  -0.000000   0.000000
     9  C   -0.000028   0.000004  -0.000003   0.000014  -0.000001  -0.000000
    10  H    0.000002   0.000002   0.000000  -0.000002  -0.000000  -0.000000
    11  C    0.000016   0.000007   0.000002  -0.000011  -0.000001  -0.000000
    12  H   -0.000000   0.000002  -0.000000  -0.000002  -0.000000  -0.000000
    13  H   -0.000006  -0.000003  -0.000002   0.000011  -0.000000   0.000000
    14  H   -0.000000  -0.000000   0.000000   0.000000   0.000000  -0.000000
    15  C    0.000092   0.000042  -0.000060  -0.000074  -0.000029  -0.000007
    16  O   -0.000039   0.000049   0.000006  -0.000016   0.000001  -0.000000
    17  N   -0.000887  -0.000466  -0.000418   0.000486  -0.000035  -0.000004
    18  H   -0.000093  -0.000141  -0.000236   0.000137   0.000005  -0.000003
    19  C    0.006988   0.002840   0.001259  -0.002138  -0.000070  -0.000020
    20  H    0.003886  -0.000387  -0.000207   0.000174   0.000024   0.000006
    21  H   -0.000227  -0.000498   0.000053  -0.000026  -0.000001   0.000014
    22  C   -0.007468  -0.059571  -0.017338  -0.001217  -0.000057  -0.000351
    23  O    0.005114  -0.000706   0.021703  -0.007841   0.000038  -0.000546
    24  N    0.311673   0.247469  -0.062260  -0.055609   0.001322   0.006595
    25  H    0.358212  -0.010890   0.007907  -0.002904   0.000456  -0.000243
    26  C   -0.010890   5.224775   0.353184   0.339067  -0.037106  -0.036705
    27  H    0.007907   0.353184   0.584194  -0.070596   0.008858  -0.001394
    28  C   -0.002904   0.339067  -0.070596   5.448912   0.346363   0.337815
    29  H    0.000456  -0.037106   0.008858   0.346363   0.506555  -0.033675
    30  H   -0.000243  -0.036705  -0.001394   0.337815  -0.033675   0.550985
    31  H    0.000299  -0.042634  -0.003438   0.362388  -0.029479  -0.030892
    32  C   -0.009431   0.321325  -0.059329  -0.098633  -0.008954   0.006372
    33  O    0.031967  -0.025804   0.007780  -0.011370   0.006315  -0.001345
    34  N    0.002230  -0.080452  -0.003836  -0.002810   0.000320   0.001634
    35  H   -0.000147   0.006140   0.005586  -0.000017   0.000088  -0.000721
    36  C   -0.000334   0.005593  -0.001049  -0.000519  -0.000140   0.000176
    37  H    0.000127  -0.001300  -0.000411  -0.000414  -0.000063   0.000080
    38  H   -0.000020   0.000424  -0.000320   0.000004  -0.000010   0.000028
    39  H   -0.000087  -0.000819   0.000284   0.000855   0.000103  -0.000232
              31         32         33         34         35         36
     1  H   -0.000000  -0.000000  -0.000000   0.000000  -0.000000   0.000000
     2  C    0.000000  -0.000000  -0.000000  -0.000000  -0.000000  -0.000000
     3  H    0.000000   0.000000  -0.000000   0.000000  -0.000000   0.000000
     4  H    0.000000   0.000000   0.000000   0.000000   0.000000   0.000000
     5  C    0.000000  -0.000000   0.000000  -0.000000   0.000000  -0.000000
     6  O    0.000000  -0.000000   0.000000  -0.000000   0.000000  -0.000000
     7  N    0.000000  -0.000000  -0.000000   0.000000  -0.000000  -0.000000
     8  H    0.000000   0.000000  -0.000000  -0.000000   0.000000  -0.000000
     9  C    0.000012   0.000001  -0.000000   0.000000   0.000000   0.000000
    10  H    0.000001  -0.000000  -0.000000  -0.000000   0.000000  -0.000000
    11  C   -0.000007  -0.000001  -0.000000   0.000000  -0.000000  -0.000000
    12  H    0.000000  -0.000000   0.000000   0.000000  -0.000000  -0.000000
    13  H    0.000023   0.000001  -0.000000  -0.000000   0.000000   0.000000
    14  H   -0.000000   0.000000  -0.000000  -0.000000  -0.000000   0.000000
    15  C    0.000043  -0.000023  -0.000005   0.000000   0.000000  -0.000000
    16  O   -0.000004  -0.000004   0.000000   0.000000  -0.000000  -0.000000
    17  N    0.000193   0.000063  -0.000001  -0.000003   0.000001  -0.000000
    18  H   -0.000027   0.000004   0.000002  -0.000000  -0.000000  -0.000000
    19  C   -0.000012  -0.001012   0.000037   0.000080  -0.000011  -0.000012
    20  H   -0.000069   0.000116  -0.000212  -0.000020   0.000000   0.000002
    21  H   -0.000002   0.000259   0.000014  -0.000048   0.000002   0.000004
    22  C   -0.001048   0.003598  -0.002706  -0.000640  -0.000013   0.000028
    23  O    0.002157  -0.000113  -0.000014   0.000207  -0.000037   0.000000
    24  N    0.001702  -0.051756  -0.031806   0.003037  -0.000561  -0.000405
    25  H    0.000299  -0.009431   0.031967   0.002230  -0.000147  -0.000334
    26  C   -0.042634   0.321325  -0.025804  -0.080452   0.006140   0.005593
    27  H   -0.003438  -0.059329   0.007780  -0.003836   0.005586  -0.001049
    28  C    0.362388  -0.098633  -0.011370  -0.002810  -0.000017  -0.000519
    29  H   -0.029479  -0.008954   0.006315   0.000320   0.000088  -0.000140
    30  H   -0.030892   0.006372  -0.001345   0.001634  -0.000721   0.000176
    31  H    0.506947   0.006352  -0.000477  -0.000216  -0.000062   0.000058
    32  C    0.006352   4.475504   0.660403   0.430123  -0.009429  -0.050792
    33  O   -0.000477   0.660403   7.889387  -0.125824   0.005064   0.005154
    34  N   -0.000216   0.430123  -0.125824   6.709050   0.344442   0.281696
    35  H   -0.000062  -0.009429   0.005064   0.344442   0.360264  -0.016724
    36  C    0.000058  -0.050792   0.005154   0.281696  -0.016724   5.173039
    37  H   -0.000000  -0.001635   0.005699  -0.054148   0.003657   0.376719
    38  H    0.000001   0.005467   0.001999  -0.039028  -0.006308   0.367250
    39  H    0.000001  -0.004538   0.003987  -0.057004   0.004388   0.380691
              37         38         39
     1  H   -0.000000   0.000000   0.000000
     2  C   -0.000000   0.000000   0.000000
     3  H    0.000000   0.000000  -0.000000
     4  H   -0.000000  -0.000000   0.000000
     5  C   -0.000000   0.000000   0.000000
     6  O   -0.000000   0.000000  -0.000000
     7  N   -0.000000   0.000000   0.000000
     8  H    0.000000  -0.000000   0.000000
     9  C   -0.000000  -0.000000   0.000000
    10  H    0.000000   0.000000  -0.000000
    11  C    0.000000   0.000000  -0.000000
    12  H    0.000000  -0.000000  -0.000000
    13  H   -0.000000   0.000000   0.000000
    14  H   -0.000000   0.000000   0.000000
    15  C    0.000000   0.000000  -0.000000
    16  O   -0.000000  -0.000000  -0.000000
    17  N    0.000000  -0.000000  -0.000000
    18  H    0.000000  -0.000000  -0.000000
    19  C    0.000003   0.000000  -0.000001
    20  H   -0.000000   0.000000  -0.000000
    21  H    0.000002   0.000000  -0.000000
    22  C    0.000113   0.000014  -0.000054
    23  O    0.000000   0.000001  -0.000000
    24  N    0.000357   0.000004  -0.000233
    25  H    0.000127  -0.000020  -0.000087
    26  C   -0.001300   0.000424  -0.000819
    27  H   -0.000411  -0.000320   0.000284
    28  C   -0.000414   0.000004   0.000855
    29  H   -0.000063  -0.000010   0.000103
    30  H    0.000080   0.000028  -0.000232
    31  H   -0.000000   0.000001   0.000001
    32  C   -0.001635   0.005467  -0.004538
    33  O    0.005699   0.001999   0.003987
    34  N   -0.054148  -0.039028  -0.057004
    35  H    0.003657  -0.006308   0.004388
    36  C    0.376719   0.367250   0.380691
    37  H    0.498629  -0.031785  -0.037914
    38  H   -0.031785   0.546611  -0.031642
    39  H   -0.037914  -0.031642   0.498719
 Mulliken charges:
               1
     1  H    0.221498
     2  C   -0.670911
     3  H    0.220267
     4  H    0.225697
     5  C    0.415529
     6  O   -0.427607
     7  N   -0.413459
     8  H    0.303874
     9  C   -0.170036
    10  H    0.237158
    11  C   -0.594057
    12  H    0.231704
    13  H    0.203322
    14  H    0.229953
    15  C    0.395022
    16  O   -0.430775
    17  N   -0.379336
    18  H    0.287663
    19  C   -0.365133
    20  H    0.218244
    21  H    0.256894
    22  C    0.410401
    23  O   -0.431265
    24  N   -0.408974
    25  H    0.303832
    26  C   -0.203438
    27  H    0.230083
    28  C   -0.582025
    29  H    0.239175
    30  H    0.202432
    31  H    0.228190
    32  C    0.386064
    33  O   -0.418245
    34  N   -0.408791
    35  H    0.304398
    36  C   -0.520435
    37  H    0.242285
    38  H    0.187307
    39  H    0.243495
 Sum of Mulliken charges =  -0.00000
 Mulliken charges with hydrogens summed into heavy atoms:
               1
     2  C   -0.003449
     5  C    0.415529
     6  O   -0.427607
     7  N   -0.109585
     9  C    0.067122
    11  C    0.070922
    15  C    0.395022
    16  O   -0.430775
    17  N   -0.091673
    19  C    0.110005
    22  C    0.410401
    23  O   -0.431265
    24  N   -0.105142
    26  C    0.026645
    28  C    0.087772
    32  C    0.386064
    33  O   -0.418245
    34  N   -0.104394
    36  C    0.152653
 Electronic spatial extent (au):  <R**2>=          10414.9208
 Charge=             -0.0000 electrons
 Dipole moment (field-independent basis, Debye):
    X=              5.4344    Y=             -0.3324    Z=             -0.3605  Tot=              5.4565
 Quadrupole moment (field-independent basis, Debye-Ang):
   XX=            -93.4401   YY=           -113.8397   ZZ=           -124.8993
   XY=             13.3746   XZ=            -23.6268   YZ=              9.1256
 Traceless Quadrupole moment (field-independent basis, Debye-Ang):
   XX=             17.2863   YY=             -3.1133   ZZ=            -14.1730
   XY=             13.3746   XZ=            -23.6268   YZ=              9.1256
 Octapole moment (field-independent basis, Debye-Ang**2):
  XXX=            248.2581  YYY=             -2.6434  ZZZ=             -0.2369  XYY=              7.2159
  XXY=            -58.7247  XXZ=            -15.4373  XZZ=             18.2010  YZZ=             -0.2137
  YYZ=             -3.0580  XYZ=             -7.6125
 Hexadecapole moment (field-independent basis, Debye-Ang**3):
 XXXX=         -10688.2205 YYYY=           -782.5359 ZZZZ=           -644.6265 XXXY=            493.8057
 XXXZ=           -948.0874 YYYX=             -5.4570 YYYZ=             -0.1135 ZZZX=            -51.3594
 ZZZY=              5.5315 XXYY=          -2153.5540 XXZZ=          -2252.1477 YYZZ=           -248.1381
 XXYZ=            127.7133 YYXZ=             -9.5217 ZZXY=             29.0689
 N-N= 1.420870198732D+03 E-N=-5.063758898095D+03  KE= 9.470097790738D+02
 PrsmSu:  requested number of processors reduced to:  16 ShMem   1 Linda.
 No NMR shielding tensors so no spin-rotation constants.
 Leave Link  601 at Sun Apr 18 11:11:36 2021, MaxMem=   104857600 cpu:            2080.9 elap:              45.1
 (Enter /s/ls4/users/knvvv/bin/g16sse/l9999.exe)

 Test job not archived.
 1\1\GINC-N155\Stability\RM062X\def2QZVP\C11H20N4O4\KNVVV\18-Apr-2021\0
 \\#P M062X/Def2QZVP Integral=UltraFineGrid SCF=NoSymm Stable=(RExt, Op
 t) IOp(1/33=1)\\Database calculations.\\0,1\H,0,-7.55407585,0.66949025
 ,1.06622822\C,0,-6.73734056,1.05688496,0.4577494\H,0,-6.3850537,2.0019
 6833,0.88468868\H,0,-7.1059187,1.26457863,-0.55191235\C,0,-5.62138037,
 0.02160167,0.42734297\O,0,-5.69877481,-1.05723349,1.00470954\N,0,-4.52
 430116,0.38851458,-0.29978581\H,0,-4.4551009,1.30319242,-0.72711428\C,
 0,-3.33628402,-0.4447137,-0.39855991\H,0,-3.36106736,-1.12512593,0.457
 63324\C,0,-3.30495181,-1.26472841,-1.69978743\H,0,-3.2961835,-0.596887
 37,-2.56610401\H,0,-2.41334756,-1.89949497,-1.74027716\H,0,-4.18936064
 ,-1.90413161,-1.74909554\C,0,-2.12573487,0.49316651,-0.33101339\O,0,-2
 .10021598,1.5348166,-0.98560179\N,0,-1.11420863,0.09635505,0.48176163\
 H,0,-1.16553698,-0.77114492,0.9985541\C,0,0.13535901,0.82485714,0.5888
 5153\H,0,0.20811606,1.49645898,-0.26976307\H,0,0.15859051,1.4394906,1.
 49961439\C,0,1.27901934,-0.18734533,0.66890288\O,0,1.17946793,-1.18094
 803,1.38667183\N,0,2.3578451,0.0747938,-0.10549317\H,0,2.41322746,0.91
 3004,-0.67075907\C,0,3.55847257,-0.75186715,-0.08736173\H,0,3.54690015
 ,-1.30060197,0.85862829\C,0,3.58663452,-1.74706034,-1.25750647\H,0,3.5
 8418388,-1.20985374,-2.21016388\H,0,4.48398454,-2.37214089,-1.21569054
 \H,0,2.70784489,-2.39565696,-1.21034732\C,0,4.75364982,0.20850576,-0.1
 7080777\O,0,4.75224332,1.1396474,-0.97154709\N,0,5.78166782,-0.0341879
 ,0.67796209\H,0,5.71026957,-0.79462736,1.33546718\C,0,6.98303991,0.788
 08251,0.66474123\H,0,6.73653665,1.83554925,0.86482019\H,0,7.6678606,0.
 42642855,1.43327609\H,0,7.47832041,0.7395057,-0.3103283\\Version=ES64L
 -G16RevA.03\State=1-A\HF=-951.2597975\RMSD=5.809e-09\Dipole=2.1377672,
 0.0757496,0.1810907\Quadrupole=12.6340076,-6.6205768,-6.0134308,-14.68
 76002,14.0568754,7.8182841\PG=C01 [X(C11H20N4O4)]\\@


 IT IS WELL TO REMEMBER THAT MAN IS A PART OF NATURE AND THAT HIS WORKS,
 WHATEVER THEY MAY BE, ARE NO MORE "UNNATURAL" THAN 
 THE FLIGHT OF AN EAGLE OR THE PASSAGE OF A TORNADO.

                                    -- CHARLES MCCARRY IN "THE GREAT SOUTHWEST"
 Job cpu time:      13 days  8 hours 44 minutes 34.8 seconds.
 Elapsed time:       1 days  5 hours 44 minutes  2.6 seconds.
 File lengths (MBytes):  RWF=   5717 Int=      0 D2E=      0 Chk=    325 Scr=      1
 Normal termination of Gaussian 16 at Sun Apr 18 11:11:38 2021.
