 Entering Gaussian System, Link 0=/s/ls4/users/knvvv/bin/g16sse/g16
 Input=data/database/M062X--def2-QZVPPD--21_H2O8s4_WATER27.gjf
 Output=data/database/M062X--def2-QZVPPD--21_H2O8s4_WATER27.log
 Initial command:
 /s/ls4/users/knvvv/bin/g16sse/l1.exe "/s/ls4/users/knvvv/bin/scratch/Gau-26903.inp" -scrdir="/s/ls4/users/knvvv/bin/scratch/"
 Entering Link 1 = /s/ls4/users/knvvv/bin/g16sse/l1.exe PID=     26904.
  
 Copyright (c) 1988,1990,1992,1993,1995,1998,2003,2009,2016,
            Gaussian, Inc.  All Rights Reserved.
  
 This is part of the Gaussian(R) 16 program.  It is based on
 the Gaussian(R) 09 system (copyright 2009, Gaussian, Inc.),
 the Gaussian(R) 03 system (copyright 2003, Gaussian, Inc.),
 the Gaussian(R) 98 system (copyright 1998, Gaussian, Inc.),
 the Gaussian(R) 94 system (copyright 1995, Gaussian, Inc.),
 the Gaussian 92(TM) system (copyright 1992, Gaussian, Inc.),
 the Gaussian 90(TM) system (copyright 1990, Gaussian, Inc.),
 the Gaussian 88(TM) system (copyright 1988, Gaussian, Inc.),
 the Gaussian 86(TM) system (copyright 1986, Carnegie Mellon
 University), and the Gaussian 82(TM) system (copyright 1983,
 Carnegie Mellon University). Gaussian is a federally registered
 trademark of Gaussian, Inc.
  
 This software contains proprietary and confidential information,
 including trade secrets, belonging to Gaussian, Inc.
  
 This software is provided under written license and may be
 used, copied, transmitted, or stored only in accord with that
 written license.
  
 The following legend is applicable only to US Government
 contracts under FAR:
  
                    RESTRICTED RIGHTS LEGEND
  
 Use, reproduction and disclosure by the US Government is
 subject to restrictions as set forth in subparagraphs (a)
 and (c) of the Commercial Computer Software - Restricted
 Rights clause in FAR 52.227-19.
  
 Gaussian, Inc.
 340 Quinnipiac St., Bldg. 40, Wallingford CT 06492
  
  
 ---------------------------------------------------------------
 Warning -- This program may not be used in any manner that
 competes with the business of Gaussian, Inc. or will provide
 assistance to any competitor of Gaussian, Inc.  The licensee
 of this program is prohibited from giving any competitor of
 Gaussian, Inc. access to this program.  By using this program,
 the user acknowledges that Gaussian, Inc. is engaged in the
 business of creating and licensing software in the field of
 computational chemistry and represents and warrants to the
 licensee that it is not a competitor of Gaussian, Inc. and that
 it will not use this program in any manner prohibited above.
 ---------------------------------------------------------------
  

 Cite this work as:
 Gaussian 16, Revision A.03,
 M. J. Frisch, G. W. Trucks, H. B. Schlegel, G. E. Scuseria, 
 M. A. Robb, J. R. Cheeseman, G. Scalmani, V. Barone, 
 G. A. Petersson, H. Nakatsuji, X. Li, M. Caricato, A. V. Marenich, 
 J. Bloino, B. G. Janesko, R. Gomperts, B. Mennucci, H. P. Hratchian, 
 J. V. Ortiz, A. F. Izmaylov, J. L. Sonnenberg, D. Williams-Young, 
 F. Ding, F. Lipparini, F. Egidi, J. Goings, B. Peng, A. Petrone, 
 T. Henderson, D. Ranasinghe, V. G. Zakrzewski, J. Gao, N. Rega, 
 G. Zheng, W. Liang, M. Hada, M. Ehara, K. Toyota, R. Fukuda, 
 J. Hasegawa, M. Ishida, T. Nakajima, Y. Honda, O. Kitao, H. Nakai, 
 T. Vreven, K. Throssell, J. A. Montgomery, Jr., J. E. Peralta, 
 F. Ogliaro, M. J. Bearpark, J. J. Heyd, E. N. Brothers, K. N. Kudin, 
 V. N. Staroverov, T. A. Keith, R. Kobayashi, J. Normand, 
 K. Raghavachari, A. P. Rendell, J. C. Burant, S. S. Iyengar, 
 J. Tomasi, M. Cossi, J. M. Millam, M. Klene, C. Adamo, R. Cammi, 
 J. W. Ochterski, R. L. Martin, K. Morokuma, O. Farkas, 
 J. B. Foresman, and D. J. Fox, Gaussian, Inc., Wallingford CT, 2016.
 
 ******************************************
 Gaussian 16:  ES64L-G16RevA.03 25-Dec-2016
                17-Apr-2021 
 ******************************************
 %RWF=temp6_69260,70GB
 %nprocshared=48
 Will use up to   48 processors via shared memory.
 Default route: MaxDisk=80GB
 ----------------------------------------------------------------------
 #P M062X/GEN Integral=UltraFineGrid SCF=NoSymm Stable=(RExt, Opt) IOp(
 1/33=1)
 ----------------------------------------------------------------------
 1/33=1,38=1,172=1/1;
 2/12=2,17=6,18=5,40=1/2;
 3/5=7,11=2,25=1,30=1,74=-55,75=-5/1,2,3;
 4/9=2/1;
 5/5=2,38=5/2;
 6/7=2,8=2,9=2,10=2,28=1/1;
 8/6=1,10=90,11=11/1;
 9/8=-3,42=1,46=1/14;
 5/5=2,8=3,17=40,38=5/8(-2);
 6/7=2,8=2,9=2,10=2,28=1/1;
 99/5=1,9=1/99;
 Leave Link    1 at Sat Apr 17 21:00:55 2021, MaxMem=           0 cpu:               9.5 elap:               0.3
 (Enter /s/ls4/users/knvvv/bin/g16sse/l101.exe)
 ONIOM data not found on unit 2.
 ----------------------
 Database calculations.
 ----------------------
 TstMul:  ICh=     0
 TstMul:  Mul=     1
 TstMul:  ICh=     0
 TstMul:  Mul=     1
 Symbolic Z-matrix:
 Charge =  0 Multiplicity = 1
 O                     1.99059  -0.1084   -1.46523 
 H                     1.33029  -0.84679  -1.53045 
 H                     2.70354  -0.31035  -2.07624 
 O                    -0.1084   -1.99059   1.46523 
 H                    -0.31035  -2.70354   2.07624 
 H                    -0.84679  -1.33029   1.53045 
 O                    -1.93875  -0.02558   1.40161 
 H                    -2.17247   0.02636   0.45837 
 H                    -1.39882   0.76704   1.56446 
 O                     0.02558  -1.93875  -1.40161 
 H                    -0.02636  -2.17247  -0.45837 
 H                    -0.76704  -1.39882  -1.56446 
 O                    -0.02558   1.93875  -1.40161 
 H                     0.76704   1.39882  -1.56446 
 H                     0.02636   2.17247  -0.45837 
 O                     0.1084    1.99059   1.46523 
 H                     0.84679   1.33029   1.53045 
 H                     0.31035   2.70354   2.07624 
 O                    -1.99059   0.1084   -1.46523 
 H                    -1.33029   0.84679  -1.53045 
 H                    -2.70354   0.31035  -2.07624 
 O                     1.93875   0.02558   1.40161 
 H                     2.17247  -0.02636   0.45837 
 H                     1.39882  -0.76704   1.56446 
 
 RdStrC is calling ZToCFu for IStruc=1 NZ=    24.
 PrtBox:  NBox=     3 Levels=  1 BoxLen=    8.00 SMaxX=       10.22
          Shift=            5.108949            5.108949            3.923525
 Box      1 Number                   0 centers from      1 to     16:
 Box      2 Number                   2 centers from     17 to     20:
 Box      3 Number                   4 centers from     21 to     24:
 After GenITR:
 ITRead=  0  0  0  0  0  0  0  0  0  0  0  0  0  0  0  0  0  0  0  0
 ITRead=  0  0  0  0
 MicOpt= -1 -1 -1 -1 -1 -1 -1 -1 -1 -1 -1 -1 -1 -1 -1 -1 -1 -1 -1 -1
 MicOpt= -1 -1 -1 -1
 ITRead=  0  0  0  0  0  0  0  0  0  0  0  0  0  0  0  0  0  0  0  0
 ITRead=  0  0  0  0
 MicOpt= -1 -1 -1 -1 -1 -1 -1 -1 -1 -1 -1 -1 -1 -1 -1 -1 -1 -1 -1 -1
 MicOpt= -1 -1 -1 -1
 NAtoms=     24 NQM=       24 NQMF=       0 NMMI=      0 NMMIF=      0
                NMic=       0 NMicF=      0.
                    Isotopes and Nuclear Properties:
 (Nuclear quadrupole moments (NQMom) in fm**2, nuclear magnetic moments (NMagM)
  in nuclear magnetons)

  Atom         1           2           3           4           5           6           7           8           9          10
 IAtWgt=          16           1           1          16           1           1          16           1           1          16
 AtmWgt=  15.9949146   1.0078250   1.0078250  15.9949146   1.0078250   1.0078250  15.9949146   1.0078250   1.0078250  15.9949146
 NucSpn=           0           1           1           0           1           1           0           1           1           0
 AtZEff=  -0.0000000  -0.0000000  -0.0000000  -0.0000000  -0.0000000  -0.0000000  -0.0000000  -0.0000000  -0.0000000  -0.0000000
 NQMom=    0.0000000   0.0000000   0.0000000   0.0000000   0.0000000   0.0000000   0.0000000   0.0000000   0.0000000   0.0000000
 NMagM=    0.0000000   2.7928460   2.7928460   0.0000000   2.7928460   2.7928460   0.0000000   2.7928460   2.7928460   0.0000000
 AtZNuc=   8.0000000   1.0000000   1.0000000   8.0000000   1.0000000   1.0000000   8.0000000   1.0000000   1.0000000   8.0000000

  Atom        11          12          13          14          15          16          17          18          19          20
 IAtWgt=           1           1          16           1           1          16           1           1          16           1
 AtmWgt=   1.0078250   1.0078250  15.9949146   1.0078250   1.0078250  15.9949146   1.0078250   1.0078250  15.9949146   1.0078250
 NucSpn=           1           1           0           1           1           0           1           1           0           1
 AtZEff=  -0.0000000  -0.0000000  -0.0000000  -0.0000000  -0.0000000  -0.0000000  -0.0000000  -0.0000000  -0.0000000  -0.0000000
 NQMom=    0.0000000   0.0000000   0.0000000   0.0000000   0.0000000   0.0000000   0.0000000   0.0000000   0.0000000   0.0000000
 NMagM=    2.7928460   2.7928460   0.0000000   2.7928460   2.7928460   0.0000000   2.7928460   2.7928460   0.0000000   2.7928460
 AtZNuc=   1.0000000   1.0000000   8.0000000   1.0000000   1.0000000   8.0000000   1.0000000   1.0000000   8.0000000   1.0000000

  Atom        21          22          23          24
 IAtWgt=           1          16           1           1
 AtmWgt=   1.0078250  15.9949146   1.0078250   1.0078250
 NucSpn=           1           0           1           1
 AtZEff=  -0.0000000  -0.0000000  -0.0000000  -0.0000000
 NQMom=    0.0000000   0.0000000   0.0000000   0.0000000
 NMagM=    2.7928460   0.0000000   2.7928460   2.7928460
 AtZNuc=   1.0000000   8.0000000   1.0000000   1.0000000
 No MM parameters found.
 Leave Link  101 at Sat Apr 17 21:00:55 2021, MaxMem=   104857600 cpu:              14.5 elap:               0.4
 (Enter /s/ls4/users/knvvv/bin/g16sse/l202.exe)
                          Input orientation:                          
 ---------------------------------------------------------------------
 Center     Atomic      Atomic             Coordinates (Angstroms)
 Number     Number       Type             X           Y           Z
 ---------------------------------------------------------------------
      1          8           0        1.990591   -0.108400   -1.465229
      2          1           0        1.330293   -0.846787   -1.530452
      3          1           0        2.703540   -0.310345   -2.076240
      4          8           0       -0.108400   -1.990591    1.465229
      5          1           0       -0.310345   -2.703540    2.076240
      6          1           0       -0.846787   -1.330293    1.530452
      7          8           0       -1.938753   -0.025576    1.401609
      8          1           0       -2.172467    0.026361    0.458369
      9          1           0       -1.398824    0.767044    1.564465
     10          8           0        0.025576   -1.938753   -1.401609
     11          1           0       -0.026361   -2.172467   -0.458369
     12          1           0       -0.767044   -1.398824   -1.564465
     13          8           0       -0.025576    1.938753   -1.401609
     14          1           0        0.767044    1.398824   -1.564465
     15          1           0        0.026361    2.172467   -0.458369
     16          8           0        0.108400    1.990591    1.465229
     17          1           0        0.846787    1.330293    1.530452
     18          1           0        0.310345    2.703540    2.076240
     19          8           0       -1.990591    0.108400   -1.465229
     20          1           0       -1.330293    0.846787   -1.530452
     21          1           0       -2.703540    0.310345   -2.076240
     22          8           0        1.938753    0.025576    1.401609
     23          1           0        2.172467   -0.026361    0.458369
     24          1           0        1.398824   -0.767044    1.564465
 ---------------------------------------------------------------------
                    Distance matrix (angstroms):
                    1          2          3          4          5
     1  O    0.000000
     2  H    0.992705   0.000000
     3  H    0.960423   1.572088   0.000000
     4  O    4.066447   3.514574   4.824131   0.000000
     5  H    4.956920   4.375780   5.661623   0.960423   0.000000
     6  H    4.303236   3.787161   5.162687   0.992705   1.572088
     7  O    4.864706   4.467441   5.807531   2.686173   3.205983
     8  H    4.587967   4.121543   5.505729   3.056506   3.679315
     9  H    4.629642   4.430693   5.589712   3.046242   3.673098
    10  O    2.686173   1.706247   3.205983   2.870435   3.576755
    11  H    3.056506   2.178829   3.679315   1.933918   2.605174
    12  H    3.046242   2.169038   3.673098   3.156429   3.894302
    13  O    2.873989   3.100679   3.600228   4.864706   5.807531
    14  H    1.943872   2.315421   2.633095   4.629642   5.589712
    15  H    3.174007   3.459117   3.993638   4.587967   5.505729
    16  O    4.066447   4.303236   4.956920   3.987081   4.752215
    17  H    3.514574   3.787161   4.375780   3.456140   4.231860
    18  H    4.824131   5.162687   5.661623   4.752215   5.442588
    19  O    3.987081   3.456140   4.752215   4.066447   4.824131
    20  H    3.456140   3.153872   4.231860   4.303236   5.162687
    21  H    4.752215   4.231860   5.442588   4.956920   5.661623
    22  O    2.870435   3.119010   3.576755   2.873989   3.600228
    23  H    1.933918   2.310361   2.605174   3.174007   3.993638
    24  H    3.156429   3.096702   3.894302   1.943872   2.633095
                    6          7          8          9         10
     6  H    0.000000
     7  O    1.706247   0.000000
     8  H    2.178829   0.973150   0.000000
     9  H    2.169038   0.972775   1.539669   0.000000
    10  O    3.119010   3.921335   3.486056   4.260029   0.000000
    11  H    2.310361   3.424311   3.206403   3.823119   0.973150
    12  H    3.096702   3.472219   2.845738   3.857503   0.972775
    13  O    4.467441   3.921335   3.424311   3.472219   3.877844
    14  H    4.430693   4.260029   3.823119   3.857503   3.422823
    15  H    4.121543   3.486056   3.206403   2.845738   4.218036
    16  O    3.456140   2.873989   3.174007   1.943872   4.864706
    17  H    3.153872   3.100679   3.459117   2.315421   4.467441
    18  H    4.231860   3.600228   3.993638   2.633095   5.807531
    19  O    3.514574   2.870435   1.933918   3.156429   2.873989
    20  H    3.787161   3.119010   2.310361   3.096702   3.100679
    21  H    4.375780   3.576755   2.605174   3.894302   3.600228
    22  O    3.100679   3.877844   4.218036   3.422823   3.921335
    23  H    3.459117   4.218036   4.345253   3.821918   3.424311
    24  H    2.315421   3.422823   3.821918   3.190652   3.472219
                   11         12         13         14         15
    11  H    0.000000
    12  H    1.539669   0.000000
    13  O    4.218036   3.422823   0.000000
    14  H    3.821918   3.190652   0.972775   0.000000
    15  H    4.345253   3.821918   0.973150   1.539669   0.000000
    16  O    4.587967   4.629642   2.870435   3.156429   1.933918
    17  H    4.121543   4.430693   3.119010   3.096702   2.310361
    18  H    5.505729   5.589712   3.576755   3.894302   2.605174
    19  O    3.174007   1.943872   2.686173   3.046242   3.056506
    20  H    3.459117   2.315421   1.706247   2.169038   2.178829
    21  H    3.993638   2.633095   3.205983   3.673098   3.679315
    22  O    3.486056   4.260029   3.921335   3.472219   3.424311
    23  H    3.206403   3.823119   3.486056   2.845738   3.206403
    24  H    2.845738   3.857503   4.260029   3.857503   3.823119
                   16         17         18         19         20
    16  O    0.000000
    17  H    0.992705   0.000000
    18  H    0.960423   1.572088   0.000000
    19  O    4.066447   4.303236   4.956920   0.000000
    20  H    3.514574   3.787161   4.375780   0.992705   0.000000
    21  H    4.824131   5.162687   5.661623   0.960423   1.572088
    22  O    2.686173   1.706247   3.205983   4.864706   4.467441
    23  H    3.056506   2.178829   3.679315   4.587967   4.121543
    24  H    3.046242   2.169038   3.673098   4.629642   4.430693
                   21         22         23         24
    21  H    0.000000
    22  O    5.807531   0.000000
    23  H    5.505729   0.973150   0.000000
    24  H    5.589712   0.972775   1.539669   0.000000
 Stoichiometry    H16O8
 Framework group  S4[X(H16O8)]
 Deg. of freedom    17
 Full point group                 S4      NOp   4
 Largest Abelian subgroup         C2      NOp   2
 Largest concise Abelian subgroup C2      NOp   2
                         Standard orientation:                         
 ---------------------------------------------------------------------
 Center     Atomic      Atomic             Coordinates (Angstroms)
 Number     Number       Type             X           Y           Z
 ---------------------------------------------------------------------
      1          8           0        1.992433    0.066427    1.465229
      2          1           0        1.347842    0.818564    1.530452
      3          1           0        2.709479    0.253302    2.076240
      4          8           0       -0.066427    1.992433   -1.465229
      5          1           0       -0.253302    2.709479   -2.076240
      6          1           0       -0.818564    1.347842   -1.530452
      7          8           0       -1.937784    0.066427   -1.401609
      8          1           0       -2.172540    0.019427   -0.458369
      9          1           0       -1.414678   -0.737395   -1.564465
     10          8           0        0.066427    1.937784    1.401609
     11          1           0        0.019427    2.172540    0.458369
     12          1           0       -0.737395    1.414678    1.564465
     13          8           0       -0.066427   -1.937784    1.401609
     14          1           0        0.737395   -1.414678    1.564465
     15          1           0       -0.019427   -2.172540    0.458369
     16          8           0        0.066427   -1.992433   -1.465229
     17          1           0        0.818564   -1.347842   -1.530452
     18          1           0        0.253302   -2.709479   -2.076240
     19          8           0       -1.992433   -0.066427    1.465229
     20          1           0       -1.347842   -0.818564    1.530452
     21          1           0       -2.709479   -0.253302    2.076240
     22          8           0        1.937784   -0.066427   -1.401609
     23          1           0        2.172540   -0.019427   -0.458369
     24          1           0        1.414678    0.737395   -1.564465
 ---------------------------------------------------------------------
 Rotational constants (GHZ):           0.8961230           0.8675121           0.8675121
 Leave Link  202 at Sat Apr 17 21:00:56 2021, MaxMem=   104857600 cpu:               9.5 elap:               0.3
 (Enter /s/ls4/users/knvvv/bin/g16sse/l301.exe)
 General basis read from cards:  (5D, 7F)
 Centers:       2      3      5      6      8      9     11     12     14     15
 Centers:      17     18     20     21     23     24
 S 4 1.00
     Exponent=  1.9069169000D+02 Coefficients=  7.0815167000D-04
     Exponent=  2.8605532000D+01 Coefficients=  5.4678827000D-03
     Exponent=  6.5095943000D+00 Coefficients=  2.7966605000D-02
     Exponent=  1.8412455000D+00 Coefficients=  1.0764538000D-01
 S 1 1.00
     Exponent=  5.9853725000D-01 Coefficients=  1.0000000000D+00
 S 1 1.00
     Exponent=  2.1397624000D-01 Coefficients=  1.0000000000D+00
 S 1 1.00
     Exponent=  8.0316286000D-02 Coefficients=  1.0000000000D+00
 P 1 1.00
     Exponent=  2.2920000000D+00 Coefficients=  1.0000000000D+00
 P 1 1.00
     Exponent=  8.3800000000D-01 Coefficients=  1.0000000000D+00
 P 1 1.00
     Exponent=  2.9200000000D-01 Coefficients=  1.0000000000D+00
 P 1 1.00
     Exponent=  8.4063199228D-02 Coefficients=  1.0000000000D+00
 D 1 1.00
     Exponent=  2.0620000000D+00 Coefficients=  1.0000000000D+00
 D 1 1.00
     Exponent=  6.6200000000D-01 Coefficients=  1.0000000000D+00
 F 1 1.00
     Exponent=  1.3970000000D+00 Coefficients=  1.0000000000D+00
 ****
 Centers:       1      4      7     10     13     16     19     22
 S 8 1.00
     Exponent=  1.1650646908D+05 Coefficients=  4.0383857939D-05
     Exponent=  1.7504349724D+04 Coefficients=  3.1255139004D-04
     Exponent=  3.9934513230D+03 Coefficients=  1.6341473495D-03
     Exponent=  1.1330063186D+03 Coefficients=  6.8283224757D-03
     Exponent=  3.6999569594D+02 Coefficients=  2.4124410221D-02
     Exponent=  1.3362074349D+02 Coefficients=  7.2730206154D-02
     Exponent=  5.2035643649D+01 Coefficients=  1.7934429892D-01
     Exponent=  2.1461939313D+01 Coefficients=  3.3059588895D-01
 S 2 1.00
     Exponent=  8.9835051252D+01 Coefficients=  9.6468652996D-02
     Exponent=  2.6428010844D+01 Coefficients=  9.4117481120D-01
 S 1 1.00
     Exponent=  9.2822824649D+00 Coefficients=  1.0000000000D+00
 S 1 1.00
     Exponent=  4.0947728533D+00 Coefficients=  1.0000000000D+00
 S 1 1.00
     Exponent=  1.3255349078D+00 Coefficients=  1.0000000000D+00
 S 1 1.00
     Exponent=  5.1877230787D-01 Coefficients=  1.0000000000D+00
 S 1 1.00
     Exponent=  1.9772676454D-01 Coefficients=  1.0000000000D+00
 S 1 1.00
     Exponent=  6.9638535104D-02 Coefficients=  1.0000000000D+00
 P 5 1.00
     Exponent=  1.9115255810D+02 Coefficients=  2.5115697705D-03
     Exponent=  4.5233356739D+01 Coefficients=  2.0039240864D-02
     Exponent=  1.4353465922D+01 Coefficients=  9.3609064762D-02
     Exponent=  5.2422371832D+00 Coefficients=  3.0618127124D-01
     Exponent=  2.0792418599D+00 Coefficients=  6.7810501439D-01
 P 1 1.00
     Exponent=  8.4282371424D-01 Coefficients=  1.0000000000D+00
 P 1 1.00
     Exponent=  3.3617694891D-01 Coefficients=  1.0000000000D+00
 P 1 1.00
     Exponent=  1.2863997974D-01 Coefficients=  1.0000000000D+00
 P 1 1.00
     Exponent=  4.3598162776D-02 Coefficients=  1.0000000000D+00
 D 1 1.00
     Exponent=  3.7750000000D+00 Coefficients=  1.0000000000D+00
 D 1 1.00
     Exponent=  1.3000000000D+00 Coefficients=  1.0000000000D+00
 D 1 1.00
     Exponent=  4.4400000000D-01 Coefficients=  1.0000000000D+00
 D 1 1.00
     Exponent=  1.2546378695D-01 Coefficients=  1.0000000000D+00
 F 1 1.00
     Exponent=  2.6660000000D+00 Coefficients=  1.0000000000D+00
 F 1 1.00
     Exponent=  8.5900000000D-01 Coefficients=  1.0000000000D+00
 G 1 1.00
     Exponent=  1.8460000000D+00 Coefficients=  1.0000000000D+00
 ****
 Ernie: Thresh=  0.10000D-02 Tol=  0.10000D-05 Strict=F.
 There are   632 symmetry adapted cartesian basis functions of A   symmetry.
 There are   632 symmetry adapted cartesian basis functions of B   symmetry.
 There are   528 symmetry adapted basis functions of A   symmetry.
 There are   528 symmetry adapted basis functions of B   symmetry.
  1056 basis functions,  1472 primitive gaussians,  1264 cartesian basis functions
    40 alpha electrons       40 beta electrons
       nuclear repulsion energy       504.9225004683 Hartrees.
 IExCor= 4336 DFT=T Ex+Corr=M062X ExCW=0 ScaHFX=  0.540000
 ScaDFX=  1.000000  1.000000  1.000000  1.000000 ScalE2=  1.000000  1.000000
 IRadAn=      5 IRanWt=     -1 IRanGd=            0 ICorTp=0 IEmpDi=  4
 NAtoms=   24 NActive=   24 NUniq=    6 SFac= 4.00D+00 NAtFMM=   60 NAOKFM=F Big=F
 Integral buffers will be    131072 words long.
 Raffenetti 2 integral format.
 Two-electron integral symmetry is turned on.
 Leave Link  301 at Sat Apr 17 21:00:56 2021, MaxMem=   104857600 cpu:              10.0 elap:               0.2
 (Enter /s/ls4/users/knvvv/bin/g16sse/l302.exe)
 NPDir=0 NMtPBC=     1 NCelOv=     1 NCel=       1 NClECP=     1 NCelD=      1
         NCelK=      1 NCelE2=     1 NClLst=     1 CellRange=     0.0.
 One-electron integrals computed using PRISM.
 One-electron integral symmetry used in STVInt
 PrsmSu:  requested number of processors reduced to:   3 ShMem   1 Linda.
 PrsmSu:  requested number of processors reduced to:  16 ShMem   1 Linda.
 NBasis=  1056 RedAO= T EigKep=  7.20D-06  NBF=   528   528
 NBsUse=  1056 1.00D-06 EigRej= -1.00D+00 NBFU=   528   528
 Precomputing XC quadrature grid using
 IXCGrd= 4 IRadAn=           5 IRanWt=          -1 IRanGd=           0 AccXCQ= 0.00D+00.
 Generated NRdTot=       0 NPtTot=           0 NUsed=           0 NTot=          32
 NSgBfM=  1242  1242  1242  1242  1242 MxSgAt=    24 MxSgA2=    24.
 Leave Link  302 at Sat Apr 17 21:01:44 2021, MaxMem=   104857600 cpu:            2177.8 elap:              47.6
 (Enter /s/ls4/users/knvvv/bin/g16sse/l303.exe)
 DipDrv:  MaxL=1.
 Leave Link  303 at Sat Apr 17 21:01:58 2021, MaxMem=   104857600 cpu:             530.8 elap:              12.5
 (Enter /s/ls4/users/knvvv/bin/g16sse/l401.exe)
 SCF N**3 symmetry information disabled.
 ExpMin= 4.36D-02 ExpMax= 1.17D+05 ExpMxC= 1.13D+03 IAcc=3 IRadAn=         5 AccDes= 0.00D+00
 Harris functional with IExCor= 1009 and IRadAn=       5 diagonalized for initial guess.
 HarFok:  IExCor= 1009 AccDes= 0.00D+00 IRadAn=         5 IDoV= 1 UseB2=F ITyADJ=14
 ICtDFT=  3500011 ScaDFX=  1.000000  1.000000  1.000000  1.000000
 CalDSu:  requested number of processors reduced to:  35 ShMem   1 Linda.
 FoFCou: FMM=F IPFlag=           0 FMFlag=      100000 FMFlg1=           0
         NFxFlg=           0 DoJE=T BraDBF=F KetDBF=T FulRan=T
         wScrn=  0.000000 ICntrl=       500 IOpCl=  0 I1Cent=   200000004 NGrid=           0
         NMat0=    1 NMatS0=      1 NMatT0=    0 NMatD0=    1 NMtDS0=    0 NMtDT0=    0
 Petite list used in FoFCou.
 CoulSu:  requested number of processors reduced to:  13 ShMem   1 Linda.
 CoulSu:  requested number of processors reduced to:  15 ShMem   1 Linda.
 CoulSu:  requested number of processors reduced to:  20 ShMem   1 Linda.
 CoulSu:  requested number of processors reduced to:  20 ShMem   1 Linda.
 Harris En= -611.464843164194    
 JPrj=0 DoOrth=F DoCkMO=F.
 Initial guess orbital symmetries:
       Occupied  (E) (E) (A) (B) (B) (A) (E) (E) (A) (B) (E) (E)
                 (E) (E) (B) (A) (B) (E) (E) (A) (A) (B) (E) (E)
                 (A) (B) (E) (E) (E) (E) (B) (A) (A) (B) (E) (E)
                 (A) (B) (E) (E)
       Virtual   (A) (B) (E) (E) (E) (E) (B) (A) (B) (A) (A) (E)
                 (E) (B) (E) (E) (A) (B) (E) (E) (B) (A) (E) (E)
                 (B) (E) (E) (E) (E) (A) (A) (B) (A) (A) (B) (E)
                 (E) (B) (E) (E) (A) (A) (B) (E) (E) (B) (B) (A)
                 (E) (E) (B) (A) (E) (E) (B) (A) (A) (E) (E) (E)
                 (E) (B) (A) (E) (E) (A) (E) (E) (B) (E) (E) (A)
                 (B) (A) (E) (E) (B) (E) (E) (B) (A) (A) (E) (E)
                 (B) (A) (E) (E) (B) (A) (B) (B) (E) (E) (B) (B)
                 (E) (E) (A) (E) (E) (A) (E) (E) (B) (A) (B) (E)
                 (E) (A) (A) (E) (E) (E) (E) (B) (A) (B) (E) (E)
                 (E) (E) (B) (A) (B) (A) (A) (E) (E) (E) (E) (B)
                 (A) (E) (E) (B) (B) (A) (E) (E) (E) (E) (B) (B)
                 (E) (E) (A) (A) (A) (E) (E) (A) (B) (E) (E) (B)
                 (A) (E) (E) (A) (B) (E) (E) (B) (E) (E) (A) (E)
                 (E) (B) (B) (B) (E) (E) (A) (A) (B) (B) (A) (E)
                 (E) (A) (E) (E) (A) (B) (E) (E) (A) (B) (A) (E)
                 (E) (B) (E) (E) (A) (E) (E) (B) (A) (B) (A) (E)
                 (E) (B) (A) (E) (E) (B) (E) (E) (A) (B) (A) (E)
                 (E) (B) (E) (E) (A) (A) (E) (E) (B) (B) (E) (E)
                 (B) (A) (A) (A) (E) (E) (B) (A) (E) (E) (B) (E)
                 (E) (A) (B) (E) (E) (B) (E) (E) (B) (E) (E) (A)
                 (A) (A) (E) (E) (B) (A) (E) (E) (B) (B) (E) (E)
                 (A) (B) (A) (E) (E) (E) (E) (B) (A) (E) (E) (A)
                 (E) (E) (B) (B) (A) (E) (E) (B) (E) (E) (B) (A)
                 (E) (E) (A) (B) (A) (B) (E) (E) (E) (E) (A) (B)
                 (E) (E) (B) (A) (A) (E) (E) (B) (B) (E) (E) (B)
                 (A) (E) (E) (B) (A) (E) (E) (A) (E) (E) (A) (B)
                 (A) (B) (E) (E) (B) (A) (E) (E) (A) (B) (E) (E)
                 (A) (B) (E) (E) (E) (E) (B) (A) (A) (A) (E) (E)
                 (B) (B) (E) (E) (A) (E) (E) (B) (A) (A) (B) (A)
                 (E) (E) (B) (B) (E) (E) (B) (E) (E) (A) (A) (E)
                 (E) (B) (A) (A) (B) (E) (E) (B) (A) (E) (E) (B)
                 (E) (E) (B) (A) (B) (E) (E) (A) (E) (E) (A) (E)
                 (E) (A) (B) (E) (E) (A) (B) (E) (E) (B) (E) (E)
                 (A) (B) (E) (E) (B) (A) (E) (E) (A) (E) (E) (B)
                 (E) (E) (B) (A) (B) (A) (A) (E) (E) (A) (E) (E)
                 (B) (B) (E) (E) (A) (E) (E) (B) (B) (E) (E) (E)
                 (E) (A) (B) (E) (E) (A) (B) (B) (A) (E) (E) (A)
                 (A) (B) (E) (E) (A) (E) (E) (A) (E) (E) (B) (A)
                 (B) (A) (B) (E) (E) (E) (E) (B) (B) (E) (E) (A)
                 (A) (B) (E) (E) (A) (B) (E) (E) (B) (A) (E) (E)
                 (B) (E) (E) (A) (E) (E) (B) (A) (B) (A) (E) (E)
                 (A) (B) (E) (E) (B) (E) (E) (E) (E) (A) (B) (A)
                 (E) (E) (A) (A) (B) (E) (E) (B) (B) (B) (E) (E)
                 (A) (A) (E) (E) (B) (E) (E) (A) (E) (E) (B) (A)
                 (B) (E) (E) (A) (E) (E) (B) (A) (A) (B) (E) (E)
                 (B) (A) (A) (E) (E) (B) (A) (E) (E) (B) (E) (E)
                 (A) (B) (E) (E) (A) (E) (E) (B) (E) (E) (B) (A)
                 (A) (E) (E) (B) (E) (E) (B) (A) (E) (E) (B) (B)
                 (A) (E) (E) (A) (A) (B) (E) (E) (A) (E) (E) (B)
                 (E) (E) (B) (A) (A) (E) (E) (B) (A) (E) (E) (B)
                 (A) (B) (E) (E) (B) (B) (E) (E) (A) (E) (E) (A)
                 (A) (B) (E) (E) (B) (A) (E) (E) (A) (E) (E) (B)
                 (B) (E) (E) (A) (A) (B) (E) (E) (A) (B) (A) (E)
                 (E) (B) (B) (E) (E) (A) (E) (E) (B) (A) (E) (E)
                 (B) (A) (E) (E) (B) (A) (A) (B) (E) (E) (E) (E)
                 (E) (E) (B) (A) (A) (B) (A) (B) (E) (E) (B) (E)
                 (E) (E) (E) (A) (B) (A) (E) (E) (E) (E) (B) (A)
                 (A) (E) (E) (B) (A) (B) (E) (E) (B) (E) (E) (A)
                 (E) (E) (A) (E) (E) (B) (B) (A) (A) (B) (E) (E)
                 (A) (B) (E) (E) (A) (A) (E) (E) (B) (A) (B) (E)
                 (E) (B) (A) (E) (E) (A) (E) (E) (B) (B) (E) (E)
                 (A) (E) (E) (B) (E) (E) (A) (B) (E) (E) (B) (A)
                 (A) (B) (E) (E) (B) (E) (E) (A) (E) (E) (A) (B)
                 (A) (E) (E) (B) (A) (B) (E) (E) (A) (B) (E) (E)
                 (B) (E) (E) (A) (A) (B) (E) (E) (A) (E) (E) (B)
                 (A) (E) (E) (B) (B) (E) (E) (A) (A) (E) (E) (B)
                 (A) (B) (E) (E) (B) (A) (E) (E) (E) (E) (A) (B)
                 (A) (B) (E) (E) (E) (E) (B) (A) (B) (E) (E) (A)
                 (E) (E) (A) (B) (A) (B) (E) (E) (A) (B) (E) (E)
                 (A) (E) (E) (B) (B) (A) (E) (E) (A) (E) (E) (B)
                 (B) (A) (E) (E) (E) (E) (B) (A) (E) (E) (B) (A)
                 (A) (E) (E) (B) (A) (B) (B) (E) (E) (E) (E) (A)
                 (E) (E) (B) (A) (E) (E) (B) (A) (B) (E) (E) (A)
                 (A) (B) (E) (E) (A) (B) (E) (E) (B) (A) (E) (E)
                 (A) (E) (E) (A) (B) (E) (E) (B) (A) (B) (E) (E)
                 (A) (B) (E) (E) (E) (E) (A) (B) (B) (E) (E) (A)
                 (E) (E) (B) (A) (A) (E) (E) (B) (B) (E) (E) (A)
                 (A) (E) (E) (B) (E) (E) (B) (A) (B) (A) (E) (E)
                 (A) (B) (E) (E) (B) (E) (E) (A) (B) (E) (E) (A)
                 (E) (E) (A) (B) (B) (A) (E) (E) (A) (B) (E) (E)
                 (B) (E) (E) (A) (A) (E) (E) (B) (B) (E) (E) (A)
                 (A) (B) (E) (E) (B) (E) (E) (A) (B) (E) (E) (A)
                 (A) (B) (E) (E) (A) (B) (E) (E) (E) (E) (B) (A)
                 (A) (B) (E) (E) (E) (E) (B) (A)
 The electronic state of the initial guess is 1-A.
 Leave Link  401 at Sat Apr 17 21:02:22 2021, MaxMem=   104857600 cpu:            1108.0 elap:              24.8
 (Enter /s/ls4/users/knvvv/bin/g16sse/l502.exe)
 Integral symmetry usage will be decided dynamically.
 Closed shell SCF:
 Using DIIS extrapolation, IDIIS=  1040.
 NGot=   104857600 LenX=   101588412 LenY=    99989452
 Requested convergence on RMS density matrix=1.00D-08 within 128 cycles.
 Requested convergence on MAX density matrix=1.00D-06.
 Requested convergence on             energy=1.00D-06.
 No special actions if energy rises.
 Fock matrices will be formed incrementally for  20 cycles.

 Cycle   1  Pass 1  IDiag  1:
 FoFJK:  IHMeth= 1 ICntrl=       0 DoSepK=F KAlg= 0 I1Cent=           0 FoldK=F
 IRaf= 870000000 NMat=       1 IRICut=       1 DoRegI=T DoRafI=F ISym2E= 1 IDoP0=0 IntGTp=1.
 FoFCou: FMM=F IPFlag=           0 FMFlag=      100000 FMFlg1=           0
         NFxFlg=           0 DoJE=F BraDBF=F KetDBF=F FulRan=T
         wScrn=  0.000000 ICntrl=         0 IOpCl=  0 I1Cent=           0 NGrid=           0
         NMat0=    1 NMatS0=      1 NMatT0=    0 NMatD0=    1 NMtDS0=    0 NMtDT0=    0
 Petite list used in FoFCou.
 CoulSu:  requested number of processors reduced to:  16 ShMem   1 Linda.
 CalDSu:  requested number of processors reduced to:  35 ShMem   1 Linda.
 E= -611.126396882579    
 DIIS: error= 4.52D-02 at cycle   1 NSaved=   1.
 NSaved= 1 IEnMin= 1 EnMin= -611.126396882579     IErMin= 1 ErrMin= 4.52D-02
 ErrMax= 4.52D-02  0.00D+00 EMaxC= 1.00D-01 BMatC= 9.91D-01 BMatP= 9.91D-01
 IDIUse=3 WtCom= 5.48D-01 WtEn= 4.52D-01
 Coeff-Com:  0.100D+01
 Coeff-En:   0.100D+01
 Coeff:      0.100D+01
 Gap=     0.300 Goal=   None    Shift=    0.000
 GapD=    0.300 DampG=1.000 DampE=0.500 DampFc=0.5000 IDamp=-1.
 Damping current iteration by 5.00D-01
 RMSDP=1.00D-03 MaxDP=5.92D-02              OVMax= 1.46D-01

 Cycle   2  Pass 1  IDiag  1:
 RMSU=  4.84D-04    CP:  9.50D-01
 CoulSu:  requested number of processors reduced to:  16 ShMem   1 Linda.
 CalDSu:  requested number of processors reduced to:  35 ShMem   1 Linda.
 E= -611.352447615269     Delta-E=       -0.226050732690 Rises=F Damp=T
 DIIS: error= 2.51D-02 at cycle   2 NSaved=   2.
 NSaved= 2 IEnMin= 2 EnMin= -611.352447615269     IErMin= 2 ErrMin= 2.51D-02
 ErrMax= 2.51D-02  0.00D+00 EMaxC= 1.00D-01 BMatC= 9.47D-02 BMatP= 9.91D-01
 IDIUse=3 WtCom= 7.49D-01 WtEn= 2.51D-01
 Coeff-Com: -0.171D-01 0.102D+01
 Coeff-En:   0.768D-01 0.923D+00
 Coeff:      0.645D-02 0.994D+00
 Gap=     0.390 Goal=   None    Shift=    0.000
 DSYEVD-2 returned Info=      560209 IAlg= 4 N=  1056 NDim=  1056 NE2=       94685 trying  DSYEV.
 RMSDP=5.86D-04 MaxDP=3.40D-02 DE=-2.26D-01 OVMax= 8.27D-02

 Cycle   3  Pass 1  IDiag  1:
 RMSU=  5.51D-04    CP:  9.08D-01  1.34D+00
 CoulSu:  requested number of processors reduced to:  16 ShMem   1 Linda.
 CalDSu:  requested number of processors reduced to:  35 ShMem   1 Linda.
 E= -611.611584114421     Delta-E=       -0.259136499152 Rises=F Damp=F
 DIIS: error= 1.48D-03 at cycle   3 NSaved=   3.
 NSaved= 3 IEnMin= 3 EnMin= -611.611584114421     IErMin= 3 ErrMin= 1.48D-03
 ErrMax= 1.48D-03  0.00D+00 EMaxC= 1.00D-01 BMatC= 3.06D-03 BMatP= 9.47D-02
 IDIUse=3 WtCom= 9.85D-01 WtEn= 1.48D-02
 Coeff-Com: -0.530D-01 0.102D+00 0.951D+00
 Coeff-En:   0.000D+00 0.000D+00 0.100D+01
 Coeff:     -0.523D-01 0.101D+00 0.952D+00
 Gap=     0.386 Goal=   None    Shift=    0.000
 RMSDP=6.38D-05 MaxDP=5.11D-03 DE=-2.59D-01 OVMax= 4.84D-03

 Cycle   4  Pass 1  IDiag  1:
 RMSU=  4.92D-05    CP:  9.05D-01  1.42D+00  9.70D-01
 CoulSu:  requested number of processors reduced to:  16 ShMem   1 Linda.
 CalDSu:  requested number of processors reduced to:  35 ShMem   1 Linda.
 E= -611.613487369006     Delta-E=       -0.001903254585 Rises=F Damp=F
 DIIS: error= 1.96D-04 at cycle   4 NSaved=   4.
 NSaved= 4 IEnMin= 4 EnMin= -611.613487369006     IErMin= 4 ErrMin= 1.96D-04
 ErrMax= 1.96D-04  0.00D+00 EMaxC= 1.00D-01 BMatC= 3.69D-05 BMatP= 3.06D-03
 IDIUse=3 WtCom= 9.98D-01 WtEn= 1.96D-03
 Coeff-Com: -0.885D-02 0.173D-01 0.183D+00 0.808D+00
 Coeff-En:   0.000D+00 0.000D+00 0.000D+00 0.100D+01
 Coeff:     -0.883D-02 0.173D-01 0.183D+00 0.809D+00
 Gap=     0.386 Goal=   None    Shift=    0.000
 RMSDP=1.51D-05 MaxDP=1.09D-03 DE=-1.90D-03 OVMax= 1.02D-03

 Cycle   5  Pass 1  IDiag  1:
 RMSU=  1.17D-05    CP:  9.04D-01  1.42D+00  9.72D-01  1.18D+00
 CoulSu:  requested number of processors reduced to:  16 ShMem   1 Linda.
 CalDSu:  requested number of processors reduced to:  35 ShMem   1 Linda.
 E= -611.613500775188     Delta-E=       -0.000013406182 Rises=F Damp=F
 DIIS: error= 1.19D-04 at cycle   5 NSaved=   5.
 NSaved= 5 IEnMin= 5 EnMin= -611.613500775188     IErMin= 5 ErrMin= 1.19D-04
 ErrMax= 1.19D-04  0.00D+00 EMaxC= 1.00D-01 BMatC= 1.69D-05 BMatP= 3.69D-05
 IDIUse=3 WtCom= 9.99D-01 WtEn= 1.19D-03
 Coeff-Com:  0.183D-02-0.317D-02-0.191D-01 0.400D+00 0.621D+00
 Coeff-En:   0.000D+00 0.000D+00 0.000D+00 0.270D+00 0.730D+00
 Coeff:      0.183D-02-0.317D-02-0.191D-01 0.399D+00 0.621D+00
 Gap=     0.386 Goal=   None    Shift=    0.000
 RMSDP=4.86D-06 MaxDP=2.62D-04 DE=-1.34D-05 OVMax= 5.11D-04

 Cycle   6  Pass 1  IDiag  1:
 RMSU=  3.70D-06    CP:  9.04D-01  1.42D+00  9.72D-01  1.24D+00  1.02D+00
 CoulSu:  requested number of processors reduced to:  16 ShMem   1 Linda.
 CalDSu:  requested number of processors reduced to:  35 ShMem   1 Linda.
 E= -611.613511320092     Delta-E=       -0.000010544904 Rises=F Damp=F
 DIIS: error= 2.39D-05 at cycle   6 NSaved=   6.
 NSaved= 6 IEnMin= 6 EnMin= -611.613511320092     IErMin= 6 ErrMin= 2.39D-05
 ErrMax= 2.39D-05  0.00D+00 EMaxC= 1.00D-01 BMatC= 8.49D-07 BMatP= 1.69D-05
 IDIUse=1 WtCom= 1.00D+00 WtEn= 0.00D+00
 Coeff-Com:  0.131D-02-0.246D-02-0.225D-01 0.313D-01 0.204D+00 0.788D+00
 Coeff:      0.131D-02-0.246D-02-0.225D-01 0.313D-01 0.204D+00 0.788D+00
 Gap=     0.386 Goal=   None    Shift=    0.000
 RMSDP=1.25D-06 MaxDP=8.01D-05 DE=-1.05D-05 OVMax= 1.22D-04

 Cycle   7  Pass 1  IDiag  1:
 RMSU=  8.43D-07    CP:  9.04D-01  1.42D+00  9.72D-01  1.26D+00  1.04D+00
                    CP:  9.94D-01
 CoulSu:  requested number of processors reduced to:  16 ShMem   1 Linda.
 CalDSu:  requested number of processors reduced to:  35 ShMem   1 Linda.
 E= -611.613511889042     Delta-E=       -0.000000568950 Rises=F Damp=F
 DIIS: error= 5.83D-06 at cycle   7 NSaved=   7.
 NSaved= 7 IEnMin= 7 EnMin= -611.613511889042     IErMin= 7 ErrMin= 5.83D-06
 ErrMax= 5.83D-06  0.00D+00 EMaxC= 1.00D-01 BMatC= 2.38D-08 BMatP= 8.49D-07
 IDIUse=1 WtCom= 1.00D+00 WtEn= 0.00D+00
 Coeff-Com: -0.525D-04 0.468D-04-0.403D-03-0.176D-01-0.125D-02 0.122D+00
 Coeff-Com:  0.897D+00
 Coeff:     -0.525D-04 0.468D-04-0.403D-03-0.176D-01-0.125D-02 0.122D+00
 Coeff:      0.897D+00
 Gap=     0.386 Goal=   None    Shift=    0.000
 RMSDP=4.24D-07 MaxDP=3.05D-05 DE=-5.69D-07 OVMax= 2.66D-05

 Cycle   8  Pass 1  IDiag  1:
 RMSU=  3.59D-07    CP:  9.04D-01  1.42D+00  9.72D-01  1.26D+00  1.05D+00
                    CP:  9.99D-01  1.05D+00
 CoulSu:  requested number of processors reduced to:  16 ShMem   1 Linda.
 CalDSu:  requested number of processors reduced to:  35 ShMem   1 Linda.
 E= -611.613511909757     Delta-E=       -0.000000020715 Rises=F Damp=F
 DIIS: error= 1.27D-06 at cycle   8 NSaved=   8.
 NSaved= 8 IEnMin= 8 EnMin= -611.613511909757     IErMin= 8 ErrMin= 1.27D-06
 ErrMax= 1.27D-06  0.00D+00 EMaxC= 1.00D-01 BMatC= 1.04D-09 BMatP= 2.38D-08
 IDIUse=1 WtCom= 1.00D+00 WtEn= 0.00D+00
 Coeff-Com: -0.721D-04 0.135D-03 0.922D-03-0.327D-02-0.117D-01-0.396D-01
 Coeff-Com:  0.344D-01 0.102D+01
 Coeff:     -0.721D-04 0.135D-03 0.922D-03-0.327D-02-0.117D-01-0.396D-01
 Coeff:      0.344D-01 0.102D+01
 Gap=     0.386 Goal=   None    Shift=    0.000
 RMSDP=8.66D-08 MaxDP=7.47D-06 DE=-2.07D-08 OVMax= 8.17D-06

 Cycle   9  Pass 1  IDiag  1:
 RMSU=  2.99D-08    CP:  9.04D-01  1.42D+00  9.72D-01  1.26D+00  1.05D+00
                    CP:  1.01D+00  1.12D+00  1.12D+00
 CoulSu:  requested number of processors reduced to:  16 ShMem   1 Linda.
 CalDSu:  requested number of processors reduced to:  35 ShMem   1 Linda.
 E= -611.613511910960     Delta-E=       -0.000000001203 Rises=F Damp=F
 DIIS: error= 2.33D-07 at cycle   9 NSaved=   9.
 NSaved= 9 IEnMin= 9 EnMin= -611.613511910960     IErMin= 9 ErrMin= 2.33D-07
 ErrMax= 2.33D-07  0.00D+00 EMaxC= 1.00D-01 BMatC= 2.97D-11 BMatP= 1.04D-09
 IDIUse=1 WtCom= 1.00D+00 WtEn= 0.00D+00
 Coeff-Com: -0.334D-05 0.111D-04 0.830D-04 0.242D-03-0.867D-03-0.701D-02
 Coeff-Com: -0.294D-01 0.724D-01 0.964D+00
 Coeff:     -0.334D-05 0.111D-04 0.830D-04 0.242D-03-0.867D-03-0.701D-02
 Coeff:     -0.294D-01 0.724D-01 0.964D+00
 Gap=     0.386 Goal=   None    Shift=    0.000
 RMSDP=1.24D-08 MaxDP=1.12D-06 DE=-1.20D-09 OVMax= 1.52D-06

 Cycle  10  Pass 1  IDiag  1:
 RMSU=  7.48D-09    CP:  9.04D-01  1.42D+00  9.72D-01  1.26D+00  1.05D+00
                    CP:  1.01D+00  1.12D+00  1.13D+00  1.18D+00
 CoulSu:  requested number of processors reduced to:  16 ShMem   1 Linda.
 CalDSu:  requested number of processors reduced to:  35 ShMem   1 Linda.
 E= -611.613511911007     Delta-E=       -0.000000000046 Rises=F Damp=F
 DIIS: error= 2.96D-08 at cycle  10 NSaved=  10.
 NSaved=10 IEnMin=10 EnMin= -611.613511911007     IErMin=10 ErrMin= 2.96D-08
 ErrMax= 2.96D-08  0.00D+00 EMaxC= 1.00D-01 BMatC= 1.05D-12 BMatP= 2.97D-11
 IDIUse=1 WtCom= 1.00D+00 WtEn= 0.00D+00
 Coeff-Com:  0.169D-05-0.351D-05-0.120D-04 0.325D-04 0.336D-03 0.163D-02
 Coeff-Com:  0.166D-02-0.384D-01-0.109D+00 0.114D+01
 Coeff:      0.169D-05-0.351D-05-0.120D-04 0.325D-04 0.336D-03 0.163D-02
 Coeff:      0.166D-02-0.384D-01-0.109D+00 0.114D+01
 Gap=     0.386 Goal=   None    Shift=    0.000
 RMSDP=4.32D-09 MaxDP=2.80D-07 DE=-4.62D-11 OVMax= 4.17D-07

 SCF Done:  E(RM062X) =  -611.613511911     A.U. after   10 cycles
            NFock= 10  Conv=0.43D-08     -V/T= 2.0035
 KE= 6.094694906317D+02 PE=-2.456553022756D+03 EE= 7.305475197453D+02
 Leave Link  502 at Sat Apr 17 21:17:46 2021, MaxMem=   104857600 cpu:           32758.5 elap:             923.3
 (Enter /s/ls4/users/knvvv/bin/g16sse/l601.exe)
 Copying SCF densities to generalized density rwf, IOpCl= 0 IROHF=0.

 **********************************************************************

            Population analysis using the SCF density.

 **********************************************************************

 Orbital symmetries:
       Occupied  (B) (E) (E) (A) (E) (E) (B) (A) (A) (B) (E) (E)
                 (E) (E) (B) (A) (B) (E) (E) (A) (A) (B) (E) (E)
                 (A) (B) (E) (E) (E) (E) (B) (A) (E) (E) (A) (B)
                 (A) (B) (E) (E)
       Virtual   (A) (B) (E) (E) (E) (E) (B) (A) (B) (A) (E) (E)
                 (A) (B) (E) (E) (A) (B) (E) (E) (E) (E) (A) (B)
                 (E) (E) (A) (B) (A) (B) (A) (E) (E) (B) (A) (E)
                 (E) (B) (B) (A) (E) (E) (B) (A) (E) (E) (A) (B)
                 (E) (E) (E) (E) (B) (A) (A) (E) (E) (B) (A) (A)
                 (E) (E) (B) (E) (E) (A) (E) (E) (B) (A) (E) (E)
                 (B) (B) (E) (E) (A) (A) (B) (E) (E) (E) (E) (A)
                 (B) (B) (E) (E) (B) (A) (B) (E) (E) (A) (B) (A)
                 (E) (E) (B) (E) (E) (A) (A) (B) (E) (E) (B) (E)
                 (E) (A) (A) (B) (E) (E) (E) (E) (B) (E) (E) (A)
                 (A) (B) (E) (E) (A) (B) (E) (E) (A) (E) (E) (B)
                 (A) (E) (E) (B) (E) (E) (A) (B) (B) (E) (E) (A)
                 (B) (E) (E) (A) (A) (A) (E) (E) (B) (E) (E) (A)
                 (B) (E) (E) (A) (B) (E) (E) (A) (B) (E) (E) (B)
                 (E) (E) (B) (E) (E) (B) (A) (A) (B) (B) (A) (E)
                 (E) (A) (E) (E) (B) (A) (E) (E) (A) (A) (B) (E)
                 (E) (B) (E) (E) (A) (B) (E) (E) (A) (B) (E) (E)
                 (B) (A) (E) (E) (A) (B) (A) (E) (E) (B) (E) (E)
                 (B) (A) (E) (E) (A) (E) (E) (A) (B) (B) (E) (E)
                 (B) (A) (A) (E) (E) (A) (B) (E) (E) (B) (A) (A)
                 (E) (E) (B) (E) (E) (B) (E) (E) (A) (E) (E) (B)
                 (A) (B) (A) (E) (E) (B) (E) (E) (A) (B) (E) (E)
                 (A) (B) (A) (E) (E) (E) (E) (A) (B) (E) (E) (A)
                 (E) (E) (B) (B) (B) (A) (E) (E) (E) (E) (B) (A)
                 (A) (E) (E) (B) (A) (B) (E) (E) (E) (E) (B) (E)
                 (E) (A) (B) (A) (A) (E) (E) (B) (B) (E) (E) (B)
                 (A) (B) (E) (E) (A) (E) (E) (E) (E) (A) (B) (A)
                 (A) (B) (E) (E) (A) (B) (E) (E) (A) (B) (E) (E)
                 (A) (E) (E) (B) (E) (E) (A) (B) (A) (B) (E) (E)
                 (A) (B) (E) (E) (A) (E) (E) (B) (A) (A) (B) (E)
                 (E) (B) (A) (E) (E) (B) (E) (E) (B) (A) (A) (E)
                 (E) (B) (A) (E) (E) (B) (A) (A) (B) (E) (E) (B)
                 (E) (E) (B) (B) (A) (E) (E) (A) (E) (E) (A) (B)
                 (E) (E) (A) (E) (E) (A) (B) (E) (E) (B) (E) (E)
                 (B) (A) (E) (E) (B) (A) (E) (E) (A) (E) (E) (B)
                 (B) (E) (E) (A) (B) (A) (E) (E) (A) (E) (E) (A)
                 (B) (B) (E) (E) (A) (E) (E) (B) (E) (E) (B) (B)
                 (E) (E) (A) (A) (E) (E) (B) (B) (E) (E) (A) (A)
                 (A) (B) (A) (E) (E) (A) (E) (E) (B) (E) (E) (A)
                 (B) (A) (E) (E) (B) (E) (E) (B) (B) (E) (E) (A)
                 (A) (E) (E) (B) (A) (B) (B) (E) (E) (A) (E) (E)
                 (B) (E) (E) (A) (E) (E) (A) (B) (A) (B) (E) (E)
                 (A) (B) (E) (E) (B) (E) (E) (E) (E) (A) (B) (E)
                 (E) (A) (A) (A) (B) (E) (E) (B) (B) (A) (B) (E)
                 (E) (A) (E) (E) (B) (E) (E) (A) (E) (E) (B) (A)
                 (A) (B) (E) (E) (E) (E) (B) (A) (A) (B) (E) (E)
                 (A) (B) (E) (E) (A) (B) (E) (E) (A) (B) (E) (E)
                 (B) (A) (E) (E) (E) (E) (B) (A) (A) (E) (E) (B)
                 (B) (E) (E) (A) (E) (E) (B) (A) (E) (E) (B) (A)
                 (A) (B) (E) (E) (B) (A) (E) (E) (A) (E) (E) (B)
                 (E) (E) (A) (B) (E) (E) (A) (B) (A) (E) (E) (B)
                 (B) (A) (E) (E) (B) (E) (E) (B) (A) (E) (E) (A)
                 (A) (B) (E) (E) (B) (A) (E) (E) (A) (B) (E) (E)
                 (B) (A) (E) (E) (A) (B) (A) (E) (E) (B) (A) (E)
                 (E) (B) (E) (E) (B) (A) (E) (E) (B) (A) (E) (E)
                 (A) (E) (E) (A) (B) (B) (E) (E) (B) (E) (E) (A)
                 (E) (E) (B) (A) (A) (B) (E) (E) (A) (B) (B) (E)
                 (E) (E) (E) (B) (E) (E) (A) (A) (E) (E) (B) (A)
                 (A) (E) (E) (B) (B) (A) (E) (E) (A) (B) (E) (E)
                 (E) (E) (A) (E) (E) (B) (B) (A) (A) (B) (E) (E)
                 (B) (A) (A) (E) (E) (E) (E) (A) (A) (B) (B) (B)
                 (E) (E) (A) (E) (E) (B) (A) (E) (E) (E) (E) (B)
                 (B) (E) (E) (A) (E) (E) (A) (B) (E) (E) (B) (A)
                 (A) (E) (E) (B) (B) (A) (E) (E) (E) (E) (A) (B)
                 (A) (E) (E) (B) (A) (B) (A) (E) (E) (B) (E) (E)
                 (E) (E) (B) (A) (B) (A) (E) (E) (A) (E) (E) (B)
                 (A) (E) (E) (B) (E) (E) (A) (B) (A) (E) (E) (B)
                 (B) (A) (E) (E) (B) (A) (E) (E) (E) (E) (A) (B)
                 (A) (B) (E) (E) (E) (E) (B) (A) (B) (E) (E) (A)
                 (E) (E) (A) (B) (A) (B) (E) (E) (A) (B) (E) (E)
                 (A) (B) (E) (E) (B) (E) (E) (A) (E) (E) (A) (B)
                 (B) (A) (E) (E) (A) (B) (E) (E) (E) (E) (A) (B)
                 (A) (A) (B) (E) (E) (B) (E) (E) (B) (E) (E) (A)
                 (E) (E) (B) (A) (E) (E) (B) (A) (B) (E) (E) (A)
                 (A) (B) (E) (E) (B) (A) (E) (E) (A) (B) (E) (E)
                 (A) (E) (E) (B) (A) (E) (E) (B) (A) (B) (E) (E)
                 (A) (B) (E) (E) (A) (E) (E) (B) (B) (E) (E) (A)
                 (E) (E) (B) (A) (A) (E) (E) (B) (B) (E) (E) (A)
                 (A) (E) (E) (B) (E) (E) (B) (A) (B) (E) (E) (A)
                 (A) (B) (E) (E) (B) (E) (E) (A) (B) (E) (E) (A)
                 (E) (E) (B) (A) (B) (A) (E) (E) (A) (B) (E) (E)
                 (B) (E) (E) (A) (A) (E) (E) (B) (B) (E) (E) (A)
                 (A) (B) (E) (E) (B) (E) (E) (A) (B) (E) (E) (A)
                 (A) (B) (E) (E) (A) (B) (E) (E) (E) (E) (B) (A)
                 (A) (B) (E) (E) (E) (E) (B) (A)
 The electronic state is 1-A.
 Alpha  occ. eigenvalues --  -19.63463 -19.63463 -19.63463 -19.63463 -19.61928
 Alpha  occ. eigenvalues --  -19.61928 -19.61928 -19.61928  -1.15306  -1.14402
 Alpha  occ. eigenvalues --   -1.14230  -1.14230  -1.12426  -1.12426  -1.12250
 Alpha  occ. eigenvalues --   -1.11443  -0.62847  -0.62525  -0.62525  -0.62517
 Alpha  occ. eigenvalues --   -0.60475  -0.60377  -0.60073  -0.60073  -0.53085
 Alpha  occ. eigenvalues --   -0.50241  -0.49838  -0.49838  -0.47390  -0.47390
 Alpha  occ. eigenvalues --   -0.46932  -0.44353  -0.41428  -0.41428  -0.41380
 Alpha  occ. eigenvalues --   -0.41305  -0.40282  -0.39742  -0.39713  -0.39713
 Alpha virt. eigenvalues --   -0.01120   0.00714   0.00826   0.00826   0.03875
 Alpha virt. eigenvalues --    0.03875   0.04023   0.04734   0.04742   0.06313
 Alpha virt. eigenvalues --    0.07695   0.07695   0.07701   0.07939   0.08026
 Alpha virt. eigenvalues --    0.08026   0.08230   0.11047   0.11213   0.11213
 Alpha virt. eigenvalues --    0.12253   0.12253   0.12478   0.13149   0.13150
 Alpha virt. eigenvalues --    0.13150   0.13489   0.15691   0.15740   0.16527
 Alpha virt. eigenvalues --    0.17069   0.17306   0.17306   0.17656   0.18064
 Alpha virt. eigenvalues --    0.20047   0.20047   0.20405   0.21518   0.22317
 Alpha virt. eigenvalues --    0.22412   0.22412   0.23032   0.23902   0.24185
 Alpha virt. eigenvalues --    0.24185   0.24286   0.25539   0.25545   0.25545
 Alpha virt. eigenvalues --    0.27245   0.27245   0.27397   0.27531   0.28131
 Alpha virt. eigenvalues --    0.28305   0.28305   0.29150   0.29408   0.30092
 Alpha virt. eigenvalues --    0.30111   0.30111   0.30220   0.31420   0.31420
 Alpha virt. eigenvalues --    0.31775   0.31962   0.31962   0.32268   0.32320
 Alpha virt. eigenvalues --    0.32906   0.32906   0.34021   0.34327   0.34679
 Alpha virt. eigenvalues --    0.34679   0.34899   0.35335   0.36532   0.36591
 Alpha virt. eigenvalues --    0.36591   0.37502   0.37502   0.38207   0.39213
 Alpha virt. eigenvalues --    0.39911   0.40553   0.40553   0.40803   0.41457
 Alpha virt. eigenvalues --    0.41775   0.41806   0.41806   0.42406   0.43761
 Alpha virt. eigenvalues --    0.44782   0.45245   0.45245   0.45859   0.46893
 Alpha virt. eigenvalues --    0.46893   0.49097   0.51120   0.51345   0.51390
 Alpha virt. eigenvalues --    0.51390   0.51639   0.52071   0.52071   0.54668
 Alpha virt. eigenvalues --    0.55066   0.55813   0.56031   0.56031   0.56256
 Alpha virt. eigenvalues --    0.56256   0.57007   0.57619   0.57619   0.57926
 Alpha virt. eigenvalues --    0.58202   0.58438   0.58619   0.58619   0.59496
 Alpha virt. eigenvalues --    0.60065   0.60952   0.60952   0.61428   0.61805
 Alpha virt. eigenvalues --    0.61805   0.62623   0.63126   0.65371   0.65371
 Alpha virt. eigenvalues --    0.66571   0.66925   0.66925   0.66982   0.67060
 Alpha virt. eigenvalues --    0.67833   0.67947   0.67947   0.69649   0.69685
 Alpha virt. eigenvalues --    0.69847   0.69847   0.70403   0.72068   0.72419
 Alpha virt. eigenvalues --    0.73795   0.73795   0.74060   0.75493   0.75493
 Alpha virt. eigenvalues --    0.75815   0.76316   0.78974   0.78974   0.79184
 Alpha virt. eigenvalues --    0.79484   0.81901   0.81901   0.82983   0.83063
 Alpha virt. eigenvalues --    0.83476   0.83476   0.86000   0.87416   0.87416
 Alpha virt. eigenvalues --    0.88827   0.90221   0.90221   0.91211   0.92191
 Alpha virt. eigenvalues --    0.94998   0.95705   0.97982   0.98126   0.99126
 Alpha virt. eigenvalues --    0.99126   1.01625   1.01966   1.01966   1.02276
 Alpha virt. eigenvalues --    1.03038   1.04844   1.04844   1.06492   1.07483
 Alpha virt. eigenvalues --    1.08110   1.09081   1.09081   1.10583   1.10832
 Alpha virt. eigenvalues --    1.10832   1.10884   1.13398   1.13944   1.13944
 Alpha virt. eigenvalues --    1.15263   1.15720   1.16263   1.16263   1.16526
 Alpha virt. eigenvalues --    1.16786   1.19107   1.19107   1.20129   1.20765
 Alpha virt. eigenvalues --    1.21574   1.22526   1.22526   1.22898   1.24702
 Alpha virt. eigenvalues --    1.24702   1.26185   1.26496   1.27579   1.27579
 Alpha virt. eigenvalues --    1.28540   1.29047   1.29047   1.30543   1.32052
 Alpha virt. eigenvalues --    1.33118   1.34150   1.34150   1.37611   1.37949
 Alpha virt. eigenvalues --    1.39312   1.43255   1.43255   1.43717   1.45989
 Alpha virt. eigenvalues --    1.46163   1.46163   1.46990   1.47958   1.50231
 Alpha virt. eigenvalues --    1.50961   1.50961   1.51463   1.53566   1.53566
 Alpha virt. eigenvalues --    1.53732   1.55567   1.55567   1.58377   1.60242
 Alpha virt. eigenvalues --    1.60242   1.60750   1.61202   1.64248   1.64482
 Alpha virt. eigenvalues --    1.65223   1.65223   1.66855   1.67617   1.67617
 Alpha virt. eigenvalues --    1.68096   1.68420   1.70619   1.70619   1.71911
 Alpha virt. eigenvalues --    1.74210   1.74386   1.74466   1.74466   1.76106
 Alpha virt. eigenvalues --    1.76106   1.76154   1.76968   1.78243   1.78243
 Alpha virt. eigenvalues --    1.79916   1.81652   1.81652   1.82096   1.83750
 Alpha virt. eigenvalues --    1.86917   1.87269   1.87377   1.87377   1.88741
 Alpha virt. eigenvalues --    1.88741   1.89653   1.94433   1.97521   1.98333
 Alpha virt. eigenvalues --    1.98333   2.01865   2.04566   2.05542   2.07107
 Alpha virt. eigenvalues --    2.07107   2.10104   2.10104   2.11341   2.11927
 Alpha virt. eigenvalues --    2.11927   2.12204   2.13199   2.14210   2.16270
 Alpha virt. eigenvalues --    2.16553   2.16553   2.17432   2.19509   2.19943
 Alpha virt. eigenvalues --    2.19943   2.21278   2.23673   2.24473   2.25415
 Alpha virt. eigenvalues --    2.25415   2.25613   2.25665   2.25665   2.30213
 Alpha virt. eigenvalues --    2.30213   2.30587   2.31518   2.31783   2.33833
 Alpha virt. eigenvalues --    2.34259   2.35413   2.35413   2.38269   2.38947
 Alpha virt. eigenvalues --    2.40909   2.40909   2.42004   2.42860   2.43714
 Alpha virt. eigenvalues --    2.43714   2.46372   2.47571   2.47571   2.49535
 Alpha virt. eigenvalues --    2.52398   2.52398   2.53678   2.54576   2.56458
 Alpha virt. eigenvalues --    2.56527   2.57226   2.57226   2.58177   2.58511
 Alpha virt. eigenvalues --    2.60901   2.60901   2.61412   2.61685   2.61685
 Alpha virt. eigenvalues --    2.63692   2.64206   2.68275   2.68465   2.68870
 Alpha virt. eigenvalues --    2.68870   2.69428   2.69533   2.72983   2.72983
 Alpha virt. eigenvalues --    2.73084   2.74840   2.74840   2.75127   2.77115
 Alpha virt. eigenvalues --    2.77459   2.78597   2.78597   2.79756   2.79895
 Alpha virt. eigenvalues --    2.81668   2.81668   2.81931   2.82025   2.84267
 Alpha virt. eigenvalues --    2.85189   2.86065   2.86065   2.87162   2.91015
 Alpha virt. eigenvalues --    2.91015   2.92728   2.93910   2.94857   2.95702
 Alpha virt. eigenvalues --    2.95702   2.96297   2.97374   2.97374   2.99236
 Alpha virt. eigenvalues --    3.02747   3.03836   3.03836   3.05081   3.06157
 Alpha virt. eigenvalues --    3.06157   3.06831   3.08506   3.09536   3.09536
 Alpha virt. eigenvalues --    3.13979   3.15052   3.15052   3.19491   3.20093
 Alpha virt. eigenvalues --    3.20659   3.20659   3.23091   3.23426   3.26169
 Alpha virt. eigenvalues --    3.26169   3.29633   3.30267   3.30267   3.35898
 Alpha virt. eigenvalues --    3.39899   3.40178   3.40178   3.42150   3.47738
 Alpha virt. eigenvalues --    3.48558   3.51753   3.51753   3.52043   3.54746
 Alpha virt. eigenvalues --    3.54746   3.55002   3.55453   3.56813   3.59959
 Alpha virt. eigenvalues --    3.59959   3.63244   3.66142   3.66142   3.70945
 Alpha virt. eigenvalues --    3.74742   3.74742   3.74796   3.77862   3.78145
 Alpha virt. eigenvalues --    3.78145   3.78442   3.81240   3.81728   3.81728
 Alpha virt. eigenvalues --    3.83623   3.88311   3.88314   3.88314   3.89147
 Alpha virt. eigenvalues --    3.91920   3.96204   3.98853   3.99069   4.01802
 Alpha virt. eigenvalues --    4.01802   4.07294   4.07533   4.07533   4.08539
 Alpha virt. eigenvalues --    4.09635   4.09635   4.10975   4.12403   4.17841
 Alpha virt. eigenvalues --    4.17902   4.17902   4.18319   4.20008   4.20008
 Alpha virt. eigenvalues --    4.21494   4.22836   4.23502   4.23502   4.25593
 Alpha virt. eigenvalues --    4.27293   4.27873   4.27873   4.28294   4.32762
 Alpha virt. eigenvalues --    4.33893   4.35343   4.35476   4.35476   4.39529
 Alpha virt. eigenvalues --    4.39826   4.39826   4.40994   4.46131   4.46131
 Alpha virt. eigenvalues --    4.46896   4.49000   4.49000   4.49196   4.49238
 Alpha virt. eigenvalues --    4.52361   4.52416   4.54770   4.54770   4.59054
 Alpha virt. eigenvalues --    4.61777   4.65673   4.65673   4.66342   4.68073
 Alpha virt. eigenvalues --    4.68073   4.71485   4.71485   4.74708   4.75212
 Alpha virt. eigenvalues --    4.76469   4.76469   4.77037   4.79290   4.80688
 Alpha virt. eigenvalues --    4.82254   4.85638   4.85638   4.86747   4.88608
 Alpha virt. eigenvalues --    4.90723   4.90987   4.92338   4.92338   4.94722
 Alpha virt. eigenvalues --    4.95256   4.95256   5.02788   5.04379   5.04379
 Alpha virt. eigenvalues --    5.04400   5.08964   5.08964   5.09589   5.14279
 Alpha virt. eigenvalues --    5.37674   5.38149   5.40076   5.40076   5.47794
 Alpha virt. eigenvalues --    5.47794   5.49421   5.50634   5.53641   5.53846
 Alpha virt. eigenvalues --    5.57253   5.57253   5.58186   5.60715   5.61884
 Alpha virt. eigenvalues --    5.61884   5.62174   5.64419   5.65174   5.65174
 Alpha virt. eigenvalues --    5.65383   5.65794   5.69533   5.69533   5.70237
 Alpha virt. eigenvalues --    5.70699   5.71609   5.71609   5.78427   5.78427
 Alpha virt. eigenvalues --    5.78665   5.80802   5.84559   5.85051   5.85051
 Alpha virt. eigenvalues --    5.85125   5.87916   5.89060   5.89060   5.89088
 Alpha virt. eigenvalues --    5.91116   5.91116   5.92830   5.93294   5.96144
 Alpha virt. eigenvalues --    5.96144   5.96905   5.97059   5.98242   6.01078
 Alpha virt. eigenvalues --    6.02263   6.02263   6.04928   6.05254   6.05348
 Alpha virt. eigenvalues --    6.05348   6.23401   6.23700   6.23700   6.23943
 Alpha virt. eigenvalues --    6.29355   6.29355   6.30014   6.32828   6.32925
 Alpha virt. eigenvalues --    6.32925   6.33047   6.34506   6.43112   6.45520
 Alpha virt. eigenvalues --    6.45520   6.47738   6.48623   6.48720   6.51128
 Alpha virt. eigenvalues --    6.51128   6.68060   6.69939   6.69939   6.70477
 Alpha virt. eigenvalues --    6.70565   6.72121   6.72121   6.73449   6.87717
 Alpha virt. eigenvalues --    6.89049   6.90511   6.90511   6.96532   6.96816
 Alpha virt. eigenvalues --    6.98519   6.98519   7.09124   7.09287   7.10445
 Alpha virt. eigenvalues --    7.10445   7.13009   7.14993   7.17507   7.17507
 Alpha virt. eigenvalues --    7.22911   7.25426   7.26201   7.27077   7.27077
 Alpha virt. eigenvalues --    7.27147   7.28434   7.29941   7.29941   7.30569
 Alpha virt. eigenvalues --    7.32842   7.32842   7.33668   7.35002   7.35300
 Alpha virt. eigenvalues --    7.35300   7.36305   7.37559   7.38558   7.38558
 Alpha virt. eigenvalues --    7.40555   7.40872   7.40872   7.41265   7.41396
 Alpha virt. eigenvalues --    7.42314   7.42821   7.42821   7.42843   7.43332
 Alpha virt. eigenvalues --    7.43332   7.44010   7.45441   7.45441   7.47120
 Alpha virt. eigenvalues --    7.48243   7.52075   7.53088   7.57879   7.57879
 Alpha virt. eigenvalues --    7.58207   7.58385   7.61102   7.61267   7.61267
 Alpha virt. eigenvalues --    7.63796   7.63796   7.65428   7.66117   7.66117
 Alpha virt. eigenvalues --    7.66949   7.69162   7.69975   7.69975   7.70026
 Alpha virt. eigenvalues --    7.71165   7.73659   7.76120   7.76120   7.76598
 Alpha virt. eigenvalues --    7.77508   7.77626   7.78384   7.78384   7.79597
 Alpha virt. eigenvalues --    7.80265   7.80271   7.80271   7.82406   7.82406
 Alpha virt. eigenvalues --    7.82924   7.85547   7.85547   7.85659   7.86586
 Alpha virt. eigenvalues --    7.86812   7.87934   7.87959   7.89205   7.89205
 Alpha virt. eigenvalues --    7.91379   7.91505   7.94097   7.95822   7.95822
 Alpha virt. eigenvalues --    7.99405   7.99405   7.99611   8.01118   8.02626
 Alpha virt. eigenvalues --    8.03367   8.04240   8.04861   8.04861   8.09121
 Alpha virt. eigenvalues --    8.09237   8.09237   8.09896   8.10309   8.12155
 Alpha virt. eigenvalues --    8.12155   8.18127   8.18127   8.18467   8.24234
 Alpha virt. eigenvalues --    8.24766   8.24766   8.25500   8.26528   8.26528
 Alpha virt. eigenvalues --    8.27253   8.27516   8.32127   8.32127   8.34953
 Alpha virt. eigenvalues --    8.38387   8.41692   8.42206   8.42206   8.44301
 Alpha virt. eigenvalues --    8.46207   8.46606   8.46963   8.46963   8.50905
 Alpha virt. eigenvalues --    8.50905   8.51777   8.53572   8.57071   8.57940
 Alpha virt. eigenvalues --    8.57940   8.59024   8.59534   8.60165   8.62285
 Alpha virt. eigenvalues --    8.62430   8.62430   8.64700   8.65118   8.65118
 Alpha virt. eigenvalues --    8.69208   8.69208   8.69866   8.71490   8.72443
 Alpha virt. eigenvalues --    8.73183   8.73956   8.73956   8.76526   8.80051
 Alpha virt. eigenvalues --    8.80051   8.80339   8.83485   8.85905   8.85905
 Alpha virt. eigenvalues --    8.88477   8.94903   8.94903   8.95289   8.95624
 Alpha virt. eigenvalues --    9.01449   9.02212   9.02212   9.02984   9.06963
 Alpha virt. eigenvalues --    9.07862   9.09457   9.09457   9.60603   9.61321
 Alpha virt. eigenvalues --    9.61485   9.61485   9.70974   9.70974   9.71699
 Alpha virt. eigenvalues --    9.71822   9.74334   9.77668   9.79065   9.79065
 Alpha virt. eigenvalues --    9.85996   9.85996   9.86771   9.88496  10.16267
 Alpha virt. eigenvalues --   10.16661  10.16661  10.17842  10.18189  10.18189
 Alpha virt. eigenvalues --   10.18791  10.20051  10.20618  10.20747  10.21927
 Alpha virt. eigenvalues --   10.21927  10.23284  10.23515  10.24791  10.24791
 Alpha virt. eigenvalues --   10.51000  10.53704  10.53821  10.53821  10.62748
 Alpha virt. eigenvalues --   10.63943  10.63943  10.64061  10.68429  10.68429
 Alpha virt. eigenvalues --   10.68482  10.68876  10.75136  10.75872  10.79152
 Alpha virt. eigenvalues --   10.79152  10.81418  10.81463  10.83202  10.83202
 Alpha virt. eigenvalues --   10.85156  10.85156  10.87600  10.87840  10.96902
 Alpha virt. eigenvalues --   10.99338  10.99354  11.00703  11.00703  11.03065
 Alpha virt. eigenvalues --   11.04931  11.04931  11.08517  11.10669  11.10669
 Alpha virt. eigenvalues --   11.13072  11.17783  11.17783  11.19313  11.20844
 Alpha virt. eigenvalues --   11.25005  11.25005  11.25040  11.27287  11.32995
 Alpha virt. eigenvalues --   11.34079  11.34079  11.36430  11.38144  11.40972
 Alpha virt. eigenvalues --   11.41819  11.41819  11.53204  11.54028  11.56966
 Alpha virt. eigenvalues --   11.56966  11.57837  11.59960  11.60129  11.60129
 Alpha virt. eigenvalues --   11.63357  11.64163  11.64163  11.65368  11.66971
 Alpha virt. eigenvalues --   11.71434  11.71434  11.71684  11.71928  11.75098
 Alpha virt. eigenvalues --   11.76924  11.76924  11.79805  11.80999  11.81924
 Alpha virt. eigenvalues --   11.81924  11.88070  11.88094  11.88094  11.89296
 Alpha virt. eigenvalues --   11.90211  11.94012  11.94012  11.96539  11.98922
 Alpha virt. eigenvalues --   11.98922  12.01166  12.01289  12.30571  12.33231
 Alpha virt. eigenvalues --   12.33231  12.36210  12.46366  12.47361  12.47361
 Alpha virt. eigenvalues --   12.47864  12.63825  12.64767  12.64767  12.65025
 Alpha virt. eigenvalues --   12.66077  12.66077  12.67055  12.70000  13.11699
 Alpha virt. eigenvalues --   13.12450  13.12450  13.12807  13.22937  13.23116
 Alpha virt. eigenvalues --   13.23219  13.23219  13.40711  13.41037  13.41037
 Alpha virt. eigenvalues --   13.42908  13.47337  13.47718  13.47718  13.49417
 Alpha virt. eigenvalues --   13.58761  13.58761  13.61141  13.61174  13.66146
 Alpha virt. eigenvalues --   13.67492  13.72333  13.72333  13.80221  13.83486
 Alpha virt. eigenvalues --   13.83551  13.83551  13.88841  13.89249  13.89249
 Alpha virt. eigenvalues --   13.89840  14.38028  14.40091  14.40091  14.40819
 Alpha virt. eigenvalues --   14.51262  14.53620  14.53620  14.62889  16.28084
 Alpha virt. eigenvalues --   16.30344  16.32892  16.32892  16.45629  16.45768
 Alpha virt. eigenvalues --   16.45768  16.46606  16.52904  16.57654  16.57654
 Alpha virt. eigenvalues --   16.58309  16.62225  16.66989  16.69176  16.69176
 Alpha virt. eigenvalues --   48.52200  48.57445  48.57488  48.57488  48.67173
 Alpha virt. eigenvalues --   48.67173  48.67927  48.76848 251.63447 251.70635
 Alpha virt. eigenvalues --  251.70731 251.70731 251.82677 251.82677 251.83480
 Alpha virt. eigenvalues --  251.94700
          Condensed to atoms (all electrons):
               1          2          3          4          5          6
     1  O    8.397727   0.241207   0.206722  -0.000809   0.000211  -0.001121
     2  H    0.241207   0.389751  -0.005770   0.002822  -0.002867   0.001989
     3  H    0.206722  -0.005770   0.372359   0.002733  -0.000351  -0.000169
     4  O   -0.000809   0.002822   0.002733   8.397727   0.206722   0.241207
     5  H    0.000211  -0.002867  -0.000351   0.206722   0.372359  -0.005770
     6  H   -0.001121   0.001989  -0.000169   0.241207  -0.005770   0.389751
     7  O   -0.000834   0.000017  -0.000051  -0.037438   0.008728   0.092308
     8  H    0.000747  -0.001498  -0.000103   0.003024  -0.000857  -0.005232
     9  H   -0.000276   0.001128   0.000024   0.008554  -0.005155  -0.008485
    10  O   -0.037438   0.092308   0.008728  -0.025230   0.005015   0.001536
    11  H    0.003024  -0.005232  -0.000857   0.022460   0.002819  -0.002415
    12  H    0.008554  -0.008485  -0.005155  -0.014201   0.002546   0.001374
    13  O   -0.029443   0.003736   0.006488  -0.000834  -0.000051   0.000017
    14  H    0.012813   0.001695   0.000294  -0.000276   0.000024   0.001128
    15  H    0.004956   0.001190  -0.003783   0.000747  -0.000103  -0.001498
    16  O   -0.000809  -0.001121   0.000211   0.002639   0.000392  -0.007499
    17  H    0.002822   0.001989  -0.002867  -0.007499   0.001666   0.006956
    18  H    0.002733  -0.000169  -0.000351   0.000392   0.000071   0.001666
    19  O    0.002639  -0.007499   0.000392  -0.000809   0.002733   0.002822
    20  H   -0.007499   0.006956   0.001666  -0.001121  -0.000169   0.001989
    21  H    0.000392   0.001666   0.000071   0.000211  -0.000351  -0.002867
    22  O   -0.025230   0.001536   0.005015  -0.029443   0.006488   0.003736
    23  H    0.022460  -0.002415   0.002819   0.004956  -0.003783   0.001190
    24  H   -0.014201   0.001374   0.002546   0.012813   0.000294   0.001695
               7          8          9         10         11         12
     1  O   -0.000834   0.000747  -0.000276  -0.037438   0.003024   0.008554
     2  H    0.000017  -0.001498   0.001128   0.092308  -0.005232  -0.008485
     3  H   -0.000051  -0.000103   0.000024   0.008728  -0.000857  -0.005155
     4  O   -0.037438   0.003024   0.008554  -0.025230   0.022460  -0.014201
     5  H    0.008728  -0.000857  -0.005155   0.005015   0.002819   0.002546
     6  H    0.092308  -0.005232  -0.008485   0.001536  -0.002415   0.001374
     7  O    8.313920   0.217090   0.219742   0.001815  -0.001908   0.001184
     8  H    0.217090   0.361512  -0.021430   0.000433  -0.002396  -0.000417
     9  H    0.219742  -0.021430   0.361342   0.001115  -0.000879   0.001003
    10  O    0.001815   0.000433   0.001115   8.313920   0.217090   0.219742
    11  H   -0.001908  -0.002396  -0.000879   0.217090   0.361512  -0.021430
    12  H    0.001184  -0.000417   0.001003   0.219742  -0.021430   0.361342
    13  O    0.001815  -0.001908   0.001184   0.002749  -0.001365  -0.002911
    14  H    0.001115  -0.000879   0.001003  -0.002911  -0.001263  -0.000803
    15  H    0.000433  -0.002396  -0.000417  -0.001365   0.000939  -0.001263
    16  O   -0.029443   0.004956   0.012813  -0.000834   0.000747  -0.000276
    17  H    0.003736   0.001190   0.001695   0.000017  -0.001498   0.001128
    18  H    0.006488  -0.003783   0.000294  -0.000051  -0.000103   0.000024
    19  O   -0.025230   0.022460  -0.014201  -0.029443   0.004956   0.012813
    20  H    0.001536  -0.002415   0.001374   0.003736   0.001190   0.001695
    21  H    0.005015   0.002819   0.002546   0.006488  -0.003783   0.000294
    22  O    0.002749  -0.001365  -0.002911   0.001815   0.000433   0.001115
    23  H   -0.001365   0.000939  -0.001263  -0.001908  -0.002396  -0.000879
    24  H   -0.002911  -0.001263  -0.000803   0.001184  -0.000417   0.001003
              13         14         15         16         17         18
     1  O   -0.029443   0.012813   0.004956  -0.000809   0.002822   0.002733
     2  H    0.003736   0.001695   0.001190  -0.001121   0.001989  -0.000169
     3  H    0.006488   0.000294  -0.003783   0.000211  -0.002867  -0.000351
     4  O   -0.000834  -0.000276   0.000747   0.002639  -0.007499   0.000392
     5  H   -0.000051   0.000024  -0.000103   0.000392   0.001666   0.000071
     6  H    0.000017   0.001128  -0.001498  -0.007499   0.006956   0.001666
     7  O    0.001815   0.001115   0.000433  -0.029443   0.003736   0.006488
     8  H   -0.001908  -0.000879  -0.002396   0.004956   0.001190  -0.003783
     9  H    0.001184   0.001003  -0.000417   0.012813   0.001695   0.000294
    10  O    0.002749  -0.002911  -0.001365  -0.000834   0.000017  -0.000051
    11  H   -0.001365  -0.001263   0.000939   0.000747  -0.001498  -0.000103
    12  H   -0.002911  -0.000803  -0.001263  -0.000276   0.001128   0.000024
    13  O    8.313920   0.219742   0.217090  -0.025230   0.001536   0.005015
    14  H    0.219742   0.361342  -0.021430  -0.014201   0.001374   0.002546
    15  H    0.217090  -0.021430   0.361512   0.022460  -0.002415   0.002819
    16  O   -0.025230  -0.014201   0.022460   8.397727   0.241207   0.206722
    17  H    0.001536   0.001374  -0.002415   0.241207   0.389751  -0.005770
    18  H    0.005015   0.002546   0.002819   0.206722  -0.005770   0.372359
    19  O   -0.037438   0.008554   0.003024  -0.000809  -0.001121   0.000211
    20  H    0.092308  -0.008485  -0.005232   0.002822   0.001989  -0.002867
    21  H    0.008728  -0.005155  -0.000857   0.002733  -0.000169  -0.000351
    22  O    0.001815   0.001184  -0.001908  -0.037438   0.092308   0.008728
    23  H    0.000433  -0.000417  -0.002396   0.003024  -0.005232  -0.000857
    24  H    0.001115   0.001003  -0.000879   0.008554  -0.008485  -0.005155
              19         20         21         22         23         24
     1  O    0.002639  -0.007499   0.000392  -0.025230   0.022460  -0.014201
     2  H   -0.007499   0.006956   0.001666   0.001536  -0.002415   0.001374
     3  H    0.000392   0.001666   0.000071   0.005015   0.002819   0.002546
     4  O   -0.000809  -0.001121   0.000211  -0.029443   0.004956   0.012813
     5  H    0.002733  -0.000169  -0.000351   0.006488  -0.003783   0.000294
     6  H    0.002822   0.001989  -0.002867   0.003736   0.001190   0.001695
     7  O   -0.025230   0.001536   0.005015   0.002749  -0.001365  -0.002911
     8  H    0.022460  -0.002415   0.002819  -0.001365   0.000939  -0.001263
     9  H   -0.014201   0.001374   0.002546  -0.002911  -0.001263  -0.000803
    10  O   -0.029443   0.003736   0.006488   0.001815  -0.001908   0.001184
    11  H    0.004956   0.001190  -0.003783   0.000433  -0.002396  -0.000417
    12  H    0.012813   0.001695   0.000294   0.001115  -0.000879   0.001003
    13  O   -0.037438   0.092308   0.008728   0.001815   0.000433   0.001115
    14  H    0.008554  -0.008485  -0.005155   0.001184  -0.000417   0.001003
    15  H    0.003024  -0.005232  -0.000857  -0.001908  -0.002396  -0.000879
    16  O   -0.000809   0.002822   0.002733  -0.037438   0.003024   0.008554
    17  H   -0.001121   0.001989  -0.000169   0.092308  -0.005232  -0.008485
    18  H    0.000211  -0.002867  -0.000351   0.008728  -0.000857  -0.005155
    19  O    8.397727   0.241207   0.206722  -0.000834   0.000747  -0.000276
    20  H    0.241207   0.389751  -0.005770   0.000017  -0.001498   0.001128
    21  H    0.206722  -0.005770   0.372359  -0.000051  -0.000103   0.000024
    22  O   -0.000834   0.000017  -0.000051   8.313920   0.217090   0.219742
    23  H    0.000747  -0.001498  -0.000103   0.217090   0.361512  -0.021430
    24  H   -0.000276   0.001128   0.000024   0.219742  -0.021430   0.361342
 Mulliken charges:
               1
     1  O   -0.789346
     2  H    0.285692
     3  H    0.409390
     4  O   -0.789346
     5  H    0.409390
     6  H    0.285692
     7  O   -0.778511
     8  H    0.430773
     9  H    0.442003
    10  O   -0.778511
    11  H    0.430773
    12  H    0.442003
    13  O   -0.778511
    14  H    0.442003
    15  H    0.430773
    16  O   -0.789346
    17  H    0.285692
    18  H    0.409390
    19  O   -0.789346
    20  H    0.285692
    21  H    0.409390
    22  O   -0.778511
    23  H    0.430773
    24  H    0.442003
 Sum of Mulliken charges =  -0.00000
 Mulliken charges with hydrogens summed into heavy atoms:
               1
     1  O   -0.094265
     4  O   -0.094265
     7  O    0.094265
    10  O    0.094265
    13  O    0.094265
    16  O   -0.094265
    19  O   -0.094265
    22  O    0.094265
 Electronic spatial extent (au):  <R**2>=           1842.8937
 Charge=             -0.0000 electrons
 Dipole moment (field-independent basis, Debye):
    X=             -0.0000    Y=              0.0000    Z=             -0.0000  Tot=              0.0000
 Quadrupole moment (field-independent basis, Debye-Ang):
   XX=            -50.5466   YY=            -50.5466   ZZ=            -48.5217
   XY=             -0.0000   XZ=             -0.0000   YZ=              0.0000
 Traceless Quadrupole moment (field-independent basis, Debye-Ang):
   XX=             -0.6750   YY=             -0.6750   ZZ=              1.3500
   XY=             -0.0000   XZ=             -0.0000   YZ=              0.0000
 Octapole moment (field-independent basis, Debye-Ang**2):
  XXX=             -0.0000  YYY=              0.0000  ZZZ=             -0.0000  XYY=              0.0000
  XXY=             -0.0000  XXZ=             46.8012  XZZ=             -0.0000  YZZ=             -0.0000
  YYZ=            -46.8012  XYZ=              6.0153
 Hexadecapole moment (field-independent basis, Debye-Ang**3):
 XXXX=           -622.0869 YYYY=           -622.0869 ZZZZ=           -665.2240 XXXY=             17.4501
 XXXZ=              0.0000 YYYX=            -17.4501 YYYZ=             -0.0000 ZZZX=              0.0000
 ZZZY=              0.0000 XXYY=           -222.0763 XXZZ=           -193.1498 YYZZ=           -193.1498
 XXYZ=             -0.0000 YYXZ=              0.0000 ZZXY=             -0.0000
 N-N= 5.049225004683D+02 E-N=-2.456553031375D+03  KE= 6.094694906317D+02
 PrsmSu:  requested number of processors reduced to:  18 ShMem   1 Linda.
 No NMR shielding tensors so no spin-rotation constants.
 Leave Link  601 at Sat Apr 17 21:18:08 2021, MaxMem=   104857600 cpu:            1043.1 elap:              22.7
 (Enter /s/ls4/users/knvvv/bin/g16sse/l801.exe)
 DoSCS=F DFT=T ScalE2(SS,OS)=  1.000000  1.000000
 Range of M.O.s used for correlation:     1  1056
 NBasis=  1056 NAE=    40 NBE=    40 NFC=     0 NFV=     0
 NROrb=   1056 NOA=    40 NOB=    40 NVA=  1016 NVB=  1016

 **** Warning!!: The largest alpha MO coefficient is  0.69571506D+02

 Leave Link  801 at Sat Apr 17 21:18:09 2021, MaxMem=   104857600 cpu:               6.8 elap:               0.3
 (Enter /s/ls4/users/knvvv/bin/g16sse/l914.exe)
 RHF ground state
 Doing stability rather than CIS.
 Two-electron integrals replicated using symmetry.
 MDV=   104857600 DFT=T DoStab=T Mixed=T DoRPA=F DoScal=F NonHer=F
 Making orbital integer symmetry assigments:
 Orbital symmetries:
       Occupied  (B) (E) (E) (A) (E) (E) (B) (A) (A) (B) (E) (E)
                 (E) (E) (B) (A) (B) (E) (E) (A) (A) (B) (E) (E)
                 (A) (B) (E) (E) (E) (E) (B) (A) (E) (E) (A) (B)
                 (A) (B) (E) (E)
       Virtual   (A) (B) (E) (E) (E) (E) (B) (A) (B) (A) (E) (E)
                 (A) (B) (E) (E) (A) (B) (E) (E) (E) (E) (A) (B)
                 (E) (E) (A) (B) (A) (B) (A) (E) (E) (B) (A) (E)
                 (E) (B) (B) (A) (E) (E) (B) (A) (E) (E) (A) (B)
                 (E) (E) (E) (E) (B) (A) (A) (E) (E) (B) (A) (A)
                 (E) (E) (B) (E) (E) (A) (E) (E) (B) (A) (E) (E)
                 (B) (B) (E) (E) (A) (A) (B) (E) (E) (E) (E) (A)
                 (B) (B) (E) (E) (B) (A) (B) (E) (E) (A) (B) (A)
                 (E) (E) (B) (E) (E) (A) (A) (B) (E) (E) (B) (E)
                 (E) (A) (A) (B) (E) (E) (E) (E) (B) (E) (E) (A)
                 (A) (B) (E) (E) (A) (B) (E) (E) (A) (E) (E) (B)
                 (A) (E) (E) (B) (E) (E) (A) (B) (B) (E) (E) (A)
                 (B) (E) (E) (A) (A) (A) (E) (E) (B) (E) (E) (A)
                 (B) (E) (E) (A) (B) (E) (E) (A) (B) (E) (E) (B)
                 (E) (E) (B) (E) (E) (B) (A) (A) (B) (B) (A) (E)
                 (E) (A) (E) (E) (B) (A) (E) (E) (A) (A) (B) (E)
                 (E) (B) (E) (E) (A) (B) (E) (E) (A) (B) (E) (E)
                 (B) (A) (E) (E) (A) (B) (A) (E) (E) (B) (E) (E)
                 (B) (A) (E) (E) (A) (E) (E) (A) (B) (B) (E) (E)
                 (B) (A) (A) (E) (E) (A) (B) (E) (E) (B) (A) (A)
                 (E) (E) (B) (E) (E) (B) (E) (E) (A) (E) (E) (B)
                 (A) (B) (A) (E) (E) (B) (E) (E) (A) (B) (E) (E)
                 (A) (B) (A) (E) (E) (E) (E) (A) (B) (E) (E) (A)
                 (E) (E) (B) (B) (B) (A) (E) (E) (E) (E) (B) (A)
                 (A) (E) (E) (B) (A) (B) (E) (E) (E) (E) (B) (E)
                 (E) (A) (B) (A) (A) (E) (E) (B) (B) (E) (E) (B)
                 (A) (B) (E) (E) (A) (E) (E) (E) (E) (A) (B) (A)
                 (A) (B) (E) (E) (A) (B) (E) (E) (A) (B) (E) (E)
                 (A) (E) (E) (B) (E) (E) (A) (B) (A) (B) (E) (E)
                 (A) (B) (E) (E) (A) (E) (E) (B) (A) (A) (B) (E)
                 (E) (B) (A) (E) (E) (B) (E) (E) (B) (A) (A) (E)
                 (E) (B) (A) (E) (E) (B) (A) (A) (B) (E) (E) (B)
                 (E) (E) (B) (B) (A) (E) (E) (A) (E) (E) (A) (B)
                 (E) (E) (A) (E) (E) (A) (B) (E) (E) (B) (E) (E)
                 (B) (A) (E) (E) (B) (A) (E) (E) (A) (E) (E) (B)
                 (B) (E) (E) (A) (B) (A) (E) (E) (A) (E) (E) (A)
                 (B) (B) (E) (E) (A) (E) (E) (B) (E) (E) (B) (B)
                 (E) (E) (A) (A) (E) (E) (B) (B) (E) (E) (A) (A)
                 (A) (B) (A) (E) (E) (A) (E) (E) (B) (E) (E) (A)
                 (B) (A) (E) (E) (B) (E) (E) (B) (B) (E) (E) (A)
                 (A) (E) (E) (B) (A) (B) (B) (E) (E) (A) (E) (E)
                 (B) (E) (E) (A) (E) (E) (A) (B) (A) (B) (E) (E)
                 (A) (B) (E) (E) (B) (E) (E) (E) (E) (A) (B) (E)
                 (E) (A) (A) (A) (B) (E) (E) (B) (B) (A) (B) (E)
                 (E) (A) (E) (E) (B) (E) (E) (A) (E) (E) (B) (A)
                 (A) (B) (E) (E) (E) (E) (B) (A) (A) (B) (E) (E)
                 (A) (B) (E) (E) (A) (B) (E) (E) (A) (B) (E) (E)
                 (B) (A) (E) (E) (E) (E) (B) (A) (A) (E) (E) (B)
                 (B) (E) (E) (A) (E) (E) (B) (A) (E) (E) (B) (A)
                 (A) (B) (E) (E) (B) (A) (E) (E) (A) (E) (E) (B)
                 (E) (E) (A) (B) (E) (E) (A) (B) (A) (E) (E) (B)
                 (B) (A) (E) (E) (B) (E) (E) (B) (A) (E) (E) (A)
                 (A) (B) (E) (E) (B) (A) (E) (E) (A) (B) (E) (E)
                 (B) (A) (E) (E) (A) (B) (A) (E) (E) (B) (A) (E)
                 (E) (B) (E) (E) (B) (A) (E) (E) (B) (A) (E) (E)
                 (A) (E) (E) (A) (B) (B) (E) (E) (B) (E) (E) (A)
                 (E) (E) (B) (A) (A) (B) (E) (E) (A) (B) (B) (E)
                 (E) (E) (E) (B) (E) (E) (A) (A) (E) (E) (B) (A)
                 (A) (E) (E) (B) (B) (A) (E) (E) (A) (B) (E) (E)
                 (E) (E) (A) (E) (E) (B) (B) (A) (A) (B) (E) (E)
[...]
 Alpha virt. eigenvalues --    5.57253   5.57253   5.58186   5.60715   5.61884
 Alpha virt. eigenvalues --    5.61884   5.62174   5.64419   5.65174   5.65174
 Alpha virt. eigenvalues --    5.65383   5.65794   5.69533   5.69533   5.70237
 Alpha virt. eigenvalues --    5.70699   5.71609   5.71609   5.78427   5.78427
 Alpha virt. eigenvalues --    5.78665   5.80802   5.84559   5.85051   5.85051
 Alpha virt. eigenvalues --    5.85125   5.87916   5.89060   5.89060   5.89088
 Alpha virt. eigenvalues --    5.91116   5.91116   5.92830   5.93294   5.96144
 Alpha virt. eigenvalues --    5.96144   5.96905   5.97059   5.98242   6.01078
 Alpha virt. eigenvalues --    6.02263   6.02263   6.04928   6.05254   6.05348
 Alpha virt. eigenvalues --    6.05348   6.23401   6.23700   6.23700   6.23943
 Alpha virt. eigenvalues --    6.29355   6.29355   6.30014   6.32828   6.32925
 Alpha virt. eigenvalues --    6.32925   6.33047   6.34506   6.43112   6.45520
 Alpha virt. eigenvalues --    6.45520   6.47738   6.48623   6.48720   6.51128
 Alpha virt. eigenvalues --    6.51128   6.68060   6.69939   6.69939   6.70477
 Alpha virt. eigenvalues --    6.70565   6.72121   6.72121   6.73449   6.87717
 Alpha virt. eigenvalues --    6.89049   6.90511   6.90511   6.96532   6.96816
 Alpha virt. eigenvalues --    6.98519   6.98519   7.09124   7.09287   7.10445
 Alpha virt. eigenvalues --    7.10445   7.13009   7.14993   7.17507   7.17507
 Alpha virt. eigenvalues --    7.22911   7.25426   7.26201   7.27077   7.27077
 Alpha virt. eigenvalues --    7.27147   7.28434   7.29941   7.29941   7.30569
 Alpha virt. eigenvalues --    7.32842   7.32842   7.33668   7.35002   7.35300
 Alpha virt. eigenvalues --    7.35300   7.36305   7.37559   7.38558   7.38558
 Alpha virt. eigenvalues --    7.40555   7.40872   7.40872   7.41265   7.41396
 Alpha virt. eigenvalues --    7.42314   7.42821   7.42821   7.42843   7.43332
 Alpha virt. eigenvalues --    7.43332   7.44010   7.45441   7.45441   7.47120
 Alpha virt. eigenvalues --    7.48243   7.52075   7.53088   7.57879   7.57879
 Alpha virt. eigenvalues --    7.58207   7.58385   7.61102   7.61267   7.61267
 Alpha virt. eigenvalues --    7.63796   7.63796   7.65428   7.66117   7.66117
 Alpha virt. eigenvalues --    7.66949   7.69162   7.69975   7.69975   7.70026
 Alpha virt. eigenvalues --    7.71165   7.73659   7.76120   7.76120   7.76598
 Alpha virt. eigenvalues --    7.77508   7.77626   7.78384   7.78384   7.79597
 Alpha virt. eigenvalues --    7.80265   7.80271   7.80271   7.82406   7.82406
 Alpha virt. eigenvalues --    7.82924   7.85547   7.85547   7.85659   7.86586
 Alpha virt. eigenvalues --    7.86812   7.87934   7.87959   7.89205   7.89205
 Alpha virt. eigenvalues --    7.91379   7.91505   7.94097   7.95822   7.95822
 Alpha virt. eigenvalues --    7.99405   7.99405   7.99611   8.01118   8.02626
 Alpha virt. eigenvalues --    8.03367   8.04240   8.04861   8.04861   8.09121
 Alpha virt. eigenvalues --    8.09237   8.09237   8.09896   8.10309   8.12155
 Alpha virt. eigenvalues --    8.12155   8.18127   8.18127   8.18467   8.24234
 Alpha virt. eigenvalues --    8.24766   8.24766   8.25500   8.26528   8.26528
 Alpha virt. eigenvalues --    8.27253   8.27516   8.32127   8.32127   8.34953
 Alpha virt. eigenvalues --    8.38387   8.41692   8.42206   8.42206   8.44301
 Alpha virt. eigenvalues --    8.46207   8.46606   8.46963   8.46963   8.50905
 Alpha virt. eigenvalues --    8.50905   8.51777   8.53572   8.57071   8.57940
 Alpha virt. eigenvalues --    8.57940   8.59024   8.59534   8.60165   8.62285
 Alpha virt. eigenvalues --    8.62430   8.62430   8.64700   8.65118   8.65118
 Alpha virt. eigenvalues --    8.69208   8.69208   8.69866   8.71490   8.72443
 Alpha virt. eigenvalues --    8.73183   8.73956   8.73956   8.76526   8.80051
 Alpha virt. eigenvalues --    8.80051   8.80339   8.83485   8.85905   8.85905
 Alpha virt. eigenvalues --    8.88477   8.94903   8.94903   8.95289   8.95624
 Alpha virt. eigenvalues --    9.01449   9.02212   9.02212   9.02984   9.06963
 Alpha virt. eigenvalues --    9.07862   9.09457   9.09457   9.60603   9.61321
 Alpha virt. eigenvalues --    9.61485   9.61485   9.70974   9.70974   9.71699
 Alpha virt. eigenvalues --    9.71822   9.74334   9.77668   9.79065   9.79065
 Alpha virt. eigenvalues --    9.85996   9.85996   9.86771   9.88496  10.16267
 Alpha virt. eigenvalues --   10.16661  10.16661  10.17842  10.18189  10.18189
 Alpha virt. eigenvalues --   10.18791  10.20051  10.20618  10.20747  10.21927
 Alpha virt. eigenvalues --   10.21927  10.23284  10.23515  10.24791  10.24791
 Alpha virt. eigenvalues --   10.51000  10.53704  10.53821  10.53821  10.62748
 Alpha virt. eigenvalues --   10.63943  10.63943  10.64061  10.68429  10.68429
 Alpha virt. eigenvalues --   10.68482  10.68876  10.75136  10.75872  10.79152
 Alpha virt. eigenvalues --   10.79152  10.81418  10.81463  10.83202  10.83202
 Alpha virt. eigenvalues --   10.85156  10.85156  10.87600  10.87840  10.96902
 Alpha virt. eigenvalues --   10.99338  10.99354  11.00703  11.00703  11.03065
 Alpha virt. eigenvalues --   11.04931  11.04931  11.08517  11.10669  11.10669
 Alpha virt. eigenvalues --   11.13072  11.17783  11.17783  11.19313  11.20844
 Alpha virt. eigenvalues --   11.25005  11.25005  11.25040  11.27287  11.32995
 Alpha virt. eigenvalues --   11.34079  11.34079  11.36430  11.38144  11.40972
 Alpha virt. eigenvalues --   11.41819  11.41819  11.53204  11.54028  11.56966
 Alpha virt. eigenvalues --   11.56966  11.57837  11.59960  11.60129  11.60129
 Alpha virt. eigenvalues --   11.63357  11.64163  11.64163  11.65368  11.66971
 Alpha virt. eigenvalues --   11.71434  11.71434  11.71684  11.71928  11.75098
 Alpha virt. eigenvalues --   11.76924  11.76924  11.79805  11.80999  11.81924
 Alpha virt. eigenvalues --   11.81924  11.88070  11.88094  11.88094  11.89296
 Alpha virt. eigenvalues --   11.90211  11.94012  11.94012  11.96539  11.98922
 Alpha virt. eigenvalues --   11.98922  12.01166  12.01289  12.30571  12.33231
 Alpha virt. eigenvalues --   12.33231  12.36210  12.46366  12.47361  12.47361
 Alpha virt. eigenvalues --   12.47864  12.63825  12.64767  12.64767  12.65025
 Alpha virt. eigenvalues --   12.66077  12.66077  12.67055  12.70000  13.11699
 Alpha virt. eigenvalues --   13.12450  13.12450  13.12807  13.22937  13.23116
 Alpha virt. eigenvalues --   13.23219  13.23219  13.40711  13.41037  13.41037
 Alpha virt. eigenvalues --   13.42908  13.47337  13.47718  13.47718  13.49417
 Alpha virt. eigenvalues --   13.58761  13.58761  13.61141  13.61174  13.66146
 Alpha virt. eigenvalues --   13.67492  13.72333  13.72333  13.80221  13.83486
 Alpha virt. eigenvalues --   13.83551  13.83551  13.88841  13.89249  13.89249
 Alpha virt. eigenvalues --   13.89840  14.38028  14.40091  14.40091  14.40819
 Alpha virt. eigenvalues --   14.51262  14.53620  14.53620  14.62889  16.28084
 Alpha virt. eigenvalues --   16.30344  16.32892  16.32892  16.45629  16.45768
 Alpha virt. eigenvalues --   16.45768  16.46606  16.52904  16.57654  16.57654
 Alpha virt. eigenvalues --   16.58309  16.62225  16.66989  16.69176  16.69176
 Alpha virt. eigenvalues --   48.52200  48.57445  48.57488  48.57488  48.67173
 Alpha virt. eigenvalues --   48.67173  48.67927  48.76848 251.63447 251.70635
 Alpha virt. eigenvalues --  251.70731 251.70731 251.82677 251.82677 251.83480
 Alpha virt. eigenvalues --  251.94700
          Condensed to atoms (all electrons):
               1          2          3          4          5          6
     1  O    8.397727   0.241207   0.206722  -0.000809   0.000211  -0.001121
     2  H    0.241207   0.389751  -0.005770   0.002822  -0.002867   0.001989
     3  H    0.206722  -0.005770   0.372359   0.002733  -0.000351  -0.000169
     4  O   -0.000809   0.002822   0.002733   8.397727   0.206722   0.241207
     5  H    0.000211  -0.002867  -0.000351   0.206722   0.372359  -0.005770
     6  H   -0.001121   0.001989  -0.000169   0.241207  -0.005770   0.389751
     7  O   -0.000834   0.000017  -0.000051  -0.037438   0.008728   0.092308
     8  H    0.000747  -0.001498  -0.000103   0.003024  -0.000857  -0.005232
     9  H   -0.000276   0.001128   0.000024   0.008554  -0.005155  -0.008485
    10  O   -0.037438   0.092308   0.008728  -0.025230   0.005015   0.001536
    11  H    0.003024  -0.005232  -0.000857   0.022460   0.002819  -0.002415
    12  H    0.008554  -0.008485  -0.005155  -0.014201   0.002546   0.001374
    13  O   -0.029443   0.003736   0.006488  -0.000834  -0.000051   0.000017
    14  H    0.012813   0.001695   0.000294  -0.000276   0.000024   0.001128
    15  H    0.004956   0.001190  -0.003783   0.000747  -0.000103  -0.001498
    16  O   -0.000809  -0.001121   0.000211   0.002639   0.000392  -0.007499
    17  H    0.002822   0.001989  -0.002867  -0.007499   0.001666   0.006956
    18  H    0.002733  -0.000169  -0.000351   0.000392   0.000071   0.001666
    19  O    0.002639  -0.007499   0.000392  -0.000809   0.002733   0.002822
    20  H   -0.007499   0.006956   0.001666  -0.001121  -0.000169   0.001989
    21  H    0.000392   0.001666   0.000071   0.000211  -0.000351  -0.002867
    22  O   -0.025230   0.001536   0.005015  -0.029443   0.006488   0.003736
    23  H    0.022460  -0.002415   0.002819   0.004956  -0.003783   0.001190
    24  H   -0.014201   0.001374   0.002546   0.012813   0.000294   0.001695
               7          8          9         10         11         12
     1  O   -0.000834   0.000747  -0.000276  -0.037438   0.003024   0.008554
     2  H    0.000017  -0.001498   0.001128   0.092308  -0.005232  -0.008485
     3  H   -0.000051  -0.000103   0.000024   0.008728  -0.000857  -0.005155
     4  O   -0.037438   0.003024   0.008554  -0.025230   0.022460  -0.014201
     5  H    0.008728  -0.000857  -0.005155   0.005015   0.002819   0.002546
     6  H    0.092308  -0.005232  -0.008485   0.001536  -0.002415   0.001374
     7  O    8.313920   0.217090   0.219742   0.001815  -0.001908   0.001184
     8  H    0.217090   0.361512  -0.021430   0.000433  -0.002396  -0.000417
     9  H    0.219742  -0.021430   0.361342   0.001115  -0.000879   0.001003
    10  O    0.001815   0.000433   0.001115   8.313920   0.217090   0.219742
    11  H   -0.001908  -0.002396  -0.000879   0.217090   0.361512  -0.021430
    12  H    0.001184  -0.000417   0.001003   0.219742  -0.021430   0.361342
    13  O    0.001815  -0.001908   0.001184   0.002749  -0.001365  -0.002911
    14  H    0.001115  -0.000879   0.001003  -0.002911  -0.001263  -0.000803
    15  H    0.000433  -0.002396  -0.000417  -0.001365   0.000939  -0.001263
    16  O   -0.029443   0.004956   0.012813  -0.000834   0.000747  -0.000276
    17  H    0.003736   0.001190   0.001695   0.000017  -0.001498   0.001128
    18  H    0.006488  -0.003783   0.000294  -0.000051  -0.000103   0.000024
    19  O   -0.025230   0.022460  -0.014201  -0.029443   0.004956   0.012813
    20  H    0.001536  -0.002415   0.001374   0.003736   0.001190   0.001695
    21  H    0.005015   0.002819   0.002546   0.006488  -0.003783   0.000294
    22  O    0.002749  -0.001365  -0.002911   0.001815   0.000433   0.001115
    23  H   -0.001365   0.000939  -0.001263  -0.001908  -0.002396  -0.000879
    24  H   -0.002911  -0.001263  -0.000803   0.001184  -0.000417   0.001003
              13         14         15         16         17         18
     1  O   -0.029443   0.012813   0.004956  -0.000809   0.002822   0.002733
     2  H    0.003736   0.001695   0.001190  -0.001121   0.001989  -0.000169
     3  H    0.006488   0.000294  -0.003783   0.000211  -0.002867  -0.000351
     4  O   -0.000834  -0.000276   0.000747   0.002639  -0.007499   0.000392
     5  H   -0.000051   0.000024  -0.000103   0.000392   0.001666   0.000071
     6  H    0.000017   0.001128  -0.001498  -0.007499   0.006956   0.001666
     7  O    0.001815   0.001115   0.000433  -0.029443   0.003736   0.006488
     8  H   -0.001908  -0.000879  -0.002396   0.004956   0.001190  -0.003783
     9  H    0.001184   0.001003  -0.000417   0.012813   0.001695   0.000294
    10  O    0.002749  -0.002911  -0.001365  -0.000834   0.000017  -0.000051
    11  H   -0.001365  -0.001263   0.000939   0.000747  -0.001498  -0.000103
    12  H   -0.002911  -0.000803  -0.001263  -0.000276   0.001128   0.000024
    13  O    8.313920   0.219742   0.217090  -0.025230   0.001536   0.005015
    14  H    0.219742   0.361342  -0.021430  -0.014201   0.001374   0.002546
    15  H    0.217090  -0.021430   0.361512   0.022460  -0.002415   0.002819
    16  O   -0.025230  -0.014201   0.022460   8.397727   0.241207   0.206722
    17  H    0.001536   0.001374  -0.002415   0.241207   0.389751  -0.005770
    18  H    0.005015   0.002546   0.002819   0.206722  -0.005770   0.372359
    19  O   -0.037438   0.008554   0.003024  -0.000809  -0.001121   0.000211
    20  H    0.092308  -0.008485  -0.005232   0.002822   0.001989  -0.002867
    21  H    0.008728  -0.005155  -0.000857   0.002733  -0.000169  -0.000351
    22  O    0.001815   0.001184  -0.001908  -0.037438   0.092308   0.008728
    23  H    0.000433  -0.000417  -0.002396   0.003024  -0.005232  -0.000857
    24  H    0.001115   0.001003  -0.000879   0.008554  -0.008485  -0.005155
              19         20         21         22         23         24
     1  O    0.002639  -0.007499   0.000392  -0.025230   0.022460  -0.014201
     2  H   -0.007499   0.006956   0.001666   0.001536  -0.002415   0.001374
     3  H    0.000392   0.001666   0.000071   0.005015   0.002819   0.002546
     4  O   -0.000809  -0.001121   0.000211  -0.029443   0.004956   0.012813
     5  H    0.002733  -0.000169  -0.000351   0.006488  -0.003783   0.000294
     6  H    0.002822   0.001989  -0.002867   0.003736   0.001190   0.001695
     7  O   -0.025230   0.001536   0.005015   0.002749  -0.001365  -0.002911
     8  H    0.022460  -0.002415   0.002819  -0.001365   0.000939  -0.001263
     9  H   -0.014201   0.001374   0.002546  -0.002911  -0.001263  -0.000803
    10  O   -0.029443   0.003736   0.006488   0.001815  -0.001908   0.001184
    11  H    0.004956   0.001190  -0.003783   0.000433  -0.002396  -0.000417
    12  H    0.012813   0.001695   0.000294   0.001115  -0.000879   0.001003
    13  O   -0.037438   0.092308   0.008728   0.001815   0.000433   0.001115
    14  H    0.008554  -0.008485  -0.005155   0.001184  -0.000417   0.001003
    15  H    0.003024  -0.005232  -0.000857  -0.001908  -0.002396  -0.000879
    16  O   -0.000809   0.002822   0.002733  -0.037438   0.003024   0.008554
    17  H   -0.001121   0.001989  -0.000169   0.092308  -0.005232  -0.008485
    18  H    0.000211  -0.002867  -0.000351   0.008728  -0.000857  -0.005155
    19  O    8.397727   0.241207   0.206722  -0.000834   0.000747  -0.000276
    20  H    0.241207   0.389751  -0.005770   0.000017  -0.001498   0.001128
    21  H    0.206722  -0.005770   0.372359  -0.000051  -0.000103   0.000024
    22  O   -0.000834   0.000017  -0.000051   8.313920   0.217090   0.219742
    23  H    0.000747  -0.001498  -0.000103   0.217090   0.361512  -0.021430
    24  H   -0.000276   0.001128   0.000024   0.219742  -0.021430   0.361342
 Mulliken charges:
               1
     1  O   -0.789346
     2  H    0.285692
     3  H    0.409390
     4  O   -0.789346
     5  H    0.409390
     6  H    0.285692
     7  O   -0.778511
     8  H    0.430773
     9  H    0.442003
    10  O   -0.778511
    11  H    0.430773
    12  H    0.442003
    13  O   -0.778511
    14  H    0.442003
    15  H    0.430773
    16  O   -0.789346
    17  H    0.285692
    18  H    0.409390
    19  O   -0.789346
    20  H    0.285692
    21  H    0.409390
    22  O   -0.778511
    23  H    0.430773
    24  H    0.442003
 Sum of Mulliken charges =  -0.00000
 Mulliken charges with hydrogens summed into heavy atoms:
               1
     1  O   -0.094265
     4  O   -0.094265
     7  O    0.094265
    10  O    0.094265
    13  O    0.094265
    16  O   -0.094265
    19  O   -0.094265
    22  O    0.094265
 Electronic spatial extent (au):  <R**2>=           1842.8937
 Charge=             -0.0000 electrons
 Dipole moment (field-independent basis, Debye):
    X=             -0.0000    Y=              0.0000    Z=             -0.0000  Tot=              0.0000
 Quadrupole moment (field-independent basis, Debye-Ang):
   XX=            -50.5466   YY=            -50.5466   ZZ=            -48.5217
   XY=             -0.0000   XZ=             -0.0000   YZ=              0.0000
 Traceless Quadrupole moment (field-independent basis, Debye-Ang):
   XX=             -0.6750   YY=             -0.6750   ZZ=              1.3500
   XY=             -0.0000   XZ=             -0.0000   YZ=              0.0000
 Octapole moment (field-independent basis, Debye-Ang**2):
  XXX=             -0.0000  YYY=              0.0000  ZZZ=             -0.0000  XYY=              0.0000
  XXY=             -0.0000  XXZ=             46.8012  XZZ=             -0.0000  YZZ=             -0.0000
  YYZ=            -46.8012  XYZ=              6.0153
 Hexadecapole moment (field-independent basis, Debye-Ang**3):
 XXXX=           -622.0869 YYYY=           -622.0869 ZZZZ=           -665.2240 XXXY=             17.4501
 XXXZ=              0.0000 YYYX=            -17.4501 YYYZ=             -0.0000 ZZZX=              0.0000
 ZZZY=              0.0000 XXYY=           -222.0763 XXZZ=           -193.1498 YYZZ=           -193.1498
 XXYZ=             -0.0000 YYXZ=              0.0000 ZZXY=             -0.0000
 N-N= 5.049225004683D+02 E-N=-2.456553031375D+03  KE= 6.094694906317D+02
 PrsmSu:  requested number of processors reduced to:  18 ShMem   1 Linda.
 No NMR shielding tensors so no spin-rotation constants.
 Leave Link  601 at Sun Apr 18 01:40:08 2021, MaxMem=   104857600 cpu:            1078.3 elap:              23.4
 (Enter /s/ls4/users/knvvv/bin/g16sse/l9999.exe)

 Test job not archived.
 1\1\GINC-N152\Stability\RM062X\Gen\H16O8\KNVVV\18-Apr-2021\0\\#P M062X
 /GEN Integral=UltraFineGrid SCF=NoSymm Stable=(RExt, Opt) IOp(1/33=1)\
 \Database calculations.\\0,1\O,0,1.9905910834,-0.1084003153,-1.4652291
 062\H,0,1.3302927621,-0.8467867831,-1.5304518634\H,0,2.7035395023,-0.3
 103451765,-2.0762400096\O,0,-0.1084003153,-1.9905910834,1.4652291062\H
 ,0,-0.3103451765,-2.7035395023,2.0762400096\H,0,-0.8467867831,-1.33029
 27621,1.5304518634\O,0,-1.9387532156,-0.0255756289,1.401609229\H,0,-2.
 1724666454,0.0263607989,0.4583694701\H,0,-1.3988240191,0.7670441466,1.
 5644647419\O,0,0.0255756289,-1.9387532156,-1.401609229\H,0,-0.02636079
 89,-2.1724666454,-0.4583694701\H,0,-0.7670441466,-1.3988240191,-1.5644
 647419\O,0,-0.0255756289,1.9387532156,-1.401609229\H,0,0.7670441466,1.
 3988240191,-1.5644647419\H,0,0.0263607989,2.1724666454,-0.4583694701\O
 ,0,0.1084003153,1.9905910834,1.4652291062\H,0,0.8467867831,1.330292762
 1,1.5304518634\H,0,0.3103451765,2.7035395023,2.0762400096\O,0,-1.99059
 10834,0.1084003153,-1.4652291062\H,0,-1.3302927621,0.8467867831,-1.530
 4518634\H,0,-2.7035395023,0.3103451765,-2.0762400096\O,0,1.9387532156,
 0.0255756289,1.401609229\H,0,2.1724666454,-0.0263607989,0.4583694701\H
 ,0,1.3988240191,-0.7670441466,1.5644647419\\Version=ES64L-G16RevA.03\S
 tate=1-A\HF=-611.6135119\RMSD=4.322e-09\Dipole=0.,0.,0.\Quadrupole=-0.
 5018304,-0.5018304,1.0036608,0.,0.,0.\PG=S04 [X(H16O8)]\\@


 THERE IS AN OLD, OLD RECIPE IN MAINE FOR STEWING COOT. PLACE THE
 BIRD IN A KETTLE OF WATER WITH A RED BUILDING BRICK FREE OF MORTAR AND
 BLEMISHES. PARBOIL THE COOT AND BRICK TOGETHER FOR THREE HOURS.
 POUR OFF THE WATER, REFILL THE KETTLE, AND AGAIN PARBOIL FOR THREE HOURS.
 ONCE AGAIN POUR OFF THE WATER, FOR THE LAST TIME ADD FRESH WATER,
 AND LET THE COOT AND BRICK SIMMER TOGETHER OVERNIGHT. IN THE MORNING,
 THROW AWAY THE COOT AND EAT THE BRICK.
 Job cpu time:       4 days  0 hours 16 minutes 36.5 seconds.
 Elapsed time:       0 days  4 hours 39 minutes 11.3 seconds.
 File lengths (MBytes):  RWF=   1978 Int=      0 D2E=      0 Chk=    125 Scr=      1
 Normal termination of Gaussian 16 at Sun Apr 18 01:40:08 2021.
