 Entering Gaussian System, Link 0=/s/ls4/users/knvvv/bin/g16sse/g16
 Input=data/database/M062X--BE17--Z_003_BE17_Cl.gjf
 Output=data/database/M062X--BE17--Z_003_BE17_Cl.log
 Initial command:
 /s/ls4/users/knvvv/bin/g16sse/l1.exe "/s/ls4/users/knvvv/bin/scratch/Gau-44392.inp" -scrdir="/s/ls4/users/knvvv/bin/scratch/"
 Entering Link 1 = /s/ls4/users/knvvv/bin/g16sse/l1.exe PID=     44393.
  
 Copyright (c) 1988,1990,1992,1993,1995,1998,2003,2009,2016,
            Gaussian, Inc.  All Rights Reserved.
  
 This is part of the Gaussian(R) 16 program.  It is based on
 the Gaussian(R) 09 system (copyright 2009, Gaussian, Inc.),
 the Gaussian(R) 03 system (copyright 2003, Gaussian, Inc.),
 the Gaussian(R) 98 system (copyright 1998, Gaussian, Inc.),
 the Gaussian(R) 94 system (copyright 1995, Gaussian, Inc.),
 the Gaussian 92(TM) system (copyright 1992, Gaussian, Inc.),
 the Gaussian 90(TM) system (copyright 1990, Gaussian, Inc.),
 the Gaussian 88(TM) system (copyright 1988, Gaussian, Inc.),
 the Gaussian 86(TM) system (copyright 1986, Carnegie Mellon
 University), and the Gaussian 82(TM) system (copyright 1983,
 Carnegie Mellon University). Gaussian is a federally registered
 trademark of Gaussian, Inc.
  
 This software contains proprietary and confidential information,
 including trade secrets, belonging to Gaussian, Inc.
  
 This software is provided under written license and may be
 used, copied, transmitted, or stored only in accord with that
 written license.
  
 The following legend is applicable only to US Government
 contracts under FAR:
  
                    RESTRICTED RIGHTS LEGEND
  
 Use, reproduction and disclosure by the US Government is
 subject to restrictions as set forth in subparagraphs (a)
 and (c) of the Commercial Computer Software - Restricted
 Rights clause in FAR 52.227-19.
  
 Gaussian, Inc.
 340 Quinnipiac St., Bldg. 40, Wallingford CT 06492
  
  
 ---------------------------------------------------------------
 Warning -- This program may not be used in any manner that
 competes with the business of Gaussian, Inc. or will provide
 assistance to any competitor of Gaussian, Inc.  The licensee
 of this program is prohibited from giving any competitor of
 Gaussian, Inc. access to this program.  By using this program,
 the user acknowledges that Gaussian, Inc. is engaged in the
 business of creating and licensing software in the field of
 computational chemistry and represents and warrants to the
 licensee that it is not a competitor of Gaussian, Inc. and that
 it will not use this program in any manner prohibited above.
 ---------------------------------------------------------------
  

 Cite this work as:
 Gaussian 16, Revision A.03,
 M. J. Frisch, G. W. Trucks, H. B. Schlegel, G. E. Scuseria, 
 M. A. Robb, J. R. Cheeseman, G. Scalmani, V. Barone, 
 G. A. Petersson, H. Nakatsuji, X. Li, M. Caricato, A. V. Marenich, 
 J. Bloino, B. G. Janesko, R. Gomperts, B. Mennucci, H. P. Hratchian, 
 J. V. Ortiz, A. F. Izmaylov, J. L. Sonnenberg, D. Williams-Young, 
 F. Ding, F. Lipparini, F. Egidi, J. Goings, B. Peng, A. Petrone, 
 T. Henderson, D. Ranasinghe, V. G. Zakrzewski, J. Gao, N. Rega, 
 G. Zheng, W. Liang, M. Hada, M. Ehara, K. Toyota, R. Fukuda, 
 J. Hasegawa, M. Ishida, T. Nakajima, Y. Honda, O. Kitao, H. Nakai, 
 T. Vreven, K. Throssell, J. A. Montgomery, Jr., J. E. Peralta, 
 F. Ogliaro, M. J. Bearpark, J. J. Heyd, E. N. Brothers, K. N. Kudin, 
 V. N. Staroverov, T. A. Keith, R. Kobayashi, J. Normand, 
 K. Raghavachari, A. P. Rendell, J. C. Burant, S. S. Iyengar, 
 J. Tomasi, M. Cossi, J. M. Millam, M. Klene, C. Adamo, R. Cammi, 
 J. W. Ochterski, R. L. Martin, K. Morokuma, O. Farkas, 
 J. B. Foresman, and D. J. Fox, Gaussian, Inc., Wallingford CT, 2016.
 
 ******************************************
 Gaussian 16:  ES64L-G16RevA.03 25-Dec-2016
                16-Apr-2021 
 ******************************************
 %RWF=temp10_74515,70GB
 %nprocshared=48
 Will use up to   48 processors via shared memory.
 Default route: MaxDisk=80GB
 ----------------------------------------------------------------------
 #P M062X/GEN Integral=UltraFineGrid SCF=NoSymm Stable=(RExt, Opt) IOp(
 1/33=1)
 ----------------------------------------------------------------------
 1/33=1,38=1,172=1/1;
 2/12=2,17=6,18=5,40=1/2;
 3/5=7,11=2,25=1,30=1,74=-55,75=-5/1,2,3;
 4/9=2/1;
 5/5=2,38=5/2;
 6/7=2,8=2,9=2,10=2,28=1/1;
 8/6=1,10=90,11=11/1;
 9/8=-3,42=1,46=1/14;
 5/5=2,8=3,17=40,38=5/8(-2);
 6/7=2,8=2,9=2,10=2,28=1/1;
 99/5=1,9=1/99;
 Leave Link    1 at Fri Apr 16 22:49:57 2021, MaxMem=           0 cpu:               8.3 elap:               0.2
 (Enter /s/ls4/users/knvvv/bin/g16sse/l101.exe)
 ONIOM data not found on unit 2.
 ----------------------
 Database calculations.
 ----------------------
 TstMul:  ICh=     0
 TstMul:  Mul=     2
 TstMul:  ICh=     0
 TstMul:  Mul=     2
 Symbolic Z-matrix:
 Charge =  0 Multiplicity = 2
 Cl                    0.        0.        0. 
 
 RdStrC is calling ZToCFu for IStruc=1 NZ=     1.
 PrtBox:  NBox=     1 Levels=  0 BoxLen=    8.00 SMaxX=        0.00
          Shift=            0.000000            0.000000            0.000000
 Box      1 Number                   0 centers from      1 to      1:
 After GenITR:
 ITRead=  0
 MicOpt= -1
 ITRead=  0
 MicOpt= -1
 NAtoms=      1 NQM=        1 NQMF=       0 NMMI=      0 NMMIF=      0
                NMic=       0 NMicF=      0.
                    Isotopes and Nuclear Properties:
 (Nuclear quadrupole moments (NQMom) in fm**2, nuclear magnetic moments (NMagM)
  in nuclear magnetons)

  Atom         1
 IAtWgt=          35
 AtmWgt=  34.9688527
 NucSpn=           3
 AtZEff=  -0.0000000
 NQMom=   -8.1650000
 NMagM=    0.8218740
 AtZNuc=  17.0000000
 No MM parameters found.
 Leave Link  101 at Fri Apr 16 22:49:57 2021, MaxMem=   104857600 cpu:               8.1 elap:               0.2
 (Enter /s/ls4/users/knvvv/bin/g16sse/l202.exe)
                          Input orientation:                          
 ---------------------------------------------------------------------
 Center     Atomic      Atomic             Coordinates (Angstroms)
 Number     Number       Type             X           Y           Z
 ---------------------------------------------------------------------
      1         17           0        0.000000    0.000000    0.000000
 ---------------------------------------------------------------------
 Stoichiometry    Cl(2)
 Framework group  OH[O(Cl)]
 Deg. of freedom     0
 Full point group                 OH      NOp  48
 Largest Abelian subgroup         D2H     NOp   8
 Largest concise Abelian subgroup C1      NOp   1
                         Standard orientation:                         
 ---------------------------------------------------------------------
 Center     Atomic      Atomic             Coordinates (Angstroms)
 Number     Number       Type             X           Y           Z
 ---------------------------------------------------------------------
      1         17           0        0.000000    0.000000    0.000000
 ---------------------------------------------------------------------
 Leave Link  202 at Fri Apr 16 22:49:57 2021, MaxMem=   104857600 cpu:              33.3 elap:               0.7
 (Enter /s/ls4/users/knvvv/bin/g16sse/l301.exe)
 General basis read from cards:  (5D, 7F)
 Centers:       1
 S 7 1.00
     Exponent=  6.9507990945D+04 Coefficients=  5.4314897497D-04
     Exponent=  1.0426156880D+04 Coefficients=  4.1990463961D-03
     Exponent=  2.3732334061D+03 Coefficients=  2.1592141679D-02
     Exponent=  6.7156420071D+02 Coefficients=  8.4598850094D-02
     Exponent=  2.1841999790D+02 Coefficients=  2.4757249724D-01
     Exponent=  7.7572249714D+01 Coefficients=  4.7016930228D-01
     Exponent=  2.8888815277D+01 Coefficients=  3.7436370716D-01
 S 3 1.00
     Exponent=  1.2710527185D+02 Coefficients=  2.5182166603D-02
     Exponent=  3.9339582961D+01 Coefficients=  1.0786112456D-01
     Exponent=  7.6740679989D+00 Coefficients= -2.7408821574D-01
 S 2 1.00
     Exponent=  3.8745627630D+00 Coefficients=  1.3213875014D+00
     Exponent=  1.8385832573D+00 Coefficients=  6.8636955368D-01
 S 1 1.00
     Exponent=  5.0229057542D-01 Coefficients=  1.0000000000D+00
 S 1 1.00
     Exponent=  1.7962723420D-01 Coefficients=  1.0000000000D+00
 S 1 1.00
     Exponent=  5.9875744733D-02 Coefficients=  1.0000000000D+00
 P 5 1.00
     Exponent=  6.6650423284D+02 Coefficients=  2.3632663836D-03
     Exponent=  1.5764241690D+02 Coefficients=  1.8879300374D-02
     Exponent=  5.0262520978D+01 Coefficients=  8.7206341273D-02
     Exponent=  1.8536078105D+01 Coefficients=  2.5285612970D-01
     Exponent=  7.2940532777D+00 Coefficients=  4.3507154820D-01
 P 1 1.00
     Exponent=  2.9433248995D+00 Coefficients=  1.0000000000D+00
 P 1 1.00
     Exponent=  1.0404970818D+00 Coefficients=  1.0000000000D+00
 P 1 1.00
     Exponent=  3.8456415080D-01 Coefficients=  1.0000000000D+00
 P 1 1.00
     Exponent=  1.3069642732D-01 Coefficients=  1.0000000000D+00
 P 1 1.00
     Exponent=  4.3565475773D-02 Coefficients=  1.0000000000D+00
 D 2 1.00
     Exponent=  4.6100000000D+00 Coefficients=  2.0000000000D-01
     Exponent=  1.0110000000D+00 Coefficients=  1.0000000000D+00
 D 1 1.00
     Exponent=  3.3900000000D-01 Coefficients=  1.0000000000D+00
 F 1 1.00
     Exponent=  7.0600000000D-01 Coefficients=  1.0000000000D+00
 ****
 Ernie: Thresh=  0.10000D-02 Tol=  0.10000D-05 Strict=F.
 There are    12 symmetry adapted cartesian basis functions of AG  symmetry.
 There are     2 symmetry adapted cartesian basis functions of B1G symmetry.
 There are     2 symmetry adapted cartesian basis functions of B2G symmetry.
 There are     2 symmetry adapted cartesian basis functions of B3G symmetry.
 There are     1 symmetry adapted cartesian basis functions of AU  symmetry.
 There are     9 symmetry adapted cartesian basis functions of B1U symmetry.
 There are     9 symmetry adapted cartesian basis functions of B2U symmetry.
 There are     9 symmetry adapted cartesian basis functions of B3U symmetry.
 There are    10 symmetry adapted basis functions of AG  symmetry.
 There are     2 symmetry adapted basis functions of B1G symmetry.
 There are     2 symmetry adapted basis functions of B2G symmetry.
 There are     2 symmetry adapted basis functions of B3G symmetry.
 There are     1 symmetry adapted basis functions of AU  symmetry.
 There are     8 symmetry adapted basis functions of B1U symmetry.
 There are     8 symmetry adapted basis functions of B2U symmetry.
 There are     8 symmetry adapted basis functions of B3U symmetry.
    41 basis functions,    73 primitive gaussians,    46 cartesian basis functions
     9 alpha electrons        8 beta electrons
       nuclear repulsion energy         0.0000000000 Hartrees.
 IExCor= 4336 DFT=T Ex+Corr=M062X ExCW=0 ScaHFX=  0.540000
 ScaDFX=  1.000000  1.000000  1.000000  1.000000 ScalE2=  1.000000  1.000000
 IRadAn=      5 IRanWt=     -1 IRanGd=            0 ICorTp=0 IEmpDi=  4
 NAtoms=    1 NActive=    1 NUniq=    1 SFac= 1.00D+00 NAtFMM=   60 NAOKFM=F Big=F
 Integral buffers will be    131072 words long.
 Raffenetti 2 integral format.
 Two-electron integral symmetry is turned on.
 Leave Link  301 at Fri Apr 16 22:49:58 2021, MaxMem=   104857600 cpu:               6.0 elap:               0.1
 (Enter /s/ls4/users/knvvv/bin/g16sse/l302.exe)
 NPDir=0 NMtPBC=     1 NCelOv=     1 NCel=       1 NClECP=     1 NCelD=      1
         NCelK=      1 NCelE2=     1 NClLst=     1 CellRange=     0.0.
 One-electron integrals computed using PRISM.
 One-electron integral symmetry used in STVInt
 PrsmSu:  requested number of processors reduced to:  13 ShMem   1 Linda.
 NBasis=    41 RedAO= T EigKep=  3.19D-02  NBF=    10     2     2     2     1     8     8     8
 NBsUse=    41 1.00D-06 EigRej= -1.00D+00 NBFU=    10     2     2     2     1     8     8     8
 Precomputing XC quadrature grid using
 IXCGrd= 4 IRadAn=           5 IRanWt=          -1 IRanGd=           0 AccXCQ= 0.00D+00.
 Generated NRdTot=       0 NPtTot=           0 NUsed=           0 NTot=          32
 NSgBfM=    46    46    46    46    46 MxSgAt=     1 MxSgA2=     1.
 Leave Link  302 at Fri Apr 16 22:50:02 2021, MaxMem=   104857600 cpu:             210.0 elap:               4.5
 (Enter /s/ls4/users/knvvv/bin/g16sse/l303.exe)
 DipDrv:  MaxL=1.
 Leave Link  303 at Fri Apr 16 22:50:02 2021, MaxMem=   104857600 cpu:              12.1 elap:               0.3
 (Enter /s/ls4/users/knvvv/bin/g16sse/l401.exe)
 SCF N**3 symmetry information disabled.
 ExpMin= 4.36D-02 ExpMax= 6.95D+04 ExpMxC= 2.37D+03 IAcc=3 IRadAn=         5 AccDes= 0.00D+00
 Harris functional with IExCor= 1009 and IRadAn=       5 diagonalized for initial guess.
 HarFok:  IExCor= 1009 AccDes= 0.00D+00 IRadAn=         5 IDoV= 1 UseB2=F ITyADJ=14
 ICtDFT=  3500011 ScaDFX=  1.000000  1.000000  1.000000  1.000000
 FoFCou: FMM=F IPFlag=           0 FMFlag=      100000 FMFlg1=           0
         NFxFlg=           0 DoJE=T BraDBF=F KetDBF=T FulRan=T
         wScrn=  0.000000 ICntrl=       500 IOpCl=  0 I1Cent=   200000004 NGrid=           0
         NMat0=    1 NMatS0=      1 NMatT0=    0 NMatD0=    1 NMtDS0=    0 NMtDT0=    0
 Petite list used in FoFCou.
 Harris En= -459.877438333971    
 JPrj=0 DoOrth=F DoCkMO=F.
 Initial guess orbital symmetries:
 Alpha Orbitals:
       Occupied  (A1G) (A1G) (T1U) (T1U) (T1U) (A1G) (T1U) (T1U)
                 (T1U)
       Virtual   (A1G) (T1U) (T1U) (T1U) (T2G) (T2G) (T2G) (EG)
                 (EG) (T1U) (T1U) (T1U) (A1G) (T2G) (T2G) (T2G)
                 (EG) (EG) (T2U) (T2U) (T2U) (A2U) (T1U) (T1U)
                 (T1U) (T1U) (T1U) (T1U) (T1U) (T1U) (T1U) (A1G)
 Beta  Orbitals:
       Occupied  (A1G) (A1G) (T1U) (T1U) (T1U) (A1G) (T1U) (T1U)
       Virtual   (T1U) (A1G) (T1U) (T1U) (T1U) (T2G) (T2G) (T2G)
                 (EG) (EG) (T1U) (T1U) (T1U) (A1G) (T2G) (T2G)
                 (T2G) (EG) (EG) (T2U) (T2U) (T2U) (A2U) (T1U)
                 (T1U) (T1U) (T1U) (T1U) (T1U) (T1U) (T1U) (T1U)
                 (A1G)
 Initial guess <Sx>= 0.0000 <Sy>= 0.0000 <Sz>= 0.5000 <S**2>= 0.7500 S= 0.5000
 Leave Link  401 at Fri Apr 16 22:50:06 2021, MaxMem=   104857600 cpu:             184.4 elap:               3.9
 (Enter /s/ls4/users/knvvv/bin/g16sse/l502.exe)
 Keep R1 and R2 ints in memory in symmetry-blocked form, NReq=42040399.
 FoFCou: FMM=F IPFlag=           0 FMFlag=           0 FMFlg1=           0
         NFxFlg=           0 DoJE=F BraDBF=F KetDBF=F FulRan=T
         wScrn=  0.000000 ICntrl=       600 IOpCl=  0 I1Cent=           0 NGrid=           0
         NMat0=    1 NMatS0=    861 NMatT0=    0 NMatD0=    1 NMtDS0=    0 NMtDT0=    0
 Petite list used in FoFCou.
 UHF open shell SCF:
 Using DIIS extrapolation, IDIIS=  1040.
 NGot=   104857600 LenX=   104742582 LenY=   104740025
 Requested convergence on RMS density matrix=1.00D-08 within 128 cycles.
 Requested convergence on MAX density matrix=1.00D-06.
 Requested convergence on             energy=1.00D-06.
 No special actions if energy rises.

 Cycle   1  Pass 1  IDiag  1:
 Density matrix breaks symmetry, PCut= 1.00D-04
 Density matrix has no symmetry -- integrals replicated.
 E= -460.116170993462    
 DIIS: error= 3.66D-02 at cycle   1 NSaved=   1.
 NSaved= 1 IEnMin= 1 EnMin= -460.116170993462     IErMin= 1 ErrMin= 3.66D-02
 ErrMax= 3.66D-02  0.00D+00 EMaxC= 1.00D-01 BMatC= 2.42D-01 BMatP= 2.42D-01
 IDIUse=3 WtCom= 6.34D-01 WtEn= 3.66D-01
 Coeff-Com:  0.100D+01
 Coeff-En:   0.100D+01
 Coeff:      0.100D+01
 Gap=     0.574 Goal=   None    Shift=    0.000
 Gap=     0.209 Goal=   None    Shift=    0.000
 GapD=    0.209 DampG=1.000 DampE=0.500 DampFc=0.5000 IDamp=-1.
 Damping current iteration by 5.00D-01
 RMSDP=3.71D-03 MaxDP=7.32D-02              OVMax= 6.68D-02

 Cycle   2  Pass 1  IDiag  1:
 Density matrix breaks symmetry, PCut= 1.00D-04
 Density matrix has no symmetry -- integrals replicated.
 E= -460.124999114650     Delta-E=       -0.008828121187 Rises=F Damp=T
 DIIS: error= 1.61D-02 at cycle   2 NSaved=   2.
 NSaved= 2 IEnMin= 2 EnMin= -460.124999114650     IErMin= 2 ErrMin= 1.61D-02
 ErrMax= 1.61D-02  0.00D+00 EMaxC= 1.00D-01 BMatC= 3.83D-02 BMatP= 2.42D-01
 IDIUse=3 WtCom= 8.39D-01 WtEn= 1.61D-01
 Coeff-Com: -0.553D+00 0.155D+01
 Coeff-En:   0.000D+00 0.100D+01
 Coeff:     -0.464D+00 0.146D+01
 Gap=     0.489 Goal=   None    Shift=    0.000
 Gap=     0.212 Goal=   None    Shift=    0.000
 RMSDP=9.03D-04 MaxDP=1.34D-02 DE=-8.83D-03 OVMax= 1.83D-02

 Cycle   3  Pass 1  IDiag  1:
 Density matrix breaks symmetry, PCut= 1.00D-04
 Density matrix has no symmetry -- integrals replicated.
 E= -460.133009944021     Delta-E=       -0.008010829372 Rises=F Damp=F
 DIIS: error= 1.86D-03 at cycle   3 NSaved=   3.
 NSaved= 3 IEnMin= 3 EnMin= -460.133009944021     IErMin= 3 ErrMin= 1.86D-03
 ErrMax= 1.86D-03  0.00D+00 EMaxC= 1.00D-01 BMatC= 2.62D-04 BMatP= 3.83D-02
 IDIUse=3 WtCom= 9.81D-01 WtEn= 1.86D-02
 Coeff-Com: -0.664D-01 0.124D+00 0.943D+00
 Coeff-En:   0.000D+00 0.000D+00 0.100D+01
 Coeff:     -0.652D-01 0.122D+00 0.944D+00
 Gap=     0.493 Goal=   None    Shift=    0.000
 Gap=     0.214 Goal=   None    Shift=    0.000
 RMSDP=1.95D-04 MaxDP=3.97D-03 DE=-8.01D-03 OVMax= 5.00D-03

 Cycle   4  Pass 1  IDiag  1:
 Density matrix breaks symmetry, PCut= 1.00D-04
 Density matrix has no symmetry -- integrals replicated.
 E= -460.133075581330     Delta-E=       -0.000065637308 Rises=F Damp=F
 DIIS: error= 3.32D-04 at cycle   4 NSaved=   4.
 NSaved= 4 IEnMin= 4 EnMin= -460.133075581330     IErMin= 4 ErrMin= 3.32D-04
 ErrMax= 3.32D-04  0.00D+00 EMaxC= 1.00D-01 BMatC= 1.20D-05 BMatP= 2.62D-04
 IDIUse=3 WtCom= 9.97D-01 WtEn= 3.32D-03
 Coeff-Com:  0.221D-01-0.490D-01-0.566D-01 0.108D+01
 Coeff-En:   0.000D+00 0.000D+00 0.000D+00 0.100D+01
 Coeff:      0.221D-01-0.489D-01-0.564D-01 0.108D+01
 Gap=     0.492 Goal=   None    Shift=    0.000
 Gap=     0.215 Goal=   None    Shift=    0.000
 RMSDP=6.50D-05 MaxDP=1.89D-03 DE=-6.56D-05 OVMax= 1.00D-03

 Cycle   5  Pass 1  IDiag  1:
 Density matrix breaks symmetry, PCut= 1.00D-04
 Density matrix has no symmetry -- integrals replicated.
 E= -460.133079422171     Delta-E=       -0.000003840841 Rises=F Damp=F
 DIIS: error= 8.54D-05 at cycle   5 NSaved=   5.
 NSaved= 5 IEnMin= 5 EnMin= -460.133079422171     IErMin= 5 ErrMin= 8.54D-05
 ErrMax= 8.54D-05  0.00D+00 EMaxC= 1.00D-01 BMatC= 5.51D-07 BMatP= 1.20D-05
 IDIUse=1 WtCom= 1.00D+00 WtEn= 0.00D+00
 Coeff-Com:  0.128D-02-0.171D-02-0.573D-01 0.283D-01 0.103D+01
 Coeff:      0.128D-02-0.171D-02-0.573D-01 0.283D-01 0.103D+01
 Gap=     0.492 Goal=   None    Shift=    0.000
 Gap=     0.215 Goal=   None    Shift=    0.000
 RMSDP=1.12D-05 MaxDP=2.70D-04 DE=-3.84D-06 OVMax= 3.06D-04

 Cycle   6  Pass 1  IDiag  1:
 Density matrix breaks symmetry, PCut= 1.00D-04
 Density matrix has no symmetry -- integrals replicated.
 E= -460.133079595957     Delta-E=       -0.000000173786 Rises=F Damp=F
 DIIS: error= 3.30D-06 at cycle   6 NSaved=   6.
 NSaved= 6 IEnMin= 6 EnMin= -460.133079595957     IErMin= 6 ErrMin= 3.30D-06
 ErrMax= 3.30D-06  0.00D+00 EMaxC= 1.00D-01 BMatC= 9.65D-10 BMatP= 5.51D-07
 IDIUse=1 WtCom= 1.00D+00 WtEn= 0.00D+00
 Coeff-Com: -0.181D-03 0.305D-03 0.556D-02-0.616D-02-0.112D+00 0.111D+01
 Coeff:     -0.181D-03 0.305D-03 0.556D-02-0.616D-02-0.112D+00 0.111D+01
 Gap=     0.492 Goal=   None    Shift=    0.000
 Gap=     0.215 Goal=   None    Shift=    0.000
 RMSDP=8.09D-07 MaxDP=2.34D-05 DE=-1.74D-07 OVMax= 1.44D-05

 Cycle   7  Pass 1  IDiag  1:
 Density matrix breaks symmetry, PCut= 1.00D-04
 Density matrix has no symmetry -- integrals replicated.
 E= -460.133079596481     Delta-E=       -0.000000000524 Rises=F Damp=F
 DIIS: error= 4.89D-07 at cycle   7 NSaved=   7.
 NSaved= 7 IEnMin= 7 EnMin= -460.133079596481     IErMin= 7 ErrMin= 4.89D-07
 ErrMax= 4.89D-07  0.00D+00 EMaxC= 1.00D-01 BMatC= 2.60D-11 BMatP= 9.65D-10
 IDIUse=1 WtCom= 1.00D+00 WtEn= 0.00D+00
 Coeff-Com:  0.158D-04-0.311D-04-0.336D-03 0.934D-03 0.777D-02-0.217D+00
 Coeff-Com:  0.121D+01
 Coeff:      0.158D-04-0.311D-04-0.336D-03 0.934D-03 0.777D-02-0.217D+00
 Coeff:      0.121D+01
 Gap=     0.492 Goal=   None    Shift=    0.000
 Gap=     0.215 Goal=   None    Shift=    0.000
 RMSDP=1.24D-07 MaxDP=3.34D-06 DE=-5.24D-10 OVMax= 2.16D-06

 Cycle   8  Pass 1  IDiag  1:
 Density matrix breaks symmetry, PCut= 1.00D-04
 Density matrix has no symmetry -- integrals replicated.
 E= -460.133079596495     Delta-E=       -0.000000000014 Rises=F Damp=F
 DIIS: error= 4.96D-08 at cycle   8 NSaved=   8.
 NSaved= 8 IEnMin= 8 EnMin= -460.133079596495     IErMin= 8 ErrMin= 4.96D-08
 ErrMax= 4.96D-08  0.00D+00 EMaxC= 1.00D-01 BMatC= 3.49D-13 BMatP= 2.60D-11
 IDIUse=1 WtCom= 1.00D+00 WtEn= 0.00D+00
 Coeff-Com:  0.159D-06 0.466D-06-0.339D-04-0.844D-04 0.869D-03 0.978D-02
 Coeff-Com: -0.156D+00 0.115D+01
 Coeff:      0.159D-06 0.466D-06-0.339D-04-0.844D-04 0.869D-03 0.978D-02
 Coeff:     -0.156D+00 0.115D+01
 Gap=     0.492 Goal=   None    Shift=    0.000
 Gap=     0.215 Goal=   None    Shift=    0.000
 RMSDP=1.40D-08 MaxDP=3.31D-07 DE=-1.44D-11 OVMax= 2.22D-07

 Cycle   9  Pass 1  IDiag  1:
 Density matrix breaks symmetry, PCut= 1.00D-04
 Density matrix has no symmetry -- integrals replicated.
 E= -460.133079596495     Delta-E=       -0.000000000000 Rises=F Damp=F
 DIIS: error= 6.25D-09 at cycle   9 NSaved=   9.
 NSaved= 9 IEnMin= 9 EnMin= -460.133079596495     IErMin= 9 ErrMin= 6.25D-09
 ErrMax= 6.25D-09  0.00D+00 EMaxC= 1.00D-01 BMatC= 4.78D-15 BMatP= 3.49D-13
 IDIUse=1 WtCom= 1.00D+00 WtEn= 0.00D+00
 Coeff-Com: -0.241D-06 0.306D-06 0.130D-04-0.274D-05-0.288D-03 0.169D-02
 Coeff-Com:  0.742D-02-0.185D+00 0.118D+01
 Coeff:     -0.241D-06 0.306D-06 0.130D-04-0.274D-05-0.288D-03 0.169D-02
 Coeff:      0.742D-02-0.185D+00 0.118D+01
 Gap=     0.492 Goal=   None    Shift=    0.000
 Gap=     0.215 Goal=   None    Shift=    0.000
 RMSDP=1.89D-09 MaxDP=3.30D-08 DE=-1.14D-13 OVMax= 6.30D-08

 Density matrix breaks symmetry, PCut= 1.00D-04
 Density matrix has no symmetry -- integrals replicated.
 SCF Done:  E(UM062X) =  -460.133079596     A.U. after    9 cycles
            NFock=  9  Conv=0.19D-08     -V/T= 2.0009
 <Sx>= 0.0000 <Sy>= 0.0000 <Sz>= 0.5000 <S**2>= 0.7529 S= 0.5015
 <L.S>= 0.000000000000E+00
 KE= 4.597389820519D+02 PE=-1.094798175104D+03 EE= 1.749261134552D+02
 Annihilation of the first spin contaminant:
 S**2 before annihilation     0.7529,   after     0.7500
 Leave Link  502 at Fri Apr 16 22:50:37 2021, MaxMem=   104857600 cpu:            1456.5 elap:              31.0
 (Enter /s/ls4/users/knvvv/bin/g16sse/l601.exe)
 Copying SCF densities to generalized density rwf, IOpCl= 1 IROHF=0.
 SCF density gives NOpUse=  1 NOpAll= 48.
 Marking SCF density as not fully symmetric.

 **********************************************************************

            Population analysis using the SCF density.

 **********************************************************************

 Orbital symmetries:
 Alpha Orbitals:
       Occupied  (A1G) (A1G) (T1U) (T1U) (T1U) (?A) (?B) (?B) (?B)
       Virtual   (?B) (?B) (?B) (?A) (?A) (?A) (?A) (?A) (?A) (?B)
                 (?B) (?B) (?A) (?A) (?A) (?A) (?A) (?A) (?B) (?B)
                 (?B) (?B) (?B) (?B) (?B) (?B) (?B) (?B) (T1U)
                 (T1U) (T1U) (A1G)
 Beta  Orbitals:
       Occupied  (A1G) (A1G) (T1U) (T1U) (T1U) (?A) (?B) (?B)
       Virtual   (?B) (?A) (?B) (?B) (?B) (?A) (?A) (?A) (?A) (?B)
                 (?A) (?B) (?B) (?A) (?A) (?A) (?A) (?A) (?A) (?B)
                 (?B) (?B) (?B) (?B) (?B) (?B) (?B) (?B) (?B) (T1U)
                 (T1U) (T1U) (A1G)
 Unable to determine electronic state:  an orbital has unidentified symmetry.
 Alpha  occ. eigenvalues -- -102.69678  -9.85252  -7.58923  -7.56801  -7.56801
 Alpha  occ. eigenvalues --   -0.94464  -0.47061  -0.42324  -0.42324
 Alpha virt. eigenvalues --    0.06890   0.07329   0.07329   0.07892   0.42264
 Alpha virt. eigenvalues --    0.43396   0.43396   0.46399   0.46399   0.49956
 Alpha virt. eigenvalues --    0.51393   0.51393   0.81101   1.71426   1.72524
 Alpha virt. eigenvalues --    1.72524   1.76006   1.76006   2.04715   2.05426
 Alpha virt. eigenvalues --    2.05426   2.07096   2.07096   2.09927   2.09927
 Alpha virt. eigenvalues --    2.24257   2.28401   2.28401  10.75387  10.79826
 Alpha virt. eigenvalues --   10.79826  24.39259
  Beta  occ. eigenvalues -- -102.68529  -9.84952  -7.56443  -7.56443  -7.55960
  Beta  occ. eigenvalues --   -0.87813  -0.40244  -0.40244
  Beta virt. eigenvalues --   -0.18785   0.06284   0.06930   0.07090   0.07090
  Beta virt. eigenvalues --    0.47323   0.47323   0.47440   0.47440   0.48487
  Beta virt. eigenvalues --    0.48747   0.51034   0.51034   0.83034   1.74928
  Beta virt. eigenvalues --    1.76686   1.76686   1.76804   1.76804   2.09291
  Beta virt. eigenvalues --    2.09291   2.09737   2.09737   2.10660   2.10660
  Beta virt. eigenvalues --    2.11871   2.30209   2.30209   2.32908  10.81327
  Beta virt. eigenvalues --   10.81327  10.82872  24.39487
          Condensed to atoms (all electrons):
               1
     1  Cl  17.000000
          Atomic-Atomic Spin Densities.
               1
     1  Cl   1.000000
 Mulliken charges and spin densities:
               1          2
     1  Cl  -0.000000   1.000000
 Sum of Mulliken charges =  -0.00000   1.00000
 Mulliken charges and spin densities with hydrogens summed into heavy atoms:
               1          2
     1  Cl  -0.000000   1.000000
 Electronic spatial extent (au):  <R**2>=             27.6895
 Charge=             -0.0000 electrons
 Dipole moment (field-independent basis, Debye):
    X=             -0.0000    Y=              0.0000    Z=              0.0000  Tot=              0.0000
 Quadrupole moment (field-independent basis, Debye-Ang):
   XX=            -13.1377   YY=            -13.0691   ZZ=            -11.0364
   XY=              0.0000   XZ=              0.0000   YZ=             -0.3796
 Traceless Quadrupole moment (field-independent basis, Debye-Ang):
   XX=             -0.7233   YY=             -0.6547   ZZ=              1.3780
   XY=              0.0000   XZ=              0.0000   YZ=             -0.3796
 Octapole moment (field-independent basis, Debye-Ang**2):
  XXX=             -0.0000  YYY=             -0.0000  ZZZ=             -0.0000  XYY=             -0.0000
  XXY=              0.0000  XXZ=             -0.0000  XZZ=              0.0000  YZZ=             -0.0000
  YYZ=             -0.0000  XYZ=              0.0000
 Hexadecapole moment (field-independent basis, Debye-Ang**3):
 XXXX=            -15.6901 YYYY=            -15.5429 ZZZZ=            -11.1680 XXXY=              0.0000
 XXXZ=              0.0000 YYYX=              0.0000 YYYZ=             -0.4075 ZZZX=              0.0000
 ZZZY=             -0.4095 XXYY=             -5.2055 XXZZ=             -4.4783 YYZZ=             -4.4534
 XXYZ=             -0.1358 YYXZ=              0.0000 ZZXY=              0.0000
 N-N= 0.000000000000D+00 E-N=-1.094798175011D+03  KE= 4.597389820519D+02
                          Isotropic Fermi Contact Couplings
        Atom                 a.u.       MegaHertz       Gauss      10(-4) cm-1
     1  Cl(35)             0.17002      74.54609      26.59990      24.86590
 --------------------------------------------------------
       Center         ----  Spin Dipole Couplings  ----
                      3XX-RR        3YY-RR        3ZZ-RR
 --------------------------------------------------------
     1   Atom       -3.127383     -2.830911      5.958294
 --------------------------------------------------------
                        XY            XZ            YZ
 --------------------------------------------------------
     1   Atom        0.000000      0.000000     -1.641237
 --------------------------------------------------------


 ---------------------------------------------------------------------------------
              Anisotropic Spin Dipole Couplings in Principal Axis System
 ---------------------------------------------------------------------------------

       Atom             a.u.   MegaHertz   Gauss  10(-4) cm-1        Axes

              Baa    -3.1274  -163.680   -58.405   -54.598 -0.0000  0.9841  0.1778
     1 Cl(35) Bbb    -3.1274  -163.680   -58.405   -54.598  1.0000  0.0000  0.0000
              Bcc     6.2548   327.360   116.810   109.195  0.0000 -0.1778  0.9841
 

 ---------------------------------------------------------------------------------

 No NMR shielding tensors so no spin-rotation constants.
 Leave Link  601 at Fri Apr 16 22:50:41 2021, MaxMem=   104857600 cpu:             177.1 elap:               3.8
 (Enter /s/ls4/users/knvvv/bin/g16sse/l801.exe)
 DoSCS=F DFT=T ScalE2(SS,OS)=  1.000000  1.000000
 Range of M.O.s used for correlation:     1    41
 NBasis=    41 NAE=     9 NBE=     8 NFC=     0 NFV=     0
 NROrb=     41 NOA=     9 NOB=     8 NVA=    32 NVB=    33
 Leave Link  801 at Fri Apr 16 22:50:41 2021, MaxMem=   104857600 cpu:               4.6 elap:               0.1
 (Enter /s/ls4/users/knvvv/bin/g16sse/l914.exe)
 UHF ground state
 Doing stability rather than CIS.
 Keep R1 and R2 ints in memory in symmetry-blocked form, NReq=56356211.
 FoFCou: FMM=F IPFlag=           0 FMFlag=           0 FMFlg1=           0
         NFxFlg=           0 DoJE=F BraDBF=F KetDBF=F FulRan=T
         wScrn=  0.000000 ICntrl=       600 IOpCl=  0 I1Cent=           0 NGrid=           0
         NMat0=    1 NMatS0=    861 NMatT0=    0 NMatD0=    1 NMtDS0=    0 NMtDT0=    0
 Petite list used in FoFCou.
 MDV=   104857600 DFT=T DoStab=T Mixed=T DoRPA=F DoScal=F NonHer=F
 Making orbital integer symmetry assigments:
 Orbital symmetries:
 Alpha Orbitals:
       Occupied  (A1G) (A1G) (T1U) (T1U) (T1U) (?A) (?B) (?B) (?B)
       Virtual   (?B) (?B) (?B) (?A) (?A) (?A) (?A) (?A) (?A) (?B)
                 (?B) (?B) (?A) (?A) (?A) (?A) (?A) (?A) (?B) (?B)
                 (?B) (?B) (?B) (?B) (?B) (?B) (?B) (?B) (T1U)
                 (T1U) (T1U) (A1G)
 Beta  Orbitals:
       Occupied  (A1G) (A1G) (T1U) (T1U) (T1U) (?A) (?B) (?B)
       Virtual   (?B) (?A) (?B) (?B) (?B) (?A) (?A) (?A) (?A) (?B)
                 (?A) (?B) (?B) (?A) (?A) (?A) (?A) (?A) (?A) (?B)
                 (?B) (?B) (?B) (?B) (?B) (?B) (?B) (?B) (?B) (T1U)
                 (T1U) (T1U) (A1G)
    24 initial guesses have been made.
 Convergence on wavefunction:    0.001000000000000
 Davidson Disk Diagonalization:  ConvIn= 1.00D-03 SkipCon=T Conv= 1.00D-03.
 Max sub-space:  1104 roots to seek:    24 dimension of matrix:          552
 Iteration     1 Dimension    24 NMult     0 NNew     24
 CISAX will form    24 AO SS matrices at one time.
 NMat=    24 NSing=    24 JSym2X= 2.
 Excitation Energies [eV] at current iteration:
 Root      1 :     0.319099034543675
 Root      2 :     0.319118345319374
 Root      3 :     9.653967888372996
 Root      4 :     9.654483814269321
 Root      5 :    10.259086907830730
 Root      6 :    10.259655378384220
 Root      7 :    10.277834919120100
 Root      8 :    10.277919332115660
 Root      9 :    10.301610488191720
 Root     10 :    10.367799638297690
 Root     11 :    10.367806593163200
 Root     12 :    10.813131651740310
 Root     13 :    10.813131804649910
 Root     14 :    10.917230760793610
 Root     15 :    10.917230769746770
 Root     16 :    10.932744900316470
 Root     17 :    10.952631092192200
 Root     18 :    11.355761878969820
 Root     19 :    11.642275928492360
 Root     20 :    12.199677424387540
 Root     21 :    12.199677540660630
 Root     22 :    13.236221729176230
 Root     23 :    14.814163234596470
 Root     24 :    17.868609554167770
 Iteration     2 Dimension    48 NMult    24 NNew     24
 CISAX will form    24 AO SS matrices at one time.
 NMat=    24 NSing=    24 JSym2X= 2.
 Root      1 not converged, maximum delta is    0.069906148200727
 Excitation Energies [eV] at current iteration:
 Root      1 :     0.003869992173571   Change is   -0.315229042370104
 Root      2 :     0.003884669724876   Change is   -0.315233675594499
 Root      3 :     9.518402259327100   Change is   -0.135565629045896
 Root      4 :     9.520159200841217   Change is   -0.134324613428104
 Root      5 :    10.173159233253450   Change is   -0.104675685866651
 Root      6 :    10.174098129778140   Change is   -0.103821202337516
 Root      7 :    10.204146795798190   Change is   -0.054940112032533
 Root      8 :    10.204688154087950   Change is   -0.054967224296266
 Root      9 :    10.236750408528710   Change is   -0.131049229768979
 Root     10 :    10.236757401304810   Change is   -0.131049191858391
 Root     11 :    10.268127765266220   Change is   -0.033482722925502
 Root     12 :    10.712734606374390   Change is   -0.100397045365921
 Root     13 :    10.712734665750930   Change is   -0.100397138898986
 Root     14 :    10.716261455491620   Change is   -0.236369636700581
 Root     15 :    10.760616783511970   Change is   -0.156613977281646
 Root     16 :    10.760616791925180   Change is   -0.156613977821596
 Root     17 :    10.899457413680700   Change is   -0.033287486635771
 Root     18 :    10.930935193807370   Change is   -0.424826685162450
 Root     19 :    11.376226215592200   Change is   -0.266049712900164
 Root     20 :    11.562080612395580   Change is   -3.252082622200896
 Root     21 :    12.096020056993190   Change is   -0.103657367394357
 Root     22 :    12.096020156525110   Change is   -0.103657384135518
 Root     23 :    12.683543473145040   Change is   -0.552678256031193
 Root     24 :    16.699825140472350   Change is   -1.168784413695428
 Iteration     3 Dimension    51 NMult    48 NNew      3
 CISAX will form     3 AO SS matrices at one time.
 NMat=     3 NSing=     3 JSym2X= 2.
 Root      1 not converged, maximum delta is    0.008442024759241
 Excitation Energies [eV] at current iteration:
 Root      1 :    -0.000004570741253   Change is   -0.003874562914824
 Root      2 :     0.000009719924456   Change is   -0.003874949800420
 Root      3 :     9.517274927827673   Change is   -0.001127331499427
 Iteration     4 Dimension    54 NMult    51 NNew      3
 CISAX will form     3 AO SS matrices at one time.
 NMat=     3 NSing=     3 JSym2X= 2.
 Root      1 has converged.
 Excitation Energies [eV] at current iteration:
 Root      1 :    -0.000008635394359   Change is   -0.000004064653107
 Root      2 :     0.000005655056300   Change is   -0.000004064868156
 Root      3 :     9.517182501586079   Change is   -0.000092426241594
 Convergence achieved on expansion vectors.
 ***********************************************************************
 Stability analysis using <AA,BB:AA,BB> singles matrix:
 ***********************************************************************
 1PDM for each excited state written to RWF  633
 Ground to excited state transition densities written to RWF  633

 Eigenvectors of the stability matrix:
 
 Excited state symmetry could not be determined.
 Eigenvector   1:  2.009-?Sym  Eigenvalue=-0.0000003  <S**2>=0.759
      8B ->  9B        0.98908
      8B -> 11B       -0.10478
 The wavefunction is stable under the perturbations considered.
 Leave Link  914 at Fri Apr 16 22:50:48 2021, MaxMem=   104857600 cpu:             323.6 elap:               6.9
 (Enter /s/ls4/users/knvvv/bin/g16sse/l508.exe)
 The wavefunction is already stable.
 Leave Link  508 at Fri Apr 16 22:50:48 2021, MaxMem=   104857600 cpu:               2.2 elap:               0.1
 (Enter /s/ls4/users/knvvv/bin/g16sse/l601.exe)
 Copying SCF densities to generalized density rwf, IOpCl= 1 IROHF=0.
 SCF density gives NOpUse=  1 NOpAll= 48.
 Marking SCF density as not fully symmetric.

 **********************************************************************

            Population analysis using the SCF density.

 **********************************************************************

 Orbital symmetries:
 Alpha Orbitals:
       Occupied  (A1G) (A1G) (T1U) (T1U) (T1U) (?A) (?B) (?B) (?B)
       Virtual   (?B) (?B) (?B) (?A) (?A) (?A) (?A) (?A) (?A) (?B)
                 (?B) (?B) (?A) (?A) (?A) (?A) (?A) (?A) (?B) (?B)
                 (?B) (?B) (?B) (?B) (?B) (?B) (?B) (?B) (T1U)
                 (T1U) (T1U) (A1G)
 Beta  Orbitals:
       Occupied  (A1G) (A1G) (T1U) (T1U) (T1U) (?A) (?B) (?B)
       Virtual   (?B) (?A) (?B) (?B) (?B) (?A) (?A) (?A) (?A) (?B)
                 (?A) (?B) (?B) (?A) (?A) (?A) (?A) (?A) (?A) (?B)
                 (?B) (?B) (?B) (?B) (?B) (?B) (?B) (?B) (?B) (T1U)
                 (T1U) (T1U) (A1G)
 Unable to determine electronic state:  an orbital has unidentified symmetry.
 Alpha  occ. eigenvalues -- -102.69678  -9.85252  -7.58923  -7.56801  -7.56801
 Alpha  occ. eigenvalues --   -0.94464  -0.47061  -0.42324  -0.42324
 Alpha virt. eigenvalues --    0.06890   0.07329   0.07329   0.07892   0.42264
 Alpha virt. eigenvalues --    0.43396   0.43396   0.46399   0.46399   0.49956
 Alpha virt. eigenvalues --    0.51393   0.51393   0.81101   1.71426   1.72524
 Alpha virt. eigenvalues --    1.72524   1.76006   1.76006   2.04715   2.05426
 Alpha virt. eigenvalues --    2.05426   2.07096   2.07096   2.09927   2.09927
 Alpha virt. eigenvalues --    2.24257   2.28401   2.28401  10.75387  10.79826
 Alpha virt. eigenvalues --   10.79826  24.39259
  Beta  occ. eigenvalues -- -102.68529  -9.84952  -7.56443  -7.56443  -7.55960
  Beta  occ. eigenvalues --   -0.87813  -0.40244  -0.40244
  Beta virt. eigenvalues --   -0.18785   0.06284   0.06930   0.07090   0.07090
  Beta virt. eigenvalues --    0.47323   0.47323   0.47440   0.47440   0.48487
  Beta virt. eigenvalues --    0.48747   0.51034   0.51034   0.83034   1.74928
  Beta virt. eigenvalues --    1.76686   1.76686   1.76804   1.76804   2.09291
  Beta virt. eigenvalues --    2.09291   2.09737   2.09737   2.10660   2.10660
  Beta virt. eigenvalues --    2.11871   2.30209   2.30209   2.32908  10.81327
  Beta virt. eigenvalues --   10.81327  10.82872  24.39487
          Condensed to atoms (all electrons):
               1
     1  Cl  17.000000
          Atomic-Atomic Spin Densities.
               1
     1  Cl   1.000000
 Mulliken charges and spin densities:
               1          2
     1  Cl  -0.000000   1.000000
 Sum of Mulliken charges =  -0.00000   1.00000
 Mulliken charges and spin densities with hydrogens summed into heavy atoms:
               1          2
     1  Cl  -0.000000   1.000000
 Electronic spatial extent (au):  <R**2>=             27.6895
 Charge=             -0.0000 electrons
 Dipole moment (field-independent basis, Debye):
    X=             -0.0000    Y=              0.0000    Z=              0.0000  Tot=              0.0000
 Quadrupole moment (field-independent basis, Debye-Ang):
   XX=            -13.1377   YY=            -13.0691   ZZ=            -11.0364
   XY=              0.0000   XZ=              0.0000   YZ=             -0.3796
 Traceless Quadrupole moment (field-independent basis, Debye-Ang):
   XX=             -0.7233   YY=             -0.6547   ZZ=              1.3780
   XY=              0.0000   XZ=              0.0000   YZ=             -0.3796
 Octapole moment (field-independent basis, Debye-Ang**2):
  XXX=             -0.0000  YYY=             -0.0000  ZZZ=             -0.0000  XYY=             -0.0000
  XXY=              0.0000  XXZ=             -0.0000  XZZ=              0.0000  YZZ=             -0.0000
  YYZ=             -0.0000  XYZ=              0.0000
 Hexadecapole moment (field-independent basis, Debye-Ang**3):
 XXXX=            -15.6901 YYYY=            -15.5429 ZZZZ=            -11.1680 XXXY=              0.0000
 XXXZ=              0.0000 YYYX=              0.0000 YYYZ=             -0.4075 ZZZX=              0.0000
 ZZZY=             -0.4095 XXYY=             -5.2055 XXZZ=             -4.4783 YYZZ=             -4.4534
 XXYZ=             -0.1358 YYXZ=              0.0000 ZZXY=              0.0000
 N-N= 0.000000000000D+00 E-N=-1.094798175011D+03  KE= 4.597389820519D+02
                          Isotropic Fermi Contact Couplings
        Atom                 a.u.       MegaHertz       Gauss      10(-4) cm-1
     1  Cl(35)             0.17002      74.54609      26.59990      24.86590
 --------------------------------------------------------
       Center         ----  Spin Dipole Couplings  ----
                      3XX-RR        3YY-RR        3ZZ-RR
 --------------------------------------------------------
     1   Atom       -3.127383     -2.830911      5.958294
 --------------------------------------------------------
                        XY            XZ            YZ
 --------------------------------------------------------
     1   Atom        0.000000      0.000000     -1.641237
 --------------------------------------------------------


 ---------------------------------------------------------------------------------
              Anisotropic Spin Dipole Couplings in Principal Axis System
 ---------------------------------------------------------------------------------

       Atom             a.u.   MegaHertz   Gauss  10(-4) cm-1        Axes

              Baa    -3.1274  -163.680   -58.405   -54.598 -0.0000  0.9841  0.1778
     1 Cl(35) Bbb    -3.1274  -163.680   -58.405   -54.598  1.0000  0.0000  0.0000
              Bcc     6.2548   327.360   116.810   109.195  0.0000 -0.1778  0.9841
 

 ---------------------------------------------------------------------------------

 No NMR shielding tensors so no spin-rotation constants.
 Leave Link  601 at Fri Apr 16 22:50:52 2021, MaxMem=   104857600 cpu:             178.5 elap:               3.8
 (Enter /s/ls4/users/knvvv/bin/g16sse/l9999.exe)

 Test job not archived.
 1\1\GINC-N156\Stability\UM062X\Gen\Cl1(2)\KNVVV\16-Apr-2021\0\\#P M062
 X/GEN Integral=UltraFineGrid SCF=NoSymm Stable=(RExt, Opt) IOp(1/33=1)
 \\Database calculations.\\0,2\Cl,0,0.,0.,0.\\Version=ES64L-G16RevA.03\
 HF=-460.1330796\S2=0.752923\S2-1=0.\S2A=0.750004\RMSD=1.894e-09\Dipole
 =0.,0.,0.\Quadrupole=1.0245085,-0.4867653,-0.5377431,-0.2822054,0.,0.\
 PG=OH [O(Cl1)]\\@


 WE ARE REACHING THE STAGE WHERE THE PROBLEMS WE MUST SOLVE ARE 
 GOING TO BECOME INSOLUBLE WITHOUT COMPUTERS.
 I DO NOT FEAR COMPUTERS.  I FEAR THE LACK OF THEM.

                                   -- ISSAC ASIMOV
 Job cpu time:       0 days  0 hours 43 minutes 29.5 seconds.
 Elapsed time:       0 days  0 hours  0 minutes 55.9 seconds.
 File lengths (MBytes):  RWF=     18 Int=      0 D2E=      0 Chk=      1 Scr=      1
 Normal termination of Gaussian 16 at Fri Apr 16 22:50:52 2021.
