 Entering Gaussian System, Link 0=/s/ls4/users/knvvv/bin/g16sse/g16
 Input=data/database/M062X--def2-QZVP--FH51_1-hexene.gjf
 Output=data/database/M062X--def2-QZVP--FH51_1-hexene.log
 Initial command:
 /s/ls4/users/knvvv/bin/g16sse/l1.exe "/s/ls4/users/knvvv/bin/scratch/Gau-4201.inp" -scrdir="/s/ls4/users/knvvv/bin/scratch/"
 Entering Link 1 = /s/ls4/users/knvvv/bin/g16sse/l1.exe PID=      4202.
  
 Copyright (c) 1988,1990,1992,1993,1995,1998,2003,2009,2016,
            Gaussian, Inc.  All Rights Reserved.
  
 This is part of the Gaussian(R) 16 program.  It is based on
 the Gaussian(R) 09 system (copyright 2009, Gaussian, Inc.),
 the Gaussian(R) 03 system (copyright 2003, Gaussian, Inc.),
 the Gaussian(R) 98 system (copyright 1998, Gaussian, Inc.),
 the Gaussian(R) 94 system (copyright 1995, Gaussian, Inc.),
 the Gaussian 92(TM) system (copyright 1992, Gaussian, Inc.),
 the Gaussian 90(TM) system (copyright 1990, Gaussian, Inc.),
 the Gaussian 88(TM) system (copyright 1988, Gaussian, Inc.),
 the Gaussian 86(TM) system (copyright 1986, Carnegie Mellon
 University), and the Gaussian 82(TM) system (copyright 1983,
 Carnegie Mellon University). Gaussian is a federally registered
 trademark of Gaussian, Inc.
  
 This software contains proprietary and confidential information,
 including trade secrets, belonging to Gaussian, Inc.
  
 This software is provided under written license and may be
 used, copied, transmitted, or stored only in accord with that
 written license.
  
 The following legend is applicable only to US Government
 contracts under FAR:
  
                    RESTRICTED RIGHTS LEGEND
  
 Use, reproduction and disclosure by the US Government is
 subject to restrictions as set forth in subparagraphs (a)
 and (c) of the Commercial Computer Software - Restricted
 Rights clause in FAR 52.227-19.
  
 Gaussian, Inc.
 340 Quinnipiac St., Bldg. 40, Wallingford CT 06492
  
  
 ---------------------------------------------------------------
 Warning -- This program may not be used in any manner that
 competes with the business of Gaussian, Inc. or will provide
 assistance to any competitor of Gaussian, Inc.  The licensee
 of this program is prohibited from giving any competitor of
 Gaussian, Inc. access to this program.  By using this program,
 the user acknowledges that Gaussian, Inc. is engaged in the
 business of creating and licensing software in the field of
 computational chemistry and represents and warrants to the
 licensee that it is not a competitor of Gaussian, Inc. and that
 it will not use this program in any manner prohibited above.
 ---------------------------------------------------------------
  

 Cite this work as:
 Gaussian 16, Revision A.03,
 M. J. Frisch, G. W. Trucks, H. B. Schlegel, G. E. Scuseria, 
 M. A. Robb, J. R. Cheeseman, G. Scalmani, V. Barone, 
 G. A. Petersson, H. Nakatsuji, X. Li, M. Caricato, A. V. Marenich, 
 J. Bloino, B. G. Janesko, R. Gomperts, B. Mennucci, H. P. Hratchian, 
 J. V. Ortiz, A. F. Izmaylov, J. L. Sonnenberg, D. Williams-Young, 
 F. Ding, F. Lipparini, F. Egidi, J. Goings, B. Peng, A. Petrone, 
 T. Henderson, D. Ranasinghe, V. G. Zakrzewski, J. Gao, N. Rega, 
 G. Zheng, W. Liang, M. Hada, M. Ehara, K. Toyota, R. Fukuda, 
 J. Hasegawa, M. Ishida, T. Nakajima, Y. Honda, O. Kitao, H. Nakai, 
 T. Vreven, K. Throssell, J. A. Montgomery, Jr., J. E. Peralta, 
 F. Ogliaro, M. J. Bearpark, J. J. Heyd, E. N. Brothers, K. N. Kudin, 
 V. N. Staroverov, T. A. Keith, R. Kobayashi, J. Normand, 
 K. Raghavachari, A. P. Rendell, J. C. Burant, S. S. Iyengar, 
 J. Tomasi, M. Cossi, J. M. Millam, M. Klene, C. Adamo, R. Cammi, 
 J. W. Ochterski, R. L. Martin, K. Morokuma, O. Farkas, 
 J. B. Foresman, and D. J. Fox, Gaussian, Inc., Wallingford CT, 2016.
 
 ******************************************
 Gaussian 16:  ES64L-G16RevA.03 25-Dec-2016
                16-Apr-2021 
 ******************************************
 %RWF=temp4_63153,70GB
 %nprocshared=48
 Will use up to   48 processors via shared memory.
 Default route: MaxDisk=80GB
 ----------------------------------------------------------------------
 #P M062X/Def2QZVP Integral=UltraFineGrid SCF=NoSymm Stable=(RExt, Opt)
  IOp(1/33=1)
 ----------------------------------------------------------------------
 1/33=1,38=1,172=1/1;
 2/12=2,17=6,18=5,40=1/2;
 3/5=45,7=101,11=2,25=1,30=1,74=-55,75=-5/1,2,3;
 4/9=2/1;
 5/5=2,38=5/2;
 6/7=2,8=2,9=2,10=2,28=1/1;
 8/6=1,10=90,11=11/1;
 9/8=-3,42=1,46=1/14;
 5/5=2,8=3,17=40,38=5/8(-2);
 6/7=2,8=2,9=2,10=2,28=1/1;
 99/5=1,9=1/99;
 Leave Link    1 at Fri Apr 16 23:22:11 2021, MaxMem=           0 cpu:               8.3 elap:               0.2
 (Enter /s/ls4/users/knvvv/bin/g16sse/l101.exe)
 ONIOM data not found on unit 2.
 ----------------------
 Database calculations.
 ----------------------
 TstMul:  ICh=     0
 TstMul:  Mul=     1
 TstMul:  ICh=     0
 TstMul:  Mul=     1
 Symbolic Z-matrix:
 Charge =  0 Multiplicity = 1
 C                    -4.53147  -0.31507  -0.09486 
 H                    -4.18228  -1.35275  -0.20801 
 H                    -4.12446   0.26398  -0.93759 
 H                    -5.62652  -0.31993  -0.19212 
 C                    -4.09      0.27451   1.24691 
 H                    -4.48578   1.29968   1.34763 
 H                    -4.53876  -0.30578   2.07112 
 C                    -2.56832   0.30294   1.42297 
 H                    -2.11173   0.89002   0.60838 
 H                    -2.16898  -0.72162   1.32095 
 C                    -2.12334   0.88793   2.77554 
 H                    -2.59873   0.29924   3.58182 
 H                    -2.49853   1.91966   2.87853 
 C                    -0.63487   0.87073   2.96602 
 H                    -0.15807  -0.11539   2.90731 
 C                     0.13139   1.94342   3.18426 
 H                     1.21179   1.86086   3.30932 
 H                    -0.29718   2.94668   3.24894 
 
 RdStrC is calling ZToCFu for IStruc=1 NZ=    18.
 PrtBox:  NBox=     5 Levels=  2 BoxLen=    8.00 SMaxX=       12.92
          Shift=           10.632584            2.556318            1.771797
 Box      1 Number                   0 centers from      1 to     12:
 Box      2 Number                   1 centers from     13 to     13:
 Box      3 Number                   4 centers from     14 to     16:
 Box      4 Number                   5 centers from     17 to     17:
 Box      5 Number                   6 centers from     18 to     18:
 After GenITR:
 ITRead=  0  0  0  0  0  0  0  0  0  0  0  0  0  0  0  0  0  0
 MicOpt= -1 -1 -1 -1 -1 -1 -1 -1 -1 -1 -1 -1 -1 -1 -1 -1 -1 -1
 ITRead=  0  0  0  0  0  0  0  0  0  0  0  0  0  0  0  0  0  0
 MicOpt= -1 -1 -1 -1 -1 -1 -1 -1 -1 -1 -1 -1 -1 -1 -1 -1 -1 -1
 NAtoms=     18 NQM=       18 NQMF=       0 NMMI=      0 NMMIF=      0
                NMic=       0 NMicF=      0.
                    Isotopes and Nuclear Properties:
 (Nuclear quadrupole moments (NQMom) in fm**2, nuclear magnetic moments (NMagM)
  in nuclear magnetons)

  Atom         1           2           3           4           5           6           7           8           9          10
 IAtWgt=          12           1           1           1          12           1           1          12           1           1
 AtmWgt=  12.0000000   1.0078250   1.0078250   1.0078250  12.0000000   1.0078250   1.0078250  12.0000000   1.0078250   1.0078250
 NucSpn=           0           1           1           1           0           1           1           0           1           1
 AtZEff=  -0.0000000  -0.0000000  -0.0000000  -0.0000000  -0.0000000  -0.0000000  -0.0000000  -0.0000000  -0.0000000  -0.0000000
 NQMom=    0.0000000   0.0000000   0.0000000   0.0000000   0.0000000   0.0000000   0.0000000   0.0000000   0.0000000   0.0000000
 NMagM=    0.0000000   2.7928460   2.7928460   2.7928460   0.0000000   2.7928460   2.7928460   0.0000000   2.7928460   2.7928460
 AtZNuc=   6.0000000   1.0000000   1.0000000   1.0000000   6.0000000   1.0000000   1.0000000   6.0000000   1.0000000   1.0000000

  Atom        11          12          13          14          15          16          17          18
 IAtWgt=          12           1           1          12           1          12           1           1
 AtmWgt=  12.0000000   1.0078250   1.0078250  12.0000000   1.0078250  12.0000000   1.0078250   1.0078250
 NucSpn=           0           1           1           0           1           0           1           1
 AtZEff=  -0.0000000  -0.0000000  -0.0000000  -0.0000000  -0.0000000  -0.0000000  -0.0000000  -0.0000000
 NQMom=    0.0000000   0.0000000   0.0000000   0.0000000   0.0000000   0.0000000   0.0000000   0.0000000
 NMagM=    0.0000000   2.7928460   2.7928460   0.0000000   2.7928460   0.0000000   2.7928460   2.7928460
 AtZNuc=   6.0000000   1.0000000   1.0000000   6.0000000   1.0000000   6.0000000   1.0000000   1.0000000
 No MM parameters found.
 Leave Link  101 at Fri Apr 16 23:22:11 2021, MaxMem=   104857600 cpu:               7.1 elap:               0.2
 (Enter /s/ls4/users/knvvv/bin/g16sse/l202.exe)
                          Input orientation:                          
 ---------------------------------------------------------------------
 Center     Atomic      Atomic             Coordinates (Angstroms)
 Number     Number       Type             X           Y           Z
 ---------------------------------------------------------------------
      1          6           0       -4.531466   -0.315074   -0.094858
      2          1           0       -4.182279   -1.352745   -0.208012
      3          1           0       -4.124456    0.263981   -0.937595
      4          1           0       -5.626521   -0.319931   -0.192124
      5          6           0       -4.090004    0.274511    1.246908
      6          1           0       -4.485781    1.299683    1.347625
      7          1           0       -4.538761   -0.305776    2.071116
      8          6           0       -2.568322    0.302942    1.422975
      9          1           0       -2.111728    0.890019    0.608379
     10          1           0       -2.168977   -0.721622    1.320946
     11          6           0       -2.123342    0.887928    2.775543
     12          1           0       -2.598730    0.299243    3.581821
     13          1           0       -2.498535    1.919659    2.878526
     14          6           0       -0.634869    0.870728    2.966025
     15          1           0       -0.158069   -0.115390    2.907306
     16          6           0        0.131394    1.943417    3.184263
     17          1           0        1.211792    1.860861    3.309317
     18          1           0       -0.297178    2.946682    3.248936
 ---------------------------------------------------------------------
                    Distance matrix (angstroms):
                    1          2          3          4          5
     1  C    0.000000
     2  H    1.100680   0.000000
     3  H    1.100530   1.774666   0.000000
     4  H    1.099377   1.775611   1.775635   0.000000
     5  C    1.530632   2.184782   2.184800   2.187477   0.000000
     6  H    2.165707   3.089902   2.534850   2.509036   1.103521
     7  H    2.166006   2.533307   3.090083   2.511110   1.103374
     8  C    2.557283   2.829536   2.827607   3.514128   1.532098
     9  H    2.793192   3.159694   2.614007   3.802440   2.167982
    10  H    2.784086   2.605650   3.145841   3.795437   2.165204
    11  C    3.935159   4.261624   4.263937   4.747445   2.565300
    12  H    4.198908   4.427136   4.770137   4.877864   2.770619
    13  H    4.238850   4.803160   4.466281   4.922291   2.810954
    14  C    5.094958   5.253804   5.271015   6.025625   3.904971
    15  H    5.308433   5.237416   5.537094   6.289060   4.285914
    16  C    6.131532   6.401562   6.158123   7.048143   4.935463
    17  H    7.021973   7.196865   7.004414   7.986142   5.905851
    18  H    6.304697   6.747561   6.274710   7.135373   5.053132
                    6          7          8          9         10
     6  H    0.000000
     7  H    1.761745   0.000000
     8  C    2.162364   2.161771   0.000000
     9  H    2.520007   3.075713   1.103043   0.000000
    10  H    3.074730   2.520229   1.104363   1.763070   0.000000
    11  C    2.790987   2.784851   1.539369   2.167196   2.169928
    12  H    3.090869   2.532193   2.159064   3.070431   2.517621
    13  H    2.584023   3.125219   2.176528   2.522567   3.083996
    14  C    4.199136   4.174374   2.538035   2.782081   2.755967
    15  H    4.812912   4.463846   2.861391   3.180046   2.632074
    16  C    5.010583   5.301728   3.616872   3.574412   3.983227
    17  H    6.051900   6.268677   4.502739   4.391285   4.696003
    18  H    4.885897   5.473278   3.934665   3.807229   4.547223
                   11         12         13         14         15
    11  C    0.000000
    12  H    1.105725   0.000000
    13  H    1.102653   1.769297   0.000000
    14  C    1.500710   2.136013   2.140365   0.000000
    15  H    2.210499   2.565876   3.101618   1.096911   0.000000
    16  C    2.522884   3.211688   2.647748   1.336207   2.097422
    17  H    3.514915   4.127104   3.735714   2.123292   2.437970
    18  H    2.792391   3.523760   2.457225   2.122183   3.084209
                   16         17         18
    16  C    0.000000
    17  H    1.090739   0.000000
    18  H    1.092885   1.860011   0.000000
 Stoichiometry    C6H12
 Framework group  C1[X(C6H12)]
 Deg. of freedom    48
 Full point group                 C1      NOp   1
 Largest Abelian subgroup         C1      NOp   1
 Largest concise Abelian subgroup C1      NOp   1
                         Standard orientation:                         
 ---------------------------------------------------------------------
 Center     Atomic      Atomic             Coordinates (Angstroms)
 Number     Number       Type             X           Y           Z
 ---------------------------------------------------------------------
      1          6           0       -3.022370   -0.369413   -0.177984
      2          1           0       -3.138345   -1.063171    0.668625
      3          1           0       -2.966513   -0.974597   -1.095480
      4          1           0       -3.935375    0.240229   -0.236187
      5          6           0       -1.775205    0.502406   -0.012615
      6          1           0       -1.706393    1.211685   -0.855199
      7          1           0       -1.874077    1.120290    0.896164
      8          6           0       -0.477863   -0.308406    0.069926
      9          1           0       -0.365570   -0.921949   -0.839831
     10          1           0       -0.544378   -1.020557    0.911374
     11          6           0        0.776342    0.566850    0.244720
     12          1           0        0.644362    1.185721    1.151477
     13          1           0        0.864605    1.267463   -0.602154
     14          6           0        2.040759   -0.231135    0.373567
     15          1           0        2.070301   -0.946794    1.204333
     16          6           0        3.099500   -0.142668   -0.436798
     17          1           0        3.987965   -0.757934   -0.289185
     18          1           0        3.116441    0.553814   -1.278833
 ---------------------------------------------------------------------
 Rotational constants (GHZ):          13.6559156           1.2331439           1.2107650
 Leave Link  202 at Fri Apr 16 23:22:11 2021, MaxMem=   104857600 cpu:               5.9 elap:               0.1
 (Enter /s/ls4/users/knvvv/bin/g16sse/l301.exe)
 Standard basis: def2QZVP (5D, 7F)
 Ernie: Thresh=  0.10000D-02 Tol=  0.10000D-05 Strict=F.
 There are   852 symmetry adapted cartesian basis functions of A   symmetry.
 There are   702 symmetry adapted basis functions of A   symmetry.
   702 basis functions,  1008 primitive gaussians,   852 cartesian basis functions
    24 alpha electrons       24 beta electrons
       nuclear repulsion energy       227.0961818356 Hartrees.
 IExCor= 4336 DFT=T Ex+Corr=M062X ExCW=0 ScaHFX=  0.540000
 ScaDFX=  1.000000  1.000000  1.000000  1.000000 ScalE2=  1.000000  1.000000
 IRadAn=      5 IRanWt=     -1 IRanGd=            0 ICorTp=0 IEmpDi=  4
 NAtoms=   18 NActive=   18 NUniq=   18 SFac= 1.00D+00 NAtFMM=   60 NAOKFM=F Big=F
 Integral buffers will be    131072 words long.
 Raffenetti 2 integral format.
 Two-electron integral symmetry is turned on.
 Leave Link  301 at Fri Apr 16 23:22:12 2021, MaxMem=   104857600 cpu:               6.4 elap:               0.2
 (Enter /s/ls4/users/knvvv/bin/g16sse/l302.exe)
 NPDir=0 NMtPBC=     1 NCelOv=     1 NCel=       1 NClECP=     1 NCelD=      1
         NCelK=      1 NCelE2=     1 NClLst=     1 CellRange=     0.0.
 One-electron integrals computed using PRISM.
 One-electron integral symmetry used in STVInt
 PrsmSu:  requested number of processors reduced to:   4 ShMem   1 Linda.
 PrsmSu:  requested number of processors reduced to:  18 ShMem   1 Linda.
   1 Symmetry operations used in ECPInt.
 ECPInt:  NShTT=   24753 NPrTT=   54921 LenC2=   22947 LenP2D=   42246.
 LDataN:  DoStor=T MaxTD1= 8 Len=  415
 Number of processors reduced to  11 by ecpmxn.
 NBasis=   702 RedAO= T EigKep=  3.59D-05  NBF=   702
 NBsUse=   702 1.00D-06 EigRej= -1.00D+00 NBFU=   702
 Precomputing XC quadrature grid using
 IXCGrd= 4 IRadAn=           5 IRanWt=          -1 IRanGd=           0 AccXCQ= 0.00D+00.
 Generated NRdTot=       0 NPtTot=           0 NUsed=           0 NTot=          32
 NSgBfM=   850   848   848   848   850 MxSgAt=    18 MxSgA2=    18.
 Leave Link  302 at Fri Apr 16 23:22:24 2021, MaxMem=   104857600 cpu:             591.2 elap:              12.7
 (Enter /s/ls4/users/knvvv/bin/g16sse/l303.exe)
 DipDrv:  MaxL=1.
 Leave Link  303 at Fri Apr 16 23:22:30 2021, MaxMem=   104857600 cpu:             255.8 elap:               5.5
 (Enter /s/ls4/users/knvvv/bin/g16sse/l401.exe)
 SCF N**3 symmetry information disabled.
 ExpMin= 7.60D-02 ExpMax= 6.70D+04 ExpMxC= 6.47D+02 IAcc=3 IRadAn=         5 AccDes= 0.00D+00
 Harris functional with IExCor= 1009 and IRadAn=       5 diagonalized for initial guess.
 HarFok:  IExCor= 1009 AccDes= 0.00D+00 IRadAn=         5 IDoV= 1 UseB2=F ITyADJ=14
 ICtDFT=  3500011 ScaDFX=  1.000000  1.000000  1.000000  1.000000
 FoFCou: FMM=F IPFlag=           0 FMFlag=      100000 FMFlg1=           0
         NFxFlg=           0 DoJE=T BraDBF=F KetDBF=T FulRan=T
         wScrn=  0.000000 ICntrl=       500 IOpCl=  0 I1Cent=   200000004 NGrid=           0
         NMat0=    1 NMatS0=      1 NMatT0=    0 NMatD0=    1 NMtDS0=    0 NMtDT0=    0
 Petite list used in FoFCou.
 CoulSu:  requested number of processors reduced to:  17 ShMem   1 Linda.
 CoulSu:  requested number of processors reduced to:  18 ShMem   1 Linda.
 CoulSu:  requested number of processors reduced to:  21 ShMem   1 Linda.
 CoulSu:  requested number of processors reduced to:  21 ShMem   1 Linda.
 Harris En= -235.817388422457    
 JPrj=0 DoOrth=F DoCkMO=F.
 Leave Link  401 at Fri Apr 16 23:22:34 2021, MaxMem=   104857600 cpu:             192.0 elap:               4.3
 (Enter /s/ls4/users/knvvv/bin/g16sse/l502.exe)
 Integral symmetry usage will be decided dynamically.
 Closed shell SCF:
 Using DIIS extrapolation, IDIIS=  1040.
 NGot=   104857600 LenX=   103358130 LenY=   102631374
 Requested convergence on RMS density matrix=1.00D-08 within 128 cycles.
 Requested convergence on MAX density matrix=1.00D-06.
 Requested convergence on             energy=1.00D-06.
 No special actions if energy rises.
 Fock matrices will be formed incrementally for  20 cycles.
 Integral accuracy reduced to 1.0D-05 until final iterations.

 Cycle   1  Pass 0  IDiag  1:
 FoFJK:  IHMeth= 1 ICntrl=       0 DoSepK=F KAlg= 0 I1Cent=           0 FoldK=F
 IRaf= 880000000 NMat=       1 IRICut=       1 DoRegI=T DoRafI=F ISym2E= 0 IDoP0=0 IntGTp=1.
 FoFCou: FMM=F IPFlag=           0 FMFlag=      100000 FMFlg1=           0
         NFxFlg=           0 DoJE=F BraDBF=F KetDBF=F FulRan=T
         wScrn=  0.000000 ICntrl=         0 IOpCl=  0 I1Cent=           0 NGrid=           0
         NMat0=    1 NMatS0=      1 NMatT0=    0 NMatD0=    1 NMtDS0=    0 NMtDT0=    0
 Symmetry not used in FoFCou.
 CoulSu:  requested number of processors reduced to:  18 ShMem   1 Linda.
 E= -235.556735103989    
 DIIS: error= 1.85D-02 at cycle   1 NSaved=   1.
 NSaved= 1 IEnMin= 1 EnMin= -235.556735103989     IErMin= 1 ErrMin= 1.85D-02
 ErrMax= 1.85D-02  0.00D+00 EMaxC= 1.00D-01 BMatC= 3.71D-01 BMatP= 3.71D-01
 IDIUse=3 WtCom= 8.15D-01 WtEn= 1.85D-01
 Coeff-Com:  0.100D+01
 Coeff-En:   0.100D+01
 Coeff:      0.100D+01
 Gap=     0.363 Goal=   None    Shift=    0.000
 GapD=    0.363 DampG=1.000 DampE=0.500 DampFc=0.5000 IDamp=-1.
 Damping current iteration by 5.00D-01
 RMSDP=9.04D-04 MaxDP=6.66D-02              OVMax= 1.64D-01

 Cycle   2  Pass 0  IDiag  1:
 RMSU=  4.41D-04    CP:  9.65D-01
 CoulSu:  requested number of processors reduced to:  18 ShMem   1 Linda.
 E= -235.697234715315     Delta-E=       -0.140499611326 Rises=F Damp=T
 DIIS: error= 6.43D-03 at cycle   2 NSaved=   2.
 NSaved= 2 IEnMin= 2 EnMin= -235.697234715315     IErMin= 2 ErrMin= 6.43D-03
 ErrMax= 6.43D-03  0.00D+00 EMaxC= 1.00D-01 BMatC= 3.73D-02 BMatP= 3.71D-01
 IDIUse=3 WtCom= 9.36D-01 WtEn= 6.43D-02
 Coeff-Com: -0.189D+00 0.119D+01
 Coeff-En:   0.000D+00 0.100D+01
 Coeff:     -0.177D+00 0.118D+01
 Gap=     0.383 Goal=   None    Shift=    0.000
 RMSDP=5.08D-04 MaxDP=5.84D-02 DE=-1.40D-01 OVMax= 8.47D-02

 Cycle   3  Pass 0  IDiag  1:
 RMSU=  5.07D-04    CP:  9.78D-01  1.03D+00
 CoulSu:  requested number of processors reduced to:  18 ShMem   1 Linda.
 E= -235.825526435706     Delta-E=       -0.128291720391 Rises=F Damp=F
 DIIS: error= 3.40D-03 at cycle   3 NSaved=   3.
 NSaved= 3 IEnMin= 3 EnMin= -235.825526435706     IErMin= 3 ErrMin= 3.40D-03
 ErrMax= 3.40D-03  0.00D+00 EMaxC= 1.00D-01 BMatC= 3.52D-03 BMatP= 3.73D-02
 IDIUse=3 WtCom= 9.66D-01 WtEn= 3.40D-02
 Coeff-Com: -0.104D+00 0.259D+00 0.845D+00
 Coeff-En:   0.000D+00 0.000D+00 0.100D+01
 Coeff:     -0.100D+00 0.250D+00 0.850D+00
 Gap=     0.356 Goal=   None    Shift=    0.000
 RMSDP=7.58D-05 MaxDP=1.20D-02 DE=-1.28D-01 OVMax= 1.63D-02

 Cycle   4  Pass 0  IDiag  1:
 RMSU=  6.14D-05    CP:  9.70D-01  1.09D+00  9.47D-01
 CoulSu:  requested number of processors reduced to:  19 ShMem   1 Linda.
 E= -235.828687017919     Delta-E=       -0.003160582213 Rises=F Damp=F
 DIIS: error= 9.02D-04 at cycle   4 NSaved=   4.
 NSaved= 4 IEnMin= 4 EnMin= -235.828687017919     IErMin= 4 ErrMin= 9.02D-04
 ErrMax= 9.02D-04  0.00D+00 EMaxC= 1.00D-01 BMatC= 4.51D-04 BMatP= 3.52D-03
 IDIUse=3 WtCom= 9.91D-01 WtEn= 9.02D-03
 Coeff-Com: -0.381D-01 0.864D-01 0.373D+00 0.579D+00
 Coeff-En:   0.000D+00 0.000D+00 0.000D+00 0.100D+01
 Coeff:     -0.378D-01 0.856D-01 0.369D+00 0.583D+00
 Gap=     0.354 Goal=   None    Shift=    0.000
 RMSDP=2.24D-05 MaxDP=2.04D-03 DE=-3.16D-03 OVMax= 1.06D-02

 Cycle   5  Pass 0  IDiag  1:
 RMSU=  2.09D-05    CP:  9.69D-01  1.08D+00  9.47D-01  8.80D-01
 CoulSu:  requested number of processors reduced to:  19 ShMem   1 Linda.
 E= -235.829100339041     Delta-E=       -0.000413321121 Rises=F Damp=F
 DIIS: error= 2.45D-04 at cycle   5 NSaved=   5.
 NSaved= 5 IEnMin= 5 EnMin= -235.829100339041     IErMin= 5 ErrMin= 2.45D-04
 ErrMax= 2.45D-04  0.00D+00 EMaxC= 1.00D-01 BMatC= 3.39D-05 BMatP= 4.51D-04
 IDIUse=3 WtCom= 9.98D-01 WtEn= 2.45D-03
 Coeff-Com: -0.359D-02 0.803D-02 0.630D-01 0.239D+00 0.693D+00
 Coeff-En:   0.000D+00 0.000D+00 0.000D+00 0.000D+00 0.100D+01
 Coeff:     -0.358D-02 0.801D-02 0.628D-01 0.239D+00 0.694D+00
 Gap=     0.355 Goal=   None    Shift=    0.000
 RMSDP=8.18D-06 MaxDP=4.97D-04 DE=-4.13D-04 OVMax= 2.94D-03

 Initial convergence to 1.0D-05 achieved.  Increase integral accuracy.
 Cycle   6  Pass 1  IDiag  1:
 CoulSu:  requested number of processors reduced to:  18 ShMem   1 Linda.
 E= -235.829180491185     Delta-E=       -0.000080152144 Rises=F Damp=F
 DIIS: error= 1.90D-04 at cycle   1 NSaved=   1.
 NSaved= 1 IEnMin= 1 EnMin= -235.829180491185     IErMin= 1 ErrMin= 1.90D-04
 ErrMax= 1.90D-04  0.00D+00 EMaxC= 1.00D-01 BMatC= 1.11D-05 BMatP= 1.11D-05
 IDIUse=3 WtCom= 9.98D-01 WtEn= 1.90D-03
 Coeff-Com:  0.100D+01
 Coeff-En:   0.100D+01
 Coeff:      0.100D+01
 Gap=     0.355 Goal=   None    Shift=    0.000
 RMSDP=8.18D-06 MaxDP=4.97D-04 DE=-8.02D-05 OVMax= 1.58D-03

 Cycle   7  Pass 1  IDiag  1:
 RMSU=  1.05D-04    CP:  1.00D+00
 CoulSu:  requested number of processors reduced to:  18 ShMem   1 Linda.
 E= -235.829184440799     Delta-E=       -0.000003949614 Rises=F Damp=F
 DIIS: error= 9.93D-05 at cycle   2 NSaved=   2.
 NSaved= 2 IEnMin= 2 EnMin= -235.829184440799     IErMin= 2 ErrMin= 9.93D-05
 ErrMax= 9.93D-05  0.00D+00 EMaxC= 1.00D-01 BMatC= 4.43D-06 BMatP= 1.11D-05
 IDIUse=1 WtCom= 1.00D+00 WtEn= 0.00D+00
 Coeff-Com:  0.349D+00 0.651D+00
 Coeff:      0.349D+00 0.651D+00
 Gap=     0.355 Goal=   None    Shift=    0.000
 RMSDP=3.24D-06 MaxDP=1.85D-04 DE=-3.95D-06 OVMax= 1.25D-03

 Cycle   8  Pass 1  IDiag  1:
 RMSU=  2.41D-06    CP:  1.00D+00  1.02D+00
 CoulSu:  requested number of processors reduced to:  18 ShMem   1 Linda.
 E= -235.829187597256     Delta-E=       -0.000003156457 Rises=F Damp=F
 DIIS: error= 4.77D-05 at cycle   3 NSaved=   3.
 NSaved= 3 IEnMin= 3 EnMin= -235.829187597256     IErMin= 3 ErrMin= 4.77D-05
 ErrMax= 4.77D-05  0.00D+00 EMaxC= 1.00D-01 BMatC= 1.16D-06 BMatP= 4.43D-06
 IDIUse=1 WtCom= 1.00D+00 WtEn= 0.00D+00
 Coeff-Com: -0.233D-02 0.336D+00 0.666D+00
 Coeff:     -0.233D-02 0.336D+00 0.666D+00
 Gap=     0.355 Goal=   None    Shift=    0.000
 RMSDP=1.56D-06 MaxDP=8.40D-05 DE=-3.16D-06 OVMax= 5.13D-04

 Cycle   9  Pass 1  IDiag  1:
 RMSU=  7.87D-07    CP:  1.00D+00  1.03D+00  8.29D-01
 CoulSu:  requested number of processors reduced to:  18 ShMem   1 Linda.
 E= -235.829188699928     Delta-E=       -0.000001102672 Rises=F Damp=F
 DIIS: error= 6.63D-06 at cycle   4 NSaved=   4.
 NSaved= 4 IEnMin= 4 EnMin= -235.829188699928     IErMin= 4 ErrMin= 6.63D-06
 ErrMax= 6.63D-06  0.00D+00 EMaxC= 1.00D-01 BMatC= 2.44D-08 BMatP= 1.16D-06
 IDIUse=1 WtCom= 1.00D+00 WtEn= 0.00D+00
 Coeff-Com: -0.762D-02 0.145D+00 0.312D+00 0.550D+00
 Coeff:     -0.762D-02 0.145D+00 0.312D+00 0.550D+00
 Gap=     0.355 Goal=   None    Shift=    0.000
 RMSDP=1.70D-07 MaxDP=1.54D-05 DE=-1.10D-06 OVMax= 5.43D-05

 Cycle  10  Pass 1  IDiag  1:
 RMSU=  1.50D-07    CP:  1.00D+00  1.03D+00  8.35D-01  1.01D+00
 CoulSu:  requested number of processors reduced to:  18 ShMem   1 Linda.
 E= -235.829188723031     Delta-E=       -0.000000023103 Rises=F Damp=F
 DIIS: error= 8.20D-07 at cycle   5 NSaved=   5.
 NSaved= 5 IEnMin= 5 EnMin= -235.829188723031     IErMin= 5 ErrMin= 8.20D-07
 ErrMax= 8.20D-07  0.00D+00 EMaxC= 1.00D-01 BMatC= 4.45D-10 BMatP= 2.44D-08
 IDIUse=1 WtCom= 1.00D+00 WtEn= 0.00D+00
 Coeff-Com: -0.146D-02 0.808D-02 0.229D-01 0.103D+00 0.867D+00
 Coeff:     -0.146D-02 0.808D-02 0.229D-01 0.103D+00 0.867D+00
 Gap=     0.355 Goal=   None    Shift=    0.000
 RMSDP=5.89D-08 MaxDP=5.20D-06 DE=-2.31D-08 OVMax= 8.98D-06

 Cycle  11  Pass 1  IDiag  1:
 RMSU=  3.63D-08    CP:  1.00D+00  1.03D+00  8.41D-01  1.05D+00  1.04D+00
 CoulSu:  requested number of processors reduced to:  18 ShMem   1 Linda.
 E= -235.829188723500     Delta-E=       -0.000000000470 Rises=F Damp=F
 DIIS: error= 4.30D-07 at cycle   6 NSaved=   6.
 NSaved= 6 IEnMin= 6 EnMin= -235.829188723500     IErMin= 6 ErrMin= 4.30D-07
 ErrMax= 4.30D-07  0.00D+00 EMaxC= 1.00D-01 BMatC= 7.93D-11 BMatP= 4.45D-10
 IDIUse=1 WtCom= 1.00D+00 WtEn= 0.00D+00
 Coeff-Com:  0.556D-03-0.168D-01-0.335D-01-0.434D-01 0.282D+00 0.811D+00
 Coeff:      0.556D-03-0.168D-01-0.335D-01-0.434D-01 0.282D+00 0.811D+00
 Gap=     0.355 Goal=   None    Shift=    0.000
 RMSDP=2.09D-08 MaxDP=1.68D-06 DE=-4.70D-10 OVMax= 2.17D-06

 Cycle  12  Pass 1  IDiag  1:
 RMSU=  1.42D-08    CP:  1.00D+00  1.03D+00  8.44D-01  1.07D+00  1.07D+00
                    CP:  1.12D+00
 CoulSu:  requested number of processors reduced to:  18 ShMem   1 Linda.
 E= -235.829188723579     Delta-E=       -0.000000000079 Rises=F Damp=F
 DIIS: error= 4.76D-08 at cycle   7 NSaved=   7.
 NSaved= 7 IEnMin= 7 EnMin= -235.829188723579     IErMin= 7 ErrMin= 4.76D-08
 ErrMax= 4.76D-08  0.00D+00 EMaxC= 1.00D-01 BMatC= 2.07D-12 BMatP= 7.93D-11
 IDIUse=1 WtCom= 1.00D+00 WtEn= 0.00D+00
 Coeff-Com:  0.201D-03-0.502D-02-0.998D-02-0.154D-01 0.583D-01 0.231D+00
 Coeff-Com:  0.741D+00
 Coeff:      0.201D-03-0.502D-02-0.998D-02-0.154D-01 0.583D-01 0.231D+00
 Coeff:      0.741D+00
 Gap=     0.355 Goal=   None    Shift=    0.000
 RMSDP=3.27D-09 MaxDP=3.15D-07 DE=-7.88D-11 OVMax= 3.98D-07

 SCF Done:  E(RM062X) =  -235.829188724     A.U. after   12 cycles
            NFock= 12  Conv=0.33D-08     -V/T= 2.0058
 KE= 2.344660672513D+02 PE=-9.994913477730D+02 EE= 3.020999099625D+02
 Leave Link  502 at Fri Apr 16 23:30:26 2021, MaxMem=   104857600 cpu:           12837.6 elap:             471.8
 (Enter /s/ls4/users/knvvv/bin/g16sse/l601.exe)
 Copying SCF densities to generalized density rwf, IOpCl= 0 IROHF=0.

 **********************************************************************

            Population analysis using the SCF density.

 **********************************************************************

 Orbital symmetries:
       Occupied  (A) (A) (A) (A) (A) (A) (A) (A) (A) (A) (A) (A)
                 (A) (A) (A) (A) (A) (A) (A) (A) (A) (A) (A) (A)
       Virtual   (A) (A) (A) (A) (A) (A) (A) (A) (A) (A) (A) (A)
                 (A) (A) (A) (A) (A) (A) (A) (A) (A) (A) (A) (A)
                 (A) (A) (A) (A) (A) (A) (A) (A) (A) (A) (A) (A)
                 (A) (A) (A) (A) (A) (A) (A) (A) (A) (A) (A) (A)
                 (A) (A) (A) (A) (A) (A) (A) (A) (A) (A) (A) (A)
                 (A) (A) (A) (A) (A) (A) (A) (A) (A) (A) (A) (A)
                 (A) (A) (A) (A) (A) (A) (A) (A) (A) (A) (A) (A)
                 (A) (A) (A) (A) (A) (A) (A) (A) (A) (A) (A) (A)
                 (A) (A) (A) (A) (A) (A) (A) (A) (A) (A) (A) (A)
                 (A) (A) (A) (A) (A) (A) (A) (A) (A) (A) (A) (A)
                 (A) (A) (A) (A) (A) (A) (A) (A) (A) (A) (A) (A)
                 (A) (A) (A) (A) (A) (A) (A) (A) (A) (A) (A) (A)
                 (A) (A) (A) (A) (A) (A) (A) (A) (A) (A) (A) (A)
                 (A) (A) (A) (A) (A) (A) (A) (A) (A) (A) (A) (A)
                 (A) (A) (A) (A) (A) (A) (A) (A) (A) (A) (A) (A)
                 (A) (A) (A) (A) (A) (A) (A) (A) (A) (A) (A) (A)
                 (A) (A) (A) (A) (A) (A) (A) (A) (A) (A) (A) (A)
                 (A) (A) (A) (A) (A) (A) (A) (A) (A) (A) (A) (A)
                 (A) (A) (A) (A) (A) (A) (A) (A) (A) (A) (A) (A)
                 (A) (A) (A) (A) (A) (A) (A) (A) (A) (A) (A) (A)
                 (A) (A) (A) (A) (A) (A) (A) (A) (A) (A) (A) (A)
                 (A) (A) (A) (A) (A) (A) (A) (A) (A) (A) (A) (A)
                 (A) (A) (A) (A) (A) (A) (A) (A) (A) (A) (A) (A)
                 (A) (A) (A) (A) (A) (A) (A) (A) (A) (A) (A) (A)
                 (A) (A) (A) (A) (A) (A) (A) (A) (A) (A) (A) (A)
                 (A) (A) (A) (A) (A) (A) (A) (A) (A) (A) (A) (A)
                 (A) (A) (A) (A) (A) (A) (A) (A) (A) (A) (A) (A)
                 (A) (A) (A) (A) (A) (A) (A) (A) (A) (A) (A) (A)
                 (A) (A) (A) (A) (A) (A) (A) (A) (A) (A) (A) (A)
                 (A) (A) (A) (A) (A) (A) (A) (A) (A) (A) (A) (A)
                 (A) (A) (A) (A) (A) (A) (A) (A) (A) (A) (A) (A)
                 (A) (A) (A) (A) (A) (A) (A) (A) (A) (A) (A) (A)
                 (A) (A) (A) (A) (A) (A) (A) (A) (A) (A) (A) (A)
                 (A) (A) (A) (A) (A) (A) (A) (A) (A) (A) (A) (A)
                 (A) (A) (A) (A) (A) (A) (A) (A) (A) (A) (A) (A)
                 (A) (A) (A) (A) (A) (A) (A) (A) (A) (A) (A) (A)
                 (A) (A) (A) (A) (A) (A) (A) (A) (A) (A) (A) (A)
                 (A) (A) (A) (A) (A) (A) (A) (A) (A) (A) (A) (A)
                 (A) (A) (A) (A) (A) (A) (A) (A) (A) (A) (A) (A)
                 (A) (A) (A) (A) (A) (A) (A) (A) (A) (A) (A) (A)
                 (A) (A) (A) (A) (A) (A) (A) (A) (A) (A) (A) (A)
                 (A) (A) (A) (A) (A) (A) (A) (A) (A) (A) (A) (A)
                 (A) (A) (A) (A) (A) (A) (A) (A) (A) (A) (A) (A)
                 (A) (A) (A) (A) (A) (A) (A) (A) (A) (A) (A) (A)
                 (A) (A) (A) (A) (A) (A) (A) (A) (A) (A) (A) (A)
                 (A) (A) (A) (A) (A) (A) (A) (A) (A) (A) (A) (A)
                 (A) (A) (A) (A) (A) (A) (A) (A) (A) (A) (A) (A)
                 (A) (A) (A) (A) (A) (A) (A) (A) (A) (A) (A) (A)
                 (A) (A) (A) (A) (A) (A) (A) (A) (A) (A) (A) (A)
                 (A) (A) (A) (A) (A) (A) (A) (A) (A) (A) (A) (A)
                 (A) (A) (A) (A) (A) (A) (A) (A) (A) (A) (A) (A)
                 (A) (A) (A) (A) (A) (A) (A) (A) (A) (A) (A) (A)
                 (A) (A) (A) (A) (A) (A) (A) (A) (A) (A) (A) (A)
                 (A) (A) (A) (A) (A) (A) (A) (A) (A) (A) (A) (A)
                 (A) (A) (A) (A) (A) (A) (A) (A) (A) (A) (A) (A)
                 (A) (A) (A) (A) (A) (A) (A) (A) (A) (A) (A) (A)
                 (A) (A) (A) (A) (A) (A)
 The electronic state is 1-A.
 Alpha  occ. eigenvalues --  -10.54499 -10.54094 -10.53755 -10.53705 -10.53277
 Alpha  occ. eigenvalues --  -10.52911  -0.90977  -0.86754  -0.80325  -0.72235
 Alpha  occ. eigenvalues --   -0.66140  -0.63027  -0.55036  -0.52412  -0.49946
 Alpha  occ. eigenvalues --   -0.49055  -0.46305  -0.44772  -0.42207  -0.40475
 Alpha  occ. eigenvalues --   -0.39615  -0.38439  -0.38058  -0.31391
 Alpha virt. eigenvalues --    0.04096   0.04726   0.05750   0.05855   0.06533
 Alpha virt. eigenvalues --    0.08035   0.09163   0.10112   0.10893   0.11799
 Alpha virt. eigenvalues --    0.12586   0.13356   0.13678   0.14443   0.15853
 Alpha virt. eigenvalues --    0.16029   0.17782   0.19522   0.19659   0.20562
 Alpha virt. eigenvalues --    0.22219   0.23085   0.23254   0.23617   0.26589
 Alpha virt. eigenvalues --    0.26688   0.27714   0.28383   0.29530   0.30040
 Alpha virt. eigenvalues --    0.30296   0.31334   0.32554   0.33856   0.34171
 Alpha virt. eigenvalues --    0.34790   0.35113   0.35629   0.35756   0.36362
 Alpha virt. eigenvalues --    0.36870   0.37452   0.39035   0.39730   0.41159
 Alpha virt. eigenvalues --    0.41297   0.42975   0.46438   0.49344   0.50037
 Alpha virt. eigenvalues --    0.51008   0.51732   0.53570   0.54284   0.55440
 Alpha virt. eigenvalues --    0.56504   0.56970   0.58567   0.58775   0.61006
 Alpha virt. eigenvalues --    0.61921   0.62823   0.64397   0.65190   0.66352
 Alpha virt. eigenvalues --    0.67238   0.69565   0.69779   0.72742   0.73485
 Alpha virt. eigenvalues --    0.74061   0.75756   0.76341   0.76910   0.77701
 Alpha virt. eigenvalues --    0.79341   0.79604   0.80690   0.80931   0.81861
 Alpha virt. eigenvalues --    0.83400   0.83795   0.84004   0.84614   0.85283
 Alpha virt. eigenvalues --    0.86370   0.86630   0.87382   0.88518   0.89133
 Alpha virt. eigenvalues --    0.89931   0.91011   0.91443   0.92871   0.93944
 Alpha virt. eigenvalues --    0.94127   0.95102   0.96760   0.97444   0.98590
 Alpha virt. eigenvalues --    0.99746   1.00942   1.01814   1.02592   1.03251
 Alpha virt. eigenvalues --    1.04490   1.05441   1.06019   1.07528   1.09052
 Alpha virt. eigenvalues --    1.10250   1.11556   1.13067   1.13938   1.15061
 Alpha virt. eigenvalues --    1.16657   1.18169   1.18904   1.19417   1.21170
 Alpha virt. eigenvalues --    1.23853   1.25404   1.25839   1.27550   1.27970
 Alpha virt. eigenvalues --    1.29018   1.29338   1.32592   1.34490   1.35467
 Alpha virt. eigenvalues --    1.36811   1.38892   1.40404   1.41752   1.43392
 Alpha virt. eigenvalues --    1.45516   1.46941   1.47545   1.48542   1.50039
 Alpha virt. eigenvalues --    1.51050   1.55004   1.56019   1.56772   1.59111
 Alpha virt. eigenvalues --    1.60750   1.63947   1.64592   1.67905   1.73141
 Alpha virt. eigenvalues --    1.75623   1.78780   1.80166   1.80688   1.82421
 Alpha virt. eigenvalues --    1.83179   1.84339   1.85798   1.87647   1.89119
 Alpha virt. eigenvalues --    1.89609   1.90779   1.92963   1.93787   1.95444
 Alpha virt. eigenvalues --    1.96856   1.97596   1.98207   1.98608   1.99467
 Alpha virt. eigenvalues --    2.00538   2.01375   2.02253   2.02822   2.03808
 Alpha virt. eigenvalues --    2.05093   2.05256   2.05932   2.06420   2.07377
 Alpha virt. eigenvalues --    2.08318   2.08919   2.09744   2.10833   2.10929
 Alpha virt. eigenvalues --    2.12483   2.12741   2.14371   2.14654   2.15432
 Alpha virt. eigenvalues --    2.15649   2.16862   2.17960   2.19056   2.20335
 Alpha virt. eigenvalues --    2.21974   2.23592   2.24423   2.24948   2.26841
 Alpha virt. eigenvalues --    2.27771   2.28174   2.30597   2.31969   2.32915
 Alpha virt. eigenvalues --    2.36865   2.37861   2.38052   2.39075   2.39528
 Alpha virt. eigenvalues --    2.41210   2.42977   2.43811   2.44054   2.44222
 Alpha virt. eigenvalues --    2.48259   2.49606   2.50430   2.50844   2.52284
 Alpha virt. eigenvalues --    2.53104   2.53774   2.54601   2.56669   2.56770
 Alpha virt. eigenvalues --    2.58345   2.58928   2.61781   2.62628   2.63517
 Alpha virt. eigenvalues --    2.63944   2.64966   2.66321   2.67827   2.69076
 Alpha virt. eigenvalues --    2.69718   2.71175   2.72397   2.72923   2.74529
 Alpha virt. eigenvalues --    2.75340   2.76828   2.77818   2.78541   2.78798
 Alpha virt. eigenvalues --    2.81614   2.83010   2.83592   2.85519   2.86176
 Alpha virt. eigenvalues --    2.87249   2.88735   2.89391   2.90089   2.91341
 Alpha virt. eigenvalues --    2.91906   2.93844   2.94356   2.94913   2.95815
 Alpha virt. eigenvalues --    2.99730   3.00384   3.01870   3.03457   3.04195
 Alpha virt. eigenvalues --    3.05966   3.06065   3.07957   3.09027   3.10487
 Alpha virt. eigenvalues --    3.12398   3.13402   3.16181   3.17571   3.19553
 Alpha virt. eigenvalues --    3.19882   3.21743   3.25487   3.25891   3.28707
 Alpha virt. eigenvalues --    3.29198   3.31194   3.33202   3.33996   3.34390
 Alpha virt. eigenvalues --    3.36390   3.36932   3.37692   3.39710   3.39736
 Alpha virt. eigenvalues --    3.42439   3.45606   3.46892   3.49060   3.49274
 Alpha virt. eigenvalues --    3.51416   3.54101   3.55996   3.56714   3.58706
 Alpha virt. eigenvalues --    3.62011   3.64050   3.65237   3.67018   3.69555
 Alpha virt. eigenvalues --    3.72296   3.73586   3.75369   3.76353   3.76934
 Alpha virt. eigenvalues --    3.78286   3.79899   3.81190   3.82334   3.84164
 Alpha virt. eigenvalues --    3.87637   3.87799   3.88745   3.91372   3.93410
 Alpha virt. eigenvalues --    3.94815   3.95732   3.99725   4.00157   4.03858
 Alpha virt. eigenvalues --    4.04189   4.09092   4.09290   4.14151   4.16136
 Alpha virt. eigenvalues --    4.17138   4.23499   4.26576   4.30153   4.32164
 Alpha virt. eigenvalues --    4.35561   4.39605   4.63923   4.64363   4.70215
 Alpha virt. eigenvalues --    4.70565   4.85756   4.88351   4.92426   4.93887
 Alpha virt. eigenvalues --    4.97469   5.01492   5.01899   5.06410   5.09073
 Alpha virt. eigenvalues --    5.09725   5.12962   5.17080   5.19042   5.21790
 Alpha virt. eigenvalues --    5.26413   5.29105   5.30733   5.36774   5.37727
 Alpha virt. eigenvalues --    5.39140   5.40799   5.42923   5.43486   5.47164
 Alpha virt. eigenvalues --    5.47744   5.48805   5.49912   5.51585   5.55449
 Alpha virt. eigenvalues --    5.56132   5.59511   5.60095   5.61829   5.63990
 Alpha virt. eigenvalues --    5.66004   5.67934   5.68954   5.70530   5.72341
 Alpha virt. eigenvalues --    5.73214   5.73892   5.74088   5.76055   5.76394
 Alpha virt. eigenvalues --    5.76907   5.78197   5.78695   5.79577   5.80677
 Alpha virt. eigenvalues --    5.82109   5.83567   5.84822   5.86063   5.87652
 Alpha virt. eigenvalues --    5.87765   5.89586   5.91916   5.93505   5.94698
 Alpha virt. eigenvalues --    5.95574   5.96686   5.96875   5.99679   6.00668
 Alpha virt. eigenvalues --    6.01714   6.02988   6.03357   6.04067   6.04500
 Alpha virt. eigenvalues --    6.05942   6.06560   6.07004   6.08222   6.09390
 Alpha virt. eigenvalues --    6.11009   6.11657   6.13114   6.13441   6.14477
 Alpha virt. eigenvalues --    6.15613   6.18405   6.19160   6.20527   6.21778
 Alpha virt. eigenvalues --    6.22420   6.23431   6.25308   6.26544   6.27995
 Alpha virt. eigenvalues --    6.29936   6.30640   6.31107   6.31666   6.33452
 Alpha virt. eigenvalues --    6.34684   6.34726   6.37555   6.38386   6.38924
 Alpha virt. eigenvalues --    6.41603   6.43710   6.44285   6.45049   6.46240
 Alpha virt. eigenvalues --    6.48048   6.50265   6.53200   6.54588   6.55957
 Alpha virt. eigenvalues --    6.56589   6.57832   6.60392   6.62134   6.62889
 Alpha virt. eigenvalues --    6.65273   6.67397   6.69182   6.70797   6.72000
 Alpha virt. eigenvalues --    6.73043   6.76383   6.77042   6.78484   6.80045
 Alpha virt. eigenvalues --    6.80521   6.81748   6.84117   6.87113   6.87604
 Alpha virt. eigenvalues --    6.89139   6.91577   6.93835   6.95109   6.96052
 Alpha virt. eigenvalues --    7.00612   7.01914   7.05652   7.05857   7.08585
 Alpha virt. eigenvalues --    7.10263   7.12850   7.13822   7.14210   7.17159
 Alpha virt. eigenvalues --    7.19038   7.21460   7.23396   7.23694   7.24586
 Alpha virt. eigenvalues --    7.25110   7.28454   7.29912   7.30501   7.32226
 Alpha virt. eigenvalues --    7.33198   7.34905   7.36025   7.36563   7.38271
 Alpha virt. eigenvalues --    7.38544   7.40243   7.40934   7.42986   7.43687
 Alpha virt. eigenvalues --    7.44331   7.46556   7.47861   7.49202   7.49840
 Alpha virt. eigenvalues --    7.51362   7.51704   7.53120   7.53844   7.55528
 Alpha virt. eigenvalues --    7.56916   7.59187   7.60774   7.62196   7.64809
 Alpha virt. eigenvalues --    7.65247   7.66035   7.66862   7.67804   7.68497
 Alpha virt. eigenvalues --    7.70076   7.70537   7.71754   7.74395   7.76037
 Alpha virt. eigenvalues --    7.76494   7.77204   7.78370   7.78957   7.81527
 Alpha virt. eigenvalues --    7.83082   7.83977   7.84977   7.86587   7.88102
 Alpha virt. eigenvalues --    7.89367   7.90240   7.92714   7.92986   7.94047
 Alpha virt. eigenvalues --    7.97092   7.98706   8.00494   8.01237   8.02446
 Alpha virt. eigenvalues --    8.04317   8.05494   8.09135   8.10517   8.14923
 Alpha virt. eigenvalues --    8.16150   8.16994   8.17749   8.18424   8.19737
 Alpha virt. eigenvalues --    8.21166   8.22097   8.22496   8.23471   8.24833
 Alpha virt. eigenvalues --    8.25440   8.25621   8.26163   8.27513   8.28926
 Alpha virt. eigenvalues --    8.30575   8.31409   8.32275   8.34203   8.34805
 Alpha virt. eigenvalues --    8.36585   8.38300   8.38986   8.42606   8.46029
 Alpha virt. eigenvalues --    8.48217   8.48249   8.49137   8.50388   8.51527
 Alpha virt. eigenvalues --    8.52230   8.55951   8.56783   8.61968   8.63603
 Alpha virt. eigenvalues --    8.64382   8.65233   8.66467   8.67913   8.70088
 Alpha virt. eigenvalues --    8.75858   8.77419   8.80120   8.80631   8.80769
 Alpha virt. eigenvalues --    8.82767   8.84742   8.88905   8.90532   8.92356
 Alpha virt. eigenvalues --    8.94473   8.98311   9.00234   9.01015   9.04644
 Alpha virt. eigenvalues --    9.09183   9.13849   9.26160   9.29885   9.35833
 Alpha virt. eigenvalues --    9.40076   9.41019   9.44175   9.44544   9.48395
 Alpha virt. eigenvalues --    9.48710   9.49357   9.50392   9.51884   9.53656
 Alpha virt. eigenvalues --    9.55507   9.55933   9.60050   9.61797   9.62332
 Alpha virt. eigenvalues --    9.64995   9.66067   9.72916   9.78196   9.79760
 Alpha virt. eigenvalues --    9.81603   9.82856   9.86452   9.87537   9.90055
 Alpha virt. eigenvalues --    9.91426   9.96179   9.98375  10.01681  10.03348
 Alpha virt. eigenvalues --   10.05007  10.07747  10.09582  10.17780  10.20801
 Alpha virt. eigenvalues --   10.31515  10.40523  10.57886  10.89508  11.58264
 Alpha virt. eigenvalues --   11.72245  11.87632  11.99006  12.01771  12.03694
 Alpha virt. eigenvalues --   12.57717  12.73623  12.75998  12.77983  12.88024
 Alpha virt. eigenvalues --   13.00226  28.42827  28.99514  29.03835  29.11035
 Alpha virt. eigenvalues --   29.16379  29.20971 145.89060 146.50936 146.55076
 Alpha virt. eigenvalues --  146.63474 146.66127 146.70634
          Condensed to atoms (all electrons):
               1          2          3          4          5          6
     1  C    5.357136   0.366546   0.366537   0.373698   0.323469  -0.052935
     2  H    0.366546   0.553015  -0.038608  -0.030882  -0.049510   0.009287
     3  H    0.366537  -0.038608   0.551086  -0.030764  -0.048709  -0.005945
     4  H    0.373698  -0.030882  -0.030764   0.533601  -0.047183  -0.003710
     5  C    0.323469  -0.049510  -0.048709  -0.047183   5.337759   0.361820
     6  H   -0.052935   0.009287  -0.005945  -0.003710   0.361820   0.577110
     7  H   -0.053166  -0.005877   0.009484  -0.004044   0.361903  -0.042803
     8  C   -0.064886  -0.004527  -0.004660   0.010329   0.316875  -0.055007
     9  H   -0.002061   0.000039   0.003897  -0.000181  -0.056001  -0.006267
    10  H   -0.001262   0.003795  -0.000105  -0.000036  -0.056506   0.009519
    11  C    0.007718  -0.000388  -0.000320  -0.000663  -0.055630  -0.001436
    12  H   -0.000112   0.000094  -0.000055  -0.000011  -0.002205   0.000143
    13  H   -0.000273  -0.000059   0.000092  -0.000005  -0.002085   0.003595
    14  C   -0.001177  -0.000031  -0.000040   0.000032   0.006251  -0.000060
    15  H   -0.000059  -0.000032   0.000005  -0.000003  -0.001097  -0.000049
    16  C    0.000023   0.000001  -0.000011  -0.000000  -0.000282  -0.000021
    17  H   -0.000004  -0.000000  -0.000000   0.000000   0.000057  -0.000000
    18  H    0.000002  -0.000001   0.000000  -0.000001  -0.000195  -0.000031
               7          8          9         10         11         12
     1  C   -0.053166  -0.064886  -0.002061  -0.001262   0.007718  -0.000112
     2  H   -0.005877  -0.004527   0.000039   0.003795  -0.000388   0.000094
     3  H    0.009484  -0.004660   0.003897  -0.000105  -0.000320  -0.000055
     4  H   -0.004044   0.010329  -0.000181  -0.000036  -0.000663  -0.000011
     5  C    0.361903   0.316875  -0.056001  -0.056506  -0.055630  -0.002205
     6  H   -0.042803  -0.055007  -0.006267   0.009519  -0.001436   0.000143
     7  H    0.582542  -0.056757   0.009376  -0.006306  -0.002300   0.005077
     8  C   -0.056757   5.420049   0.362190   0.361302   0.302584  -0.068671
     9  H    0.009376   0.362190   0.555181  -0.044039  -0.048478   0.009345
    10  H   -0.006306   0.361302  -0.044039   0.583873  -0.058358  -0.005112
    11  C   -0.002300   0.302584  -0.048478  -0.058358   5.310348   0.375611
    12  H    0.005077  -0.068671   0.009345  -0.005112   0.375611   0.570529
    13  H    0.000261  -0.054529  -0.005418   0.008475   0.347475  -0.041923
    14  C   -0.000005  -0.078850  -0.000397  -0.000997   0.342278  -0.062735
    15  H    0.000102  -0.001588   0.000676   0.003580  -0.085329  -0.002915
    16  C   -0.000045  -0.000511   0.002495  -0.000199  -0.045659   0.003009
    17  H   -0.000001  -0.000575  -0.000118  -0.000039   0.006667  -0.000484
    18  H    0.000010  -0.000812   0.000325   0.000022  -0.010323   0.000100
              13         14         15         16         17         18
     1  C   -0.000273  -0.001177  -0.000059   0.000023  -0.000004   0.000002
     2  H   -0.000059  -0.000031  -0.000032   0.000001  -0.000000  -0.000001
     3  H    0.000092  -0.000040   0.000005  -0.000011  -0.000000   0.000000
     4  H   -0.000005   0.000032  -0.000003  -0.000000   0.000000  -0.000001
     5  C   -0.002085   0.006251  -0.001097  -0.000282   0.000057  -0.000195
     6  H    0.003595  -0.000060  -0.000049  -0.000021  -0.000000  -0.000031
     7  H    0.000261  -0.000005   0.000102  -0.000045  -0.000001   0.000010
     8  C   -0.054529  -0.078850  -0.001588  -0.000511  -0.000575  -0.000812
     9  H   -0.005418  -0.000397   0.000676   0.002495  -0.000118   0.000325
    10  H    0.008475  -0.000997   0.003580  -0.000199  -0.000039   0.000022
    11  C    0.347475   0.342278  -0.085329  -0.045659   0.006667  -0.010323
    12  H   -0.041923  -0.062735  -0.002915   0.003009  -0.000484   0.000100
    13  H    0.595501  -0.039773   0.008499  -0.013698  -0.000406   0.005820
    14  C   -0.039773   5.118879   0.413766   0.542080  -0.048614  -0.051899
    15  H    0.008499   0.413766   0.539278  -0.063279  -0.010396   0.009453
    16  C   -0.013698   0.542080  -0.063279   5.275164   0.401227   0.387903
    17  H   -0.000406  -0.048614  -0.010396   0.401227   0.492609  -0.046518
    18  H    0.005820  -0.051899   0.009453   0.387903  -0.046518   0.536555
 Mulliken charges:
               1
     1  C   -0.619193
     2  H    0.197138
     3  H    0.198116
     4  H    0.199822
     5  C   -0.388729
     6  H    0.206792
     7  H    0.202550
     8  C   -0.381957
     9  H    0.219435
    10  H    0.202393
    11  C   -0.383797
    12  H    0.220315
    13  H    0.188448
    14  C   -0.138708
    15  H    0.189385
    16  C   -0.488197
    17  H    0.206597
    18  H    0.169590
 Sum of Mulliken charges =  -0.00000
 Mulliken charges with hydrogens summed into heavy atoms:
               1
     1  C   -0.024117
     5  C    0.020612
     8  C    0.039871
    11  C    0.024967
    14  C    0.050677
    16  C   -0.112010
 Electronic spatial extent (au):  <R**2>=           1028.1313
 Charge=             -0.0000 electrons
 Dipole moment (field-independent basis, Debye):
    X=             -0.4343    Y=              0.1002    Z=              0.1023  Tot=              0.4573
 Quadrupole moment (field-independent basis, Debye-Ang):
   XX=            -41.5061   YY=            -41.2140   ZZ=            -39.8005
   XY=             -0.8736   XZ=             -0.5961   YZ=             -1.2738
 Traceless Quadrupole moment (field-independent basis, Debye-Ang):
   XX=             -0.6659   YY=             -0.3738   ZZ=              1.0397
   XY=             -0.8736   XZ=             -0.5961   YZ=             -1.2738
 Octapole moment (field-independent basis, Debye-Ang**2):
  XXX=              0.3947  YYY=              0.7618  ZZZ=              0.5284  XYY=             -1.2133
  XXY=             -2.9000  XXZ=             -3.2357  XZZ=             -0.8091  YZZ=              0.4613
  YYZ=              0.7056  XYZ=             -3.0764
 Hexadecapole moment (field-independent basis, Debye-Ang**3):
 XXXX=          -1222.5838 YYYY=           -133.6338 ZZZZ=           -101.7906 XXXY=            -30.5015
 XXXZ=            -15.4777 YYYX=             -0.2034 YYYZ=             -2.5135 ZZZX=             -0.3194
 ZZZY=             -2.1390 XXYY=           -229.0200 XXZZ=           -223.3540 YYZZ=            -35.1087
 XXYZ=             -9.4109 YYXZ=              0.8148 ZZXY=              2.5349
 N-N= 2.270961818356D+02 E-N=-9.994913693709D+02  KE= 2.344660672513D+02
 PrsmSu:  requested number of processors reduced to:  20 ShMem   1 Linda.
 No NMR shielding tensors so no spin-rotation constants.
 Leave Link  601 at Fri Apr 16 23:30:35 2021, MaxMem=   104857600 cpu:             394.0 elap:               8.7
 (Enter /s/ls4/users/knvvv/bin/g16sse/l801.exe)
 DoSCS=F DFT=T ScalE2(SS,OS)=  1.000000  1.000000
 Range of M.O.s used for correlation:     1   702
 NBasis=   702 NAE=    24 NBE=    24 NFC=     0 NFV=     0
 NROrb=    702 NOA=    24 NOB=    24 NVA=   678 NVB=   678

 **** Warning!!: The largest alpha MO coefficient is  0.30986353D+02

 Leave Link  801 at Fri Apr 16 23:30:35 2021, MaxMem=   104857600 cpu:               2.7 elap:               0.1
 (Enter /s/ls4/users/knvvv/bin/g16sse/l914.exe)
 RHF ground state
 Doing stability rather than CIS.
 Two-electron integrals replicated using symmetry.
 MDV=   104857600 DFT=T DoStab=T Mixed=T DoRPA=F DoScal=F NonHer=F
 Making orbital integer symmetry assigments:
 Orbital symmetries:
       Occupied  (A) (A) (A) (A) (A) (A) (A) (A) (A) (A) (A) (A)
                 (A) (A) (A) (A) (A) (A) (A) (A) (A) (A) (A) (A)
       Virtual   (A) (A) (A) (A) (A) (A) (A) (A) (A) (A) (A) (A)
                 (A) (A) (A) (A) (A) (A) (A) (A) (A) (A) (A) (A)
                 (A) (A) (A) (A) (A) (A) (A) (A) (A) (A) (A) (A)
                 (A) (A) (A) (A) (A) (A) (A) (A) (A) (A) (A) (A)
                 (A) (A) (A) (A) (A) (A) (A) (A) (A) (A) (A) (A)
                 (A) (A) (A) (A) (A) (A) (A) (A) (A) (A) (A) (A)
                 (A) (A) (A) (A) (A) (A) (A) (A) (A) (A) (A) (A)
                 (A) (A) (A) (A) (A) (A) (A) (A) (A) (A) (A) (A)
                 (A) (A) (A) (A) (A) (A) (A) (A) (A) (A) (A) (A)
                 (A) (A) (A) (A) (A) (A) (A) (A) (A) (A) (A) (A)
                 (A) (A) (A) (A) (A) (A) (A) (A) (A) (A) (A) (A)
                 (A) (A) (A) (A) (A) (A) (A) (A) (A) (A) (A) (A)
                 (A) (A) (A) (A) (A) (A) (A) (A) (A) (A) (A) (A)
                 (A) (A) (A) (A) (A) (A) (A) (A) (A) (A) (A) (A)
                 (A) (A) (A) (A) (A) (A) (A) (A) (A) (A) (A) (A)
                 (A) (A) (A) (A) (A) (A) (A) (A) (A) (A) (A) (A)
                 (A) (A) (A) (A) (A) (A) (A) (A) (A) (A) (A) (A)
                 (A) (A) (A) (A) (A) (A) (A) (A) (A) (A) (A) (A)
                 (A) (A) (A) (A) (A) (A) (A) (A) (A) (A) (A) (A)
                 (A) (A) (A) (A) (A) (A) (A) (A) (A) (A) (A) (A)
                 (A) (A) (A) (A) (A) (A) (A) (A) (A) (A) (A) (A)
                 (A) (A) (A) (A) (A) (A) (A) (A) (A) (A) (A) (A)
                 (A) (A) (A) (A) (A) (A) (A) (A) (A) (A) (A) (A)
                 (A) (A) (A) (A) (A) (A) (A) (A) (A) (A) (A) (A)
                 (A) (A) (A) (A) (A) (A) (A) (A) (A) (A) (A) (A)
                 (A) (A) (A) (A) (A) (A) (A) (A) (A) (A) (A) (A)
                 (A) (A) (A) (A) (A) (A) (A) (A) (A) (A) (A) (A)
                 (A) (A) (A) (A) (A) (A) (A) (A) (A) (A) (A) (A)
                 (A) (A) (A) (A) (A) (A) (A) (A) (A) (A) (A) (A)
                 (A) (A) (A) (A) (A) (A) (A) (A) (A) (A) (A) (A)
                 (A) (A) (A) (A) (A) (A) (A) (A) (A) (A) (A) (A)
                 (A) (A) (A) (A) (A) (A) (A) (A) (A) (A) (A) (A)
                 (A) (A) (A) (A) (A) (A) (A) (A) (A) (A) (A) (A)
                 (A) (A) (A) (A) (A) (A) (A) (A) (A) (A) (A) (A)
                 (A) (A) (A) (A) (A) (A) (A) (A) (A) (A) (A) (A)
                 (A) (A) (A) (A) (A) (A) (A) (A) (A) (A) (A) (A)
                 (A) (A) (A) (A) (A) (A) (A) (A) (A) (A) (A) (A)
                 (A) (A) (A) (A) (A) (A) (A) (A) (A) (A) (A) (A)
                 (A) (A) (A) (A) (A) (A) (A) (A) (A) (A) (A) (A)
                 (A) (A) (A) (A) (A) (A) (A) (A) (A) (A) (A) (A)
                 (A) (A) (A) (A) (A) (A) (A) (A) (A) (A) (A) (A)
                 (A) (A) (A) (A) (A) (A) (A) (A) (A) (A) (A) (A)
                 (A) (A) (A) (A) (A) (A) (A) (A) (A) (A) (A) (A)
                 (A) (A) (A) (A) (A) (A) (A) (A) (A) (A) (A) (A)
                 (A) (A) (A) (A) (A) (A) (A) (A) (A) (A) (A) (A)
                 (A) (A) (A) (A) (A) (A) (A) (A) (A) (A) (A) (A)
                 (A) (A) (A) (A) (A) (A) (A) (A) (A) (A) (A) (A)
                 (A) (A) (A) (A) (A) (A) (A) (A) (A) (A) (A) (A)
                 (A) (A) (A) (A) (A) (A) (A) (A) (A) (A) (A) (A)
                 (A) (A) (A) (A) (A) (A) (A) (A) (A) (A) (A) (A)
                 (A) (A) (A) (A) (A) (A) (A) (A) (A) (A) (A) (A)
                 (A) (A) (A) (A) (A) (A) (A) (A) (A) (A) (A) (A)
                 (A) (A) (A) (A) (A) (A) (A) (A) (A) (A) (A) (A)
                 (A) (A) (A) (A) (A) (A) (A) (A) (A) (A) (A) (A)
                 (A) (A) (A) (A) (A) (A) (A) (A) (A) (A) (A) (A)
                 (A) (A) (A) (A) (A) (A) (A) (A) (A) (A) (A) (A)
                 (A) (A) (A) (A) (A) (A)
    24 initial guesses have been made.
 Convergence on wavefunction:    0.001000000000000
 Davidson Disk Diagonalization:  ConvIn= 1.00D-03 SkipCon=T Conv= 1.00D-03.
 Max sub-space:  2000 roots to seek:    24 dimension of matrix:        32544
 Iteration     1 Dimension    24 NMult     0 NNew     24
 Estimated number of processors is:   12
 CISAX will form     1 AO SS matrices at one time.
 NMat=     1 NSing=     1 JSym2X= 0.
 FoFJK:  IHMeth= 1 ICntrl=       0 DoSepK=F KAlg= 0 I1Cent=           0 FoldK=F
 IRaf= 880000000 NMat=       1 IRICut=       1 DoRegI=T DoRafI=F ISym2E= 0 IDoP0=0 IntGTp=1.
 FoFCou: FMM=F IPFlag=           0 FMFlag=      100000 FMFlg1=           0
         NFxFlg=           0 DoJE=F BraDBF=F KetDBF=F FulRan=T
         wScrn=  0.000000 ICntrl=         0 IOpCl=  0 I1Cent=           0 NGrid=           0
         NMat0=    1 NMatS0=      1 NMatT0=    0 NMatD0=    1 NMtDS0=    0 NMtDT0=    0
 Symmetry not used in FoFCou.
 CoulSu:  requested number of processors reduced to:  18 ShMem   1 Linda.
 CalDSu:  requested number of processors reduced to:  37 ShMem   1 Linda.
 NMat=     1 NSing=     1 JSym2X= 0.
 CoulSu:  requested number of processors reduced to:  18 ShMem   1 Linda.
 CalDSu:  requested number of processors reduced to:  37 ShMem   1 Linda.
 NMat=     1 NSing=     1 JSym2X= 0.
 CoulSu:  requested number of processors reduced to:  18 ShMem   1 Linda.
 CalDSu:  requested number of processors reduced to:  37 ShMem   1 Linda.
 NMat=     1 NSing=     1 JSym2X= 0.
 CoulSu:  requested number of processors reduced to:  18 ShMem   1 Linda.
 CalDSu:  requested number of processors reduced to:  37 ShMem   1 Linda.
 NMat=     1 NSing=     1 JSym2X= 0.
 CoulSu:  requested number of processors reduced to:  18 ShMem   1 Linda.
 CalDSu:  requested number of processors reduced to:  37 ShMem   1 Linda.
 NMat=     1 NSing=     1 JSym2X= 0.
 CoulSu:  requested number of processors reduced to:  18 ShMem   1 Linda.
 CalDSu:  requested number of processors reduced to:  37 ShMem   1 Linda.
 NMat=     1 NSing=     1 JSym2X= 0.
 CoulSu:  requested number of processors reduced to:  18 ShMem   1 Linda.
 CalDSu:  requested number of processors reduced to:  37 ShMem   1 Linda.
 NMat=     1 NSing=     1 JSym2X= 0.
 CoulSu:  requested number of processors reduced to:  18 ShMem   1 Linda.
 CalDSu:  requested number of processors reduced to:  37 ShMem   1 Linda.
 NMat=     1 NSing=     1 JSym2X= 0.
 CoulSu:  requested number of processors reduced to:  18 ShMem   1 Linda.
 CalDSu:  requested number of processors reduced to:  37 ShMem   1 Linda.
 NMat=     1 NSing=     1 JSym2X= 0.
 CoulSu:  requested number of processors reduced to:  18 ShMem   1 Linda.
 CalDSu:  requested number of processors reduced to:  37 ShMem   1 Linda.
 NMat=     1 NSing=     1 JSym2X= 0.
 CoulSu:  requested number of processors reduced to:  18 ShMem   1 Linda.
 CalDSu:  requested number of processors reduced to:  37 ShMem   1 Linda.
 NMat=     1 NSing=     1 JSym2X= 0.
 CoulSu:  requested number of processors reduced to:  18 ShMem   1 Linda.
 CalDSu:  requested number of processors reduced to:  37 ShMem   1 Linda.
 NMat=     1 NSing=     0 JSym2X= 0.
 CoulSu:  requested number of processors reduced to:  18 ShMem   1 Linda.
 CalDSu:  requested number of processors reduced to:  37 ShMem   1 Linda.
 NMat=     1 NSing=     0 JSym2X= 0.
 CoulSu:  requested number of processors reduced to:  18 ShMem   1 Linda.
 CalDSu:  requested number of processors reduced to:  37 ShMem   1 Linda.
 NMat=     1 NSing=     0 JSym2X= 0.
 CoulSu:  requested number of processors reduced to:  18 ShMem   1 Linda.
 CalDSu:  requested number of processors reduced to:  37 ShMem   1 Linda.
 NMat=     1 NSing=     0 JSym2X= 0.
 CoulSu:  requested number of processors reduced to:  18 ShMem   1 Linda.
 CalDSu:  requested number of processors reduced to:  37 ShMem   1 Linda.
 NMat=     1 NSing=     0 JSym2X= 0.
 CoulSu:  requested number of processors reduced to:  18 ShMem   1 Linda.
 CalDSu:  requested number of processors reduced to:  37 ShMem   1 Linda.
 NMat=     1 NSing=     0 JSym2X= 0.
 CoulSu:  requested number of processors reduced to:  18 ShMem   1 Linda.
 CalDSu:  requested number of processors reduced to:  37 ShMem   1 Linda.
 NMat=     1 NSing=     0 JSym2X= 0.
 CoulSu:  requested number of processors reduced to:  18 ShMem   1 Linda.
 CalDSu:  requested number of processors reduced to:  37 ShMem   1 Linda.
 NMat=     1 NSing=     0 JSym2X= 0.
 CoulSu:  requested number of processors reduced to:  18 ShMem   1 Linda.
 CalDSu:  requested number of processors reduced to:  37 ShMem   1 Linda.
 NMat=     1 NSing=     0 JSym2X= 0.
 CoulSu:  requested number of processors reduced to:  18 ShMem   1 Linda.
 CalDSu:  requested number of processors reduced to:  37 ShMem   1 Linda.
 NMat=     1 NSing=     0 JSym2X= 0.
 CoulSu:  requested number of processors reduced to:  18 ShMem   1 Linda.
 CalDSu:  requested number of processors reduced to:  37 ShMem   1 Linda.
 NMat=     1 NSing=     0 JSym2X= 0.
 CoulSu:  requested number of processors reduced to:  18 ShMem   1 Linda.
 CalDSu:  requested number of processors reduced to:  37 ShMem   1 Linda.
 NMat=     1 NSing=     0 JSym2X= 0.
 CoulSu:  requested number of processors reduced to:  18 ShMem   1 Linda.
 CalDSu:  requested number of processors reduced to:  37 ShMem   1 Linda.
 New state      1 was old state      2
 Excitation Energies [eV] at current iteration:
 Root      1 :     4.455179359185731
 Root      2 :     7.615495334771913
 Root      3 :     7.719724833081226
 Root      4 :     7.874717619582138
 Root      5 :     7.879231093261162
 Root      6 :     8.158982185937907
 Root      7 :     8.159673609034931
 Root      8 :     8.459887320992644
 Root      9 :     8.508824408283999
 Root     10 :     8.586433424092574
 Root     11 :     8.909174855971333
 Root     12 :     8.940845525647738
 Root     13 :     9.010970103226738
 Root     14 :     9.222994187140516
 Root     15 :     9.225436865991181
 Root     16 :     9.330249031743765
 Root     17 :     9.410310993054024
 Root     18 :     9.433216608241406
 Root     19 :     9.478723586422557
 Root     20 :     9.580156860059358
 Root     21 :     9.602353256364204
 Root     22 :     9.699618620173371
 Root     23 :     9.722278619634299
 Root     24 :    12.377334458823570
 Iteration     2 Dimension    48 NMult    24 NNew     24
 Estimated number of processors is:   12
 CISAX will form     1 AO SS matrices at one time.
 NMat=     1 NSing=     1 JSym2X= 0.
 CoulSu:  requested number of processors reduced to:  18 ShMem   1 Linda.
 CalDSu:  requested number of processors reduced to:  37 ShMem   1 Linda.
 NMat=     1 NSing=     1 JSym2X= 0.
 CoulSu:  requested number of processors reduced to:  18 ShMem   1 Linda.
 CalDSu:  requested number of processors reduced to:  37 ShMem   1 Linda.
 NMat=     1 NSing=     1 JSym2X= 0.
 CoulSu:  requested number of processors reduced to:  18 ShMem   1 Linda.
 CalDSu:  requested number of processors reduced to:  37 ShMem   1 Linda.
 NMat=     1 NSing=     1 JSym2X= 0.
 CoulSu:  requested number of processors reduced to:  18 ShMem   1 Linda.
 CalDSu:  requested number of processors reduced to:  37 ShMem   1 Linda.
 NMat=     1 NSing=     1 JSym2X= 0.
 CoulSu:  requested number of processors reduced to:  18 ShMem   1 Linda.
 CalDSu:  requested number of processors reduced to:  37 ShMem   1 Linda.
 NMat=     1 NSing=     1 JSym2X= 0.
 CoulSu:  requested number of processors reduced to:  18 ShMem   1 Linda.
 CalDSu:  requested number of processors reduced to:  37 ShMem   1 Linda.
 NMat=     1 NSing=     1 JSym2X= 0.
 CoulSu:  requested number of processors reduced to:  18 ShMem   1 Linda.
 CalDSu:  requested number of processors reduced to:  37 ShMem   1 Linda.
 NMat=     1 NSing=     1 JSym2X= 0.
 CoulSu:  requested number of processors reduced to:  18 ShMem   1 Linda.
 CalDSu:  requested number of processors reduced to:  37 ShMem   1 Linda.
 NMat=     1 NSing=     1 JSym2X= 0.
 CoulSu:  requested number of processors reduced to:  18 ShMem   1 Linda.
 CalDSu:  requested number of processors reduced to:  37 ShMem   1 Linda.
 NMat=     1 NSing=     1 JSym2X= 0.
 CoulSu:  requested number of processors reduced to:  18 ShMem   1 Linda.
 CalDSu:  requested number of processors reduced to:  37 ShMem   1 Linda.
 NMat=     1 NSing=     1 JSym2X= 0.
 CoulSu:  requested number of processors reduced to:  18 ShMem   1 Linda.
 CalDSu:  requested number of processors reduced to:  37 ShMem   1 Linda.
 NMat=     1 NSing=     1 JSym2X= 0.
 CoulSu:  requested number of processors reduced to:  18 ShMem   1 Linda.
 CalDSu:  requested number of processors reduced to:  37 ShMem   1 Linda.
 NMat=     1 NSing=     0 JSym2X= 0.
 CoulSu:  requested number of processors reduced to:  18 ShMem   1 Linda.
 CalDSu:  requested number of processors reduced to:  37 ShMem   1 Linda.
 NMat=     1 NSing=     0 JSym2X= 0.
 CoulSu:  requested number of processors reduced to:  18 ShMem   1 Linda.
 CalDSu:  requested number of processors reduced to:  37 ShMem   1 Linda.
 NMat=     1 NSing=     0 JSym2X= 0.
 CoulSu:  requested number of processors reduced to:  18 ShMem   1 Linda.
 CalDSu:  requested number of processors reduced to:  37 ShMem   1 Linda.
 NMat=     1 NSing=     0 JSym2X= 0.
 CoulSu:  requested number of processors reduced to:  18 ShMem   1 Linda.
 CalDSu:  requested number of processors reduced to:  37 ShMem   1 Linda.
 NMat=     1 NSing=     0 JSym2X= 0.
 CoulSu:  requested number of processors reduced to:  18 ShMem   1 Linda.
 CalDSu:  requested number of processors reduced to:  37 ShMem   1 Linda.
 NMat=     1 NSing=     0 JSym2X= 0.
 CoulSu:  requested number of processors reduced to:  18 ShMem   1 Linda.
 CalDSu:  requested number of processors reduced to:  37 ShMem   1 Linda.
 NMat=     1 NSing=     0 JSym2X= 0.
 CoulSu:  requested number of processors reduced to:  18 ShMem   1 Linda.
 CalDSu:  requested number of processors reduced to:  37 ShMem   1 Linda.
 NMat=     1 NSing=     0 JSym2X= 0.
 CoulSu:  requested number of processors reduced to:  18 ShMem   1 Linda.
 CalDSu:  requested number of processors reduced to:  37 ShMem   1 Linda.
 NMat=     1 NSing=     0 JSym2X= 0.
 CoulSu:  requested number of processors reduced to:  18 ShMem   1 Linda.
 CalDSu:  requested number of processors reduced to:  37 ShMem   1 Linda.
 NMat=     1 NSing=     0 JSym2X= 0.
 CoulSu:  requested number of processors reduced to:  18 ShMem   1 Linda.
 CalDSu:  requested number of processors reduced to:  37 ShMem   1 Linda.
 NMat=     1 NSing=     0 JSym2X= 0.
 CoulSu:  requested number of processors reduced to:  18 ShMem   1 Linda.
 CalDSu:  requested number of processors reduced to:  37 ShMem   1 Linda.
 NMat=     1 NSing=     0 JSym2X= 0.
 CoulSu:  requested number of processors reduced to:  18 ShMem   1 Linda.
 CalDSu:  requested number of processors reduced to:  37 ShMem   1 Linda.
 Root      1 not converged, maximum delta is    0.101685882045100
 Excitation Energies [eV] at current iteration:
 Root      1 :     3.535655504788044   Change is   -0.919523854397688
 Root      2 :     7.481968271742458   Change is   -0.237756561338767
 Root      3 :     7.503580730309643   Change is   -0.111914604462270
 Root      4 :     7.721418400418582   Change is   -0.157812692842580
 Root      5 :     7.764679274204870   Change is   -0.110038345377268
 Root      6 :     7.777586071738156   Change is   -0.808847352354418
 Root      7 :     7.988965876518415   Change is   -0.170016309419492
 Root      8 :     8.064784177740080   Change is   -0.094889431294850
 Root      9 :     8.361261298281628   Change is   -0.098626022711017
 Root     10 :     8.362571828724771   Change is   -0.146252579559228
 Root     11 :     8.491181197632747   Change is   -0.519788905593991
 Root     12 :     8.710045285173253   Change is   -0.230800240474486
 Root     13 :     8.753425002864555   Change is   -0.155749853106779
 Root     14 :     8.819417735727889   Change is   -0.510831296015876
 Root     15 :     8.991285693615527   Change is   -0.234151172375654
 Root     16 :     9.012163214240578   Change is   -0.210830972899938
 Root     17 :     9.062657174515653   Change is   -0.370559433725752
 Root     18 :     9.080856745543926   Change is   -0.329454247510097
 Root     19 :     9.230927651310703   Change is   -0.349229208748655
 Root     20 :     9.260293631392095   Change is   -0.218429955030462
 Root     21 :     9.393382882570551   Change is   -0.328895737063747
 Root     22 :     9.399748186557487   Change is   -0.202605069806717
 Root     23 :     9.494215466887782   Change is   -0.205403153285590
 Root     24 :     9.913471835713183   Change is   -2.463862623110389
 Iteration     3 Dimension    54 NMult    48 NNew      6
 Estimated number of processors is:   12
 CISAX will form     1 AO SS matrices at one time.
 NMat=     1 NSing=     1 JSym2X= 0.
 CoulSu:  requested number of processors reduced to:  18 ShMem   1 Linda.
 CalDSu:  requested number of processors reduced to:  37 ShMem   1 Linda.
 NMat=     1 NSing=     1 JSym2X= 0.
 CoulSu:  requested number of processors reduced to:  18 ShMem   1 Linda.
 CalDSu:  requested number of processors reduced to:  37 ShMem   1 Linda.
 NMat=     1 NSing=     1 JSym2X= 0.
 CoulSu:  requested number of processors reduced to:  18 ShMem   1 Linda.
 CalDSu:  requested number of processors reduced to:  37 ShMem   1 Linda.
 NMat=     1 NSing=     0 JSym2X= 0.
 CoulSu:  requested number of processors reduced to:  18 ShMem   1 Linda.
 CalDSu:  requested number of processors reduced to:  37 ShMem   1 Linda.
 NMat=     1 NSing=     0 JSym2X= 0.
 CoulSu:  requested number of processors reduced to:  18 ShMem   1 Linda.
 CalDSu:  requested number of processors reduced to:  37 ShMem   1 Linda.
 NMat=     1 NSing=     0 JSym2X= 0.
 CoulSu:  requested number of processors reduced to:  18 ShMem   1 Linda.
 CalDSu:  requested number of processors reduced to:  37 ShMem   1 Linda.
 Root      1 not converged, maximum delta is    0.011311082641075
 Excitation Energies [eV] at current iteration:
 Root      1 :     3.478891270313086   Change is   -0.056764234474958
 Root      2 :     7.455369331004430   Change is   -0.026598940738028
 Root      3 :     7.488599958325346   Change is   -0.014980771984297
 Root      4 :     7.678147941528189   Change is   -0.043270458890393
 Root      5 :     7.748001505661419   Change is   -0.016677768543452
 Root      6 :     8.042622363801589   Change is   -0.022161813938490
 Iteration     4 Dimension    60 NMult    54 NNew      6
 Estimated number of processors is:   12
 CISAX will form     1 AO SS matrices at one time.
 NMat=     1 NSing=     1 JSym2X= 0.
 CoulSu:  requested number of processors reduced to:  18 ShMem   1 Linda.
 CalDSu:  requested number of processors reduced to:  37 ShMem   1 Linda.
 NMat=     1 NSing=     1 JSym2X= 0.
 CoulSu:  requested number of processors reduced to:  18 ShMem   1 Linda.
 CalDSu:  requested number of processors reduced to:  37 ShMem   1 Linda.
 NMat=     1 NSing=     1 JSym2X= 0.
 CoulSu:  requested number of processors reduced to:  18 ShMem   1 Linda.
 CalDSu:  requested number of processors reduced to:  37 ShMem   1 Linda.
 NMat=     1 NSing=     0 JSym2X= 0.
 CoulSu:  requested number of processors reduced to:  18 ShMem   1 Linda.
 CalDSu:  requested number of processors reduced to:  37 ShMem   1 Linda.
 NMat=     1 NSing=     0 JSym2X= 0.
 CoulSu:  requested number of processors reduced to:  18 ShMem   1 Linda.
 CalDSu:  requested number of processors reduced to:  37 ShMem   1 Linda.
 NMat=     1 NSing=     0 JSym2X= 0.
 CoulSu:  requested number of processors reduced to:  18 ShMem   1 Linda.
 CalDSu:  requested number of processors reduced to:  37 ShMem   1 Linda.
 Root      1 not converged, maximum delta is    0.001814497788495
 Excitation Energies [eV] at current iteration:
 Root      1 :     3.475344376914994   Change is   -0.003546893398092
 Root      2 :     7.452863019231551   Change is   -0.002506311772879
 Root      3 :     7.486472396274902   Change is   -0.002127562050444
 Root      4 :     7.627009380622835   Change is   -0.051138560905354
 Root      5 :     7.743234309225620   Change is   -0.004767196435798
 Root      6 :     8.037697934329740   Change is   -0.004924429471851
 Iteration     5 Dimension    66 NMult    60 NNew      6
 Estimated number of processors is:   12
 CISAX will form     1 AO SS matrices at one time.
 NMat=     1 NSing=     1 JSym2X= 0.
 CoulSu:  requested number of processors reduced to:  18 ShMem   1 Linda.
 CalDSu:  requested number of processors reduced to:  37 ShMem   1 Linda.
 NMat=     1 NSing=     1 JSym2X= 0.
 CoulSu:  requested number of processors reduced to:  18 ShMem   1 Linda.
 CalDSu:  requested number of processors reduced to:  37 ShMem   1 Linda.
 NMat=     1 NSing=     1 JSym2X= 0.
 CoulSu:  requested number of processors reduced to:  18 ShMem   1 Linda.
 CalDSu:  requested number of processors reduced to:  37 ShMem   1 Linda.
 NMat=     1 NSing=     0 JSym2X= 0.
 CoulSu:  requested number of processors reduced to:  18 ShMem   1 Linda.
 CalDSu:  requested number of processors reduced to:  37 ShMem   1 Linda.
 NMat=     1 NSing=     0 JSym2X= 0.
 CoulSu:  requested number of processors reduced to:  18 ShMem   1 Linda.
 CalDSu:  requested number of processors reduced to:  37 ShMem   1 Linda.
 NMat=     1 NSing=     0 JSym2X= 0.
 CoulSu:  requested number of processors reduced to:  18 ShMem   1 Linda.
 CalDSu:  requested number of processors reduced to:  37 ShMem   1 Linda.
 Root      1 has converged.
 Excitation Energies [eV] at current iteration:
 Root      1 :     3.475180794423886   Change is   -0.000163582491108
 Root      2 :     7.452452035714994   Change is   -0.000410983516558
 Root      3 :     7.485874936123967   Change is   -0.000597460150935
 Root      4 :     7.613069015565793   Change is   -0.013940365057043
 Root      5 :     7.740920576339972   Change is   -0.002313732885648
 Root      6 :     8.035474252860995   Change is   -0.002223681468745
 Convergence achieved on expansion vectors.
 ***********************************************************************
 Stability analysis using <AA,BB:AA,BB> singles matrix:
 ***********************************************************************
 1PDM for each excited state written to RWF  633
 Ground to excited state transition densities written to RWF  633

 Eigenvectors of the stability matrix:
 
 Eigenvector   1:      Triplet-A    Eigenvalue= 0.1277105  <S**2>=2.000
      24 -> 25         0.63795
      24 -> 26        -0.15341
 The wavefunction is stable under the perturbations considered.
 Leave Link  914 at Sat Apr 17 00:48:17 2021, MaxMem=   104857600 cpu:          128960.4 elap:            4662.1
 (Enter /s/ls4/users/knvvv/bin/g16sse/l508.exe)
 The wavefunction is already stable.
 Leave Link  508 at Sat Apr 17 00:48:17 2021, MaxMem=   104857600 cpu:               2.4 elap:               0.1
 (Enter /s/ls4/users/knvvv/bin/g16sse/l601.exe)
 Copying SCF densities to generalized density rwf, IOpCl= 0 IROHF=0.

 **********************************************************************

            Population analysis using the SCF density.

 **********************************************************************

 Orbital symmetries:
       Occupied  (A) (A) (A) (A) (A) (A) (A) (A) (A) (A) (A) (A)
                 (A) (A) (A) (A) (A) (A) (A) (A) (A) (A) (A) (A)
       Virtual   (A) (A) (A) (A) (A) (A) (A) (A) (A) (A) (A) (A)
                 (A) (A) (A) (A) (A) (A) (A) (A) (A) (A) (A) (A)
                 (A) (A) (A) (A) (A) (A) (A) (A) (A) (A) (A) (A)
                 (A) (A) (A) (A) (A) (A) (A) (A) (A) (A) (A) (A)
                 (A) (A) (A) (A) (A) (A) (A) (A) (A) (A) (A) (A)
                 (A) (A) (A) (A) (A) (A) (A) (A) (A) (A) (A) (A)
                 (A) (A) (A) (A) (A) (A) (A) (A) (A) (A) (A) (A)
                 (A) (A) (A) (A) (A) (A) (A) (A) (A) (A) (A) (A)
                 (A) (A) (A) (A) (A) (A) (A) (A) (A) (A) (A) (A)
                 (A) (A) (A) (A) (A) (A) (A) (A) (A) (A) (A) (A)
                 (A) (A) (A) (A) (A) (A) (A) (A) (A) (A) (A) (A)
                 (A) (A) (A) (A) (A) (A) (A) (A) (A) (A) (A) (A)
                 (A) (A) (A) (A) (A) (A) (A) (A) (A) (A) (A) (A)
                 (A) (A) (A) (A) (A) (A) (A) (A) (A) (A) (A) (A)
                 (A) (A) (A) (A) (A) (A) (A) (A) (A) (A) (A) (A)
                 (A) (A) (A) (A) (A) (A) (A) (A) (A) (A) (A) (A)
                 (A) (A) (A) (A) (A) (A) (A) (A) (A) (A) (A) (A)
                 (A) (A) (A) (A) (A) (A) (A) (A) (A) (A) (A) (A)
                 (A) (A) (A) (A) (A) (A) (A) (A) (A) (A) (A) (A)
                 (A) (A) (A) (A) (A) (A) (A) (A) (A) (A) (A) (A)
                 (A) (A) (A) (A) (A) (A) (A) (A) (A) (A) (A) (A)
                 (A) (A) (A) (A) (A) (A) (A) (A) (A) (A) (A) (A)
                 (A) (A) (A) (A) (A) (A) (A) (A) (A) (A) (A) (A)
                 (A) (A) (A) (A) (A) (A) (A) (A) (A) (A) (A) (A)
                 (A) (A) (A) (A) (A) (A) (A) (A) (A) (A) (A) (A)
                 (A) (A) (A) (A) (A) (A) (A) (A) (A) (A) (A) (A)
                 (A) (A) (A) (A) (A) (A) (A) (A) (A) (A) (A) (A)
                 (A) (A) (A) (A) (A) (A) (A) (A) (A) (A) (A) (A)
                 (A) (A) (A) (A) (A) (A) (A) (A) (A) (A) (A) (A)
                 (A) (A) (A) (A) (A) (A) (A) (A) (A) (A) (A) (A)
                 (A) (A) (A) (A) (A) (A) (A) (A) (A) (A) (A) (A)
                 (A) (A) (A) (A) (A) (A) (A) (A) (A) (A) (A) (A)
                 (A) (A) (A) (A) (A) (A) (A) (A) (A) (A) (A) (A)
                 (A) (A) (A) (A) (A) (A) (A) (A) (A) (A) (A) (A)
                 (A) (A) (A) (A) (A) (A) (A) (A) (A) (A) (A) (A)
                 (A) (A) (A) (A) (A) (A) (A) (A) (A) (A) (A) (A)
                 (A) (A) (A) (A) (A) (A) (A) (A) (A) (A) (A) (A)
                 (A) (A) (A) (A) (A) (A) (A) (A) (A) (A) (A) (A)
                 (A) (A) (A) (A) (A) (A) (A) (A) (A) (A) (A) (A)
                 (A) (A) (A) (A) (A) (A) (A) (A) (A) (A) (A) (A)
                 (A) (A) (A) (A) (A) (A) (A) (A) (A) (A) (A) (A)
                 (A) (A) (A) (A) (A) (A) (A) (A) (A) (A) (A) (A)
                 (A) (A) (A) (A) (A) (A) (A) (A) (A) (A) (A) (A)
                 (A) (A) (A) (A) (A) (A) (A) (A) (A) (A) (A) (A)
                 (A) (A) (A) (A) (A) (A) (A) (A) (A) (A) (A) (A)
                 (A) (A) (A) (A) (A) (A) (A) (A) (A) (A) (A) (A)
                 (A) (A) (A) (A) (A) (A) (A) (A) (A) (A) (A) (A)
                 (A) (A) (A) (A) (A) (A) (A) (A) (A) (A) (A) (A)
                 (A) (A) (A) (A) (A) (A) (A) (A) (A) (A) (A) (A)
                 (A) (A) (A) (A) (A) (A) (A) (A) (A) (A) (A) (A)
                 (A) (A) (A) (A) (A) (A) (A) (A) (A) (A) (A) (A)
                 (A) (A) (A) (A) (A) (A) (A) (A) (A) (A) (A) (A)
                 (A) (A) (A) (A) (A) (A) (A) (A) (A) (A) (A) (A)
                 (A) (A) (A) (A) (A) (A) (A) (A) (A) (A) (A) (A)
                 (A) (A) (A) (A) (A) (A) (A) (A) (A) (A) (A) (A)
                 (A) (A) (A) (A) (A) (A) (A) (A) (A) (A) (A) (A)
                 (A) (A) (A) (A) (A) (A)
 The electronic state is 1-A.
 Alpha  occ. eigenvalues --  -10.54499 -10.54094 -10.53755 -10.53705 -10.53277
 Alpha  occ. eigenvalues --  -10.52911  -0.90977  -0.86754  -0.80325  -0.72235
 Alpha  occ. eigenvalues --   -0.66140  -0.63027  -0.55036  -0.52412  -0.49946
 Alpha  occ. eigenvalues --   -0.49055  -0.46305  -0.44772  -0.42207  -0.40475
 Alpha  occ. eigenvalues --   -0.39615  -0.38439  -0.38058  -0.31391
 Alpha virt. eigenvalues --    0.04096   0.04726   0.05750   0.05855   0.06533
 Alpha virt. eigenvalues --    0.08035   0.09163   0.10112   0.10893   0.11799
 Alpha virt. eigenvalues --    0.12586   0.13356   0.13678   0.14443   0.15853
 Alpha virt. eigenvalues --    0.16029   0.17782   0.19522   0.19659   0.20562
 Alpha virt. eigenvalues --    0.22219   0.23085   0.23254   0.23617   0.26589
 Alpha virt. eigenvalues --    0.26688   0.27714   0.28383   0.29530   0.30040
 Alpha virt. eigenvalues --    0.30296   0.31334   0.32554   0.33856   0.34171
 Alpha virt. eigenvalues --    0.34790   0.35113   0.35629   0.35756   0.36362
 Alpha virt. eigenvalues --    0.36870   0.37452   0.39035   0.39730   0.41159
 Alpha virt. eigenvalues --    0.41297   0.42975   0.46438   0.49344   0.50037
 Alpha virt. eigenvalues --    0.51008   0.51732   0.53570   0.54284   0.55440
 Alpha virt. eigenvalues --    0.56504   0.56970   0.58567   0.58775   0.61006
 Alpha virt. eigenvalues --    0.61921   0.62823   0.64397   0.65190   0.66352
 Alpha virt. eigenvalues --    0.67238   0.69565   0.69779   0.72742   0.73485
 Alpha virt. eigenvalues --    0.74061   0.75756   0.76341   0.76910   0.77701
 Alpha virt. eigenvalues --    0.79341   0.79604   0.80690   0.80931   0.81861
 Alpha virt. eigenvalues --    0.83400   0.83795   0.84004   0.84614   0.85283
 Alpha virt. eigenvalues --    0.86370   0.86630   0.87382   0.88518   0.89133
 Alpha virt. eigenvalues --    0.89931   0.91011   0.91443   0.92871   0.93944
 Alpha virt. eigenvalues --    0.94127   0.95102   0.96760   0.97444   0.98590
 Alpha virt. eigenvalues --    0.99746   1.00942   1.01814   1.02592   1.03251
 Alpha virt. eigenvalues --    1.04490   1.05441   1.06019   1.07528   1.09052
 Alpha virt. eigenvalues --    1.10250   1.11556   1.13067   1.13938   1.15061
 Alpha virt. eigenvalues --    1.16657   1.18169   1.18904   1.19417   1.21170
 Alpha virt. eigenvalues --    1.23853   1.25404   1.25839   1.27550   1.27970
 Alpha virt. eigenvalues --    1.29018   1.29338   1.32592   1.34490   1.35467
 Alpha virt. eigenvalues --    1.36811   1.38892   1.40404   1.41752   1.43392
 Alpha virt. eigenvalues --    1.45516   1.46941   1.47545   1.48542   1.50039
 Alpha virt. eigenvalues --    1.51050   1.55004   1.56019   1.56772   1.59111
 Alpha virt. eigenvalues --    1.60750   1.63947   1.64592   1.67905   1.73141
 Alpha virt. eigenvalues --    1.75623   1.78780   1.80166   1.80688   1.82421
 Alpha virt. eigenvalues --    1.83179   1.84339   1.85798   1.87647   1.89119
 Alpha virt. eigenvalues --    1.89609   1.90779   1.92963   1.93787   1.95444
 Alpha virt. eigenvalues --    1.96856   1.97596   1.98207   1.98608   1.99467
 Alpha virt. eigenvalues --    2.00538   2.01375   2.02253   2.02822   2.03808
 Alpha virt. eigenvalues --    2.05093   2.05256   2.05932   2.06420   2.07377
 Alpha virt. eigenvalues --    2.08318   2.08919   2.09744   2.10833   2.10929
 Alpha virt. eigenvalues --    2.12483   2.12741   2.14371   2.14654   2.15432
 Alpha virt. eigenvalues --    2.15649   2.16862   2.17960   2.19056   2.20335
 Alpha virt. eigenvalues --    2.21974   2.23592   2.24423   2.24948   2.26841
 Alpha virt. eigenvalues --    2.27771   2.28174   2.30597   2.31969   2.32915
 Alpha virt. eigenvalues --    2.36865   2.37861   2.38052   2.39075   2.39528
 Alpha virt. eigenvalues --    2.41210   2.42977   2.43811   2.44054   2.44222
 Alpha virt. eigenvalues --    2.48259   2.49606   2.50430   2.50844   2.52284
 Alpha virt. eigenvalues --    2.53104   2.53774   2.54601   2.56669   2.56770
 Alpha virt. eigenvalues --    2.58345   2.58928   2.61781   2.62628   2.63517
 Alpha virt. eigenvalues --    2.63944   2.64966   2.66321   2.67827   2.69076
 Alpha virt. eigenvalues --    2.69718   2.71175   2.72397   2.72923   2.74529
 Alpha virt. eigenvalues --    2.75340   2.76828   2.77818   2.78541   2.78798
 Alpha virt. eigenvalues --    2.81614   2.83010   2.83592   2.85519   2.86176
 Alpha virt. eigenvalues --    2.87249   2.88735   2.89391   2.90089   2.91341
 Alpha virt. eigenvalues --    2.91906   2.93844   2.94356   2.94913   2.95815
 Alpha virt. eigenvalues --    2.99730   3.00384   3.01870   3.03457   3.04195
 Alpha virt. eigenvalues --    3.05966   3.06065   3.07957   3.09027   3.10487
 Alpha virt. eigenvalues --    3.12398   3.13402   3.16181   3.17571   3.19553
 Alpha virt. eigenvalues --    3.19882   3.21743   3.25487   3.25891   3.28707
 Alpha virt. eigenvalues --    3.29198   3.31194   3.33202   3.33996   3.34390
 Alpha virt. eigenvalues --    3.36390   3.36932   3.37692   3.39710   3.39736
 Alpha virt. eigenvalues --    3.42439   3.45606   3.46892   3.49060   3.49274
 Alpha virt. eigenvalues --    3.51416   3.54101   3.55996   3.56714   3.58706
 Alpha virt. eigenvalues --    3.62011   3.64050   3.65237   3.67018   3.69555
 Alpha virt. eigenvalues --    3.72296   3.73586   3.75369   3.76353   3.76934
 Alpha virt. eigenvalues --    3.78286   3.79899   3.81190   3.82334   3.84164
 Alpha virt. eigenvalues --    3.87637   3.87799   3.88745   3.91372   3.93410
 Alpha virt. eigenvalues --    3.94815   3.95732   3.99725   4.00157   4.03858
 Alpha virt. eigenvalues --    4.04189   4.09092   4.09290   4.14151   4.16136
 Alpha virt. eigenvalues --    4.17138   4.23499   4.26576   4.30153   4.32164
 Alpha virt. eigenvalues --    4.35561   4.39605   4.63923   4.64363   4.70215
 Alpha virt. eigenvalues --    4.70565   4.85756   4.88351   4.92426   4.93887
 Alpha virt. eigenvalues --    4.97469   5.01492   5.01899   5.06410   5.09073
 Alpha virt. eigenvalues --    5.09725   5.12962   5.17080   5.19042   5.21790
 Alpha virt. eigenvalues --    5.26413   5.29105   5.30733   5.36774   5.37727
 Alpha virt. eigenvalues --    5.39140   5.40799   5.42923   5.43486   5.47164
 Alpha virt. eigenvalues --    5.47744   5.48805   5.49912   5.51585   5.55449
 Alpha virt. eigenvalues --    5.56132   5.59511   5.60095   5.61829   5.63990
 Alpha virt. eigenvalues --    5.66004   5.67934   5.68954   5.70530   5.72341
 Alpha virt. eigenvalues --    5.73214   5.73892   5.74088   5.76055   5.76394
 Alpha virt. eigenvalues --    5.76907   5.78197   5.78695   5.79577   5.80677
 Alpha virt. eigenvalues --    5.82109   5.83567   5.84822   5.86063   5.87652
 Alpha virt. eigenvalues --    5.87765   5.89586   5.91916   5.93505   5.94698
 Alpha virt. eigenvalues --    5.95574   5.96686   5.96875   5.99679   6.00668
 Alpha virt. eigenvalues --    6.01714   6.02988   6.03357   6.04067   6.04500
 Alpha virt. eigenvalues --    6.05942   6.06560   6.07004   6.08222   6.09390
 Alpha virt. eigenvalues --    6.11009   6.11657   6.13114   6.13441   6.14477
 Alpha virt. eigenvalues --    6.15613   6.18405   6.19160   6.20527   6.21778
 Alpha virt. eigenvalues --    6.22420   6.23431   6.25308   6.26544   6.27995
 Alpha virt. eigenvalues --    6.29936   6.30640   6.31107   6.31666   6.33452
 Alpha virt. eigenvalues --    6.34684   6.34726   6.37555   6.38386   6.38924
 Alpha virt. eigenvalues --    6.41603   6.43710   6.44285   6.45049   6.46240
 Alpha virt. eigenvalues --    6.48048   6.50265   6.53200   6.54588   6.55957
 Alpha virt. eigenvalues --    6.56589   6.57832   6.60392   6.62134   6.62889
 Alpha virt. eigenvalues --    6.65273   6.67397   6.69182   6.70797   6.72000
 Alpha virt. eigenvalues --    6.73043   6.76383   6.77042   6.78484   6.80045
 Alpha virt. eigenvalues --    6.80521   6.81748   6.84117   6.87113   6.87604
 Alpha virt. eigenvalues --    6.89139   6.91577   6.93835   6.95109   6.96052
 Alpha virt. eigenvalues --    7.00612   7.01914   7.05652   7.05857   7.08585
 Alpha virt. eigenvalues --    7.10263   7.12850   7.13822   7.14210   7.17159
 Alpha virt. eigenvalues --    7.19038   7.21460   7.23396   7.23694   7.24586
 Alpha virt. eigenvalues --    7.25110   7.28454   7.29912   7.30501   7.32226
 Alpha virt. eigenvalues --    7.33198   7.34905   7.36025   7.36563   7.38271
 Alpha virt. eigenvalues --    7.38544   7.40243   7.40934   7.42986   7.43687
 Alpha virt. eigenvalues --    7.44331   7.46556   7.47861   7.49202   7.49840
 Alpha virt. eigenvalues --    7.51362   7.51704   7.53120   7.53844   7.55528
 Alpha virt. eigenvalues --    7.56916   7.59187   7.60774   7.62196   7.64809
 Alpha virt. eigenvalues --    7.65247   7.66035   7.66862   7.67804   7.68497
 Alpha virt. eigenvalues --    7.70076   7.70537   7.71754   7.74395   7.76037
 Alpha virt. eigenvalues --    7.76494   7.77204   7.78370   7.78957   7.81527
 Alpha virt. eigenvalues --    7.83082   7.83977   7.84977   7.86587   7.88102
 Alpha virt. eigenvalues --    7.89367   7.90240   7.92714   7.92986   7.94047
 Alpha virt. eigenvalues --    7.97092   7.98706   8.00494   8.01237   8.02446
 Alpha virt. eigenvalues --    8.04317   8.05494   8.09135   8.10517   8.14923
 Alpha virt. eigenvalues --    8.16150   8.16994   8.17749   8.18424   8.19737
 Alpha virt. eigenvalues --    8.21166   8.22097   8.22496   8.23471   8.24833
 Alpha virt. eigenvalues --    8.25440   8.25621   8.26163   8.27513   8.28926
 Alpha virt. eigenvalues --    8.30575   8.31409   8.32275   8.34203   8.34805
 Alpha virt. eigenvalues --    8.36585   8.38300   8.38986   8.42606   8.46029
 Alpha virt. eigenvalues --    8.48217   8.48249   8.49137   8.50388   8.51527
 Alpha virt. eigenvalues --    8.52230   8.55951   8.56783   8.61968   8.63603
 Alpha virt. eigenvalues --    8.64382   8.65233   8.66467   8.67913   8.70088
 Alpha virt. eigenvalues --    8.75858   8.77419   8.80120   8.80631   8.80769
 Alpha virt. eigenvalues --    8.82767   8.84742   8.88905   8.90532   8.92356
 Alpha virt. eigenvalues --    8.94473   8.98311   9.00234   9.01015   9.04644
 Alpha virt. eigenvalues --    9.09183   9.13849   9.26160   9.29885   9.35833
 Alpha virt. eigenvalues --    9.40076   9.41019   9.44175   9.44544   9.48395
 Alpha virt. eigenvalues --    9.48710   9.49357   9.50392   9.51884   9.53656
 Alpha virt. eigenvalues --    9.55507   9.55933   9.60050   9.61797   9.62332
 Alpha virt. eigenvalues --    9.64995   9.66067   9.72916   9.78196   9.79760
 Alpha virt. eigenvalues --    9.81603   9.82856   9.86452   9.87537   9.90055
 Alpha virt. eigenvalues --    9.91426   9.96179   9.98375  10.01681  10.03348
 Alpha virt. eigenvalues --   10.05007  10.07747  10.09582  10.17780  10.20801
 Alpha virt. eigenvalues --   10.31515  10.40523  10.57886  10.89508  11.58264
 Alpha virt. eigenvalues --   11.72245  11.87632  11.99006  12.01771  12.03694
 Alpha virt. eigenvalues --   12.57717  12.73623  12.75998  12.77983  12.88024
 Alpha virt. eigenvalues --   13.00226  28.42827  28.99514  29.03835  29.11035
 Alpha virt. eigenvalues --   29.16379  29.20971 145.89060 146.50936 146.55076
 Alpha virt. eigenvalues --  146.63474 146.66127 146.70634
          Condensed to atoms (all electrons):
               1          2          3          4          5          6
     1  C    5.357136   0.366546   0.366537   0.373698   0.323469  -0.052935
     2  H    0.366546   0.553015  -0.038608  -0.030882  -0.049510   0.009287
     3  H    0.366537  -0.038608   0.551086  -0.030764  -0.048709  -0.005945
     4  H    0.373698  -0.030882  -0.030764   0.533601  -0.047183  -0.003710
     5  C    0.323469  -0.049510  -0.048709  -0.047183   5.337759   0.361820
     6  H   -0.052935   0.009287  -0.005945  -0.003710   0.361820   0.577110
     7  H   -0.053166  -0.005877   0.009484  -0.004044   0.361903  -0.042803
     8  C   -0.064886  -0.004527  -0.004660   0.010329   0.316875  -0.055007
     9  H   -0.002061   0.000039   0.003897  -0.000181  -0.056001  -0.006267
    10  H   -0.001262   0.003795  -0.000105  -0.000036  -0.056506   0.009519
    11  C    0.007718  -0.000388  -0.000320  -0.000663  -0.055630  -0.001436
    12  H   -0.000112   0.000094  -0.000055  -0.000011  -0.002205   0.000143
    13  H   -0.000273  -0.000059   0.000092  -0.000005  -0.002085   0.003595
    14  C   -0.001177  -0.000031  -0.000040   0.000032   0.006251  -0.000060
    15  H   -0.000059  -0.000032   0.000005  -0.000003  -0.001097  -0.000049
    16  C    0.000023   0.000001  -0.000011  -0.000000  -0.000282  -0.000021
    17  H   -0.000004  -0.000000  -0.000000   0.000000   0.000057  -0.000000
    18  H    0.000002  -0.000001   0.000000  -0.000001  -0.000195  -0.000031
               7          8          9         10         11         12
     1  C   -0.053166  -0.064886  -0.002061  -0.001262   0.007718  -0.000112
     2  H   -0.005877  -0.004527   0.000039   0.003795  -0.000388   0.000094
     3  H    0.009484  -0.004660   0.003897  -0.000105  -0.000320  -0.000055
     4  H   -0.004044   0.010329  -0.000181  -0.000036  -0.000663  -0.000011
     5  C    0.361903   0.316875  -0.056001  -0.056506  -0.055630  -0.002205
     6  H   -0.042803  -0.055007  -0.006267   0.009519  -0.001436   0.000143
     7  H    0.582542  -0.056757   0.009376  -0.006306  -0.002300   0.005077
     8  C   -0.056757   5.420049   0.362190   0.361302   0.302584  -0.068671
     9  H    0.009376   0.362190   0.555181  -0.044039  -0.048478   0.009345
    10  H   -0.006306   0.361302  -0.044039   0.583873  -0.058358  -0.005112
    11  C   -0.002300   0.302584  -0.048478  -0.058358   5.310348   0.375611
    12  H    0.005077  -0.068671   0.009345  -0.005112   0.375611   0.570529
    13  H    0.000261  -0.054529  -0.005418   0.008475   0.347475  -0.041923
    14  C   -0.000005  -0.078850  -0.000397  -0.000997   0.342278  -0.062735
    15  H    0.000102  -0.001588   0.000676   0.003580  -0.085329  -0.002915
    16  C   -0.000045  -0.000511   0.002495  -0.000199  -0.045659   0.003009
    17  H   -0.000001  -0.000575  -0.000118  -0.000039   0.006667  -0.000484
    18  H    0.000010  -0.000812   0.000325   0.000022  -0.010323   0.000100
              13         14         15         16         17         18
     1  C   -0.000273  -0.001177  -0.000059   0.000023  -0.000004   0.000002
     2  H   -0.000059  -0.000031  -0.000032   0.000001  -0.000000  -0.000001
     3  H    0.000092  -0.000040   0.000005  -0.000011  -0.000000   0.000000
     4  H   -0.000005   0.000032  -0.000003  -0.000000   0.000000  -0.000001
     5  C   -0.002085   0.006251  -0.001097  -0.000282   0.000057  -0.000195
     6  H    0.003595  -0.000060  -0.000049  -0.000021  -0.000000  -0.000031
     7  H    0.000261  -0.000005   0.000102  -0.000045  -0.000001   0.000010
     8  C   -0.054529  -0.078850  -0.001588  -0.000511  -0.000575  -0.000812
     9  H   -0.005418  -0.000397   0.000676   0.002495  -0.000118   0.000325
    10  H    0.008475  -0.000997   0.003580  -0.000199  -0.000039   0.000022
    11  C    0.347475   0.342278  -0.085329  -0.045659   0.006667  -0.010323
    12  H   -0.041923  -0.062735  -0.002915   0.003009  -0.000484   0.000100
    13  H    0.595501  -0.039773   0.008499  -0.013698  -0.000406   0.005820
    14  C   -0.039773   5.118879   0.413766   0.542080  -0.048614  -0.051899
    15  H    0.008499   0.413766   0.539278  -0.063279  -0.010396   0.009453
    16  C   -0.013698   0.542080  -0.063279   5.275164   0.401227   0.387903
    17  H   -0.000406  -0.048614  -0.010396   0.401227   0.492609  -0.046518
    18  H    0.005820  -0.051899   0.009453   0.387903  -0.046518   0.536555
 Mulliken charges:
               1
     1  C   -0.619193
     2  H    0.197138
     3  H    0.198116
     4  H    0.199822
     5  C   -0.388729
     6  H    0.206792
     7  H    0.202550
     8  C   -0.381957
     9  H    0.219435
    10  H    0.202393
    11  C   -0.383797
    12  H    0.220315
    13  H    0.188448
    14  C   -0.138708
    15  H    0.189385
    16  C   -0.488197
    17  H    0.206597
    18  H    0.169590
 Sum of Mulliken charges =  -0.00000
 Mulliken charges with hydrogens summed into heavy atoms:
               1
     1  C   -0.024117
     5  C    0.020612
     8  C    0.039871
    11  C    0.024967
    14  C    0.050677
    16  C   -0.112010
 Electronic spatial extent (au):  <R**2>=           1028.1313
 Charge=             -0.0000 electrons
 Dipole moment (field-independent basis, Debye):
    X=             -0.4343    Y=              0.1002    Z=              0.1023  Tot=              0.4573
 Quadrupole moment (field-independent basis, Debye-Ang):
   XX=            -41.5061   YY=            -41.2140   ZZ=            -39.8005
   XY=             -0.8736   XZ=             -0.5961   YZ=             -1.2738
 Traceless Quadrupole moment (field-independent basis, Debye-Ang):
   XX=             -0.6659   YY=             -0.3738   ZZ=              1.0397
   XY=             -0.8736   XZ=             -0.5961   YZ=             -1.2738
 Octapole moment (field-independent basis, Debye-Ang**2):
  XXX=              0.3947  YYY=              0.7618  ZZZ=              0.5284  XYY=             -1.2133
  XXY=             -2.9000  XXZ=             -3.2357  XZZ=             -0.8091  YZZ=              0.4613
  YYZ=              0.7056  XYZ=             -3.0764
 Hexadecapole moment (field-independent basis, Debye-Ang**3):
 XXXX=          -1222.5838 YYYY=           -133.6338 ZZZZ=           -101.7906 XXXY=            -30.5015
 XXXZ=            -15.4777 YYYX=             -0.2034 YYYZ=             -2.5135 ZZZX=             -0.3194
 ZZZY=             -2.1390 XXYY=           -229.0200 XXZZ=           -223.3540 YYZZ=            -35.1087
 XXYZ=             -9.4109 YYXZ=              0.8148 ZZXY=              2.5349
 N-N= 2.270961818356D+02 E-N=-9.994913693709D+02  KE= 2.344660672513D+02
 PrsmSu:  requested number of processors reduced to:  20 ShMem   1 Linda.
 No NMR shielding tensors so no spin-rotation constants.
 Leave Link  601 at Sat Apr 17 00:48:26 2021, MaxMem=   104857600 cpu:             395.3 elap:               8.7
 (Enter /s/ls4/users/knvvv/bin/g16sse/l9999.exe)

 Test job not archived.
 1\1\GINC-N150\Stability\RM062X\def2QZVP\C6H12\KNVVV\17-Apr-2021\0\\#P 
 M062X/Def2QZVP Integral=UltraFineGrid SCF=NoSymm Stable=(RExt, Opt) IO
 p(1/33=1)\\Database calculations.\\0,1\C,0,-4.53146564,-0.31507414,-0.
 09485831\H,0,-4.18227912,-1.35274543,-0.20801188\H,0,-4.12445604,0.263
 98128,-0.93759464\H,0,-5.6265211,-0.31993079,-0.19212366\C,0,-4.090004
 16,0.27451135,1.24690784\H,0,-4.48578097,1.29968277,1.34762509\H,0,-4.
 53876081,-0.30577638,2.07111577\C,0,-2.5683219,0.3029419,1.42297475\H,
 0,-2.11172807,0.89001884,0.60837944\H,0,-2.16897747,-0.72162223,1.3209
 455\C,0,-2.12334205,0.8879279,2.77554308\H,0,-2.5987302,0.29924317,3.5
 8182139\H,0,-2.49853498,1.91965924,2.87852578\C,0,-0.63486906,0.870727
 77,2.96602466\H,0,-0.15806896,-0.11538955,2.90730639\C,0,0.13139432,1.
 94341701,3.18426339\H,0,1.21179158,1.86086148,3.30931683\H,0,-0.297177
 87,2.94668193,3.24893624\\Version=ES64L-G16RevA.03\State=1-A\HF=-235.8
 291887\RMSD=3.274e-09\Dipole=-0.1580595,-0.0740078,-0.0437248\Quadrupo
 le=0.2259522,1.2059039,-1.4318561,-0.3473755,-0.1110844,-0.2537425\PG=
 C01 [X(C6H12)]\\@


 The number of Unix installations has grown to 10,
  with more expected.
                  -- The Unix Programmer's Manual,
                     2nd Edition, June, 1972.
 Job cpu time:       1 days 15 hours 54 minutes 32.7 seconds.
 Elapsed time:       0 days  1 hours 26 minutes 14.9 seconds.
 File lengths (MBytes):  RWF=    806 Int=      0 D2E=      0 Chk=     55 Scr=      1
 Normal termination of Gaussian 16 at Sat Apr 17 00:48:26 2021.
