 Entering Gaussian System, Link 0=/s/ls4/users/knvvv/bin/g16sse/g16
 Input=data/database/M062X--def2-QZVPPD--217_o3_W4-11.gjf
 Output=data/database/M062X--def2-QZVPPD--217_o3_W4-11.log
 Initial command:
 /s/ls4/users/knvvv/bin/g16sse/l1.exe "/s/ls4/users/knvvv/bin/scratch/Gau-18108.inp" -scrdir="/s/ls4/users/knvvv/bin/scratch/"
 Entering Link 1 = /s/ls4/users/knvvv/bin/g16sse/l1.exe PID=     18109.
  
 Copyright (c) 1988,1990,1992,1993,1995,1998,2003,2009,2016,
            Gaussian, Inc.  All Rights Reserved.
  
 This is part of the Gaussian(R) 16 program.  It is based on
 the Gaussian(R) 09 system (copyright 2009, Gaussian, Inc.),
 the Gaussian(R) 03 system (copyright 2003, Gaussian, Inc.),
 the Gaussian(R) 98 system (copyright 1998, Gaussian, Inc.),
 the Gaussian(R) 94 system (copyright 1995, Gaussian, Inc.),
 the Gaussian 92(TM) system (copyright 1992, Gaussian, Inc.),
 the Gaussian 90(TM) system (copyright 1990, Gaussian, Inc.),
 the Gaussian 88(TM) system (copyright 1988, Gaussian, Inc.),
 the Gaussian 86(TM) system (copyright 1986, Carnegie Mellon
 University), and the Gaussian 82(TM) system (copyright 1983,
 Carnegie Mellon University). Gaussian is a federally registered
 trademark of Gaussian, Inc.
  
 This software contains proprietary and confidential information,
 including trade secrets, belonging to Gaussian, Inc.
  
 This software is provided under written license and may be
 used, copied, transmitted, or stored only in accord with that
 written license.
  
 The following legend is applicable only to US Government
 contracts under FAR:
  
                    RESTRICTED RIGHTS LEGEND
  
 Use, reproduction and disclosure by the US Government is
 subject to restrictions as set forth in subparagraphs (a)
 and (c) of the Commercial Computer Software - Restricted
 Rights clause in FAR 52.227-19.
  
 Gaussian, Inc.
 340 Quinnipiac St., Bldg. 40, Wallingford CT 06492
  
  
 ---------------------------------------------------------------
 Warning -- This program may not be used in any manner that
 competes with the business of Gaussian, Inc. or will provide
 assistance to any competitor of Gaussian, Inc.  The licensee
 of this program is prohibited from giving any competitor of
 Gaussian, Inc. access to this program.  By using this program,
 the user acknowledges that Gaussian, Inc. is engaged in the
 business of creating and licensing software in the field of
 computational chemistry and represents and warrants to the
 licensee that it is not a competitor of Gaussian, Inc. and that
 it will not use this program in any manner prohibited above.
 ---------------------------------------------------------------
  

 Cite this work as:
 Gaussian 16, Revision A.03,
 M. J. Frisch, G. W. Trucks, H. B. Schlegel, G. E. Scuseria, 
 M. A. Robb, J. R. Cheeseman, G. Scalmani, V. Barone, 
 G. A. Petersson, H. Nakatsuji, X. Li, M. Caricato, A. V. Marenich, 
 J. Bloino, B. G. Janesko, R. Gomperts, B. Mennucci, H. P. Hratchian, 
 J. V. Ortiz, A. F. Izmaylov, J. L. Sonnenberg, D. Williams-Young, 
 F. Ding, F. Lipparini, F. Egidi, J. Goings, B. Peng, A. Petrone, 
 T. Henderson, D. Ranasinghe, V. G. Zakrzewski, J. Gao, N. Rega, 
 G. Zheng, W. Liang, M. Hada, M. Ehara, K. Toyota, R. Fukuda, 
 J. Hasegawa, M. Ishida, T. Nakajima, Y. Honda, O. Kitao, H. Nakai, 
 T. Vreven, K. Throssell, J. A. Montgomery, Jr., J. E. Peralta, 
 F. Ogliaro, M. J. Bearpark, J. J. Heyd, E. N. Brothers, K. N. Kudin, 
 V. N. Staroverov, T. A. Keith, R. Kobayashi, J. Normand, 
 K. Raghavachari, A. P. Rendell, J. C. Burant, S. S. Iyengar, 
 J. Tomasi, M. Cossi, J. M. Millam, M. Klene, C. Adamo, R. Cammi, 
 J. W. Ochterski, R. L. Martin, K. Morokuma, O. Farkas, 
 J. B. Foresman, and D. J. Fox, Gaussian, Inc., Wallingford CT, 2016.
 
 ******************************************
 Gaussian 16:  ES64L-G16RevA.03 25-Dec-2016
                17-Apr-2021 
 ******************************************
 %RWF=temp7_61150,70GB
 %nprocshared=48
 Will use up to   48 processors via shared memory.
 Default route: MaxDisk=80GB
 ----------------------------------------------------------------------
 #P M062X/GEN Integral=UltraFineGrid SCF=NoSymm Stable=(RExt, Opt) IOp(
 1/33=1)
 ----------------------------------------------------------------------
 1/33=1,38=1,172=1/1;
 2/12=2,17=6,18=5,40=1/2;
 3/5=7,11=2,25=1,30=1,74=-55,75=-5/1,2,3;
 4/9=2/1;
 5/5=2,38=5/2;
 6/7=2,8=2,9=2,10=2,28=1/1;
 8/6=1,10=90,11=11/1;
 9/8=-3,42=1,46=1/14;
 5/5=2,8=3,17=40,38=5/8(-2);
 6/7=2,8=2,9=2,10=2,28=1/1;
 99/5=1,9=1/99;
 Leave Link    1 at Sat Apr 17 20:17:28 2021, MaxMem=           0 cpu:             100.0 elap:               2.2
 (Enter /s/ls4/users/knvvv/bin/g16sse/l101.exe)
 ONIOM results not found on unit 2.
 ----------------------
 Database calculations.
 ----------------------
 TstMul:  ICh=     0
 TstMul:  Mul=     1
 TstMul:  ICh=     0
 TstMul:  Mul=     1
 Symbolic Z-matrix:
 Charge =  0 Multiplicity = 1
 O                     0.        0.        0. 
 O                     0.        0.        1.26881 
 O                     1.12933   0.       -0.57836 
 
 RdStrC is calling ZToCFu for IStruc=1 NZ=     3.
 PrtBox:  NBox=     1 Levels=  1 BoxLen=    8.00 SMaxX=        3.49
          Shift=            0.000000            0.000000            1.092946
 Box      1 Number                   0 centers from      1 to      3:
 After GenITR:
 ITRead=  0  0  0
 MicOpt= -1 -1 -1
 ITRead=  0  0  0
 MicOpt= -1 -1 -1
 NAtoms=      3 NQM=        3 NQMF=       0 NMMI=      0 NMMIF=      0
                NMic=       0 NMicF=      0.
                    Isotopes and Nuclear Properties:
 (Nuclear quadrupole moments (NQMom) in fm**2, nuclear magnetic moments (NMagM)
  in nuclear magnetons)

  Atom         1           2           3
 IAtWgt=          16          16          16
 AtmWgt=  15.9949146  15.9949146  15.9949146
 NucSpn=           0           0           0
 AtZEff=  -0.0000000  -0.0000000  -0.0000000
 NQMom=    0.0000000   0.0000000   0.0000000
 NMagM=    0.0000000   0.0000000   0.0000000
 AtZNuc=   8.0000000   8.0000000   8.0000000
 No MM parameters found.
 Leave Link  101 at Sat Apr 17 20:17:29 2021, MaxMem=   104857600 cpu:               9.4 elap:               0.2
 (Enter /s/ls4/users/knvvv/bin/g16sse/l202.exe)
                          Input orientation:                          
 ---------------------------------------------------------------------
 Center     Atomic      Atomic             Coordinates (Angstroms)
 Number     Number       Type             X           Y           Z
 ---------------------------------------------------------------------
      1          8           0        0.000000    0.000000    0.000000
      2          8           0        0.000000    0.000000    1.268814
      3          8           0        1.129330    0.000000   -0.578362
 ---------------------------------------------------------------------
                    Distance matrix (angstroms):
                    1          2          3
     1  O    0.000000
     2  O    1.268814   0.000000
     3  O    1.268814   2.165051   0.000000
 Stoichiometry    O3
 Framework group  C2V[C2(O),SGV(O2)]
 Deg. of freedom     2
 Full point group                 C2V     NOp   4
 Largest Abelian subgroup         C2V     NOp   4
 Largest concise Abelian subgroup C2      NOp   2
                         Standard orientation:                         
 ---------------------------------------------------------------------
 Center     Atomic      Atomic             Coordinates (Angstroms)
 Number     Number       Type             X           Y           Z
 ---------------------------------------------------------------------
      1          8           0       -0.000000    0.000000    0.441224
      2          8           0        0.000000    1.082525   -0.220612
      3          8           0       -0.000000   -1.082525   -0.220612
 ---------------------------------------------------------------------
 Rotational constants (GHZ):         108.1995178          13.4812153          11.9876085
 Leave Link  202 at Sat Apr 17 20:17:29 2021, MaxMem=   104857600 cpu:              10.5 elap:               0.4
 (Enter /s/ls4/users/knvvv/bin/g16sse/l301.exe)
 General basis read from cards:  (5D, 7F)
 Centers:       1      2      3
 S 8 1.00
     Exponent=  1.1650646908D+05 Coefficients=  4.0383857939D-05
     Exponent=  1.7504349724D+04 Coefficients=  3.1255139004D-04
     Exponent=  3.9934513230D+03 Coefficients=  1.6341473495D-03
     Exponent=  1.1330063186D+03 Coefficients=  6.8283224757D-03
     Exponent=  3.6999569594D+02 Coefficients=  2.4124410221D-02
     Exponent=  1.3362074349D+02 Coefficients=  7.2730206154D-02
     Exponent=  5.2035643649D+01 Coefficients=  1.7934429892D-01
     Exponent=  2.1461939313D+01 Coefficients=  3.3059588895D-01
 S 2 1.00
     Exponent=  8.9835051252D+01 Coefficients=  9.6468652996D-02
     Exponent=  2.6428010844D+01 Coefficients=  9.4117481120D-01
 S 1 1.00
     Exponent=  9.2822824649D+00 Coefficients=  1.0000000000D+00
 S 1 1.00
     Exponent=  4.0947728533D+00 Coefficients=  1.0000000000D+00
 S 1 1.00
     Exponent=  1.3255349078D+00 Coefficients=  1.0000000000D+00
 S 1 1.00
     Exponent=  5.1877230787D-01 Coefficients=  1.0000000000D+00
 S 1 1.00
     Exponent=  1.9772676454D-01 Coefficients=  1.0000000000D+00
 S 1 1.00
     Exponent=  6.9638535104D-02 Coefficients=  1.0000000000D+00
 P 5 1.00
     Exponent=  1.9115255810D+02 Coefficients=  2.5115697705D-03
     Exponent=  4.5233356739D+01 Coefficients=  2.0039240864D-02
     Exponent=  1.4353465922D+01 Coefficients=  9.3609064762D-02
     Exponent=  5.2422371832D+00 Coefficients=  3.0618127124D-01
     Exponent=  2.0792418599D+00 Coefficients=  6.7810501439D-01
 P 1 1.00
     Exponent=  8.4282371424D-01 Coefficients=  1.0000000000D+00
 P 1 1.00
     Exponent=  3.3617694891D-01 Coefficients=  1.0000000000D+00
 P 1 1.00
     Exponent=  1.2863997974D-01 Coefficients=  1.0000000000D+00
 P 1 1.00
     Exponent=  4.3598162776D-02 Coefficients=  1.0000000000D+00
 D 1 1.00
     Exponent=  3.7750000000D+00 Coefficients=  1.0000000000D+00
 D 1 1.00
     Exponent=  1.3000000000D+00 Coefficients=  1.0000000000D+00
 D 1 1.00
     Exponent=  4.4400000000D-01 Coefficients=  1.0000000000D+00
 D 1 1.00
     Exponent=  1.2546378695D-01 Coefficients=  1.0000000000D+00
 F 1 1.00
     Exponent=  2.6660000000D+00 Coefficients=  1.0000000000D+00
 F 1 1.00
     Exponent=  8.5900000000D-01 Coefficients=  1.0000000000D+00
 G 1 1.00
     Exponent=  1.8460000000D+00 Coefficients=  1.0000000000D+00
 ****
 Ernie: Thresh=  0.10000D-02 Tol=  0.10000D-05 Strict=F.
 There are    92 symmetry adapted cartesian basis functions of A1  symmetry.
 There are    36 symmetry adapted cartesian basis functions of A2  symmetry.
 There are    45 symmetry adapted cartesian basis functions of B1  symmetry.
 There are    73 symmetry adapted cartesian basis functions of B2  symmetry.
 There are    71 symmetry adapted basis functions of A1  symmetry.
 There are    31 symmetry adapted basis functions of A2  symmetry.
 There are    38 symmetry adapted basis functions of B1  symmetry.
 There are    58 symmetry adapted basis functions of B2  symmetry.
   198 basis functions,   306 primitive gaussians,   246 cartesian basis functions
    12 alpha electrons       12 beta electrons
       nuclear repulsion energy        69.0270000386 Hartrees.
 IExCor= 4336 DFT=T Ex+Corr=M062X ExCW=0 ScaHFX=  0.540000
 ScaDFX=  1.000000  1.000000  1.000000  1.000000 ScalE2=  1.000000  1.000000
 IRadAn=      5 IRanWt=     -1 IRanGd=            0 ICorTp=0 IEmpDi=  4
 NAtoms=    3 NActive=    3 NUniq=    2 SFac= 2.25D+00 NAtFMM=   60 NAOKFM=F Big=F
 Integral buffers will be    131072 words long.
 Raffenetti 2 integral format.
 Two-electron integral symmetry is turned on.
 Leave Link  301 at Sat Apr 17 20:17:30 2021, MaxMem=   104857600 cpu:              15.4 elap:               0.5
 (Enter /s/ls4/users/knvvv/bin/g16sse/l302.exe)
 NPDir=0 NMtPBC=     1 NCelOv=     1 NCel=       1 NClECP=     1 NCelD=      1
         NCelK=      1 NCelE2=     1 NClLst=     1 CellRange=     0.0.
 One-electron integrals computed using PRISM.
 One-electron integral symmetry used in STVInt
 PrsmSu:  requested number of processors reduced to:   4 ShMem   1 Linda.
 PrsmSu:  requested number of processors reduced to:  21 ShMem   1 Linda.
 NBasis=   198 RedAO= T EigKep=  1.03D-04  NBF=    71    31    38    58
 NBsUse=   198 1.00D-06 EigRej= -1.00D+00 NBFU=    71    31    38    58
 Precomputing XC quadrature grid using
 IXCGrd= 4 IRadAn=           5 IRanWt=          -1 IRanGd=           0 AccXCQ= 0.00D+00.
 Generated NRdTot=       0 NPtTot=           0 NUsed=           0 NTot=          32
 NSgBfM=   246   246   246   246   246 MxSgAt=     3 MxSgA2=     3.
 Leave Link  302 at Sat Apr 17 20:17:39 2021, MaxMem=   104857600 cpu:             430.7 elap:               9.3
 (Enter /s/ls4/users/knvvv/bin/g16sse/l303.exe)
 DipDrv:  MaxL=1.
 Leave Link  303 at Sat Apr 17 20:17:40 2021, MaxMem=   104857600 cpu:              50.2 elap:               1.1
 (Enter /s/ls4/users/knvvv/bin/g16sse/l401.exe)
 SCF N**3 symmetry information disabled.
 ExpMin= 4.36D-02 ExpMax= 1.17D+05 ExpMxC= 1.13D+03 IAcc=3 IRadAn=         5 AccDes= 0.00D+00
 Harris functional with IExCor= 1009 and IRadAn=       5 diagonalized for initial guess.
 HarFok:  IExCor= 1009 AccDes= 0.00D+00 IRadAn=         5 IDoV= 1 UseB2=F ITyADJ=14
 ICtDFT=  3500011 ScaDFX=  1.000000  1.000000  1.000000  1.000000
 FoFCou: FMM=F IPFlag=           0 FMFlag=      100000 FMFlg1=           0
         NFxFlg=           0 DoJE=T BraDBF=F KetDBF=T FulRan=T
         wScrn=  0.000000 ICntrl=       500 IOpCl=  0 I1Cent=   200000004 NGrid=           0
         NMat0=    1 NMatS0=      1 NMatT0=    0 NMatD0=    1 NMtDS0=    0 NMtDT0=    0
 Petite list used in FoFCou.
 CoulSu:  requested number of processors reduced to:  21 ShMem   1 Linda.
 CoulSu:  requested number of processors reduced to:  21 ShMem   1 Linda.
 CoulSu:  requested number of processors reduced to:  21 ShMem   1 Linda.
 CoulSu:  requested number of processors reduced to:  21 ShMem   1 Linda.
 Harris En= -225.371399739164    
 JPrj=0 DoOrth=F DoCkMO=F.
 Initial guess orbital symmetries:
       Occupied  (A1) (B2) (A1) (A1) (B2) (A1) (B2) (A1) (B1) (A2)
                 (B2) (A1)
       Virtual   (B1) (A1) (B2) (A1) (B1) (A1) (B2) (A2) (A1) (B1)
                 (A1) (B2) (B2) (A1) (B2) (B1) (A1) (B1) (A1) (B2)
                 (A2) (B2) (A2) (A1) (B1) (B2) (A1) (B1) (A1) (B2)
                 (A2) (A1) (B2) (B1) (A2) (A1) (B2) (A1) (A1) (B2)
                 (A1) (B1) (A2) (B2) (A1) (B2) (A1) (B1) (A2) (B1)
                 (A1) (B2) (B2) (A1) (B1) (A2) (A1) (B2) (B2) (A1)
                 (A2) (B1) (A1) (B2) (A1) (B2) (B1) (A1) (A2) (A1)
                 (B1) (B2) (A2) (A1) (B2) (B1) (B2) (A2) (A1) (B2)
                 (A1) (A1) (B2) (B1) (A1) (B2) (A2) (B1) (B1) (A2)
                 (A1) (A2) (A1) (B2) (B1) (A1) (B2) (A1) (B2) (B1)
                 (A1) (B2) (A2) (B1) (B2) (A1) (A1) (A2) (A1) (B2)
                 (B1) (B2) (A1) (B2) (A2) (B2) (A1) (B1) (A2) (B1)
                 (A1) (A1) (B2) (A2) (B2) (B1) (A1) (A2) (B2) (B1)
                 (A1) (B2) (B1) (A1) (A1) (B2) (A2) (A2) (B1) (A1)
                 (B1) (A2) (B2) (B1) (A1) (B2) (A1) (A2) (B2) (A1)
                 (B1) (B2) (A1) (B1) (A2) (A2) (B2) (B1) (A1) (A1)
                 (B2) (B1) (A2) (B2) (A1) (A1) (B1) (A1) (A2) (B2)
                 (B2) (B1) (A1) (B2) (A2) (A1) (B2) (A1) (A1) (B2)
                 (A1) (B2) (A1) (A1) (B2) (A1)
 The electronic state of the initial guess is 1-A1.
 Leave Link  401 at Sat Apr 17 20:17:46 2021, MaxMem=   104857600 cpu:             230.0 elap:               5.4
 (Enter /s/ls4/users/knvvv/bin/g16sse/l502.exe)
 Integral symmetry usage will be decided dynamically.
 Closed shell SCF:
 Using DIIS extrapolation, IDIIS=  1040.
 NGot=   104857600 LenX=   104721261 LenY=   104660304
 Requested convergence on RMS density matrix=1.00D-08 within 128 cycles.
 Requested convergence on MAX density matrix=1.00D-06.
 Requested convergence on             energy=1.00D-06.
 No special actions if energy rises.
 Fock matrices will be formed incrementally for  20 cycles.

 Cycle   1  Pass 1  IDiag  1:
 FoFJK:  IHMeth= 1 ICntrl=       0 DoSepK=F KAlg= 0 I1Cent=           0 FoldK=F
 IRaf= 990000000 NMat=       1 IRICut=       1 DoRegI=T DoRafI=F ISym2E= 1 IDoP0=0 IntGTp=1.
 FoFCou: FMM=F IPFlag=           0 FMFlag=      100000 FMFlg1=           0
         NFxFlg=           0 DoJE=F BraDBF=F KetDBF=F FulRan=T
         wScrn=  0.000000 ICntrl=         0 IOpCl=  0 I1Cent=           0 NGrid=           0
         NMat0=    1 NMatS0=      1 NMatT0=    0 NMatD0=    1 NMtDS0=    0 NMtDT0=    0
 Petite list used in FoFCou.
 CoulSu:  requested number of processors reduced to:  21 ShMem   1 Linda.
 E= -225.284391178179    
 DIIS: error= 4.39D-02 at cycle   1 NSaved=   1.
 NSaved= 1 IEnMin= 1 EnMin= -225.284391178179     IErMin= 1 ErrMin= 4.39D-02
 ErrMax= 4.39D-02  0.00D+00 EMaxC= 1.00D-01 BMatC= 3.03D-01 BMatP= 3.03D-01
 IDIUse=3 WtCom= 5.61D-01 WtEn= 4.39D-01
 Coeff-Com:  0.100D+01
 Coeff-En:   0.100D+01
 Coeff:      0.100D+01
 Gap=     0.215 Goal=   None    Shift=    0.000
 GapD=    0.215 DampG=1.000 DampE=0.500 DampFc=0.5000 IDamp=-1.
 Damping current iteration by 5.00D-01
 RMSDP=2.02D-03 MaxDP=6.04D-02              OVMax= 2.92D-01

 Cycle   2  Pass 1  IDiag  1:
 RMSU=  1.01D-03    CP:  1.01D+00
 CoulSu:  requested number of processors reduced to:  21 ShMem   1 Linda.
 E= -225.316336958871     Delta-E=       -0.031945780692 Rises=F Damp=T
 DIIS: error= 1.99D-02 at cycle   2 NSaved=   2.
 NSaved= 2 IEnMin= 2 EnMin= -225.316336958871     IErMin= 2 ErrMin= 1.99D-02
 ErrMax= 1.99D-02  0.00D+00 EMaxC= 1.00D-01 BMatC= 6.15D-02 BMatP= 3.03D-01
 IDIUse=3 WtCom= 8.01D-01 WtEn= 1.99D-01
 Coeff-Com:  0.185D+00 0.815D+00
 Coeff-En:   0.387D+00 0.613D+00
 Coeff:      0.225D+00 0.775D+00
 Gap=     0.283 Goal=   None    Shift=    0.000
 RMSDP=4.60D-04 MaxDP=1.75D-02 DE=-3.19D-02 OVMax= 1.95D-01

 Cycle   3  Pass 1  IDiag  1:
 RMSU=  4.17D-04    CP:  1.01D+00  8.17D-01
 CoulSu:  requested number of processors reduced to:  21 ShMem   1 Linda.
 E= -225.419273450067     Delta-E=       -0.102936491196 Rises=F Damp=F
 DIIS: error= 4.12D-03 at cycle   3 NSaved=   3.
 NSaved= 3 IEnMin= 3 EnMin= -225.419273450067     IErMin= 3 ErrMin= 4.12D-03
 ErrMax= 4.12D-03  0.00D+00 EMaxC= 1.00D-01 BMatC= 2.98D-03 BMatP= 6.15D-02
 IDIUse=3 WtCom= 9.59D-01 WtEn= 4.12D-02
 Coeff-Com: -0.464D-01 0.139D+00 0.908D+00
 Coeff-En:   0.000D+00 0.000D+00 0.100D+01
 Coeff:     -0.445D-01 0.133D+00 0.911D+00
 Gap=     0.286 Goal=   None    Shift=    0.000
 RMSDP=1.55D-04 MaxDP=7.85D-03 DE=-1.03D-01 OVMax= 1.49D-02

 Cycle   4  Pass 1  IDiag  1:
 RMSU=  1.34D-04    CP:  1.01D+00  8.84D-01  9.31D-01
 CoulSu:  requested number of processors reduced to:  21 ShMem   1 Linda.
 E= -225.421021326933     Delta-E=       -0.001747876866 Rises=F Damp=F
 DIIS: error= 7.12D-04 at cycle   4 NSaved=   4.
 NSaved= 4 IEnMin= 4 EnMin= -225.421021326933     IErMin= 4 ErrMin= 7.12D-04
 ErrMax= 7.12D-04  0.00D+00 EMaxC= 1.00D-01 BMatC= 1.11D-04 BMatP= 2.98D-03
 IDIUse=3 WtCom= 9.93D-01 WtEn= 7.12D-03
 Coeff-Com: -0.112D-01 0.175D-01 0.229D+00 0.765D+00
 Coeff-En:   0.000D+00 0.000D+00 0.000D+00 0.100D+01
 Coeff:     -0.111D-01 0.174D-01 0.227D+00 0.767D+00
 Gap=     0.282 Goal=   None    Shift=    0.000
 RMSDP=2.15D-05 MaxDP=3.93D-04 DE=-1.75D-03 OVMax= 2.15D-03

 Cycle   5  Pass 1  IDiag  1:
 RMSU=  2.03D-05    CP:  1.01D+00  8.82D-01  9.46D-01  1.00D+00
 CoulSu:  requested number of processors reduced to:  21 ShMem   1 Linda.
 E= -225.421082684727     Delta-E=       -0.000061357794 Rises=F Damp=F
 DIIS: error= 1.69D-04 at cycle   5 NSaved=   5.
 NSaved= 5 IEnMin= 5 EnMin= -225.421082684727     IErMin= 5 ErrMin= 1.69D-04
 ErrMax= 1.69D-04  0.00D+00 EMaxC= 1.00D-01 BMatC= 2.55D-06 BMatP= 1.11D-04
 IDIUse=3 WtCom= 9.98D-01 WtEn= 1.69D-03
 Coeff-Com:  0.210D-03-0.162D-02-0.327D-02 0.196D-01 0.985D+00
 Coeff-En:   0.000D+00 0.000D+00 0.000D+00 0.000D+00 0.100D+01
 Coeff:      0.209D-03-0.162D-02-0.327D-02 0.196D-01 0.985D+00
 Gap=     0.282 Goal=   None    Shift=    0.000
 RMSDP=8.94D-06 MaxDP=2.15D-04 DE=-6.14D-05 OVMax= 9.77D-04

 Cycle   6  Pass 1  IDiag  1:
 RMSU=  6.59D-06    CP:  1.01D+00  8.82D-01  9.46D-01  1.03D+00  1.21D+00
 CoulSu:  requested number of processors reduced to:  21 ShMem   1 Linda.
 E= -225.421086145306     Delta-E=       -0.000003460579 Rises=F Damp=F
 DIIS: error= 5.52D-05 at cycle   6 NSaved=   6.
 NSaved= 6 IEnMin= 6 EnMin= -225.421086145306     IErMin= 6 ErrMin= 5.52D-05
 ErrMax= 5.52D-05  0.00D+00 EMaxC= 1.00D-01 BMatC= 6.23D-07 BMatP= 2.55D-06
 IDIUse=1 WtCom= 1.00D+00 WtEn= 0.00D+00
 Coeff-Com:  0.133D-02-0.264D-02-0.220D-01-0.749D-01 0.265D+00 0.833D+00
 Coeff:      0.133D-02-0.264D-02-0.220D-01-0.749D-01 0.265D+00 0.833D+00
 Gap=     0.282 Goal=   None    Shift=    0.000
 RMSDP=3.21D-06 MaxDP=1.16D-04 DE=-3.46D-06 OVMax= 4.03D-04

 Cycle   7  Pass 1  IDiag  1:
 RMSU=  1.60D-06    CP:  1.01D+00  8.82D-01  9.47D-01  1.05D+00  1.30D+00
                    CP:  9.07D-01
 CoulSu:  requested number of processors reduced to:  21 ShMem   1 Linda.
 E= -225.421086721099     Delta-E=       -0.000000575793 Rises=F Damp=F
 DIIS: error= 1.25D-05 at cycle   7 NSaved=   7.
 NSaved= 7 IEnMin= 7 EnMin= -225.421086721099     IErMin= 7 ErrMin= 1.25D-05
 ErrMax= 1.25D-05  0.00D+00 EMaxC= 1.00D-01 BMatC= 1.87D-08 BMatP= 6.23D-07
 IDIUse=1 WtCom= 1.00D+00 WtEn= 0.00D+00
 Coeff-Com:  0.867D-04-0.143D-03 0.844D-03 0.140D-02-0.505D-01 0.139D-01
 Coeff-Com:  0.103D+01
 Coeff:      0.867D-04-0.143D-03 0.844D-03 0.140D-02-0.505D-01 0.139D-01
 Coeff:      0.103D+01
 Gap=     0.282 Goal=   None    Shift=    0.000
 RMSDP=6.33D-07 MaxDP=2.27D-05 DE=-5.76D-07 OVMax= 1.00D-04

 Cycle   8  Pass 1  IDiag  1:
 RMSU=  3.54D-07    CP:  1.01D+00  8.82D-01  9.47D-01  1.05D+00  1.31D+00
                    CP:  9.61D-01  1.11D+00
 CoulSu:  requested number of processors reduced to:  21 ShMem   1 Linda.
 E= -225.421086743972     Delta-E=       -0.000000022873 Rises=F Damp=F
 DIIS: error= 2.72D-06 at cycle   8 NSaved=   8.
 NSaved= 8 IEnMin= 8 EnMin= -225.421086743972     IErMin= 8 ErrMin= 2.72D-06
 ErrMax= 2.72D-06  0.00D+00 EMaxC= 1.00D-01 BMatC= 6.03D-10 BMatP= 1.87D-08
 IDIUse=1 WtCom= 1.00D+00 WtEn= 0.00D+00
 Coeff-Com: -0.455D-04 0.872D-04 0.901D-03 0.379D-02-0.186D-01-0.328D-01
 Coeff-Com:  0.110D+00 0.936D+00
 Coeff:     -0.455D-04 0.872D-04 0.901D-03 0.379D-02-0.186D-01-0.328D-01
 Coeff:      0.110D+00 0.936D+00
 Gap=     0.282 Goal=   None    Shift=    0.000
 RMSDP=1.17D-07 MaxDP=2.51D-06 DE=-2.29D-08 OVMax= 2.04D-05

 Cycle   9  Pass 1  IDiag  1:
 RMSU=  4.66D-08    CP:  1.01D+00  8.82D-01  9.47D-01  1.05D+00  1.32D+00
                    CP:  9.66D-01  1.15D+00  1.19D+00
 CoulSu:  requested number of processors reduced to:  21 ShMem   1 Linda.
 E= -225.421086744897     Delta-E=       -0.000000000925 Rises=F Damp=F
 DIIS: error= 5.25D-07 at cycle   9 NSaved=   9.
 NSaved= 9 IEnMin= 9 EnMin= -225.421086744897     IErMin= 9 ErrMin= 5.25D-07
 ErrMax= 5.25D-07  0.00D+00 EMaxC= 1.00D-01 BMatC= 3.89D-11 BMatP= 6.03D-10
 IDIUse=1 WtCom= 1.00D+00 WtEn= 0.00D+00
 Coeff-Com: -0.172D-05 0.231D-05-0.123D-03-0.194D-03 0.428D-02 0.251D-02
 Coeff-Com: -0.552D-01-0.197D+00 0.125D+01
 Coeff:     -0.172D-05 0.231D-05-0.123D-03-0.194D-03 0.428D-02 0.251D-02
 Coeff:     -0.552D-01-0.197D+00 0.125D+01
 Gap=     0.282 Goal=   None    Shift=    0.000
 RMSDP=4.77D-08 MaxDP=8.81D-07 DE=-9.25D-10 OVMax= 6.75D-06

 Cycle  10  Pass 1  IDiag  1:
 RMSU=  1.70D-08    CP:  1.01D+00  8.82D-01  9.47D-01  1.05D+00  1.32D+00
                    CP:  9.66D-01  1.16D+00  1.30D+00  1.39D+00
 CoulSu:  requested number of processors reduced to:  21 ShMem   1 Linda.
 E= -225.421086744989     Delta-E=       -0.000000000092 Rises=F Damp=F
 DIIS: error= 1.49D-07 at cycle  10 NSaved=  10.
 NSaved=10 IEnMin=10 EnMin= -225.421086744989     IErMin=10 ErrMin= 1.49D-07
 ErrMax= 1.49D-07  0.00D+00 EMaxC= 1.00D-01 BMatC= 1.57D-12 BMatP= 3.89D-11
 IDIUse=1 WtCom= 1.00D+00 WtEn= 0.00D+00
 Coeff-Com:  0.203D-05-0.333D-05-0.241D-04-0.150D-03 0.900D-04 0.108D-02
 Coeff-Com:  0.673D-02-0.395D-01-0.118D+00 0.115D+01
 Coeff:      0.203D-05-0.333D-05-0.241D-04-0.150D-03 0.900D-04 0.108D-02
 Coeff:      0.673D-02-0.395D-01-0.118D+00 0.115D+01
 Gap=     0.282 Goal=   None    Shift=    0.000
 RMSDP=9.06D-09 MaxDP=2.29D-07 DE=-9.23D-11 OVMax= 1.05D-06

 SCF Done:  E(RM062X) =  -225.421086745     A.U. after   10 cycles
            NFock= 10  Conv=0.91D-08     -V/T= 2.0039
 KE= 2.245490337692D+02 PE=-6.702964123892D+02 EE= 1.512992918364D+02
 Leave Link  502 at Sat Apr 17 20:18:08 2021, MaxMem=   104857600 cpu:             855.4 elap:              22.0
 (Enter /s/ls4/users/knvvv/bin/g16sse/l601.exe)
 Copying SCF densities to generalized density rwf, IOpCl= 0 IROHF=0.

 **********************************************************************

            Population analysis using the SCF density.

 **********************************************************************

 Orbital symmetries:
       Occupied  (A1) (B2) (A1) (A1) (B2) (A1) (A1) (B1) (B2) (B2)
                 (A1) (A2)
       Virtual   (B1) (A1) (B2) (A1) (B1) (A1) (B2) (A2) (B1) (A1)
                 (B2) (A1) (B2) (A1) (B2) (A1) (B1) (B1) (B2) (A1)
                 (A2) (B2) (A2) (A1) (B1) (B2) (A1) (B1) (A1) (B2)
                 (A2) (A1) (B2) (A2) (B1) (A1) (B2) (A1) (A1) (B2)
                 (A1) (B1) (A2) (B2) (A1) (B2) (A1) (B1) (A2) (B1)
                 (A1) (B2) (B2) (B1) (A1) (A2) (A1) (B2) (B2) (A1)
                 (A2) (B1) (A1) (B2) (A1) (B2) (B1) (A1) (A2) (A1)
                 (B1) (B2) (A2) (A1) (B2) (B1) (B2) (A2) (A1) (B2)
                 (A1) (A1) (B2) (B1) (A1) (B1) (A2) (B2) (B1) (A2)
                 (A1) (A2) (A1) (B2) (B1) (A1) (B2) (A1) (B2) (B1)
                 (A1) (B2) (A2) (B1) (A1) (B2) (A1) (A2) (B2) (A1)
                 (B1) (B2) (A1) (B2) (A2) (B2) (B1) (A1) (A2) (B1)
                 (A1) (A1) (B2) (A2) (B2) (B1) (A1) (A2) (B2) (B1)
                 (A1) (B2) (B1) (A1) (A1) (B2) (A2) (A2) (B1) (B1)
                 (A1) (A2) (B2) (B1) (A1) (B2) (A1) (A2) (B2) (A1)
                 (B1) (B2) (B1) (A1) (A2) (A2) (B2) (B1) (A1) (B2)
                 (A1) (B1) (A1) (A2) (B2) (A1) (B1) (A1) (A2) (B2)
                 (B2) (B1) (A1) (B2) (A2) (A1) (B2) (A1) (A1) (B2)
                 (A1) (B2) (A1) (A1) (B2) (A1)
 The electronic state is 1-A1.
 Alpha  occ. eigenvalues --  -19.95204 -19.76182 -19.76178  -1.50735  -1.22356
 Alpha  occ. eigenvalues --   -0.90810  -0.69711  -0.69207  -0.68531  -0.44491
 Alpha  occ. eigenvalues --   -0.43600  -0.42969
 Alpha virt. eigenvalues --   -0.14810   0.03576   0.03690   0.04695   0.04943
 Alpha virt. eigenvalues --    0.08223   0.08892   0.09206   0.10106   0.12192
 Alpha virt. eigenvalues --    0.13667   0.14394   0.19196   0.22140   0.25729
 Alpha virt. eigenvalues --    0.31971   0.32237   0.36898   0.37398   0.37935
 Alpha virt. eigenvalues --    0.38029   0.39072   0.41442   0.41602   0.42193
 Alpha virt. eigenvalues --    0.44695   0.44774   0.46180   0.50216   0.51724
 Alpha virt. eigenvalues --    0.54038   0.56288   0.59276   0.62532   0.62650
 Alpha virt. eigenvalues --    0.67818   0.68150   0.69566   0.71560   0.77608
 Alpha virt. eigenvalues --    1.03795   1.08531   1.12917   1.20617   1.21859
 Alpha virt. eigenvalues --    1.28944   1.30939   1.33717   1.34069   1.40841
 Alpha virt. eigenvalues --    1.42238   1.44085   1.46706   1.47660   1.48481
 Alpha virt. eigenvalues --    1.50389   1.54689   1.58763   1.82425   1.85285
 Alpha virt. eigenvalues --    1.88293   1.89336   2.01832   2.10833   2.11640
 Alpha virt. eigenvalues --    2.15562   2.75797   2.86173   2.96479   2.97254
 Alpha virt. eigenvalues --    3.02865   3.06704   3.14638   3.15054   3.18278
 Alpha virt. eigenvalues --    3.20471   3.25911   3.38664   3.46680   3.49919
 Alpha virt. eigenvalues --    3.54507   3.73069   3.80330   3.85132   3.88531
 Alpha virt. eigenvalues --    3.92039   3.94482   3.96046   4.02525   4.04309
 Alpha virt. eigenvalues --    4.08672   4.17315   4.17472   4.23515   4.25040
 Alpha virt. eigenvalues --    4.26109   4.29736   4.47783   4.53955   4.58756
 Alpha virt. eigenvalues --    4.71237   4.72935   4.73719   4.95094   4.97199
 Alpha virt. eigenvalues --    5.00745   5.09614   5.28183   5.31031   5.31583
 Alpha virt. eigenvalues --    5.38453   5.84440   7.34096   7.43969   7.88041
 Alpha virt. eigenvalues --    8.02069   8.20615   8.20701   8.27609   8.30111
 Alpha virt. eigenvalues --    8.34505   8.47876   8.62221   8.72444   8.72549
 Alpha virt. eigenvalues --    8.72832   8.72868   8.79001   8.82386   8.88504
 Alpha virt. eigenvalues --    8.99938   9.30995   9.42643   9.52936  10.04960
 Alpha virt. eigenvalues --   10.22901  10.24653  10.27014  10.62345  10.66420
 Alpha virt. eigenvalues --   10.69047  10.75527  10.76918  10.78329  10.80712
 Alpha virt. eigenvalues --   10.83577  10.89398  10.95670  11.00071  11.14066
 Alpha virt. eigenvalues --   11.16877  11.24156  11.27965  11.29281  11.31305
 Alpha virt. eigenvalues --   11.34373  11.39027  11.46789  11.56441  11.57679
 Alpha virt. eigenvalues --   11.63119  11.76625  11.78506  11.82580  11.83708
 Alpha virt. eigenvalues --   11.86164  11.91420  11.98722  11.99106  12.10523
 Alpha virt. eigenvalues --   12.25421  13.05583  13.22440  13.24626  13.32083
 Alpha virt. eigenvalues --   13.59130  13.77217  14.20237  14.89754  14.91875
 Alpha virt. eigenvalues --   47.35579  47.84624  47.94294 250.30984 250.87085
 Alpha virt. eigenvalues --  251.01362
          Condensed to atoms (all electrons):
               1          2          3
     1  O    7.460540   0.108595   0.108595
     2  O    0.108595   8.145492  -0.092952
     3  O    0.108595  -0.092952   8.145492
 Mulliken charges:
               1
     1  O    0.322270
     2  O   -0.161135
     3  O   -0.161135
 Sum of Mulliken charges =  -0.00000
 Mulliken charges with hydrogens summed into heavy atoms:
               1
     1  O    0.322270
     2  O   -0.161135
     3  O   -0.161135
 Electronic spatial extent (au):  <R**2>=            110.9779
 Charge=             -0.0000 electrons
 Dipole moment (field-independent basis, Debye):
    X=              0.0000    Y=              0.0000    Z=              0.7044  Tot=              0.7044
 Quadrupole moment (field-independent basis, Debye-Ang):
   XX=            -14.7923   YY=            -17.2613   ZZ=            -15.9355
   XY=             -0.0000   XZ=             -0.0000   YZ=              0.0000
 Traceless Quadrupole moment (field-independent basis, Debye-Ang):
   XX=              1.2041   YY=             -1.2649   ZZ=              0.0608
   XY=             -0.0000   XZ=             -0.0000   YZ=              0.0000
 Octapole moment (field-independent basis, Debye-Ang**2):
  XXX=              0.0000  YYY=              0.0000  ZZZ=              1.2322  XYY=              0.0000
  XXY=              0.0000  XXZ=              0.3008  XZZ=              0.0000  YZZ=             -0.0000
  YYZ=             -0.6795  XYZ=              0.0000
 Hexadecapole moment (field-independent basis, Debye-Ang**3):
 XXXX=            -10.9321 YYYY=            -87.1081 ZZZZ=            -21.5119 XXXY=             -0.0000
 XXXZ=             -0.0000 YYYX=             -0.0000 YYYZ=              0.0000 ZZZX=             -0.0000
 ZZZY=              0.0000 XXYY=            -16.0911 XXZZ=             -5.2303 YYZZ=            -17.6763
 XXYZ=              0.0000 YYXZ=             -0.0000 ZZXY=             -0.0000
 N-N= 6.902700003858D+01 E-N=-6.702964138495D+02  KE= 2.245490337692D+02
 PrsmSu:  requested number of processors reduced to:  21 ShMem   1 Linda.
 No NMR shielding tensors so no spin-rotation constants.
 Leave Link  601 at Sat Apr 17 20:18:13 2021, MaxMem=   104857600 cpu:             210.0 elap:               4.6
 (Enter /s/ls4/users/knvvv/bin/g16sse/l801.exe)
 DoSCS=F DFT=T ScalE2(SS,OS)=  1.000000  1.000000
 Range of M.O.s used for correlation:     1   198
 NBasis=   198 NAE=    12 NBE=    12 NFC=     0 NFV=     0
 NROrb=    198 NOA=    12 NOB=    12 NVA=   186 NVB=   186

 **** Warning!!: The largest alpha MO coefficient is  0.30359483D+02

 Leave Link  801 at Sat Apr 17 20:18:13 2021, MaxMem=   104857600 cpu:               4.1 elap:               0.1
 (Enter /s/ls4/users/knvvv/bin/g16sse/l914.exe)
 RHF ground state
 Doing stability rather than CIS.
 Two-electron integrals replicated using symmetry.
 MDV=   104857600 DFT=T DoStab=T Mixed=T DoRPA=F DoScal=F NonHer=F
 Making orbital integer symmetry assigments:
 Orbital symmetries:
       Occupied  (A1) (B2) (A1) (A1) (B2) (A1) (A1) (B1) (B2) (B2)
                 (A1) (A2)
       Virtual   (B1) (A1) (B2) (A1) (B1) (A1) (B2) (A2) (B1) (A1)
                 (B2) (A1) (B2) (A1) (B2) (A1) (B1) (B1) (B2) (A1)
                 (A2) (B2) (A2) (A1) (B1) (B2) (A1) (B1) (A1) (B2)
                 (A2) (A1) (B2) (A2) (B1) (A1) (B2) (A1) (A1) (B2)
                 (A1) (B1) (A2) (B2) (A1) (B2) (A1) (B1) (A2) (B1)
                 (A1) (B2) (B2) (B1) (A1) (A2) (A1) (B2) (B2) (A1)
                 (A2) (B1) (A1) (B2) (A1) (B2) (B1) (A1) (A2) (A1)
                 (B1) (B2) (A2) (A1) (B2) (B1) (B2) (A2) (A1) (B2)
                 (A1) (A1) (B2) (B1) (A1) (B1) (A2) (B2) (B1) (A2)
                 (A1) (A2) (A1) (B2) (B1) (A1) (B2) (A1) (B2) (B1)
                 (A1) (B2) (A2) (B1) (A1) (B2) (A1) (A2) (B2) (A1)
                 (B1) (B2) (A1) (B2) (A2) (B2) (B1) (A1) (A2) (B1)
                 (A1) (A1) (B2) (A2) (B2) (B1) (A1) (A2) (B2) (B1)
                 (A1) (B2) (B1) (A1) (A1) (B2) (A2) (A2) (B1) (B1)
                 (A1) (A2) (B2) (B1) (A1) (B2) (A1) (A2) (B2) (A1)
                 (B1) (B2) (B1) (A1) (A2) (A2) (B2) (B1) (A1) (B2)
                 (A1) (B1) (A1) (A2) (B2) (A1) (B1) (A1) (A2) (B2)
                 (B2) (B1) (A1) (B2) (A2) (A1) (B2) (A1) (A1) (B2)
                 (A1) (B2) (A1) (A1) (B2) (A1)
    24 initial guesses have been made.
 Convergence on wavefunction:    0.001000000000000
 Davidson Disk Diagonalization:  ConvIn= 1.00D-03 SkipCon=T Conv= 1.00D-03.
 Max sub-space:  2000 roots to seek:    24 dimension of matrix:         4464
 Iteration     1 Dimension    24 NMult     0 NNew     24
 Estimated number of processors is:   19
 CISAX will form     1 AO SS matrices at one time.
 NMat=     1 NSing=     1 JSym2X= 2.
 FoFJK:  IHMeth= 1 ICntrl=       0 DoSepK=F KAlg= 0 I1Cent=           0 FoldK=F
 IRaf= 990000000 NMat=       1 IRICut=       1 DoRegI=T DoRafI=F ISym2E= 2 IDoP0=0 IntGTp=1.
 FoFCou: FMM=F IPFlag=           0 FMFlag=      100000 FMFlg1=           0
         NFxFlg=           0 DoJE=F BraDBF=F KetDBF=F FulRan=T
         wScrn=  0.000000 ICntrl=         0 IOpCl=  0 I1Cent=           0 NGrid=           0
         NMat0=    1 NMatS0=      1 NMatT0=    0 NMatD0=    1 NMtDS0=    0 NMtDT0=    0
 Integrals replicated using symmetry in FoFCou.
 CoulSu:  requested number of processors reduced to:  20 ShMem   1 Linda.
 NMat=     1 NSing=     1 JSym2X= 2.
 CoulSu:  requested number of processors reduced to:  20 ShMem   1 Linda.
 NMat=     1 NSing=     1 JSym2X= 2.
 CoulSu:  requested number of processors reduced to:  20 ShMem   1 Linda.
 NMat=     1 NSing=     1 JSym2X= 2.
 CoulSu:  requested number of processors reduced to:  20 ShMem   1 Linda.
 NMat=     1 NSing=     1 JSym2X= 2.
 CoulSu:  requested number of processors reduced to:  20 ShMem   1 Linda.
 NMat=     1 NSing=     1 JSym2X= 2.
 CoulSu:  requested number of processors reduced to:  20 ShMem   1 Linda.
 NMat=     1 NSing=     1 JSym2X= 2.
 CoulSu:  requested number of processors reduced to:  20 ShMem   1 Linda.
 NMat=     1 NSing=     1 JSym2X= 2.
 CoulSu:  requested number of processors reduced to:  20 ShMem   1 Linda.
 NMat=     1 NSing=     1 JSym2X= 2.
 CoulSu:  requested number of processors reduced to:  20 ShMem   1 Linda.
 NMat=     1 NSing=     1 JSym2X= 2.
 CoulSu:  requested number of processors reduced to:  20 ShMem   1 Linda.
 NMat=     1 NSing=     1 JSym2X= 2.
 CoulSu:  requested number of processors reduced to:  20 ShMem   1 Linda.
 NMat=     1 NSing=     1 JSym2X= 2.
 CoulSu:  requested number of processors reduced to:  20 ShMem   1 Linda.
 NMat=     1 NSing=     0 JSym2X= 2.
 CoulSu:  requested number of processors reduced to:  20 ShMem   1 Linda.
 NMat=     1 NSing=     0 JSym2X= 2.
 CoulSu:  requested number of processors reduced to:  20 ShMem   1 Linda.
 NMat=     1 NSing=     0 JSym2X= 2.
 CoulSu:  requested number of processors reduced to:  20 ShMem   1 Linda.
 NMat=     1 NSing=     0 JSym2X= 2.
 CoulSu:  requested number of processors reduced to:  20 ShMem   1 Linda.
 NMat=     1 NSing=     0 JSym2X= 2.
 CoulSu:  requested number of processors reduced to:  20 ShMem   1 Linda.
 NMat=     1 NSing=     0 JSym2X= 2.
 CoulSu:  requested number of processors reduced to:  20 ShMem   1 Linda.
 NMat=     1 NSing=     0 JSym2X= 2.
 CoulSu:  requested number of processors reduced to:  20 ShMem   1 Linda.
 NMat=     1 NSing=     0 JSym2X= 2.
 CoulSu:  requested number of processors reduced to:  20 ShMem   1 Linda.
 NMat=     1 NSing=     0 JSym2X= 2.
 CoulSu:  requested number of processors reduced to:  20 ShMem   1 Linda.
 NMat=     1 NSing=     0 JSym2X= 2.
 CoulSu:  requested number of processors reduced to:  20 ShMem   1 Linda.
 NMat=     1 NSing=     0 JSym2X= 2.
 CoulSu:  requested number of processors reduced to:  20 ShMem   1 Linda.
 NMat=     1 NSing=     0 JSym2X= 2.
 CoulSu:  requested number of processors reduced to:  20 ShMem   1 Linda.
 New state      1 was old state      2
 Excitation Energies [eV] at current iteration:
 Root      1 :    -1.068745771343333
 Root      2 :     1.318433649967440
 Root      3 :     1.705531547385677
 Root      4 :     2.742439392698336
 Root      5 :     2.784701481164386
 Root      6 :    10.106324168051930
 Root      7 :    10.274312702070930
 Root      8 :    10.328656750168150
 Root      9 :    10.341194985931040
 Root     10 :    10.427343461688520
 Root     11 :    10.442763968382140
 Root     12 :    10.470145750245210
 Root     13 :    10.523847547716800
 Root     14 :    10.553831612890620
 Root     15 :    10.561254632600340
 Root     16 :    10.576462615765810
 Root     17 :    10.660478347665690
 Root     18 :    10.685573240799670
 Root     19 :    10.733974145756390
 Root     20 :    10.803224448289430
 Root     21 :    10.869450410954070
 Root     22 :    11.026987741305430
 Root     23 :    11.375023017534590
 Root     24 :    18.149435820639500
 Iteration     2 Dimension    48 NMult    24 NNew     24
 Estimated number of processors is:   19
 CISAX will form     1 AO SS matrices at one time.
 NMat=     1 NSing=     1 JSym2X= 2.
 CoulSu:  requested number of processors reduced to:  20 ShMem   1 Linda.
 NMat=     1 NSing=     1 JSym2X= 2.
 CoulSu:  requested number of processors reduced to:  20 ShMem   1 Linda.
 NMat=     1 NSing=     1 JSym2X= 2.
 CoulSu:  requested number of processors reduced to:  20 ShMem   1 Linda.
 NMat=     1 NSing=     1 JSym2X= 2.
 CoulSu:  requested number of processors reduced to:  20 ShMem   1 Linda.
 NMat=     1 NSing=     1 JSym2X= 2.
 CoulSu:  requested number of processors reduced to:  20 ShMem   1 Linda.
 NMat=     1 NSing=     1 JSym2X= 2.
 CoulSu:  requested number of processors reduced to:  20 ShMem   1 Linda.
 NMat=     1 NSing=     1 JSym2X= 2.
 CoulSu:  requested number of processors reduced to:  20 ShMem   1 Linda.
 NMat=     1 NSing=     1 JSym2X= 2.
 CoulSu:  requested number of processors reduced to:  20 ShMem   1 Linda.
 NMat=     1 NSing=     1 JSym2X= 2.
 CoulSu:  requested number of processors reduced to:  20 ShMem   1 Linda.
 NMat=     1 NSing=     1 JSym2X= 2.
 CoulSu:  requested number of processors reduced to:  20 ShMem   1 Linda.
 NMat=     1 NSing=     1 JSym2X= 2.
 CoulSu:  requested number of processors reduced to:  20 ShMem   1 Linda.
 NMat=     1 NSing=     1 JSym2X= 2.
 CoulSu:  requested number of processors reduced to:  20 ShMem   1 Linda.
 NMat=     1 NSing=     0 JSym2X= 2.
 CoulSu:  requested number of processors reduced to:  20 ShMem   1 Linda.
 NMat=     1 NSing=     0 JSym2X= 2.
 CoulSu:  requested number of processors reduced to:  20 ShMem   1 Linda.
 NMat=     1 NSing=     0 JSym2X= 2.
 CoulSu:  requested number of processors reduced to:  20 ShMem   1 Linda.
 NMat=     1 NSing=     0 JSym2X= 2.
 CoulSu:  requested number of processors reduced to:  20 ShMem   1 Linda.
 NMat=     1 NSing=     0 JSym2X= 2.
 CoulSu:  requested number of processors reduced to:  20 ShMem   1 Linda.
 NMat=     1 NSing=     0 JSym2X= 2.
 CoulSu:  requested number of processors reduced to:  20 ShMem   1 Linda.
 NMat=     1 NSing=     0 JSym2X= 2.
 CoulSu:  requested number of processors reduced to:  20 ShMem   1 Linda.
 NMat=     1 NSing=     0 JSym2X= 2.
 CoulSu:  requested number of processors reduced to:  20 ShMem   1 Linda.
 NMat=     1 NSing=     0 JSym2X= 2.
 CoulSu:  requested number of processors reduced to:  20 ShMem   1 Linda.
 NMat=     1 NSing=     0 JSym2X= 2.
 CoulSu:  requested number of processors reduced to:  20 ShMem   1 Linda.
 NMat=     1 NSing=     0 JSym2X= 2.
 CoulSu:  requested number of processors reduced to:  20 ShMem   1 Linda.
 NMat=     1 NSing=     0 JSym2X= 2.
 CoulSu:  requested number of processors reduced to:  20 ShMem   1 Linda.
 Root      1 not converged, maximum delta is    0.047037779107143
 Excitation Energies [eV] at current iteration:
 Root      1 :    -1.517041387811694   Change is   -0.448295616468360
 Root      2 :     0.900417931317316   Change is   -0.418015718650124
 Root      3 :     1.292507047755374   Change is   -0.413024499630303
 Root      4 :     2.461357146280495   Change is   -0.281082246417841
 Root      5 :     2.598618733717654   Change is   -0.186082747446732
 Root      6 :     6.106415539235373   Change is  -12.043020281404130
 Root      7 :     8.994589804518592   Change is   -1.529257743198205
 Root      8 :     9.209346435348127   Change is   -1.593878012941299
 Root      9 :     9.338687504378742   Change is   -1.088655957309781
 Root     10 :     9.984640894868180   Change is   -0.289671807202753
 Root     11 :    10.083572665522780   Change is   -0.477681967077561
 Root     12 :    10.108745984018530   Change is   -0.219910766149627
 Root     13 :    10.133364587578680   Change is   -0.207830398352354
 Root     14 :    10.189502855808750   Change is   -0.253261112573399
 Root     15 :    10.217915460658970   Change is   -0.335916152231646
 Root     16 :    10.253382096865850   Change is   -0.216763653379367
 Root     17 :    10.444394165011350   Change is   -0.289579980745040
 Root     18 :    10.459983370251480   Change is   -0.116479245514334
 Root     19 :    10.471756904194500   Change is   -0.397693506759565
 Root     20 :    10.501182119493540   Change is   -0.184391121306133
 Root     21 :    10.573890056768960   Change is   -0.086588290896730
 Root     22 :    10.666918124277540   Change is   -0.360069617027894
 Root     23 :    10.990850751119990   Change is    0.884526583068055
 Root     24 :    11.168714293704370   Change is   -0.206308723830224
 Iteration     3 Dimension    54 NMult    48 NNew      6
 Estimated number of processors is:   19
 CISAX will form     1 AO SS matrices at one time.
 NMat=     1 NSing=     1 JSym2X= 2.
 CoulSu:  requested number of processors reduced to:  20 ShMem   1 Linda.
 NMat=     1 NSing=     1 JSym2X= 2.
 CoulSu:  requested number of processors reduced to:  20 ShMem   1 Linda.
 NMat=     1 NSing=     1 JSym2X= 2.
 CoulSu:  requested number of processors reduced to:  20 ShMem   1 Linda.
 NMat=     1 NSing=     0 JSym2X= 2.
 CoulSu:  requested number of processors reduced to:  20 ShMem   1 Linda.
 NMat=     1 NSing=     0 JSym2X= 2.
 CoulSu:  requested number of processors reduced to:  20 ShMem   1 Linda.
 NMat=     1 NSing=     0 JSym2X= 2.
 CoulSu:  requested number of processors reduced to:  20 ShMem   1 Linda.
 Root      1 not converged, maximum delta is    0.003722226140272
 Excitation Energies [eV] at current iteration:
 Root      1 :    -1.524537725258429   Change is   -0.007496337446736
 Root      2 :     0.889550744813167   Change is   -0.010867186504149
 Root      3 :     1.285913224188815   Change is   -0.006593823566559
 Root      4 :     2.445274896541473   Change is   -0.016082249739022
 Root      5 :     2.593500236696448   Change is   -0.005118497021205
 Root      6 :     5.868450221036948   Change is   -0.237965318198424
 Iteration     4 Dimension    60 NMult    54 NNew      6
 Estimated number of processors is:   19
 CISAX will form     1 AO SS matrices at one time.
 NMat=     1 NSing=     1 JSym2X= 2.
 CoulSu:  requested number of processors reduced to:  20 ShMem   1 Linda.
 NMat=     1 NSing=     1 JSym2X= 2.
 CoulSu:  requested number of processors reduced to:  20 ShMem   1 Linda.
 NMat=     1 NSing=     1 JSym2X= 2.
 CoulSu:  requested number of processors reduced to:  20 ShMem   1 Linda.
 NMat=     1 NSing=     0 JSym2X= 2.
 CoulSu:  requested number of processors reduced to:  20 ShMem   1 Linda.
 NMat=     1 NSing=     0 JSym2X= 2.
 CoulSu:  requested number of processors reduced to:  20 ShMem   1 Linda.
 NMat=     1 NSing=     0 JSym2X= 2.
 CoulSu:  requested number of processors reduced to:  20 ShMem   1 Linda.
 Root      1 not converged, maximum delta is    0.001005020322590
 Excitation Energies [eV] at current iteration:
 Root      1 :    -1.524849648083828   Change is   -0.000311922825398
 Root      2 :     0.888755163477050   Change is   -0.000795581336117
 Root      3 :     1.285679601301695   Change is   -0.000233622887121
 Root      4 :     2.444127689419419   Change is   -0.001147207122054
 Root      5 :     2.593343119995155   Change is   -0.000157116701294
 Root      6 :     5.858639036733690   Change is   -0.009811184303258
 Cease iterating as an instability has been found.
 ***********************************************************************
 Stability analysis using <AA,BB:AA,BB> singles matrix:
 ***********************************************************************
 1PDM for each excited state written to RWF  633
 Ground to excited state transition densities written to RWF  633

 Eigenvectors of the stability matrix:
 
 Eigenvector   1:      Triplet-B2   Eigenvalue=-0.0560372  <S**2>=2.000
      12 -> 13         0.69762
 
 Eigenvector   2:      Triplet-B1   Eigenvalue= 0.0326612  <S**2>=2.000
      11 -> 13         0.69704
 
 Eigenvector   3:      Triplet-A2   Eigenvalue= 0.0472479  <S**2>=2.000
      10 -> 13         0.69603
 
 Eigenvector   4:      Singlet-B1   Eigenvalue= 0.0898200  <S**2>=0.000
      11 -> 13         0.70245
 
 Eigenvector   5:      Singlet-A2   Eigenvalue= 0.0953036  <S**2>=0.000
      10 -> 13         0.70333
 
 Eigenvector   6:      Singlet-B2   Eigenvalue= 0.2153010  <S**2>=0.000
       9 -> 24         0.11670
      10 -> 24        -0.19262
      11 -> 25        -0.13599
      11 -> 27         0.11971
      12 -> 13         0.59679
 The wavefunction has an RHF -> UHF instability.
 Leave Link  914 at Sat Apr 17 20:20:24 2021, MaxMem=   104857600 cpu:            4943.0 elap:             130.9
 (Enter /s/ls4/users/knvvv/bin/g16sse/l508.exe)
 Two-electron integrals replicated using symmetry.
 Tight linear equation convergence will be used.
 UM062X wavefunction.
 Quadratic Convergence SCF Method.
 Line search only if initial step raises energy.
 Fock matrices will be formed incrementally for  20 cycles.
 Perform preliminary linear searches along instability eigenvector.
     ILin= 1 X=0.000D+00 Y=-2.254210867450D+02 DE= 0.00D+00
 FoFJK:  IHMeth= 1 ICntrl=       0 DoSepK=F KAlg= 0 I1Cent=           0 FoldK=F
 IRaf= 990000000 NMat=       1 IRICut=       1 DoRegI=T DoRafI=F ISym2E= 2 IDoP0=0 IntGTp=1.
 FoFCou: FMM=F IPFlag=           0 FMFlag=      100000 FMFlg1=           0
         NFxFlg=           0 DoJE=F BraDBF=F KetDBF=F FulRan=T
         wScrn=  0.000000 ICntrl=         0 IOpCl=  1 I1Cent=           0 NGrid=           0
         NMat0=    1 NMatS0=      1 NMatT0=    0 NMatD0=    1 NMtDS0=    0 NMtDT0=    0
 Integrals replicated using symmetry in FoFCou.
 CoulSu:  requested number of processors reduced to:  18 ShMem   1 Linda.
     ILin= 2 X=1.000D-01 Y=-2.254216331553D+02 DE=-5.46D-04
 CoulSu:  requested number of processors reduced to:  18 ShMem   1 Linda.
     ILin= 3 X=1.414D-01 Y=-2.254221522480D+02 DE=-1.07D-03
 CoulSu:  requested number of processors reduced to:  18 ShMem   1 Linda.
     ILin= 4 X=2.000D-01 Y=-2.254231100838D+02 DE=-2.02D-03
 CoulSu:  requested number of processors reduced to:  18 ShMem   1 Linda.
     ILin= 5 X=2.828D-01 Y=-2.254247150497D+02 DE=-3.63D-03
 CoulSu:  requested number of processors reduced to:  18 ShMem   1 Linda.
     ILin= 6 X=4.000D-01 Y=-2.254267606565D+02 DE=-5.67D-03
 CoulSu:  requested number of processors reduced to:  18 ShMem   1 Linda.
     ILin= 7 X=5.657D-01 Y=-2.254267274043D+02 DE=-5.64D-03
     An  expanding polynomial of degree  7 produced  0.4874
 Iteration F X= 4.874D-01 EE=-2.254273854743142D+02
     ILin= 1 X=0.000D+00 Y=-2.254210867450D+02 DE= 0.00D+00
 CoulSu:  requested number of processors reduced to:  18 ShMem   1 Linda.
     ILin= 2 X=1.000D-01 Y=-2.254216331553D+02 DE=-5.46D-04
 CoulSu:  requested number of processors reduced to:  18 ShMem   1 Linda.
     ILin= 3 X=1.414D-01 Y=-2.254221522480D+02 DE=-1.07D-03
 The two search directions are symmetric.
 Iteration B X= 4.874D-01 EE=-2.254273854743142D+02
 Take forward step, X= 4.874D-01 Step= 4.874D-01
 CoulSu:  requested number of processors reduced to:  18 ShMem   1 Linda.
 Iteration   1 EE= -225.427386516338                                    Grad=6.100D-02 Max rot=    0.6367 deg.
 Gradient too large for Newton-Raphson -- use scaled steepest descent instead.
 Alpha Gap=     0.337 HL deriv= 5.29D-04
  Beta Gap=     0.337 HL deriv= 5.29D-04
     ILin= 1 X=0.000D+00 Y=-2.254273865163D+02 DE= 0.00D+00 F= -4.02D-03
 RMSU=  4.69D-05    CP:  1.00D+00
 CoulSu:  requested number of processors reduced to:  18 ShMem   1 Linda.
     ILin= 2 X=3.000D-01 Y=-2.254282220493D+02 DE=-8.36D-04 F= -1.55D-03
 RMSU=  4.37D-07    CP:  1.00D+00  2.00D+00
 CoulSu:  requested number of processors reduced to:  18 ShMem   1 Linda.
     ILin= 3 X=6.000D-01 Y=-2.254283146823D+02 DE=-9.28D-04 F=  9.29D-04
     Accept linear search using points  2 and  3.
     An  expanding polynomial of degree  3 produced  0.4481
 RMSU=  1.15D-10    CP:  1.00D+00  1.49D+00  3.69D-01
 CoulSu:  requested number of processors reduced to:  18 ShMem   1 Linda.
 Iteration   2 EE= -225.428360591011     Delta-E=       -0.000974074672 Grad=2.505D-02 Max rot=    0.4536 deg.
 Gradient too large for Newton-Raphson -- use scaled steepest descent instead.
 Alpha Gap=     0.331 HL deriv= 7.94D-03
  Beta Gap=     0.331 HL deriv= 7.94D-03
     ILin= 1 X=0.000D+00 Y=-2.254283605910D+02 DE= 0.00D+00 F= -8.09D-04
 RMSU=  2.79D-05    CP:  1.00D+00  1.69D+00  3.00D+00 -3.00D+00
 CoulSu:  requested number of processors reduced to:  18 ShMem   1 Linda.
     ILin= 2 X=4.000D-01 Y=-2.254286200127D+02 DE=-2.59D-04 F= -4.88D-04
 RMSU=  9.07D-07    CP:  1.00D+00  1.83D+00  3.00D+00 -3.00D+00  1.75D+00
 CoulSu:  requested number of processors reduced to:  18 ShMem   1 Linda.
     ILin= 3 X=7.000D-01 Y=-2.254287304819D+02 DE=-3.70D-04 F= -2.48D-04
 RMSU=  2.12D-05    CP:  1.00D+00  2.22D+00  3.00D+00 -3.00D+00  3.00D+00
                    CP:  3.00D+00
 CoulSu:  requested number of processors reduced to:  18 ShMem   1 Linda.
     ILin= 4 X=1.500D+00 Y=-2.254286751873D+02 DE=-3.15D-04 F=  3.85D-04
     An  expanding polynomial of degree  4 produced  1.0125
 RMSU=  1.74D-07    CP:  1.00D+00  1.99D+00  3.00D+00 -3.00D+00  2.53D+00
                    CP:  2.11D+00  3.09D-04
 CoulSu:  requested number of processors reduced to:  18 ShMem   1 Linda.
 Iteration   3 EE= -225.428769268916     Delta-E=       -0.000408677906 Grad=1.972D-02 Max rot=    0.2468 deg.
 Gradient too large for Newton-Raphson -- use scaled steepest descent instead.
 Alpha Gap=     0.336 HL deriv= 5.80D-03
  Beta Gap=     0.336 HL deriv= 5.80D-03
     ILin= 1 X=0.000D+00 Y=-2.254287692689D+02 DE= 0.00D+00 F= -6.14D-04
 RMSU=  2.44D-05    CP:  1.00D+00  2.76D+00  3.00D+00 -3.00D+00  2.22D+00
                    CP:  5.18D-01  3.87D-03  3.00D+00
 CoulSu:  requested number of processors reduced to:  18 ShMem   1 Linda.
     ILin= 2 X=7.000D-01 Y=-2.254288820374D+02 DE=-1.13D-04 F=  2.91D-04
     Accept linear search using points  1 and  2.
     An  expanding polynomial of degree  2 produced  0.4215
 RMSU=  1.40D-07    CP:  1.00D+00  2.45D+00  3.00D+00 -3.00D+00  2.34D+00
                    CP:  1.10D+00  2.45D-03  3.00D+00  6.02D-01
 CoulSu:  requested number of processors reduced to:  18 ShMem   1 Linda.
 Iteration   4 EE= -225.428913018184     Delta-E=       -0.000143749268 Grad=6.234D-03 Max rot=    0.1498 deg.
 QCNR:  CnvC1=6.68D-09 CnvC2=6.68D-08
 LinEq1:  Iter=  0 NonCon=     1 RMS=2.07D-04 Max=8.92D-03 NDo=     1
 Estimated number of processors is:   19
 AX will form     1 AO Fock derivatives at one time.
 CoulSu:  requested number of processors reduced to:  18 ShMem   1 Linda.
 LinEq1:  Iter=  1 NonCon=     1 RMS=1.03D-04 Max=3.24D-03 NDo=     1
 Estimated number of processors is:   19
 CoulSu:  requested number of processors reduced to:  18 ShMem   1 Linda.
 LinEq1:  Iter=  2 NonCon=     1 RMS=5.04D-05 Max=1.31D-03 NDo=     1
 Estimated number of processors is:   19
 CoulSu:  requested number of processors reduced to:  18 ShMem   1 Linda.
 LinEq1:  Iter=  3 NonCon=     1 RMS=5.63D-06 Max=1.01D-04 NDo=     1
 Estimated number of processors is:   19
 CoulSu:  requested number of processors reduced to:  18 ShMem   1 Linda.
 LinEq1:  Iter=  4 NonCon=     1 RMS=1.98D-06 Max=2.51D-05 NDo=     1
 Estimated number of processors is:   19
 CoulSu:  requested number of processors reduced to:  18 ShMem   1 Linda.
 LinEq1:  Iter=  5 NonCon=     1 RMS=4.70D-07 Max=5.54D-06 NDo=     1
 Estimated number of processors is:   19
 CoulSu:  requested number of processors reduced to:  18 ShMem   1 Linda.
 LinEq1:  Iter=  6 NonCon=     1 RMS=1.82D-07 Max=2.60D-06 NDo=     1
 Estimated number of processors is:   19
 CoulSu:  requested number of processors reduced to:  18 ShMem   1 Linda.
 LinEq1:  Iter=  7 NonCon=     1 RMS=3.69D-08 Max=3.66D-07 NDo=     1
 Estimated number of processors is:   19
 CoulSu:  requested number of processors reduced to:  18 ShMem   1 Linda.
 LinEq1:  Iter=  8 NonCon=     1 RMS=9.94D-09 Max=2.34D-07 NDo=     1
 Estimated number of processors is:   19
 CoulSu:  requested number of processors reduced to:  18 ShMem   1 Linda.
 LinEq1:  Iter=  9 NonCon=     0 RMS=1.92D-09 Max=3.21D-08 NDo=     1
 Linear equations converged to 6.681D-09 6.681D-08 after     9 iterations.
 Angle between quadratic step and gradient=  39.54 degrees.
     ILin= 1 X=0.000D+00 Y=-2.254289130182D+02 DE= 0.00D+00 F= -6.08D-04
 RMSU=  8.72D-05    CP:  1.00D+00  3.00D+00  3.00D+00  3.00D+00  3.00D+00
                    CP:  2.56D+00  2.97D+00  3.00D+00  3.00D+00 -3.00D+00
 CoulSu:  requested number of processors reduced to:  18 ShMem   1 Linda.
     ILin= 2 X=1.000D+00 Y=-2.254291926921D+02 DE=-2.80D-04 F=  7.32D-05
     Accept linear search using points  1 and  2.
     An  expanding polynomial of degree  2 produced  0.9022
 RMSU=  4.04D-06    CP:  1.00D+00  3.00D+00  3.00D+00  3.00D+00  3.00D+00
                    CP:  2.23D+00  2.60D+00  3.00D+00  3.00D+00 -3.00D+00
                    CP:  8.47D-01
 CoulSu:  requested number of processors reduced to:  18 ShMem   1 Linda.
 Iteration   5 EE= -225.429196267369     Delta-E=       -0.000283249185 Grad=8.529D-04 Max rot=    0.0195 deg.
 QCNR:  CnvC1=6.68D-09 CnvC2=6.68D-08
 LinEq1:  Iter=  0 NonCon=     1 RMS=1.51D-05 Max=6.03D-04 NDo=     1
 Estimated number of processors is:   19
 CoulSu:  requested number of processors reduced to:  18 ShMem   1 Linda.
 LinEq1:  Iter=  1 NonCon=     1 RMS=1.09D-06 Max=2.13D-05 NDo=     1
 Estimated number of processors is:   19
 CoulSu:  requested number of processors reduced to:  18 ShMem   1 Linda.
 LinEq1:  Iter=  2 NonCon=     1 RMS=2.89D-07 Max=5.43D-06 NDo=     1
 Estimated number of processors is:   19
 CoulSu:  requested number of processors reduced to:  18 ShMem   1 Linda.
 LinEq1:  Iter=  3 NonCon=     1 RMS=3.58D-07 Max=1.11D-05 NDo=     1
 Estimated number of processors is:   19
 CoulSu:  requested number of processors reduced to:  18 ShMem   1 Linda.
 LinEq1:  Iter=  4 NonCon=     1 RMS=1.51D-07 Max=2.28D-06 NDo=     1
 Estimated number of processors is:   19
 CoulSu:  requested number of processors reduced to:  18 ShMem   1 Linda.
 LinEq1:  Iter=  5 NonCon=     1 RMS=3.93D-08 Max=6.03D-07 NDo=     1
 Estimated number of processors is:   19
 CoulSu:  requested number of processors reduced to:  18 ShMem   1 Linda.
 LinEq1:  Iter=  6 NonCon=     1 RMS=7.71D-09 Max=1.16D-07 NDo=     1
 Estimated number of processors is:   19
 CoulSu:  requested number of processors reduced to:  18 ShMem   1 Linda.
 LinEq1:  Iter=  7 NonCon=     0 RMS=1.94D-09 Max=2.74D-08 NDo=     1
 Linear equations converged to 6.681D-09 6.681D-08 after     7 iterations.
 Angle between quadratic step and gradient=  42.79 degrees.
     ILin= 1 X=0.000D+00 Y=-2.254291962674D+02 DE= 0.00D+00 F= -1.98D-06
 RMSU=  2.69D-06    CP:  1.00D+00  3.00D+00  3.00D+00  3.00D+00  3.00D+00
                    CP:  2.16D+00  2.63D+00  3.00D+00  3.00D+00 -3.00D+00
                    CP:  8.23D-01  2.44D-01
 CoulSu:  requested number of processors reduced to:  18 ShMem   1 Linda.
     ILin= 2 X=1.000D+00 Y=-2.254291972558D+02 DE=-9.88D-07 F= -6.08D-10
     Reject lnstep minimum 1.000D+00 FVal=-2.254291972558D+02 Lims=  0.00D+00  1.00D+00
 RMSU=  6.78D-09    CP:  1.00D+00  3.00D+00  3.00D+00  3.00D+00  3.00D+00
                    CP:  2.09D+00  2.66D+00  3.00D+00  3.00D+00 -3.00D+00
                    CP:  7.98D-01 -5.13D-01  2.00D+00
 CoulSu:  requested number of processors reduced to:  18 ShMem   1 Linda.
     ILin= 3 X=2.000D+00 Y=-2.254291962689D+02 DE=-1.57D-09 F=  1.97D-06
     An  expanding polynomial of degree  3 produced  1.0004
     Minimum is close to point  2 DX=  3.98D-04 DF= -1.71D-13 DXR=  3.98D-04 DFR=  1.73D-07 which will be used.
 Iteration   6 EE= -225.429197255829     Delta-E=       -0.000000988460 Grad=1.017D-06 Max rot=    0.0000 deg.
 QCNR:  CnvC1=1.02D-11 CnvC2=1.02D-10
 LinEq1:  Iter=  0 NonCon=     1 RMS=1.24D-08 Max=4.85D-07 NDo=     1
 Estimated number of processors is:   19
 CoulSu:  requested number of processors reduced to:  18 ShMem   1 Linda.
 LinEq1:  Iter=  1 NonCon=     1 RMS=5.74D-09 Max=1.08D-07 NDo=     1
 Estimated number of processors is:   19
 CoulSu:  requested number of processors reduced to:  18 ShMem   1 Linda.
 LinEq1:  Iter=  2 NonCon=     1 RMS=2.89D-09 Max=9.21D-08 NDo=     1
 Estimated number of processors is:   19
 CoulSu:  requested number of processors reduced to:  18 ShMem   1 Linda.
 LinEq1:  Iter=  3 NonCon=     1 RMS=2.14D-09 Max=3.61D-08 NDo=     1
 Estimated number of processors is:   19
 CoulSu:  requested number of processors reduced to:  18 ShMem   1 Linda.
 LinEq1:  Iter=  4 NonCon=     1 RMS=9.12D-10 Max=1.82D-08 NDo=     1
 Estimated number of processors is:   19
 CoulSu:  requested number of processors reduced to:  18 ShMem   1 Linda.
 LinEq1:  Iter=  5 NonCon=     1 RMS=1.98D-10 Max=2.22D-09 NDo=     1
 Estimated number of processors is:   19
 CoulSu:  requested number of processors reduced to:  18 ShMem   1 Linda.
 LinEq1:  Iter=  6 NonCon=     1 RMS=4.01D-11 Max=9.90D-10 NDo=     1
 Estimated number of processors is:   19
 CoulSu:  requested number of processors reduced to:  18 ShMem   1 Linda.
 LinEq1:  Iter=  7 NonCon=     1 RMS=1.32D-11 Max=2.49D-10 NDo=     1
 Estimated number of processors is:   19
 CoulSu:  requested number of processors reduced to:  18 ShMem   1 Linda.
 LinEq1:  Iter=  8 NonCon=     0 RMS=3.48D-12 Max=8.83D-11 NDo=     1
 Linear equations converged to 1.017D-11 1.017D-10 after     8 iterations.
 Angle between quadratic step and gradient=  70.71 degrees.
     ILin= 1 X=0.000D+00 Y=-2.254291972558D+02 DE= 0.00D+00 F= -1.88D-12
 RMSU=  3.06D-09    CP:  1.00D+00  3.00D+00  3.00D+00  3.00D+00  3.00D+00
                    CP:  2.16D+00  2.63D+00  3.00D+00  3.00D+00 -3.00D+00
                    CP:  8.22D-01  2.44D-01  1.00D+00  1.13D-02
 CoulSu:  requested number of processors reduced to:  18 ShMem   1 Linda.
     ILin= 2 X=1.000D+00 Y=-2.254291972558D+02 DE= 0.00D+00 F= -1.41D-16
 RMSU=  1.82D-14    CP:  1.00D+00  3.00D+00  3.00D+00  3.00D+00  3.00D+00
                    CP:  2.16D+00  2.63D+00  3.00D+00  3.00D+00 -3.00D+00
                    CP:  8.22D-01  2.45D-01  1.00D+00  2.25D-02  2.00D+00
     ILin= 3 X=2.000D+00 Y=-2.254291972559D+02 DE=-3.48D-11 F=  1.88D-12
 RMSU=  3.06D-09    CP:  1.00D+00  3.00D+00  3.00D+00  3.00D+00  3.00D+00
                    CP:  2.16D+00  2.63D+00  3.00D+00  3.00D+00 -3.00D+00
                    CP:  8.22D-01  2.46D-01  1.00D+00  4.50D-02  3.00D+00
                    CP:  3.00D+00
 CoulSu:  requested number of processors reduced to:  18 ShMem   1 Linda.
     ILin= 4 X=4.000D+00 Y=-2.254291972559D+02 DE=-1.04D-10 F=  5.63D-12
 RMSU=  6.12D-09    CP:  1.00D+00  3.00D+00  3.00D+00  3.00D+00  3.00D+00
                    CP:  2.15D+00  2.63D+00  3.00D+00  3.00D+00 -3.00D+00
                    CP:  8.22D-01  2.47D-01  1.00D+00  9.01D-02  3.00D+00
                    CP:  3.00D+00  3.00D+00
 CoulSu:  requested number of processors reduced to:  18 ShMem   1 Linda.
     ILin= 5 X=8.000D+00 Y=-2.254291972559D+02 DE=-6.40D-11 F=  1.31D-11
     An  expanding polynomial of degree  5 produced  4.7502
 RMSU=  1.20D-14    CP:  1.00D+00  3.00D+00  3.00D+00  3.00D+00  3.00D+00
                    CP:  2.16D+00  2.63D+00  3.00D+00  3.00D+00 -3.00D+00
                    CP:  8.22D-01  2.46D-01  1.00D+00  5.35D-02  3.00D+00
                    CP:  3.00D+00  1.75D+00  5.80D-11
 Iteration   7 EE= -225.429197255950     Delta-E=       -0.000000000121 Grad=3.810D-06 Max rot=    0.0000 deg.
 QCNR:  CnvC1=3.81D-11 CnvC2=3.81D-10
 LinEq1:  Iter=  0 NonCon=     1 RMS=4.65D-08 Max=1.82D-06 NDo=     1
 Estimated number of processors is:   19
 CoulSu:  requested number of processors reduced to:  18 ShMem   1 Linda.
 LinEq1:  Iter=  1 NonCon=     1 RMS=2.15D-08 Max=4.07D-07 NDo=     1
 Estimated number of processors is:   19
 CoulSu:  requested number of processors reduced to:  18 ShMem   1 Linda.
 LinEq1:  Iter=  2 NonCon=     1 RMS=1.08D-08 Max=3.45D-07 NDo=     1
 Estimated number of processors is:   19
 CoulSu:  requested number of processors reduced to:  18 ShMem   1 Linda.
 LinEq1:  Iter=  3 NonCon=     1 RMS=8.03D-09 Max=1.36D-07 NDo=     1
 Estimated number of processors is:   19
 CoulSu:  requested number of processors reduced to:  18 ShMem   1 Linda.
 LinEq1:  Iter=  4 NonCon=     1 RMS=3.42D-09 Max=6.84D-08 NDo=     1
 Estimated number of processors is:   19
 CoulSu:  requested number of processors reduced to:  18 ShMem   1 Linda.
 LinEq1:  Iter=  5 NonCon=     1 RMS=7.43D-10 Max=8.33D-09 NDo=     1
 Estimated number of processors is:   19
 CoulSu:  requested number of processors reduced to:  18 ShMem   1 Linda.
 LinEq1:  Iter=  6 NonCon=     1 RMS=1.54D-10 Max=4.00D-09 NDo=     1
 Estimated number of processors is:   19
 CoulSu:  requested number of processors reduced to:  18 ShMem   1 Linda.
 LinEq1:  Iter=  7 NonCon=     1 RMS=8.25D-11 Max=2.39D-09 NDo=     1
 Estimated number of processors is:   19
 CoulSu:  requested number of processors reduced to:  18 ShMem   1 Linda.
 LinEq1:  Iter=  8 NonCon=     1 RMS=7.22D-11 Max=1.57D-09 NDo=     1
 Estimated number of processors is:   19
 CoulSu:  requested number of processors reduced to:  18 ShMem   1 Linda.
 LinEq1:  Iter=  9 NonCon=     0 RMS=1.87D-11 Max=2.80D-10 NDo=     1
 Linear equations converged to 3.810D-11 3.810D-10 after     9 iterations.
 Angle between quadratic step and gradient=  70.69 degrees.
     ILin= 1 X=0.000D+00 Y=-2.254291972559D+02 DE= 0.00D+00 F= -2.64D-11
 RMSU=  1.65D-11    CP:  1.00D+00  3.00D+00  3.00D+00  3.00D+00  3.00D+00
                    CP:  2.16D+00  2.63D+00  3.00D+00  3.00D+00 -3.00D+00
                    CP:  8.22D-01  2.44D-01  1.00D+00  1.12D-02  1.00D+00
                    CP:  3.00D+00  4.29D-10  3.58D-10  3.00D+00
 CoulSu:  requested number of processors reduced to:  18 ShMem   1 Linda.
     ILin= 2 X=1.000D+00 Y=-2.254291972560D+02 DE=-6.05D-11
 Iteration   8 EE= -225.429197256011     Delta-E=       -0.000000000060 Grad=4.014D-09 Max rot=    0.0000 deg.
 Rotation gradient small -- convergence achieved.
 Density matrix breaks symmetry, PCut= 1.00D-04
 Density matrix has no symmetry -- integrals replicated.
 Density matrix is not symmetric, so final MOs not symmetrized.
 SCF Done:  E(UM062X) =  -225.429197256     a.u. after    8 cycles
            Convg  =    0.4014D-08                    61 Fock formations.
              S**2 =  0.5022                  -V/T =  2.0031
 <Sx>= 0.0000 <Sy>= 0.0000 <Sz>= 0.0000 <S**2>= 0.5022 S= 0.3673
 <L.S>= 0.000000000000E+00
 Annihilation of the first spin contaminant:
 S**2 before annihilation     0.5022,   after     0.0110
 Leave Link  508 at Sat Apr 17 20:22:51 2021, MaxMem=   104857600 cpu:            5118.6 elap:             147.5
 (Enter /s/ls4/users/knvvv/bin/g16sse/l801.exe)
 DoSCS=F DFT=T ScalE2(SS,OS)=  1.000000  1.000000
 Range of M.O.s used for correlation:     1   198
 NBasis=   198 NAE=    12 NBE=    12 NFC=     0 NFV=     0
 NROrb=    198 NOA=    12 NOB=    12 NVA=   186 NVB=   186

 **** Warning!!: The largest alpha MO coefficient is  0.30038219D+02


 **** Warning!!: The largest beta MO coefficient is  0.30038219D+02

 Leave Link  801 at Sat Apr 17 20:22:51 2021, MaxMem=   104857600 cpu:               4.2 elap:               0.1
 (Enter /s/ls4/users/knvvv/bin/g16sse/l914.exe)
 UHF ground state
 Doing stability rather than CIS.
 Two-electron integrals replicated using symmetry.
 MDV=   104857600 DFT=T DoStab=T Mixed=T DoRPA=F DoScal=F NonHer=F
 Making orbital integer symmetry assigments:
 Orbital symmetries:
 Alpha Orbitals:
       Occupied  (A1) (?A) (?A) (B2) (B2) (B2) (B2) (?B) (B2) (?B)
                 (B2) (B2)
       Virtual   (?B) (B2) (B2) (B2) (?B) (B2) (B2) (?B) (?B) (B2)
                 (B2) (B2) (B2) (B2) (B2) (B2) (?B) (?B) (B2) (B2)
                 (?B) (B2) (?B) (B2) (?B) (B2) (B2) (?B) (B2) (B2)
                 (?B) (B2) (B2) (?B) (?B) (B2) (B2) (B2) (B2) (B2)
                 (B2) (?B) (?B) (B2) (B2) (B2) (B2) (?B) (?B) (?B)
                 (B2) (B2) (B2) (?B) (B2) (?B) (B2) (B2) (B2) (B2)
                 (?B) (?B) (?C) (?C) (?C) (B2) (B1) (?D) (?B) (?D)
                 (?B) (?D) (?B) (?D) (?D) (?B) (?D) (?B) (?D) (?D)
                 (?D) (?D) (?D) (?B) (?D) (?B) (?D) (?B) (?B) (?B)
                 (?D) (?B) (?D) (?D) (?B) (?D) (?D) (?D) (?D) (?B)
                 (?D) (?D) (?B) (?B) (?D) (?D) (?D) (?B) (?D) (?D)
                 (?B) (B2) (?E) (?E) (?F) (?E) (?F) (?E) (?F) (?F)
                 (?E) (?E) (?E) (?F) (?E) (?F) (?E) (?F) (?E) (?F)
                 (?E) (?E) (?F) (?E) (?E) (?E) (?F) (?F) (?F) (?F)
                 (?E) (?F) (?E) (?F) (?E) (?E) (?E) (?F) (?E) (?E)
                 (?F) (?E) (?F) (?E) (?F) (?F) (?E) (?F) (?E) (?E)
                 (?E) (?F) (?E) (?F) (?E) (?E) (?F) (?E) (?F) (?E)
                 (?E) (?F) (?E) (?E) (?F) (?E) (?E) (?E) (?E) (?E)
                 (?G) (?G) (?G) (?H) (?H) (?H)
 Beta  Orbitals:
       Occupied  (A1) (?A) (?A) (B2) (B2) (B2) (B2) (?B) (B2) (?B)
                 (B2) (B2)
       Virtual   (?B) (B2) (B2) (B2) (?B) (B2) (B2) (?B) (?B) (B2)
                 (B2) (B2) (B2) (B2) (B2) (B2) (?B) (?B) (B2) (B2)
                 (?B) (B2) (?B) (B2) (?B) (B2) (B2) (?B) (B2) (B2)
                 (?B) (B2) (B2) (?B) (?B) (B2) (B2) (B2) (B2) (B2)
                 (B2) (?B) (?B) (B2) (B2) (B2) (B2) (?B) (?B) (?B)
                 (B2) (B2) (B2) (?B) (B2) (?B) (B2) (B2) (B2) (B2)
                 (?B) (?B) (?C) (?C) (?C) (B2) (B1) (?D) (?B) (?D)
                 (?B) (?D) (?B) (?D) (?D) (?B) (?D) (?B) (?D) (?D)
                 (?D) (?D) (?D) (?B) (?D) (?B) (?D) (?B) (?B) (?B)
                 (?D) (?B) (?D) (?D) (?B) (?D) (?D) (?D) (?D) (?B)
                 (?D) (?D) (?B) (?B) (?D) (?D) (?D) (?B) (?D) (?D)
                 (?B) (B2) (?E) (?E) (?F) (?E) (?F) (?E) (?F) (?F)
                 (?E) (?E) (?E) (?F) (?E) (?F) (?E) (?F) (?E) (?F)
                 (?E) (?E) (?F) (?E) (?E) (?E) (?F) (?F) (?F) (?F)
                 (?E) (?F) (?E) (?F) (?E) (?E) (?E) (?F) (?E) (?E)
                 (?F) (?E) (?F) (?E) (?F) (?F) (?E) (?F) (?E) (?E)
                 (?E) (?F) (?E) (?F) (?E) (?E) (?F) (?E) (?F) (?E)
                 (?E) (?F) (?E) (?E) (?F) (?E) (?E) (?E) (?E) (?E)
                 (?G) (?G) (?G) (?H) (?H) (?H)
    12 initial guesses have been made.
 Convergence on wavefunction:    0.001000000000000
 Davidson Disk Diagonalization:  ConvIn= 1.00D-03 SkipCon=T Conv= 1.00D-03.
 Max sub-space:  2000 roots to seek:    12 dimension of matrix:         4464
 Iteration     1 Dimension    12 NMult     0 NNew     12
 Estimated number of processors is:   19
 CISAX will form     1 AO SS matrices at one time.
 NMat=     1 NSing=     1 JSym2X= 2.
 FoFJK:  IHMeth= 1 ICntrl=       0 DoSepK=F KAlg= 0 I1Cent=           0 FoldK=F
 IRaf= 990000000 NMat=       1 IRICut=       1 DoRegI=T DoRafI=F ISym2E= 2 IDoP0=0 IntGTp=1.
 FoFCou: FMM=F IPFlag=           0 FMFlag=      100000 FMFlg1=           0
         NFxFlg=           0 DoJE=F BraDBF=F KetDBF=F FulRan=T
         wScrn=  0.000000 ICntrl=         0 IOpCl=  1 I1Cent=           0 NGrid=           0
         NMat0=    1 NMatS0=      1 NMatT0=    0 NMatD0=    1 NMtDS0=    0 NMtDT0=    0
 Integrals replicated using symmetry in FoFCou.
 CoulSu:  requested number of processors reduced to:  18 ShMem   1 Linda.
 NMat=     1 NSing=     1 JSym2X= 2.
 CoulSu:  requested number of processors reduced to:  18 ShMem   1 Linda.
 NMat=     1 NSing=     1 JSym2X= 2.
 CoulSu:  requested number of processors reduced to:  18 ShMem   1 Linda.
 NMat=     1 NSing=     1 JSym2X= 2.
 CoulSu:  requested number of processors reduced to:  18 ShMem   1 Linda.
 NMat=     1 NSing=     1 JSym2X= 2.
 CoulSu:  requested number of processors reduced to:  18 ShMem   1 Linda.
 NMat=     1 NSing=     1 JSym2X= 2.
 CoulSu:  requested number of processors reduced to:  18 ShMem   1 Linda.
 NMat=     1 NSing=     1 JSym2X= 2.
 CoulSu:  requested number of processors reduced to:  18 ShMem   1 Linda.
 NMat=     1 NSing=     1 JSym2X= 2.
 CoulSu:  requested number of processors reduced to:  18 ShMem   1 Linda.
 NMat=     1 NSing=     1 JSym2X= 2.
 CoulSu:  requested number of processors reduced to:  18 ShMem   1 Linda.
 NMat=     1 NSing=     1 JSym2X= 2.
 CoulSu:  requested number of processors reduced to:  18 ShMem   1 Linda.
 NMat=     1 NSing=     1 JSym2X= 2.
 CoulSu:  requested number of processors reduced to:  18 ShMem   1 Linda.
 NMat=     1 NSing=     1 JSym2X= 2.
 CoulSu:  requested number of processors reduced to:  18 ShMem   1 Linda.
 Excitation Energies [eV] at current iteration:
 Root      1 :     1.597714378114147
 Root      2 :     1.906165855879383
 Root      3 :     3.878300570422997
 Root      4 :     4.163580241241964
 Root      5 :     4.222246165505358
 Root      6 :     9.884933699828530
 Root      7 :    10.165495583939820
 Root      8 :    10.176843928565880
 Root      9 :    10.301834715354020
 Root     10 :    10.332523786252600
 Root     11 :    10.739170722768750
 Root     12 :    12.679979237375640
 Iteration     2 Dimension    24 NMult    12 NNew     12
 Estimated number of processors is:   19
 CISAX will form     1 AO SS matrices at one time.
 NMat=     1 NSing=     1 JSym2X= 2.
 CoulSu:  requested number of processors reduced to:  18 ShMem   1 Linda.
 NMat=     1 NSing=     1 JSym2X= 2.
 CoulSu:  requested number of processors reduced to:  18 ShMem   1 Linda.
 NMat=     1 NSing=     1 JSym2X= 2.
 CoulSu:  requested number of processors reduced to:  18 ShMem   1 Linda.
 NMat=     1 NSing=     1 JSym2X= 2.
 CoulSu:  requested number of processors reduced to:  18 ShMem   1 Linda.
 NMat=     1 NSing=     1 JSym2X= 2.
 CoulSu:  requested number of processors reduced to:  18 ShMem   1 Linda.
 NMat=     1 NSing=     1 JSym2X= 2.
 CoulSu:  requested number of processors reduced to:  18 ShMem   1 Linda.
 NMat=     1 NSing=     1 JSym2X= 2.
 CoulSu:  requested number of processors reduced to:  18 ShMem   1 Linda.
 NMat=     1 NSing=     1 JSym2X= 2.
 CoulSu:  requested number of processors reduced to:  18 ShMem   1 Linda.
 NMat=     1 NSing=     1 JSym2X= 2.
 CoulSu:  requested number of processors reduced to:  18 ShMem   1 Linda.
 NMat=     1 NSing=     1 JSym2X= 2.
 CoulSu:  requested number of processors reduced to:  18 ShMem   1 Linda.
 NMat=     1 NSing=     1 JSym2X= 2.
 CoulSu:  requested number of processors reduced to:  18 ShMem   1 Linda.
 NMat=     1 NSing=     1 JSym2X= 2.
 CoulSu:  requested number of processors reduced to:  18 ShMem   1 Linda.
 Root      1 not converged, maximum delta is    0.040762232508569
 Excitation Energies [eV] at current iteration:
 Root      1 :     1.198879346558021   Change is   -0.398835031556127
 Root      2 :     1.465819764415927   Change is   -0.440346091463456
 Root      3 :     2.654822570275958   Change is   -1.223478000147039
 Root      4 :     3.860610065945259   Change is   -0.302970175296705
 Root      5 :     3.929995463304489   Change is   -0.292250702200869
 Root      6 :     5.780777933651967   Change is   -6.899201303723670
 Root      7 :     9.527690234632644   Change is   -0.649153693933237
 Root      8 :     9.574194848968739   Change is   -0.591300734971083
 Root      9 :     9.866338738609230   Change is   -0.018594961219300
 Root     10 :     9.959146938636319   Change is   -0.373376847616281
 Root     11 :    10.449769728198870   Change is   -0.289400994569875
 Root     12 :    10.581047465250330   Change is    0.279212749896311
 Iteration     3 Dimension    27 NMult    24 NNew      3
 Estimated number of processors is:   19
 CISAX will form     1 AO SS matrices at one time.
 NMat=     1 NSing=     1 JSym2X= 2.
 CoulSu:  requested number of processors reduced to:  18 ShMem   1 Linda.
 NMat=     1 NSing=     1 JSym2X= 2.
 CoulSu:  requested number of processors reduced to:  18 ShMem   1 Linda.
 NMat=     1 NSing=     1 JSym2X= 2.
 CoulSu:  requested number of processors reduced to:  18 ShMem   1 Linda.
 Root      1 not converged, maximum delta is    0.006434552758014
 Excitation Energies [eV] at current iteration:
 Root      1 :     1.187497415076397   Change is   -0.011381931481623
 Root      2 :     1.452226374249985   Change is   -0.013593390165941
 Root      3 :     2.431479353929829   Change is   -0.223343216346129
 Iteration     4 Dimension    30 NMult    27 NNew      3
 Estimated number of processors is:   19
 CISAX will form     1 AO SS matrices at one time.
 NMat=     1 NSing=     1 JSym2X= 2.
 CoulSu:  requested number of processors reduced to:  18 ShMem   1 Linda.
 NMat=     1 NSing=     1 JSym2X= 2.
 CoulSu:  requested number of processors reduced to:  18 ShMem   1 Linda.
 NMat=     1 NSing=     1 JSym2X= 2.
 CoulSu:  requested number of processors reduced to:  18 ShMem   1 Linda.
 Root      1 not converged, maximum delta is    0.001531310724209
 Excitation Energies [eV] at current iteration:
 Root      1 :     1.186932096979519   Change is   -0.000565318096879
 Root      2 :     1.451615596717108   Change is   -0.000610777532878
 Root      3 :     2.419235949909588   Change is   -0.012243404020241
 Iteration     5 Dimension    33 NMult    30 NNew      3
 Estimated number of processors is:   19
 CISAX will form     1 AO SS matrices at one time.
 NMat=     1 NSing=     1 JSym2X= 2.
 CoulSu:  requested number of processors reduced to:  18 ShMem   1 Linda.
 NMat=     1 NSing=     1 JSym2X= 2.
 CoulSu:  requested number of processors reduced to:  18 ShMem   1 Linda.
 NMat=     1 NSing=     1 JSym2X= 2.
 CoulSu:  requested number of processors reduced to:  18 ShMem   1 Linda.
 Root      1 has converged.
 Excitation Energies [eV] at current iteration:
 Root      1 :     1.186884566191699   Change is   -0.000047530787819
 Root      2 :     1.451553140731254   Change is   -0.000062455985854
 Root      3 :     2.418311251675143   Change is   -0.000924698234445
 Convergence achieved on expansion vectors.
 ***********************************************************************
 Stability analysis using <AA,BB:AA,BB> singles matrix:
 ***********************************************************************
 1PDM for each excited state written to RWF  633
 Ground to excited state transition densities written to RWF  633

 Eigenvectors of the stability matrix:
 
 Excited state symmetry could not be determined.
 Eigenvector   1:  2.529-?Sym  Eigenvalue= 0.0436172  <S**2>=1.349
     12A -> 13A        0.69810
     12B -> 13B       -0.69810
 The wavefunction is stable under the perturbations considered.
 Leave Link  914 at Sat Apr 17 20:25:13 2021, MaxMem=   104857600 cpu:            5628.9 elap:             141.4
 (Enter /s/ls4/users/knvvv/bin/g16sse/l508.exe)
 The wavefunction is already stable.
 Leave Link  508 at Sat Apr 17 20:25:13 2021, MaxMem=   104857600 cpu:               2.2 elap:               0.1
 (Enter /s/ls4/users/knvvv/bin/g16sse/l601.exe)
 Copying SCF densities to generalized density rwf, IOpCl= 1 IROHF=0.
 SCF density gives NOpUse=  1 NOpAll=  4.
 Marking SCF density as not fully symmetric.

 **********************************************************************

            Population analysis using the SCF density.

 **********************************************************************

 Orbital symmetries:
 Alpha Orbitals:
       Occupied  (A1) (?A) (?A) (B2) (B2) (B2) (B2) (?B) (B2) (?B)
                 (B2) (B2)
       Virtual   (?B) (B2) (B2) (B2) (?B) (B2) (B2) (?B) (?B) (B2)
                 (B2) (B2) (B2) (B2) (B2) (B2) (?B) (?B) (B2) (B2)
                 (?B) (B2) (?B) (B2) (?B) (B2) (B2) (?B) (B2) (B2)
                 (?B) (B2) (B2) (?B) (?B) (B2) (B2) (B2) (B2) (B2)
                 (B2) (?B) (?B) (B2) (B2) (B2) (B2) (?B) (?B) (?B)
                 (B2) (B2) (B2) (?B) (B2) (?B) (B2) (B2) (B2) (B2)
                 (?B) (?B) (?C) (?C) (?C) (B2) (B1) (?D) (?B) (?D)
                 (?B) (?D) (?B) (?D) (?D) (?B) (?D) (?B) (?D) (?D)
                 (?D) (?D) (?D) (?B) (?D) (?B) (?D) (?B) (?B) (?B)
                 (?D) (?B) (?D) (?D) (?B) (?D) (?D) (?D) (?D) (?B)
                 (?D) (?D) (?B) (?B) (?D) (?D) (?D) (?B) (?D) (?D)
                 (?B) (B2) (?E) (?E) (?F) (?E) (?F) (?E) (?F) (?F)
                 (?E) (?E) (?E) (?F) (?E) (?F) (?E) (?F) (?E) (?F)
                 (?E) (?E) (?F) (?E) (?E) (?E) (?F) (?F) (?F) (?F)
                 (?E) (?F) (?E) (?F) (?E) (?E) (?E) (?F) (?E) (?E)
                 (?F) (?E) (?F) (?E) (?F) (?F) (?E) (?F) (?E) (?E)
                 (?E) (?F) (?E) (?F) (?E) (?E) (?F) (?E) (?F) (?E)
                 (?E) (?F) (?E) (?E) (?F) (?E) (?E) (?E) (?E) (?E)
                 (?G) (?G) (?G) (?H) (?H) (?H)
 Beta  Orbitals:
       Occupied  (A1) (?A) (?A) (B2) (B2) (B2) (B2) (?B) (B2) (?B)
                 (B2) (B2)
       Virtual   (?B) (B2) (B2) (B2) (?B) (B2) (B2) (?B) (?B) (B2)
                 (B2) (B2) (B2) (B2) (B2) (B2) (?B) (?B) (B2) (B2)
                 (?B) (B2) (?B) (B2) (?B) (B2) (B2) (?B) (B2) (B2)
                 (?B) (B2) (B2) (?B) (?B) (B2) (B2) (B2) (B2) (B2)
                 (B2) (?B) (?B) (B2) (B2) (B2) (B2) (?B) (?B) (?B)
                 (B2) (B2) (B2) (?B) (B2) (?B) (B2) (B2) (B2) (B2)
                 (?B) (?B) (?C) (?C) (?C) (B2) (B1) (?D) (?B) (?D)
                 (?B) (?D) (?B) (?D) (?D) (?B) (?D) (?B) (?D) (?D)
                 (?D) (?D) (?D) (?B) (?D) (?B) (?D) (?B) (?B) (?B)
                 (?D) (?B) (?D) (?D) (?B) (?D) (?D) (?D) (?D) (?B)
                 (?D) (?D) (?B) (?B) (?D) (?D) (?D) (?B) (?D) (?D)
                 (?B) (B2) (?E) (?E) (?F) (?E) (?F) (?E) (?F) (?F)
                 (?E) (?E) (?E) (?F) (?E) (?F) (?E) (?F) (?E) (?F)
                 (?E) (?E) (?F) (?E) (?E) (?E) (?F) (?F) (?F) (?F)
                 (?E) (?F) (?E) (?F) (?E) (?E) (?E) (?F) (?E) (?E)
                 (?F) (?E) (?F) (?E) (?F) (?F) (?E) (?F) (?E) (?E)
                 (?E) (?F) (?E) (?F) (?E) (?E) (?F) (?E) (?F) (?E)
                 (?E) (?F) (?E) (?E) (?F) (?E) (?E) (?E) (?E) (?E)
                 (?G) (?G) (?G) (?H) (?H) (?H)
 Unable to determine electronic state:  an orbital has unidentified symmetry.
 Alpha  occ. eigenvalues --  -19.91283 -19.76677 -19.75445  -1.49615  -1.22075
 Alpha  occ. eigenvalues --   -0.90130  -0.68889  -0.68676  -0.67591  -0.45768
 Alpha  occ. eigenvalues --   -0.44958  -0.42508
 Alpha virt. eigenvalues --   -0.12115   0.03694   0.03792   0.04675   0.04989
 Alpha virt. eigenvalues --    0.08253   0.08926   0.09201   0.10261   0.12186
 Alpha virt. eigenvalues --    0.13698   0.14886   0.19477   0.22410   0.26375
 Alpha virt. eigenvalues --    0.32160   0.32165   0.36968   0.37623   0.37965
 Alpha virt. eigenvalues --    0.38124   0.38935   0.41231   0.41565   0.42192
 Alpha virt. eigenvalues --    0.44663   0.44903   0.46299   0.50211   0.51859
 Alpha virt. eigenvalues --    0.53986   0.56574   0.59361   0.62328   0.62894
 Alpha virt. eigenvalues --    0.67737   0.68305   0.69744   0.71857   0.77608
 Alpha virt. eigenvalues --    1.04129   1.08972   1.13438   1.20658   1.22314
 Alpha virt. eigenvalues --    1.28989   1.31241   1.33735   1.34090   1.41462
 Alpha virt. eigenvalues --    1.42582   1.44288   1.46659   1.47276   1.48485
 Alpha virt. eigenvalues --    1.50350   1.55220   1.58943   1.82590   1.86144
 Alpha virt. eigenvalues --    1.88589   1.89838   2.02244   2.10869   2.11835
 Alpha virt. eigenvalues --    2.16391   2.76463   2.86777   2.96727   2.98504
 Alpha virt. eigenvalues --    3.03101   3.07184   3.14683   3.15085   3.18292
 Alpha virt. eigenvalues --    3.20793   3.26330   3.38826   3.47646   3.50526
 Alpha virt. eigenvalues --    3.55121   3.74043   3.80911   3.85736   3.87703
 Alpha virt. eigenvalues --    3.92450   3.95091   3.95356   4.02999   4.05117
 Alpha virt. eigenvalues --    4.09567   4.18093   4.18510   4.24439   4.25489
 Alpha virt. eigenvalues --    4.26954   4.30025   4.48682   4.54527   4.60338
 Alpha virt. eigenvalues --    4.71507   4.73678   4.74361   4.96254   4.98051
 Alpha virt. eigenvalues --    5.00691   5.10175   5.28405   5.31587   5.32481
 Alpha virt. eigenvalues --    5.39897   5.84926   7.35424   7.45418   7.89103
 Alpha virt. eigenvalues --    8.03029   8.21870   8.22131   8.29121   8.31959
 Alpha virt. eigenvalues --    8.35804   8.48813   8.63083   8.71036   8.71089
 Alpha virt. eigenvalues --    8.74874   8.75809   8.79547   8.83335   8.89582
 Alpha virt. eigenvalues --    9.00759   9.31538   9.43939   9.53731  10.06667
 Alpha virt. eigenvalues --   10.24520  10.26410  10.29022  10.63967  10.68151
 Alpha virt. eigenvalues --   10.69587  10.75007  10.76691  10.82610  10.84586
 Alpha virt. eigenvalues --   10.86394  10.91240  10.97248  11.00767  11.16024
 Alpha virt. eigenvalues --   11.18913  11.25917  11.29356  11.30460  11.33856
 Alpha virt. eigenvalues --   11.37064  11.40426  11.50331  11.58013  11.59355
 Alpha virt. eigenvalues --   11.64035  11.78495  11.81015  11.83870  11.85129
 Alpha virt. eigenvalues --   11.87956  11.93335  12.00320  12.01880  12.14737
 Alpha virt. eigenvalues --   12.27040  13.08082  13.23782  13.25487  13.35092
 Alpha virt. eigenvalues --   13.59248  13.78725  14.22530  14.91552  14.93728
 Alpha virt. eigenvalues --   47.38698  47.87464  47.98099 250.33032 250.88254
 Alpha virt. eigenvalues --  251.04431
  Beta  occ. eigenvalues --  -19.91283 -19.76677 -19.75445  -1.49615  -1.22075
  Beta  occ. eigenvalues --   -0.90130  -0.68889  -0.68676  -0.67591  -0.45768
  Beta  occ. eigenvalues --   -0.44958  -0.42508
  Beta virt. eigenvalues --   -0.12115   0.03694   0.03792   0.04675   0.04989
  Beta virt. eigenvalues --    0.08253   0.08926   0.09201   0.10261   0.12186
  Beta virt. eigenvalues --    0.13698   0.14886   0.19477   0.22410   0.26375
  Beta virt. eigenvalues --    0.32160   0.32165   0.36968   0.37623   0.37965
  Beta virt. eigenvalues --    0.38124   0.38935   0.41231   0.41565   0.42192
  Beta virt. eigenvalues --    0.44663   0.44903   0.46299   0.50211   0.51859
  Beta virt. eigenvalues --    0.53986   0.56574   0.59361   0.62328   0.62894
  Beta virt. eigenvalues --    0.67737   0.68305   0.69744   0.71857   0.77608
  Beta virt. eigenvalues --    1.04129   1.08972   1.13438   1.20658   1.22314
  Beta virt. eigenvalues --    1.28989   1.31241   1.33735   1.34090   1.41462
  Beta virt. eigenvalues --    1.42582   1.44288   1.46659   1.47276   1.48485
  Beta virt. eigenvalues --    1.50350   1.55220   1.58943   1.82590   1.86144
  Beta virt. eigenvalues --    1.88589   1.89838   2.02244   2.10869   2.11835
  Beta virt. eigenvalues --    2.16391   2.76463   2.86777   2.96727   2.98504
  Beta virt. eigenvalues --    3.03101   3.07184   3.14683   3.15085   3.18292
  Beta virt. eigenvalues --    3.20793   3.26330   3.38826   3.47646   3.50526
  Beta virt. eigenvalues --    3.55121   3.74043   3.80911   3.85736   3.87703
  Beta virt. eigenvalues --    3.92450   3.95091   3.95356   4.02999   4.05117
  Beta virt. eigenvalues --    4.09567   4.18093   4.18510   4.24439   4.25489
  Beta virt. eigenvalues --    4.26954   4.30025   4.48682   4.54527   4.60338
  Beta virt. eigenvalues --    4.71507   4.73678   4.74361   4.96254   4.98051
  Beta virt. eigenvalues --    5.00691   5.10175   5.28405   5.31587   5.32481
  Beta virt. eigenvalues --    5.39897   5.84926   7.35424   7.45418   7.89103
  Beta virt. eigenvalues --    8.03029   8.21870   8.22131   8.29121   8.31959
  Beta virt. eigenvalues --    8.35804   8.48813   8.63083   8.71036   8.71089
  Beta virt. eigenvalues --    8.74874   8.75809   8.79547   8.83335   8.89582
  Beta virt. eigenvalues --    9.00759   9.31538   9.43939   9.53731  10.06667
  Beta virt. eigenvalues --   10.24520  10.26410  10.29022  10.63967  10.68151
  Beta virt. eigenvalues --   10.69587  10.75007  10.76691  10.82610  10.84586
  Beta virt. eigenvalues --   10.86394  10.91240  10.97248  11.00767  11.16024
  Beta virt. eigenvalues --   11.18913  11.25917  11.29356  11.30460  11.33856
  Beta virt. eigenvalues --   11.37064  11.40426  11.50331  11.58013  11.59355
  Beta virt. eigenvalues --   11.64035  11.78495  11.81015  11.83870  11.85129
  Beta virt. eigenvalues --   11.87956  11.93335  12.00320  12.01880  12.14737
  Beta virt. eigenvalues --   12.27040  13.08082  13.23782  13.25487  13.35092
  Beta virt. eigenvalues --   13.59248  13.78725  14.22530  14.91552  14.93728
  Beta virt. eigenvalues --   47.38698  47.87464  47.98099 250.33032 250.88254
  Beta virt. eigenvalues --  251.04431
          Condensed to atoms (all electrons):
               1          2          3
     1  O    7.622596   0.058467   0.058467
     2  O    0.058467   8.144547  -0.072779
     3  O    0.058467  -0.072779   8.144547
          Atomic-Atomic Spin Densities.
               1          2          3
     1  O   -0.000000  -0.075990   0.075990
     2  O   -0.075990   0.694355   0.000000
     3  O    0.075990   0.000000  -0.694355
 Mulliken charges and spin densities:
               1          2
     1  O    0.260471  -0.000000
     2  O   -0.130235   0.618365
     3  O   -0.130235  -0.618365
 Sum of Mulliken charges =   0.00000   0.00000
 Mulliken charges and spin densities with hydrogens summed into heavy atoms:
               1          2
     1  O    0.260471  -0.000000
     2  O   -0.130235   0.618365
     3  O   -0.130235  -0.618365
 Electronic spatial extent (au):  <R**2>=            110.7234
 Charge=              0.0000 electrons
 Dipole moment (field-independent basis, Debye):
    X=             -0.0000    Y=              0.0000    Z=              0.5174  Tot=              0.5174
 Quadrupole moment (field-independent basis, Debye-Ang):
   XX=            -14.6167   YY=            -16.9464   ZZ=            -16.0836
   XY=             -0.0000   XZ=             -0.0000   YZ=             -0.0000
 Traceless Quadrupole moment (field-independent basis, Debye-Ang):
   XX=              1.2655   YY=             -1.0641   ZZ=             -0.2014
   XY=             -0.0000   XZ=             -0.0000   YZ=             -0.0000
 Octapole moment (field-independent basis, Debye-Ang**2):
  XXX=             -0.0000  YYY=              0.0000  ZZZ=              1.0816  XYY=              0.0000
  XXY=              0.0000  XXZ=              0.1733  XZZ=              0.0000  YZZ=             -0.0000
  YYZ=             -0.5844  XYZ=              0.0000
 Hexadecapole moment (field-independent basis, Debye-Ang**3):
 XXXX=            -10.5559 YYYY=            -86.6472 ZZZZ=            -21.8421 XXXY=             -0.0000
 XXXZ=             -0.0000 YYYX=             -0.0000 YYYZ=             -0.0000 ZZZX=             -0.0000
 ZZZY=              0.0000 XXYY=            -15.6154 XXZZ=             -5.2568 YYZZ=            -17.6738
 XXYZ=             -0.0000 YYXZ=             -0.0000 ZZXY=             -0.0000
 N-N= 6.902700003858D+01 E-N=-6.706243487330D+02  KE= 2.247269109166D+02
                          Isotropic Fermi Contact Couplings
        Atom                 a.u.       MegaHertz       Gauss      10(-4) cm-1
     1  O(17)              0.00000      -0.00000      -0.00000      -0.00000
     2  O(17)              0.09815     -29.74868     -10.61507      -9.92309
     3  O(17)             -0.09815      29.74868      10.61507       9.92309
 PrsmSu:  requested number of processors reduced to:  21 ShMem   1 Linda.
 --------------------------------------------------------
       Center         ----  Spin Dipole Couplings  ----
                      3XX-RR        3YY-RR        3ZZ-RR
 --------------------------------------------------------
     1   Atom       -0.000000      0.000000      0.000000
     2   Atom        2.568418     -1.277820     -1.290598
     3   Atom       -2.568418      1.277820      1.290598
 --------------------------------------------------------
                        XY            XZ            YZ
 --------------------------------------------------------
     1   Atom        0.000000      0.000000      0.092922
     2   Atom       -0.000000     -0.000000      0.022674
     3   Atom        0.000000     -0.000000      0.022674
 --------------------------------------------------------


 ---------------------------------------------------------------------------------
              Anisotropic Spin Dipole Couplings in Principal Axis System
 ---------------------------------------------------------------------------------

       Atom             a.u.   MegaHertz   Gauss  10(-4) cm-1        Axes

              Baa    -0.0929     6.724     2.399     2.243  0.0000  0.7071 -0.7071
     1 O(17)  Bbb    -0.0000     0.000     0.000     0.000  1.0000 -0.0000 -0.0000
              Bcc     0.0929    -6.724    -2.399    -2.243  0.0000  0.7071  0.7071
 
              Baa    -1.3078    94.629    33.766    31.565 -0.0000 -0.6037  0.7972
     2 O(17)  Bbb    -1.2607    91.220    32.550    30.428  0.0000  0.7972  0.6037
              Bcc     2.5684  -185.849   -66.316   -61.993  1.0000 -0.0000 -0.0000
 
              Baa    -2.5684   185.849    66.316    61.993  1.0000 -0.0000  0.0000
     3 O(17)  Bbb     1.2607   -91.220   -32.550   -30.428  0.0000  0.7972 -0.6037
              Bcc     1.3078   -94.629   -33.766   -31.565  0.0000  0.6037  0.7972
 

 ---------------------------------------------------------------------------------

 PrsmSu:  requested number of processors reduced to:  21 ShMem   1 Linda.
 No NMR shielding tensors so no spin-rotation constants.
 Leave Link  601 at Sat Apr 17 20:25:21 2021, MaxMem=   104857600 cpu:             366.9 elap:               8.0
 (Enter /s/ls4/users/knvvv/bin/g16sse/l9999.exe)

 Test job not archived.
 1\1\GINC-N153\Stability\UM062X\Gen\O3\KNVVV\17-Apr-2021\0\\#P M062X/GE
 N Integral=UltraFineGrid SCF=NoSymm Stable=(RExt, Opt) IOp(1/33=1)\\Da
 tabase calculations.\\0,1\O,0,0.,0.,0.\O,0,0.,0.,1.26881389\O,0,1.1293
 298092,0.,-0.5783622303\\Version=ES64L-G16RevA.03\State=1-A1\HF=-225.4
 291973\S2=0.502193\S2-1=0.\S2A=0.011032\RMSD=6.008e-11\Dipole=-0.17367
 75,0.,-0.1061833\Quadrupole=-0.3242467,0.940878,-0.6166313,0.,0.28546,
 0.\PG=C02V [C2(O1),SGV(O2)]\\@


 EXPERIENCE IS A WONDERFUL THING.  IT ENABLES
 YOU TO RECOGNIZE A MISTAKE WHEN YOU MAKE IT AGAIN.
           - BACK OF A SUGAR PACKET
 Job cpu time:       0 days  5 hours  0 minutes  9.3 seconds.
 Elapsed time:       0 days  0 hours  7 minutes 54.7 seconds.
 File lengths (MBytes):  RWF=    136 Int=      0 D2E=      0 Chk=     19 Scr=      1
 Normal termination of Gaussian 16 at Sat Apr 17 20:25:22 2021.
