 Entering Gaussian System, Link 0=/s/ls4/users/knvvv/bin/g16sse/g16
 Input=data/database/M062X--def2-QZVPPD--224_oxirene_W4-11.gjf
 Output=data/database/M062X--def2-QZVPPD--224_oxirene_W4-11.log
 Initial command:
 /s/ls4/users/knvvv/bin/g16sse/l1.exe "/s/ls4/users/knvvv/bin/scratch/Gau-23158.inp" -scrdir="/s/ls4/users/knvvv/bin/scratch/"
 Entering Link 1 = /s/ls4/users/knvvv/bin/g16sse/l1.exe PID=     23159.
  
 Copyright (c) 1988,1990,1992,1993,1995,1998,2003,2009,2016,
            Gaussian, Inc.  All Rights Reserved.
  
 This is part of the Gaussian(R) 16 program.  It is based on
 the Gaussian(R) 09 system (copyright 2009, Gaussian, Inc.),
 the Gaussian(R) 03 system (copyright 2003, Gaussian, Inc.),
 the Gaussian(R) 98 system (copyright 1998, Gaussian, Inc.),
 the Gaussian(R) 94 system (copyright 1995, Gaussian, Inc.),
 the Gaussian 92(TM) system (copyright 1992, Gaussian, Inc.),
 the Gaussian 90(TM) system (copyright 1990, Gaussian, Inc.),
 the Gaussian 88(TM) system (copyright 1988, Gaussian, Inc.),
 the Gaussian 86(TM) system (copyright 1986, Carnegie Mellon
 University), and the Gaussian 82(TM) system (copyright 1983,
 Carnegie Mellon University). Gaussian is a federally registered
 trademark of Gaussian, Inc.
  
 This software contains proprietary and confidential information,
 including trade secrets, belonging to Gaussian, Inc.
  
 This software is provided under written license and may be
 used, copied, transmitted, or stored only in accord with that
 written license.
  
 The following legend is applicable only to US Government
 contracts under FAR:
  
                    RESTRICTED RIGHTS LEGEND
  
 Use, reproduction and disclosure by the US Government is
 subject to restrictions as set forth in subparagraphs (a)
 and (c) of the Commercial Computer Software - Restricted
 Rights clause in FAR 52.227-19.
  
 Gaussian, Inc.
 340 Quinnipiac St., Bldg. 40, Wallingford CT 06492
  
  
 ---------------------------------------------------------------
 Warning -- This program may not be used in any manner that
 competes with the business of Gaussian, Inc. or will provide
 assistance to any competitor of Gaussian, Inc.  The licensee
 of this program is prohibited from giving any competitor of
 Gaussian, Inc. access to this program.  By using this program,
 the user acknowledges that Gaussian, Inc. is engaged in the
 business of creating and licensing software in the field of
 computational chemistry and represents and warrants to the
 licensee that it is not a competitor of Gaussian, Inc. and that
 it will not use this program in any manner prohibited above.
 ---------------------------------------------------------------
  

 Cite this work as:
 Gaussian 16, Revision A.03,
 M. J. Frisch, G. W. Trucks, H. B. Schlegel, G. E. Scuseria, 
 M. A. Robb, J. R. Cheeseman, G. Scalmani, V. Barone, 
 G. A. Petersson, H. Nakatsuji, X. Li, M. Caricato, A. V. Marenich, 
 J. Bloino, B. G. Janesko, R. Gomperts, B. Mennucci, H. P. Hratchian, 
 J. V. Ortiz, A. F. Izmaylov, J. L. Sonnenberg, D. Williams-Young, 
 F. Ding, F. Lipparini, F. Egidi, J. Goings, B. Peng, A. Petrone, 
 T. Henderson, D. Ranasinghe, V. G. Zakrzewski, J. Gao, N. Rega, 
 G. Zheng, W. Liang, M. Hada, M. Ehara, K. Toyota, R. Fukuda, 
 J. Hasegawa, M. Ishida, T. Nakajima, Y. Honda, O. Kitao, H. Nakai, 
 T. Vreven, K. Throssell, J. A. Montgomery, Jr., J. E. Peralta, 
 F. Ogliaro, M. J. Bearpark, J. J. Heyd, E. N. Brothers, K. N. Kudin, 
 V. N. Staroverov, T. A. Keith, R. Kobayashi, J. Normand, 
 K. Raghavachari, A. P. Rendell, J. C. Burant, S. S. Iyengar, 
 J. Tomasi, M. Cossi, J. M. Millam, M. Klene, C. Adamo, R. Cammi, 
 J. W. Ochterski, R. L. Martin, K. Morokuma, O. Farkas, 
 J. B. Foresman, and D. J. Fox, Gaussian, Inc., Wallingford CT, 2016.
 
 ******************************************
 Gaussian 16:  ES64L-G16RevA.03 25-Dec-2016
                17-Apr-2021 
 ******************************************
 %RWF=temp5_12157,70GB
 %nprocshared=48
 Will use up to   48 processors via shared memory.
 Default route: MaxDisk=80GB
 ----------------------------------------------------------------------
 #P M062X/GEN Integral=UltraFineGrid SCF=NoSymm Stable=(RExt, Opt) IOp(
 1/33=1)
 ----------------------------------------------------------------------
 1/33=1,38=1,172=1/1;
 2/12=2,17=6,18=5,40=1/2;
 3/5=7,11=2,25=1,30=1,74=-55,75=-5/1,2,3;
 4/9=2/1;
 5/5=2,38=5/2;
 6/7=2,8=2,9=2,10=2,28=1/1;
 8/6=1,10=90,11=11/1;
 9/8=-3,42=1,46=1/14;
 5/5=2,8=3,17=40,38=5/8(-2);
 6/7=2,8=2,9=2,10=2,28=1/1;
 99/5=1,9=1/99;
 Leave Link    1 at Sat Apr 17 20:34:44 2021, MaxMem=           0 cpu:               8.1 elap:               0.2
 (Enter /s/ls4/users/knvvv/bin/g16sse/l101.exe)
 ONIOM data not found on unit 2.
 ----------------------
 Database calculations.
 ----------------------
 TstMul:  ICh=     0
 TstMul:  Mul=     1
 TstMul:  ICh=     0
 TstMul:  Mul=     1
 Symbolic Z-matrix:
 Charge =  0 Multiplicity = 1
 C                     0.       -0.63551   0.46943 
 C                     0.        0.63551   0.46943 
 H                     0.        1.65226   0.80022 
 H                     0.       -1.65226   0.80022 
 O                     0.        0.       -0.88638 
 
 RdStrC is calling ZToCFu for IStruc=1 NZ=     5.
 PrtBox:  NBox=     1 Levels=  1 BoxLen=    8.00 SMaxX=        6.24
          Shift=            0.000000            3.122311            1.675013
 Box      1 Number                   0 centers from      1 to      5:
 After GenITR:
 ITRead=  0  0  0  0  0
 MicOpt= -1 -1 -1 -1 -1
 ITRead=  0  0  0  0  0
 MicOpt= -1 -1 -1 -1 -1
 NAtoms=      5 NQM=        5 NQMF=       0 NMMI=      0 NMMIF=      0
                NMic=       0 NMicF=      0.
                    Isotopes and Nuclear Properties:
 (Nuclear quadrupole moments (NQMom) in fm**2, nuclear magnetic moments (NMagM)
  in nuclear magnetons)

  Atom         1           2           3           4           5
 IAtWgt=          12          12           1           1          16
 AtmWgt=  12.0000000  12.0000000   1.0078250   1.0078250  15.9949146
 NucSpn=           0           0           1           1           0
 AtZEff=  -0.0000000  -0.0000000  -0.0000000  -0.0000000  -0.0000000
 NQMom=    0.0000000   0.0000000   0.0000000   0.0000000   0.0000000
 NMagM=    0.0000000   0.0000000   2.7928460   2.7928460   0.0000000
 AtZNuc=   6.0000000   6.0000000   1.0000000   1.0000000   8.0000000
 No MM parameters found.
 Leave Link  101 at Sat Apr 17 20:34:44 2021, MaxMem=   104857600 cpu:               5.4 elap:               0.1
 (Enter /s/ls4/users/knvvv/bin/g16sse/l202.exe)
                          Input orientation:                          
 ---------------------------------------------------------------------
 Center     Atomic      Atomic             Coordinates (Angstroms)
 Number     Number       Type             X           Y           Z
 ---------------------------------------------------------------------
      1          6           0        0.000000   -0.635515    0.469435
      2          6           0        0.000000    0.635515    0.469435
      3          1           0        0.000000    1.652256    0.800223
      4          1           0        0.000000   -1.652256    0.800223
      5          8           0        0.000000    0.000000   -0.886379
 ---------------------------------------------------------------------
                    Distance matrix (angstroms):
                    1          2          3          4          5
     1  C    0.000000
     2  C    1.271029   0.000000
     3  H    2.311561   1.069198   0.000000
     4  H    1.069198   2.311561   3.304512   0.000000
     5  O    1.497368   1.497368   2.361054   2.361054   0.000000
 Stoichiometry    C2H2O
 Framework group  C2V[C2(O),SGV(C2H2)]
 Deg. of freedom     4
 Full point group                 C2V     NOp   4
 Largest Abelian subgroup         C2V     NOp   4
 Largest concise Abelian subgroup C2      NOp   2
                         Standard orientation:                         
 ---------------------------------------------------------------------
 Center     Atomic      Atomic             Coordinates (Angstroms)
 Number     Number       Type             X           Y           Z
 ---------------------------------------------------------------------
      1          6           0       -0.000000    0.635515   -0.462952
      2          6           0       -0.000000   -0.635515   -0.462952
      3          1           0        0.000000   -1.652256   -0.793740
      4          1           0        0.000000    1.652256   -0.793740
      5          8           0        0.000000    0.000000    0.892862
 ---------------------------------------------------------------------
 Rotational constants (GHZ):          33.2579858          26.4510926          14.7332715
 Leave Link  202 at Sat Apr 17 20:34:44 2021, MaxMem=   104857600 cpu:               6.9 elap:               0.2
 (Enter /s/ls4/users/knvvv/bin/g16sse/l301.exe)
 General basis read from cards:  (5D, 7F)
 Centers:       3      4
 S 4 1.00
     Exponent=  1.9069169000D+02 Coefficients=  7.0815167000D-04
     Exponent=  2.8605532000D+01 Coefficients=  5.4678827000D-03
     Exponent=  6.5095943000D+00 Coefficients=  2.7966605000D-02
     Exponent=  1.8412455000D+00 Coefficients=  1.0764538000D-01
 S 1 1.00
     Exponent=  5.9853725000D-01 Coefficients=  1.0000000000D+00
 S 1 1.00
     Exponent=  2.1397624000D-01 Coefficients=  1.0000000000D+00
 S 1 1.00
     Exponent=  8.0316286000D-02 Coefficients=  1.0000000000D+00
 P 1 1.00
     Exponent=  2.2920000000D+00 Coefficients=  1.0000000000D+00
 P 1 1.00
     Exponent=  8.3800000000D-01 Coefficients=  1.0000000000D+00
 P 1 1.00
     Exponent=  2.9200000000D-01 Coefficients=  1.0000000000D+00
 P 1 1.00
     Exponent=  8.4063199228D-02 Coefficients=  1.0000000000D+00
 D 1 1.00
     Exponent=  2.0620000000D+00 Coefficients=  1.0000000000D+00
 D 1 1.00
     Exponent=  6.6200000000D-01 Coefficients=  1.0000000000D+00
 F 1 1.00
     Exponent=  1.3970000000D+00 Coefficients=  1.0000000000D+00
 ****
 Centers:       1      2
 S 8 1.00
     Exponent=  6.7025071029D+04 Coefficients=  3.8736308501D-05
     Exponent=  1.0039986538D+04 Coefficients=  3.0107917575D-04
     Exponent=  2.2849316911D+03 Coefficients=  1.5787918095D-03
     Exponent=  6.4714122130D+02 Coefficients=  6.6087087195D-03
     Exponent=  2.1109472335D+02 Coefficients=  2.3367123250D-02
     Exponent=  7.6177643862D+01 Coefficients=  7.0420716898D-02
     Exponent=  2.9633839163D+01 Coefficients=  1.7360344953D-01
     Exponent=  1.2187785081D+01 Coefficients=  3.2292305648D-01
 S 2 1.00
     Exponent=  5.3026006299D+01 Coefficients=  7.4897404492D-02
     Exponent=  1.5258502776D+01 Coefficients=  7.6136220983D-01
 S 1 1.00
     Exponent=  5.2403957464D+00 Coefficients=  1.0000000000D+00
 S 1 1.00
     Exponent=  2.2905022379D+00 Coefficients=  1.0000000000D+00
 S 1 1.00
     Exponent=  6.9673283006D-01 Coefficients=  1.0000000000D+00
 S 1 1.00
     Exponent=  2.7599337363D-01 Coefficients=  1.0000000000D+00
 S 1 1.00
     Exponent=  1.0739884389D-01 Coefficients=  1.0000000000D+00
 S 1 1.00
     Exponent=  4.4981404899D-02 Coefficients=  1.0000000000D+00
 P 5 1.00
     Exponent=  1.0512555082D+02 Coefficients=  8.4647553844D-04
     Exponent=  2.4884461066D+01 Coefficients=  6.6274038534D-03
     Exponent=  7.8637230826D+00 Coefficients=  3.0120390419D-02
     Exponent=  2.8407001835D+00 Coefficients=  9.9951435476D-02
     Exponent=  1.1227137335D+00 Coefficients=  2.3826299282D-01
 P 1 1.00
     Exponent=  4.6050725555D-01 Coefficients=  1.0000000000D+00
 P 1 1.00
     Exponent=  1.8937530913D-01 Coefficients=  1.0000000000D+00
 P 1 1.00
     Exponent=  7.5983791611D-02 Coefficients=  1.0000000000D+00
 D 1 1.00
     Exponent=  1.8480000000D+00 Coefficients=  1.0000000000D+00
 D 1 1.00
     Exponent=  6.4900000000D-01 Coefficients=  1.0000000000D+00
 D 1 1.00
     Exponent=  2.2800000000D-01 Coefficients=  1.0000000000D+00
 D 1 1.00
     Exponent=  7.6889830417D-02 Coefficients=  1.0000000000D+00
 F 1 1.00
     Exponent=  1.4190000000D+00 Coefficients=  1.0000000000D+00
 F 1 1.00
     Exponent=  4.8500000000D-01 Coefficients=  1.0000000000D+00
 G 1 1.00
     Exponent=  1.0110000000D+00 Coefficients=  1.0000000000D+00
 ****
 Centers:       5
 S 8 1.00
     Exponent=  1.1650646908D+05 Coefficients=  4.0383857939D-05
     Exponent=  1.7504349724D+04 Coefficients=  3.1255139004D-04
     Exponent=  3.9934513230D+03 Coefficients=  1.6341473495D-03
     Exponent=  1.1330063186D+03 Coefficients=  6.8283224757D-03
     Exponent=  3.6999569594D+02 Coefficients=  2.4124410221D-02
     Exponent=  1.3362074349D+02 Coefficients=  7.2730206154D-02
     Exponent=  5.2035643649D+01 Coefficients=  1.7934429892D-01
     Exponent=  2.1461939313D+01 Coefficients=  3.3059588895D-01
 S 2 1.00
     Exponent=  8.9835051252D+01 Coefficients=  9.6468652996D-02
     Exponent=  2.6428010844D+01 Coefficients=  9.4117481120D-01
 S 1 1.00
     Exponent=  9.2822824649D+00 Coefficients=  1.0000000000D+00
 S 1 1.00
     Exponent=  4.0947728533D+00 Coefficients=  1.0000000000D+00
 S 1 1.00
     Exponent=  1.3255349078D+00 Coefficients=  1.0000000000D+00
 S 1 1.00
     Exponent=  5.1877230787D-01 Coefficients=  1.0000000000D+00
 S 1 1.00
     Exponent=  1.9772676454D-01 Coefficients=  1.0000000000D+00
 S 1 1.00
     Exponent=  6.9638535104D-02 Coefficients=  1.0000000000D+00
 P 5 1.00
     Exponent=  1.9115255810D+02 Coefficients=  2.5115697705D-03
     Exponent=  4.5233356739D+01 Coefficients=  2.0039240864D-02
     Exponent=  1.4353465922D+01 Coefficients=  9.3609064762D-02
     Exponent=  5.2422371832D+00 Coefficients=  3.0618127124D-01
     Exponent=  2.0792418599D+00 Coefficients=  6.7810501439D-01
 P 1 1.00
     Exponent=  8.4282371424D-01 Coefficients=  1.0000000000D+00
 P 1 1.00
     Exponent=  3.3617694891D-01 Coefficients=  1.0000000000D+00
 P 1 1.00
     Exponent=  1.2863997974D-01 Coefficients=  1.0000000000D+00
 P 1 1.00
     Exponent=  4.3598162776D-02 Coefficients=  1.0000000000D+00
 D 1 1.00
     Exponent=  3.7750000000D+00 Coefficients=  1.0000000000D+00
 D 1 1.00
     Exponent=  1.3000000000D+00 Coefficients=  1.0000000000D+00
 D 1 1.00
     Exponent=  4.4400000000D-01 Coefficients=  1.0000000000D+00
 D 1 1.00
     Exponent=  1.2546378695D-01 Coefficients=  1.0000000000D+00
 F 1 1.00
     Exponent=  2.6660000000D+00 Coefficients=  1.0000000000D+00
 F 1 1.00
     Exponent=  8.5900000000D-01 Coefficients=  1.0000000000D+00
 G 1 1.00
     Exponent=  1.8460000000D+00 Coefficients=  1.0000000000D+00
 ****
 Ernie: Thresh=  0.10000D-02 Tol=  0.10000D-05 Strict=F.
 There are   116 symmetry adapted cartesian basis functions of A1  symmetry.
 There are    47 symmetry adapted cartesian basis functions of A2  symmetry.
 There are    56 symmetry adapted cartesian basis functions of B1  symmetry.
 There are    97 symmetry adapted cartesian basis functions of B2  symmetry.
 There are    91 symmetry adapted basis functions of A1  symmetry.
 There are    41 symmetry adapted basis functions of A2  symmetry.
 There are    48 symmetry adapted basis functions of B1  symmetry.
 There are    78 symmetry adapted basis functions of B2  symmetry.
   258 basis functions,   382 primitive gaussians,   316 cartesian basis functions
    11 alpha electrons       11 beta electrons
       nuclear repulsion energy        61.3474726066 Hartrees.
 IExCor= 4336 DFT=T Ex+Corr=M062X ExCW=0 ScaHFX=  0.540000
 ScaDFX=  1.000000  1.000000  1.000000  1.000000 ScalE2=  1.000000  1.000000
 IRadAn=      5 IRanWt=     -1 IRanGd=            0 ICorTp=0 IEmpDi=  4
 NAtoms=    5 NActive=    5 NUniq=    3 SFac= 2.78D+00 NAtFMM=   60 NAOKFM=F Big=F
 Integral buffers will be    131072 words long.
 Raffenetti 2 integral format.
 Two-electron integral symmetry is turned on.
 Leave Link  301 at Sat Apr 17 20:34:44 2021, MaxMem=   104857600 cpu:              10.9 elap:               0.3
 (Enter /s/ls4/users/knvvv/bin/g16sse/l302.exe)
 NPDir=0 NMtPBC=     1 NCelOv=     1 NCel=       1 NClECP=     1 NCelD=      1
         NCelK=      1 NCelE2=     1 NClLst=     1 CellRange=     0.0.
 One-electron integrals computed using PRISM.
 One-electron integral symmetry used in STVInt
 PrsmSu:  requested number of processors reduced to:   4 ShMem   1 Linda.
 PrsmSu:  requested number of processors reduced to:  21 ShMem   1 Linda.
 NBasis=   258 RedAO= T EigKep=  1.61D-05  NBF=    91    41    48    78
 NBsUse=   257 1.00D-06 EigRej=  3.11D-07 NBFU=    91    41    48    77
 Precomputing XC quadrature grid using
 IXCGrd= 4 IRadAn=           5 IRanWt=          -1 IRanGd=           0 AccXCQ= 0.00D+00.
 Generated NRdTot=       0 NPtTot=           0 NUsed=           0 NTot=          32
 NSgBfM=   316   316   316   316   316 MxSgAt=     5 MxSgA2=     5.
 Leave Link  302 at Sat Apr 17 20:34:55 2021, MaxMem=   104857600 cpu:             493.7 elap:              10.6
 (Enter /s/ls4/users/knvvv/bin/g16sse/l303.exe)
 DipDrv:  MaxL=1.
 Leave Link  303 at Sat Apr 17 20:34:57 2021, MaxMem=   104857600 cpu:              82.0 elap:               1.8
 (Enter /s/ls4/users/knvvv/bin/g16sse/l401.exe)
 SCF N**3 symmetry information disabled.
 ExpMin= 4.36D-02 ExpMax= 1.17D+05 ExpMxC= 1.13D+03 IAcc=3 IRadAn=         5 AccDes= 0.00D+00
 Harris functional with IExCor= 1009 and IRadAn=       5 diagonalized for initial guess.
 HarFok:  IExCor= 1009 AccDes= 0.00D+00 IRadAn=         5 IDoV= 1 UseB2=F ITyADJ=14
 ICtDFT=  3500011 ScaDFX=  1.000000  1.000000  1.000000  1.000000
 FoFCou: FMM=F IPFlag=           0 FMFlag=      100000 FMFlg1=           0
         NFxFlg=           0 DoJE=T BraDBF=F KetDBF=T FulRan=T
         wScrn=  0.000000 ICntrl=       500 IOpCl=  0 I1Cent=   200000004 NGrid=           0
         NMat0=    1 NMatS0=      1 NMatT0=    0 NMatD0=    1 NMtDS0=    0 NMtDT0=    0
 Petite list used in FoFCou.
 CoulSu:  requested number of processors reduced to:  21 ShMem   1 Linda.
 CoulSu:  requested number of processors reduced to:  21 ShMem   1 Linda.
 CoulSu:  requested number of processors reduced to:  21 ShMem   1 Linda.
 CoulSu:  requested number of processors reduced to:  21 ShMem   1 Linda.
 Harris En= -152.418829936080    
 JPrj=0 DoOrth=F DoCkMO=F.
 Initial guess orbital symmetries:
       Occupied  (A1) (A1) (B2) (A1) (A1) (B2) (A1) (B1) (A1) (B2)
                 (B1)
       Virtual   (A2) (A1) (B2) (A1) (B2) (A1) (B1) (A1) (B2) (B2)
                 (A1) (B1) (A2) (A1) (A1) (B2) (B1) (B2) (A1) (A2)
                 (B1) (A1) (B2) (B2) (A1) (B2) (A1) (A2) (B1) (B1)
                 (B2) (A1) (A1) (A2) (A1) (B2) (A1) (A2) (B1) (B2)
                 (B2) (B1) (B2) (A1) (A1) (A1) (B1) (B2) (A2) (A1)
                 (A2) (B2) (A1) (B1) (B2) (A1) (A2) (B2) (A1) (B1)
                 (A1) (B2) (B2) (A1) (A2) (B2) (B1) (A1) (B2) (A1)
                 (A1) (B1) (A2) (B2) (B1) (B2) (A1) (A1) (B2) (B1)
                 (A1) (A1) (A2) (A1) (B1) (B2) (A2) (A2) (B2) (A1)
                 (B1) (B1) (A2) (A1) (B2) (A1) (B2) (B2) (A1) (A2)
                 (B1) (B2) (A1) (B1) (A2) (B2) (A1) (A1) (B1) (B2)
                 (A1) (B2) (A2) (B2) (B1) (B2) (A1) (A1) (A1) (A2)
                 (B2) (B1) (B2) (A2) (A1) (B1) (B2) (A1) (A2) (B2)
                 (A1) (B1) (A1) (A2) (B2) (A1) (B1) (A1) (B2) (B1)
                 (A1) (A1) (A1) (B2) (B1) (B1) (B2) (A2) (B2) (A1)
                 (A2) (B1) (A2) (B2) (A1) (B1) (B2) (B1) (A2) (A1)
                 (A1) (A1) (A2) (B1) (B2) (A1) (B1) (B2) (A1) (A2)
                 (B2) (B2) (B1) (A2) (A1) (B2) (A2) (B2) (B2) (A1)
                 (A2) (A1) (B1) (B2) (A1) (B2) (A2) (B1) (B2) (A1)
                 (B1) (A2) (A1) (B2) (A1) (B2) (A1) (A2) (B1) (B2)
                 (B2) (A1) (A2) (A1) (B2) (B1) (A1) (A2) (A1) (B1)
                 (B2) (A1) (B1) (A1) (B2) (A2) (A2) (B2) (B1) (B2)
                 (A1) (A1) (B1) (B2) (B2) (A2) (B2) (A1) (A2) (B1)
                 (A1) (A2) (B1) (A1) (B2) (A1) (B2) (A1) (B2) (A1)
                 (A1) (B2) (A1) (A1) (B2) (A1)
 The electronic state of the initial guess is 1-A1.
 Leave Link  401 at Sat Apr 17 20:35:02 2021, MaxMem=   104857600 cpu:             235.5 elap:               5.2
 (Enter /s/ls4/users/knvvv/bin/g16sse/l502.exe)
 Integral symmetry usage will be decided dynamically.
 Closed shell SCF:
 Using DIIS extrapolation, IDIIS=  1040.
 NGot=   104857600 LenX=   104638207 LenY=   104537910
 Requested convergence on RMS density matrix=1.00D-08 within 128 cycles.
 Requested convergence on MAX density matrix=1.00D-06.
 Requested convergence on             energy=1.00D-06.
 No special actions if energy rises.
 Fock matrices will be formed incrementally for  20 cycles.

 Cycle   1  Pass 1  IDiag  1:
 FoFJK:  IHMeth= 1 ICntrl=       0 DoSepK=F KAlg= 0 I1Cent=           0 FoldK=F
 IRaf= 990000000 NMat=       1 IRICut=       1 DoRegI=T DoRafI=F ISym2E= 1 IDoP0=0 IntGTp=1.
 FoFCou: FMM=F IPFlag=           0 FMFlag=      100000 FMFlg1=           0
         NFxFlg=           0 DoJE=F BraDBF=F KetDBF=F FulRan=T
         wScrn=  0.000000 ICntrl=         0 IOpCl=  0 I1Cent=           0 NGrid=           0
         NMat0=    1 NMatS0=      1 NMatT0=    0 NMatD0=    1 NMtDS0=    0 NMtDT0=    0
 Petite list used in FoFCou.
 CoulSu:  requested number of processors reduced to:  21 ShMem   1 Linda.
 E= -152.428727676612    
 DIIS: error= 2.94D-02 at cycle   1 NSaved=   1.
 NSaved= 1 IEnMin= 1 EnMin= -152.428727676612     IErMin= 1 ErrMin= 2.94D-02
 ErrMax= 2.94D-02  0.00D+00 EMaxC= 1.00D-01 BMatC= 1.34D-01 BMatP= 1.34D-01
 IDIUse=3 WtCom= 7.06D-01 WtEn= 2.94D-01
 Coeff-Com:  0.100D+01
 Coeff-En:   0.100D+01
 Coeff:      0.100D+01
 Gap=     0.257 Goal=   None    Shift=    0.000
 GapD=    0.257 DampG=1.000 DampE=0.500 DampFc=0.5000 IDamp=-1.
 Damping current iteration by 5.00D-01
 RMSDP=2.03D-03 MaxDP=9.56D-02              OVMax= 1.17D-01

 Cycle   2  Pass 1  IDiag  1:
 RMSU=  9.16D-04    CP:  9.26D-01
 CoulSu:  requested number of processors reduced to:  21 ShMem   1 Linda.
 E= -152.457310821748     Delta-E=       -0.028583145136 Rises=F Damp=T
 DIIS: error= 1.64D-02 at cycle   2 NSaved=   2.
 NSaved= 2 IEnMin= 2 EnMin= -152.457310821748     IErMin= 2 ErrMin= 1.64D-02
 ErrMax= 1.64D-02  0.00D+00 EMaxC= 1.00D-01 BMatC= 2.31D-02 BMatP= 1.34D-01
 IDIUse=3 WtCom= 8.36D-01 WtEn= 1.64D-01
 Coeff-Com: -0.240D+00 0.124D+01
 Coeff-En:   0.000D+00 0.100D+01
 Coeff:     -0.201D+00 0.120D+01
 Gap=     0.314 Goal=   None    Shift=    0.000
 RMSDP=7.52D-04 MaxDP=2.76D-02 DE=-2.86D-02 OVMax= 8.16D-02

 Cycle   3  Pass 1  IDiag  1:
 RMSU=  5.20D-04    CP:  8.93D-01  1.55D+00
 CoulSu:  requested number of processors reduced to:  21 ShMem   1 Linda.
 E= -152.480115006140     Delta-E=       -0.022804184392 Rises=F Damp=F
 DIIS: error= 1.01D-02 at cycle   3 NSaved=   3.
 NSaved= 3 IEnMin= 3 EnMin= -152.480115006140     IErMin= 3 ErrMin= 1.01D-02
 ErrMax= 1.01D-02  0.00D+00 EMaxC= 1.00D-01 BMatC= 1.16D-02 BMatP= 2.31D-02
 IDIUse=3 WtCom= 8.99D-01 WtEn= 1.01D-01
 Coeff-Com: -0.239D+00 0.610D+00 0.629D+00
 Coeff-En:   0.000D+00 0.000D+00 0.100D+01
 Coeff:     -0.215D+00 0.549D+00 0.666D+00
 Gap=     0.294 Goal=   None    Shift=    0.000
 RMSDP=2.27D-04 MaxDP=1.07D-02 DE=-2.28D-02 OVMax= 3.63D-02

 Cycle   4  Pass 1  IDiag  1:
 RMSU=  2.09D-04    CP:  8.96D-01  1.56D+00  8.35D-01
 CoulSu:  requested number of processors reduced to:  21 ShMem   1 Linda.
 E= -152.486724976145     Delta-E=       -0.006609970005 Rises=F Damp=F
 DIIS: error= 3.56D-03 at cycle   4 NSaved=   4.
 NSaved= 4 IEnMin= 4 EnMin= -152.486724976145     IErMin= 4 ErrMin= 3.56D-03
 ErrMax= 3.56D-03  0.00D+00 EMaxC= 1.00D-01 BMatC= 1.65D-03 BMatP= 1.16D-02
 IDIUse=3 WtCom= 9.64D-01 WtEn= 3.56D-02
 Coeff-Com: -0.820D-01 0.178D+00 0.349D+00 0.555D+00
 Coeff-En:   0.000D+00 0.000D+00 0.118D+00 0.882D+00
 Coeff:     -0.791D-01 0.171D+00 0.341D+00 0.567D+00
 Gap=     0.290 Goal=   None    Shift=    0.000
 RMSDP=6.79D-05 MaxDP=2.78D-03 DE=-6.61D-03 OVMax= 1.06D-02

 Cycle   5  Pass 1  IDiag  1:
 RMSU=  3.45D-05    CP:  8.93D-01  1.57D+00  8.72D-01  7.51D-01
 CoulSu:  requested number of processors reduced to:  21 ShMem   1 Linda.
 E= -152.487961412339     Delta-E=       -0.001236436194 Rises=F Damp=F
 DIIS: error= 2.21D-04 at cycle   5 NSaved=   5.
 NSaved= 5 IEnMin= 5 EnMin= -152.487961412339     IErMin= 5 ErrMin= 2.21D-04
 ErrMax= 2.21D-04  0.00D+00 EMaxC= 1.00D-01 BMatC= 1.19D-05 BMatP= 1.65D-03
 IDIUse=3 WtCom= 9.98D-01 WtEn= 2.21D-03
 Coeff-Com: -0.113D-01 0.217D-01 0.555D-01 0.146D+00 0.788D+00
 Coeff-En:   0.000D+00 0.000D+00 0.000D+00 0.000D+00 0.100D+01
 Coeff:     -0.112D-01 0.217D-01 0.553D-01 0.146D+00 0.788D+00
 Gap=     0.290 Goal=   None    Shift=    0.000
 RMSDP=1.65D-05 MaxDP=8.56D-04 DE=-1.24D-03 OVMax= 9.06D-04

 Cycle   6  Pass 1  IDiag  1:
 RMSU=  9.47D-06    CP:  8.94D-01  1.57D+00  8.72D-01  8.03D-01  1.13D+00
 CoulSu:  requested number of processors reduced to:  21 ShMem   1 Linda.
 E= -152.487969788535     Delta-E=       -0.000008376196 Rises=F Damp=F
 DIIS: error= 2.64D-05 at cycle   6 NSaved=   6.
 NSaved= 6 IEnMin= 6 EnMin= -152.487969788535     IErMin= 6 ErrMin= 2.64D-05
 ErrMax= 2.64D-05  0.00D+00 EMaxC= 1.00D-01 BMatC= 1.19D-07 BMatP= 1.19D-05
 IDIUse=1 WtCom= 1.00D+00 WtEn= 0.00D+00
 Coeff-Com:  0.387D-02-0.809D-02-0.153D-01-0.226D-01-0.456D-01 0.109D+01
 Coeff:      0.387D-02-0.809D-02-0.153D-01-0.226D-01-0.456D-01 0.109D+01
 Gap=     0.290 Goal=   None    Shift=    0.000
 RMSDP=5.27D-06 MaxDP=2.38D-04 DE=-8.38D-06 OVMax= 2.78D-04

 Cycle   7  Pass 1  IDiag  1:
 RMSU=  1.28D-06    CP:  8.94D-01  1.56D+00  8.73D-01  8.18D-01  1.19D+00
                    CP:  1.24D+00
 CoulSu:  requested number of processors reduced to:  21 ShMem   1 Linda.
 E= -152.487970007869     Delta-E=       -0.000000219334 Rises=F Damp=F
 DIIS: error= 8.21D-06 at cycle   7 NSaved=   7.
 NSaved= 7 IEnMin= 7 EnMin= -152.487970007869     IErMin= 7 ErrMin= 8.21D-06
 ErrMax= 8.21D-06  0.00D+00 EMaxC= 1.00D-01 BMatC= 4.83D-09 BMatP= 1.19D-07
 IDIUse=1 WtCom= 1.00D+00 WtEn= 0.00D+00
 Coeff-Com:  0.175D-03-0.333D-03-0.448D-03-0.256D-02-0.177D-01-0.179D-01
 Coeff-Com:  0.104D+01
 Coeff:      0.175D-03-0.333D-03-0.448D-03-0.256D-02-0.177D-01-0.179D-01
 Coeff:      0.104D+01
 Gap=     0.290 Goal=   None    Shift=    0.000
 RMSDP=5.24D-07 MaxDP=2.33D-05 DE=-2.19D-07 OVMax= 5.70D-05

 Cycle   8  Pass 1  IDiag  1:
 RMSU=  4.37D-07    CP:  8.94D-01  1.56D+00  8.73D-01  8.18D-01  1.19D+00
                    CP:  1.24D+00  1.21D+00
 CoulSu:  requested number of processors reduced to:  21 ShMem   1 Linda.
 E= -152.487970016569     Delta-E=       -0.000000008700 Rises=F Damp=F
 DIIS: error= 1.83D-06 at cycle   8 NSaved=   8.
 NSaved= 8 IEnMin= 8 EnMin= -152.487970016569     IErMin= 8 ErrMin= 1.83D-06
 ErrMax= 1.83D-06  0.00D+00 EMaxC= 1.00D-01 BMatC= 2.53D-10 BMatP= 4.83D-09
 IDIUse=1 WtCom= 1.00D+00 WtEn= 0.00D+00
 Coeff-Com: -0.150D-03 0.312D-03 0.452D-03 0.684D-03 0.143D-02-0.425D-01
 Coeff-Com:  0.110D-01 0.103D+01
 Coeff:     -0.150D-03 0.312D-03 0.452D-03 0.684D-03 0.143D-02-0.425D-01
 Coeff:      0.110D-01 0.103D+01
 Gap=     0.290 Goal=   None    Shift=    0.000
 RMSDP=1.06D-07 MaxDP=5.43D-06 DE=-8.70D-09 OVMax= 1.55D-05

 Cycle   9  Pass 1  IDiag  1:
 RMSU=  5.53D-08    CP:  8.94D-01  1.56D+00  8.73D-01  8.18D-01  1.19D+00
                    CP:  1.24D+00  1.25D+00  1.13D+00
 CoulSu:  requested number of processors reduced to:  21 ShMem   1 Linda.
 E= -152.487970017040     Delta-E=       -0.000000000471 Rises=F Damp=F
 DIIS: error= 2.57D-07 at cycle   9 NSaved=   9.
 NSaved= 9 IEnMin= 9 EnMin= -152.487970017040     IErMin= 9 ErrMin= 2.57D-07
 ErrMax= 2.57D-07  0.00D+00 EMaxC= 1.00D-01 BMatC= 6.42D-12 BMatP= 2.53D-10
 IDIUse=1 WtCom= 1.00D+00 WtEn= 0.00D+00
 Coeff-Com: -0.527D-06 0.217D-05-0.116D-04 0.204D-04 0.535D-03 0.125D-02
 Coeff-Com: -0.384D-01 0.341D-02 0.103D+01
 Coeff:     -0.527D-06 0.217D-05-0.116D-04 0.204D-04 0.535D-03 0.125D-02
 Coeff:     -0.384D-01 0.341D-02 0.103D+01
 Gap=     0.290 Goal=   None    Shift=    0.000
 RMSDP=2.32D-08 MaxDP=1.21D-06 DE=-4.71D-10 OVMax= 2.23D-06

 Cycle  10  Pass 1  IDiag  1:
 RMSU=  1.46D-08    CP:  8.94D-01  1.56D+00  8.73D-01  8.18D-01  1.19D+00
                    CP:  1.24D+00  1.25D+00  1.14D+00  1.23D+00
 CoulSu:  requested number of processors reduced to:  21 ShMem   1 Linda.
 E= -152.487970017054     Delta-E=       -0.000000000014 Rises=F Damp=F
 DIIS: error= 6.30D-08 at cycle  10 NSaved=  10.
 NSaved=10 IEnMin=10 EnMin= -152.487970017054     IErMin=10 ErrMin= 6.30D-08
 ErrMax= 6.30D-08  0.00D+00 EMaxC= 1.00D-01 BMatC= 2.15D-13 BMatP= 6.42D-12
 IDIUse=1 WtCom= 1.00D+00 WtEn= 0.00D+00
 Coeff-Com:  0.352D-05-0.712D-05-0.524D-05-0.109D-04-0.444D-04 0.797D-03
 Coeff-Com:  0.278D-02-0.263D-01-0.125D+00 0.115D+01
 Coeff:      0.352D-05-0.712D-05-0.524D-05-0.109D-04-0.444D-04 0.797D-03
 Coeff:      0.278D-02-0.263D-01-0.125D+00 0.115D+01
 Gap=     0.290 Goal=   None    Shift=    0.000
 RMSDP=3.86D-09 MaxDP=1.17D-07 DE=-1.38D-11 OVMax= 4.59D-07

 SCF Done:  E(RM062X) =  -152.487970017     A.U. after   10 cycles
            NFock= 10  Conv=0.39D-08     -V/T= 2.0042
 KE= 1.518469727999D+02 PE=-4.799504272191D+02 EE= 1.142680117955D+02
 Leave Link  502 at Sat Apr 17 20:37:40 2021, MaxMem=   104857600 cpu:            7195.1 elap:             158.6
 (Enter /s/ls4/users/knvvv/bin/g16sse/l601.exe)
 Copying SCF densities to generalized density rwf, IOpCl= 0 IROHF=0.

 **********************************************************************

            Population analysis using the SCF density.

 **********************************************************************

 Orbital symmetries:
       Occupied  (A1) (A1) (B2) (A1) (A1) (B2) (A1) (B1) (A1) (B2)
                 (B1)
       Virtual   (A2) (A1) (B2) (A1) (B1) (B2) (A1) (A1) (B2) (B2)
                 (B1) (A2) (A1) (A1) (A1) (B2) (B1) (A2) (B2) (A1)
                 (B1) (B2) (A1) (A1) (B2) (A2) (B2) (A1) (B1) (B2)
                 (A1) (A2) (B1) (A1) (B2) (A1) (A1) (A2) (B2) (B2)
                 (B1) (B1) (A1) (B2) (A1) (A1) (B1) (B2) (A2) (A1)
                 (A2) (B2) (A1) (B2) (B1) (A1) (A2) (A1) (B2) (B1)
                 (A1) (B2) (B2) (A1) (A2) (B2) (A1) (B1) (B2) (A1)
                 (A2) (A1) (B1) (B2) (A1) (B1) (B2) (B2) (A1) (B1)
                 (A1) (A1) (A2) (A1) (B1) (B2) (A2) (B2) (A2) (A1)
                 (B1) (A2) (B1) (B2) (A1) (B2) (A1) (B2) (A1) (A2)
                 (B1) (A1) (B2) (A2) (B1) (A1) (B2) (B1) (B2) (A1)
                 (A2) (B2) (A1) (B2) (A1) (B2) (B1) (A1) (A2) (B2)
                 (A1) (B1) (B2) (A2) (A1) (B1) (B2) (A1) (B2) (A2)
                 (A1) (A1) (B1) (A2) (B2) (A1) (B1) (A1) (B2) (B1)
                 (A1) (A1) (A1) (B1) (B2) (B1) (A2) (B2) (B2) (A1)
                 (A2) (A2) (B2) (B1) (B1) (A1) (A2) (B1) (B2) (A1)
                 (A1) (A1) (B1) (B2) (A2) (B1) (A1) (B2) (A1) (A2)
                 (B2) (B2) (B1) (A2) (A1) (B2) (A2) (B2) (B2) (A1)
                 (A2) (A1) (B1) (B2) (A1) (B2) (A2) (B1) (B2) (B1)
                 (A2) (A1) (A1) (B2) (A1) (B2) (A2) (B1) (A1) (B2)
                 (B2) (A1) (A2) (A1) (B1) (B2) (A1) (A2) (A1) (B2)
                 (B1) (A1) (A1) (B2) (B1) (A2) (A2) (B2) (B1) (B2)
                 (A1) (A1) (B1) (B2) (A2) (B2) (B2) (A2) (A1) (B1)
                 (A1) (A2) (B1) (A1) (B2) (A1) (B2) (A1) (B2) (A1)
                 (A1) (B2) (A1) (A1) (B2) (A1)
 The electronic state is 1-A1.
 Alpha  occ. eigenvalues --  -19.63955 -10.61934 -10.61761  -1.16607  -0.79962
 Alpha  occ. eigenvalues --   -0.69576  -0.60901  -0.48809  -0.44227  -0.44130
 Alpha  occ. eigenvalues --   -0.27689
 Alpha virt. eigenvalues --    0.01292   0.01315   0.02329   0.03856   0.06294
 Alpha virt. eigenvalues --    0.07728   0.08974   0.09527   0.13126   0.15155
 Alpha virt. eigenvalues --    0.16127   0.18568   0.18797   0.19481   0.20305
 Alpha virt. eigenvalues --    0.20858   0.21636   0.23163   0.24367   0.25045
 Alpha virt. eigenvalues --    0.25721   0.27769   0.27904   0.29440   0.30516
 Alpha virt. eigenvalues --    0.31756   0.32250   0.36222   0.36600   0.39016
 Alpha virt. eigenvalues --    0.41535   0.43718   0.44203   0.44535   0.49821
 Alpha virt. eigenvalues --    0.52379   0.53817   0.54270   0.54782   0.56690
 Alpha virt. eigenvalues --    0.58907   0.62564   0.63684   0.64624   0.67384
 Alpha virt. eigenvalues --    0.68799   0.72464   0.73593   0.74612   0.76239
 Alpha virt. eigenvalues --    0.81421   0.84913   0.86480   0.87686   0.89721
 Alpha virt. eigenvalues --    0.95518   0.97446   1.04584   1.06545   1.08401
 Alpha virt. eigenvalues --    1.13792   1.14811   1.18928   1.24405   1.26917
 Alpha virt. eigenvalues --    1.30898   1.32697   1.39971   1.40765   1.50071
 Alpha virt. eigenvalues --    1.56955   1.60930   1.62577   1.63184   1.66577
 Alpha virt. eigenvalues --    1.67836   1.68790   1.78145   1.79144   1.80400
 Alpha virt. eigenvalues --    1.81557   1.92048   1.93078   1.97162   1.98146
 Alpha virt. eigenvalues --    2.01149   2.02286   2.09447   2.09699   2.17303
 Alpha virt. eigenvalues --    2.20310   2.22455   2.23331   2.25952   2.27720
 Alpha virt. eigenvalues --    2.35224   2.36574   2.44249   2.46731   2.52194
 Alpha virt. eigenvalues --    2.54554   2.59450   2.59742   2.67585   2.68962
 Alpha virt. eigenvalues --    2.72238   2.72319   2.88856   2.89361   2.90462
 Alpha virt. eigenvalues --    2.92082   2.94249   2.95199   3.03100   3.29734
 Alpha virt. eigenvalues --    3.30109   3.30817   3.46502   3.49289   3.54823
 Alpha virt. eigenvalues --    3.55534   3.67731   3.69785   3.82510   3.82769
 Alpha virt. eigenvalues --    3.98558   4.08350   4.19432   4.24705   4.25313
 Alpha virt. eigenvalues --    4.32365   4.35143   4.38309   4.42559   4.55814
 Alpha virt. eigenvalues --    4.59514   4.63902   4.71845   4.87913   4.95270
 Alpha virt. eigenvalues --    4.96406   5.00243   5.02725   5.02901   5.06819
 Alpha virt. eigenvalues --    5.16724   5.19921   5.20818   5.33830   5.37009
 Alpha virt. eigenvalues --    5.42974   5.47610   5.49774   5.52325   5.60567
 Alpha virt. eigenvalues --    5.61698   5.73184   5.73704   5.74075   5.74227
 Alpha virt. eigenvalues --    5.79736   5.91397   5.92948   5.97115   5.97362
 Alpha virt. eigenvalues --    6.09093   6.09786   6.12168   6.14664   6.17310
 Alpha virt. eigenvalues --    6.33220   6.36216   6.39205   6.40724   6.41157
 Alpha virt. eigenvalues --    6.55994   6.60913   6.73866   6.81393   6.95125
 Alpha virt. eigenvalues --    6.95349   7.01993   7.06006   7.09759   7.18813
 Alpha virt. eigenvalues --    7.34772   7.40111   7.43793   7.53409   7.56858
 Alpha virt. eigenvalues --    7.57505   7.57700   7.64258   7.70618   7.79755
 Alpha virt. eigenvalues --    7.84489   7.89744   7.94539   7.97063   8.21589
 Alpha virt. eigenvalues --    8.26672   8.29286   8.42137   8.47403   8.60877
 Alpha virt. eigenvalues --    8.61707   8.82540   8.91086   8.98790   9.09109
 Alpha virt. eigenvalues --    9.12185   9.37406   9.40464   9.42625   9.46643
 Alpha virt. eigenvalues --    9.50308   9.67409  10.02647  10.24126  10.31804
 Alpha virt. eigenvalues --   10.58681  10.65956  10.96788  10.98922  11.04523
 Alpha virt. eigenvalues --   11.05699  11.29800  11.47568  11.47873  11.68499
 Alpha virt. eigenvalues --   11.92607  12.15499  12.23475  12.25684  12.30929
 Alpha virt. eigenvalues --   12.57844  12.84793  12.99888  13.11071  13.97253
 Alpha virt. eigenvalues --   28.88820  30.43661  48.01903 146.26678 148.12091
 Alpha virt. eigenvalues --  251.05671
          Condensed to atoms (all electrons):
               1          2          3          4          5
     1  C    5.117049   0.603453  -0.049333   0.372734   0.046365
     2  C    0.603453   5.117049   0.372734  -0.049333   0.046365
     3  H   -0.049333   0.372734   0.370437   0.002533  -0.009350
     4  H    0.372734  -0.049333   0.002533   0.370437  -0.009350
     5  O    0.046365   0.046365  -0.009350  -0.009350   8.371396
 Mulliken charges:
               1
     1  C   -0.090267
     2  C   -0.090267
     3  H    0.312980
     4  H    0.312980
     5  O   -0.445426
 Sum of Mulliken charges =  -0.00000
 Mulliken charges with hydrogens summed into heavy atoms:
               1
     1  C    0.222713
     2  C    0.222713
     5  O   -0.445426
 Electronic spatial extent (au):  <R**2>=            110.1644
 Charge=             -0.0000 electrons
 Dipole moment (field-independent basis, Debye):
    X=              0.0000    Y=             -0.0000    Z=             -2.4101  Tot=              2.4101
 Quadrupole moment (field-independent basis, Debye-Ang):
   XX=            -18.7950   YY=            -11.6721   ZZ=            -19.1652
   XY=              0.0000   XZ=             -0.0000   YZ=             -0.0000
 Traceless Quadrupole moment (field-independent basis, Debye-Ang):
   XX=             -2.2509   YY=              4.8720   ZZ=             -2.6211
   XY=              0.0000   XZ=             -0.0000   YZ=             -0.0000
 Octapole moment (field-independent basis, Debye-Ang**2):
  XXX=              0.0000  YYY=              0.0000  ZZZ=              1.3623  XYY=              0.0000
  XXY=             -0.0000  XXZ=              1.6430  XZZ=              0.0000  YZZ=              0.0000
  YYZ=             -3.1563  XYZ=             -0.0000
 Hexadecapole moment (field-independent basis, Debye-Ang**3):
 XXXX=            -19.9151 YYYY=            -43.5603 ZZZZ=            -64.5959 XXXY=             -0.0000
 XXXZ=             -0.0000 YYYX=             -0.0000 YYYZ=              0.0000 ZZZX=             -0.0000
 ZZZY=             -0.0000 XXYY=            -13.9047 XXZZ=            -15.6779 YYZZ=            -17.2911
 XXYZ=             -0.0000 YYXZ=             -0.0000 ZZXY=             -0.0000
 N-N= 6.134747260660D+01 E-N=-4.799504290620D+02  KE= 1.518469727999D+02
 PrsmSu:  requested number of processors reduced to:  21 ShMem   1 Linda.
 No NMR shielding tensors so no spin-rotation constants.
 Leave Link  601 at Sat Apr 17 20:37:45 2021, MaxMem=   104857600 cpu:             201.3 elap:               4.4
 (Enter /s/ls4/users/knvvv/bin/g16sse/l801.exe)
 DoSCS=F DFT=T ScalE2(SS,OS)=  1.000000  1.000000
 Range of M.O.s used for correlation:     1   257
 NBasis=   258 NAE=    11 NBE=    11 NFC=     0 NFV=     0
 NROrb=    257 NOA=    11 NOB=    11 NVA=   246 NVB=   246

 **** Warning!!: The largest alpha MO coefficient is  0.60858907D+02

 Leave Link  801 at Sat Apr 17 20:37:45 2021, MaxMem=   104857600 cpu:               3.6 elap:               0.1
 (Enter /s/ls4/users/knvvv/bin/g16sse/l914.exe)
 RHF ground state
 Doing stability rather than CIS.
 Two-electron integrals replicated using symmetry.
 MDV=   104857600 DFT=T DoStab=T Mixed=T DoRPA=F DoScal=F NonHer=F
 Making orbital integer symmetry assigments:
 Orbital symmetries:
       Occupied  (A1) (A1) (B2) (A1) (A1) (B2) (A1) (B1) (A1) (B2)
                 (B1)
       Virtual   (A2) (A1) (B2) (A1) (B1) (B2) (A1) (A1) (B2) (B2)
                 (B1) (A2) (A1) (A1) (A1) (B2) (B1) (A2) (B2) (A1)
                 (B1) (B2) (A1) (A1) (B2) (A2) (B2) (A1) (B1) (B2)
                 (A1) (A2) (B1) (A1) (B2) (A1) (A1) (A2) (B2) (B2)
                 (B1) (B1) (A1) (B2) (A1) (A1) (B1) (B2) (A2) (A1)
                 (A2) (B2) (A1) (B2) (B1) (A1) (A2) (A1) (B2) (B1)
                 (A1) (B2) (B2) (A1) (A2) (B2) (A1) (B1) (B2) (A1)
                 (A2) (A1) (B1) (B2) (A1) (B1) (B2) (B2) (A1) (B1)
                 (A1) (A1) (A2) (A1) (B1) (B2) (A2) (B2) (A2) (A1)
                 (B1) (A2) (B1) (B2) (A1) (B2) (A1) (B2) (A1) (A2)
                 (B1) (A1) (B2) (A2) (B1) (A1) (B2) (B1) (B2) (A1)
                 (A2) (B2) (A1) (B2) (A1) (B2) (B1) (A1) (A2) (B2)
                 (A1) (B1) (B2) (A2) (A1) (B1) (B2) (A1) (B2) (A2)
                 (A1) (A1) (B1) (A2) (B2) (A1) (B1) (A1) (B2) (B1)
                 (A1) (A1) (A1) (B1) (B2) (B1) (A2) (B2) (B2) (A1)
                 (A2) (A2) (B2) (B1) (B1) (A1) (A2) (B1) (B2) (A1)
                 (A1) (A1) (B1) (B2) (A2) (B1) (A1) (B2) (A1) (A2)
                 (B2) (B2) (B1) (A2) (A1) (B2) (A2) (B2) (B2) (A1)
                 (A2) (A1) (B1) (B2) (A1) (B2) (A2) (B1) (B2) (B1)
                 (A2) (A1) (A1) (B2) (A1) (B2) (A2) (B1) (A1) (B2)
                 (B2) (A1) (A2) (A1) (B1) (B2) (A1) (A2) (A1) (B2)
                 (B1) (A1) (A1) (B2) (B1) (A2) (A2) (B2) (B1) (B2)
                 (A1) (A1) (B1) (B2) (A2) (B2) (B2) (A2) (A1) (B1)
                 (A1) (A2) (B1) (A1) (B2) (A1) (B2) (A1) (B2) (A1)
                 (A1) (B2) (A1) (A1) (B2) (A1)
    24 initial guesses have been made.
 Convergence on wavefunction:    0.001000000000000
 Davidson Disk Diagonalization:  ConvIn= 1.00D-03 SkipCon=T Conv= 1.00D-03.
 Max sub-space:  2000 roots to seek:    24 dimension of matrix:         5412
 Iteration     1 Dimension    24 NMult     0 NNew     24
 Estimated number of processors is:   18
 CISAX will form     1 AO SS matrices at one time.
 NMat=     1 NSing=     1 JSym2X= 2.
 FoFJK:  IHMeth= 1 ICntrl=       0 DoSepK=F KAlg= 0 I1Cent=           0 FoldK=F
 IRaf= 990000000 NMat=       1 IRICut=       1 DoRegI=T DoRafI=F ISym2E= 2 IDoP0=0 IntGTp=1.
 FoFCou: FMM=F IPFlag=           0 FMFlag=      100000 FMFlg1=           0
         NFxFlg=           0 DoJE=F BraDBF=F KetDBF=F FulRan=T
         wScrn=  0.000000 ICntrl=         0 IOpCl=  0 I1Cent=           0 NGrid=           0
         NMat0=    1 NMatS0=      1 NMatT0=    0 NMatD0=    1 NMtDS0=    0 NMtDT0=    0
 Integrals replicated using symmetry in FoFCou.
 CoulSu:  requested number of processors reduced to:  20 ShMem   1 Linda.
 NMat=     1 NSing=     1 JSym2X= 2.
 CoulSu:  requested number of processors reduced to:  20 ShMem   1 Linda.
 NMat=     1 NSing=     1 JSym2X= 2.
 CoulSu:  requested number of processors reduced to:  20 ShMem   1 Linda.
 NMat=     1 NSing=     1 JSym2X= 2.
 CoulSu:  requested number of processors reduced to:  20 ShMem   1 Linda.
 NMat=     1 NSing=     1 JSym2X= 2.
 CoulSu:  requested number of processors reduced to:  20 ShMem   1 Linda.
 NMat=     1 NSing=     1 JSym2X= 2.
 CoulSu:  requested number of processors reduced to:  20 ShMem   1 Linda.
 NMat=     1 NSing=     1 JSym2X= 2.
 CoulSu:  requested number of processors reduced to:  20 ShMem   1 Linda.
 NMat=     1 NSing=     1 JSym2X= 2.
 CoulSu:  requested number of processors reduced to:  20 ShMem   1 Linda.
 NMat=     1 NSing=     1 JSym2X= 2.
 CoulSu:  requested number of processors reduced to:  20 ShMem   1 Linda.
 NMat=     1 NSing=     1 JSym2X= 2.
 CoulSu:  requested number of processors reduced to:  20 ShMem   1 Linda.
 NMat=     1 NSing=     1 JSym2X= 2.
 CoulSu:  requested number of processors reduced to:  20 ShMem   1 Linda.
 NMat=     1 NSing=     1 JSym2X= 2.
 CoulSu:  requested number of processors reduced to:  20 ShMem   1 Linda.
 NMat=     1 NSing=     0 JSym2X= 2.
 CoulSu:  requested number of processors reduced to:  20 ShMem   1 Linda.
 NMat=     1 NSing=     0 JSym2X= 2.
 CoulSu:  requested number of processors reduced to:  20 ShMem   1 Linda.
 NMat=     1 NSing=     0 JSym2X= 2.
 CoulSu:  requested number of processors reduced to:  20 ShMem   1 Linda.
 NMat=     1 NSing=     0 JSym2X= 2.
 CoulSu:  requested number of processors reduced to:  20 ShMem   1 Linda.
 NMat=     1 NSing=     0 JSym2X= 2.
 CoulSu:  requested number of processors reduced to:  20 ShMem   1 Linda.
 NMat=     1 NSing=     0 JSym2X= 2.
 CoulSu:  requested number of processors reduced to:  20 ShMem   1 Linda.
 NMat=     1 NSing=     0 JSym2X= 2.
 CoulSu:  requested number of processors reduced to:  20 ShMem   1 Linda.
 NMat=     1 NSing=     0 JSym2X= 2.
 CoulSu:  requested number of processors reduced to:  20 ShMem   1 Linda.
 NMat=     1 NSing=     0 JSym2X= 2.
 CoulSu:  requested number of processors reduced to:  20 ShMem   1 Linda.
 NMat=     1 NSing=     0 JSym2X= 2.
 CoulSu:  requested number of processors reduced to:  20 ShMem   1 Linda.
 NMat=     1 NSing=     0 JSym2X= 2.
 CoulSu:  requested number of processors reduced to:  20 ShMem   1 Linda.
 NMat=     1 NSing=     0 JSym2X= 2.
 CoulSu:  requested number of processors reduced to:  20 ShMem   1 Linda.
 New state      1 was old state      2
 Excitation Energies [eV] at current iteration:
 Root      1 :     3.046094222813638
 Root      2 :     5.324721772685564
 Root      3 :     5.776044828477574
 Root      4 :     5.833777049730920
 Root      5 :     5.842060315623846
 Root      6 :     5.888823591912696
 Root      7 :     6.040275028149537
 Root      8 :     6.647177692541066
 Root      9 :     6.943489160887799
 Root     10 :     7.070140910839703
 Root     11 :     7.233445411394159
 Root     12 :     7.523694475660265
 Root     13 :     7.606153085399646
 Root     14 :     7.674439168515563
 Root     15 :     7.818302021578694
 Root     16 :     7.846037382439217
 Root     17 :     7.876534648248213
 Root     18 :     8.058350524696825
 Root     19 :     8.228968700376621
 Root     20 :     8.610412870362008
 Root     21 :     8.943506875378226
 Root     22 :     9.339802809895895
 Root     23 :     9.868681643633076
 Root     24 :    10.374721522016800
 Iteration     2 Dimension    48 NMult    24 NNew     24
 Estimated number of processors is:   18
 CISAX will form     1 AO SS matrices at one time.
 NMat=     1 NSing=     1 JSym2X= 2.
 CoulSu:  requested number of processors reduced to:  20 ShMem   1 Linda.
 NMat=     1 NSing=     1 JSym2X= 2.
 CoulSu:  requested number of processors reduced to:  20 ShMem   1 Linda.
 NMat=     1 NSing=     1 JSym2X= 2.
 CoulSu:  requested number of processors reduced to:  20 ShMem   1 Linda.
 NMat=     1 NSing=     1 JSym2X= 2.
 CoulSu:  requested number of processors reduced to:  20 ShMem   1 Linda.
 NMat=     1 NSing=     1 JSym2X= 2.
 CoulSu:  requested number of processors reduced to:  20 ShMem   1 Linda.
 NMat=     1 NSing=     1 JSym2X= 2.
 CoulSu:  requested number of processors reduced to:  20 ShMem   1 Linda.
 NMat=     1 NSing=     1 JSym2X= 2.
 CoulSu:  requested number of processors reduced to:  20 ShMem   1 Linda.
 NMat=     1 NSing=     1 JSym2X= 2.
 CoulSu:  requested number of processors reduced to:  20 ShMem   1 Linda.
 NMat=     1 NSing=     1 JSym2X= 2.
 CoulSu:  requested number of processors reduced to:  20 ShMem   1 Linda.
 NMat=     1 NSing=     1 JSym2X= 2.
 CoulSu:  requested number of processors reduced to:  20 ShMem   1 Linda.
 NMat=     1 NSing=     1 JSym2X= 2.
 CoulSu:  requested number of processors reduced to:  20 ShMem   1 Linda.
 NMat=     1 NSing=     1 JSym2X= 2.
 CoulSu:  requested number of processors reduced to:  20 ShMem   1 Linda.
 NMat=     1 NSing=     0 JSym2X= 2.
 CoulSu:  requested number of processors reduced to:  20 ShMem   1 Linda.
 NMat=     1 NSing=     0 JSym2X= 2.
 CoulSu:  requested number of processors reduced to:  20 ShMem   1 Linda.
 NMat=     1 NSing=     0 JSym2X= 2.
 CoulSu:  requested number of processors reduced to:  20 ShMem   1 Linda.
 NMat=     1 NSing=     0 JSym2X= 2.
 CoulSu:  requested number of processors reduced to:  20 ShMem   1 Linda.
 NMat=     1 NSing=     0 JSym2X= 2.
 CoulSu:  requested number of processors reduced to:  20 ShMem   1 Linda.
 NMat=     1 NSing=     0 JSym2X= 2.
 CoulSu:  requested number of processors reduced to:  20 ShMem   1 Linda.
 NMat=     1 NSing=     0 JSym2X= 2.
 CoulSu:  requested number of processors reduced to:  20 ShMem   1 Linda.
 NMat=     1 NSing=     0 JSym2X= 2.
 CoulSu:  requested number of processors reduced to:  20 ShMem   1 Linda.
 NMat=     1 NSing=     0 JSym2X= 2.
 CoulSu:  requested number of processors reduced to:  20 ShMem   1 Linda.
 NMat=     1 NSing=     0 JSym2X= 2.
 CoulSu:  requested number of processors reduced to:  20 ShMem   1 Linda.
 NMat=     1 NSing=     0 JSym2X= 2.
 CoulSu:  requested number of processors reduced to:  20 ShMem   1 Linda.
 NMat=     1 NSing=     0 JSym2X= 2.
 CoulSu:  requested number of processors reduced to:  20 ShMem   1 Linda.
 Root      1 not converged, maximum delta is    0.172757751184110
 Excitation Energies [eV] at current iteration:
 Root      1 :     2.220163147173760   Change is   -0.825931075639879
 Root      2 :     4.336525245308403   Change is   -0.988196527377161
 Root      3 :     5.192603956150839   Change is   -2.625698065427855
 Root      4 :     5.424501587131290   Change is   -0.351543241346285
 Root      5 :     5.608842646355533   Change is   -0.279980945557163
 Root      6 :     5.734391298529501   Change is   -0.099385751201419
 Root      7 :     5.740567091727212   Change is   -0.101493223896635
 Root      8 :     5.949225406968236   Change is   -0.091049621181301
 Root      9 :     6.021166013381746   Change is   -0.626011679159321
 Root     10 :     6.575918202203289   Change is   -0.367570958684509
 Root     11 :     6.938903838300859   Change is   -0.131237072538844
 Root     12 :     7.093448087246302   Change is   -0.139997324147857
 Root     13 :     7.234292758128881   Change is   -0.289401717531385
 Root     14 :     7.365883441500509   Change is   -0.308555727015054
 Root     15 :     7.398746740006328   Change is   -0.207406345393319
 Root     16 :     7.642076892237355   Change is   -0.203960490201862
 Root     17 :     7.710790184065874   Change is   -0.165744464182339
 Root     18 :     7.862071818350851   Change is   -0.196278706345974
 Root     19 :     8.001462858124105   Change is   -0.227505842252517
 Root     20 :     8.412902445298275   Change is   -0.197510425063733
 Root     21 :     8.543748972601621   Change is   -0.399757902776605
 Root     22 :     9.089774557114131   Change is   -0.250028252781763
 Root     23 :     9.502207634881012   Change is   -0.366474008752064
 Root     24 :     9.605103313959654   Change is   -0.769618208057144
 Iteration     3 Dimension    54 NMult    48 NNew      6
 Estimated number of processors is:   18
 CISAX will form     1 AO SS matrices at one time.
 NMat=     1 NSing=     1 JSym2X= 2.
 CoulSu:  requested number of processors reduced to:  20 ShMem   1 Linda.
 NMat=     1 NSing=     1 JSym2X= 2.
 CoulSu:  requested number of processors reduced to:  20 ShMem   1 Linda.
 NMat=     1 NSing=     1 JSym2X= 2.
 CoulSu:  requested number of processors reduced to:  20 ShMem   1 Linda.
 NMat=     1 NSing=     0 JSym2X= 2.
 CoulSu:  requested number of processors reduced to:  20 ShMem   1 Linda.
 NMat=     1 NSing=     0 JSym2X= 2.
 CoulSu:  requested number of processors reduced to:  20 ShMem   1 Linda.
 NMat=     1 NSing=     0 JSym2X= 2.
 CoulSu:  requested number of processors reduced to:  20 ShMem   1 Linda.
 Root      1 not converged, maximum delta is    0.046579072960796
 Excitation Energies [eV] at current iteration:
 Root      1 :     2.134300074498032   Change is   -0.085863072675727
 Root      2 :     4.255944905267630   Change is   -0.080580340040773
 Root      3 :     5.060331543083286   Change is   -0.132272413067553
 Root      4 :     5.343207184568090   Change is   -0.081294402563200
 Root      5 :     5.588745494788284   Change is   -0.020097151567249
 Root      6 :     5.738846509370754   Change is   -0.001720582356458
 Iteration     4 Dimension    60 NMult    54 NNew      6
 Estimated number of processors is:   18
 CISAX will form     1 AO SS matrices at one time.
 NMat=     1 NSing=     1 JSym2X= 2.
 CoulSu:  requested number of processors reduced to:  20 ShMem   1 Linda.
 NMat=     1 NSing=     1 JSym2X= 2.
 CoulSu:  requested number of processors reduced to:  20 ShMem   1 Linda.
 NMat=     1 NSing=     1 JSym2X= 2.
 CoulSu:  requested number of processors reduced to:  20 ShMem   1 Linda.
 NMat=     1 NSing=     0 JSym2X= 2.
 CoulSu:  requested number of processors reduced to:  20 ShMem   1 Linda.
 NMat=     1 NSing=     0 JSym2X= 2.
 CoulSu:  requested number of processors reduced to:  20 ShMem   1 Linda.
 NMat=     1 NSing=     0 JSym2X= 2.
 CoulSu:  requested number of processors reduced to:  20 ShMem   1 Linda.
 Root      1 not converged, maximum delta is    0.007708908708746
 Excitation Energies [eV] at current iteration:
 Root      1 :     2.127602343471664   Change is   -0.006697731026368
 Root      2 :     4.251115345973833   Change is   -0.004829559293797
 Root      3 :     5.046221190421887   Change is   -0.014110352661400
 Root      4 :     5.340501849735552   Change is   -0.002705334832538
 Root      5 :     5.587217853990916   Change is   -0.001527640797367
 Root      6 :     5.738794063098196   Change is   -0.000052446272558
 Iteration     5 Dimension    66 NMult    60 NNew      6
 Estimated number of processors is:   18
 CISAX will form     1 AO SS matrices at one time.
 NMat=     1 NSing=     1 JSym2X= 2.
 CoulSu:  requested number of processors reduced to:  20 ShMem   1 Linda.
 NMat=     1 NSing=     1 JSym2X= 2.
 CoulSu:  requested number of processors reduced to:  20 ShMem   1 Linda.
 NMat=     1 NSing=     1 JSym2X= 2.
 CoulSu:  requested number of processors reduced to:  20 ShMem   1 Linda.
 NMat=     1 NSing=     0 JSym2X= 2.
 CoulSu:  requested number of processors reduced to:  20 ShMem   1 Linda.
 NMat=     1 NSing=     0 JSym2X= 2.
 CoulSu:  requested number of processors reduced to:  20 ShMem   1 Linda.
 NMat=     1 NSing=     0 JSym2X= 2.
 CoulSu:  requested number of processors reduced to:  20 ShMem   1 Linda.
 Root      1 not converged, maximum delta is    0.002107400468379
 Excitation Energies [eV] at current iteration:
 Root      1 :     2.127139262316164   Change is   -0.000463081155500
 Root      2 :     4.250936803989757   Change is   -0.000178541984076
 Root      3 :     5.045488458303541   Change is   -0.000732732118346
 Root      4 :     5.340431449324523   Change is   -0.000070400411028
 Root      5 :     5.587087273565355   Change is   -0.000130580425562
 Root      6 :     5.738792835863560   Change is   -0.000001227234636
 Iteration     6 Dimension    72 NMult    66 NNew      6
 Estimated number of processors is:   18
 CISAX will form     1 AO SS matrices at one time.
 NMat=     1 NSing=     1 JSym2X= 2.
 CoulSu:  requested number of processors reduced to:  20 ShMem   1 Linda.
 NMat=     1 NSing=     1 JSym2X= 2.
 CoulSu:  requested number of processors reduced to:  20 ShMem   1 Linda.
 NMat=     1 NSing=     1 JSym2X= 2.
 CoulSu:  requested number of processors reduced to:  20 ShMem   1 Linda.
 NMat=     1 NSing=     0 JSym2X= 2.
 CoulSu:  requested number of processors reduced to:  20 ShMem   1 Linda.
 NMat=     1 NSing=     0 JSym2X= 2.
 CoulSu:  requested number of processors reduced to:  20 ShMem   1 Linda.
 NMat=     1 NSing=     0 JSym2X= 2.
 CoulSu:  requested number of processors reduced to:  20 ShMem   1 Linda.
 Root      1 has converged.
 Excitation Energies [eV] at current iteration:
 Root      1 :     2.127108998698256   Change is   -0.000030263617908
 Root      2 :     4.250932698632300   Change is   -0.000004105357456
 Root      3 :     5.045406552108866   Change is   -0.000081906194675
 Root      4 :     5.340428715174673   Change is   -0.000002734149851
 Root      5 :     5.587060131071320   Change is   -0.000027142494034
 Root      6 :     5.738792804398559   Change is   -0.000000031465000
 Convergence achieved on expansion vectors.
 ***********************************************************************
 Stability analysis using <AA,BB:AA,BB> singles matrix:
 ***********************************************************************
 1PDM for each excited state written to RWF  633
 Ground to excited state transition densities written to RWF  633

 Eigenvectors of the stability matrix:
 
 Eigenvector   1:      Triplet-B2   Eigenvalue= 0.0781698  <S**2>=2.000
       8 -> 12        -0.14999
      11 -> 12         0.66064
      11 -> 23        -0.15819
 The wavefunction is stable under the perturbations considered.
 Leave Link  914 at Sat Apr 17 20:44:14 2021, MaxMem=   104857600 cpu:           15794.2 elap:             389.0
 (Enter /s/ls4/users/knvvv/bin/g16sse/l508.exe)
 The wavefunction is already stable.
 Leave Link  508 at Sat Apr 17 20:44:14 2021, MaxMem=   104857600 cpu:               2.2 elap:               0.1
 (Enter /s/ls4/users/knvvv/bin/g16sse/l601.exe)
 Copying SCF densities to generalized density rwf, IOpCl= 0 IROHF=0.

 **********************************************************************

            Population analysis using the SCF density.

 **********************************************************************

 Orbital symmetries:
       Occupied  (A1) (A1) (B2) (A1) (A1) (B2) (A1) (B1) (A1) (B2)
                 (B1)
       Virtual   (A2) (A1) (B2) (A1) (B1) (B2) (A1) (A1) (B2) (B2)
                 (B1) (A2) (A1) (A1) (A1) (B2) (B1) (A2) (B2) (A1)
                 (B1) (B2) (A1) (A1) (B2) (A2) (B2) (A1) (B1) (B2)
                 (A1) (A2) (B1) (A1) (B2) (A1) (A1) (A2) (B2) (B2)
                 (B1) (B1) (A1) (B2) (A1) (A1) (B1) (B2) (A2) (A1)
                 (A2) (B2) (A1) (B2) (B1) (A1) (A2) (A1) (B2) (B1)
                 (A1) (B2) (B2) (A1) (A2) (B2) (A1) (B1) (B2) (A1)
                 (A2) (A1) (B1) (B2) (A1) (B1) (B2) (B2) (A1) (B1)
                 (A1) (A1) (A2) (A1) (B1) (B2) (A2) (B2) (A2) (A1)
                 (B1) (A2) (B1) (B2) (A1) (B2) (A1) (B2) (A1) (A2)
                 (B1) (A1) (B2) (A2) (B1) (A1) (B2) (B1) (B2) (A1)
                 (A2) (B2) (A1) (B2) (A1) (B2) (B1) (A1) (A2) (B2)
                 (A1) (B1) (B2) (A2) (A1) (B1) (B2) (A1) (B2) (A2)
                 (A1) (A1) (B1) (A2) (B2) (A1) (B1) (A1) (B2) (B1)
                 (A1) (A1) (A1) (B1) (B2) (B1) (A2) (B2) (B2) (A1)
                 (A2) (A2) (B2) (B1) (B1) (A1) (A2) (B1) (B2) (A1)
                 (A1) (A1) (B1) (B2) (A2) (B1) (A1) (B2) (A1) (A2)
                 (B2) (B2) (B1) (A2) (A1) (B2) (A2) (B2) (B2) (A1)
                 (A2) (A1) (B1) (B2) (A1) (B2) (A2) (B1) (B2) (B1)
                 (A2) (A1) (A1) (B2) (A1) (B2) (A2) (B1) (A1) (B2)
                 (B2) (A1) (A2) (A1) (B1) (B2) (A1) (A2) (A1) (B2)
                 (B1) (A1) (A1) (B2) (B1) (A2) (A2) (B2) (B1) (B2)
                 (A1) (A1) (B1) (B2) (A2) (B2) (B2) (A2) (A1) (B1)
                 (A1) (A2) (B1) (A1) (B2) (A1) (B2) (A1) (B2) (A1)
                 (A1) (B2) (A1) (A1) (B2) (A1)
 The electronic state is 1-A1.
 Alpha  occ. eigenvalues --  -19.63955 -10.61934 -10.61761  -1.16607  -0.79962
 Alpha  occ. eigenvalues --   -0.69576  -0.60901  -0.48809  -0.44227  -0.44130
 Alpha  occ. eigenvalues --   -0.27689
 Alpha virt. eigenvalues --    0.01292   0.01315   0.02329   0.03856   0.06294
 Alpha virt. eigenvalues --    0.07728   0.08974   0.09527   0.13126   0.15155
 Alpha virt. eigenvalues --    0.16127   0.18568   0.18797   0.19481   0.20305
 Alpha virt. eigenvalues --    0.20858   0.21636   0.23163   0.24367   0.25045
 Alpha virt. eigenvalues --    0.25721   0.27769   0.27904   0.29440   0.30516
 Alpha virt. eigenvalues --    0.31756   0.32250   0.36222   0.36600   0.39016
 Alpha virt. eigenvalues --    0.41535   0.43718   0.44203   0.44535   0.49821
 Alpha virt. eigenvalues --    0.52379   0.53817   0.54270   0.54782   0.56690
 Alpha virt. eigenvalues --    0.58907   0.62564   0.63684   0.64624   0.67384
 Alpha virt. eigenvalues --    0.68799   0.72464   0.73593   0.74612   0.76239
 Alpha virt. eigenvalues --    0.81421   0.84913   0.86480   0.87686   0.89721
 Alpha virt. eigenvalues --    0.95518   0.97446   1.04584   1.06545   1.08401
 Alpha virt. eigenvalues --    1.13792   1.14811   1.18928   1.24405   1.26917
 Alpha virt. eigenvalues --    1.30898   1.32697   1.39971   1.40765   1.50071
 Alpha virt. eigenvalues --    1.56955   1.60930   1.62577   1.63184   1.66577
 Alpha virt. eigenvalues --    1.67836   1.68790   1.78145   1.79144   1.80400
 Alpha virt. eigenvalues --    1.81557   1.92048   1.93078   1.97162   1.98146
 Alpha virt. eigenvalues --    2.01149   2.02286   2.09447   2.09699   2.17303
 Alpha virt. eigenvalues --    2.20310   2.22455   2.23331   2.25952   2.27720
 Alpha virt. eigenvalues --    2.35224   2.36574   2.44249   2.46731   2.52194
 Alpha virt. eigenvalues --    2.54554   2.59450   2.59742   2.67585   2.68962
 Alpha virt. eigenvalues --    2.72238   2.72319   2.88856   2.89361   2.90462
 Alpha virt. eigenvalues --    2.92082   2.94249   2.95199   3.03100   3.29734
 Alpha virt. eigenvalues --    3.30109   3.30817   3.46502   3.49289   3.54823
 Alpha virt. eigenvalues --    3.55534   3.67731   3.69785   3.82510   3.82769
 Alpha virt. eigenvalues --    3.98558   4.08350   4.19432   4.24705   4.25313
 Alpha virt. eigenvalues --    4.32365   4.35143   4.38309   4.42559   4.55814
 Alpha virt. eigenvalues --    4.59514   4.63902   4.71845   4.87913   4.95270
 Alpha virt. eigenvalues --    4.96406   5.00243   5.02725   5.02901   5.06819
 Alpha virt. eigenvalues --    5.16724   5.19921   5.20818   5.33830   5.37009
 Alpha virt. eigenvalues --    5.42974   5.47610   5.49774   5.52325   5.60567
 Alpha virt. eigenvalues --    5.61698   5.73184   5.73704   5.74075   5.74227
 Alpha virt. eigenvalues --    5.79736   5.91397   5.92948   5.97115   5.97362
 Alpha virt. eigenvalues --    6.09093   6.09786   6.12168   6.14664   6.17310
 Alpha virt. eigenvalues --    6.33220   6.36216   6.39205   6.40724   6.41157
 Alpha virt. eigenvalues --    6.55994   6.60913   6.73866   6.81393   6.95125
 Alpha virt. eigenvalues --    6.95349   7.01993   7.06006   7.09759   7.18813
 Alpha virt. eigenvalues --    7.34772   7.40111   7.43793   7.53409   7.56858
 Alpha virt. eigenvalues --    7.57505   7.57700   7.64258   7.70618   7.79755
 Alpha virt. eigenvalues --    7.84489   7.89744   7.94539   7.97063   8.21589
 Alpha virt. eigenvalues --    8.26672   8.29286   8.42137   8.47403   8.60877
 Alpha virt. eigenvalues --    8.61707   8.82540   8.91086   8.98790   9.09109
 Alpha virt. eigenvalues --    9.12185   9.37406   9.40464   9.42625   9.46643
 Alpha virt. eigenvalues --    9.50308   9.67409  10.02647  10.24126  10.31804
 Alpha virt. eigenvalues --   10.58681  10.65956  10.96788  10.98922  11.04523
 Alpha virt. eigenvalues --   11.05699  11.29800  11.47568  11.47873  11.68499
 Alpha virt. eigenvalues --   11.92607  12.15499  12.23475  12.25684  12.30929
 Alpha virt. eigenvalues --   12.57844  12.84793  12.99888  13.11071  13.97253
 Alpha virt. eigenvalues --   28.88820  30.43661  48.01903 146.26678 148.12091
 Alpha virt. eigenvalues --  251.05671
          Condensed to atoms (all electrons):
               1          2          3          4          5
     1  C    5.117049   0.603453  -0.049333   0.372734   0.046365
     2  C    0.603453   5.117049   0.372734  -0.049333   0.046365
     3  H   -0.049333   0.372734   0.370437   0.002533  -0.009350
     4  H    0.372734  -0.049333   0.002533   0.370437  -0.009350
     5  O    0.046365   0.046365  -0.009350  -0.009350   8.371396
 Mulliken charges:
               1
     1  C   -0.090267
     2  C   -0.090267
     3  H    0.312980
     4  H    0.312980
     5  O   -0.445426
 Sum of Mulliken charges =  -0.00000
 Mulliken charges with hydrogens summed into heavy atoms:
               1
     1  C    0.222713
     2  C    0.222713
     5  O   -0.445426
 Electronic spatial extent (au):  <R**2>=            110.1644
 Charge=             -0.0000 electrons
 Dipole moment (field-independent basis, Debye):
    X=              0.0000    Y=             -0.0000    Z=             -2.4101  Tot=              2.4101
 Quadrupole moment (field-independent basis, Debye-Ang):
   XX=            -18.7950   YY=            -11.6721   ZZ=            -19.1652
   XY=              0.0000   XZ=             -0.0000   YZ=             -0.0000
 Traceless Quadrupole moment (field-independent basis, Debye-Ang):
   XX=             -2.2509   YY=              4.8720   ZZ=             -2.6211
   XY=              0.0000   XZ=             -0.0000   YZ=             -0.0000
 Octapole moment (field-independent basis, Debye-Ang**2):
  XXX=              0.0000  YYY=              0.0000  ZZZ=              1.3623  XYY=              0.0000
  XXY=             -0.0000  XXZ=              1.6430  XZZ=              0.0000  YZZ=              0.0000
  YYZ=             -3.1563  XYZ=             -0.0000
 Hexadecapole moment (field-independent basis, Debye-Ang**3):
 XXXX=            -19.9151 YYYY=            -43.5603 ZZZZ=            -64.5959 XXXY=             -0.0000
 XXXZ=             -0.0000 YYYX=             -0.0000 YYYZ=              0.0000 ZZZX=             -0.0000
 ZZZY=             -0.0000 XXYY=            -13.9047 XXZZ=            -15.6779 YYZZ=            -17.2911
 XXYZ=             -0.0000 YYXZ=             -0.0000 ZZXY=             -0.0000
 N-N= 6.134747260660D+01 E-N=-4.799504290620D+02  KE= 1.518469727999D+02
 PrsmSu:  requested number of processors reduced to:  21 ShMem   1 Linda.
 No NMR shielding tensors so no spin-rotation constants.
 Leave Link  601 at Sat Apr 17 20:44:18 2021, MaxMem=   104857600 cpu:             202.8 elap:               4.4
 (Enter /s/ls4/users/knvvv/bin/g16sse/l9999.exe)

 Test job not archived.
 1\1\GINC-N151\Stability\RM062X\Gen\C2H2O1\KNVVV\17-Apr-2021\0\\#P M062
 X/GEN Integral=UltraFineGrid SCF=NoSymm Stable=(RExt, Opt) IOp(1/33=1)
 \\Database calculations.\\0,1\C,0,0.,-0.6355147497,0.4694349103\C,0,0.
 ,0.6355147497,0.4694349103\H,0,0.,1.6522559143,0.8002233651\H,0,0.,-1.
 6522559143,0.8002233651\O,0,0.,0.,-0.8863788908\\Version=ES64L-G16RevA
 .03\State=1-A1\HF=-152.48797\RMSD=3.858e-09\Dipole=0.,0.,0.9482214\Qua
 drupole=-1.6734743,3.6221773,-1.948703,0.,0.,0.\PG=C02V [C2(O1),SGV(C2
 H2)]\\@


 IF GOD HAD MEANT MAN TO SEE THE SUN RISE, HE
 WOULD HAVE SCHEDULED IT FOR A LATER HOUR.
 Job cpu time:       0 days  6 hours 44 minutes 13.9 seconds.
 Elapsed time:       0 days  0 hours  9 minutes 35.2 seconds.
 File lengths (MBytes):  RWF=    163 Int=      0 D2E=      0 Chk=      9 Scr=      1
 Normal termination of Gaussian 16 at Sat Apr 17 20:44:19 2021.
