 Entering Gaussian System, Link 0=/s/ls4/users/knvvv/bin/g16sse/g16
 Input=data/database/M062X--def2-QZVPPD--284_Leucine_xap_YMPJ519.gjf
 Output=data/database/M062X--def2-QZVPPD--284_Leucine_xap_YMPJ519.log
 Initial command:
 /s/ls4/users/knvvv/bin/g16sse/l1.exe "/s/ls4/users/knvvv/bin/scratch/Gau-7439.inp" -scrdir="/s/ls4/users/knvvv/bin/scratch/"
 Entering Link 1 = /s/ls4/users/knvvv/bin/g16sse/l1.exe PID=      7440.
  
 Copyright (c) 1988,1990,1992,1993,1995,1998,2003,2009,2016,
            Gaussian, Inc.  All Rights Reserved.
  
 This is part of the Gaussian(R) 16 program.  It is based on
 the Gaussian(R) 09 system (copyright 2009, Gaussian, Inc.),
 the Gaussian(R) 03 system (copyright 2003, Gaussian, Inc.),
 the Gaussian(R) 98 system (copyright 1998, Gaussian, Inc.),
 the Gaussian(R) 94 system (copyright 1995, Gaussian, Inc.),
 the Gaussian 92(TM) system (copyright 1992, Gaussian, Inc.),
 the Gaussian 90(TM) system (copyright 1990, Gaussian, Inc.),
 the Gaussian 88(TM) system (copyright 1988, Gaussian, Inc.),
 the Gaussian 86(TM) system (copyright 1986, Carnegie Mellon
 University), and the Gaussian 82(TM) system (copyright 1983,
 Carnegie Mellon University). Gaussian is a federally registered
 trademark of Gaussian, Inc.
  
 This software contains proprietary and confidential information,
 including trade secrets, belonging to Gaussian, Inc.
  
 This software is provided under written license and may be
 used, copied, transmitted, or stored only in accord with that
 written license.
  
 The following legend is applicable only to US Government
 contracts under FAR:
  
                    RESTRICTED RIGHTS LEGEND
  
 Use, reproduction and disclosure by the US Government is
 subject to restrictions as set forth in subparagraphs (a)
 and (c) of the Commercial Computer Software - Restricted
 Rights clause in FAR 52.227-19.
  
 Gaussian, Inc.
 340 Quinnipiac St., Bldg. 40, Wallingford CT 06492
  
  
 ---------------------------------------------------------------
 Warning -- This program may not be used in any manner that
 competes with the business of Gaussian, Inc. or will provide
 assistance to any competitor of Gaussian, Inc.  The licensee
 of this program is prohibited from giving any competitor of
 Gaussian, Inc. access to this program.  By using this program,
 the user acknowledges that Gaussian, Inc. is engaged in the
 business of creating and licensing software in the field of
 computational chemistry and represents and warrants to the
 licensee that it is not a competitor of Gaussian, Inc. and that
 it will not use this program in any manner prohibited above.
 ---------------------------------------------------------------
  

 Cite this work as:
 Gaussian 16, Revision A.03,
 M. J. Frisch, G. W. Trucks, H. B. Schlegel, G. E. Scuseria, 
 M. A. Robb, J. R. Cheeseman, G. Scalmani, V. Barone, 
 G. A. Petersson, H. Nakatsuji, X. Li, M. Caricato, A. V. Marenich, 
 J. Bloino, B. G. Janesko, R. Gomperts, B. Mennucci, H. P. Hratchian, 
 J. V. Ortiz, A. F. Izmaylov, J. L. Sonnenberg, D. Williams-Young, 
 F. Ding, F. Lipparini, F. Egidi, J. Goings, B. Peng, A. Petrone, 
 T. Henderson, D. Ranasinghe, V. G. Zakrzewski, J. Gao, N. Rega, 
 G. Zheng, W. Liang, M. Hada, M. Ehara, K. Toyota, R. Fukuda, 
 J. Hasegawa, M. Ishida, T. Nakajima, Y. Honda, O. Kitao, H. Nakai, 
 T. Vreven, K. Throssell, J. A. Montgomery, Jr., J. E. Peralta, 
 F. Ogliaro, M. J. Bearpark, J. J. Heyd, E. N. Brothers, K. N. Kudin, 
 V. N. Staroverov, T. A. Keith, R. Kobayashi, J. Normand, 
 K. Raghavachari, A. P. Rendell, J. C. Burant, S. S. Iyengar, 
 J. Tomasi, M. Cossi, J. M. Millam, M. Klene, C. Adamo, R. Cammi, 
 J. W. Ochterski, R. L. Martin, K. Morokuma, O. Farkas, 
 J. B. Foresman, and D. J. Fox, Gaussian, Inc., Wallingford CT, 2016.
 
 ******************************************
 Gaussian 16:  ES64L-G16RevA.03 25-Dec-2016
                18-Apr-2021 
 ******************************************
 %RWF=temp8_11680,70GB
 %nprocshared=48
 Will use up to   48 processors via shared memory.
 Default route: MaxDisk=80GB
 ----------------------------------------------------------------------
 #P M062X/GEN Integral=UltraFineGrid SCF=NoSymm Stable=(RExt, Opt) IOp(
 1/33=1)
 ----------------------------------------------------------------------
 1/33=1,38=1,172=1/1;
 2/12=2,17=6,18=5,40=1/2;
 3/5=7,11=2,25=1,30=1,74=-55,75=-5/1,2,3;
 4/9=2/1;
 5/5=2,38=5/2;
 6/7=2,8=2,9=2,10=2,28=1/1;
 8/6=1,10=90,11=11/1;
 9/8=-3,42=1,46=1/14;
 5/5=2,8=3,17=40,38=5/8(-2);
 6/7=2,8=2,9=2,10=2,28=1/1;
 99/5=1,9=1/99;
 Leave Link    1 at Sun Apr 18 01:07:42 2021, MaxMem=           0 cpu:              10.9 elap:               0.3
 (Enter /s/ls4/users/knvvv/bin/g16sse/l101.exe)
 ONIOM data not found on unit 2.
 ----------------------
 Database calculations.
 ----------------------
 TstMul:  ICh=     0
 TstMul:  Mul=     1
 TstMul:  ICh=     0
 TstMul:  Mul=     1
 Symbolic Z-matrix:
 Charge =  0 Multiplicity = 1
 N                    -1.0312   -1.11767  -0.51875 
 C                     0.08548  -0.35333   0.02072 
 C                    -0.11258   1.12496  -0.33071 
 O                     0.42697   1.65091  -1.29956 
 C                     1.39359  -0.89157  -0.52663 
 C                     2.63896  -0.199     0.02585 
 C                     2.68748  -0.24156   1.54979 
 C                     3.88238  -0.85504  -0.56298 
 H                    -0.95014  -1.49004  -1.45002 
 H                     0.0343   -0.4748    1.10188 
 H                     1.38444  -0.78106  -1.61369 
 H                     1.44394  -1.95975  -0.29468 
 H                     2.60984   0.84216  -0.29843 
 H                     2.61696  -1.27106   1.90795 
 H                     3.62781   0.17287   1.91258 
 H                     1.88068   0.33219   2.00439 
 H                     3.95001  -1.8974   -0.24529 
 H                     4.78741  -0.34594  -0.23317 
 H                     3.86076  -0.83493  -1.65243 
 N                    -0.95116   1.76892   0.51391 
 H                    -1.50512   1.18101   1.12472 
 C                    -1.37992   3.12206   0.22856 
 H                    -1.76203   3.57531   1.13843 
 H                    -0.52654   3.69019  -0.12905 
 H                    -2.15332   3.15276  -0.5398 
 C                    -2.21543  -1.21007   0.13495 
 O                    -2.41118  -0.66543   1.22173 
 C                    -3.27875  -2.03611  -0.54273 
 H                    -3.5825   -2.82882   0.13657 
 H                    -2.94993  -2.47351  -1.48194 
 H                    -4.1458   -1.40488  -0.72236 
 
 RdStrC is calling ZToCFu for IStruc=1 NZ=    31.
 PrtBox:  NBox=     5 Levels=  2 BoxLen=    8.00 SMaxX=       16.88
          Shift=            7.834421            5.345690            3.122631
 Box      1 Number                   0 centers from      1 to     12:
 Box      2 Number                   2 centers from     13 to     17:
 Box      3 Number                   4 centers from     18 to     29:
 Box      4 Number                   6 centers from     30 to     30:
 Box      5 Number                  32 centers from     31 to     31:
 After GenITR:
 ITRead=  0  0  0  0  0  0  0  0  0  0  0  0  0  0  0  0  0  0  0  0
 ITRead=  0  0  0  0  0  0  0  0  0  0  0
 MicOpt= -1 -1 -1 -1 -1 -1 -1 -1 -1 -1 -1 -1 -1 -1 -1 -1 -1 -1 -1 -1
 MicOpt= -1 -1 -1 -1 -1 -1 -1 -1 -1 -1 -1
 ITRead=  0  0  0  0  0  0  0  0  0  0  0  0  0  0  0  0  0  0  0  0
 ITRead=  0  0  0  0  0  0  0  0  0  0  0
 MicOpt= -1 -1 -1 -1 -1 -1 -1 -1 -1 -1 -1 -1 -1 -1 -1 -1 -1 -1 -1 -1
 MicOpt= -1 -1 -1 -1 -1 -1 -1 -1 -1 -1 -1
 NAtoms=     31 NQM=       31 NQMF=       0 NMMI=      0 NMMIF=      0
                NMic=       0 NMicF=      0.
                    Isotopes and Nuclear Properties:
 (Nuclear quadrupole moments (NQMom) in fm**2, nuclear magnetic moments (NMagM)
  in nuclear magnetons)

  Atom         1           2           3           4           5           6           7           8           9          10
 IAtWgt=          14          12          12          16          12          12          12          12           1           1
 AtmWgt=  14.0030740  12.0000000  12.0000000  15.9949146  12.0000000  12.0000000  12.0000000  12.0000000   1.0078250   1.0078250
 NucSpn=           2           0           0           0           0           0           0           0           1           1
 AtZEff=  -0.0000000  -0.0000000  -0.0000000  -0.0000000  -0.0000000  -0.0000000  -0.0000000  -0.0000000  -0.0000000  -0.0000000
 NQMom=    2.0440000   0.0000000   0.0000000   0.0000000   0.0000000   0.0000000   0.0000000   0.0000000   0.0000000   0.0000000
 NMagM=    0.4037610   0.0000000   0.0000000   0.0000000   0.0000000   0.0000000   0.0000000   0.0000000   2.7928460   2.7928460
 AtZNuc=   7.0000000   6.0000000   6.0000000   8.0000000   6.0000000   6.0000000   6.0000000   6.0000000   1.0000000   1.0000000

  Atom        11          12          13          14          15          16          17          18          19          20
 IAtWgt=           1           1           1           1           1           1           1           1           1          14
 AtmWgt=   1.0078250   1.0078250   1.0078250   1.0078250   1.0078250   1.0078250   1.0078250   1.0078250   1.0078250  14.0030740
 NucSpn=           1           1           1           1           1           1           1           1           1           2
 AtZEff=  -0.0000000  -0.0000000  -0.0000000  -0.0000000  -0.0000000  -0.0000000  -0.0000000  -0.0000000  -0.0000000  -0.0000000
 NQMom=    0.0000000   0.0000000   0.0000000   0.0000000   0.0000000   0.0000000   0.0000000   0.0000000   0.0000000   2.0440000
 NMagM=    2.7928460   2.7928460   2.7928460   2.7928460   2.7928460   2.7928460   2.7928460   2.7928460   2.7928460   0.4037610
 AtZNuc=   1.0000000   1.0000000   1.0000000   1.0000000   1.0000000   1.0000000   1.0000000   1.0000000   1.0000000   7.0000000

  Atom        21          22          23          24          25          26          27          28          29          30
 IAtWgt=           1          12           1           1           1          12          16          12           1           1
 AtmWgt=   1.0078250  12.0000000   1.0078250   1.0078250   1.0078250  12.0000000  15.9949146  12.0000000   1.0078250   1.0078250
 NucSpn=           1           0           1           1           1           0           0           0           1           1
 AtZEff=  -0.0000000  -0.0000000  -0.0000000  -0.0000000  -0.0000000  -0.0000000  -0.0000000  -0.0000000  -0.0000000  -0.0000000
 NQMom=    0.0000000   0.0000000   0.0000000   0.0000000   0.0000000   0.0000000   0.0000000   0.0000000   0.0000000   0.0000000
 NMagM=    2.7928460   0.0000000   2.7928460   2.7928460   2.7928460   0.0000000   0.0000000   0.0000000   2.7928460   2.7928460
 AtZNuc=   1.0000000   6.0000000   1.0000000   1.0000000   1.0000000   6.0000000   8.0000000   6.0000000   1.0000000   1.0000000

  Atom        31
 IAtWgt=           1
 AtmWgt=   1.0078250
 NucSpn=           1
 AtZEff=  -0.0000000
 NQMom=    0.0000000
 NMagM=    2.7928460
 AtZNuc=   1.0000000
 No MM parameters found.
 Leave Link  101 at Sun Apr 18 01:07:42 2021, MaxMem=   104857600 cpu:               8.1 elap:               0.2
 (Enter /s/ls4/users/knvvv/bin/g16sse/l202.exe)
                          Input orientation:                          
 ---------------------------------------------------------------------
 Center     Atomic      Atomic             Coordinates (Angstroms)
 Number     Number       Type             X           Y           Z
 ---------------------------------------------------------------------
      1          7           0       -1.031200   -1.117674   -0.518750
      2          6           0        0.085480   -0.353330    0.020721
      3          6           0       -0.112576    1.124962   -0.330710
      4          8           0        0.426969    1.650907   -1.299561
      5          6           0        1.393588   -0.891567   -0.526629
      6          6           0        2.638962   -0.199004    0.025855
      7          6           0        2.687482   -0.241562    1.549794
      8          6           0        3.882377   -0.855043   -0.562983
      9          1           0       -0.950143   -1.490039   -1.450021
     10          1           0        0.034301   -0.474797    1.101876
     11          1           0        1.384445   -0.781065   -1.613694
     12          1           0        1.443940   -1.959752   -0.294678
     13          1           0        2.609838    0.842163   -0.298425
     14          1           0        2.616955   -1.271062    1.907951
     15          1           0        3.627808    0.172867    1.912576
     16          1           0        1.880684    0.332186    2.004392
     17          1           0        3.950010   -1.897401   -0.245285
     18          1           0        4.787414   -0.345936   -0.233172
     19          1           0        3.860758   -0.834930   -1.652425
     20          7           0       -0.951162    1.768921    0.513908
     21          1           0       -1.505119    1.181009    1.124719
     22          6           0       -1.379918    3.122063    0.228563
     23          1           0       -1.762027    3.575305    1.138429
     24          1           0       -0.526542    3.690186   -0.129048
     25          1           0       -2.153321    3.152758   -0.539799
     26          6           0       -2.215434   -1.210071    0.134948
     27          8           0       -2.411177   -0.665430    1.221727
     28          6           0       -3.278747   -2.036108   -0.542727
     29          1           0       -3.582502   -2.828817    0.136574
     30          1           0       -2.949930   -2.473509   -1.481936
     31          1           0       -4.145797   -1.404882   -0.722363
 ---------------------------------------------------------------------
                    Distance matrix (angstroms):
                    1          2          3          4          5
     1  N    0.000000
     2  C    1.456786   0.000000
     3  C    2.430771   1.532344   0.000000
     4  O    3.225053   2.424196   1.227354   0.000000
     5  C    2.435320   1.516720   2.524540   2.827711   0.000000
     6  C    3.822386   2.558146   3.074245   3.173611   1.528344
     7  C    4.344542   3.020094   3.639232   4.100022   2.531442
     8  C    4.920789   3.874126   4.464753   4.331532   2.489322
     9  H    1.006227   2.127841   2.965233   3.432873   2.589189
    10  H    2.043285   1.089160   2.152465   3.231053   2.161802
    11  H    2.673490   2.131099   2.742272   2.632475   1.092706
    12  H    2.624047   2.127319   3.455358   3.883410   1.094238
    13  H    4.140852   2.811306   2.737253   2.534019   2.130061
    14  H    4.384226   3.288196   4.266483   4.860254   2.750967
    15  H    5.411395   4.050196   4.464223   4.769465   3.474835
    16  H    4.116723   2.761818   3.170849   3.842970   2.853226
    17  H    5.049278   4.170073   5.064245   5.110167   2.761548
    18  H    5.876512   4.708790   5.116928   4.913048   3.449910
    19  H    5.029554   4.157413   4.623363   4.253798   2.712480
    20  N    3.066793   2.412842   1.353251   2.280755   3.695776
    21  H    2.865229   2.470428   2.015091   3.135427   3.927471
    22  C    4.319196   3.777425   2.430505   2.786451   4.936788
    23  H    5.030348   4.482937   3.298976   3.799844   5.716929
    24  H    4.849955   4.092312   2.606225   2.537311   4.983716
    25  H    4.415449   4.197507   2.884496   3.080697   5.379340
    26  C    1.355828   2.457897   3.176670   4.150338   3.682957
    27  O    2.266742   2.788030   3.301383   4.447177   4.193342
    28  C    2.428079   3.803583   4.479058   5.281971   4.810505
    29  H    3.141115   4.426687   5.281204   6.181122   5.380916
    30  H    2.539201   3.995855   4.724923   5.333622   4.720308
    31  H    3.134431   4.422854   4.777068   5.530026   5.566560
                    6          7          8          9         10
     6  C    0.000000
     7  C    1.525305   0.000000
     8  C    1.524204   2.503589   0.000000
     9  H    4.089823   4.877489   4.954120   0.000000
    10  H    2.831632   2.700814   4.209992   2.917538   0.000000
    11  H    2.144931   3.463615   2.710928   2.445349   3.048116
    12  H    2.151988   2.810810   2.690417   2.699459   2.478414
    13  H    1.090887   2.143922   2.137722   4.408946   3.213816
    14  H    2.166120   1.092300   2.807112   4.903888   2.820265
    15  H    2.162365   1.089760   2.692545   5.918611   3.740320
    16  H    2.184435   1.089390   3.465213   4.823594   2.207914
    17  H    2.162618   2.749198   1.091795   5.062493   4.378518
    18  H    2.168993   2.756732   1.089522   5.975722   4.938728
    19  H    2.171131   3.461628   1.089842   4.859516   4.728387
    20  N    4.123095   4.284254   5.604282   3.804975   2.520142
    21  H    4.503926   4.447730   6.001580   3.751238   2.260980
    22  C    5.217468   5.440898   6.643468   4.926849   3.962335
    23  H    5.903553   5.876719   7.374421   5.746037   4.430741
    24  H    5.016992   5.348561   6.347123   5.362755   4.379133
    25  H    5.875393   6.270661   7.245182   4.881773   4.543121
    26  C    4.959769   5.194072   6.147882   2.047308   2.556733
    27  O    5.210716   5.126755   6.544460   3.154811   2.455823
    28  C    6.222340   6.572285   7.257894   2.558080   4.014811
    29  H    6.755353   6.928477   7.753037   3.352451   4.422046
    30  H    6.219527   6.778893   7.081266   2.228762   4.424542
    31  H    6.931588   7.294499   8.048559   3.278558   4.654689
                   11         12         13         14         15
    11  H    0.000000
    12  H    1.769929   0.000000
    13  H    2.422063   3.034808   0.000000
    14  H    3.763132   2.588790   3.055137   0.000000
    15  H    4.286869   3.766871   2.524430   1.762605   0.000000
    16  H    3.817870   3.275584   2.468747   1.766861   1.756775
    17  H    3.114623   2.507332   3.050262   2.608785   3.007688
    18  H    3.698023   3.713085   2.481466   3.186087   2.493606
    19  H    2.477201   2.991606   2.492139   3.796516   3.712028
    20  N    4.060071   4.504811   3.768220   4.890430   5.046843
    21  H    4.438268   4.536080   4.367268   4.859795   5.289992
    22  C    5.125429   5.837191   4.625345   6.172105   6.050701
    23  H    6.037584   6.555065   5.352366   6.576848   6.420764
    24  H    5.084105   5.985986   4.239906   6.216504   5.813638
    25  H    5.398518   6.256048   5.299509   6.951057   6.950925
    26  C    4.025037   3.760002   5.261437   5.147742   6.262265
    27  O    4.739169   4.340124   5.458414   5.110754   6.135907
    28  C    4.946460   4.729813   6.558930   6.430430   7.655625
    29  H    5.650424   5.119216   7.211823   6.633073   8.009549
    30  H    4.654947   4.580352   6.580684   6.627777   7.860831
    31  H    5.636239   5.633467   7.132148   7.257498   8.358297
                   16         17         18         19         20
    16  H    0.000000
    17  H    3.783413   0.000000
    18  H    3.730365   1.763075   0.000000
    19  H    4.319163   1.765461   1.764111   0.000000
    20  N    3.507863   6.167640   6.161331   5.884523   0.000000
    21  H    3.599721   6.411861   6.615996   6.369394   1.012718
    22  C    4.644191   7.336736   7.090571   6.830856   1.447843
    23  H    4.953490   8.030725   7.755811   7.671685   2.076187
    24  H    4.649997   7.160598   6.673773   6.484270   2.070013
    25  H    5.540915   7.927263   7.778733   7.301283   2.114354
    26  C    4.759365   6.215280   7.065558   6.344725   3.258279
    27  O    4.475251   6.643386   7.351089   6.901206   2.925528
    28  C    6.222247   7.236204   8.247149   7.324397   4.583926
    29  H    6.582331   7.599480   8.738244   7.910640   5.310888
    30  H    6.584925   7.033519   8.121113   7.007102   5.096733
    31  H    6.838937   8.124794   9.009047   8.080518   4.669805
                   21         22         23         24         25
    21  H    0.000000
    22  C    2.141602   0.000000
    23  H    2.408079   1.085952   0.000000
    24  H    2.970777   1.085772   1.773730   0.000000
    25  H    2.660560   1.090631   1.774290   1.761805   0.000000
    26  C    2.683553   4.412962   4.910435   5.189853   4.415135
    27  O    2.059051   4.049071   4.290941   4.934353   4.212840
    28  C    4.034350   5.550421   6.051007   6.366806   5.309513
    29  H    4.622841   6.346087   6.732802   7.204641   6.187025
    30  H    4.715680   6.058150   6.698178   6.759753   5.759956
    31  H    4.131794   5.389580   5.826420   6.277798   4.977486
                   26         27         28         29         30
    26  C    0.000000
    27  O    1.231274   0.000000
    28  C    1.507388   2.396818   0.000000
    29  H    2.118778   2.688829   1.087246   0.000000
    30  H    2.179467   3.296847   1.086993   1.773687   0.000000
    31  H    2.121140   2.708354   1.087424   1.755752   1.774546
                   31
    31  H    0.000000
 Stoichiometry    C9H18N2O2
 Framework group  C1[X(C9H18N2O2)]
 Deg. of freedom    87
 Full point group                 C1      NOp   1
 Largest Abelian subgroup         C1      NOp   1
 Largest concise Abelian subgroup C1      NOp   1
                         Standard orientation:                         
 ---------------------------------------------------------------------
 Center     Atomic      Atomic             Coordinates (Angstroms)
 Number     Number       Type             X           Y           Z
 ---------------------------------------------------------------------
      1          7           0       -1.043803   -1.144464   -0.461183
      2          6           0        0.072950   -0.355710    0.041764
      3          6           0       -0.115134    1.100944   -0.395111
      4          8           0        0.433830    1.568026   -1.388525
      5          6           0        1.382099   -0.930509   -0.464374
      6          6           0        2.627085   -0.213275    0.056606
      7          6           0        2.664743   -0.168735    1.580796
      8          6           0        3.871234   -0.907755   -0.484680
      9          1           0       -0.958136   -1.569913   -1.369008
     10          1           0        0.013605   -0.414835    1.127698
     11          1           0        1.381109   -0.882388   -1.556019
     12          1           0        1.425402   -1.983885   -0.171321
     13          1           0        2.605516    0.807742   -0.326922
     14          1           0        2.586488   -1.175698    1.996754
     15          1           0        3.604606    0.261389    1.926090
     16          1           0        1.857714    0.433863    1.995946
     17          1           0        3.931350   -1.930517   -0.107374
     18          1           0        4.776519   -0.384833   -0.177975
     19          1           0        3.857327   -0.949951   -1.573616
     20          7           0       -0.956317    1.796116    0.405161
     21          1           0       -1.517506    1.246737    1.044573
     22          6           0       -1.376190    3.132690    0.039748
     23          1           0       -1.762337    3.639064    0.919388
     24          1           0       -0.517462    3.675412   -0.343578
     25          1           0       -2.144042    3.122953   -0.734709
     26          6           0       -2.233028   -1.193747    0.188111
     27          8           0       -2.433587   -0.586866    1.240493
     28          6           0       -3.295765   -2.052253   -0.448893
     29          1           0       -3.608280   -2.803340    0.272431
     30          1           0       -2.962622   -2.544244   -1.359121
     31          1           0       -4.158321   -1.428304   -0.670647
 ---------------------------------------------------------------------
 Rotational constants (GHZ):           0.9608156           0.5190910           0.4047991
 Leave Link  202 at Sun Apr 18 01:07:42 2021, MaxMem=   104857600 cpu:               6.8 elap:               0.2
 (Enter /s/ls4/users/knvvv/bin/g16sse/l301.exe)
 General basis read from cards:  (5D, 7F)
 Centers:       9     10     11     12     13     14     15     16     17     18
 Centers:      19     21     23     24     25     29     30     31
 S 4 1.00
     Exponent=  1.9069169000D+02 Coefficients=  7.0815167000D-04
     Exponent=  2.8605532000D+01 Coefficients=  5.4678827000D-03
     Exponent=  6.5095943000D+00 Coefficients=  2.7966605000D-02
     Exponent=  1.8412455000D+00 Coefficients=  1.0764538000D-01
 S 1 1.00
     Exponent=  5.9853725000D-01 Coefficients=  1.0000000000D+00
 S 1 1.00
     Exponent=  2.1397624000D-01 Coefficients=  1.0000000000D+00
 S 1 1.00
     Exponent=  8.0316286000D-02 Coefficients=  1.0000000000D+00
 P 1 1.00
     Exponent=  2.2920000000D+00 Coefficients=  1.0000000000D+00
 P 1 1.00
     Exponent=  8.3800000000D-01 Coefficients=  1.0000000000D+00
 P 1 1.00
     Exponent=  2.9200000000D-01 Coefficients=  1.0000000000D+00
 P 1 1.00
     Exponent=  8.4063199228D-02 Coefficients=  1.0000000000D+00
 D 1 1.00
     Exponent=  2.0620000000D+00 Coefficients=  1.0000000000D+00
 D 1 1.00
     Exponent=  6.6200000000D-01 Coefficients=  1.0000000000D+00
 F 1 1.00
     Exponent=  1.3970000000D+00 Coefficients=  1.0000000000D+00
 ****
 Centers:       2      3      5      6      7      8     22     26     28
 S 8 1.00
     Exponent=  6.7025071029D+04 Coefficients=  3.8736308501D-05
     Exponent=  1.0039986538D+04 Coefficients=  3.0107917575D-04
     Exponent=  2.2849316911D+03 Coefficients=  1.5787918095D-03
     Exponent=  6.4714122130D+02 Coefficients=  6.6087087195D-03
     Exponent=  2.1109472335D+02 Coefficients=  2.3367123250D-02
     Exponent=  7.6177643862D+01 Coefficients=  7.0420716898D-02
     Exponent=  2.9633839163D+01 Coefficients=  1.7360344953D-01
     Exponent=  1.2187785081D+01 Coefficients=  3.2292305648D-01
 S 2 1.00
     Exponent=  5.3026006299D+01 Coefficients=  7.4897404492D-02
     Exponent=  1.5258502776D+01 Coefficients=  7.6136220983D-01
 S 1 1.00
     Exponent=  5.2403957464D+00 Coefficients=  1.0000000000D+00
 S 1 1.00
     Exponent=  2.2905022379D+00 Coefficients=  1.0000000000D+00
 S 1 1.00
     Exponent=  6.9673283006D-01 Coefficients=  1.0000000000D+00
 S 1 1.00
     Exponent=  2.7599337363D-01 Coefficients=  1.0000000000D+00
 S 1 1.00
     Exponent=  1.0739884389D-01 Coefficients=  1.0000000000D+00
 S 1 1.00
     Exponent=  4.4981404899D-02 Coefficients=  1.0000000000D+00
 P 5 1.00
     Exponent=  1.0512555082D+02 Coefficients=  8.4647553844D-04
     Exponent=  2.4884461066D+01 Coefficients=  6.6274038534D-03
     Exponent=  7.8637230826D+00 Coefficients=  3.0120390419D-02
     Exponent=  2.8407001835D+00 Coefficients=  9.9951435476D-02
     Exponent=  1.1227137335D+00 Coefficients=  2.3826299282D-01
 P 1 1.00
     Exponent=  4.6050725555D-01 Coefficients=  1.0000000000D+00
 P 1 1.00
     Exponent=  1.8937530913D-01 Coefficients=  1.0000000000D+00
 P 1 1.00
     Exponent=  7.5983791611D-02 Coefficients=  1.0000000000D+00
 D 1 1.00
     Exponent=  1.8480000000D+00 Coefficients=  1.0000000000D+00
 D 1 1.00
     Exponent=  6.4900000000D-01 Coefficients=  1.0000000000D+00
 D 1 1.00
     Exponent=  2.2800000000D-01 Coefficients=  1.0000000000D+00
 D 1 1.00
     Exponent=  7.6889830417D-02 Coefficients=  1.0000000000D+00
 F 1 1.00
     Exponent=  1.4190000000D+00 Coefficients=  1.0000000000D+00
 F 1 1.00
     Exponent=  4.8500000000D-01 Coefficients=  1.0000000000D+00
 G 1 1.00
     Exponent=  1.0110000000D+00 Coefficients=  1.0000000000D+00
 ****
 Centers:       1     20
 S 8 1.00
     Exponent=  9.0726889210D+04 Coefficients=  3.9257887368D-05
     Exponent=  1.3590528801D+04 Coefficients=  3.0513316455D-04
     Exponent=  3.0929883781D+03 Coefficients=  1.6000560446D-03
     Exponent=  8.7599876362D+02 Coefficients=  6.6982937306D-03
     Exponent=  2.8574469982D+02 Coefficients=  2.3690078765D-02
     Exponent=  1.0311913417D+02 Coefficients=  7.1455405268D-02
     Exponent=  4.0128556777D+01 Coefficients=  1.7632774876D-01
     Exponent=  1.6528095704D+01 Coefficients=  3.2677592815D-01
 S 2 1.00
     Exponent=  6.9390960983D+01 Coefficients=  8.0052094386D-02
     Exponent=  2.0428200596D+01 Coefficients=  7.8268063538D-01
 S 1 1.00
     Exponent=  7.1292587972D+00 Coefficients=  1.0000000000D+00
 S 1 1.00
     Exponent=  3.1324304893D+00 Coefficients=  1.0000000000D+00
 S 1 1.00
     Exponent=  9.8755778723D-01 Coefficients=  1.0000000000D+00
 S 1 1.00
     Exponent=  3.8765721307D-01 Coefficients=  1.0000000000D+00
 S 1 1.00
     Exponent=  1.4909883075D-01 Coefficients=  1.0000000000D+00
 S 1 1.00
     Exponent=  6.2151630318D-02 Coefficients=  1.0000000000D+00
 P 5 1.00
     Exponent=  1.5005742670D+02 Coefficients= -8.6216165986D-04
     Exponent=  3.5491599483D+01 Coefficients= -6.8571273236D-03
     Exponent=  1.1247864223D+01 Coefficients= -3.1795688855D-02
     Exponent=  4.0900305195D+00 Coefficients= -1.0537396822D-01
     Exponent=  1.6220573146D+00 Coefficients= -2.4519708041D-01
 P 1 1.00
     Exponent=  6.6442261530D-01 Coefficients=  1.0000000000D+00
 P 1 1.00
     Exponent=  2.7099770070D-01 Coefficients=  1.0000000000D+00
 P 1 1.00
     Exponent=  1.0688749984D-01 Coefficients=  1.0000000000D+00
 D 1 1.00
     Exponent=  2.8370000000D+00 Coefficients=  1.0000000000D+00
 D 1 1.00
     Exponent=  9.6800000000D-01 Coefficients=  1.0000000000D+00
 D 1 1.00
     Exponent=  3.3500000000D-01 Coefficients=  1.0000000000D+00
 D 1 1.00
     Exponent=  1.0825280010D-01 Coefficients=  1.0000000000D+00
 F 1 1.00
     Exponent=  2.0270000000D+00 Coefficients=  1.0000000000D+00
 F 1 1.00
     Exponent=  6.8500000000D-01 Coefficients=  1.0000000000D+00
 G 1 1.00
     Exponent=  1.4270000000D+00 Coefficients=  1.0000000000D+00
 ****
 Centers:       4     27
 S 8 1.00
     Exponent=  1.1650646908D+05 Coefficients=  4.0383857939D-05
     Exponent=  1.7504349724D+04 Coefficients=  3.1255139004D-04
     Exponent=  3.9934513230D+03 Coefficients=  1.6341473495D-03
     Exponent=  1.1330063186D+03 Coefficients=  6.8283224757D-03
     Exponent=  3.6999569594D+02 Coefficients=  2.4124410221D-02
     Exponent=  1.3362074349D+02 Coefficients=  7.2730206154D-02
     Exponent=  5.2035643649D+01 Coefficients=  1.7934429892D-01
     Exponent=  2.1461939313D+01 Coefficients=  3.3059588895D-01
 S 2 1.00
     Exponent=  8.9835051252D+01 Coefficients=  9.6468652996D-02
     Exponent=  2.6428010844D+01 Coefficients=  9.4117481120D-01
 S 1 1.00
     Exponent=  9.2822824649D+00 Coefficients=  1.0000000000D+00
 S 1 1.00
     Exponent=  4.0947728533D+00 Coefficients=  1.0000000000D+00
 S 1 1.00
     Exponent=  1.3255349078D+00 Coefficients=  1.0000000000D+00
 S 1 1.00
     Exponent=  5.1877230787D-01 Coefficients=  1.0000000000D+00
 S 1 1.00
     Exponent=  1.9772676454D-01 Coefficients=  1.0000000000D+00
 S 1 1.00
     Exponent=  6.9638535104D-02 Coefficients=  1.0000000000D+00
 P 5 1.00
     Exponent=  1.9115255810D+02 Coefficients=  2.5115697705D-03
     Exponent=  4.5233356739D+01 Coefficients=  2.0039240864D-02
     Exponent=  1.4353465922D+01 Coefficients=  9.3609064762D-02
     Exponent=  5.2422371832D+00 Coefficients=  3.0618127124D-01
     Exponent=  2.0792418599D+00 Coefficients=  6.7810501439D-01
 P 1 1.00
     Exponent=  8.4282371424D-01 Coefficients=  1.0000000000D+00
 P 1 1.00
     Exponent=  3.3617694891D-01 Coefficients=  1.0000000000D+00
 P 1 1.00
     Exponent=  1.2863997974D-01 Coefficients=  1.0000000000D+00
 P 1 1.00
     Exponent=  4.3598162776D-02 Coefficients=  1.0000000000D+00
 D 1 1.00
     Exponent=  3.7750000000D+00 Coefficients=  1.0000000000D+00
 D 1 1.00
     Exponent=  1.3000000000D+00 Coefficients=  1.0000000000D+00
 D 1 1.00
     Exponent=  4.4400000000D-01 Coefficients=  1.0000000000D+00
 D 1 1.00
     Exponent=  1.2546378695D-01 Coefficients=  1.0000000000D+00
 F 1 1.00
     Exponent=  2.6660000000D+00 Coefficients=  1.0000000000D+00
 F 1 1.00
     Exponent=  8.5900000000D-01 Coefficients=  1.0000000000D+00
 G 1 1.00
     Exponent=  1.8460000000D+00 Coefficients=  1.0000000000D+00
 ****
 Ernie: Thresh=  0.10000D-02 Tol=  0.10000D-05 Strict=F.
 There are  1717 symmetry adapted cartesian basis functions of A   symmetry.
 There are  1419 symmetry adapted basis functions of A   symmetry.
  1419 basis functions,  2031 primitive gaussians,  1717 cartesian basis functions
    51 alpha electrons       51 beta electrons
       nuclear repulsion energy       867.2129469338 Hartrees.
 IExCor= 4336 DFT=T Ex+Corr=M062X ExCW=0 ScaHFX=  0.540000
 ScaDFX=  1.000000  1.000000  1.000000  1.000000 ScalE2=  1.000000  1.000000
 IRadAn=      5 IRanWt=     -1 IRanGd=            0 ICorTp=0 IEmpDi=  4
 NAtoms=   31 NActive=   31 NUniq=   31 SFac= 1.00D+00 NAtFMM=   60 NAOKFM=F Big=F
 Integral buffers will be    131072 words long.
 Raffenetti 2 integral format.
 Two-electron integral symmetry is turned on.
 Leave Link  301 at Sun Apr 18 01:07:42 2021, MaxMem=   104857600 cpu:               7.9 elap:               0.2
 (Enter /s/ls4/users/knvvv/bin/g16sse/l302.exe)
 NPDir=0 NMtPBC=     1 NCelOv=     1 NCel=       1 NClECP=     1 NCelD=      1
         NCelK=      1 NCelE2=     1 NClLst=     1 CellRange=     0.0.
 One-electron integrals computed using PRISM.
 One-electron integral symmetry used in STVInt
 PrsmSu:  requested number of processors reduced to:   3 ShMem   1 Linda.
 PrsmSu:  requested number of processors reduced to:  13 ShMem   1 Linda.
 NBasis=  1419 RedAO= T EigKep=  1.29D-06  NBF=  1419
 NBsUse=  1402 1.00D-06 EigRej=  7.27D-07 NBFU=  1402
 Precomputing XC quadrature grid using
 IXCGrd= 4 IRadAn=           5 IRanWt=          -1 IRanGd=           0 AccXCQ= 0.00D+00.
 Generated NRdTot=       0 NPtTot=           0 NUsed=           0 NTot=          32
 NSgBfM=  1705  1705  1705  1705  1705 MxSgAt=    31 MxSgA2=    31.
 Leave Link  302 at Sun Apr 18 01:08:24 2021, MaxMem=   104857600 cpu:            1932.2 elap:              41.3
 (Enter /s/ls4/users/knvvv/bin/g16sse/l303.exe)
 DipDrv:  MaxL=1.
 Leave Link  303 at Sun Apr 18 01:08:46 2021, MaxMem=   104857600 cpu:            1046.8 elap:              22.4
 (Enter /s/ls4/users/knvvv/bin/g16sse/l401.exe)
 SCF N**3 symmetry information disabled.
 ExpMin= 4.36D-02 ExpMax= 1.17D+05 ExpMxC= 1.13D+03 IAcc=3 IRadAn=         5 AccDes= 0.00D+00
 Harris functional with IExCor= 1009 and IRadAn=       5 diagonalized for initial guess.
 HarFok:  IExCor= 1009 AccDes= 0.00D+00 IRadAn=         5 IDoV= 1 UseB2=F ITyADJ=14
 ICtDFT=  3500011 ScaDFX=  1.000000  1.000000  1.000000  1.000000
 CalDSu:  requested number of processors reduced to:  25 ShMem   1 Linda.
 FoFCou: FMM=F IPFlag=           0 FMFlag=      100000 FMFlg1=           0
         NFxFlg=           0 DoJE=T BraDBF=F KetDBF=T FulRan=T
         wScrn=  0.000000 ICntrl=       500 IOpCl=  0 I1Cent=   200000004 NGrid=           0
         NMat0=    1 NMatS0=      1 NMatT0=    0 NMatD0=    1 NMtDS0=    0 NMtDT0=    0
 Petite list used in FoFCou.
 CoulSu:  requested number of processors reduced to:  10 ShMem   1 Linda.
 CoulSu:  requested number of processors reduced to:  11 ShMem   1 Linda.
 CoulSu:  requested number of processors reduced to:  20 ShMem   1 Linda.
 CoulSu:  requested number of processors reduced to:  20 ShMem   1 Linda.
 Harris En= -613.611811550891    
 JPrj=0 DoOrth=F DoCkMO=F.
 Leave Link  401 at Sun Apr 18 01:09:17 2021, MaxMem=   104857600 cpu:            1174.1 elap:              31.2
 (Enter /s/ls4/users/knvvv/bin/g16sse/l502.exe)
 Integral symmetry usage will be decided dynamically.
 Closed shell SCF:
 Using DIIS extrapolation, IDIIS=  1040.
 NGot=   104857600 LenX=    98865705 LenY=    95915899
 Requested convergence on RMS density matrix=1.00D-08 within 128 cycles.
 Requested convergence on MAX density matrix=1.00D-06.
 Requested convergence on             energy=1.00D-06.
 No special actions if energy rises.
 Fock matrices will be formed incrementally for  20 cycles.

 Cycle   1  Pass 1  IDiag  1:
 FoFJK:  IHMeth= 1 ICntrl=       0 DoSepK=F KAlg= 0 I1Cent=           0 FoldK=F
 IRaf= 830000000 NMat=       1 IRICut=       1 DoRegI=T DoRafI=F ISym2E= 0 IDoP0=0 IntGTp=1.
 FoFCou: FMM=F IPFlag=           0 FMFlag=      100000 FMFlg1=           0
         NFxFlg=           0 DoJE=F BraDBF=F KetDBF=F FulRan=T
         wScrn=  0.000000 ICntrl=         0 IOpCl=  0 I1Cent=           0 NGrid=           0
         NMat0=    1 NMatS0=      1 NMatT0=    0 NMatD0=    1 NMtDS0=    0 NMtDT0=    0
 Symmetry not used in FoFCou.
 CoulSu:  requested number of processors reduced to:  12 ShMem   1 Linda.
 CalDSu:  requested number of processors reduced to:  24 ShMem   1 Linda.
 E= -613.330026071756    
 DIIS: error= 1.69D-02 at cycle   1 NSaved=   1.
 NSaved= 1 IEnMin= 1 EnMin= -613.330026071756     IErMin= 1 ErrMin= 1.69D-02
 ErrMax= 1.69D-02  0.00D+00 EMaxC= 1.00D-01 BMatC= 8.46D-01 BMatP= 8.46D-01
 IDIUse=3 WtCom= 8.31D-01 WtEn= 1.69D-01
 Coeff-Com:  0.100D+01
 Coeff-En:   0.100D+01
 Coeff:      0.100D+01
 Gap=     0.350 Goal=   None    Shift=    0.000
 GapD=    0.350 DampG=1.000 DampE=0.500 DampFc=0.5000 IDamp=-1.
 Damping current iteration by 5.00D-01
 RMSDP=1.83D-03 MaxDP=1.42D-01              OVMax= 1.89D-01

 Cycle   2  Pass 1  IDiag  1:
 RMSU=  8.09D-04    CP:  8.51D-01
 CoulSu:  requested number of processors reduced to:  12 ShMem   1 Linda.
 CalDSu:  requested number of processors reduced to:  24 ShMem   1 Linda.
 E= -613.563186691907     Delta-E=       -0.233160620151 Rises=F Damp=T
 DIIS: error= 9.87D-03 at cycle   2 NSaved=   2.
 NSaved= 2 IEnMin= 2 EnMin= -613.563186691907     IErMin= 2 ErrMin= 9.87D-03
 ErrMax= 9.87D-03  0.00D+00 EMaxC= 1.00D-01 BMatC= 1.09D-01 BMatP= 8.46D-01
 IDIUse=3 WtCom= 9.01D-01 WtEn= 9.87D-02
 Coeff-Com: -0.953D-01 0.110D+01
 Coeff-En:   0.000D+00 0.100D+01
 Coeff:     -0.859D-01 0.109D+01
 Gap=     0.357 Goal=   None    Shift=    0.000
 RMSDP=1.24D-03 MaxDP=1.14D-01 DE=-2.33D-01 OVMax= 1.12D-01

 Cycle   3  Pass 1  IDiag  1:
 RMSU=  9.48D-04    CP:  6.89D-01  1.80D+00
 CoulSu:  requested number of processors reduced to:  13 ShMem   1 Linda.
 CalDSu:  requested number of processors reduced to:  24 ShMem   1 Linda.
 E= -613.782478596910     Delta-E=       -0.219291905003 Rises=F Damp=F
 DIIS: error= 5.28D-03 at cycle   3 NSaved=   3.
 NSaved= 3 IEnMin= 3 EnMin= -613.782478596910     IErMin= 3 ErrMin= 5.28D-03
 ErrMax= 5.28D-03  0.00D+00 EMaxC= 1.00D-01 BMatC= 5.68D-02 BMatP= 1.09D-01
 IDIUse=3 WtCom= 9.47D-01 WtEn= 5.28D-02
 Coeff-Com: -0.147D+00 0.498D+00 0.649D+00
 Coeff-En:   0.000D+00 0.000D+00 0.100D+01
 Coeff:     -0.139D+00 0.471D+00 0.668D+00
 Gap=     0.326 Goal=   None    Shift=    0.000
 RMSDP=2.20D-04 MaxDP=1.99D-02 DE=-2.19D-01 OVMax= 6.18D-02

 Cycle   4  Pass 1  IDiag  1:
 RMSU=  2.14D-04    CP:  6.88D-01  1.83D+00  9.50D-01
 CoulSu:  requested number of processors reduced to:  13 ShMem   1 Linda.
 CalDSu:  requested number of processors reduced to:  24 ShMem   1 Linda.
 E= -613.812752737100     Delta-E=       -0.030274140190 Rises=F Damp=F
 DIIS: error= 1.90D-03 at cycle   4 NSaved=   4.
 NSaved= 4 IEnMin= 4 EnMin= -613.812752737100     IErMin= 4 ErrMin= 1.90D-03
 ErrMax= 1.90D-03  0.00D+00 EMaxC= 1.00D-01 BMatC= 1.19D-02 BMatP= 5.68D-02
 IDIUse=3 WtCom= 9.81D-01 WtEn= 1.90D-02
 Coeff-Com: -0.594D-01 0.131D+00 0.369D+00 0.559D+00
 Coeff-En:   0.000D+00 0.000D+00 0.183D+00 0.817D+00
 Coeff:     -0.583D-01 0.129D+00 0.365D+00 0.564D+00
 Gap=     0.311 Goal=   None    Shift=    0.000
 RMSDP=1.10D-04 MaxDP=2.72D-02 DE=-3.03D-02 OVMax= 1.79D-02

 Cycle   5  Pass 1  IDiag  1:
 RMSU=  8.13D-05    CP:  6.83D-01  1.83D+00  9.12D-01  7.07D-01
 CoulSu:  requested number of processors reduced to:  13 ShMem   1 Linda.
 CalDSu:  requested number of processors reduced to:  24 ShMem   1 Linda.
 E= -613.821726586075     Delta-E=       -0.008973848976 Rises=F Damp=F
 DIIS: error= 2.03D-04 at cycle   5 NSaved=   5.
 NSaved= 5 IEnMin= 5 EnMin= -613.821726586075     IErMin= 5 ErrMin= 2.03D-04
 ErrMax= 2.03D-04  0.00D+00 EMaxC= 1.00D-01 BMatC= 1.36D-04 BMatP= 1.19D-02
 IDIUse=3 WtCom= 9.98D-01 WtEn= 2.03D-03
 Coeff-Com: -0.152D-01 0.316D-01 0.104D+00 0.199D+00 0.680D+00
 Coeff-En:   0.000D+00 0.000D+00 0.000D+00 0.000D+00 0.100D+01
 Coeff:     -0.152D-01 0.316D-01 0.104D+00 0.199D+00 0.681D+00
 Gap=     0.308 Goal=   None    Shift=    0.000
 RMSDP=2.78D-05 MaxDP=1.07D-02 DE=-8.97D-03 OVMax= 3.30D-03

 Cycle   6  Pass 1  IDiag  1:
 RMSU=  1.98D-05    CP:  6.82D-01  1.83D+00  8.98D-01  7.28D-01  1.15D+00
 CoulSu:  requested number of processors reduced to:  13 ShMem   1 Linda.
 CalDSu:  requested number of processors reduced to:  24 ShMem   1 Linda.
 E= -613.821837866506     Delta-E=       -0.000111280431 Rises=F Damp=F
 DIIS: error= 7.14D-05 at cycle   6 NSaved=   6.
 NSaved= 6 IEnMin= 6 EnMin= -613.821837866506     IErMin= 6 ErrMin= 7.14D-05
 ErrMax= 7.14D-05  0.00D+00 EMaxC= 1.00D-01 BMatC= 1.78D-05 BMatP= 1.36D-04
 IDIUse=1 WtCom= 1.00D+00 WtEn= 0.00D+00
 Coeff-Com:  0.153D-02-0.369D-02-0.436D-02 0.996D-02 0.278D+00 0.719D+00
 Coeff:      0.153D-02-0.369D-02-0.436D-02 0.996D-02 0.278D+00 0.719D+00
 Gap=     0.308 Goal=   None    Shift=    0.000
 RMSDP=1.10D-05 MaxDP=4.22D-03 DE=-1.11D-04 OVMax= 7.26D-04

 Cycle   7  Pass 1  IDiag  1:
 RMSU=  5.45D-06    CP:  6.81D-01  1.83D+00  8.93D-01  7.30D-01  1.24D+00
                    CP:  1.22D+00
 CoulSu:  requested number of processors reduced to:  13 ShMem   1 Linda.
 CalDSu:  requested number of processors reduced to:  24 ShMem   1 Linda.
 E= -613.821853039766     Delta-E=       -0.000015173260 Rises=F Damp=F
 DIIS: error= 1.79D-05 at cycle   7 NSaved=   7.
 NSaved= 7 IEnMin= 7 EnMin= -613.821853039766     IErMin= 7 ErrMin= 1.79D-05
 ErrMax= 1.79D-05  0.00D+00 EMaxC= 1.00D-01 BMatC= 1.18D-06 BMatP= 1.78D-05
 IDIUse=1 WtCom= 1.00D+00 WtEn= 0.00D+00
 Coeff-Com:  0.185D-02-0.401D-02-0.966D-02-0.146D-01 0.396D-01 0.207D+00
 Coeff-Com:  0.780D+00
 Coeff:      0.185D-02-0.401D-02-0.966D-02-0.146D-01 0.396D-01 0.207D+00
 Coeff:      0.780D+00
 Gap=     0.309 Goal=   None    Shift=    0.000
 RMSDP=2.49D-06 MaxDP=1.72D-04 DE=-1.52D-05 OVMax= 4.81D-04

 Cycle   8  Pass 1  IDiag  1:
 RMSU=  2.04D-06    CP:  6.81D-01  1.83D+00  8.93D-01  7.33D-01  1.25D+00
                    CP:  1.25D+00  1.12D+00
 CoulSu:  requested number of processors reduced to:  13 ShMem   1 Linda.
 CalDSu:  requested number of processors reduced to:  24 ShMem   1 Linda.
 E= -613.821853971906     Delta-E=       -0.000000932140 Rises=F Damp=F
 DIIS: error= 1.25D-05 at cycle   8 NSaved=   8.
 NSaved= 8 IEnMin= 8 EnMin= -613.821853971906     IErMin= 8 ErrMin= 1.25D-05
 ErrMax= 1.25D-05  0.00D+00 EMaxC= 1.00D-01 BMatC= 5.34D-07 BMatP= 1.18D-06
 IDIUse=1 WtCom= 1.00D+00 WtEn= 0.00D+00
 Coeff-Com:  0.818D-03-0.175D-02-0.449D-02-0.964D-02-0.101D-01 0.196D-01
 Coeff-Com:  0.438D+00 0.568D+00
 Coeff:      0.818D-03-0.175D-02-0.449D-02-0.964D-02-0.101D-01 0.196D-01
 Coeff:      0.438D+00 0.568D+00
 Gap=     0.309 Goal=   None    Shift=    0.000
 RMSDP=1.10D-06 MaxDP=3.08D-04 DE=-9.32D-07 OVMax= 1.95D-04

 Cycle   9  Pass 1  IDiag  1:
 RMSU=  8.86D-07    CP:  6.81D-01  1.83D+00  8.93D-01  7.34D-01  1.24D+00
                    CP:  1.25D+00  1.15D+00  1.24D+00
 CoulSu:  requested number of processors reduced to:  13 ShMem   1 Linda.
 CalDSu:  requested number of processors reduced to:  24 ShMem   1 Linda.
 E= -613.821854404873     Delta-E=       -0.000000432967 Rises=F Damp=F
 DIIS: error= 3.15D-06 at cycle   9 NSaved=   9.
 NSaved= 9 IEnMin= 9 EnMin= -613.821854404873     IErMin= 9 ErrMin= 3.15D-06
 ErrMax= 3.15D-06  0.00D+00 EMaxC= 1.00D-01 BMatC= 3.84D-08 BMatP= 5.34D-07
 IDIUse=1 WtCom= 1.00D+00 WtEn= 0.00D+00
 Coeff-Com: -0.214D-04 0.328D-04 0.112D-03-0.122D-02-0.830D-02-0.277D-01
 Coeff-Com:  0.189D-01 0.185D+00 0.833D+00
 Coeff:     -0.214D-04 0.328D-04 0.112D-03-0.122D-02-0.830D-02-0.277D-01
 Coeff:      0.189D-01 0.185D+00 0.833D+00
 Gap=     0.309 Goal=   None    Shift=    0.000
 RMSDP=6.68D-07 MaxDP=2.34D-04 DE=-4.33D-07 OVMax= 7.98D-05

 Cycle  10  Pass 1  IDiag  1:
 RMSU=  2.74D-07    CP:  6.81D-01  1.83D+00  8.93D-01  7.34D-01  1.24D+00
                    CP:  1.24D+00  1.16D+00  1.44D+00  1.33D+00
 CoulSu:  requested number of processors reduced to:  13 ShMem   1 Linda.
 CalDSu:  requested number of processors reduced to:  24 ShMem   1 Linda.
 E= -613.821854444323     Delta-E=       -0.000000039450 Rises=F Damp=F
 DIIS: error= 1.96D-06 at cycle  10 NSaved=  10.
 NSaved=10 IEnMin=10 EnMin= -613.821854444323     IErMin=10 ErrMin= 1.96D-06
 ErrMax= 1.96D-06  0.00D+00 EMaxC= 1.00D-01 BMatC= 7.40D-09 BMatP= 3.84D-08
 IDIUse=1 WtCom= 1.00D+00 WtEn= 0.00D+00
 Coeff-Com: -0.125D-03 0.260D-03 0.708D-03 0.814D-03-0.156D-02-0.143D-01
 Coeff-Com: -0.574D-01-0.294D-02 0.380D+00 0.695D+00
 Coeff:     -0.125D-03 0.260D-03 0.708D-03 0.814D-03-0.156D-02-0.143D-01
 Coeff:     -0.574D-01-0.294D-02 0.380D+00 0.695D+00
 Gap=     0.309 Goal=   None    Shift=    0.000
 RMSDP=1.79D-07 MaxDP=3.67D-05 DE=-3.95D-08 OVMax= 3.12D-05

 Cycle  11  Pass 1  IDiag  1:
 RMSU=  1.08D-07    CP:  6.81D-01  1.83D+00  8.93D-01  7.34D-01  1.24D+00
                    CP:  1.24D+00  1.16D+00  1.49D+00  1.41D+00  1.11D+00
 CoulSu:  requested number of processors reduced to:  13 ShMem   1 Linda.
 CalDSu:  requested number of processors reduced to:  24 ShMem   1 Linda.
 E= -613.821854452041     Delta-E=       -0.000000007718 Rises=F Damp=F
 DIIS: error= 4.01D-07 at cycle  11 NSaved=  11.
 NSaved=11 IEnMin=11 EnMin= -613.821854452041     IErMin=11 ErrMin= 4.01D-07
 ErrMax= 4.01D-07  0.00D+00 EMaxC= 1.00D-01 BMatC= 5.09D-10 BMatP= 7.40D-09
 IDIUse=1 WtCom= 1.00D+00 WtEn= 0.00D+00
 Coeff-Com: -0.242D-04 0.542D-04 0.153D-03 0.251D-03 0.306D-03-0.143D-02
 Coeff-Com: -0.174D-01-0.189D-01 0.187D-01 0.216D+00 0.802D+00
 Coeff:     -0.242D-04 0.542D-04 0.153D-03 0.251D-03 0.306D-03-0.143D-02
 Coeff:     -0.174D-01-0.189D-01 0.187D-01 0.216D+00 0.802D+00
 Gap=     0.309 Goal=   None    Shift=    0.000
 RMSDP=6.37D-08 MaxDP=2.13D-05 DE=-7.72D-09 OVMax= 8.71D-06

 Cycle  12  Pass 1  IDiag  1:
 RMSU=  4.80D-08    CP:  6.81D-01  1.83D+00  8.93D-01  7.34D-01  1.24D+00
                    CP:  1.24D+00  1.16D+00  1.49D+00  1.42D+00  1.15D+00
                    CP:  1.15D+00
 CoulSu:  requested number of processors reduced to:  13 ShMem   1 Linda.
 CalDSu:  requested number of processors reduced to:  24 ShMem   1 Linda.
 E= -613.821854452742     Delta-E=       -0.000000000701 Rises=F Damp=F
 DIIS: error= 1.94D-07 at cycle  12 NSaved=  12.
 NSaved=12 IEnMin=12 EnMin= -613.821854452742     IErMin=12 ErrMin= 1.94D-07
 ErrMax= 1.94D-07  0.00D+00 EMaxC= 1.00D-01 BMatC= 5.35D-11 BMatP= 5.09D-10
 IDIUse=1 WtCom= 1.00D+00 WtEn= 0.00D+00
 Coeff-Com:  0.634D-05-0.115D-04-0.166D-04-0.130D-04 0.257D-03 0.835D-03
 Coeff-Com:  0.514D-03-0.527D-02-0.318D-01-0.323D-02 0.224D+00 0.815D+00
 Coeff:      0.634D-05-0.115D-04-0.166D-04-0.130D-04 0.257D-03 0.835D-03
 Coeff:      0.514D-03-0.527D-02-0.318D-01-0.323D-02 0.224D+00 0.815D+00
 Gap=     0.309 Goal=   None    Shift=    0.000
 RMSDP=2.32D-08 MaxDP=8.66D-06 DE=-7.01D-10 OVMax= 2.46D-06

 Cycle  13  Pass 1  IDiag  1:
 RMSU=  1.28D-08    CP:  6.81D-01  1.83D+00  8.93D-01  7.34D-01  1.24D+00
                    CP:  1.24D+00  1.16D+00  1.48D+00  1.42D+00  1.16D+00
                    CP:  1.23D+00  1.24D+00
 CoulSu:  requested number of processors reduced to:  13 ShMem   1 Linda.
 CalDSu:  requested number of processors reduced to:  24 ShMem   1 Linda.
 E= -613.821854452715     Delta-E=        0.000000000027 Rises=F Damp=F
 DIIS: error= 5.58D-08 at cycle  13 NSaved=  13.
 NSaved=13 IEnMin=12 EnMin= -613.821854452742     IErMin=13 ErrMin= 5.58D-08
 ErrMax= 5.58D-08  0.00D+00 EMaxC= 1.00D-01 BMatC= 6.80D-12 BMatP= 5.35D-11
 IDIUse=1 WtCom= 1.00D+00 WtEn= 0.00D+00
 Coeff-Com:  0.374D-05-0.755D-05-0.115D-04-0.185D-04 0.886D-04 0.394D-03
 Coeff-Com:  0.153D-02-0.426D-03-0.130D-01-0.211D-01 0.248D-02 0.298D+00
 Coeff-Com:  0.732D+00
 Coeff:      0.374D-05-0.755D-05-0.115D-04-0.185D-04 0.886D-04 0.394D-03
 Coeff:      0.153D-02-0.426D-03-0.130D-01-0.211D-01 0.248D-02 0.298D+00
 Coeff:      0.732D+00
 Gap=     0.309 Goal=   None    Shift=    0.000
 RMSDP=4.99D-09 MaxDP=5.64D-07 DE= 2.66D-11 OVMax= 5.18D-07

 SCF Done:  E(RM062X) =  -613.821854453     A.U. after   13 cycles
            NFock= 13  Conv=0.50D-08     -V/T= 2.0042
 KE= 6.112667833235D+02 PE=-3.165396444982D+03 EE= 1.073094860272D+03
 Leave Link  502 at Sun Apr 18 03:23:04 2021, MaxMem=   104857600 cpu:          120607.4 elap:            8026.2
 (Enter /s/ls4/users/knvvv/bin/g16sse/l601.exe)
 Copying SCF densities to generalized density rwf, IOpCl= 0 IROHF=0.

 **********************************************************************

            Population analysis using the SCF density.

 **********************************************************************

 Orbital symmetries:
       Occupied  (A) (A) (A) (A) (A) (A) (A) (A) (A) (A) (A) (A)
                 (A) (A) (A) (A) (A) (A) (A) (A) (A) (A) (A) (A)
                 (A) (A) (A) (A) (A) (A) (A) (A) (A) (A) (A) (A)
                 (A) (A) (A) (A) (A) (A) (A) (A) (A) (A) (A) (A)
                 (A) (A) (A)
       Virtual   (A) (A) (A) (A) (A) (A) (A) (A) (A) (A) (A) (A)
                 (A) (A) (A) (A) (A) (A) (A) (A) (A) (A) (A) (A)
                 (A) (A) (A) (A) (A) (A) (A) (A) (A) (A) (A) (A)
                 (A) (A) (A) (A) (A) (A) (A) (A) (A) (A) (A) (A)
                 (A) (A) (A) (A) (A) (A) (A) (A) (A) (A) (A) (A)
                 (A) (A) (A) (A) (A) (A) (A) (A) (A) (A) (A) (A)
                 (A) (A) (A) (A) (A) (A) (A) (A) (A) (A) (A) (A)
                 (A) (A) (A) (A) (A) (A) (A) (A) (A) (A) (A) (A)
                 (A) (A) (A) (A) (A) (A) (A) (A) (A) (A) (A) (A)
                 (A) (A) (A) (A) (A) (A) (A) (A) (A) (A) (A) (A)
                 (A) (A) (A) (A) (A) (A) (A) (A) (A) (A) (A) (A)
                 (A) (A) (A) (A) (A) (A) (A) (A) (A) (A) (A) (A)
                 (A) (A) (A) (A) (A) (A) (A) (A) (A) (A) (A) (A)
                 (A) (A) (A) (A) (A) (A) (A) (A) (A) (A) (A) (A)
                 (A) (A) (A) (A) (A) (A) (A) (A) (A) (A) (A) (A)
                 (A) (A) (A) (A) (A) (A) (A) (A) (A) (A) (A) (A)
                 (A) (A) (A) (A) (A) (A) (A) (A) (A) (A) (A) (A)
                 (A) (A) (A) (A) (A) (A) (A) (A) (A) (A) (A) (A)
                 (A) (A) (A) (A) (A) (A) (A) (A) (A) (A) (A) (A)
                 (A) (A) (A) (A) (A) (A) (A) (A) (A) (A) (A) (A)
                 (A) (A) (A) (A) (A) (A) (A) (A) (A) (A) (A) (A)
                 (A) (A) (A) (A) (A) (A) (A) (A) (A) (A) (A) (A)
                 (A) (A) (A) (A) (A) (A) (A) (A) (A) (A) (A) (A)
                 (A) (A) (A) (A) (A) (A) (A) (A) (A) (A) (A) (A)
                 (A) (A) (A) (A) (A) (A) (A) (A) (A) (A) (A) (A)
                 (A) (A) (A) (A) (A) (A) (A) (A) (A) (A) (A) (A)
                 (A) (A) (A) (A) (A) (A) (A) (A) (A) (A) (A) (A)
                 (A) (A) (A) (A) (A) (A) (A) (A) (A) (A) (A) (A)
                 (A) (A) (A) (A) (A) (A) (A) (A) (A) (A) (A) (A)
                 (A) (A) (A) (A) (A) (A) (A) (A) (A) (A) (A) (A)
                 (A) (A) (A) (A) (A) (A) (A) (A) (A) (A) (A) (A)
                 (A) (A) (A) (A) (A) (A) (A) (A) (A) (A) (A) (A)
                 (A) (A) (A) (A) (A) (A) (A) (A) (A) (A) (A) (A)
                 (A) (A) (A) (A) (A) (A) (A) (A) (A) (A) (A) (A)
                 (A) (A) (A) (A) (A) (A) (A) (A) (A) (A) (A) (A)
                 (A) (A) (A) (A) (A) (A) (A) (A) (A) (A) (A) (A)
                 (A) (A) (A) (A) (A) (A) (A) (A) (A) (A) (A) (A)
                 (A) (A) (A) (A) (A) (A) (A) (A) (A) (A) (A) (A)
                 (A) (A) (A) (A) (A) (A) (A) (A) (A) (A) (A) (A)
                 (A) (A) (A) (A) (A) (A) (A) (A) (A) (A) (A) (A)
                 (A) (A) (A) (A) (A) (A) (A) (A) (A) (A) (A) (A)
                 (A) (A) (A) (A) (A) (A) (A) (A) (A) (A) (A) (A)
                 (A) (A) (A) (A) (A) (A) (A) (A) (A) (A) (A) (A)
                 (A) (A) (A) (A) (A) (A) (A) (A) (A) (A) (A) (A)
                 (A) (A) (A) (A) (A) (A) (A) (A) (A) (A) (A) (A)
                 (A) (A) (A) (A) (A) (A) (A) (A) (A) (A) (A) (A)
                 (A) (A) (A) (A) (A) (A) (A) (A) (A) (A) (A) (A)
                 (A) (A) (A) (A) (A) (A) (A) (A) (A) (A) (A) (A)
                 (A) (A) (A) (A) (A) (A) (A) (A) (A) (A) (A) (A)
                 (A) (A) (A) (A) (A) (A) (A) (A) (A) (A) (A) (A)
                 (A) (A) (A) (A) (A) (A) (A) (A) (A) (A) (A) (A)
                 (A) (A) (A) (A) (A) (A) (A) (A) (A) (A) (A) (A)
                 (A) (A) (A) (A) (A) (A) (A) (A) (A) (A) (A) (A)
                 (A) (A) (A) (A) (A) (A) (A) (A) (A) (A) (A) (A)
                 (A) (A) (A) (A) (A) (A) (A) (A) (A) (A) (A) (A)
                 (A) (A) (A) (A) (A) (A) (A) (A) (A) (A) (A) (A)
                 (A) (A) (A) (A) (A) (A) (A) (A) (A) (A) (A) (A)
                 (A) (A) (A) (A) (A) (A) (A) (A) (A) (A) (A) (A)
                 (A) (A) (A) (A) (A) (A) (A) (A) (A) (A) (A) (A)
                 (A) (A) (A) (A) (A) (A) (A) (A) (A) (A) (A) (A)
                 (A) (A) (A) (A) (A) (A) (A) (A) (A) (A) (A) (A)
                 (A) (A) (A) (A) (A) (A) (A) (A) (A) (A) (A) (A)
                 (A) (A) (A) (A) (A) (A) (A) (A) (A) (A) (A) (A)
                 (A) (A) (A) (A) (A) (A) (A) (A) (A) (A) (A) (A)
                 (A) (A) (A) (A) (A) (A) (A) (A) (A) (A) (A) (A)
                 (A) (A) (A) (A) (A) (A) (A) (A) (A) (A) (A) (A)
                 (A) (A) (A) (A) (A) (A) (A) (A) (A) (A) (A) (A)
                 (A) (A) (A) (A) (A) (A) (A) (A) (A) (A) (A) (A)
                 (A) (A) (A) (A) (A) (A) (A) (A) (A) (A) (A) (A)
                 (A) (A) (A) (A) (A) (A) (A) (A) (A) (A) (A) (A)
                 (A) (A) (A) (A) (A) (A) (A) (A) (A) (A) (A) (A)
                 (A) (A) (A) (A) (A) (A) (A) (A) (A) (A) (A) (A)
                 (A) (A) (A) (A) (A) (A) (A) (A) (A) (A) (A) (A)
                 (A) (A) (A) (A) (A) (A) (A) (A) (A) (A) (A) (A)
                 (A) (A) (A) (A) (A) (A) (A) (A) (A) (A) (A) (A)
                 (A) (A) (A) (A) (A) (A) (A) (A) (A) (A) (A) (A)
                 (A) (A) (A) (A) (A) (A) (A) (A) (A) (A) (A) (A)
                 (A) (A) (A) (A) (A) (A) (A) (A) (A) (A) (A) (A)
                 (A) (A) (A) (A) (A) (A) (A) (A) (A) (A) (A) (A)
                 (A) (A) (A) (A) (A) (A) (A) (A) (A) (A) (A) (A)
                 (A) (A) (A) (A) (A) (A) (A) (A) (A) (A) (A) (A)
                 (A) (A) (A) (A) (A) (A) (A) (A) (A) (A) (A) (A)
                 (A) (A) (A) (A) (A) (A) (A) (A) (A) (A) (A) (A)
                 (A) (A) (A) (A) (A) (A) (A) (A) (A) (A) (A) (A)
                 (A) (A) (A) (A) (A) (A) (A) (A) (A) (A) (A) (A)
                 (A) (A) (A) (A) (A) (A) (A) (A) (A) (A) (A) (A)
                 (A) (A) (A) (A) (A) (A) (A) (A) (A) (A) (A) (A)
                 (A) (A) (A) (A) (A) (A) (A) (A) (A) (A) (A) (A)
                 (A) (A) (A) (A) (A) (A) (A) (A) (A) (A) (A) (A)
                 (A) (A) (A) (A) (A) (A) (A) (A) (A) (A) (A) (A)
                 (A) (A) (A) (A) (A) (A) (A) (A) (A) (A) (A) (A)
                 (A) (A) (A) (A) (A) (A) (A) (A) (A) (A) (A) (A)
                 (A) (A) (A) (A) (A) (A) (A) (A) (A) (A) (A) (A)
                 (A) (A) (A) (A) (A) (A) (A) (A) (A) (A) (A) (A)
                 (A) (A) (A) (A) (A) (A) (A) (A) (A) (A) (A) (A)
                 (A) (A) (A) (A) (A) (A) (A) (A) (A) (A) (A) (A)
                 (A) (A) (A) (A) (A) (A) (A) (A) (A) (A) (A) (A)
                 (A) (A) (A) (A) (A) (A) (A) (A) (A) (A) (A) (A)
                 (A) (A) (A) (A) (A) (A) (A) (A) (A) (A) (A) (A)
                 (A) (A) (A) (A) (A) (A) (A) (A) (A) (A) (A) (A)
                 (A) (A) (A) (A) (A) (A) (A) (A) (A) (A) (A) (A)
                 (A) (A) (A) (A) (A) (A) (A) (A) (A) (A) (A) (A)
                 (A) (A) (A) (A) (A) (A) (A) (A) (A) (A) (A) (A)
                 (A) (A) (A) (A) (A) (A) (A) (A) (A) (A) (A) (A)
                 (A) (A) (A) (A) (A) (A) (A) (A) (A) (A) (A) (A)
                 (A) (A) (A) (A) (A) (A) (A) (A) (A) (A) (A) (A)
                 (A) (A) (A) (A) (A) (A) (A) (A) (A) (A) (A) (A)
                 (A) (A) (A) (A) (A) (A) (A) (A) (A) (A) (A) (A)
                 (A) (A) (A) (A) (A) (A) (A) (A) (A) (A) (A) (A)
                 (A) (A) (A) (A) (A) (A) (A) (A) (A) (A) (A) (A)
                 (A) (A) (A) (A) (A) (A) (A) (A) (A) (A) (A) (A)
                 (A) (A) (A) (A) (A) (A) (A) (A) (A) (A) (A) (A)
                 (A) (A) (A) (A) (A) (A) (A)
 The electronic state is 1-A.
 Alpha  occ. eigenvalues --  -19.60451 -19.59131 -14.79239 -14.76695 -10.66277
 Alpha  occ. eigenvalues --  -10.64061 -10.59166 -10.56501 -10.55598 -10.54207
 Alpha  occ. eigenvalues --  -10.53969 -10.52539 -10.52371  -1.17383  -1.15541
 Alpha  occ. eigenvalues --   -1.05224  -1.02705  -0.92311  -0.87306  -0.82893
 Alpha  occ. eigenvalues --   -0.80153  -0.77719  -0.73207  -0.69074  -0.65972
 Alpha  occ. eigenvalues --   -0.64379  -0.61389  -0.57947  -0.57612  -0.54753
 Alpha  occ. eigenvalues --   -0.53356  -0.53152  -0.51975  -0.50669  -0.49726
 Alpha  occ. eigenvalues --   -0.49419  -0.47959  -0.46866  -0.45607  -0.45389
 Alpha  occ. eigenvalues --   -0.45043  -0.44078  -0.43235  -0.42716  -0.39191
 Alpha  occ. eigenvalues --   -0.38614  -0.38552  -0.36049  -0.34634  -0.32216
 Alpha  occ. eigenvalues --   -0.31217
 Alpha virt. eigenvalues --   -0.00363   0.01212   0.01467   0.02337   0.03135
 Alpha virt. eigenvalues --    0.03699   0.03845   0.04652   0.04688   0.04834
 Alpha virt. eigenvalues --    0.05619   0.06058   0.06622   0.07076   0.07821
 Alpha virt. eigenvalues --    0.07919   0.08814   0.08881   0.09076   0.10319
 Alpha virt. eigenvalues --    0.10932   0.11168   0.11883   0.12345   0.12487
 Alpha virt. eigenvalues --    0.13080   0.13448   0.13778   0.14199   0.14778
 Alpha virt. eigenvalues --    0.14910   0.16025   0.16365   0.16676   0.16931
 Alpha virt. eigenvalues --    0.17248   0.17629   0.18317   0.18368   0.18674
 Alpha virt. eigenvalues --    0.19470   0.19597   0.20072   0.20171   0.20441
 Alpha virt. eigenvalues --    0.21001   0.21218   0.21715   0.21956   0.22159
 Alpha virt. eigenvalues --    0.22434   0.22713   0.23323   0.23632   0.23822
 Alpha virt. eigenvalues --    0.24054   0.24347   0.24830   0.24862   0.25381
 Alpha virt. eigenvalues --    0.25631   0.25849   0.26344   0.26515   0.26804
 Alpha virt. eigenvalues --    0.26894   0.27438   0.27701   0.28240   0.28818
 Alpha virt. eigenvalues --    0.28923   0.29040   0.29188   0.29464   0.29838
 Alpha virt. eigenvalues --    0.29924   0.30172   0.30806   0.31208   0.31601
 Alpha virt. eigenvalues --    0.31642   0.31673   0.32060   0.32445   0.32608
 Alpha virt. eigenvalues --    0.32676   0.33410   0.33597   0.33893   0.33951
 Alpha virt. eigenvalues --    0.34196   0.34536   0.34854   0.35028   0.35419
 Alpha virt. eigenvalues --    0.35532   0.35878   0.36412   0.36508   0.37417
 Alpha virt. eigenvalues --    0.37522   0.37641   0.37860   0.38008   0.38467
 Alpha virt. eigenvalues --    0.38557   0.39014   0.39300   0.39570   0.40100
 Alpha virt. eigenvalues --    0.40356   0.40567   0.41061   0.41258   0.41687
 Alpha virt. eigenvalues --    0.41997   0.42147   0.42330   0.43002   0.43088
 Alpha virt. eigenvalues --    0.43633   0.44047   0.44793   0.44871   0.45043
 Alpha virt. eigenvalues --    0.45541   0.45691   0.45979   0.46368   0.46744
 Alpha virt. eigenvalues --    0.47061   0.47238   0.47430   0.47780   0.48149
 Alpha virt. eigenvalues --    0.48507   0.48920   0.49521   0.49552   0.49743
 Alpha virt. eigenvalues --    0.49992   0.50586   0.51346   0.51739   0.52258
 Alpha virt. eigenvalues --    0.52384   0.52784   0.53157   0.53498   0.54104
 Alpha virt. eigenvalues --    0.54369   0.54757   0.55004   0.55265   0.56004
 Alpha virt. eigenvalues --    0.56430   0.56672   0.57012   0.57970   0.58513
 Alpha virt. eigenvalues --    0.58777   0.58943   0.59253   0.59759   0.60323
 Alpha virt. eigenvalues --    0.60593   0.60896   0.60979   0.61458   0.61785
 Alpha virt. eigenvalues --    0.62135   0.62318   0.62595   0.63020   0.63620
 Alpha virt. eigenvalues --    0.64240   0.64398   0.64961   0.65272   0.65752
 Alpha virt. eigenvalues --    0.66114   0.66385   0.66911   0.67001   0.67513
 Alpha virt. eigenvalues --    0.68640   0.68978   0.69551   0.69928   0.70566
 Alpha virt. eigenvalues --    0.70703   0.71083   0.72077   0.72498   0.73182
 Alpha virt. eigenvalues --    0.73384   0.74116   0.74463   0.74477   0.75113
 Alpha virt. eigenvalues --    0.75477   0.76393   0.77149   0.77587   0.77622
 Alpha virt. eigenvalues --    0.78090   0.78874   0.79227   0.80551   0.80759
 Alpha virt. eigenvalues --    0.81156   0.81334   0.81855   0.82224   0.82404
 Alpha virt. eigenvalues --    0.83410   0.83980   0.84695   0.85209   0.85827
 Alpha virt. eigenvalues --    0.86474   0.87193   0.87406   0.87781   0.88646
 Alpha virt. eigenvalues --    0.89099   0.89390   0.89971   0.90220   0.90882
 Alpha virt. eigenvalues --    0.91235   0.91708   0.92543   0.92792   0.93145
 Alpha virt. eigenvalues --    0.94060   0.94595   0.94829   0.95326   0.96189
 Alpha virt. eigenvalues --    0.96570   0.97108   0.97829   0.98005   0.99134
 Alpha virt. eigenvalues --    0.99359   1.00411   1.00762   1.00885   1.01336
 Alpha virt. eigenvalues --    1.01869   1.02034   1.02609   1.02828   1.03468
 Alpha virt. eigenvalues --    1.04407   1.04492   1.04900   1.05739   1.06134
 Alpha virt. eigenvalues --    1.07123   1.07656   1.08751   1.09268   1.09411
 Alpha virt. eigenvalues --    1.09501   1.10865   1.11115   1.11688   1.11917
 Alpha virt. eigenvalues --    1.12307   1.13277   1.13607   1.13976   1.14198
 Alpha virt. eigenvalues --    1.15013   1.15441   1.16165   1.16377   1.16744
 Alpha virt. eigenvalues --    1.17470   1.17645   1.18136   1.18946   1.19298
 Alpha virt. eigenvalues --    1.19758   1.19960   1.20551   1.21764   1.21792
 Alpha virt. eigenvalues --    1.22257   1.22743   1.23571   1.24111   1.24460
 Alpha virt. eigenvalues --    1.25159   1.25443   1.26253   1.26930   1.27284
 Alpha virt. eigenvalues --    1.27726   1.28395   1.28950   1.29110   1.29683
 Alpha virt. eigenvalues --    1.30514   1.31166   1.32427   1.32888   1.33268
 Alpha virt. eigenvalues --    1.34043   1.34639   1.35018   1.35482   1.35579
 Alpha virt. eigenvalues --    1.36273   1.37617   1.38186   1.38385   1.38672
 Alpha virt. eigenvalues --    1.39453   1.40569   1.41105   1.42183   1.43081
 Alpha virt. eigenvalues --    1.43464   1.44030   1.44565   1.45337   1.46076
 Alpha virt. eigenvalues --    1.46531   1.46852   1.47769   1.47951   1.48720
 Alpha virt. eigenvalues --    1.49444   1.49935   1.50870   1.51545   1.52606
 Alpha virt. eigenvalues --    1.52927   1.54043   1.54169   1.54642   1.55148
 Alpha virt. eigenvalues --    1.55632   1.56997   1.57198   1.58216   1.58360
 Alpha virt. eigenvalues --    1.59450   1.60546   1.61029   1.61278   1.61975
 Alpha virt. eigenvalues --    1.63083   1.63945   1.64560   1.64867   1.67018
 Alpha virt. eigenvalues --    1.67688   1.69579   1.70153   1.70279   1.71378
 Alpha virt. eigenvalues --    1.71903   1.72683   1.73417   1.74512   1.75030
 Alpha virt. eigenvalues --    1.77216   1.78119   1.78843   1.80254   1.80643
 Alpha virt. eigenvalues --    1.80797   1.81326   1.82178   1.83508   1.84891
 Alpha virt. eigenvalues --    1.85851   1.86638   1.87726   1.88853   1.89989
 Alpha virt. eigenvalues --    1.90345   1.91631   1.92618   1.93310   1.94762
 Alpha virt. eigenvalues --    1.95184   1.96368   1.97022   1.97238   1.98221
 Alpha virt. eigenvalues --    1.98704   1.99234   2.00212   2.00754   2.02207
 Alpha virt. eigenvalues --    2.02429   2.02910   2.04982   2.05603   2.05722
 Alpha virt. eigenvalues --    2.06520   2.07312   2.07935   2.08425   2.09055
 Alpha virt. eigenvalues --    2.09588   2.09815   2.10784   2.11606   2.11845
 Alpha virt. eigenvalues --    2.12934   2.13213   2.14540   2.15278   2.15398
 Alpha virt. eigenvalues --    2.15682   2.17242   2.17909   2.18335   2.18784
 Alpha virt. eigenvalues --    2.19179   2.19853   2.20360   2.20973   2.21174
 Alpha virt. eigenvalues --    2.22013   2.22475   2.22760   2.23155   2.23405
 Alpha virt. eigenvalues --    2.24177   2.24905   2.25415   2.26195   2.26614
 Alpha virt. eigenvalues --    2.26799   2.27084   2.27942   2.27995   2.28783
 Alpha virt. eigenvalues --    2.29409   2.30168   2.30674   2.31169   2.31532
 Alpha virt. eigenvalues --    2.32601   2.33855   2.34074   2.34336   2.35310
 Alpha virt. eigenvalues --    2.35726   2.36217   2.37821   2.38124   2.38440
 Alpha virt. eigenvalues --    2.38843   2.39979   2.40129   2.40821   2.41856
 Alpha virt. eigenvalues --    2.42610   2.43265   2.44234   2.44942   2.45120
 Alpha virt. eigenvalues --    2.45566   2.46073   2.46174   2.46700   2.48364
 Alpha virt. eigenvalues --    2.49653   2.50529   2.50788   2.51583   2.52692
 Alpha virt. eigenvalues --    2.52791   2.54720   2.55080   2.55657   2.56695
 Alpha virt. eigenvalues --    2.56977   2.57612   2.57737   2.58721   2.60426
 Alpha virt. eigenvalues --    2.60864   2.61648   2.61957   2.62603   2.63165
 Alpha virt. eigenvalues --    2.64070   2.65442   2.65779   2.66665   2.66834
 Alpha virt. eigenvalues --    2.67805   2.68032   2.68583   2.68893   2.69531
 Alpha virt. eigenvalues --    2.70330   2.70690   2.71345   2.72807   2.73100
 Alpha virt. eigenvalues --    2.73496   2.74987   2.75241   2.76361   2.76574
 Alpha virt. eigenvalues --    2.77205   2.78001   2.78716   2.79076   2.79652
 Alpha virt. eigenvalues --    2.80607   2.81914   2.82721   2.83434   2.84650
 Alpha virt. eigenvalues --    2.85300   2.85660   2.86069   2.87193   2.87549
 Alpha virt. eigenvalues --    2.88051   2.88808   2.89051   2.89910   2.90434
 Alpha virt. eigenvalues --    2.91180   2.92064   2.92439   2.93104   2.93641
 Alpha virt. eigenvalues --    2.94237   2.94754   2.95482   2.95617   2.96416
 Alpha virt. eigenvalues --    2.96981   2.97955   2.98023   2.98483   2.99736
 Alpha virt. eigenvalues --    3.00325   3.01068   3.02174   3.02267   3.02662
 Alpha virt. eigenvalues --    3.03190   3.03868   3.04334   3.05532   3.06030
 Alpha virt. eigenvalues --    3.06229   3.06947   3.07185   3.07631   3.08530
 Alpha virt. eigenvalues --    3.08770   3.09630   3.10596   3.11373   3.11951
 Alpha virt. eigenvalues --    3.12720   3.13041   3.13845   3.14358   3.14804
 Alpha virt. eigenvalues --    3.15812   3.16371   3.16488   3.17966   3.18444
 Alpha virt. eigenvalues --    3.19362   3.19781   3.21722   3.22105   3.23530
 Alpha virt. eigenvalues --    3.24465   3.25966   3.26822   3.27513   3.27817
 Alpha virt. eigenvalues --    3.28720   3.29662   3.30068   3.30405   3.31727
 Alpha virt. eigenvalues --    3.32010   3.32858   3.33253   3.33994   3.34939
 Alpha virt. eigenvalues --    3.35231   3.36480   3.36564   3.37926   3.39075
 Alpha virt. eigenvalues --    3.39310   3.39995   3.41173   3.41868   3.41989
 Alpha virt. eigenvalues --    3.43279   3.44346   3.44955   3.45514   3.46260
 Alpha virt. eigenvalues --    3.46955   3.48202   3.48628   3.49434   3.49901
 Alpha virt. eigenvalues --    3.50927   3.52166   3.53317   3.54246   3.55726
 Alpha virt. eigenvalues --    3.56703   3.57603   3.57728   3.58039   3.59569
 Alpha virt. eigenvalues --    3.60792   3.61336   3.62543   3.62918   3.63578
 Alpha virt. eigenvalues --    3.64080   3.64651   3.66552   3.67655   3.69506
 Alpha virt. eigenvalues --    3.70065   3.71271   3.71865   3.72275   3.73570
 Alpha virt. eigenvalues --    3.74624   3.76270   3.76585   3.78068   3.80043
 Alpha virt. eigenvalues --    3.80758   3.81346   3.82655   3.83196   3.84333
 Alpha virt. eigenvalues --    3.85427   3.85656   3.86454   3.87404   3.87680
 Alpha virt. eigenvalues --    3.89495   3.89718   3.90363   3.91129   3.91758
 Alpha virt. eigenvalues --    3.93134   3.93298   3.94314   3.95031   3.95213
 Alpha virt. eigenvalues --    3.96143   3.96432   3.98053   3.99040   3.99701
 Alpha virt. eigenvalues --    4.00623   4.02366   4.03077   4.03486   4.04544
 Alpha virt. eigenvalues --    4.05914   4.07036   4.07381   4.10466   4.11961
 Alpha virt. eigenvalues --    4.12810   4.15273   4.15721   4.15925   4.18188
 Alpha virt. eigenvalues --    4.20086   4.21362   4.23991   4.24788   4.26572
 Alpha virt. eigenvalues --    4.26671   4.29693   4.30513   4.31753   4.34105
 Alpha virt. eigenvalues --    4.35592   4.36288   4.37613   4.38943   4.41256
 Alpha virt. eigenvalues --    4.41701   4.41849   4.45283   4.45972   4.46578
 Alpha virt. eigenvalues --    4.49628   4.51628   4.52467   4.53499   4.56020
 Alpha virt. eigenvalues --    4.59608   4.61095   4.61995   4.65399   4.67417
 Alpha virt. eigenvalues --    4.71115   4.72297   4.73283   4.74947   4.77963
 Alpha virt. eigenvalues --    4.80044   4.81161   4.81844   4.84093   4.85480
 Alpha virt. eigenvalues --    4.88489   4.89646   4.93854   4.95306   4.95670
 Alpha virt. eigenvalues --    4.98329   5.00705   5.05873   5.09601   5.10550
 Alpha virt. eigenvalues --    5.12743   5.13682   5.14676   5.15952   5.17285
 Alpha virt. eigenvalues --    5.18872   5.20556   5.22279   5.24028   5.26355
 Alpha virt. eigenvalues --    5.28188   5.30378   5.33194   5.34046   5.35751
 Alpha virt. eigenvalues --    5.36556   5.37442   5.38391   5.40866   5.41752
 Alpha virt. eigenvalues --    5.44163   5.45677   5.46733   5.47960   5.48885
 Alpha virt. eigenvalues --    5.49622   5.50774   5.51528   5.52303   5.53177
 Alpha virt. eigenvalues --    5.54019   5.55001   5.56222   5.58676   5.59172
 Alpha virt. eigenvalues --    5.59767   5.61446   5.61791   5.63505   5.64574
 Alpha virt. eigenvalues --    5.66105   5.66517   5.67297   5.69089   5.69940
 Alpha virt. eigenvalues --    5.70493   5.71060   5.71891   5.72564   5.73169
 Alpha virt. eigenvalues --    5.74460   5.74953   5.75143   5.75782   5.76779
 Alpha virt. eigenvalues --    5.77272   5.77742   5.78221   5.78958   5.79234
 Alpha virt. eigenvalues --    5.79607   5.80057   5.80811   5.81657   5.82011
 Alpha virt. eigenvalues --    5.82624   5.83339   5.83871   5.84828   5.85274
 Alpha virt. eigenvalues --    5.87020   5.87388   5.88386   5.89171   5.89222
 Alpha virt. eigenvalues --    5.90163   5.90693   5.91781   5.93348   5.93802
 Alpha virt. eigenvalues --    5.94843   5.95967   5.96748   5.98426   5.99500
 Alpha virt. eigenvalues --    6.00177   6.01265   6.01820   6.01937   6.02536
 Alpha virt. eigenvalues --    6.02819   6.04610   6.04735   6.05690   6.06362
 Alpha virt. eigenvalues --    6.07163   6.08796   6.09432   6.09897   6.11401
 Alpha virt. eigenvalues --    6.11766   6.12418   6.12758   6.13192   6.14214
 Alpha virt. eigenvalues --    6.14346   6.14854   6.15950   6.17042   6.17478
 Alpha virt. eigenvalues --    6.18370   6.18940   6.19621   6.20208   6.21059
 Alpha virt. eigenvalues --    6.21845   6.22988   6.23073   6.24101   6.25242
 Alpha virt. eigenvalues --    6.25346   6.25794   6.27270   6.27562   6.28450
 Alpha virt. eigenvalues --    6.28766   6.30418   6.30652   6.31185   6.31814
 Alpha virt. eigenvalues --    6.32626   6.32985   6.34426   6.34706   6.35804
 Alpha virt. eigenvalues --    6.36549   6.37311   6.37644   6.38408   6.39290
 Alpha virt. eigenvalues --    6.40051   6.40857   6.41867   6.43587   6.44725
 Alpha virt. eigenvalues --    6.45256   6.46384   6.47222   6.47588   6.48855
 Alpha virt. eigenvalues --    6.49914   6.51255   6.51629   6.52844   6.53279
 Alpha virt. eigenvalues --    6.53839   6.54835   6.55664   6.56516   6.56924
 Alpha virt. eigenvalues --    6.58213   6.58768   6.60000   6.60073   6.61376
 Alpha virt. eigenvalues --    6.61898   6.62252   6.63329   6.64836   6.65551
 Alpha virt. eigenvalues --    6.66926   6.68400   6.69006   6.69763   6.70992
 Alpha virt. eigenvalues --    6.71498   6.74436   6.75507   6.76194   6.77313
 Alpha virt. eigenvalues --    6.78054   6.79883   6.80123   6.81296   6.81999
 Alpha virt. eigenvalues --    6.83111   6.84893   6.85736   6.86817   6.87163
 Alpha virt. eigenvalues --    6.88393   6.88814   6.90473   6.91582   6.92759
 Alpha virt. eigenvalues --    6.93041   6.94174   6.95389   6.96158   6.97863
 Alpha virt. eigenvalues --    6.99149   7.00229   7.01193   7.01937   7.02334
 Alpha virt. eigenvalues --    7.03237   7.04353   7.06482   7.06651   7.07528
 Alpha virt. eigenvalues --    7.09901   7.11701   7.13285   7.14334   7.14865
 Alpha virt. eigenvalues --    7.15236   7.17770   7.17997   7.19214   7.20536
 Alpha virt. eigenvalues --    7.21352   7.21821   7.22161   7.23930   7.24872
 Alpha virt. eigenvalues --    7.25477   7.26465   7.26836   7.27309   7.28354
 Alpha virt. eigenvalues --    7.30196   7.30936   7.31194   7.32166   7.32788
 Alpha virt. eigenvalues --    7.34151   7.34524   7.35041   7.35752   7.36761
 Alpha virt. eigenvalues --    7.37008   7.38166   7.39056   7.40312   7.41357
 Alpha virt. eigenvalues --    7.42181   7.42754   7.43357   7.45052   7.46441
 Alpha virt. eigenvalues --    7.46568   7.47415   7.47704   7.48928   7.49462
 Alpha virt. eigenvalues --    7.50315   7.51460   7.52100   7.53090   7.53710
 Alpha virt. eigenvalues --    7.54665   7.55146   7.56183   7.57111   7.57149
 Alpha virt. eigenvalues --    7.58256   7.59173   7.59325   7.60125   7.60700
 Alpha virt. eigenvalues --    7.61021   7.61655   7.61864   7.62742   7.63499
 Alpha virt. eigenvalues --    7.65156   7.66183   7.67388   7.67655   7.68391
 Alpha virt. eigenvalues --    7.70464   7.70516   7.70994   7.72147   7.73088
 Alpha virt. eigenvalues --    7.73421   7.74030   7.74077   7.74726   7.76839
 Alpha virt. eigenvalues --    7.77555   7.78041   7.79312   7.79984   7.80337
 Alpha virt. eigenvalues --    7.81415   7.82258   7.83183   7.83641   7.84366
 Alpha virt. eigenvalues --    7.84876   7.86084   7.86563   7.88460   7.89022
 Alpha virt. eigenvalues --    7.90229   7.90998   7.91502   7.92857   7.93712
 Alpha virt. eigenvalues --    7.94609   7.94981   7.96714   7.97682   7.98594
 Alpha virt. eigenvalues --    7.99331   8.00622   8.02022   8.02347   8.02757
 Alpha virt. eigenvalues --    8.03077   8.04037   8.05141   8.06132   8.07146
 Alpha virt. eigenvalues --    8.08969   8.09411   8.09942   8.11510   8.12265
 Alpha virt. eigenvalues --    8.14008   8.14578   8.15118   8.16046   8.17036
 Alpha virt. eigenvalues --    8.17627   8.18344   8.19216   8.19799   8.21088
 Alpha virt. eigenvalues --    8.21334   8.22336   8.22837   8.23812   8.24374
 Alpha virt. eigenvalues --    8.24765   8.25654   8.26350   8.27453   8.28273
 Alpha virt. eigenvalues --    8.29055   8.29461   8.29603   8.30837   8.31152
 Alpha virt. eigenvalues --    8.31467   8.32115   8.32434   8.33376   8.34190
 Alpha virt. eigenvalues --    8.35248   8.36154   8.37099   8.37946   8.38457
 Alpha virt. eigenvalues --    8.38775   8.40375   8.40746   8.41279   8.42061
 Alpha virt. eigenvalues --    8.42502   8.43283   8.44195   8.45125   8.46330
 Alpha virt. eigenvalues --    8.47097   8.49035   8.49971   8.51688   8.53047
 Alpha virt. eigenvalues --    8.53261   8.53977   8.55583   8.55962   8.58436
 Alpha virt. eigenvalues --    8.59608   8.61122   8.61329   8.61941   8.63712
 Alpha virt. eigenvalues --    8.64634   8.65466   8.66895   8.68657   8.69436
 Alpha virt. eigenvalues --    8.69979   8.70512   8.71549   8.73604   8.73957
 Alpha virt. eigenvalues --    8.74166   8.74679   8.75798   8.77105   8.78617
 Alpha virt. eigenvalues --    8.80018   8.80656   8.80946   8.81948   8.82279
 Alpha virt. eigenvalues --    8.83611   8.83961   8.84762   8.85095   8.86583
 Alpha virt. eigenvalues --    8.87829   8.88087   8.88881   8.89280   8.90008
 Alpha virt. eigenvalues --    8.91111   8.92000   8.92618   8.94238   8.94842
 Alpha virt. eigenvalues --    8.95358   8.96198   8.98791   8.99453   9.00644
 Alpha virt. eigenvalues --    9.01796   9.02934   9.03325   9.05459   9.06537
 Alpha virt. eigenvalues --    9.07898   9.08732   9.12563   9.13380   9.15268
 Alpha virt. eigenvalues --    9.18674   9.21591   9.23715   9.25495   9.27800
 Alpha virt. eigenvalues --    9.30104   9.30531   9.34102   9.36392   9.37098
 Alpha virt. eigenvalues --    9.38845   9.41462   9.42056   9.47102   9.48630
 Alpha virt. eigenvalues --    9.52824   9.55787   9.57242   9.59679   9.59999
 Alpha virt. eigenvalues --    9.60687   9.60974   9.62101   9.63306   9.64056
 Alpha virt. eigenvalues --    9.64584   9.64989   9.66313   9.66531   9.67212
 Alpha virt. eigenvalues --    9.67700   9.67904   9.68779   9.69089   9.70144
 Alpha virt. eigenvalues --    9.72356   9.73604   9.74016   9.74996   9.75759
 Alpha virt. eigenvalues --    9.78625   9.79372   9.79884   9.80984   9.81716
 Alpha virt. eigenvalues --    9.83660   9.84363   9.86185   9.88863   9.90010
 Alpha virt. eigenvalues --    9.91263   9.91621   9.93350   9.93711   9.94262
 Alpha virt. eigenvalues --    9.95065   9.97065   9.97230   9.99569  10.01280
 Alpha virt. eigenvalues --   10.03973  10.05263  10.08234  10.09254  10.09893
 Alpha virt. eigenvalues --   10.13065  10.13891  10.14543  10.18556  10.19511
 Alpha virt. eigenvalues --   10.21248  10.21721  10.22132  10.23913  10.24256
 Alpha virt. eigenvalues --   10.26411  10.28780  10.30168  10.32166  10.33744
 Alpha virt. eigenvalues --   10.37459  10.39530  10.44786  10.46809  10.47535
 Alpha virt. eigenvalues --   10.63451  10.66962  10.70584  10.72449  10.84330
 Alpha virt. eigenvalues --   10.86827  11.03343  11.04519  11.07912  11.13800
 Alpha virt. eigenvalues --   11.28048  11.30609  11.36178  11.38717  11.45373
 Alpha virt. eigenvalues --   11.46688  11.50545  11.56659  11.58146  11.62076
 Alpha virt. eigenvalues --   11.77897  11.82230  11.84072  11.87369  11.88743
 Alpha virt. eigenvalues --   11.92616  11.94385  11.96807  12.01299  12.02781
 Alpha virt. eigenvalues --   12.05162  12.06627  12.09725  12.12341  12.15618
 Alpha virt. eigenvalues --   12.16192  12.22367  12.28313  12.33917  12.38802
 Alpha virt. eigenvalues --   12.41275  12.43045  12.53602  12.94714  12.96936
 Alpha virt. eigenvalues --   13.02496  13.06451  13.10673  13.19309  13.20958
 Alpha virt. eigenvalues --   13.26131  13.27605  13.39551  13.41113  14.24224
 Alpha virt. eigenvalues --   14.28872  14.46082  14.50272  14.88518  14.90445
 Alpha virt. eigenvalues --   28.56184  28.68698  29.12764  29.14161  29.14865
 Alpha virt. eigenvalues --   29.15909  29.24366  29.30553  29.32453  38.21977
 Alpha virt. eigenvalues --   38.27816  48.41376  48.45676 146.00834 146.14949
 Alpha virt. eigenvalues --  146.62785 146.65359 146.66789 146.69241 146.79507
 Alpha virt. eigenvalues --  146.83709 146.89661 195.84684 195.92175 251.54456
 Alpha virt. eigenvalues --  251.59033
          Condensed to atoms (all electrons):
               1          2          3          4          5          6
     1  N    7.382757   0.018280  -0.114385  -0.002890  -0.043850  -0.021055
     2  C    0.018280   6.722722   0.195814  -0.021188  -0.440661  -0.117089
     3  C   -0.114385   0.195814   5.150816   0.507695  -0.439346   0.027606
     4  O   -0.002890  -0.021188   0.507695   8.191135   0.004025  -0.040236
     5  C   -0.043850  -0.440661  -0.439346   0.004025   8.053255  -0.277684
     6  C   -0.021055  -0.117089   0.027606  -0.040236  -0.277684   6.674090
     7  C   -0.014446   0.097142   0.023158   0.006186  -0.320624   0.161744
     8  C   -0.003937  -0.004267  -0.006290   0.005624  -0.281969   0.257005
     9  H    0.177338  -0.040720   0.034262   0.010971   0.012911  -0.012483
    10  H   -0.160658   0.418671  -0.082058  -0.003765  -0.173223   0.019063
    11  H   -0.029463  -0.046223   0.025406  -0.032503   0.221591  -0.059196
    12  H    0.034031  -0.138638   0.029368  -0.005684   0.375373  -0.024239
    13  H   -0.003282   0.009722  -0.010244   0.001965  -0.034752   0.307938
[...]
 Alpha virt. eigenvalues --   11.46688  11.50545  11.56659  11.58146  11.62076
 Alpha virt. eigenvalues --   11.77897  11.82230  11.84072  11.87369  11.88743
 Alpha virt. eigenvalues --   11.92616  11.94385  11.96807  12.01299  12.02781
 Alpha virt. eigenvalues --   12.05162  12.06627  12.09725  12.12341  12.15618
 Alpha virt. eigenvalues --   12.16192  12.22367  12.28313  12.33917  12.38802
 Alpha virt. eigenvalues --   12.41275  12.43045  12.53602  12.94714  12.96936
 Alpha virt. eigenvalues --   13.02496  13.06451  13.10673  13.19309  13.20958
 Alpha virt. eigenvalues --   13.26131  13.27605  13.39551  13.41113  14.24224
 Alpha virt. eigenvalues --   14.28872  14.46082  14.50272  14.88518  14.90445
 Alpha virt. eigenvalues --   28.56184  28.68698  29.12764  29.14161  29.14865
 Alpha virt. eigenvalues --   29.15909  29.24366  29.30553  29.32453  38.21977
 Alpha virt. eigenvalues --   38.27816  48.41376  48.45676 146.00834 146.14949
 Alpha virt. eigenvalues --  146.62785 146.65359 146.66789 146.69241 146.79507
 Alpha virt. eigenvalues --  146.83709 146.89661 195.84684 195.92175 251.54456
 Alpha virt. eigenvalues --  251.59033
          Condensed to atoms (all electrons):
               1          2          3          4          5          6
     1  N    7.382757   0.018280  -0.114385  -0.002890  -0.043850  -0.021055
     2  C    0.018280   6.722722   0.195814  -0.021188  -0.440661  -0.117089
     3  C   -0.114385   0.195814   5.150816   0.507695  -0.439346   0.027606
     4  O   -0.002890  -0.021188   0.507695   8.191135   0.004025  -0.040236
     5  C   -0.043850  -0.440661  -0.439346   0.004025   8.053255  -0.277684
     6  C   -0.021055  -0.117089   0.027606  -0.040236  -0.277684   6.674090
     7  C   -0.014446   0.097142   0.023158   0.006186  -0.320624   0.161744
     8  C   -0.003937  -0.004267  -0.006290   0.005624  -0.281969   0.257005
     9  H    0.177338  -0.040720   0.034262   0.010971   0.012911  -0.012483
    10  H   -0.160658   0.418671  -0.082058  -0.003765  -0.173223   0.019063
    11  H   -0.029463  -0.046223   0.025406  -0.032503   0.221591  -0.059196
    12  H    0.034031  -0.138638   0.029368  -0.005684   0.375373  -0.024239
    13  H   -0.003282   0.009722  -0.010244   0.001965  -0.034752   0.307938
    14  H   -0.001857  -0.015138  -0.000921   0.000014  -0.062066  -0.031124
    15  H   -0.000426  -0.024875   0.004919   0.000332  -0.019314  -0.064405
    16  H   -0.003122   0.001788  -0.005980   0.001748   0.001223  -0.079008
    17  H   -0.001289   0.000290  -0.000636   0.000139  -0.042706  -0.049737
    18  H   -0.000331   0.004593  -0.001375   0.000183  -0.015740  -0.070788
    19  H   -0.000121  -0.001497  -0.000615   0.001284   0.006984  -0.095674
    20  N    0.029414  -0.020075   0.396268  -0.083791   0.030060  -0.012497
    21  H   -0.005419   0.054353   0.003058   0.029207  -0.034200  -0.000019
    22  C    0.005365  -0.075740  -0.261746  -0.026448   0.024421  -0.003423
    23  H   -0.000407  -0.005167  -0.026058  -0.007922   0.002335  -0.000186
    24  H    0.000333  -0.016062  -0.096589  -0.011426   0.004795  -0.000560
    25  H   -0.000255  -0.008907  -0.038917  -0.012211   0.004732  -0.000690
    26  C    0.498007  -0.185206  -0.065841   0.008340   0.093801  -0.011927
    27  O   -0.177219   0.150718  -0.028729  -0.000636  -0.001965   0.005212
    28  C   -0.042320  -0.035400   0.001492  -0.000209   0.017268   0.000449
    29  H   -0.018081  -0.010645   0.000978   0.000033   0.003190  -0.000077
    30  H    0.015174   0.000353  -0.001942   0.000035   0.000838   0.000133
    31  H   -0.014807  -0.011163   0.003442   0.000056   0.001533  -0.000240
               7          8          9         10         11         12
     1  N   -0.014446  -0.003937   0.177338  -0.160658  -0.029463   0.034031
     2  C    0.097142  -0.004267  -0.040720   0.418671  -0.046223  -0.138638
     3  C    0.023158  -0.006290   0.034262  -0.082058   0.025406   0.029368
     4  O    0.006186   0.005624   0.010971  -0.003765  -0.032503  -0.005684
     5  C   -0.320624  -0.281969   0.012911  -0.173223   0.221591   0.375373
     6  C    0.161744   0.257005  -0.012483   0.019063  -0.059196  -0.024239
     7  C    6.318182  -0.134762   0.005704  -0.021511   0.021581  -0.016718
     8  C   -0.134762   6.090027  -0.004867   0.001563  -0.018224   0.011356
     9  H    0.005704  -0.004867   0.689389  -0.007686   0.037532  -0.009900
    10  H   -0.021511   0.001563  -0.007686   0.695534   0.014704  -0.021260
    11  H    0.021581  -0.018224   0.037532   0.014704   0.485005  -0.023375
    12  H   -0.016718   0.011356  -0.009900  -0.021260  -0.023375   0.451268
    13  H   -0.038722  -0.055518   0.002715   0.008650   0.004564   0.003648
    14  H    0.248591   0.011203   0.000602   0.010398   0.000928  -0.001034
    15  H    0.344161  -0.005653   0.000258   0.008198   0.001018   0.001811
    16  H    0.340285   0.020272   0.001246  -0.027616  -0.000334  -0.000468
    17  H   -0.007228   0.333663   0.000390   0.000923   0.000175  -0.005126
    18  H   -0.021017   0.378081  -0.000123   0.000852   0.000727  -0.000990
    19  H   -0.000224   0.362434  -0.000760  -0.001468  -0.011335   0.004811
    20  N    0.000376  -0.000577  -0.012833  -0.002103  -0.007823   0.000044
    21  H   -0.002968  -0.000825  -0.001537   0.006840   0.003293   0.000609
    22  C   -0.001136   0.000453   0.004078  -0.011908  -0.002481  -0.000323
    23  H    0.000001   0.000030   0.000392  -0.001523  -0.000104  -0.000002
    24  H   -0.000047   0.000033   0.000939  -0.003194  -0.000098   0.000051
    25  H    0.000013   0.000027   0.000536  -0.000550   0.000098  -0.000053
    26  C   -0.008919   0.001406  -0.124805  -0.027220  -0.015074   0.000029
    27  O    0.000554  -0.000218   0.056062  -0.015831   0.001363   0.000166
    28  C    0.000028   0.000238   0.055019  -0.013498  -0.000016  -0.000423
    29  H   -0.000019   0.000033  -0.015914  -0.001839  -0.000369  -0.000611
    30  H   -0.000081   0.000020   0.000052  -0.000128  -0.000373   0.000101
    31  H    0.000033   0.000022  -0.011704  -0.000130  -0.000499  -0.000316
              13         14         15         16         17         18
     1  N   -0.003282  -0.001857  -0.000426  -0.003122  -0.001289  -0.000331
     2  C    0.009722  -0.015138  -0.024875   0.001788   0.000290   0.004593
     3  C   -0.010244  -0.000921   0.004919  -0.005980  -0.000636  -0.001375
     4  O    0.001965   0.000014   0.000332   0.001748   0.000139   0.000183
     5  C   -0.034752  -0.062066  -0.019314   0.001223  -0.042706  -0.015740
     6  C    0.307938  -0.031124  -0.064405  -0.079008  -0.049737  -0.070788
     7  C   -0.038722   0.248591   0.344161   0.340285  -0.007228  -0.021017
     8  C   -0.055518   0.011203  -0.005653   0.020272   0.333663   0.378081
     9  H    0.002715   0.000602   0.000258   0.001246   0.000390  -0.000123
    10  H    0.008650   0.010398   0.008198  -0.027616   0.000923   0.000852
    11  H    0.004564   0.000928   0.001018  -0.000334   0.000175   0.000727
    12  H    0.003648  -0.001034   0.001811  -0.000468  -0.005126  -0.000990
    13  H    0.400510   0.004010   0.000734   0.002622  -0.003396   0.002155
    14  H    0.004010   0.422323   0.013195   0.002978  -0.001249   0.000924
    15  H    0.000734   0.013195   0.452872  -0.031464   0.001183  -0.011168
    16  H    0.002622   0.002978  -0.031464   0.439824   0.002672   0.002136
    17  H   -0.003396  -0.001249   0.001183   0.002672   0.463211  -0.004387
    18  H    0.002155   0.000924  -0.011168   0.002136  -0.004387   0.446015
    19  H    0.007335   0.001625   0.000458   0.001318  -0.007285  -0.008561
    20  N   -0.002149  -0.001654  -0.002175  -0.005400  -0.000063   0.000011
    21  H   -0.000083  -0.000568   0.000025  -0.000329  -0.000024  -0.000049
    22  C    0.000200   0.000535   0.000476   0.003146   0.000029   0.000047
    23  H   -0.000154   0.000040   0.000031   0.000444   0.000001   0.000002
    24  H   -0.000396   0.000077   0.000143   0.001154   0.000002   0.000003
    25  H   -0.000127   0.000022   0.000036   0.000124   0.000001   0.000002
    26  C    0.000669   0.000282   0.000036  -0.005091  -0.000032  -0.000032
    27  O    0.000452   0.000047   0.000097   0.002846   0.000010  -0.000016
    28  C    0.000107   0.000141   0.000023  -0.000209   0.000013   0.000006
    29  H    0.000004   0.000017   0.000002  -0.000040  -0.000000   0.000001
    30  H   -0.000009   0.000001  -0.000000  -0.000017  -0.000000   0.000000
    31  H    0.000002   0.000003   0.000000  -0.000035  -0.000000   0.000000
              19         20         21         22         23         24
     1  N   -0.000121   0.029414  -0.005419   0.005365  -0.000407   0.000333
     2  C   -0.001497  -0.020075   0.054353  -0.075740  -0.005167  -0.016062
     3  C   -0.000615   0.396268   0.003058  -0.261746  -0.026058  -0.096589
     4  O    0.001284  -0.083791   0.029207  -0.026448  -0.007922  -0.011426
     5  C    0.006984   0.030060  -0.034200   0.024421   0.002335   0.004795
     6  C   -0.095674  -0.012497  -0.000019  -0.003423  -0.000186  -0.000560
     7  C   -0.000224   0.000376  -0.002968  -0.001136   0.000001  -0.000047
     8  C    0.362434  -0.000577  -0.000825   0.000453   0.000030   0.000033
     9  H   -0.000760  -0.012833  -0.001537   0.004078   0.000392   0.000939
    10  H   -0.001468  -0.002103   0.006840  -0.011908  -0.001523  -0.003194
    11  H   -0.011335  -0.007823   0.003293  -0.002481  -0.000104  -0.000098
    12  H    0.004811   0.000044   0.000609  -0.000323  -0.000002   0.000051
    13  H    0.007335  -0.002149  -0.000083   0.000200  -0.000154  -0.000396
    14  H    0.001625  -0.001654  -0.000568   0.000535   0.000040   0.000077
    15  H    0.000458  -0.002175   0.000025   0.000476   0.000031   0.000143
    16  H    0.001318  -0.005400  -0.000329   0.003146   0.000444   0.001154
    17  H   -0.007285  -0.000063  -0.000024   0.000029   0.000001   0.000002
    18  H   -0.008561   0.000011  -0.000049   0.000047   0.000002   0.000003
    19  H    0.470606   0.000019  -0.000078   0.000044   0.000001  -0.000000
    20  N    0.000019   6.796107   0.194715   0.224159  -0.075662  -0.065666
    21  H   -0.000078   0.194715   0.582725  -0.164226  -0.029426  -0.024727
    22  C    0.000044   0.224159  -0.164226   5.740277   0.415116   0.443455
    23  H    0.000001  -0.075662  -0.029426   0.415116   0.478324   0.026845
    24  H   -0.000000  -0.065666  -0.024727   0.443455   0.026845   0.541526
    25  H    0.000004  -0.026708  -0.018561   0.419987  -0.001061   0.015688
    26  C    0.000127   0.023771  -0.026220   0.005124   0.000533  -0.001085
    27  O   -0.000035  -0.020417   0.043558  -0.001981  -0.000623   0.000460
    28  C    0.000008  -0.003307  -0.021699   0.000864   0.000152  -0.000056
    29  H    0.000001  -0.000450  -0.001414   0.000201   0.000021   0.000000
    30  H    0.000003   0.000215   0.000035  -0.000216  -0.000011  -0.000019
    31  H    0.000001  -0.000686  -0.004054   0.000293   0.000061  -0.000057
              25         26         27         28         29         30
     1  N   -0.000255   0.498007  -0.177219  -0.042320  -0.018081   0.015174
     2  C   -0.008907  -0.185206   0.150718  -0.035400  -0.010645   0.000353
     3  C   -0.038917  -0.065841  -0.028729   0.001492   0.000978  -0.001942
     4  O   -0.012211   0.008340  -0.000636  -0.000209   0.000033   0.000035
     5  C    0.004732   0.093801  -0.001965   0.017268   0.003190   0.000838
     6  C   -0.000690  -0.011927   0.005212   0.000449  -0.000077   0.000133
     7  C    0.000013  -0.008919   0.000554   0.000028  -0.000019  -0.000081
     8  C    0.000027   0.001406  -0.000218   0.000238   0.000033   0.000020
     9  H    0.000536  -0.124805   0.056062   0.055019  -0.015914   0.000052
    10  H   -0.000550  -0.027220  -0.015831  -0.013498  -0.001839  -0.000128
    11  H    0.000098  -0.015074   0.001363  -0.000016  -0.000369  -0.000373
    12  H   -0.000053   0.000029   0.000166  -0.000423  -0.000611   0.000101
    13  H   -0.000127   0.000669   0.000452   0.000107   0.000004  -0.000009
    14  H    0.000022   0.000282   0.000047   0.000141   0.000017   0.000001
    15  H    0.000036   0.000036   0.000097   0.000023   0.000002  -0.000000
    16  H    0.000124  -0.005091   0.002846  -0.000209  -0.000040  -0.000017
    17  H    0.000001  -0.000032   0.000010   0.000013  -0.000000  -0.000000
    18  H    0.000002  -0.000032  -0.000016   0.000006   0.000001   0.000000
    19  H    0.000004   0.000127  -0.000035   0.000008   0.000001   0.000003
    20  N   -0.026708   0.023771  -0.020417  -0.003307  -0.000450   0.000215
    21  H   -0.018561  -0.026220   0.043558  -0.021699  -0.001414   0.000035
    22  C    0.419987   0.005124  -0.001981   0.000864   0.000201  -0.000216
    23  H   -0.001061   0.000533  -0.000623   0.000152   0.000021  -0.000011
    24  H    0.015688  -0.001085   0.000460  -0.000056   0.000000  -0.000019
    25  H    0.420886   0.001624  -0.001138   0.001142   0.000097   0.000008
    26  C    0.001624   4.504970   0.538637   0.255571  -0.044372  -0.046567
    27  O   -0.001138   0.538637   8.116349  -0.077284  -0.017653  -0.006149
    28  C    0.001142   0.255571  -0.077284   5.903298   0.292061   0.365272
    29  H    0.000097  -0.044372  -0.017653   0.292061   0.468771  -0.026541
    30  H    0.000008  -0.046567  -0.006149   0.365272  -0.026541   0.471090
    31  H    0.000151  -0.049686  -0.016765   0.273415   0.008110  -0.033407
              31
     1  N   -0.014807
     2  C   -0.011163
     3  C    0.003442
     4  O    0.000056
     5  C    0.001533
     6  C   -0.000240
     7  C    0.000033
     8  C    0.000022
     9  H   -0.011704
    10  H   -0.000130
    11  H   -0.000499
    12  H   -0.000316
    13  H    0.000002
    14  H    0.000003
    15  H    0.000000
    16  H   -0.000035
    17  H   -0.000000
    18  H    0.000000
    19  H    0.000001
    20  N   -0.000686
    21  H   -0.004054
    22  C    0.000293
    23  H    0.000061
    24  H   -0.000057
    25  H    0.000151
    26  C   -0.049686
    27  O   -0.016765
    28  C    0.273415
    29  H    0.008110
    30  H   -0.033407
    31  H    0.486335
 Mulliken charges:
               1
     1  N   -0.501079
     2  C   -0.455785
     3  C    0.777388
     4  O   -0.520064
     5  C   -0.670237
     6  C   -0.480904
     7  C   -0.979320
     8  C   -0.956384
     9  H    0.152934
    10  H    0.391772
    11  H    0.429503
    12  H    0.336497
    13  H    0.390832
    14  H    0.397653
    15  H    0.329473
    16  H    0.333286
    17  H    0.320457
    18  H    0.298838
    19  H    0.270590
    20  N   -0.351123
    21  H    0.418006
    22  C   -0.738646
    23  H    0.223977
    24  H    0.184478
    25  H    0.244000
    26  C    0.679148
    27  O   -0.549871
    28  C   -0.972144
    29  H    0.364504
    30  H    0.262128
    31  H    0.370091
 Sum of Mulliken charges =  -0.00000
 Mulliken charges with hydrogens summed into heavy atoms:
               1
     1  N   -0.348145
     2  C   -0.064013
     3  C    0.777388
     4  O   -0.520064
     5  C    0.095764
     6  C   -0.090072
     7  C    0.081092
     8  C   -0.066499
    20  N    0.066883
    22  C   -0.086190
    26  C    0.679148
    27  O   -0.549871
    28  C    0.024579
 Electronic spatial extent (au):  <R**2>=           3042.3926
 Charge=              0.0000 electrons
 Dipole moment (field-independent basis, Debye):
    X=             -1.0332    Y=             -2.0898    Z=             -0.4901  Tot=              2.3822
 Quadrupole moment (field-independent basis, Debye-Ang):
   XX=            -78.6383   YY=            -75.4979   ZZ=            -86.5647
   XY=             -0.2413   XZ=              7.6979   YZ=              7.7315
 Traceless Quadrupole moment (field-independent basis, Debye-Ang):
   XX=              1.5953   YY=              4.7357   ZZ=             -6.3310
   XY=             -0.2413   XZ=              7.6979   YZ=              7.7315
 Octapole moment (field-independent basis, Debye-Ang**2):
  XXX=            -20.3124  YYY=              8.6364  ZZZ=             -3.6284  XYY=            -27.5758
  XXY=             -2.1286  XXZ=            -16.2315  XZZ=             -1.9961  YZZ=             -7.0920
  YYZ=              4.9173  XYZ=             -4.8422
 Hexadecapole moment (field-independent basis, Debye-Ang**3):
 XXXX=          -2438.1560 YYYY=          -1128.5360 ZZZZ=           -447.7906 XXXY=             60.7489
 XXXZ=             46.0513 YYYX=              4.4458 YYYZ=              8.4083 ZZZX=             -0.2642
 ZZZY=             21.7785 XXYY=           -570.0867 XXZZ=           -507.0765 YYZZ=           -274.3671
 XXYZ=             11.6007 YYXZ=             -0.0206 ZZXY=             -5.0134
 N-N= 8.672129469338D+02 E-N=-3.165396471198D+03  KE= 6.112667833235D+02
 PrsmSu:  requested number of processors reduced to:  16 ShMem   1 Linda.
 No NMR shielding tensors so no spin-rotation constants.
 Leave Link  601 at Mon Apr 19 01:54:48 2021, MaxMem=   104857600 cpu:            1582.0 elap:              34.7
 (Enter /s/ls4/users/knvvv/bin/g16sse/l9999.exe)

 Test job not archived.
 1\1\GINC-N154\Stability\RM062X\Gen\C9H18N2O2\KNVVV\19-Apr-2021\0\\#P M
 062X/GEN Integral=UltraFineGrid SCF=NoSymm Stable=(RExt, Opt) IOp(1/33
 =1)\\Database calculations.\\0,1\N,0,-1.0311999519,-1.1176741688,-0.51
 87497761\C,0,0.0854797645,-0.3533296427,0.0207214275\C,0,-0.112575716,
 1.1249621726,-0.3307101811\O,0,0.4269694693,1.650906575,-1.2995611543\
 C,0,1.3935883934,-0.8915667613,-0.5266287025\C,0,2.6389615366,-0.19900
 41457,0.0258548262\C,0,2.6874821492,-0.2415621108,1.5497936733\C,0,3.8
 82376685,-0.855043447,-0.5629830937\H,0,-0.9501430505,-1.4900393255,-1
 .4500210076\H,0,0.0343011817,-0.4747971675,1.1018761963\H,0,1.38444472
 1,-0.7810646792,-1.6136943021\H,0,1.4439398839,-1.9597521409,-0.294678
 1047\H,0,2.6098376309,0.8421629939,-0.2984253262\H,0,2.616955365,-1.27
 10616698,1.907950881\H,0,3.6278083788,0.1728673482,1.9125756534\H,0,1.
 8806836622,0.3321855627,2.0043922529\H,0,3.9500102785,-1.8974011027,-0
 .2452850002\H,0,4.7874136791,-0.345936155,-0.2331715837\H,0,3.86075755
 38,-0.8349301667,-1.6524252071\N,0,-0.9511618306,1.7689206349,0.513908
 0248\H,0,-1.5051193983,1.1810093729,1.1247189449\C,0,-1.3799182371,3.1
 220629435,0.2285629705\H,0,-1.7620272654,3.5753052396,1.1384288226\H,0
 ,-0.5265419305,3.6901860631,-0.1290481934\H,0,-2.1533214148,3.15275783
 28,-0.5397992135\C,0,-2.2154339831,-1.2100709237,0.1349483993\O,0,-2.4
 111765966,-0.6654304739,1.22172672\C,0,-3.2787473839,-2.0361083436,-0.
 5427272504\H,0,-3.5825024063,-2.8288172741,0.1365735855\H,0,-2.9499302
 997,-2.4735094194,-1.4819362571\H,0,-4.1457968682,-1.404881621,-0.7223
 630245\\Version=ES64L-G16RevA.03\State=1-A\HF=-613.8218545\RMSD=4.985e
 -09\Dipole=-0.404029,-0.8118582,-0.2367331\Quadrupole=1.2702714,2.8319
 695,-4.1022409,-0.4716088,5.6350936,6.2129173\PG=C01 [X(C9H18N2O2)]\\@


 LORD, MAN... WERE YE BUT WHYLES WHERE I AM, 
 THE GENTILES YE WAD NE'ER ENVY 'EM.        
 IT'S TRUE, THEY NEEDNA STARVE OR SWEAT,     
 THRO' WINTER'S CAULD OR SIMMER'S HEAT...  
 THEY'VE NAE SAIR WARK TO CRAZE THEIR BANES, 
 AND FILL AULD AGE WITH GRIPS AN' GRANES...  
                                             
 BUT HUMAN BODIES ARE SIC FOOLS              
 FOR A' THEIR COLLEGES AND SCHOOLS,           
 THAT WHEN NAE REAL ILLS PERPLEX THEM,       
 THEY MAK ENOW THEMSELVES TO VEX THEM,       
 AN' AYE THE LESS THEY HAE TO STURT THEM,    
 IN LIKE PROPORTION LESS WILL HURT THEM....  
                                             
                (ROBERT BURNS 'THE TWA DOGS')
 Job cpu time:      14 days  3 hours 19 minutes 55.6 seconds.
 Elapsed time:       1 days  0 hours 47 minutes  7.5 seconds.
 File lengths (MBytes):  RWF=   3372 Int=      0 D2E=      0 Chk=    220 Scr=      1
 Normal termination of Gaussian 16 at Mon Apr 19 01:54:49 2021.
