 Entering Gaussian System, Link 0=/s/ls4/users/knvvv/bin/g16sse/g16
 Input=data/database/M062X--def2-QZVPPD--168_f2co_W4-11.gjf
 Output=data/database/M062X--def2-QZVPPD--168_f2co_W4-11.log
 Initial command:
 /s/ls4/users/knvvv/bin/g16sse/l1.exe "/s/ls4/users/knvvv/bin/scratch/Gau-48066.inp" -scrdir="/s/ls4/users/knvvv/bin/scratch/"
 Entering Link 1 = /s/ls4/users/knvvv/bin/g16sse/l1.exe PID=     48067.
  
 Copyright (c) 1988,1990,1992,1993,1995,1998,2003,2009,2016,
            Gaussian, Inc.  All Rights Reserved.
  
 This is part of the Gaussian(R) 16 program.  It is based on
 the Gaussian(R) 09 system (copyright 2009, Gaussian, Inc.),
 the Gaussian(R) 03 system (copyright 2003, Gaussian, Inc.),
 the Gaussian(R) 98 system (copyright 1998, Gaussian, Inc.),
 the Gaussian(R) 94 system (copyright 1995, Gaussian, Inc.),
 the Gaussian 92(TM) system (copyright 1992, Gaussian, Inc.),
 the Gaussian 90(TM) system (copyright 1990, Gaussian, Inc.),
 the Gaussian 88(TM) system (copyright 1988, Gaussian, Inc.),
 the Gaussian 86(TM) system (copyright 1986, Carnegie Mellon
 University), and the Gaussian 82(TM) system (copyright 1983,
 Carnegie Mellon University). Gaussian is a federally registered
 trademark of Gaussian, Inc.
  
 This software contains proprietary and confidential information,
 including trade secrets, belonging to Gaussian, Inc.
  
 This software is provided under written license and may be
 used, copied, transmitted, or stored only in accord with that
 written license.
  
 The following legend is applicable only to US Government
 contracts under FAR:
  
                    RESTRICTED RIGHTS LEGEND
  
 Use, reproduction and disclosure by the US Government is
 subject to restrictions as set forth in subparagraphs (a)
 and (c) of the Commercial Computer Software - Restricted
 Rights clause in FAR 52.227-19.
  
 Gaussian, Inc.
 340 Quinnipiac St., Bldg. 40, Wallingford CT 06492
  
  
 ---------------------------------------------------------------
 Warning -- This program may not be used in any manner that
 competes with the business of Gaussian, Inc. or will provide
 assistance to any competitor of Gaussian, Inc.  The licensee
 of this program is prohibited from giving any competitor of
 Gaussian, Inc. access to this program.  By using this program,
 the user acknowledges that Gaussian, Inc. is engaged in the
 business of creating and licensing software in the field of
 computational chemistry and represents and warrants to the
 licensee that it is not a competitor of Gaussian, Inc. and that
 it will not use this program in any manner prohibited above.
 ---------------------------------------------------------------
  

 Cite this work as:
 Gaussian 16, Revision A.03,
 M. J. Frisch, G. W. Trucks, H. B. Schlegel, G. E. Scuseria, 
 M. A. Robb, J. R. Cheeseman, G. Scalmani, V. Barone, 
 G. A. Petersson, H. Nakatsuji, X. Li, M. Caricato, A. V. Marenich, 
 J. Bloino, B. G. Janesko, R. Gomperts, B. Mennucci, H. P. Hratchian, 
 J. V. Ortiz, A. F. Izmaylov, J. L. Sonnenberg, D. Williams-Young, 
 F. Ding, F. Lipparini, F. Egidi, J. Goings, B. Peng, A. Petrone, 
 T. Henderson, D. Ranasinghe, V. G. Zakrzewski, J. Gao, N. Rega, 
 G. Zheng, W. Liang, M. Hada, M. Ehara, K. Toyota, R. Fukuda, 
 J. Hasegawa, M. Ishida, T. Nakajima, Y. Honda, O. Kitao, H. Nakai, 
 T. Vreven, K. Throssell, J. A. Montgomery, Jr., J. E. Peralta, 
 F. Ogliaro, M. J. Bearpark, J. J. Heyd, E. N. Brothers, K. N. Kudin, 
 V. N. Staroverov, T. A. Keith, R. Kobayashi, J. Normand, 
 K. Raghavachari, A. P. Rendell, J. C. Burant, S. S. Iyengar, 
 J. Tomasi, M. Cossi, J. M. Millam, M. Klene, C. Adamo, R. Cammi, 
 J. W. Ochterski, R. L. Martin, K. Morokuma, O. Farkas, 
 J. B. Foresman, and D. J. Fox, Gaussian, Inc., Wallingford CT, 2016.
 
 ******************************************
 Gaussian 16:  ES64L-G16RevA.03 25-Dec-2016
                17-Apr-2021 
 ******************************************
 %RWF=temp18_76702,70GB
 %nprocshared=48
 Will use up to   48 processors via shared memory.
 Default route: MaxDisk=80GB
 ----------------------------------------------------------------------
 #P M062X/GEN Integral=UltraFineGrid SCF=NoSymm Stable=(RExt, Opt) IOp(
 1/33=1)
 ----------------------------------------------------------------------
 1/33=1,38=1,172=1/1;
 2/12=2,17=6,18=5,40=1/2;
 3/5=7,11=2,25=1,30=1,74=-55,75=-5/1,2,3;
 4/9=2/1;
 5/5=2,38=5/2;
 6/7=2,8=2,9=2,10=2,28=1/1;
 8/6=1,10=90,11=11/1;
 9/8=-3,42=1,46=1/14;
 5/5=2,8=3,17=40,38=5/8(-2);
 6/7=2,8=2,9=2,10=2,28=1/1;
 99/5=1,9=1/99;
 Leave Link    1 at Sat Apr 17 09:11:17 2021, MaxMem=           0 cpu:              11.1 elap:               0.2
 (Enter /s/ls4/users/knvvv/bin/g16sse/l101.exe)
 ONIOM data not found on unit 2.
 ----------------------
 Database calculations.
 ----------------------
 TstMul:  ICh=     0
 TstMul:  Mul=     1
 TstMul:  ICh=     0
 TstMul:  Mul=     1
 Symbolic Z-matrix:
 Charge =  0 Multiplicity = 1
 O                     0.        0.        0. 
 C                     0.        0.        1.17144 
 F                     1.05866   0.        1.94233 
 F                    -1.05866   0.        1.94233 
 
 RdStrC is calling ZToCFu for IStruc=1 NZ=     4.
 PrtBox:  NBox=     1 Levels=  1 BoxLen=    8.00 SMaxX=        4.00
          Shift=            2.000582            0.000000            0.000000
 Box      1 Number                   0 centers from      1 to      4:
 After GenITR:
 ITRead=  0  0  0  0
 MicOpt= -1 -1 -1 -1
 ITRead=  0  0  0  0
 MicOpt= -1 -1 -1 -1
 NAtoms=      4 NQM=        4 NQMF=       0 NMMI=      0 NMMIF=      0
                NMic=       0 NMicF=      0.
                    Isotopes and Nuclear Properties:
 (Nuclear quadrupole moments (NQMom) in fm**2, nuclear magnetic moments (NMagM)
  in nuclear magnetons)

  Atom         1           2           3           4
 IAtWgt=          16          12          19          19
 AtmWgt=  15.9949146  12.0000000  18.9984033  18.9984033
 NucSpn=           0           0           1           1
 AtZEff=  -0.0000000  -0.0000000  -0.0000000  -0.0000000
 NQMom=    0.0000000   0.0000000   0.0000000   0.0000000
 NMagM=    0.0000000   0.0000000   2.6288670   2.6288670
 AtZNuc=   8.0000000   6.0000000   9.0000000   9.0000000
 No MM parameters found.
 Leave Link  101 at Sat Apr 17 09:11:18 2021, MaxMem=   104857600 cpu:               6.4 elap:               0.2
 (Enter /s/ls4/users/knvvv/bin/g16sse/l202.exe)
                          Input orientation:                          
 ---------------------------------------------------------------------
 Center     Atomic      Atomic             Coordinates (Angstroms)
 Number     Number       Type             X           Y           Z
 ---------------------------------------------------------------------
      1          8           0        0.000000    0.000000    0.000000
      2          6           0        0.000000    0.000000    1.171437
      3          9           0        1.058663    0.000000    1.942333
      4          9           0       -1.058663    0.000000    1.942333
 ---------------------------------------------------------------------
                    Distance matrix (angstroms):
                    1          2          3          4
     1  O    0.000000
     2  C    1.171437   0.000000
     3  F    2.212108   1.309598   0.000000
     4  F    2.212108   1.309598   2.117325   0.000000
 Stoichiometry    CF2O
 Framework group  C2V[C2(CO),SGV(F2)]
 Deg. of freedom     3
 Full point group                 C2V     NOp   4
 Largest Abelian subgroup         C2V     NOp   4
 Largest concise Abelian subgroup C2      NOp   2
                         Standard orientation:                         
 ---------------------------------------------------------------------
 Center     Atomic      Atomic             Coordinates (Angstroms)
 Number     Number       Type             X           Y           Z
 ---------------------------------------------------------------------
      1          8           0       -0.000000   -0.000000    1.312207
      2          6           0       -0.000000   -0.000000    0.140770
      3          9           0        0.000000    1.058663   -0.630126
      4          9           0       -0.000000   -1.058663   -0.630126
 ---------------------------------------------------------------------
 Rotational constants (GHZ):          11.8673834          11.7963595           5.9158824
 Leave Link  202 at Sat Apr 17 09:11:18 2021, MaxMem=   104857600 cpu:               6.4 elap:               0.2
 (Enter /s/ls4/users/knvvv/bin/g16sse/l301.exe)
 General basis read from cards:  (5D, 7F)
 Centers:       2
 S 8 1.00
     Exponent=  6.7025071029D+04 Coefficients=  3.8736308501D-05
     Exponent=  1.0039986538D+04 Coefficients=  3.0107917575D-04
     Exponent=  2.2849316911D+03 Coefficients=  1.5787918095D-03
     Exponent=  6.4714122130D+02 Coefficients=  6.6087087195D-03
     Exponent=  2.1109472335D+02 Coefficients=  2.3367123250D-02
     Exponent=  7.6177643862D+01 Coefficients=  7.0420716898D-02
     Exponent=  2.9633839163D+01 Coefficients=  1.7360344953D-01
     Exponent=  1.2187785081D+01 Coefficients=  3.2292305648D-01
 S 2 1.00
     Exponent=  5.3026006299D+01 Coefficients=  7.4897404492D-02
     Exponent=  1.5258502776D+01 Coefficients=  7.6136220983D-01
 S 1 1.00
     Exponent=  5.2403957464D+00 Coefficients=  1.0000000000D+00
 S 1 1.00
     Exponent=  2.2905022379D+00 Coefficients=  1.0000000000D+00
 S 1 1.00
     Exponent=  6.9673283006D-01 Coefficients=  1.0000000000D+00
 S 1 1.00
     Exponent=  2.7599337363D-01 Coefficients=  1.0000000000D+00
 S 1 1.00
     Exponent=  1.0739884389D-01 Coefficients=  1.0000000000D+00
 S 1 1.00
     Exponent=  4.4981404899D-02 Coefficients=  1.0000000000D+00
 P 5 1.00
     Exponent=  1.0512555082D+02 Coefficients=  8.4647553844D-04
     Exponent=  2.4884461066D+01 Coefficients=  6.6274038534D-03
     Exponent=  7.8637230826D+00 Coefficients=  3.0120390419D-02
     Exponent=  2.8407001835D+00 Coefficients=  9.9951435476D-02
     Exponent=  1.1227137335D+00 Coefficients=  2.3826299282D-01
 P 1 1.00
     Exponent=  4.6050725555D-01 Coefficients=  1.0000000000D+00
 P 1 1.00
     Exponent=  1.8937530913D-01 Coefficients=  1.0000000000D+00
 P 1 1.00
     Exponent=  7.5983791611D-02 Coefficients=  1.0000000000D+00
 D 1 1.00
     Exponent=  1.8480000000D+00 Coefficients=  1.0000000000D+00
 D 1 1.00
     Exponent=  6.4900000000D-01 Coefficients=  1.0000000000D+00
 D 1 1.00
     Exponent=  2.2800000000D-01 Coefficients=  1.0000000000D+00
 D 1 1.00
     Exponent=  7.6889830417D-02 Coefficients=  1.0000000000D+00
 F 1 1.00
     Exponent=  1.4190000000D+00 Coefficients=  1.0000000000D+00
 F 1 1.00
     Exponent=  4.8500000000D-01 Coefficients=  1.0000000000D+00
 G 1 1.00
     Exponent=  1.0110000000D+00 Coefficients=  1.0000000000D+00
 ****
 Centers:       1
 S 8 1.00
     Exponent=  1.1650646908D+05 Coefficients=  4.0383857939D-05
     Exponent=  1.7504349724D+04 Coefficients=  3.1255139004D-04
     Exponent=  3.9934513230D+03 Coefficients=  1.6341473495D-03
     Exponent=  1.1330063186D+03 Coefficients=  6.8283224757D-03
     Exponent=  3.6999569594D+02 Coefficients=  2.4124410221D-02
     Exponent=  1.3362074349D+02 Coefficients=  7.2730206154D-02
     Exponent=  5.2035643649D+01 Coefficients=  1.7934429892D-01
     Exponent=  2.1461939313D+01 Coefficients=  3.3059588895D-01
 S 2 1.00
     Exponent=  8.9835051252D+01 Coefficients=  9.6468652996D-02
     Exponent=  2.6428010844D+01 Coefficients=  9.4117481120D-01
 S 1 1.00
     Exponent=  9.2822824649D+00 Coefficients=  1.0000000000D+00
 S 1 1.00
     Exponent=  4.0947728533D+00 Coefficients=  1.0000000000D+00
 S 1 1.00
     Exponent=  1.3255349078D+00 Coefficients=  1.0000000000D+00
 S 1 1.00
     Exponent=  5.1877230787D-01 Coefficients=  1.0000000000D+00
 S 1 1.00
     Exponent=  1.9772676454D-01 Coefficients=  1.0000000000D+00
 S 1 1.00
     Exponent=  6.9638535104D-02 Coefficients=  1.0000000000D+00
 P 5 1.00
     Exponent=  1.9115255810D+02 Coefficients=  2.5115697705D-03
     Exponent=  4.5233356739D+01 Coefficients=  2.0039240864D-02
     Exponent=  1.4353465922D+01 Coefficients=  9.3609064762D-02
     Exponent=  5.2422371832D+00 Coefficients=  3.0618127124D-01
     Exponent=  2.0792418599D+00 Coefficients=  6.7810501439D-01
 P 1 1.00
     Exponent=  8.4282371424D-01 Coefficients=  1.0000000000D+00
 P 1 1.00
     Exponent=  3.3617694891D-01 Coefficients=  1.0000000000D+00
 P 1 1.00
     Exponent=  1.2863997974D-01 Coefficients=  1.0000000000D+00
 P 1 1.00
     Exponent=  4.3598162776D-02 Coefficients=  1.0000000000D+00
 D 1 1.00
     Exponent=  3.7750000000D+00 Coefficients=  1.0000000000D+00
 D 1 1.00
     Exponent=  1.3000000000D+00 Coefficients=  1.0000000000D+00
 D 1 1.00
     Exponent=  4.4400000000D-01 Coefficients=  1.0000000000D+00
 D 1 1.00
     Exponent=  1.2546378695D-01 Coefficients=  1.0000000000D+00
 F 1 1.00
     Exponent=  2.6660000000D+00 Coefficients=  1.0000000000D+00
 F 1 1.00
     Exponent=  8.5900000000D-01 Coefficients=  1.0000000000D+00
 G 1 1.00
     Exponent=  1.8460000000D+00 Coefficients=  1.0000000000D+00
 ****
 Centers:       3      4
 S 8 1.00
     Exponent=  1.3253597345D+05 Coefficients=  4.7387482743D-05
     Exponent=  1.9758112588D+04 Coefficients=  3.7070120897D-04
     Exponent=  4.4851996947D+03 Coefficients=  1.9450784713D-03
     Exponent=  1.2738151020D+03 Coefficients=  8.0573291994D-03
     Exponent=  4.1893831236D+02 Coefficients=  2.7992880781D-02
     Exponent=  1.5255721985D+02 Coefficients=  8.2735120175D-02
     Exponent=  5.9821524823D+01 Coefficients=  1.9854169012D-01
     Exponent=  2.4819076932D+01 Coefficients=  3.4860632233D-01
 S 2 1.00
     Exponent=  1.0074446673D+02 Coefficients=  1.0505068816D-01
     Exponent=  3.0103728290D+01 Coefficients=  9.4068472434D-01
 S 1 1.00
     Exponent=  1.0814283272D+01 Coefficients=  1.0000000000D+00
 S 1 1.00
     Exponent=  4.8172886770D+00 Coefficients=  1.0000000000D+00
 S 1 1.00
     Exponent=  1.6559334213D+00 Coefficients=  1.0000000000D+00
 S 1 1.00
     Exponent=  6.4893519582D-01 Coefficients=  1.0000000000D+00
 S 1 1.00
     Exponent=  2.4778104545D-01 Coefficients=  1.0000000000D+00
 S 1 1.00
     Exponent=  8.7626236800D-02 Coefficients=  1.0000000000D+00
 P 5 1.00
     Exponent=  2.4096654114D+02 Coefficients=  3.0389933451D-03
     Exponent=  5.7020699781D+01 Coefficients=  2.4357738582D-02
     Exponent=  1.8126952120D+01 Coefficients=  1.1442925768D-01
     Exponent=  6.6457404621D+00 Coefficients=  3.7064659853D-01
     Exponent=  2.6375722892D+00 Coefficients=  7.9791551766D-01
 P 1 1.00
     Exponent=  1.0638217200D+00 Coefficients=  1.0000000000D+00
 P 1 1.00
     Exponent=  4.1932562750D-01 Coefficients=  1.0000000000D+00
 P 1 1.00
     Exponent=  1.5747588299D-01 Coefficients=  1.0000000000D+00
 P 1 1.00
     Exponent=  4.6772400332D-02 Coefficients=  1.0000000000D+00
 D 1 1.00
     Exponent=  5.0140000000D+00 Coefficients=  1.0000000000D+00
 D 1 1.00
     Exponent=  1.7250000000D+00 Coefficients=  1.0000000000D+00
 D 1 1.00
     Exponent=  5.8600000000D-01 Coefficients=  1.0000000000D+00
 D 1 1.00
     Exponent=  1.5967986245D-01 Coefficients=  1.0000000000D+00
 F 1 1.00
     Exponent=  3.5620000000D+00 Coefficients=  1.0000000000D+00
 F 1 1.00
     Exponent=  1.1480000000D+00 Coefficients=  1.0000000000D+00
 G 1 1.00
     Exponent=  2.3760000000D+00 Coefficients=  1.0000000000D+00
 ****
 Ernie: Thresh=  0.10000D-02 Tol=  0.10000D-05 Strict=F.
 There are   128 symmetry adapted cartesian basis functions of A1  symmetry.
 There are    45 symmetry adapted cartesian basis functions of A2  symmetry.
 There are    62 symmetry adapted cartesian basis functions of B1  symmetry.
 There are    90 symmetry adapted cartesian basis functions of B2  symmetry.
 There are    98 symmetry adapted basis functions of A1  symmetry.
 There are    39 symmetry adapted basis functions of A2  symmetry.
 There are    52 symmetry adapted basis functions of B1  symmetry.
 There are    72 symmetry adapted basis functions of B2  symmetry.
   261 basis functions,   405 primitive gaussians,   325 cartesian basis functions
    16 alpha electrons       16 beta electrons
       nuclear repulsion energy       120.0149868447 Hartrees.
 IExCor= 4336 DFT=T Ex+Corr=M062X ExCW=0 ScaHFX=  0.540000
 ScaDFX=  1.000000  1.000000  1.000000  1.000000 ScalE2=  1.000000  1.000000
 IRadAn=      5 IRanWt=     -1 IRanGd=            0 ICorTp=0 IEmpDi=  4
 NAtoms=    4 NActive=    4 NUniq=    3 SFac= 1.78D+00 NAtFMM=   60 NAOKFM=F Big=F
 Integral buffers will be    131072 words long.
 Raffenetti 2 integral format.
 Two-electron integral symmetry is turned on.
 Leave Link  301 at Sat Apr 17 09:11:18 2021, MaxMem=   104857600 cpu:               8.5 elap:               0.2
 (Enter /s/ls4/users/knvvv/bin/g16sse/l302.exe)
 NPDir=0 NMtPBC=     1 NCelOv=     1 NCel=       1 NClECP=     1 NCelD=      1
         NCelK=      1 NCelE2=     1 NClLst=     1 CellRange=     0.0.
 One-electron integrals computed using PRISM.
 One-electron integral symmetry used in STVInt
 PrsmSu:  requested number of processors reduced to:   4 ShMem   1 Linda.
 PrsmSu:  requested number of processors reduced to:  21 ShMem   1 Linda.
 NBasis=   261 RedAO= T EigKep=  3.56D-05  NBF=    98    39    52    72
 NBsUse=   261 1.00D-06 EigRej= -1.00D+00 NBFU=    98    39    52    72
 Precomputing XC quadrature grid using
 IXCGrd= 4 IRadAn=           5 IRanWt=          -1 IRanGd=           0 AccXCQ= 0.00D+00.
 Generated NRdTot=       0 NPtTot=           0 NUsed=           0 NTot=          32
 NSgBfM=   325   325   325   325   325 MxSgAt=     4 MxSgA2=     4.
 Leave Link  302 at Sat Apr 17 09:11:31 2021, MaxMem=   104857600 cpu:             592.2 elap:              13.0
 (Enter /s/ls4/users/knvvv/bin/g16sse/l303.exe)
 DipDrv:  MaxL=1.
 Leave Link  303 at Sat Apr 17 09:11:33 2021, MaxMem=   104857600 cpu:              74.3 elap:               1.6
 (Enter /s/ls4/users/knvvv/bin/g16sse/l401.exe)
 SCF N**3 symmetry information disabled.
 ExpMin= 4.36D-02 ExpMax= 1.33D+05 ExpMxC= 1.27D+03 IAcc=3 IRadAn=         5 AccDes= 0.00D+00
 Harris functional with IExCor= 1009 and IRadAn=       5 diagonalized for initial guess.
 HarFok:  IExCor= 1009 AccDes= 0.00D+00 IRadAn=         5 IDoV= 1 UseB2=F ITyADJ=14
 ICtDFT=  3500011 ScaDFX=  1.000000  1.000000  1.000000  1.000000
 FoFCou: FMM=F IPFlag=           0 FMFlag=      100000 FMFlg1=           0
         NFxFlg=           0 DoJE=T BraDBF=F KetDBF=T FulRan=T
         wScrn=  0.000000 ICntrl=       500 IOpCl=  0 I1Cent=   200000004 NGrid=           0
         NMat0=    1 NMatS0=      1 NMatT0=    0 NMatD0=    1 NMtDS0=    0 NMtDT0=    0
 Petite list used in FoFCou.
 CoulSu:  requested number of processors reduced to:  20 ShMem   1 Linda.
 CoulSu:  requested number of processors reduced to:  21 ShMem   1 Linda.
 CoulSu:  requested number of processors reduced to:  21 ShMem   1 Linda.
 CoulSu:  requested number of processors reduced to:  21 ShMem   1 Linda.
 Harris En= -312.899469717147    
 JPrj=0 DoOrth=F DoCkMO=F.
 Initial guess orbital symmetries:
       Occupied  (B2) (A1) (A1) (A1) (A1) (B2) (A1) (A1) (B2) (A1)
                 (B1) (A1) (A2) (B2) (B1) (B2)
       Virtual   (B1) (A1) (A1) (B2) (B1) (A1) (B2) (A1) (B1) (A2)
                 (A1) (B2) (A1) (B2) (A1) (B1) (B2) (A2) (A1) (B1)
                 (B2) (A1) (B2) (A1) (A1) (B1) (A2) (A1) (B2) (B1)
                 (A1) (A1) (B2) (A2) (A1) (B1) (B2) (A2) (B1) (A1)
                 (B2) (A1) (A2) (B1) (B2) (A1) (A1) (B2) (A1) (B2)
                 (A1) (B1) (A2) (A1) (B1) (B2) (A1) (B2) (A1) (A2)
                 (A1) (B1) (B2) (A1) (B1) (B2) (A1) (A2) (B2) (B1)
                 (A2) (A1) (B1) (B2) (A2) (B2) (A1) (B1) (A1) (A1)
                 (B2) (A1) (B2) (B1) (A1) (A2) (A1) (B2) (B2) (B1)
                 (A1) (B1) (A2) (B2) (A1) (A1) (B2) (B1) (A1) (B2)
                 (B1) (A1) (A2) (A1) (B2) (B1) (A1) (A2) (A1) (B2)
                 (B1) (A2) (B2) (A1) (B2) (A2) (A1) (B2) (A1) (B1)
                 (B1) (A1) (A2) (B2) (B1) (A1) (B2) (A1) (B1) (A1)
                 (A2) (A1) (B2) (B2) (B1) (A2) (A2) (B1) (A1) (B2)
                 (B1) (B2) (A1) (A1) (B1) (B2) (A1) (B2) (B1) (A2)
                 (A1) (A2) (B2) (A1) (B1) (A2) (B2) (A1) (A1) (B2)
                 (A1) (B1) (B2) (A2) (A1) (B1) (A1) (B2) (A1) (A2)
                 (B2) (B1) (A1) (B2) (A1) (A2) (A1) (B1) (A1) (B2)
                 (B1) (B2) (A2) (B1) (A2) (B2) (A1) (B1) (B2) (A1)
                 (A2) (A1) (B2) (B1) (A1) (B1) (A2) (A1) (B2) (A1)
                 (B2) (A2) (B1) (A1) (A2) (B2) (A1) (B1) (B2) (A1)
                 (A2) (B1) (A1) (B2) (A1) (A2) (B2) (B1) (A1) (B2)
                 (A1) (B1) (A2) (A1) (B2) (A2) (B1) (A1) (B2) (A2)
                 (B1) (A1) (B2) (B2) (A1) (A1) (B2) (A1) (A1) (B2)
                 (A1) (A1) (A1) (B2) (A1)
 The electronic state of the initial guess is 1-A1.
 Leave Link  401 at Sat Apr 17 09:11:35 2021, MaxMem=   104857600 cpu:              91.1 elap:               2.1
 (Enter /s/ls4/users/knvvv/bin/g16sse/l502.exe)
 Integral symmetry usage will be decided dynamically.
 Closed shell SCF:
 Using DIIS extrapolation, IDIIS=  1040.
 NGot=   104857600 LenX=   104626177 LenY=   104520111
 Requested convergence on RMS density matrix=1.00D-08 within 128 cycles.
 Requested convergence on MAX density matrix=1.00D-06.
 Requested convergence on             energy=1.00D-06.
 No special actions if energy rises.
 Fock matrices will be formed incrementally for  20 cycles.

 Cycle   1  Pass 1  IDiag  1:
 FoFJK:  IHMeth= 1 ICntrl=       0 DoSepK=F KAlg= 0 I1Cent=           0 FoldK=F
 IRaf= 970000000 NMat=       1 IRICut=       1 DoRegI=T DoRafI=F ISym2E= 1 IDoP0=0 IntGTp=1.
 FoFCou: FMM=F IPFlag=           0 FMFlag=      100000 FMFlg1=           0
         NFxFlg=           0 DoJE=F BraDBF=F KetDBF=F FulRan=T
         wScrn=  0.000000 ICntrl=         0 IOpCl=  0 I1Cent=           0 NGrid=           0
         NMat0=    1 NMatS0=      1 NMatT0=    0 NMatD0=    1 NMtDS0=    0 NMtDT0=    0
 Petite list used in FoFCou.
 CoulSu:  requested number of processors reduced to:  21 ShMem   1 Linda.
 E= -312.964040345205    
 DIIS: error= 3.53D-02 at cycle   1 NSaved=   1.
 NSaved= 1 IEnMin= 1 EnMin= -312.964040345205     IErMin= 1 ErrMin= 3.53D-02
 ErrMax= 3.53D-02  0.00D+00 EMaxC= 1.00D-01 BMatC= 2.62D-01 BMatP= 2.62D-01
 IDIUse=3 WtCom= 6.47D-01 WtEn= 3.53D-01
 Coeff-Com:  0.100D+01
 Coeff-En:   0.100D+01
 Coeff:      0.100D+01
 Gap=     0.375 Goal=   None    Shift=    0.000
 GapD=    0.375 DampG=1.000 DampE=0.500 DampFc=0.5000 IDamp=-1.
 Damping current iteration by 5.00D-01
 RMSDP=1.39D-03 MaxDP=6.32D-02              OVMax= 2.78D-01

 Cycle   2  Pass 1  IDiag  1:
 RMSU=  6.92D-04    CP:  9.96D-01
 CoulSu:  requested number of processors reduced to:  21 ShMem   1 Linda.
 E= -312.997031627840     Delta-E=       -0.032991282636 Rises=F Damp=T
 DIIS: error= 2.03D-02 at cycle   2 NSaved=   2.
 NSaved= 2 IEnMin= 2 EnMin= -312.997031627840     IErMin= 2 ErrMin= 2.03D-02
 ErrMax= 2.03D-02  0.00D+00 EMaxC= 1.00D-01 BMatC= 4.55D-02 BMatP= 2.62D-01
 IDIUse=3 WtCom= 7.97D-01 WtEn= 2.03D-01
 Coeff-Com:  0.598D-01 0.940D+00
 Coeff-En:   0.312D+00 0.688D+00
 Coeff:      0.111D+00 0.889D+00
 Gap=     0.461 Goal=   None    Shift=    0.000
 RMSDP=5.68D-04 MaxDP=2.88D-02 DE=-3.30D-02 OVMax= 1.78D-01

 Cycle   3  Pass 1  IDiag  1:
 RMSU=  5.57D-04    CP:  9.92D-01  8.46D-01
 CoulSu:  requested number of processors reduced to:  21 ShMem   1 Linda.
 E= -313.065475051955     Delta-E=       -0.068443424114 Rises=F Damp=F
 DIIS: error= 9.23D-03 at cycle   3 NSaved=   3.
 NSaved= 3 IEnMin= 3 EnMin= -313.065475051955     IErMin= 3 ErrMin= 9.23D-03
 ErrMax= 9.23D-03  0.00D+00 EMaxC= 1.00D-01 BMatC= 8.77D-03 BMatP= 4.55D-02
 IDIUse=3 WtCom= 9.08D-01 WtEn= 9.23D-02
 Coeff-Com: -0.107D+00 0.280D+00 0.827D+00
 Coeff-En:   0.000D+00 0.000D+00 0.100D+01
 Coeff:     -0.968D-01 0.254D+00 0.843D+00
 Gap=     0.449 Goal=   None    Shift=    0.000
 RMSDP=1.81D-04 MaxDP=7.54D-03 DE=-6.84D-02 OVMax= 4.07D-02

 Cycle   4  Pass 1  IDiag  1:
 RMSU=  1.30D-04    CP:  9.92D-01  9.85D-01  8.55D-01
 CoulSu:  requested number of processors reduced to:  21 ShMem   1 Linda.
 E= -313.070094871171     Delta-E=       -0.004619819216 Rises=F Damp=F
 DIIS: error= 4.31D-03 at cycle   4 NSaved=   4.
 NSaved= 4 IEnMin= 4 EnMin= -313.070094871171     IErMin= 4 ErrMin= 4.31D-03
 ErrMax= 4.31D-03  0.00D+00 EMaxC= 1.00D-01 BMatC= 2.44D-03 BMatP= 8.77D-03
 IDIUse=3 WtCom= 9.57D-01 WtEn= 4.31D-02
 Coeff-Com: -0.520D-01 0.102D+00 0.453D+00 0.497D+00
 Coeff-En:   0.000D+00 0.000D+00 0.143D+00 0.857D+00
 Coeff:     -0.498D-01 0.977D-01 0.440D+00 0.512D+00
 Gap=     0.453 Goal=   None    Shift=    0.000
 RMSDP=6.60D-05 MaxDP=2.08D-03 DE=-4.62D-03 OVMax= 8.23D-03

 Cycle   5  Pass 1  IDiag  1:
 RMSU=  3.57D-05    CP:  9.92D-01  9.71D-01  9.09D-01  6.51D-01
 CoulSu:  requested number of processors reduced to:  21 ShMem   1 Linda.
 E= -313.071362411610     Delta-E=       -0.001267540439 Rises=F Damp=F
 DIIS: error= 4.98D-04 at cycle   5 NSaved=   5.
 NSaved= 5 IEnMin= 5 EnMin= -313.071362411610     IErMin= 5 ErrMin= 4.98D-04
 ErrMax= 4.98D-04  0.00D+00 EMaxC= 1.00D-01 BMatC= 1.55D-05 BMatP= 2.44D-03
 IDIUse=3 WtCom= 9.95D-01 WtEn= 4.98D-03
 Coeff-Com: -0.521D-02 0.926D-02 0.492D-01 0.104D+00 0.843D+00
 Coeff-En:   0.000D+00 0.000D+00 0.000D+00 0.000D+00 0.100D+01
 Coeff:     -0.518D-02 0.921D-02 0.489D-01 0.103D+00 0.844D+00
 Gap=     0.452 Goal=   None    Shift=    0.000
 RMSDP=1.06D-05 MaxDP=3.37D-04 DE=-1.27D-03 OVMax= 1.71D-03

 Cycle   6  Pass 1  IDiag  1:
 RMSU=  9.08D-06    CP:  9.92D-01  9.74D-01  9.05D-01  6.81D-01  1.06D+00
 CoulSu:  requested number of processors reduced to:  21 ShMem   1 Linda.
 E= -313.071376131027     Delta-E=       -0.000013719417 Rises=F Damp=F
 DIIS: error= 1.61D-04 at cycle   6 NSaved=   6.
 NSaved= 6 IEnMin= 6 EnMin= -313.071376131027     IErMin= 6 ErrMin= 1.61D-04
 ErrMax= 1.61D-04  0.00D+00 EMaxC= 1.00D-01 BMatC= 1.55D-06 BMatP= 1.55D-05
 IDIUse=3 WtCom= 9.98D-01 WtEn= 1.61D-03
 Coeff-Com:  0.374D-02-0.765D-02-0.320D-01-0.352D-01 0.159D+00 0.912D+00
 Coeff-En:   0.000D+00 0.000D+00 0.000D+00 0.000D+00 0.000D+00 0.100D+01
 Coeff:      0.374D-02-0.764D-02-0.320D-01-0.352D-01 0.158D+00 0.913D+00
 Gap=     0.453 Goal=   None    Shift=    0.000
 RMSDP=3.92D-06 MaxDP=1.39D-04 DE=-1.37D-05 OVMax= 6.10D-04

 Cycle   7  Pass 1  IDiag  1:
 RMSU=  2.07D-06    CP:  9.92D-01  9.74D-01  9.06D-01  6.84D-01  1.15D+00
                    CP:  1.08D+00
 CoulSu:  requested number of processors reduced to:  21 ShMem   1 Linda.
 E= -313.071377876257     Delta-E=       -0.000001745231 Rises=F Damp=F
 DIIS: error= 3.11D-05 at cycle   7 NSaved=   7.
 NSaved= 7 IEnMin= 7 EnMin= -313.071377876257     IErMin= 7 ErrMin= 3.11D-05
 ErrMax= 3.11D-05  0.00D+00 EMaxC= 1.00D-01 BMatC= 9.94D-08 BMatP= 1.55D-06
 IDIUse=1 WtCom= 1.00D+00 WtEn= 0.00D+00
 Coeff-Com:  0.741D-03-0.144D-02-0.410D-02-0.942D-02-0.467D-01 0.951D-01
 Coeff-Com:  0.966D+00
 Coeff:      0.741D-03-0.144D-02-0.410D-02-0.942D-02-0.467D-01 0.951D-01
 Coeff:      0.966D+00
 Gap=     0.453 Goal=   None    Shift=    0.000
 RMSDP=9.48D-07 MaxDP=3.55D-05 DE=-1.75D-06 OVMax= 1.64D-04

 Cycle   8  Pass 1  IDiag  1:
 RMSU=  6.51D-07    CP:  9.92D-01  9.74D-01  9.06D-01  6.84D-01  1.16D+00
                    CP:  1.14D+00  1.17D+00
 CoulSu:  requested number of processors reduced to:  21 ShMem   1 Linda.
 E= -313.071378002723     Delta-E=       -0.000000126466 Rises=F Damp=F
 DIIS: error= 6.40D-06 at cycle   8 NSaved=   8.
 NSaved= 8 IEnMin= 8 EnMin= -313.071378002723     IErMin= 8 ErrMin= 6.40D-06
 ErrMax= 6.40D-06  0.00D+00 EMaxC= 1.00D-01 BMatC= 6.10D-09 BMatP= 9.94D-08
 IDIUse=1 WtCom= 1.00D+00 WtEn= 0.00D+00
 Coeff-Com: -0.126D-03 0.238D-03 0.189D-02 0.197D-02-0.123D-01-0.406D-01
 Coeff-Com: -0.386D-01 0.109D+01
 Coeff:     -0.126D-03 0.238D-03 0.189D-02 0.197D-02-0.123D-01-0.406D-01
 Coeff:     -0.386D-01 0.109D+01
 Gap=     0.453 Goal=   None    Shift=    0.000
 RMSDP=2.65D-07 MaxDP=9.17D-06 DE=-1.26D-07 OVMax= 4.70D-05

 Cycle   9  Pass 1  IDiag  1:
 RMSU=  1.15D-07    CP:  9.92D-01  9.74D-01  9.05D-01  6.84D-01  1.16D+00
                    CP:  1.15D+00  1.24D+00  1.22D+00
 CoulSu:  requested number of processors reduced to:  21 ShMem   1 Linda.
 E= -313.071378010731     Delta-E=       -0.000000008008 Rises=F Damp=F
 DIIS: error= 9.74D-07 at cycle   9 NSaved=   9.
 NSaved= 9 IEnMin= 9 EnMin= -313.071378010731     IErMin= 9 ErrMin= 9.74D-07
 ErrMax= 9.74D-07  0.00D+00 EMaxC= 1.00D-01 BMatC= 1.44D-10 BMatP= 6.10D-09
 IDIUse=1 WtCom= 1.00D+00 WtEn= 0.00D+00
 Coeff-Com: -0.173D-04 0.355D-04 0.187D-03 0.306D-03 0.570D-03-0.305D-02
 Coeff-Com: -0.397D-01 0.320D-01 0.101D+01
 Coeff:     -0.173D-04 0.355D-04 0.187D-03 0.306D-03 0.570D-03-0.305D-02
 Coeff:     -0.397D-01 0.320D-01 0.101D+01
 Gap=     0.453 Goal=   None    Shift=    0.000
 RMSDP=4.88D-08 MaxDP=1.85D-06 DE=-8.01D-09 OVMax= 7.59D-06

 Cycle  10  Pass 1  IDiag  1:
 RMSU=  2.30D-08    CP:  9.92D-01  9.74D-01  9.05D-01  6.84D-01  1.16D+00
                    CP:  1.15D+00  1.25D+00  1.26D+00  1.14D+00
 CoulSu:  requested number of processors reduced to:  21 ShMem   1 Linda.
 E= -313.071378010905     Delta-E=       -0.000000000173 Rises=F Damp=F
 DIIS: error= 2.28D-07 at cycle  10 NSaved=  10.
 NSaved=10 IEnMin=10 EnMin= -313.071378010905     IErMin=10 ErrMin= 2.28D-07
 ErrMax= 2.28D-07  0.00D+00 EMaxC= 1.00D-01 BMatC= 4.68D-12 BMatP= 1.44D-10
 IDIUse=1 WtCom= 1.00D+00 WtEn= 0.00D+00
 Coeff-Com:  0.403D-05-0.769D-05-0.364D-04-0.523D-04 0.353D-03 0.106D-02
 Coeff-Com:  0.139D-02-0.307D-01 0.600D-02 0.102D+01
 Coeff:      0.403D-05-0.769D-05-0.364D-04-0.523D-04 0.353D-03 0.106D-02
 Coeff:      0.139D-02-0.307D-01 0.600D-02 0.102D+01
 Gap=     0.453 Goal=   None    Shift=    0.000
 RMSDP=7.66D-09 MaxDP=2.70D-07 DE=-1.73D-10 OVMax= 8.65D-07

 SCF Done:  E(RM062X) =  -313.071378011     A.U. after   10 cycles
            NFock= 10  Conv=0.77D-08     -V/T= 2.0029
 KE= 3.121506667823D+02 PE=-9.826477683082D+02 EE= 2.374107366703D+02
 Leave Link  502 at Sat Apr 17 09:14:27 2021, MaxMem=   104857600 cpu:            7819.2 elap:             172.5
 (Enter /s/ls4/users/knvvv/bin/g16sse/l601.exe)
 Copying SCF densities to generalized density rwf, IOpCl= 0 IROHF=0.

 **********************************************************************

            Population analysis using the SCF density.

 **********************************************************************

 Orbital symmetries:
       Occupied  (B2) (A1) (A1) (A1) (A1) (B2) (A1) (A1) (B2) (B1)
                 (A1) (A2) (A1) (B2) (B1) (B2)
       Virtual   (A1) (B1) (B2) (A1) (B1) (B2) (A1) (A1) (B1) (A2)
                 (B2) (A1) (A1) (A1) (B2) (B1) (A2) (B1) (B2) (A1)
                 (B2) (A1) (A1) (B2) (A1) (B1) (A2) (A1) (B1) (B2)
                 (A1) (A1) (B2) (A2) (B1) (A1) (B2) (A2) (B1) (A1)
                 (B2) (A2) (B1) (A1) (B2) (A1) (A1) (B2) (A1) (B2)
                 (A1) (B1) (A2) (A1) (B1) (B2) (A1) (B2) (A1) (A1)
                 (A2) (B1) (B2) (A1) (B1) (A1) (B2) (A2) (B1) (B2)
                 (A1) (A2) (B1) (B2) (A2) (A1) (B2) (B1) (A1) (A1)
                 (B2) (A1) (B2) (B1) (A1) (A2) (A1) (B2) (B1) (A1)
                 (B2) (B1) (A2) (B2) (A1) (A1) (B2) (B1) (A1) (B2)
                 (B1) (A1) (A2) (B2) (A1) (B1) (A1) (A2) (A2) (A1)
                 (B2) (B1) (B2) (A1) (A2) (B2) (A1) (B2) (B1) (A1)
                 (B1) (A2) (A1) (B2) (B1) (A1) (A1) (B2) (A1) (B1)
                 (B2) (A2) (A1) (B1) (B2) (A2) (A2) (A1) (B1) (B1)
                 (A1) (B2) (B2) (A1) (B1) (B2) (B1) (A1) (A2) (B2)
                 (A2) (A1) (B2) (A1) (B1) (A2) (A1) (B2) (A1) (B2)
                 (B1) (A1) (B2) (A2) (A1) (B1) (A1) (B2) (A1) (A2)
                 (B2) (B1) (A1) (B2) (A1) (A2) (A1) (B1) (A1) (B2)
                 (B1) (B2) (A2) (B1) (B2) (A2) (A1) (B1) (B2) (A1)
                 (A2) (A1) (B1) (B2) (A1) (B1) (A1) (A2) (B2) (B2)
                 (A2) (A1) (B1) (A1) (A2) (B2) (A1) (B1) (B2) (A1)
                 (A2) (B1) (A1) (B2) (A1) (A2) (B2) (B1) (A1) (B2)
                 (A1) (B1) (A2) (A1) (B2) (A2) (B1) (A1) (B2) (A2)
                 (B1) (A1) (B2) (B2) (A1) (A1) (B2) (A1) (A1) (B2)
                 (A1) (A1) (A1) (B2) (A1)
 The electronic state is 1-A1.
 Alpha  occ. eigenvalues --  -25.32715 -25.32713 -19.68483 -10.81800  -1.49745
 Alpha  occ. eigenvalues --   -1.42302  -1.24830  -0.80974  -0.73321  -0.69067
 Alpha  occ. eigenvalues --   -0.66370  -0.59245  -0.57843  -0.57214  -0.48934
 Alpha  occ. eigenvalues --   -0.45295
 Alpha virt. eigenvalues --   -0.00037   0.02281   0.03905   0.03941   0.04158
 Alpha virt. eigenvalues --    0.07829   0.07927   0.08750   0.08890   0.09072
 Alpha virt. eigenvalues --    0.14050   0.14672   0.19648   0.21619   0.21833
 Alpha virt. eigenvalues --    0.22892   0.24042   0.25163   0.25668   0.26579
 Alpha virt. eigenvalues --    0.26866   0.28550   0.28654   0.33974   0.36569
 Alpha virt. eigenvalues --    0.41161   0.43568   0.47221   0.47473   0.48521
 Alpha virt. eigenvalues --    0.50290   0.51017   0.53158   0.53764   0.55809
 Alpha virt. eigenvalues --    0.57153   0.57840   0.58766   0.60748   0.62063
 Alpha virt. eigenvalues --    0.64579   0.66613   0.66831   0.66908   0.68327
 Alpha virt. eigenvalues --    0.69627   0.71525   0.72144   0.75966   0.90886
 Alpha virt. eigenvalues --    0.93494   0.94335   0.95243   0.96846   0.98254
 Alpha virt. eigenvalues --    1.02618   1.09454   1.16556   1.22459   1.36981
 Alpha virt. eigenvalues --    1.39797   1.51404   1.52160   1.57066   1.57860
 Alpha virt. eigenvalues --    1.60068   1.61214   1.66960   1.72455   1.73919
 Alpha virt. eigenvalues --    1.77142   1.77325   1.78173   1.83088   1.85624
 Alpha virt. eigenvalues --    1.86113   1.88207   1.89273   1.92727   1.97448
 Alpha virt. eigenvalues --    2.01050   2.13895   2.14592   2.17648   2.21164
 Alpha virt. eigenvalues --    2.21719   2.26475   2.29009   2.34380   2.34844
 Alpha virt. eigenvalues --    2.38780   2.51853   2.65112   2.76392   2.77214
 Alpha virt. eigenvalues --    2.82075   3.02696   3.08747   3.21442   3.31040
 Alpha virt. eigenvalues --    3.32948   3.49562   3.61326   3.79061   3.80831
 Alpha virt. eigenvalues --    3.91386   3.98683   4.05286   4.13113   4.13635
 Alpha virt. eigenvalues --    4.13887   4.14406   4.26516   4.28255   4.31312
 Alpha virt. eigenvalues --    4.32521   4.34974   4.38734   4.48693   4.49372
 Alpha virt. eigenvalues --    4.55010   4.66447   4.68388   4.75141   4.78966
 Alpha virt. eigenvalues --    4.90742   4.98327   4.99222   5.12075   5.16506
 Alpha virt. eigenvalues --    5.28856   5.29048   5.29981   5.49261   5.49362
 Alpha virt. eigenvalues --    5.49759   5.56856   5.57959   5.61643   5.63239
 Alpha virt. eigenvalues --    5.66232   5.66606   5.76012   5.86281   5.87196
 Alpha virt. eigenvalues --    5.94188   6.04108   6.04649   6.08356   6.08469
 Alpha virt. eigenvalues --    6.14078   6.20875   6.33026   6.34842   6.39058
 Alpha virt. eigenvalues --    6.42813   6.56936   6.59751   6.65570   6.80238
 Alpha virt. eigenvalues --    7.12483   7.15628   7.18859   7.30076   7.34808
 Alpha virt. eigenvalues --    7.50118   7.75876   7.94027   8.76116   8.76480
 Alpha virt. eigenvalues --    8.89694   9.06467   9.34054   9.50460   9.68915
 Alpha virt. eigenvalues --    9.80126   9.82898  10.13711  10.23402  10.43895
 Alpha virt. eigenvalues --   10.84509  10.88167  11.14322  11.26209  11.26236
 Alpha virt. eigenvalues --   11.26285  11.26593  11.26968  11.28073  11.30237
 Alpha virt. eigenvalues --   11.33835  11.37836  11.47654  11.47738  11.65340
 Alpha virt. eigenvalues --   11.68330  11.74855  11.75905  11.79463  11.93567
 Alpha virt. eigenvalues --   11.97273  11.97992  12.04735  12.20579  12.22879
 Alpha virt. eigenvalues --   12.42048  12.53607  13.16366  13.69123  13.97487
 Alpha virt. eigenvalues --   14.39482  14.40289  14.40633  14.41366  14.51059
 Alpha virt. eigenvalues --   14.64567  14.70676  14.76182  14.88425  15.03366
 Alpha virt. eigenvalues --   15.07199  15.34465  15.37597  15.55255  15.64922
 Alpha virt. eigenvalues --   15.82455  15.86055  15.89475  15.92983  15.98643
 Alpha virt. eigenvalues --   16.02623  16.19722  16.34537  16.46715  16.53950
 Alpha virt. eigenvalues --   16.77068  16.77914  28.36432  48.10251  54.76635
 Alpha virt. eigenvalues --   54.79487 145.69817 251.19015 283.78105 283.80888
          Condensed to atoms (all electrons):
               1          2          3          4
     1  O    8.073599   0.564791  -0.072563  -0.072563
     2  C    0.564791   4.026220   0.254989   0.254989
     3  F   -0.072563   0.254989   9.099244  -0.078796
     4  F   -0.072563   0.254989  -0.078796   9.099244
 Mulliken charges:
               1
     1  O   -0.493263
     2  C    0.899011
     3  F   -0.202874
     4  F   -0.202874
 Sum of Mulliken charges =  -0.00000
 Mulliken charges with hydrogens summed into heavy atoms:
               1
     1  O   -0.493263
     2  C    0.899011
     3  F   -0.202874
     4  F   -0.202874
 Electronic spatial extent (au):  <R**2>=            194.1563
 Charge=             -0.0000 electrons
 Dipole moment (field-independent basis, Debye):
    X=              0.0000    Y=             -0.0000    Z=             -1.0776  Tot=              1.0776
 Quadrupole moment (field-independent basis, Debye-Ang):
   XX=            -18.8315   YY=            -21.1827   ZZ=            -23.1694
   XY=             -0.0000   XZ=             -0.0000   YZ=             -0.0000
 Traceless Quadrupole moment (field-independent basis, Debye-Ang):
   XX=              2.2297   YY=             -0.1215   ZZ=             -2.1082
   XY=             -0.0000   XZ=             -0.0000   YZ=             -0.0000
 Octapole moment (field-independent basis, Debye-Ang**2):
  XXX=              0.0000  YYY=             -0.0000  ZZZ=             -8.7349  XYY=              0.0000
  XXY=             -0.0000  XXZ=             -1.6927  XZZ=              0.0000  YZZ=              0.0000
  YYZ=             -1.4617  XYZ=              0.0000
 Hexadecapole moment (field-independent basis, Debye-Ang**3):
 XXXX=            -13.3610 YYYY=            -79.2795 ZZZZ=            -98.9017 XXXY=             -0.0000
 XXXZ=             -0.0000 YYYX=             -0.0000 YYYZ=             -0.0000 ZZZX=             -0.0000
 ZZZY=             -0.0000 XXYY=            -15.4780 XXZZ=            -17.9571 YYZZ=            -29.3222
 XXYZ=             -0.0000 YYXZ=             -0.0000 ZZXY=             -0.0000
 N-N= 1.200149868447D+02 E-N=-9.826477693512D+02  KE= 3.121506667823D+02
 PrsmSu:  requested number of processors reduced to:  21 ShMem   1 Linda.
 No NMR shielding tensors so no spin-rotation constants.
 Leave Link  601 at Sat Apr 17 09:14:33 2021, MaxMem=   104857600 cpu:             270.8 elap:               5.9
 (Enter /s/ls4/users/knvvv/bin/g16sse/l801.exe)
 DoSCS=F DFT=T ScalE2(SS,OS)=  1.000000  1.000000
 Range of M.O.s used for correlation:     1   261
 NBasis=   261 NAE=    16 NBE=    16 NFC=     0 NFV=     0
 NROrb=    261 NOA=    16 NOB=    16 NVA=   245 NVB=   245

 **** Warning!!: The largest alpha MO coefficient is  0.46334904D+02

 Leave Link  801 at Sat Apr 17 09:14:33 2021, MaxMem=   104857600 cpu:               3.8 elap:               0.1
 (Enter /s/ls4/users/knvvv/bin/g16sse/l914.exe)
 RHF ground state
 Doing stability rather than CIS.
 Two-electron integrals replicated using symmetry.
 MDV=   104857600 DFT=T DoStab=T Mixed=T DoRPA=F DoScal=F NonHer=F
 Making orbital integer symmetry assigments:
 Orbital symmetries:
       Occupied  (B2) (A1) (A1) (A1) (A1) (B2) (A1) (A1) (B2) (B1)
                 (A1) (A2) (A1) (B2) (B1) (B2)
       Virtual   (A1) (B1) (B2) (A1) (B1) (B2) (A1) (A1) (B1) (A2)
                 (B2) (A1) (A1) (A1) (B2) (B1) (A2) (B1) (B2) (A1)
                 (B2) (A1) (A1) (B2) (A1) (B1) (A2) (A1) (B1) (B2)
                 (A1) (A1) (B2) (A2) (B1) (A1) (B2) (A2) (B1) (A1)
                 (B2) (A2) (B1) (A1) (B2) (A1) (A1) (B2) (A1) (B2)
                 (A1) (B1) (A2) (A1) (B1) (B2) (A1) (B2) (A1) (A1)
                 (A2) (B1) (B2) (A1) (B1) (A1) (B2) (A2) (B1) (B2)
                 (A1) (A2) (B1) (B2) (A2) (A1) (B2) (B1) (A1) (A1)
                 (B2) (A1) (B2) (B1) (A1) (A2) (A1) (B2) (B1) (A1)
                 (B2) (B1) (A2) (B2) (A1) (A1) (B2) (B1) (A1) (B2)
                 (B1) (A1) (A2) (B2) (A1) (B1) (A1) (A2) (A2) (A1)
                 (B2) (B1) (B2) (A1) (A2) (B2) (A1) (B2) (B1) (A1)
                 (B1) (A2) (A1) (B2) (B1) (A1) (A1) (B2) (A1) (B1)
                 (B2) (A2) (A1) (B1) (B2) (A2) (A2) (A1) (B1) (B1)
                 (A1) (B2) (B2) (A1) (B1) (B2) (B1) (A1) (A2) (B2)
                 (A2) (A1) (B2) (A1) (B1) (A2) (A1) (B2) (A1) (B2)
                 (B1) (A1) (B2) (A2) (A1) (B1) (A1) (B2) (A1) (A2)
                 (B2) (B1) (A1) (B2) (A1) (A2) (A1) (B1) (A1) (B2)
                 (B1) (B2) (A2) (B1) (B2) (A2) (A1) (B1) (B2) (A1)
                 (A2) (A1) (B1) (B2) (A1) (B1) (A1) (A2) (B2) (B2)
                 (A2) (A1) (B1) (A1) (A2) (B2) (A1) (B1) (B2) (A1)
                 (A2) (B1) (A1) (B2) (A1) (A2) (B2) (B1) (A1) (B2)
                 (A1) (B1) (A2) (A1) (B2) (A2) (B1) (A1) (B2) (A2)
                 (B1) (A1) (B2) (B2) (A1) (A1) (B2) (A1) (A1) (B2)
                 (A1) (A1) (A1) (B2) (A1)
    24 initial guesses have been made.
 Convergence on wavefunction:    0.001000000000000
 Davidson Disk Diagonalization:  ConvIn= 1.00D-03 SkipCon=T Conv= 1.00D-03.
 Max sub-space:  2000 roots to seek:    24 dimension of matrix:         7840
 Iteration     1 Dimension    24 NMult     0 NNew     24
 Estimated number of processors is:   18
 CISAX will form     1 AO SS matrices at one time.
 NMat=     1 NSing=     1 JSym2X= 2.
 FoFJK:  IHMeth= 1 ICntrl=       0 DoSepK=F KAlg= 0 I1Cent=           0 FoldK=F
 IRaf= 970000000 NMat=       1 IRICut=       1 DoRegI=T DoRafI=F ISym2E= 2 IDoP0=0 IntGTp=1.
 FoFCou: FMM=F IPFlag=           0 FMFlag=      100000 FMFlg1=           0
         NFxFlg=           0 DoJE=F BraDBF=F KetDBF=F FulRan=T
         wScrn=  0.000000 ICntrl=         0 IOpCl=  0 I1Cent=           0 NGrid=           0
         NMat0=    1 NMatS0=      1 NMatT0=    0 NMatD0=    1 NMtDS0=    0 NMtDT0=    0
 Integrals replicated using symmetry in FoFCou.
 CoulSu:  requested number of processors reduced to:  20 ShMem   1 Linda.
 NMat=     1 NSing=     1 JSym2X= 2.
 CoulSu:  requested number of processors reduced to:  20 ShMem   1 Linda.
 NMat=     1 NSing=     1 JSym2X= 2.
 CoulSu:  requested number of processors reduced to:  20 ShMem   1 Linda.
 NMat=     1 NSing=     1 JSym2X= 2.
 CoulSu:  requested number of processors reduced to:  20 ShMem   1 Linda.
 NMat=     1 NSing=     1 JSym2X= 2.
 CoulSu:  requested number of processors reduced to:  20 ShMem   1 Linda.
 NMat=     1 NSing=     1 JSym2X= 2.
 CoulSu:  requested number of processors reduced to:  20 ShMem   1 Linda.
 NMat=     1 NSing=     1 JSym2X= 2.
 CoulSu:  requested number of processors reduced to:  20 ShMem   1 Linda.
 NMat=     1 NSing=     1 JSym2X= 2.
 CoulSu:  requested number of processors reduced to:  20 ShMem   1 Linda.
 NMat=     1 NSing=     1 JSym2X= 2.
 CoulSu:  requested number of processors reduced to:  20 ShMem   1 Linda.
 NMat=     1 NSing=     1 JSym2X= 2.
 CoulSu:  requested number of processors reduced to:  20 ShMem   1 Linda.
 NMat=     1 NSing=     1 JSym2X= 2.
 CoulSu:  requested number of processors reduced to:  20 ShMem   1 Linda.
 NMat=     1 NSing=     1 JSym2X= 2.
 CoulSu:  requested number of processors reduced to:  20 ShMem   1 Linda.
 NMat=     1 NSing=     0 JSym2X= 2.
 CoulSu:  requested number of processors reduced to:  20 ShMem   1 Linda.
 NMat=     1 NSing=     0 JSym2X= 2.
 CoulSu:  requested number of processors reduced to:  20 ShMem   1 Linda.
 NMat=     1 NSing=     0 JSym2X= 2.
 CoulSu:  requested number of processors reduced to:  20 ShMem   1 Linda.
 NMat=     1 NSing=     0 JSym2X= 2.
 CoulSu:  requested number of processors reduced to:  20 ShMem   1 Linda.
 NMat=     1 NSing=     0 JSym2X= 2.
 CoulSu:  requested number of processors reduced to:  20 ShMem   1 Linda.
 NMat=     1 NSing=     0 JSym2X= 2.
 CoulSu:  requested number of processors reduced to:  20 ShMem   1 Linda.
 NMat=     1 NSing=     0 JSym2X= 2.
 CoulSu:  requested number of processors reduced to:  20 ShMem   1 Linda.
 NMat=     1 NSing=     0 JSym2X= 2.
 CoulSu:  requested number of processors reduced to:  20 ShMem   1 Linda.
 NMat=     1 NSing=     0 JSym2X= 2.
 CoulSu:  requested number of processors reduced to:  20 ShMem   1 Linda.
 NMat=     1 NSing=     0 JSym2X= 2.
 CoulSu:  requested number of processors reduced to:  20 ShMem   1 Linda.
 NMat=     1 NSing=     0 JSym2X= 2.
 CoulSu:  requested number of processors reduced to:  20 ShMem   1 Linda.
 NMat=     1 NSing=     0 JSym2X= 2.
 CoulSu:  requested number of processors reduced to:  20 ShMem   1 Linda.
 New state      1 was old state     14
 Excitation Energies [eV] at current iteration:
 Root      1 :     6.366272660323260
 Root      2 :     6.871612066000839
 Root      3 :     7.593800216859417
 Root      4 :     9.667755055007145
 Root      5 :     9.846262736404388
 Root      6 :    10.686080221961230
 Root      7 :    10.822011747877520
 Root      8 :    11.134271735689870
 Root      9 :    11.142920994960010
 Root     10 :    11.159596572219230
 Root     11 :    11.182025212173780
 Root     12 :    11.310046017604870
 Root     13 :    11.320420001401320
 Root     14 :    12.123495320710450
 Root     15 :    12.220025025257240
 Root     16 :    12.236941103469290
 Root     17 :    12.243047381034720
 Root     18 :    12.275639078413560
 Root     19 :    12.307940567340120
 Root     20 :    12.319630751920150
 Root     21 :    12.332268690808980
 Root     22 :    12.456142393128650
 Root     23 :    12.527181802115380
 Root     24 :    17.811691818332430
 Iteration     2 Dimension    48 NMult    24 NNew     24
 Estimated number of processors is:   18
 CISAX will form     1 AO SS matrices at one time.
 NMat=     1 NSing=     1 JSym2X= 2.
 CoulSu:  requested number of processors reduced to:  20 ShMem   1 Linda.
 NMat=     1 NSing=     1 JSym2X= 2.
 CoulSu:  requested number of processors reduced to:  20 ShMem   1 Linda.
 NMat=     1 NSing=     1 JSym2X= 2.
 CoulSu:  requested number of processors reduced to:  20 ShMem   1 Linda.
 NMat=     1 NSing=     1 JSym2X= 2.
 CoulSu:  requested number of processors reduced to:  20 ShMem   1 Linda.
 NMat=     1 NSing=     1 JSym2X= 2.
 CoulSu:  requested number of processors reduced to:  20 ShMem   1 Linda.
 NMat=     1 NSing=     1 JSym2X= 2.
 CoulSu:  requested number of processors reduced to:  20 ShMem   1 Linda.
 NMat=     1 NSing=     1 JSym2X= 2.
 CoulSu:  requested number of processors reduced to:  20 ShMem   1 Linda.
 NMat=     1 NSing=     1 JSym2X= 2.
 CoulSu:  requested number of processors reduced to:  20 ShMem   1 Linda.
 NMat=     1 NSing=     1 JSym2X= 2.
 CoulSu:  requested number of processors reduced to:  20 ShMem   1 Linda.
 NMat=     1 NSing=     1 JSym2X= 2.
 CoulSu:  requested number of processors reduced to:  20 ShMem   1 Linda.
 NMat=     1 NSing=     1 JSym2X= 2.
 CoulSu:  requested number of processors reduced to:  20 ShMem   1 Linda.
 NMat=     1 NSing=     1 JSym2X= 2.
 CoulSu:  requested number of processors reduced to:  20 ShMem   1 Linda.
 NMat=     1 NSing=     0 JSym2X= 2.
 CoulSu:  requested number of processors reduced to:  20 ShMem   1 Linda.
 NMat=     1 NSing=     0 JSym2X= 2.
 CoulSu:  requested number of processors reduced to:  20 ShMem   1 Linda.
 NMat=     1 NSing=     0 JSym2X= 2.
 CoulSu:  requested number of processors reduced to:  20 ShMem   1 Linda.
 NMat=     1 NSing=     0 JSym2X= 2.
 CoulSu:  requested number of processors reduced to:  20 ShMem   1 Linda.
 NMat=     1 NSing=     0 JSym2X= 2.
 CoulSu:  requested number of processors reduced to:  20 ShMem   1 Linda.
 NMat=     1 NSing=     0 JSym2X= 2.
 CoulSu:  requested number of processors reduced to:  20 ShMem   1 Linda.
 NMat=     1 NSing=     0 JSym2X= 2.
 CoulSu:  requested number of processors reduced to:  20 ShMem   1 Linda.
 NMat=     1 NSing=     0 JSym2X= 2.
 CoulSu:  requested number of processors reduced to:  20 ShMem   1 Linda.
 NMat=     1 NSing=     0 JSym2X= 2.
 CoulSu:  requested number of processors reduced to:  20 ShMem   1 Linda.
 NMat=     1 NSing=     0 JSym2X= 2.
 CoulSu:  requested number of processors reduced to:  20 ShMem   1 Linda.
 NMat=     1 NSing=     0 JSym2X= 2.
 CoulSu:  requested number of processors reduced to:  20 ShMem   1 Linda.
 NMat=     1 NSing=     0 JSym2X= 2.
 CoulSu:  requested number of processors reduced to:  20 ShMem   1 Linda.
 Root      1 not converged, maximum delta is    0.094493484194776
 Excitation Energies [eV] at current iteration:
 Root      1 :     5.532204762678040   Change is   -0.834067897645220
 Root      2 :     6.371898677755272   Change is   -0.499713388245568
 Root      3 :     7.356387765578146   Change is   -0.237412451281271
 Root      4 :     9.142921669126096   Change is   -0.524833385881050
 Root      5 :     9.602164396289231   Change is   -0.244098340115157
 Root      6 :    10.083718287432820   Change is   -0.602361934528404
 Root      7 :    10.562825847193230   Change is   -0.259185900684287
 Root      8 :    10.848435700162740   Change is   -0.471984301238578
 Root      9 :    10.893926768804920   Change is   -0.248994226155091
 Root     10 :    11.001019586894030   Change is   -0.133252148795839
 Root     11 :    11.022197238797550   Change is   -0.159827973376226
 Root     12 :    11.031398398559010   Change is   -0.128198173660218
 Root     13 :    11.175815385542470   Change is   -0.134230632062402
 Root     14 :    11.866542218268530   Change is   -0.353482806988714
 Root     15 :    11.997713511470750   Change is   -0.125781809239701
 Root     16 :    12.052083895603430   Change is   -0.190963485431284
 Root     17 :    12.052853955622650   Change is   -0.184087147846647
 Root     18 :    12.063009746036600   Change is   -0.269258944772388
 Root     19 :    12.121246118982000   Change is   -0.154392959431565
 Root     20 :    12.188215832966100   Change is   -0.119724734374025
 Root     21 :    12.209042876196920   Change is   -0.110587875723228
 Root     22 :    12.349883739583510   Change is   -0.106258653545141
 Root     23 :    12.414126696609000   Change is   -0.113055105506386
 Root     24 :    12.556071322050600   Change is   -5.255620496281837
 Iteration     3 Dimension    54 NMult    48 NNew      6
 Estimated number of processors is:   18
 CISAX will form     1 AO SS matrices at one time.
 NMat=     1 NSing=     1 JSym2X= 2.
 CoulSu:  requested number of processors reduced to:  20 ShMem   1 Linda.
 NMat=     1 NSing=     1 JSym2X= 2.
 CoulSu:  requested number of processors reduced to:  20 ShMem   1 Linda.
 NMat=     1 NSing=     1 JSym2X= 2.
 CoulSu:  requested number of processors reduced to:  20 ShMem   1 Linda.
 NMat=     1 NSing=     0 JSym2X= 2.
 CoulSu:  requested number of processors reduced to:  20 ShMem   1 Linda.
 NMat=     1 NSing=     0 JSym2X= 2.
 CoulSu:  requested number of processors reduced to:  20 ShMem   1 Linda.
 NMat=     1 NSing=     0 JSym2X= 2.
 CoulSu:  requested number of processors reduced to:  20 ShMem   1 Linda.
 Root      1 not converged, maximum delta is    0.030132319491109
 Excitation Energies [eV] at current iteration:
 Root      1 :     5.486026464022343   Change is   -0.046178298655697
 Root      2 :     6.361034291506670   Change is   -0.010864386248602
 Root      3 :     7.348545822394377   Change is   -0.007841943183770
 Root      4 :     9.075799074294665   Change is   -0.067122594831430
 Root      5 :     9.539459932929187   Change is   -0.062704463360043
 Root      6 :    10.508443788890440   Change is   -0.054382058302786
 Iteration     4 Dimension    60 NMult    54 NNew      6
 Estimated number of processors is:   18
 CISAX will form     1 AO SS matrices at one time.
 NMat=     1 NSing=     1 JSym2X= 2.
 CoulSu:  requested number of processors reduced to:  20 ShMem   1 Linda.
 NMat=     1 NSing=     1 JSym2X= 2.
 CoulSu:  requested number of processors reduced to:  20 ShMem   1 Linda.
 NMat=     1 NSing=     1 JSym2X= 2.
 CoulSu:  requested number of processors reduced to:  20 ShMem   1 Linda.
 NMat=     1 NSing=     0 JSym2X= 2.
 CoulSu:  requested number of processors reduced to:  20 ShMem   1 Linda.
 NMat=     1 NSing=     0 JSym2X= 2.
 CoulSu:  requested number of processors reduced to:  20 ShMem   1 Linda.
 NMat=     1 NSing=     0 JSym2X= 2.
 CoulSu:  requested number of processors reduced to:  20 ShMem   1 Linda.
 Root      1 not converged, maximum delta is    0.004962390841821
 Excitation Energies [eV] at current iteration:
 Root      1 :     5.483326051794774   Change is   -0.002700412227569
 Root      2 :     6.360477191869681   Change is   -0.000557099636989
 Root      3 :     7.348152707153948   Change is   -0.000393115240429
 Root      4 :     9.066746697342616   Change is   -0.009052376952050
 Root      5 :     9.534159656254502   Change is   -0.005300276674684
 Root      6 :    10.500470778673320   Change is   -0.007973010217123
 Iteration     5 Dimension    66 NMult    60 NNew      6
 Estimated number of processors is:   18
 CISAX will form     1 AO SS matrices at one time.
 NMat=     1 NSing=     1 JSym2X= 2.
 CoulSu:  requested number of processors reduced to:  20 ShMem   1 Linda.
 NMat=     1 NSing=     1 JSym2X= 2.
 CoulSu:  requested number of processors reduced to:  20 ShMem   1 Linda.
 NMat=     1 NSing=     1 JSym2X= 2.
 CoulSu:  requested number of processors reduced to:  20 ShMem   1 Linda.
 NMat=     1 NSing=     0 JSym2X= 2.
 CoulSu:  requested number of processors reduced to:  20 ShMem   1 Linda.
 NMat=     1 NSing=     0 JSym2X= 2.
 CoulSu:  requested number of processors reduced to:  20 ShMem   1 Linda.
 NMat=     1 NSing=     0 JSym2X= 2.
 CoulSu:  requested number of processors reduced to:  20 ShMem   1 Linda.
 Root      1 has converged.
 Excitation Energies [eV] at current iteration:
 Root      1 :     5.483209404760991   Change is   -0.000116647033783
 Root      2 :     6.360421580714683   Change is   -0.000055611154998
 Root      3 :     7.348088946699667   Change is   -0.000063760454281
 Root      4 :     9.065750557370682   Change is   -0.000996139971932
 Root      5 :     9.533152448295782   Change is   -0.001007207958720
 Root      6 :    10.499008206113730   Change is   -0.001462572559592
 Convergence achieved on expansion vectors.
 ***********************************************************************
 Stability analysis using <AA,BB:AA,BB> singles matrix:
 ***********************************************************************
 1PDM for each excited state written to RWF  633
 Ground to excited state transition densities written to RWF  633

 Eigenvectors of the stability matrix:
 
 Eigenvector   1:      Triplet-A1   Eigenvalue= 0.2015042  <S**2>=2.000
      10 -> 18         0.11820
      15 -> 18         0.66910
      15 -> 21        -0.10630
 The wavefunction is stable under the perturbations considered.
 Leave Link  914 at Sat Apr 17 09:19:07 2021, MaxMem=   104857600 cpu:           10359.3 elap:             273.4
 (Enter /s/ls4/users/knvvv/bin/g16sse/l508.exe)
 The wavefunction is already stable.
 Leave Link  508 at Sat Apr 17 09:19:07 2021, MaxMem=   104857600 cpu:               2.2 elap:               0.1
 (Enter /s/ls4/users/knvvv/bin/g16sse/l601.exe)
 Copying SCF densities to generalized density rwf, IOpCl= 0 IROHF=0.

 **********************************************************************

            Population analysis using the SCF density.

 **********************************************************************

 Orbital symmetries:
       Occupied  (B2) (A1) (A1) (A1) (A1) (B2) (A1) (A1) (B2) (B1)
                 (A1) (A2) (A1) (B2) (B1) (B2)
       Virtual   (A1) (B1) (B2) (A1) (B1) (B2) (A1) (A1) (B1) (A2)
                 (B2) (A1) (A1) (A1) (B2) (B1) (A2) (B1) (B2) (A1)
                 (B2) (A1) (A1) (B2) (A1) (B1) (A2) (A1) (B1) (B2)
                 (A1) (A1) (B2) (A2) (B1) (A1) (B2) (A2) (B1) (A1)
                 (B2) (A2) (B1) (A1) (B2) (A1) (A1) (B2) (A1) (B2)
                 (A1) (B1) (A2) (A1) (B1) (B2) (A1) (B2) (A1) (A1)
                 (A2) (B1) (B2) (A1) (B1) (A1) (B2) (A2) (B1) (B2)
                 (A1) (A2) (B1) (B2) (A2) (A1) (B2) (B1) (A1) (A1)
                 (B2) (A1) (B2) (B1) (A1) (A2) (A1) (B2) (B1) (A1)
                 (B2) (B1) (A2) (B2) (A1) (A1) (B2) (B1) (A1) (B2)
                 (B1) (A1) (A2) (B2) (A1) (B1) (A1) (A2) (A2) (A1)
                 (B2) (B1) (B2) (A1) (A2) (B2) (A1) (B2) (B1) (A1)
                 (B1) (A2) (A1) (B2) (B1) (A1) (A1) (B2) (A1) (B1)
                 (B2) (A2) (A1) (B1) (B2) (A2) (A2) (A1) (B1) (B1)
                 (A1) (B2) (B2) (A1) (B1) (B2) (B1) (A1) (A2) (B2)
                 (A2) (A1) (B2) (A1) (B1) (A2) (A1) (B2) (A1) (B2)
                 (B1) (A1) (B2) (A2) (A1) (B1) (A1) (B2) (A1) (A2)
                 (B2) (B1) (A1) (B2) (A1) (A2) (A1) (B1) (A1) (B2)
                 (B1) (B2) (A2) (B1) (B2) (A2) (A1) (B1) (B2) (A1)
                 (A2) (A1) (B1) (B2) (A1) (B1) (A1) (A2) (B2) (B2)
                 (A2) (A1) (B1) (A1) (A2) (B2) (A1) (B1) (B2) (A1)
                 (A2) (B1) (A1) (B2) (A1) (A2) (B2) (B1) (A1) (B2)
                 (A1) (B1) (A2) (A1) (B2) (A2) (B1) (A1) (B2) (A2)
                 (B1) (A1) (B2) (B2) (A1) (A1) (B2) (A1) (A1) (B2)
                 (A1) (A1) (A1) (B2) (A1)
 The electronic state is 1-A1.
 Alpha  occ. eigenvalues --  -25.32715 -25.32713 -19.68483 -10.81800  -1.49745
 Alpha  occ. eigenvalues --   -1.42302  -1.24830  -0.80974  -0.73321  -0.69067
 Alpha  occ. eigenvalues --   -0.66370  -0.59245  -0.57843  -0.57214  -0.48934
 Alpha  occ. eigenvalues --   -0.45295
 Alpha virt. eigenvalues --   -0.00037   0.02281   0.03905   0.03941   0.04158
 Alpha virt. eigenvalues --    0.07829   0.07927   0.08750   0.08890   0.09072
 Alpha virt. eigenvalues --    0.14050   0.14672   0.19648   0.21619   0.21833
 Alpha virt. eigenvalues --    0.22892   0.24042   0.25163   0.25668   0.26579
 Alpha virt. eigenvalues --    0.26866   0.28550   0.28654   0.33974   0.36569
 Alpha virt. eigenvalues --    0.41161   0.43568   0.47221   0.47473   0.48521
 Alpha virt. eigenvalues --    0.50290   0.51017   0.53158   0.53764   0.55809
 Alpha virt. eigenvalues --    0.57153   0.57840   0.58766   0.60748   0.62063
 Alpha virt. eigenvalues --    0.64579   0.66613   0.66831   0.66908   0.68327
 Alpha virt. eigenvalues --    0.69627   0.71525   0.72144   0.75966   0.90886
 Alpha virt. eigenvalues --    0.93494   0.94335   0.95243   0.96846   0.98254
 Alpha virt. eigenvalues --    1.02618   1.09454   1.16556   1.22459   1.36981
 Alpha virt. eigenvalues --    1.39797   1.51404   1.52160   1.57066   1.57860
 Alpha virt. eigenvalues --    1.60068   1.61214   1.66960   1.72455   1.73919
 Alpha virt. eigenvalues --    1.77142   1.77325   1.78173   1.83088   1.85624
 Alpha virt. eigenvalues --    1.86113   1.88207   1.89273   1.92727   1.97448
 Alpha virt. eigenvalues --    2.01050   2.13895   2.14592   2.17648   2.21164
 Alpha virt. eigenvalues --    2.21719   2.26475   2.29009   2.34380   2.34844
 Alpha virt. eigenvalues --    2.38780   2.51853   2.65112   2.76392   2.77214
 Alpha virt. eigenvalues --    2.82075   3.02696   3.08747   3.21442   3.31040
 Alpha virt. eigenvalues --    3.32948   3.49562   3.61326   3.79061   3.80831
 Alpha virt. eigenvalues --    3.91386   3.98683   4.05286   4.13113   4.13635
 Alpha virt. eigenvalues --    4.13887   4.14406   4.26516   4.28255   4.31312
 Alpha virt. eigenvalues --    4.32521   4.34974   4.38734   4.48693   4.49372
 Alpha virt. eigenvalues --    4.55010   4.66447   4.68388   4.75141   4.78966
 Alpha virt. eigenvalues --    4.90742   4.98327   4.99222   5.12075   5.16506
 Alpha virt. eigenvalues --    5.28856   5.29048   5.29981   5.49261   5.49362
 Alpha virt. eigenvalues --    5.49759   5.56856   5.57959   5.61643   5.63239
 Alpha virt. eigenvalues --    5.66232   5.66606   5.76012   5.86281   5.87196
 Alpha virt. eigenvalues --    5.94188   6.04108   6.04649   6.08356   6.08469
 Alpha virt. eigenvalues --    6.14078   6.20875   6.33026   6.34842   6.39058
 Alpha virt. eigenvalues --    6.42813   6.56936   6.59751   6.65570   6.80238
 Alpha virt. eigenvalues --    7.12483   7.15628   7.18859   7.30076   7.34808
 Alpha virt. eigenvalues --    7.50118   7.75876   7.94027   8.76116   8.76480
 Alpha virt. eigenvalues --    8.89694   9.06467   9.34054   9.50460   9.68915
 Alpha virt. eigenvalues --    9.80126   9.82898  10.13711  10.23402  10.43895
 Alpha virt. eigenvalues --   10.84509  10.88167  11.14322  11.26209  11.26236
 Alpha virt. eigenvalues --   11.26285  11.26593  11.26968  11.28073  11.30237
 Alpha virt. eigenvalues --   11.33835  11.37836  11.47654  11.47738  11.65340
 Alpha virt. eigenvalues --   11.68330  11.74855  11.75905  11.79463  11.93567
 Alpha virt. eigenvalues --   11.97273  11.97992  12.04735  12.20579  12.22879
 Alpha virt. eigenvalues --   12.42048  12.53607  13.16366  13.69123  13.97487
 Alpha virt. eigenvalues --   14.39482  14.40289  14.40633  14.41366  14.51059
 Alpha virt. eigenvalues --   14.64567  14.70676  14.76182  14.88425  15.03366
 Alpha virt. eigenvalues --   15.07199  15.34465  15.37597  15.55255  15.64922
 Alpha virt. eigenvalues --   15.82455  15.86055  15.89475  15.92983  15.98643
 Alpha virt. eigenvalues --   16.02623  16.19722  16.34537  16.46715  16.53950
 Alpha virt. eigenvalues --   16.77068  16.77914  28.36432  48.10251  54.76635
 Alpha virt. eigenvalues --   54.79487 145.69817 251.19015 283.78105 283.80888
          Condensed to atoms (all electrons):
               1          2          3          4
     1  O    8.073599   0.564791  -0.072563  -0.072563
     2  C    0.564791   4.026220   0.254989   0.254989
     3  F   -0.072563   0.254989   9.099244  -0.078796
     4  F   -0.072563   0.254989  -0.078796   9.099244
 Mulliken charges:
               1
     1  O   -0.493263
     2  C    0.899011
     3  F   -0.202874
     4  F   -0.202874
 Sum of Mulliken charges =  -0.00000
 Mulliken charges with hydrogens summed into heavy atoms:
               1
     1  O   -0.493263
     2  C    0.899011
     3  F   -0.202874
     4  F   -0.202874
 Electronic spatial extent (au):  <R**2>=            194.1563
 Charge=             -0.0000 electrons
 Dipole moment (field-independent basis, Debye):
    X=              0.0000    Y=             -0.0000    Z=             -1.0776  Tot=              1.0776
 Quadrupole moment (field-independent basis, Debye-Ang):
   XX=            -18.8315   YY=            -21.1827   ZZ=            -23.1694
   XY=             -0.0000   XZ=             -0.0000   YZ=             -0.0000
 Traceless Quadrupole moment (field-independent basis, Debye-Ang):
   XX=              2.2297   YY=             -0.1215   ZZ=             -2.1082
   XY=             -0.0000   XZ=             -0.0000   YZ=             -0.0000
 Octapole moment (field-independent basis, Debye-Ang**2):
  XXX=              0.0000  YYY=             -0.0000  ZZZ=             -8.7349  XYY=              0.0000
  XXY=             -0.0000  XXZ=             -1.6927  XZZ=              0.0000  YZZ=              0.0000
  YYZ=             -1.4617  XYZ=              0.0000
 Hexadecapole moment (field-independent basis, Debye-Ang**3):
 XXXX=            -13.3610 YYYY=            -79.2795 ZZZZ=            -98.9017 XXXY=             -0.0000
 XXXZ=             -0.0000 YYYX=             -0.0000 YYYZ=             -0.0000 ZZZX=             -0.0000
 ZZZY=             -0.0000 XXYY=            -15.4780 XXZZ=            -17.9571 YYZZ=            -29.3222
 XXYZ=             -0.0000 YYXZ=             -0.0000 ZZXY=             -0.0000
 N-N= 1.200149868447D+02 E-N=-9.826477693512D+02  KE= 3.121506667823D+02
 PrsmSu:  requested number of processors reduced to:  21 ShMem   1 Linda.
 No NMR shielding tensors so no spin-rotation constants.
 Leave Link  601 at Sat Apr 17 09:19:12 2021, MaxMem=   104857600 cpu:             235.3 elap:               5.2
 (Enter /s/ls4/users/knvvv/bin/g16sse/l9999.exe)

 Test job not archived.
 1\1\GINC-N184\Stability\RM062X\Gen\C1F2O1\KNVVV\17-Apr-2021\0\\#P M062
 X/GEN Integral=UltraFineGrid SCF=NoSymm Stable=(RExt, Opt) IOp(1/33=1)
 \\Database calculations.\\0,1\O,0,0.,0.,0.\C,0,0.,0.,1.1714365739\F,0,
 1.058662584,0.,1.9423328187\F,0,-1.058662584,0.,1.9423328187\\Version=
 ES64L-G16RevA.03\State=1-A1\HF=-313.071378\RMSD=7.663e-09\Dipole=0.,0.
 ,0.423946\Quadrupole=-0.0903086,1.6577273,-1.5674186,0.,0.,0.\PG=C02V 
 [C2(C1O1),SGV(F2)]\\@


 WHEN A MATHEMATICIAN ENGAGED IN INVESTIGATING
 PHYSICAL ACTIONS AND RESULTS HAS ARRIVED AT HIS
 CONCLUSIONS, MAY THEY NOT BE EXPRESSED IN COMMON
 LANGUAGE AS FULLY, CLEARLY, AND DEFINITELY AS IN
 MATHEMATICAL FORMULAE?
           - LETTER FROM M. FARADAY TO J.C. MAXWELL, 1857.
 Job cpu time:       0 days  5 hours 24 minutes 47.8 seconds.
 Elapsed time:       0 days  0 hours  7 minutes 54.8 seconds.
 File lengths (MBytes):  RWF=    213 Int=      0 D2E=      0 Chk=     10 Scr=      1
 Normal termination of Gaussian 16 at Sat Apr 17 09:19:12 2021.
