 Entering Gaussian System, Link 0=/s/ls4/users/knvvv/bin/g16sse/g16
 Input=data/database/M062X--def2-QZVPPD--92_Pyrazinedimer_dim_S22.gjf
 Output=data/database/M062X--def2-QZVPPD--92_Pyrazinedimer_dim_S22.log
 Initial command:
 /s/ls4/users/knvvv/bin/g16sse/l1.exe "/s/ls4/users/knvvv/bin/scratch/Gau-11026.inp" -scrdir="/s/ls4/users/knvvv/bin/scratch/"
 Entering Link 1 = /s/ls4/users/knvvv/bin/g16sse/l1.exe PID=     11027.
  
 Copyright (c) 1988,1990,1992,1993,1995,1998,2003,2009,2016,
            Gaussian, Inc.  All Rights Reserved.
  
 This is part of the Gaussian(R) 16 program.  It is based on
 the Gaussian(R) 09 system (copyright 2009, Gaussian, Inc.),
 the Gaussian(R) 03 system (copyright 2003, Gaussian, Inc.),
 the Gaussian(R) 98 system (copyright 1998, Gaussian, Inc.),
 the Gaussian(R) 94 system (copyright 1995, Gaussian, Inc.),
 the Gaussian 92(TM) system (copyright 1992, Gaussian, Inc.),
 the Gaussian 90(TM) system (copyright 1990, Gaussian, Inc.),
 the Gaussian 88(TM) system (copyright 1988, Gaussian, Inc.),
 the Gaussian 86(TM) system (copyright 1986, Carnegie Mellon
 University), and the Gaussian 82(TM) system (copyright 1983,
 Carnegie Mellon University). Gaussian is a federally registered
 trademark of Gaussian, Inc.
  
 This software contains proprietary and confidential information,
 including trade secrets, belonging to Gaussian, Inc.
  
 This software is provided under written license and may be
 used, copied, transmitted, or stored only in accord with that
 written license.
  
 The following legend is applicable only to US Government
 contracts under FAR:
  
                    RESTRICTED RIGHTS LEGEND
  
 Use, reproduction and disclosure by the US Government is
 subject to restrictions as set forth in subparagraphs (a)
 and (c) of the Commercial Computer Software - Restricted
 Rights clause in FAR 52.227-19.
  
 Gaussian, Inc.
 340 Quinnipiac St., Bldg. 40, Wallingford CT 06492
  
  
 ---------------------------------------------------------------
 Warning -- This program may not be used in any manner that
 competes with the business of Gaussian, Inc. or will provide
 assistance to any competitor of Gaussian, Inc.  The licensee
 of this program is prohibited from giving any competitor of
 Gaussian, Inc. access to this program.  By using this program,
 the user acknowledges that Gaussian, Inc. is engaged in the
 business of creating and licensing software in the field of
 computational chemistry and represents and warrants to the
 licensee that it is not a competitor of Gaussian, Inc. and that
 it will not use this program in any manner prohibited above.
 ---------------------------------------------------------------
  

 Cite this work as:
 Gaussian 16, Revision A.03,
 M. J. Frisch, G. W. Trucks, H. B. Schlegel, G. E. Scuseria, 
 M. A. Robb, J. R. Cheeseman, G. Scalmani, V. Barone, 
 G. A. Petersson, H. Nakatsuji, X. Li, M. Caricato, A. V. Marenich, 
 J. Bloino, B. G. Janesko, R. Gomperts, B. Mennucci, H. P. Hratchian, 
 J. V. Ortiz, A. F. Izmaylov, J. L. Sonnenberg, D. Williams-Young, 
 F. Ding, F. Lipparini, F. Egidi, J. Goings, B. Peng, A. Petrone, 
 T. Henderson, D. Ranasinghe, V. G. Zakrzewski, J. Gao, N. Rega, 
 G. Zheng, W. Liang, M. Hada, M. Ehara, K. Toyota, R. Fukuda, 
 J. Hasegawa, M. Ishida, T. Nakajima, Y. Honda, O. Kitao, H. Nakai, 
 T. Vreven, K. Throssell, J. A. Montgomery, Jr., J. E. Peralta, 
 F. Ogliaro, M. J. Bearpark, J. J. Heyd, E. N. Brothers, K. N. Kudin, 
 V. N. Staroverov, T. A. Keith, R. Kobayashi, J. Normand, 
 K. Raghavachari, A. P. Rendell, J. C. Burant, S. S. Iyengar, 
 J. Tomasi, M. Cossi, J. M. Millam, M. Klene, C. Adamo, R. Cammi, 
 J. W. Ochterski, R. L. Martin, K. Morokuma, O. Farkas, 
 J. B. Foresman, and D. J. Fox, Gaussian, Inc., Wallingford CT, 2016.
 
 ******************************************
 Gaussian 16:  ES64L-G16RevA.03 25-Dec-2016
                18-Apr-2021 
 ******************************************
 %RWF=temp5_68846,70GB
 %nprocshared=48
 Will use up to   48 processors via shared memory.
 Default route: MaxDisk=80GB
 ----------------------------------------------------------------------
 #P M062X/GEN Integral=UltraFineGrid SCF=NoSymm Stable=(RExt, Opt) IOp(
 1/33=1)
 ----------------------------------------------------------------------
 1/33=1,38=1,172=1/1;
 2/12=2,17=6,18=5,40=1/2;
 3/5=7,11=2,25=1,30=1,74=-55,75=-5/1,2,3;
 4/9=2/1;
 5/5=2,38=5/2;
 6/7=2,8=2,9=2,10=2,28=1/1;
 8/6=1,10=90,11=11/1;
 9/8=-3,42=1,46=1/14;
 5/5=2,8=3,17=40,38=5/8(-2);
 6/7=2,8=2,9=2,10=2,28=1/1;
 99/5=1,9=1/99;
 Leave Link    1 at Sun Apr 18 13:08:41 2021, MaxMem=           0 cpu:              10.8 elap:               0.2
 (Enter /s/ls4/users/knvvv/bin/g16sse/l101.exe)
 ONIOM data not found on unit 2.
 ----------------------
 Database calculations.
 ----------------------
 TstMul:  ICh=     0
 TstMul:  Mul=     1
 TstMul:  ICh=     0
 TstMul:  Mul=     1
 Symbolic Z-matrix:
 Charge =  0 Multiplicity = 1
 C                    -1.24719  -1.17182  -0.69614 
 C                    -1.24719  -1.17182   0.69614 
 N                    -0.25895  -1.72358   1.41448 
 C                     0.73153  -2.26522   0.69673 
 C                     0.73153  -2.26522  -0.69673 
 N                    -0.25895  -1.72358  -1.41448 
 H                    -2.06344  -0.72232  -1.24728 
 H                    -2.06344  -0.72232   1.24728 
 H                     1.5488   -2.71283   1.24756 
 H                     1.5488   -2.71283  -1.24756 
 C                    -0.338     2.08006   1.13005 
 C                     0.85403   1.35935   1.13063 
 N                     1.47018   0.99076   0. 
 C                     0.85403   1.35935  -1.13063 
 C                    -0.338     2.08006  -1.13005 
 N                    -0.95231   2.45288   0. 
 H                    -0.81038   2.3643    2.06186 
 H                     1.32086   1.06706   2.0624 
 H                     1.32086   1.06706  -2.0624 
 H                    -0.81038   2.3643   -2.06186 
 
 RdStrC is calling ZToCFu for IStruc=1 NZ=    20.
 PrtBox:  NBox=     2 Levels=  1 BoxLen=    8.00 SMaxX=        9.76
          Shift=            3.899329            5.126502            3.897369
 Box      1 Number                   0 centers from      1 to     15:
 Box      2 Number                   2 centers from     16 to     20:
 After GenITR:
 ITRead=  0  0  0  0  0  0  0  0  0  0  0  0  0  0  0  0  0  0  0  0
 MicOpt= -1 -1 -1 -1 -1 -1 -1 -1 -1 -1 -1 -1 -1 -1 -1 -1 -1 -1 -1 -1
 ITRead=  0  0  0  0  0  0  0  0  0  0  0  0  0  0  0  0  0  0  0  0
 MicOpt= -1 -1 -1 -1 -1 -1 -1 -1 -1 -1 -1 -1 -1 -1 -1 -1 -1 -1 -1 -1
 NAtoms=     20 NQM=       20 NQMF=       0 NMMI=      0 NMMIF=      0
                NMic=       0 NMicF=      0.
                    Isotopes and Nuclear Properties:
 (Nuclear quadrupole moments (NQMom) in fm**2, nuclear magnetic moments (NMagM)
  in nuclear magnetons)

  Atom         1           2           3           4           5           6           7           8           9          10
 IAtWgt=          12          12          14          12          12          14           1           1           1           1
 AtmWgt=  12.0000000  12.0000000  14.0030740  12.0000000  12.0000000  14.0030740   1.0078250   1.0078250   1.0078250   1.0078250
 NucSpn=           0           0           2           0           0           2           1           1           1           1
 AtZEff=  -0.0000000  -0.0000000  -0.0000000  -0.0000000  -0.0000000  -0.0000000  -0.0000000  -0.0000000  -0.0000000  -0.0000000
 NQMom=    0.0000000   0.0000000   2.0440000   0.0000000   0.0000000   2.0440000   0.0000000   0.0000000   0.0000000   0.0000000
 NMagM=    0.0000000   0.0000000   0.4037610   0.0000000   0.0000000   0.4037610   2.7928460   2.7928460   2.7928460   2.7928460
 AtZNuc=   6.0000000   6.0000000   7.0000000   6.0000000   6.0000000   7.0000000   1.0000000   1.0000000   1.0000000   1.0000000

  Atom        11          12          13          14          15          16          17          18          19          20
 IAtWgt=          12          12          14          12          12          14           1           1           1           1
 AtmWgt=  12.0000000  12.0000000  14.0030740  12.0000000  12.0000000  14.0030740   1.0078250   1.0078250   1.0078250   1.0078250
 NucSpn=           0           0           2           0           0           2           1           1           1           1
 AtZEff=  -0.0000000  -0.0000000  -0.0000000  -0.0000000  -0.0000000  -0.0000000  -0.0000000  -0.0000000  -0.0000000  -0.0000000
 NQMom=    0.0000000   0.0000000   2.0440000   0.0000000   0.0000000   2.0440000   0.0000000   0.0000000   0.0000000   0.0000000
 NMagM=    0.0000000   0.0000000   0.4037610   0.0000000   0.0000000   0.4037610   2.7928460   2.7928460   2.7928460   2.7928460
 AtZNuc=   6.0000000   6.0000000   7.0000000   6.0000000   6.0000000   7.0000000   1.0000000   1.0000000   1.0000000   1.0000000
 No MM parameters found.
 Leave Link  101 at Sun Apr 18 13:08:41 2021, MaxMem=   104857600 cpu:               8.1 elap:               0.2
 (Enter /s/ls4/users/knvvv/bin/g16sse/l202.exe)
                          Input orientation:                          
 ---------------------------------------------------------------------
 Center     Atomic      Atomic             Coordinates (Angstroms)
 Number     Number       Type             X           Y           Z
 ---------------------------------------------------------------------
      1          6           0       -1.247189   -1.171821   -0.696139
      2          6           0       -1.247189   -1.171821    0.696139
      3          7           0       -0.258951   -1.723577    1.414480
      4          6           0        0.731533   -2.265222    0.696729
      5          6           0        0.731533   -2.265222   -0.696729
      6          7           0       -0.258951   -1.723577   -1.414480
      7          1           0       -2.063436   -0.722320   -1.247280
      8          1           0       -2.063436   -0.722320    1.247280
      9          1           0        1.548800   -2.712828    1.247560
     10          1           0        1.548800   -2.712828   -1.247560
     11          6           0       -0.338003    2.080061    1.130045
     12          6           0        0.854025    1.359347    1.130631
     13          7           0        1.470179    0.990760    0.000000
     14          6           0        0.854025    1.359347   -1.130631
     15          6           0       -0.338003    2.080061   -1.130045
     16          7           0       -0.952306    2.452884    0.000000
     17          1           0       -0.810376    2.364303    2.061864
     18          1           0        1.320858    1.067061    2.062399
     19          1           0        1.320858    1.067061   -2.062399
     20          1           0       -0.810376    2.364303   -2.061864
 ---------------------------------------------------------------------
                    Distance matrix (angstroms):
                    1          2          3          4          5
     1  C    0.000000
     2  C    1.392278   0.000000
     3  N    2.394945   1.340546   0.000000
     4  C    2.655362   2.260723   1.337761   0.000000
     5  C    2.260723   2.655362   2.394084   1.393458   0.000000
     6  N    1.340546   2.394945   2.828959   2.394084   1.337761
     7  H    1.082620   2.155269   3.368033   3.737856   3.239677
     8  H    2.155269   1.082620   2.070420   3.239677   3.737856
     9  H    3.737677   3.239804   2.067473   1.082448   2.156047
    10  H    3.239804   3.737677   3.366458   2.156047   1.082448
    11  C    3.838789   3.404355   3.815077   4.495904   4.833476
    12  C    3.762845   3.318237   3.289940   3.652503   4.061004
    13  N    3.541956   3.541956   3.515433   3.410637   3.410637
    14  C    3.318237   3.762845   4.149786   4.061004   3.652503
    15  C    3.404355   3.838789   4.576955   4.833476   4.495904
    16  N    3.702709   3.702709   4.463666   5.057792   5.057792
    17  H    4.505726   3.815782   4.175397   5.066911   5.605339
    18  H    4.383719   3.670712   3.271583   3.649174   4.366257
    19  H    3.670712   4.383719   4.729920   4.366257   3.649174
    20  H    3.815782   4.505726   5.394423   5.605339   5.066911
                    6          7          8          9         10
     6  N    0.000000
     7  H    2.070420   0.000000
     8  H    3.368033   2.494559   0.000000
     9  H    3.366458   4.820229   4.124364   0.000000
    10  H    2.067473   4.124364   4.820229   2.495121   0.000000
    11  C    4.576955   4.059819   3.293053   5.152244   5.673167
    12  C    4.149786   4.301090   3.585879   4.132674   4.766667
    13  N    3.515433   4.120289   4.120289   3.908856   3.908856
    14  C    3.289940   3.585879   4.301090   4.766667   4.132674
    15  C    3.815077   3.293053   4.059819   5.673167   5.152244
    16  N    4.463666   3.587790   3.587790   5.873374   5.873374
    17  H    5.394423   4.695512   3.429424   5.657391   6.503481
    18  H    4.729920   5.060564   3.914046   3.873433   5.029448
    19  H    3.271583   3.914046   5.060564   5.029448   3.873433
    20  H    4.175397   3.429424   4.695512   6.503481   5.657391
                   11         12         13         14         15
    11  C    0.000000
    12  C    1.392968   0.000000
    13  N    2.394389   1.339338   0.000000
    14  C    2.655375   2.261262   1.339338   0.000000
    15  C    2.260090   2.655375   2.394389   1.392968   0.000000
    16  N    1.339167   2.395200   2.829530   2.395200   1.339167
    17  H    1.082690   2.155775   3.367319   3.737940   3.239169
    18  H    2.155753   1.082384   2.069204   3.240185   3.737604
    19  H    3.737604   3.240185   2.069204   1.082384   2.155753
    20  H    3.239169   3.737940   3.367319   2.155775   1.082690
                   16         17         18         19         20
    16  N    0.000000
    17  H    2.068641   0.000000
    18  H    3.367680   2.494994   0.000000
    19  H    3.367680   4.820222   4.124797   0.000000
    20  H    2.068641   4.123729   4.820222   2.494994   0.000000
 Stoichiometry    C8H8N4
 Framework group  CS[SG(N2),X(C8H8N2)]
 Deg. of freedom    28
 Full point group                 CS      NOp   2
 Largest Abelian subgroup         CS      NOp   2
 Largest concise Abelian subgroup CS      NOp   2
                         Standard orientation:                         
 ---------------------------------------------------------------------
 Center     Atomic      Atomic             Coordinates (Angstroms)
 Number     Number       Type             X           Y           Z
 ---------------------------------------------------------------------
      1          6           0        1.266049   -1.151320    0.696139
      2          6           0        1.266049   -1.151320   -0.696139
      3          7           0        0.286923   -1.719089   -1.414480
      4          6           0       -0.694612   -2.276786   -0.696729
      5          6           0       -0.694612   -2.276786    0.696729
      6          7           0        0.286923   -1.719089    1.414480
      7          1           0        2.074871   -0.688591    1.247280
      8          1           0        2.074871   -0.688591   -1.247280
      9          1           0       -1.504485   -2.737636   -1.247560
     10          1           0       -1.504485   -2.737636    1.247560
     11          6           0        0.304049    2.085331   -1.130045
     12          6           0       -0.876090    1.345309   -1.130631
     13          7           0       -1.486161    0.966741   -0.000000
     14          6           0       -0.876090    1.345309    1.130631
     15          6           0        0.304049    2.085331    1.130045
     16          7           0        0.912202    2.468104   -0.000000
     17          1           0        0.771732    2.377225   -2.061864
     18          1           0       -1.338103    1.045463   -2.062399
     19          1           0       -1.338103    1.045463    2.062399
     20          1           0        0.771732    2.377225    2.061864
 ---------------------------------------------------------------------
 Rotational constants (GHZ):           1.6982928           0.7793536           0.7443054
 Leave Link  202 at Sun Apr 18 13:08:42 2021, MaxMem=   104857600 cpu:              13.7 elap:               0.3
 (Enter /s/ls4/users/knvvv/bin/g16sse/l301.exe)
 General basis read from cards:  (5D, 7F)
 Centers:       7      8      9     10     17     18     19     20
 S 4 1.00
     Exponent=  1.9069169000D+02 Coefficients=  7.0815167000D-04
     Exponent=  2.8605532000D+01 Coefficients=  5.4678827000D-03
     Exponent=  6.5095943000D+00 Coefficients=  2.7966605000D-02
     Exponent=  1.8412455000D+00 Coefficients=  1.0764538000D-01
 S 1 1.00
     Exponent=  5.9853725000D-01 Coefficients=  1.0000000000D+00
 S 1 1.00
     Exponent=  2.1397624000D-01 Coefficients=  1.0000000000D+00
 S 1 1.00
     Exponent=  8.0316286000D-02 Coefficients=  1.0000000000D+00
 P 1 1.00
     Exponent=  2.2920000000D+00 Coefficients=  1.0000000000D+00
 P 1 1.00
     Exponent=  8.3800000000D-01 Coefficients=  1.0000000000D+00
 P 1 1.00
     Exponent=  2.9200000000D-01 Coefficients=  1.0000000000D+00
 P 1 1.00
     Exponent=  8.4063199228D-02 Coefficients=  1.0000000000D+00
 D 1 1.00
     Exponent=  2.0620000000D+00 Coefficients=  1.0000000000D+00
 D 1 1.00
     Exponent=  6.6200000000D-01 Coefficients=  1.0000000000D+00
 F 1 1.00
     Exponent=  1.3970000000D+00 Coefficients=  1.0000000000D+00
 ****
 Centers:       1      2      4      5     11     12     14     15
 S 8 1.00
     Exponent=  6.7025071029D+04 Coefficients=  3.8736308501D-05
     Exponent=  1.0039986538D+04 Coefficients=  3.0107917575D-04
     Exponent=  2.2849316911D+03 Coefficients=  1.5787918095D-03
     Exponent=  6.4714122130D+02 Coefficients=  6.6087087195D-03
     Exponent=  2.1109472335D+02 Coefficients=  2.3367123250D-02
     Exponent=  7.6177643862D+01 Coefficients=  7.0420716898D-02
     Exponent=  2.9633839163D+01 Coefficients=  1.7360344953D-01
     Exponent=  1.2187785081D+01 Coefficients=  3.2292305648D-01
 S 2 1.00
     Exponent=  5.3026006299D+01 Coefficients=  7.4897404492D-02
     Exponent=  1.5258502776D+01 Coefficients=  7.6136220983D-01
 S 1 1.00
     Exponent=  5.2403957464D+00 Coefficients=  1.0000000000D+00
 S 1 1.00
     Exponent=  2.2905022379D+00 Coefficients=  1.0000000000D+00
 S 1 1.00
     Exponent=  6.9673283006D-01 Coefficients=  1.0000000000D+00
 S 1 1.00
     Exponent=  2.7599337363D-01 Coefficients=  1.0000000000D+00
 S 1 1.00
     Exponent=  1.0739884389D-01 Coefficients=  1.0000000000D+00
 S 1 1.00
     Exponent=  4.4981404899D-02 Coefficients=  1.0000000000D+00
 P 5 1.00
     Exponent=  1.0512555082D+02 Coefficients=  8.4647553844D-04
     Exponent=  2.4884461066D+01 Coefficients=  6.6274038534D-03
     Exponent=  7.8637230826D+00 Coefficients=  3.0120390419D-02
     Exponent=  2.8407001835D+00 Coefficients=  9.9951435476D-02
     Exponent=  1.1227137335D+00 Coefficients=  2.3826299282D-01
 P 1 1.00
     Exponent=  4.6050725555D-01 Coefficients=  1.0000000000D+00
 P 1 1.00
     Exponent=  1.8937530913D-01 Coefficients=  1.0000000000D+00
 P 1 1.00
     Exponent=  7.5983791611D-02 Coefficients=  1.0000000000D+00
 D 1 1.00
     Exponent=  1.8480000000D+00 Coefficients=  1.0000000000D+00
 D 1 1.00
     Exponent=  6.4900000000D-01 Coefficients=  1.0000000000D+00
 D 1 1.00
     Exponent=  2.2800000000D-01 Coefficients=  1.0000000000D+00
 D 1 1.00
     Exponent=  7.6889830417D-02 Coefficients=  1.0000000000D+00
 F 1 1.00
     Exponent=  1.4190000000D+00 Coefficients=  1.0000000000D+00
 F 1 1.00
     Exponent=  4.8500000000D-01 Coefficients=  1.0000000000D+00
 G 1 1.00
     Exponent=  1.0110000000D+00 Coefficients=  1.0000000000D+00
 ****
 Centers:       3      6     13     16
 S 8 1.00
     Exponent=  9.0726889210D+04 Coefficients=  3.9257887368D-05
     Exponent=  1.3590528801D+04 Coefficients=  3.0513316455D-04
     Exponent=  3.0929883781D+03 Coefficients=  1.6000560446D-03
     Exponent=  8.7599876362D+02 Coefficients=  6.6982937306D-03
     Exponent=  2.8574469982D+02 Coefficients=  2.3690078765D-02
     Exponent=  1.0311913417D+02 Coefficients=  7.1455405268D-02
     Exponent=  4.0128556777D+01 Coefficients=  1.7632774876D-01
     Exponent=  1.6528095704D+01 Coefficients=  3.2677592815D-01
 S 2 1.00
     Exponent=  6.9390960983D+01 Coefficients=  8.0052094386D-02
     Exponent=  2.0428200596D+01 Coefficients=  7.8268063538D-01
 S 1 1.00
     Exponent=  7.1292587972D+00 Coefficients=  1.0000000000D+00
 S 1 1.00
     Exponent=  3.1324304893D+00 Coefficients=  1.0000000000D+00
 S 1 1.00
     Exponent=  9.8755778723D-01 Coefficients=  1.0000000000D+00
 S 1 1.00
     Exponent=  3.8765721307D-01 Coefficients=  1.0000000000D+00
 S 1 1.00
     Exponent=  1.4909883075D-01 Coefficients=  1.0000000000D+00
 S 1 1.00
     Exponent=  6.2151630318D-02 Coefficients=  1.0000000000D+00
 P 5 1.00
     Exponent=  1.5005742670D+02 Coefficients= -8.6216165986D-04
     Exponent=  3.5491599483D+01 Coefficients= -6.8571273236D-03
     Exponent=  1.1247864223D+01 Coefficients= -3.1795688855D-02
     Exponent=  4.0900305195D+00 Coefficients= -1.0537396822D-01
     Exponent=  1.6220573146D+00 Coefficients= -2.4519708041D-01
 P 1 1.00
     Exponent=  6.6442261530D-01 Coefficients=  1.0000000000D+00
 P 1 1.00
     Exponent=  2.7099770070D-01 Coefficients=  1.0000000000D+00
 P 1 1.00
     Exponent=  1.0688749984D-01 Coefficients=  1.0000000000D+00
 D 1 1.00
     Exponent=  2.8370000000D+00 Coefficients=  1.0000000000D+00
 D 1 1.00
     Exponent=  9.6800000000D-01 Coefficients=  1.0000000000D+00
 D 1 1.00
     Exponent=  3.3500000000D-01 Coefficients=  1.0000000000D+00
 D 1 1.00
     Exponent=  1.0825280010D-01 Coefficients=  1.0000000000D+00
 F 1 1.00
     Exponent=  2.0270000000D+00 Coefficients=  1.0000000000D+00
 F 1 1.00
     Exponent=  6.8500000000D-01 Coefficients=  1.0000000000D+00
 G 1 1.00
     Exponent=  1.4270000000D+00 Coefficients=  1.0000000000D+00
 ****
 Ernie: Thresh=  0.10000D-02 Tol=  0.10000D-05 Strict=F.
 There are   653 symmetry adapted cartesian basis functions of A'  symmetry.
 There are   599 symmetry adapted cartesian basis functions of A"  symmetry.
 There are   529 symmetry adapted basis functions of A'  symmetry.
 There are   491 symmetry adapted basis functions of A"  symmetry.
  1020 basis functions,  1516 primitive gaussians,  1252 cartesian basis functions
    42 alpha electrons       42 beta electrons
       nuclear repulsion energy       654.1320251055 Hartrees.
 IExCor= 4336 DFT=T Ex+Corr=M062X ExCW=0 ScaHFX=  0.540000
 ScaDFX=  1.000000  1.000000  1.000000  1.000000 ScalE2=  1.000000  1.000000
 IRadAn=      5 IRanWt=     -1 IRanGd=            0 ICorTp=0 IEmpDi=  4
 NAtoms=   20 NActive=   20 NUniq=   11 SFac= 3.31D+00 NAtFMM=   60 NAOKFM=F Big=F
 Integral buffers will be    131072 words long.
 Raffenetti 2 integral format.
 Two-electron integral symmetry is turned on.
 Leave Link  301 at Sun Apr 18 13:08:42 2021, MaxMem=   104857600 cpu:               8.3 elap:               0.2
 (Enter /s/ls4/users/knvvv/bin/g16sse/l302.exe)
 NPDir=0 NMtPBC=     1 NCelOv=     1 NCel=       1 NClECP=     1 NCelD=      1
         NCelK=      1 NCelE2=     1 NClLst=     1 CellRange=     0.0.
 One-electron integrals computed using PRISM.
 One-electron integral symmetry used in STVInt
 PrsmSu:  requested number of processors reduced to:   3 ShMem   1 Linda.
 PrsmSu:  requested number of processors reduced to:  16 ShMem   1 Linda.
 NBasis=  1020 RedAO= T EigKep=  1.03D-06  NBF=   529   491
 NBsUse=  1014 1.00D-06 EigRej=  4.02D-07 NBFU=   528   486
 Precomputing XC quadrature grid using
 IXCGrd= 4 IRadAn=           5 IRanWt=          -1 IRanGd=           0 AccXCQ= 0.00D+00.
 Generated NRdTot=       0 NPtTot=           0 NUsed=           0 NTot=          32
 NSgBfM=  1237  1237  1237  1237  1237 MxSgAt=    20 MxSgA2=    20.
 Leave Link  302 at Sun Apr 18 13:09:17 2021, MaxMem=   104857600 cpu:            1672.7 elap:              35.7
 (Enter /s/ls4/users/knvvv/bin/g16sse/l303.exe)
 DipDrv:  MaxL=1.
 Leave Link  303 at Sun Apr 18 13:09:36 2021, MaxMem=   104857600 cpu:             851.0 elap:              18.2
 (Enter /s/ls4/users/knvvv/bin/g16sse/l401.exe)
 SCF N**3 symmetry information disabled.
 ExpMin= 4.50D-02 ExpMax= 9.07D+04 ExpMxC= 8.76D+02 IAcc=3 IRadAn=         5 AccDes= 0.00D+00
 Harris functional with IExCor= 1009 and IRadAn=       5 diagonalized for initial guess.
 HarFok:  IExCor= 1009 AccDes= 0.00D+00 IRadAn=         5 IDoV= 1 UseB2=F ITyADJ=14
 ICtDFT=  3500011 ScaDFX=  1.000000  1.000000  1.000000  1.000000
 CalDSu:  requested number of processors reduced to:  36 ShMem   1 Linda.
 FoFCou: FMM=F IPFlag=           0 FMFlag=      100000 FMFlg1=           0
         NFxFlg=           0 DoJE=T BraDBF=F KetDBF=T FulRan=T
         wScrn=  0.000000 ICntrl=       500 IOpCl=  0 I1Cent=   200000004 NGrid=           0
         NMat0=    1 NMatS0=      1 NMatT0=    0 NMatD0=    1 NMtDS0=    0 NMtDT0=    0
 Petite list used in FoFCou.
 CoulSu:  requested number of processors reduced to:  13 ShMem   1 Linda.
 CoulSu:  requested number of processors reduced to:  14 ShMem   1 Linda.
 CoulSu:  requested number of processors reduced to:  20 ShMem   1 Linda.
 CoulSu:  requested number of processors reduced to:  20 ShMem   1 Linda.
 Harris En= -528.319113736306    
 JPrj=0 DoOrth=F DoCkMO=F.
 Initial guess orbital symmetries:
       Occupied  (A") (A') (A') (A') (A') (A') (A") (A') (A") (A')
                 (A") (A") (A') (A') (A") (A') (A') (A") (A') (A')
                 (A") (A") (A') (A") (A') (A') (A") (A') (A') (A")
                 (A') (A') (A") (A") (A") (A') (A') (A") (A') (A")
                 (A') (A')
       Virtual   (A') (A') (A") (A") (A') (A') (A") (A') (A") (A')
                 (A") (A') (A') (A") (A') (A") (A') (A') (A') (A")
                 (A') (A") (A') (A") (A') (A') (A') (A') (A") (A')
                 (A") (A") (A") (A') (A') (A") (A") (A') (A') (A")
                 (A") (A") (A') (A') (A') (A") (A') (A") (A') (A')
                 (A') (A") (A") (A') (A") (A') (A') (A") (A') (A')
                 (A") (A') (A') (A") (A") (A") (A') (A') (A") (A")
                 (A') (A") (A') (A") (A') (A') (A") (A') (A") (A')
                 (A") (A') (A') (A") (A') (A") (A') (A") (A') (A")
                 (A") (A") (A') (A') (A") (A') (A') (A") (A') (A")
                 (A") (A') (A') (A") (A') (A") (A') (A') (A") (A')
                 (A") (A') (A') (A") (A") (A') (A") (A') (A') (A")
                 (A") (A') (A") (A') (A") (A') (A") (A') (A") (A')
                 (A") (A') (A") (A') (A') (A") (A") (A') (A") (A')
                 (A') (A") (A") (A') (A') (A") (A') (A") (A") (A')
                 (A") (A') (A") (A') (A") (A') (A') (A") (A') (A")
                 (A') (A") (A") (A') (A') (A') (A') (A") (A") (A")
                 (A') (A') (A") (A') (A') (A") (A') (A") (A') (A")
                 (A') (A') (A") (A') (A") (A") (A') (A") (A') (A")
                 (A') (A') (A") (A') (A") (A') (A') (A") (A") (A')
                 (A') (A") (A') (A") (A') (A') (A") (A') (A") (A")
                 (A') (A") (A') (A") (A') (A") (A') (A') (A") (A')
                 (A") (A") (A') (A") (A') (A') (A") (A') (A") (A")
                 (A') (A") (A') (A") (A') (A') (A") (A") (A') (A")
                 (A') (A') (A") (A") (A') (A") (A') (A") (A') (A')
                 (A") (A') (A') (A") (A') (A") (A") (A') (A") (A')
                 (A") (A") (A') (A") (A') (A") (A') (A') (A") (A')
                 (A") (A") (A') (A") (A') (A") (A") (A') (A") (A')
                 (A") (A') (A') (A") (A') (A') (A") (A') (A') (A')
                 (A") (A') (A") (A') (A') (A") (A') (A') (A') (A")
                 (A') (A") (A') (A") (A') (A") (A') (A') (A") (A')
                 (A") (A') (A") (A") (A') (A') (A') (A") (A') (A")
                 (A') (A") (A") (A') (A") (A') (A') (A') (A") (A')
                 (A") (A") (A') (A') (A") (A") (A') (A') (A") (A")
                 (A") (A') (A') (A") (A') (A") (A') (A') (A") (A')
                 (A") (A") (A') (A") (A') (A") (A') (A') (A") (A")
                 (A') (A") (A') (A") (A') (A") (A') (A") (A") (A")
                 (A') (A') (A") (A') (A") (A') (A") (A') (A') (A")
                 (A') (A") (A') (A") (A') (A") (A') (A") (A") (A')
                 (A') (A") (A") (A') (A") (A') (A') (A") (A') (A")
                 (A') (A") (A') (A") (A") (A') (A") (A") (A') (A')
                 (A") (A") (A') (A') (A") (A') (A") (A') (A") (A')
                 (A") (A") (A') (A') (A") (A") (A') (A") (A') (A")
                 (A") (A') (A') (A") (A') (A') (A") (A') (A') (A")
                 (A') (A") (A") (A') (A") (A') (A') (A") (A') (A")
                 (A') (A") (A") (A') (A') (A') (A') (A") (A') (A")
                 (A') (A") (A') (A') (A") (A') (A") (A") (A') (A")
                 (A') (A') (A") (A') (A") (A') (A") (A') (A") (A')
                 (A") (A') (A") (A') (A") (A") (A") (A") (A') (A')
                 (A') (A') (A") (A') (A') (A") (A') (A") (A') (A')
                 (A") (A') (A") (A") (A") (A') (A") (A') (A') (A")
                 (A") (A") (A') (A") (A') (A") (A") (A") (A') (A")
                 (A') (A") (A') (A') (A') (A') (A") (A") (A") (A')
                 (A') (A") (A') (A") (A") (A") (A') (A") (A') (A')
                 (A") (A") (A') (A") (A') (A') (A') (A") (A') (A")
                 (A') (A') (A") (A') (A") (A') (A") (A') (A") (A')
                 (A") (A') (A') (A') (A') (A') (A") (A') (A') (A")
                 (A') (A') (A') (A") (A') (A') (A") (A") (A') (A")
                 (A") (A') (A") (A") (A") (A') (A") (A') (A") (A')
                 (A") (A') (A') (A") (A') (A') (A") (A') (A") (A')
                 (A") (A') (A") (A") (A') (A') (A") (A') (A') (A")
                 (A') (A") (A') (A") (A') (A") (A') (A") (A") (A')
                 (A") (A") (A") (A') (A") (A") (A') (A") (A') (A')
                 (A") (A') (A") (A') (A") (A') (A") (A') (A") (A')
                 (A') (A') (A') (A") (A') (A") (A") (A') (A") (A')
                 (A") (A') (A") (A") (A') (A") (A') (A") (A') (A")
                 (A") (A') (A") (A") (A') (A') (A") (A') (A") (A")
                 (A") (A') (A') (A') (A") (A') (A") (A') (A') (A")
                 (A') (A") (A') (A') (A") (A") (A') (A') (A") (A")
                 (A') (A") (A") (A") (A') (A") (A") (A') (A') (A")
                 (A') (A") (A') (A") (A') (A') (A") (A") (A') (A')
                 (A") (A") (A') (A") (A') (A') (A") (A') (A") (A")
                 (A') (A") (A") (A') (A') (A") (A') (A") (A") (A")
                 (A') (A') (A') (A") (A') (A") (A") (A") (A') (A')
                 (A') (A') (A') (A") (A") (A') (A') (A') (A") (A')
                 (A") (A') (A") (A") (A') (A") (A') (A') (A") (A")
                 (A') (A') (A") (A') (A") (A") (A') (A') (A") (A")
                 (A") (A') (A') (A") (A") (A') (A") (A") (A") (A')
                 (A') (A") (A') (A") (A") (A') (A') (A') (A') (A")
                 (A') (A") (A') (A") (A') (A') (A") (A') (A') (A")
                 (A") (A') (A") (A") (A") (A') (A") (A") (A') (A')
                 (A") (A') (A') (A") (A') (A") (A") (A') (A") (A')
                 (A") (A') (A") (A') (A') (A") (A') (A") (A') (A")
                 (A') (A') (A') (A') (A") (A") (A") (A') (A") (A")
                 (A') (A") (A') (A") (A') (A") (A') (A") (A') (A")
                 (A") (A") (A') (A') (A') (A") (A') (A') (A') (A")
                 (A') (A") (A') (A") (A') (A') (A") (A") (A") (A")
                 (A') (A") (A') (A") (A') (A') (A') (A") (A") (A")
                 (A') (A") (A') (A') (A") (A') (A') (A') (A") (A")
                 (A') (A') (A') (A") (A') (A") (A") (A") (A") (A")
                 (A') (A') (A") (A') (A") (A') (A') (A") (A') (A")
                 (A") (A") (A') (A") (A') (A") (A") (A") (A") (A")
                 (A') (A') (A') (A") (A') (A") (A') (A") (A") (A')
                 (A') (A') (A") (A') (A') (A") (A") (A") (A') (A")
                 (A') (A') (A') (A") (A") (A') (A") (A") (A') (A')
                 (A') (A") (A') (A") (A") (A") (A') (A') (A') (A")
                 (A') (A') (A') (A") (A') (A") (A") (A") (A') (A')
                 (A') (A")
 The electronic state of the initial guess is 1-A'.
 Leave Link  401 at Sun Apr 18 13:09:43 2021, MaxMem=   104857600 cpu:             285.3 elap:               7.2
 (Enter /s/ls4/users/knvvv/bin/g16sse/l502.exe)
 Integral symmetry usage will be decided dynamically.
 Closed shell SCF:
 Using DIIS extrapolation, IDIIS=  1040.
 NGot=   104857600 LenX=   101650308 LenY=   100081552
 Requested convergence on RMS density matrix=1.00D-08 within 128 cycles.
 Requested convergence on MAX density matrix=1.00D-06.
 Requested convergence on             energy=1.00D-06.
 No special actions if energy rises.
 Fock matrices will be formed incrementally for  20 cycles.

 Cycle   1  Pass 1  IDiag  1:
 FoFJK:  IHMeth= 1 ICntrl=       0 DoSepK=F KAlg= 0 I1Cent=           0 FoldK=F
 IRaf= 900000000 NMat=       1 IRICut=       1 DoRegI=T DoRafI=F ISym2E= 1 IDoP0=0 IntGTp=1.
 FoFCou: FMM=F IPFlag=           0 FMFlag=      100000 FMFlg1=           0
         NFxFlg=           0 DoJE=F BraDBF=F KetDBF=F FulRan=T
         wScrn=  0.000000 ICntrl=         0 IOpCl=  0 I1Cent=           0 NGrid=           0
         NMat0=    1 NMatS0=      1 NMatT0=    0 NMatD0=    1 NMtDS0=    0 NMtDT0=    0
 Petite list used in FoFCou.
 CoulSu:  requested number of processors reduced to:  16 ShMem   1 Linda.
 CalDSu:  requested number of processors reduced to:  35 ShMem   1 Linda.
 E= -528.472127708415    
 DIIS: error= 2.35D-02 at cycle   1 NSaved=   1.
 NSaved= 1 IEnMin= 1 EnMin= -528.472127708415     IErMin= 1 ErrMin= 2.35D-02
 ErrMax= 2.35D-02  0.00D+00 EMaxC= 1.00D-01 BMatC= 4.51D-01 BMatP= 4.51D-01
 IDIUse=3 WtCom= 7.65D-01 WtEn= 2.35D-01
 Coeff-Com:  0.100D+01
 Coeff-En:   0.100D+01
 Coeff:      0.100D+01
 Gap=     0.296 Goal=   None    Shift=    0.000
 GapD=    0.296 DampG=1.000 DampE=0.500 DampFc=0.5000 IDamp=-1.
 Damping current iteration by 5.00D-01
 RMSDP=4.74D-03 MaxDP=5.32D-01              OVMax= 9.55D-02

 Cycle   2  Pass 1  IDiag  1:
 RMSU=  1.29D-03    CP:  6.56D-01
 CoulSu:  requested number of processors reduced to:  16 ShMem   1 Linda.
 CalDSu:  requested number of processors reduced to:  35 ShMem   1 Linda.
 E= -528.569367012780     Delta-E=       -0.097239304365 Rises=F Damp=T
 DIIS: error= 1.14D-02 at cycle   2 NSaved=   2.
 NSaved= 2 IEnMin= 2 EnMin= -528.569367012780     IErMin= 2 ErrMin= 1.14D-02
 ErrMax= 1.14D-02  0.00D+00 EMaxC= 1.00D-01 BMatC= 8.03D-02 BMatP= 4.51D-01
 IDIUse=3 WtCom= 8.86D-01 WtEn= 1.14D-01
 Coeff-Com: -0.528D+00 0.153D+01
 Coeff-En:   0.000D+00 0.100D+01
 Coeff:     -0.468D+00 0.147D+01
 Gap=     0.351 Goal=   None    Shift=    0.000
 RMSDP=2.62D-03 MaxDP=2.83D-01 DE=-9.72D-02 OVMax= 4.97D-02

 Cycle   3  Pass 1  IDiag  1:
 RMSU=  1.14D-03    CP:  3.00D-01  1.89D+00
 CoulSu:  requested number of processors reduced to:  16 ShMem   1 Linda.
 CalDSu:  requested number of processors reduced to:  35 ShMem   1 Linda.
 E= -528.646891973274     Delta-E=       -0.077524960494 Rises=F Damp=F
 DIIS: error= 5.42D-03 at cycle   3 NSaved=   3.
 NSaved= 3 IEnMin= 3 EnMin= -528.646891973274     IErMin= 3 ErrMin= 5.42D-03
 ErrMax= 5.42D-03  0.00D+00 EMaxC= 1.00D-01 BMatC= 9.25D-03 BMatP= 8.03D-02
 IDIUse=3 WtCom= 9.46D-01 WtEn= 5.42D-02
 Coeff-Com: -0.243D+00 0.549D+00 0.694D+00
 Coeff-En:   0.000D+00 0.000D+00 0.100D+01
 Coeff:     -0.230D+00 0.519D+00 0.711D+00
 Gap=     0.291 Goal=   None    Shift=    0.000
 RMSDP=2.11D-04 MaxDP=2.57D-02 DE=-7.75D-02 OVMax= 1.78D-02

 Cycle   4  Pass 1  IDiag  1:
 RMSU=  1.56D-04    CP:  3.02D-01  1.90D+00  8.75D-01
 CoulSu:  requested number of processors reduced to:  16 ShMem   1 Linda.
 CalDSu:  requested number of processors reduced to:  35 ShMem   1 Linda.
 E= -528.654532237310     Delta-E=       -0.007640264036 Rises=F Damp=F
 DIIS: error= 1.13D-03 at cycle   4 NSaved=   4.
 NSaved= 4 IEnMin= 4 EnMin= -528.654532237310     IErMin= 4 ErrMin= 1.13D-03
 ErrMax= 1.13D-03  0.00D+00 EMaxC= 1.00D-01 BMatC= 7.62D-04 BMatP= 9.25D-03
 IDIUse=3 WtCom= 9.89D-01 WtEn= 1.13D-02
 Coeff-Com: -0.794D-01 0.171D+00 0.310D+00 0.598D+00
 Coeff-En:   0.000D+00 0.000D+00 0.000D+00 0.100D+01
 Coeff:     -0.785D-01 0.169D+00 0.307D+00 0.603D+00
 Gap=     0.290 Goal=   None    Shift=    0.000
 RMSDP=6.05D-05 MaxDP=7.40D-03 DE=-7.64D-03 OVMax= 7.66D-03

 Cycle   5  Pass 1  IDiag  1:
 RMSU=  5.29D-05    CP:  3.00D-01  1.89D+00  8.59D-01  8.93D-01
 CoulSu:  requested number of processors reduced to:  16 ShMem   1 Linda.
 CalDSu:  requested number of processors reduced to:  35 ShMem   1 Linda.
 E= -528.655086200913     Delta-E=       -0.000553963602 Rises=F Damp=F
 DIIS: error= 3.05D-04 at cycle   5 NSaved=   5.
 NSaved= 5 IEnMin= 5 EnMin= -528.655086200913     IErMin= 5 ErrMin= 3.05D-04
 ErrMax= 3.05D-04  0.00D+00 EMaxC= 1.00D-01 BMatC= 8.75D-05 BMatP= 7.62D-04
 IDIUse=3 WtCom= 9.97D-01 WtEn= 3.05D-03
 Coeff-Com: -0.253D-01 0.532D-01 0.116D+00 0.322D+00 0.534D+00
 Coeff-En:   0.000D+00 0.000D+00 0.000D+00 0.636D-02 0.994D+00
 Coeff:     -0.252D-01 0.531D-01 0.115D+00 0.321D+00 0.535D+00
 Gap=     0.290 Goal=   None    Shift=    0.000
 RMSDP=1.71D-05 MaxDP=1.66D-03 DE=-5.54D-04 OVMax= 2.88D-03

 Cycle   6  Pass 1  IDiag  1:
 RMSU=  1.42D-05    CP:  3.00D-01  1.89D+00  8.55D-01  9.09D-01  1.14D+00
 CoulSu:  requested number of processors reduced to:  16 ShMem   1 Linda.
 CalDSu:  requested number of processors reduced to:  35 ShMem   1 Linda.
 E= -528.655158246078     Delta-E=       -0.000072045166 Rises=F Damp=F
 DIIS: error= 6.38D-05 at cycle   6 NSaved=   6.
 NSaved= 6 IEnMin= 6 EnMin= -528.655158246078     IErMin= 6 ErrMin= 6.38D-05
 ErrMax= 6.38D-05  0.00D+00 EMaxC= 1.00D-01 BMatC= 2.14D-06 BMatP= 8.75D-05
 IDIUse=1 WtCom= 1.00D+00 WtEn= 0.00D+00
 Coeff-Com: -0.209D-02 0.448D-02 0.149D-01 0.600D-01 0.160D+00 0.763D+00
 Coeff:     -0.209D-02 0.448D-02 0.149D-01 0.600D-01 0.160D+00 0.763D+00
 Gap=     0.290 Goal=   None    Shift=    0.000
 RMSDP=8.18D-06 MaxDP=5.80D-04 DE=-7.20D-05 OVMax= 8.25D-04

 Cycle   7  Pass 1  IDiag  1:
 RMSU=  4.09D-06    CP:  3.00D-01  1.88D+00  8.54D-01  9.21D-01  1.25D+00
                    CP:  1.17D+00
 CoulSu:  requested number of processors reduced to:  16 ShMem   1 Linda.
 CalDSu:  requested number of processors reduced to:  35 ShMem   1 Linda.
 E= -528.655159310216     Delta-E=       -0.000001064137 Rises=F Damp=F
 DIIS: error= 4.30D-05 at cycle   7 NSaved=   7.
 NSaved= 7 IEnMin= 7 EnMin= -528.655159310216     IErMin= 7 ErrMin= 4.30D-05
 ErrMax= 4.30D-05  0.00D+00 EMaxC= 1.00D-01 BMatC= 1.13D-06 BMatP= 2.14D-06
 IDIUse=1 WtCom= 1.00D+00 WtEn= 0.00D+00
 Coeff-Com:  0.309D-02-0.645D-02-0.107D-01-0.188D-01 0.391D-02 0.459D+00
 Coeff-Com:  0.570D+00
 Coeff:      0.309D-02-0.645D-02-0.107D-01-0.188D-01 0.391D-02 0.459D+00
 Coeff:      0.570D+00
 Gap=     0.290 Goal=   None    Shift=    0.000
 RMSDP=2.54D-06 MaxDP=2.22D-04 DE=-1.06D-06 OVMax= 3.31D-04

 Cycle   8  Pass 1  IDiag  1:
 RMSU=  1.44D-06    CP:  3.00D-01  1.88D+00  8.54D-01  9.23D-01  1.27D+00
                    CP:  1.27D+00  1.11D+00
 CoulSu:  requested number of processors reduced to:  16 ShMem   1 Linda.
 CalDSu:  requested number of processors reduced to:  35 ShMem   1 Linda.
 E= -528.655160302793     Delta-E=       -0.000000992577 Rises=F Damp=F
 DIIS: error= 5.08D-06 at cycle   8 NSaved=   8.
 NSaved= 8 IEnMin= 8 EnMin= -528.655160302793     IErMin= 8 ErrMin= 5.08D-06
 ErrMax= 5.08D-06  0.00D+00 EMaxC= 1.00D-01 BMatC= 2.13D-08 BMatP= 1.13D-06
 IDIUse=1 WtCom= 1.00D+00 WtEn= 0.00D+00
 Coeff-Com:  0.958D-03-0.203D-02-0.382D-02-0.883D-02-0.667D-02 0.983D-01
 Coeff-Com:  0.175D+00 0.747D+00
 Coeff:      0.958D-03-0.203D-02-0.382D-02-0.883D-02-0.667D-02 0.983D-01
 Coeff:      0.175D+00 0.747D+00
 Gap=     0.290 Goal=   None    Shift=    0.000
 RMSDP=1.16D-06 MaxDP=1.67D-04 DE=-9.93D-07 OVMax= 4.55D-05

 Cycle   9  Pass 1  IDiag  1:
 RMSU=  6.75D-07    CP:  3.00D-01  1.88D+00  8.55D-01  9.21D-01  1.26D+00
                    CP:  1.27D+00  1.16D+00  1.21D+00
 CoulSu:  requested number of processors reduced to:  16 ShMem   1 Linda.
 CalDSu:  requested number of processors reduced to:  35 ShMem   1 Linda.
 E= -528.655160322714     Delta-E=       -0.000000019921 Rises=F Damp=F
 DIIS: error= 1.89D-06 at cycle   9 NSaved=   9.
 NSaved= 9 IEnMin= 9 EnMin= -528.655160322714     IErMin= 9 ErrMin= 1.89D-06
 ErrMax= 1.89D-06  0.00D+00 EMaxC= 1.00D-01 BMatC= 2.72D-09 BMatP= 2.13D-08
 IDIUse=1 WtCom= 1.00D+00 WtEn= 0.00D+00
 Coeff-Com: -0.686D-04 0.125D-03 0.610D-04-0.577D-03-0.166D-02-0.169D-01
 Coeff-Com: -0.872D-02 0.254D+00 0.774D+00
 Coeff:     -0.686D-04 0.125D-03 0.610D-04-0.577D-03-0.166D-02-0.169D-01
 Coeff:     -0.872D-02 0.254D+00 0.774D+00
 Gap=     0.290 Goal=   None    Shift=    0.000
 RMSDP=4.42D-07 MaxDP=7.39D-05 DE=-1.99D-08 OVMax= 2.39D-05

 Cycle  10  Pass 1  IDiag  1:
 RMSU=  1.47D-07    CP:  3.00D-01  1.88D+00  8.55D-01  9.21D-01  1.26D+00
                    CP:  1.27D+00  1.18D+00  1.32D+00  1.24D+00
 CoulSu:  requested number of processors reduced to:  16 ShMem   1 Linda.
 CalDSu:  requested number of processors reduced to:  35 ShMem   1 Linda.
 E= -528.655160325578     Delta-E=       -0.000000002864 Rises=F Damp=F
 DIIS: error= 5.08D-07 at cycle  10 NSaved=  10.
 NSaved=10 IEnMin=10 EnMin= -528.655160325578     IErMin=10 ErrMin= 5.08D-07
 ErrMax= 5.08D-07  0.00D+00 EMaxC= 1.00D-01 BMatC= 2.53D-10 BMatP= 2.72D-09
 IDIUse=1 WtCom= 1.00D+00 WtEn= 0.00D+00
 Coeff-Com: -0.676D-04 0.136D-03 0.183D-03 0.116D-03-0.300D-03-0.116D-01
 Coeff-Com: -0.133D-01 0.487D-01 0.280D+00 0.696D+00
 Coeff:     -0.676D-04 0.136D-03 0.183D-03 0.116D-03-0.300D-03-0.116D-01
 Coeff:     -0.133D-01 0.487D-01 0.280D+00 0.696D+00
 Gap=     0.290 Goal=   None    Shift=    0.000
 RMSDP=6.23D-08 MaxDP=6.23D-06 DE=-2.86D-09 OVMax= 7.70D-06

 Cycle  11  Pass 1  IDiag  1:
 RMSU=  3.28D-08    CP:  3.00D-01  1.88D+00  8.55D-01  9.21D-01  1.26D+00
                    CP:  1.27D+00  1.19D+00  1.33D+00  1.28D+00  1.11D+00
 CoulSu:  requested number of processors reduced to:  16 ShMem   1 Linda.
 CalDSu:  requested number of processors reduced to:  35 ShMem   1 Linda.
 E= -528.655160325717     Delta-E=       -0.000000000138 Rises=F Damp=F
 DIIS: error= 2.66D-07 at cycle  11 NSaved=  11.
 NSaved=11 IEnMin=11 EnMin= -528.655160325717     IErMin=11 ErrMin= 2.66D-07
 ErrMax= 2.66D-07  0.00D+00 EMaxC= 1.00D-01 BMatC= 5.18D-11 BMatP= 2.53D-10
 IDIUse=1 WtCom= 1.00D+00 WtEn= 0.00D+00
 Coeff-Com: -0.923D-05 0.206D-04 0.338D-04 0.494D-04 0.921D-04-0.165D-02
 Coeff-Com: -0.403D-02-0.226D-01-0.123D-01 0.322D+00 0.718D+00
 Coeff:     -0.923D-05 0.206D-04 0.338D-04 0.494D-04 0.921D-04-0.165D-02
 Coeff:     -0.403D-02-0.226D-01-0.123D-01 0.322D+00 0.718D+00
 Gap=     0.290 Goal=   None    Shift=    0.000
 RMSDP=2.36D-08 MaxDP=1.78D-06 DE=-1.38D-10 OVMax= 5.38D-06

 Cycle  12  Pass 1  IDiag  1:
 RMSU=  1.49D-08    CP:  3.00D-01  1.88D+00  8.55D-01  9.21D-01  1.26D+00
                    CP:  1.27D+00  1.19D+00  1.34D+00  1.30D+00  1.16D+00
                    CP:  1.13D+00
 CoulSu:  requested number of processors reduced to:  16 ShMem   1 Linda.
 CalDSu:  requested number of processors reduced to:  35 ShMem   1 Linda.
 E= -528.655160325776     Delta-E=       -0.000000000060 Rises=F Damp=F
 DIIS: error= 1.09D-07 at cycle  12 NSaved=  12.
 NSaved=12 IEnMin=12 EnMin= -528.655160325776     IErMin=12 ErrMin= 1.09D-07
 ErrMax= 1.09D-07  0.00D+00 EMaxC= 1.00D-01 BMatC= 4.08D-12 BMatP= 5.18D-11
 IDIUse=1 WtCom= 1.00D+00 WtEn= 0.00D+00
 Coeff-Com: -0.726D-06 0.227D-05 0.588D-05 0.145D-04 0.577D-04-0.221D-04
 Coeff-Com: -0.866D-03-0.937D-02-0.159D-01 0.498D-01 0.254D+00 0.722D+00
 Coeff:     -0.726D-06 0.227D-05 0.588D-05 0.145D-04 0.577D-04-0.221D-04
 Coeff:     -0.866D-03-0.937D-02-0.159D-01 0.498D-01 0.254D+00 0.722D+00
 Gap=     0.290 Goal=   None    Shift=    0.000
 RMSDP=5.60D-09 MaxDP=6.29D-07 DE=-5.96D-11 OVMax= 1.28D-06

 SCF Done:  E(RM062X) =  -528.655160326     A.U. after   12 cycles
            NFock= 12  Conv=0.56D-08     -V/T= 2.0045
 KE= 5.262951048346D+02 PE=-2.537910414185D+03 EE= 8.288281239195D+02
 Leave Link  502 at Sun Apr 18 13:37:24 2021, MaxMem=   104857600 cpu:           43068.0 elap:            1660.9
 (Enter /s/ls4/users/knvvv/bin/g16sse/l601.exe)
 Copying SCF densities to generalized density rwf, IOpCl= 0 IROHF=0.

 **********************************************************************

            Population analysis using the SCF density.

 **********************************************************************

 Orbital symmetries:
       Occupied  (A') (A') (A") (A') (A") (A') (A') (A') (A") (A")
                 (A') (A") (A') (A') (A') (A") (A") (A') (A') (A')
                 (A") (A") (A') (A') (A") (A') (A') (A") (A') (A")
                 (A') (A') (A") (A") (A") (A') (A") (A') (A') (A")
                 (A') (A')
       Virtual   (A') (A') (A") (A") (A') (A') (A") (A') (A") (A')
                 (A") (A') (A') (A") (A') (A') (A') (A") (A") (A')
                 (A') (A") (A') (A") (A') (A') (A") (A') (A") (A')
                 (A') (A") (A') (A') (A") (A") (A') (A") (A') (A")
                 (A") (A') (A") (A') (A') (A") (A') (A") (A') (A")
                 (A') (A') (A") (A') (A") (A') (A') (A') (A") (A")
                 (A') (A') (A') (A") (A") (A') (A") (A") (A') (A')
                 (A') (A") (A') (A") (A') (A") (A") (A') (A') (A")
                 (A") (A") (A') (A") (A') (A") (A") (A') (A') (A")
                 (A') (A") (A") (A') (A') (A") (A') (A') (A') (A')
                 (A') (A") (A') (A') (A") (A") (A') (A") (A") (A')
                 (A') (A") (A') (A") (A') (A") (A") (A') (A') (A')
                 (A") (A") (A") (A') (A') (A") (A') (A') (A") (A")
                 (A") (A') (A') (A") (A") (A') (A') (A") (A') (A")
                 (A") (A') (A") (A') (A') (A") (A") (A') (A") (A')
                 (A") (A") (A') (A") (A') (A") (A') (A") (A') (A")
                 (A') (A") (A') (A') (A') (A") (A') (A") (A") (A')
                 (A") (A') (A") (A') (A') (A') (A") (A') (A") (A')
                 (A') (A') (A") (A') (A") (A") (A') (A') (A") (A")
                 (A') (A') (A") (A') (A") (A') (A') (A") (A") (A')
                 (A') (A') (A") (A") (A') (A") (A') (A") (A') (A")
                 (A') (A") (A') (A") (A') (A") (A') (A') (A") (A')
                 (A") (A') (A") (A") (A') (A") (A') (A") (A') (A")
                 (A') (A") (A') (A") (A') (A") (A') (A") (A") (A')
                 (A') (A") (A") (A') (A') (A") (A') (A") (A") (A')
                 (A') (A') (A") (A') (A') (A") (A") (A') (A") (A")
                 (A") (A') (A') (A") (A") (A') (A') (A") (A') (A")
                 (A') (A") (A') (A") (A') (A") (A") (A") (A') (A')
                 (A") (A') (A') (A') (A") (A') (A") (A') (A') (A')
                 (A") (A') (A") (A') (A') (A") (A') (A') (A") (A')
                 (A') (A") (A') (A") (A') (A") (A") (A') (A') (A')
                 (A") (A") (A') (A") (A') (A') (A") (A') (A") (A')
                 (A") (A') (A") (A") (A') (A') (A") (A') (A') (A")
                 (A') (A") (A') (A') (A') (A") (A") (A') (A") (A")
                 (A") (A') (A") (A') (A") (A') (A') (A') (A") (A')
                 (A") (A") (A') (A') (A") (A') (A") (A') (A") (A")
                 (A') (A') (A") (A") (A") (A') (A') (A") (A") (A")
                 (A') (A') (A") (A') (A") (A') (A") (A') (A') (A")
                 (A') (A') (A') (A") (A") (A') (A") (A') (A") (A")
                 (A') (A") (A") (A') (A") (A') (A") (A') (A") (A')
                 (A") (A') (A") (A') (A") (A") (A') (A") (A') (A")
                 (A') (A") (A') (A') (A") (A") (A') (A') (A") (A")
                 (A') (A") (A') (A') (A") (A") (A') (A") (A") (A')
                 (A') (A") (A") (A') (A') (A") (A') (A") (A") (A')
                 (A") (A') (A') (A') (A") (A') (A") (A") (A') (A')
                 (A") (A') (A") (A') (A') (A') (A') (A') (A") (A")
                 (A') (A') (A") (A') (A") (A") (A') (A") (A') (A")
                 (A') (A") (A') (A') (A") (A') (A") (A") (A') (A')
                 (A") (A") (A') (A") (A') (A") (A") (A") (A') (A')
                 (A') (A') (A') (A") (A') (A") (A') (A") (A') (A")
                 (A') (A") (A') (A") (A") (A') (A") (A') (A") (A")
                 (A') (A") (A") (A') (A") (A') (A") (A") (A') (A")
                 (A') (A") (A') (A") (A') (A') (A") (A") (A') (A')
                 (A') (A") (A") (A") (A') (A') (A") (A") (A') (A')
                 (A") (A") (A') (A") (A') (A') (A') (A") (A') (A')
                 (A') (A") (A") (A') (A') (A") (A') (A") (A") (A')
                 (A") (A') (A') (A') (A') (A') (A") (A') (A') (A")
                 (A') (A') (A') (A') (A") (A") (A") (A') (A") (A')
                 (A") (A') (A") (A") (A") (A') (A") (A') (A") (A')
                 (A") (A") (A') (A') (A") (A") (A') (A') (A') (A")
                 (A') (A") (A') (A") (A') (A") (A') (A") (A') (A')
                 (A") (A') (A') (A") (A') (A") (A') (A") (A") (A')
                 (A") (A") (A') (A") (A') (A") (A") (A") (A') (A')
                 (A") (A') (A") (A') (A") (A') (A') (A") (A') (A')
                 (A") (A') (A') (A") (A') (A") (A") (A") (A") (A')
                 (A') (A") (A') (A") (A') (A") (A') (A") (A') (A")
                 (A") (A') (A") (A") (A') (A") (A') (A") (A') (A")
                 (A") (A') (A') (A') (A") (A') (A") (A') (A') (A")
                 (A') (A") (A') (A') (A") (A") (A') (A') (A") (A')
                 (A") (A") (A") (A') (A") (A') (A") (A") (A') (A")
                 (A') (A") (A') (A") (A') (A') (A") (A") (A') (A')
                 (A") (A") (A') (A") (A') (A') (A") (A') (A") (A")
                 (A') (A") (A") (A') (A') (A") (A") (A') (A") (A")
                 (A") (A") (A') (A') (A') (A") (A') (A') (A') (A')
                 (A") (A') (A') (A") (A") (A') (A") (A') (A") (A')
                 (A') (A') (A") (A') (A") (A") (A') (A') (A") (A")
                 (A') (A') (A') (A") (A") (A") (A") (A") (A') (A")
                 (A') (A') (A') (A") (A") (A') (A") (A') (A") (A")
                 (A') (A') (A") (A') (A") (A") (A') (A') (A') (A")
                 (A') (A') (A") (A') (A") (A') (A') (A") (A") (A")
                 (A') (A") (A") (A') (A") (A') (A") (A') (A') (A")
                 (A") (A') (A") (A') (A") (A') (A") (A') (A") (A")
                 (A') (A') (A') (A") (A") (A') (A") (A') (A') (A')
                 (A") (A') (A') (A') (A") (A") (A") (A") (A') (A")
                 (A") (A") (A') (A') (A') (A") (A") (A') (A') (A")
                 (A") (A") (A') (A') (A') (A") (A') (A') (A') (A")
                 (A') (A") (A') (A") (A') (A") (A') (A") (A") (A")
                 (A') (A") (A') (A") (A') (A') (A") (A') (A") (A")
                 (A') (A") (A') (A') (A") (A') (A') (A') (A") (A")
                 (A') (A") (A") (A") (A') (A') (A") (A') (A") (A")
                 (A') (A") (A') (A') (A') (A") (A") (A') (A") (A')
                 (A") (A") (A') (A") (A") (A') (A") (A") (A") (A")
                 (A') (A') (A') (A") (A') (A") (A") (A") (A') (A')
                 (A') (A') (A") (A') (A') (A") (A") (A") (A') (A")
                 (A') (A') (A') (A") (A") (A') (A") (A") (A') (A')
                 (A') (A") (A') (A") (A") (A") (A') (A') (A') (A")
                 (A') (A') (A') (A") (A') (A") (A") (A") (A') (A')
                 (A') (A")
 The electronic state is 1-A'.
 Alpha  occ. eigenvalues --  -14.77810 -14.77770 -14.77708 -14.77707 -10.59561
 Alpha  occ. eigenvalues --  -10.59559 -10.59535 -10.59464 -10.59464 -10.59454
 Alpha  occ. eigenvalues --  -10.59453 -10.59373  -1.10106  -1.09713  -1.02167
 Alpha  occ. eigenvalues --   -1.02096  -0.88223  -0.88152  -0.75471  -0.75397
 Alpha  occ. eigenvalues --   -0.74824  -0.74695  -0.61508  -0.61252  -0.59201
 Alpha  occ. eigenvalues --   -0.59137  -0.56790  -0.56746  -0.52457  -0.51014
 Alpha  occ. eigenvalues --   -0.50971  -0.49105  -0.45537  -0.45427  -0.40035
 Alpha  occ. eigenvalues --   -0.39903  -0.39817  -0.39809  -0.33394  -0.33215
 Alpha  occ. eigenvalues --   -0.32470  -0.32353
 Alpha virt. eigenvalues --   -0.03324  -0.02402  -0.00654   0.00552   0.00590
 Alpha virt. eigenvalues --    0.02069   0.02181   0.02445   0.04199   0.04542
 Alpha virt. eigenvalues --    0.04712   0.06213   0.07192   0.07205   0.08936
 Alpha virt. eigenvalues --    0.09876   0.10597   0.10654   0.11203   0.11267
 Alpha virt. eigenvalues --    0.13063   0.13515   0.14179   0.14915   0.15123
 Alpha virt. eigenvalues --    0.16536   0.16666   0.16974   0.17135   0.17729
 Alpha virt. eigenvalues --    0.17991   0.18365   0.18373   0.19074   0.19114
 Alpha virt. eigenvalues --    0.20118   0.20406   0.20755   0.21032   0.21263
 Alpha virt. eigenvalues --    0.21768   0.22047   0.22450   0.22995   0.24450
 Alpha virt. eigenvalues --    0.24686   0.25192   0.25198   0.25488   0.25636
 Alpha virt. eigenvalues --    0.25971   0.26659   0.26837   0.27059   0.27409
 Alpha virt. eigenvalues --    0.27848   0.28001   0.29281   0.29445   0.30214
 Alpha virt. eigenvalues --    0.30296   0.31083   0.31386   0.31552   0.31981
 Alpha virt. eigenvalues --    0.32007   0.32966   0.33874   0.34189   0.34399
 Alpha virt. eigenvalues --    0.34718   0.35100   0.35554   0.35654   0.36061
 Alpha virt. eigenvalues --    0.36086   0.36540   0.36571   0.37201   0.37455
 Alpha virt. eigenvalues --    0.37773   0.38633   0.38929   0.39435   0.39586
 Alpha virt. eigenvalues --    0.39924   0.40169   0.40692   0.40961   0.41415
 Alpha virt. eigenvalues --    0.41443   0.42171   0.42539   0.43058   0.43338
 Alpha virt. eigenvalues --    0.44126   0.44274   0.44937   0.45796   0.46193
 Alpha virt. eigenvalues --    0.46369   0.46602   0.46863   0.47986   0.48098
 Alpha virt. eigenvalues --    0.48353   0.48480   0.49087   0.49878   0.50296
 Alpha virt. eigenvalues --    0.50590   0.51188   0.51618   0.52219   0.52709
 Alpha virt. eigenvalues --    0.52903   0.53332   0.53471   0.54208   0.54525
 Alpha virt. eigenvalues --    0.55258   0.55710   0.56327   0.56889   0.57647
 Alpha virt. eigenvalues --    0.57807   0.58444   0.58880   0.59243   0.59661
 Alpha virt. eigenvalues --    0.60542   0.60591   0.60994   0.61334   0.61972
 Alpha virt. eigenvalues --    0.61975   0.62560   0.62972   0.62976   0.63145
 Alpha virt. eigenvalues --    0.63939   0.64058   0.65320   0.65673   0.65961
 Alpha virt. eigenvalues --    0.66726   0.67251   0.67279   0.68417   0.68675
 Alpha virt. eigenvalues --    0.69442   0.70335   0.71068   0.72084   0.72177
 Alpha virt. eigenvalues --    0.72958   0.73854   0.74548   0.75393   0.75713
 Alpha virt. eigenvalues --    0.75994   0.76356   0.76575   0.77804   0.78782
 Alpha virt. eigenvalues --    0.79427   0.79824   0.80320   0.80473   0.81575
 Alpha virt. eigenvalues --    0.81980   0.83966   0.84840   0.84986   0.86095
 Alpha virt. eigenvalues --    0.87089   0.87856   0.87912   0.89164   0.89184
 Alpha virt. eigenvalues --    0.90781   0.91443   0.91896   0.93113   0.94472
 Alpha virt. eigenvalues --    0.95495   0.95906   0.96755   0.96802   0.97705
 Alpha virt. eigenvalues --    0.98104   0.98840   0.99570   0.99618   1.00545
 Alpha virt. eigenvalues --    1.01221   1.02192   1.02337   1.03106   1.03319
 Alpha virt. eigenvalues --    1.03911   1.04443   1.04568   1.05680   1.05764
 Alpha virt. eigenvalues --    1.06611   1.06811   1.08217   1.08532   1.10296
 Alpha virt. eigenvalues --    1.10409   1.11288   1.11921   1.12662   1.14348
 Alpha virt. eigenvalues --    1.15119   1.15705   1.16058   1.16151   1.16478
 Alpha virt. eigenvalues --    1.18142   1.18970   1.19138   1.20435   1.21836
 Alpha virt. eigenvalues --    1.22345   1.23598   1.24351   1.24917   1.25422
 Alpha virt. eigenvalues --    1.26034   1.26897   1.27370   1.27983   1.28640
 Alpha virt. eigenvalues --    1.28951   1.29032   1.29916   1.32669   1.32689
 Alpha virt. eigenvalues --    1.33781   1.34598   1.36048   1.36166   1.37120
 Alpha virt. eigenvalues --    1.37897   1.38330   1.38542   1.39184   1.39267
 Alpha virt. eigenvalues --    1.40311   1.41802   1.43560   1.44291   1.45332
 Alpha virt. eigenvalues --    1.45347   1.46239   1.47130   1.47740   1.48489
 Alpha virt. eigenvalues --    1.49134   1.49310   1.51582   1.51694   1.53115
 Alpha virt. eigenvalues --    1.54403   1.55720   1.56659   1.59391   1.59834
 Alpha virt. eigenvalues --    1.60415   1.61168   1.62180   1.63097   1.63824
 Alpha virt. eigenvalues --    1.65528   1.66985   1.67833   1.68311   1.71317
 Alpha virt. eigenvalues --    1.71654   1.72174   1.73868   1.74556   1.76121
 Alpha virt. eigenvalues --    1.76437   1.77014   1.78536   1.80795   1.84214
 Alpha virt. eigenvalues --    1.84295   1.85299   1.85840   1.87594   1.88351
 Alpha virt. eigenvalues --    1.89599   1.89602   1.90491   1.91726   1.92695
 Alpha virt. eigenvalues --    1.95365   1.95387   1.96349   1.96509   1.97696
 Alpha virt. eigenvalues --    1.98754   1.99881   2.01308   2.01797   2.02328
 Alpha virt. eigenvalues --    2.02506   2.04591   2.04630   2.05247   2.06255
 Alpha virt. eigenvalues --    2.08460   2.09351   2.10187   2.10286   2.11261
 Alpha virt. eigenvalues --    2.11902   2.13290   2.14520   2.14570   2.15373
 Alpha virt. eigenvalues --    2.15949   2.17547   2.17699   2.18081   2.18801
 Alpha virt. eigenvalues --    2.19357   2.21180   2.21722   2.22290   2.22978
 Alpha virt. eigenvalues --    2.23035   2.23075   2.24022   2.25726   2.26648
 Alpha virt. eigenvalues --    2.27163   2.27206   2.27676   2.27751   2.29053
 Alpha virt. eigenvalues --    2.29188   2.29512   2.30559   2.31696   2.33855
 Alpha virt. eigenvalues --    2.33864   2.34586   2.35077   2.35786   2.36494
 Alpha virt. eigenvalues --    2.37207   2.38154   2.38720   2.39905   2.40498
 Alpha virt. eigenvalues --    2.41826   2.42556   2.43463   2.45042   2.46023
 Alpha virt. eigenvalues --    2.46567   2.47498   2.48602   2.50736   2.51563
 Alpha virt. eigenvalues --    2.52380   2.53606   2.54797   2.55774   2.57589
 Alpha virt. eigenvalues --    2.58363   2.58887   2.59922   2.60603   2.63056
 Alpha virt. eigenvalues --    2.64415   2.66637   2.67639   2.67833   2.68757
 Alpha virt. eigenvalues --    2.69018   2.69748   2.71441   2.71648   2.71829
 Alpha virt. eigenvalues --    2.71941   2.73024   2.73714   2.73892   2.75053
 Alpha virt. eigenvalues --    2.75885   2.76643   2.76801   2.78830   2.79592
 Alpha virt. eigenvalues --    2.79780   2.80069   2.82083   2.82423   2.82879
 Alpha virt. eigenvalues --    2.84486   2.84757   2.84925   2.87368   2.89006
 Alpha virt. eigenvalues --    2.89139   2.89783   2.91428   2.92833   2.92841
 Alpha virt. eigenvalues --    2.93438   2.94077   2.94993   2.96651   2.98479
 Alpha virt. eigenvalues --    2.99729   3.00262   3.00855   3.01857   3.02417
 Alpha virt. eigenvalues --    3.02856   3.08570   3.09054   3.10152   3.10410
 Alpha virt. eigenvalues --    3.11208   3.11446   3.13470   3.14497   3.16357
 Alpha virt. eigenvalues --    3.16663   3.17928   3.19247   3.20934   3.21395
 Alpha virt. eigenvalues --    3.21882   3.23452   3.24275   3.26053   3.27800
 Alpha virt. eigenvalues --    3.28457   3.28863   3.29323   3.29841   3.30614
 Alpha virt. eigenvalues --    3.31571   3.31573   3.32036   3.32806   3.33323
 Alpha virt. eigenvalues --    3.34833   3.36778   3.37794   3.37899   3.38507
 Alpha virt. eigenvalues --    3.41627   3.43674   3.45537   3.46730   3.49527
 Alpha virt. eigenvalues --    3.52244   3.52330   3.56237   3.56437   3.57353
 Alpha virt. eigenvalues --    3.59729   3.60563   3.60742   3.61383   3.61825
 Alpha virt. eigenvalues --    3.63345   3.63596   3.64085   3.64754   3.65303
 Alpha virt. eigenvalues --    3.67814   3.69338   3.69704   3.70252   3.71183
 Alpha virt. eigenvalues --    3.73435   3.73936   3.77120   3.79756   3.80103
 Alpha virt. eigenvalues --    3.86264   3.89566   3.90954   3.91735   3.91832
 Alpha virt. eigenvalues --    3.94344   3.94759   3.95808   3.96235   3.96380
 Alpha virt. eigenvalues --    3.97774   3.98542   3.98911   3.99336   4.01977
 Alpha virt. eigenvalues --    4.03002   4.03926   4.05453   4.06760   4.07874
 Alpha virt. eigenvalues --    4.08291   4.08612   4.11106   4.11440   4.12811
 Alpha virt. eigenvalues --    4.13629   4.14014   4.15724   4.23001   4.23588
 Alpha virt. eigenvalues --    4.27233   4.27702   4.37481   4.38734   4.39442
 Alpha virt. eigenvalues --    4.40360   4.40414   4.43203   4.44380   4.48243
 Alpha virt. eigenvalues --    4.54423   4.55346   4.62906   4.64014   4.67736
 Alpha virt. eigenvalues --    4.69137   4.70219   4.73188   4.79702   4.80443
 Alpha virt. eigenvalues --    4.80962   4.81397   4.81540   4.82364   4.86161
 Alpha virt. eigenvalues --    4.87795   4.88553   4.89296   4.92632   4.95162
 Alpha virt. eigenvalues --    4.96295   4.97044   4.98786   5.01164   5.03717
 Alpha virt. eigenvalues --    5.04911   5.06641   5.07479   5.12226   5.12599
 Alpha virt. eigenvalues --    5.13767   5.13786   5.14836   5.16700   5.21493
 Alpha virt. eigenvalues --    5.22413   5.22552   5.23072   5.27303   5.29374
 Alpha virt. eigenvalues --    5.35173   5.37428   5.37911   5.39599   5.39737
 Alpha virt. eigenvalues --    5.41145   5.44484   5.44658   5.46991   5.47070
 Alpha virt. eigenvalues --    5.48608   5.49227   5.49231   5.52023   5.53632
 Alpha virt. eigenvalues --    5.54558   5.55721   5.56349   5.57424   5.59942
 Alpha virt. eigenvalues --    5.59948   5.61825   5.62568   5.63491   5.64354
 Alpha virt. eigenvalues --    5.64816   5.65708   5.66758   5.67641   5.67993
 Alpha virt. eigenvalues --    5.69150   5.71221   5.71604   5.75691   5.76055
 Alpha virt. eigenvalues --    5.76784   5.76855   5.79914   5.81034   5.81487
 Alpha virt. eigenvalues --    5.83128   5.83806   5.87038   5.88338   5.88377
 Alpha virt. eigenvalues --    5.88646   5.90080   5.92638   5.93924   5.95008
 Alpha virt. eigenvalues --    5.97392   5.98094   5.98402   5.99285   6.01246
 Alpha virt. eigenvalues --    6.01752   6.02082   6.02705   6.03005   6.03701
 Alpha virt. eigenvalues --    6.05374   6.05917   6.09921   6.10147   6.10274
 Alpha virt. eigenvalues --    6.10754   6.10868   6.12758   6.13154   6.13533
 Alpha virt. eigenvalues --    6.13797   6.14891   6.15885   6.15976   6.16580
 Alpha virt. eigenvalues --    6.17179   6.18258   6.18634   6.20368   6.20680
 Alpha virt. eigenvalues --    6.21761   6.21801   6.22097   6.22889   6.24869
 Alpha virt. eigenvalues --    6.25045   6.27592   6.27671   6.29135   6.29746
 Alpha virt. eigenvalues --    6.30722   6.32027   6.33066   6.34935   6.35302
 Alpha virt. eigenvalues --    6.35531   6.35744   6.36121   6.37253   6.37370
 Alpha virt. eigenvalues --    6.38502   6.39246   6.41284   6.42663   6.43002
 Alpha virt. eigenvalues --    6.46868   6.47331   6.48692   6.51701   6.52701
 Alpha virt. eigenvalues --    6.53842   6.54869   6.55342   6.56089   6.56486
 Alpha virt. eigenvalues --    6.58177   6.58722   6.59418   6.61225   6.61248
 Alpha virt. eigenvalues --    6.61599   6.62500   6.65740   6.66544   6.67010
 Alpha virt. eigenvalues --    6.68106   6.68696   6.68915   6.71813   6.73521
 Alpha virt. eigenvalues --    6.75975   6.76793   6.77281   6.77685   6.78892
 Alpha virt. eigenvalues --    6.79106   6.84358   6.84864   6.98221   6.98613
 Alpha virt. eigenvalues --    6.99683   7.00397   7.02704   7.03552   7.09066
 Alpha virt. eigenvalues --    7.09615   7.09841   7.10764   7.21181   7.21757
 Alpha virt. eigenvalues --    7.21838   7.22950   7.26824   7.27454   7.27870
 Alpha virt. eigenvalues --    7.28103   7.34911   7.35694   7.35851   7.36973
 Alpha virt. eigenvalues --    7.38208   7.38447   7.38580   7.39255   7.39854
 Alpha virt. eigenvalues --    7.40077   7.43793   7.43911   7.44763   7.45446
 Alpha virt. eigenvalues --    7.48178   7.48490   7.49510   7.50659   7.55108
 Alpha virt. eigenvalues --    7.57046   7.58573   7.59494   7.60127   7.60635
 Alpha virt. eigenvalues --    7.62804   7.64038   7.64949   7.65377   7.65854
 Alpha virt. eigenvalues --    7.67725   7.68273   7.69127   7.69345   7.69700
 Alpha virt. eigenvalues --    7.71285   7.71727   7.72326   7.72924   7.75312
 Alpha virt. eigenvalues --    7.77687   7.80702   7.82207   7.83771   7.85277
 Alpha virt. eigenvalues --    7.85928   7.86586   7.87285   7.87558   7.88838
 Alpha virt. eigenvalues --    7.89042   7.89960   7.90410   7.91801   7.92900
 Alpha virt. eigenvalues --    7.95450   7.96257   7.97573   7.98695   7.98703
 Alpha virt. eigenvalues --    7.99437   7.99764   8.02299   8.02574   8.05898
 Alpha virt. eigenvalues --    8.08666   8.10484   8.11547   8.12378   8.16550
 Alpha virt. eigenvalues --    8.16601   8.18087   8.18369   8.19187   8.20327
 Alpha virt. eigenvalues --    8.20470   8.20822   8.21786   8.22996   8.23617
 Alpha virt. eigenvalues --    8.23643   8.24604   8.25177   8.26048   8.26585
 Alpha virt. eigenvalues --    8.28759   8.29978   8.30047   8.30923   8.31618
 Alpha virt. eigenvalues --    8.32246   8.33464   8.34716   8.36856   8.37290
 Alpha virt. eigenvalues --    8.37671   8.39374   8.40357   8.40987   8.41496
 Alpha virt. eigenvalues --    8.42799   8.45839   8.46499   8.48971   8.51055
 Alpha virt. eigenvalues --    8.51547   8.52135   8.54412   8.55459   8.57852
 Alpha virt. eigenvalues --    8.58783   8.59611   8.61509   8.68901   8.69764
 Alpha virt. eigenvalues --    8.77614   8.78042   8.81310   8.82957   8.86056
 Alpha virt. eigenvalues --    8.86897   8.87410   8.87425   8.89494   8.89996
 Alpha virt. eigenvalues --    8.95673   8.96176   9.04426   9.05391   9.06124
 Alpha virt. eigenvalues --    9.06635   9.07433   9.10959   9.11359   9.13081
 Alpha virt. eigenvalues --    9.17693   9.17872   9.20137   9.20804   9.22272
 Alpha virt. eigenvalues --    9.22778   9.22835   9.23275   9.26709   9.31268
 Alpha virt. eigenvalues --    9.35710   9.36548   9.47770   9.48750   9.52009
 Alpha virt. eigenvalues --    9.53306   9.54610   9.54966   9.55028   9.55722
 Alpha virt. eigenvalues --    9.55861   9.58447   9.59575   9.62696   9.67449
 Alpha virt. eigenvalues --    9.67566   9.73978   9.74185   9.78108   9.78858
 Alpha virt. eigenvalues --    9.81671   9.82247   9.83736   9.84296   9.88551
 Alpha virt. eigenvalues --    9.90226   9.90868   9.90974   9.97764   9.98060
 Alpha virt. eigenvalues --   10.00821  10.01116  10.08702  10.09614  10.10135
 Alpha virt. eigenvalues --   10.10443  10.10522  10.10561  10.12018  10.12247
 Alpha virt. eigenvalues --   10.14606  10.15853  10.18169  10.19117  10.35165
 Alpha virt. eigenvalues --   10.35322  10.35408  10.36235  10.55650  10.56177
 Alpha virt. eigenvalues --   10.60211  10.61136  10.90911  10.91088  10.95161
 Alpha virt. eigenvalues --   10.95665  11.24520  11.25124  11.40933  11.44813
 Alpha virt. eigenvalues --   11.60367  11.61915  11.66777  11.67295  11.76875
 Alpha virt. eigenvalues --   11.77690  11.96462  11.96714  12.03217  12.03522
 Alpha virt. eigenvalues --   12.32742  12.37207  12.64832  12.66308  12.82328
 Alpha virt. eigenvalues --   12.82549  12.87018  12.89244  28.41337  28.41440
 Alpha virt. eigenvalues --   28.60276  28.61502  28.95229  28.96227  29.07318
 Alpha virt. eigenvalues --   29.09482  37.61554  37.63014  37.91101  37.92041
 Alpha virt. eigenvalues --  145.90404 145.90668 146.07623 146.09102 146.40815
 Alpha virt. eigenvalues --  146.41942 146.52948 146.55363 195.15822 195.17463
 Alpha virt. eigenvalues --  195.49627 195.50679
          Condensed to atoms (all electrons):
               1          2          3          4          5          6
     1  C    6.194430   0.123239  -0.065773  -0.060073  -0.192836   0.092541
     2  C    0.123239   6.194430   0.092541  -0.192836  -0.060073  -0.065773
     3  N   -0.065773   0.092541   7.279242   0.258061  -0.091357  -0.004082
     4  C   -0.060073  -0.192836   0.258061   5.590858   0.349395  -0.091357
     5  C   -0.192836  -0.060073  -0.091357   0.349395   5.590858   0.258061
     6  N    0.092541  -0.065773  -0.004082  -0.091357   0.258061   7.279242
     7  H    0.343024  -0.065582  -0.008794  -0.009892  -0.016688  -0.154497
     8  H   -0.065582   0.343024  -0.154497  -0.016688  -0.009892  -0.008794
     9  H   -0.022004  -0.009346  -0.116225   0.358272  -0.056889  -0.005142
    10  H   -0.009346  -0.022004  -0.005142  -0.056889   0.358272  -0.116225
    11  C    0.016877  -0.007633  -0.008324  -0.003056  -0.005625  -0.005512
    12  C   -0.028759   0.015772   0.021066  -0.010682   0.014724  -0.011340
    13  N   -0.012652  -0.012652  -0.012929   0.005035   0.005035  -0.012929
    14  C    0.015772  -0.028759  -0.011340   0.014724  -0.010682   0.021066
    15  C   -0.007633   0.016877  -0.005512  -0.005625  -0.003056  -0.008324
    16  N    0.004886   0.004886  -0.000556   0.001500   0.001500  -0.000556
    17  H   -0.002657   0.006640   0.006740  -0.001324  -0.000708  -0.000326
    18  H   -0.004481   0.015577   0.015691  -0.003722  -0.006780  -0.002203
    19  H    0.015577  -0.004481  -0.002203  -0.006780  -0.003722   0.015691
    20  H    0.006640  -0.002657  -0.000326  -0.000708  -0.001324   0.006740
               7          8          9         10         11         12
     1  C    0.343024  -0.065582  -0.022004  -0.009346   0.016877  -0.028759
     2  C   -0.065582   0.343024  -0.009346  -0.022004  -0.007633   0.015772
     3  N   -0.008794  -0.154497  -0.116225  -0.005142  -0.008324   0.021066
     4  C   -0.009892  -0.016688   0.358272  -0.056889  -0.003056  -0.010682
     5  C   -0.016688  -0.009892  -0.056889   0.358272  -0.005625   0.014724
     6  N   -0.154497  -0.008794  -0.005142  -0.116225  -0.005512  -0.011340
     7  H    0.498734   0.066030  -0.001981  -0.004162   0.000481   0.002715
     8  H    0.066030   0.498734  -0.004162  -0.001981  -0.003757   0.005506
     9  H   -0.001981  -0.004162   0.510062   0.054516   0.000030  -0.000105
    10  H   -0.004162  -0.001981   0.054516   0.510062  -0.000734  -0.000817
    11  C    0.000481  -0.003757   0.000030  -0.000734   5.832041   0.202371
    12  C    0.002715   0.005506  -0.000105  -0.000817   0.202371   5.898346
    13  N    0.000255   0.000255   0.019634   0.019634  -0.079479   0.155383
    14  C    0.005506   0.002715  -0.000817  -0.000105  -0.065364  -0.025300
    15  C   -0.003757   0.000481  -0.000734   0.000030  -0.195492  -0.065364
    16  N   -0.003915  -0.003915   0.000177   0.000177   0.267856  -0.094011
    17  H   -0.001205   0.001276   0.000041  -0.000082   0.320624  -0.103599
    18  H   -0.000431   0.000861  -0.000312  -0.000734  -0.086452   0.283035
    19  H    0.000861  -0.000431  -0.000734  -0.000312  -0.013273  -0.005479
    20  H    0.001276  -0.001205  -0.000082   0.000041  -0.014548  -0.003921
              13         14         15         16         17         18
     1  C   -0.012652   0.015772  -0.007633   0.004886  -0.002657  -0.004481
     2  C   -0.012652  -0.028759   0.016877   0.004886   0.006640   0.015577
     3  N   -0.012929  -0.011340  -0.005512  -0.000556   0.006740   0.015691
     4  C    0.005035   0.014724  -0.005625   0.001500  -0.001324  -0.003722
     5  C    0.005035  -0.010682  -0.003056   0.001500  -0.000708  -0.006780
     6  N   -0.012929   0.021066  -0.008324  -0.000556  -0.000326  -0.002203
     7  H    0.000255   0.005506  -0.003757  -0.003915  -0.001205  -0.000431
     8  H    0.000255   0.002715   0.000481  -0.003915   0.001276   0.000861
     9  H    0.019634  -0.000817  -0.000734   0.000177   0.000041  -0.000312
    10  H    0.019634  -0.000105   0.000030   0.000177  -0.000082  -0.000734
    11  C   -0.079479  -0.065364  -0.195492   0.267856   0.320624  -0.086452
    12  C    0.155383  -0.025300  -0.065364  -0.094011  -0.103599   0.283035
    13  N    7.340963   0.155383  -0.079479   0.001709  -0.010340  -0.147697
    14  C    0.155383   5.898346   0.202371  -0.094011  -0.003921  -0.005479
    15  C   -0.079479   0.202371   5.832041   0.267856  -0.014548  -0.013273
    16  N    0.001709  -0.094011   0.267856   7.143126  -0.138009  -0.007006
    17  H   -0.010340  -0.003921  -0.014548  -0.138009   0.594216   0.084064
    18  H   -0.147697  -0.005479  -0.013273  -0.007006   0.084064   0.555325
    19  H   -0.147697   0.283035  -0.086452  -0.007006  -0.003858  -0.005596
    20  H   -0.010340  -0.103599   0.320624  -0.138009  -0.009863  -0.003858
              19         20
     1  C    0.015577   0.006640
     2  C   -0.004481  -0.002657
     3  N   -0.002203  -0.000326
     4  C   -0.006780  -0.000708
     5  C   -0.003722  -0.001324
     6  N    0.015691   0.006740
     7  H    0.000861   0.001276
     8  H   -0.000431  -0.001205
     9  H   -0.000734  -0.000082
    10  H   -0.000312   0.000041
    11  C   -0.013273  -0.014548
    12  C   -0.005479  -0.003921
    13  N   -0.147697  -0.010340
    14  C    0.283035  -0.103599
    15  C   -0.086452   0.320624
    16  N   -0.007006  -0.138009
    17  H   -0.003858  -0.009863
    18  H   -0.005596  -0.003858
    19  H    0.555325   0.084064
    20  H    0.084064   0.594216
 Mulliken charges:
               1
     1  C   -0.341189
     2  C   -0.341189
     3  N   -0.186278
     4  C   -0.118215
     5  C   -0.118215
     6  N   -0.186278
     7  H    0.352024
     8  H    0.352024
     9  H    0.275801
    10  H    0.275801
    11  C   -0.151030
    12  C   -0.249539
    13  N   -0.177091
    14  C   -0.249539
    15  C   -0.151030
    16  N   -0.206677
    17  H    0.276840
    18  H    0.333471
    19  H    0.333471
    20  H    0.276840
 Sum of Mulliken charges =  -0.00000
 Mulliken charges with hydrogens summed into heavy atoms:
               1
     1  C    0.010834
     2  C    0.010834
     3  N   -0.186278
     4  C    0.157586
     5  C    0.157586
     6  N   -0.186278
    11  C    0.125809
    12  C    0.083932
    13  N   -0.177091
    14  C    0.083932
    15  C    0.125809
    16  N   -0.206677
 Electronic spatial extent (au):  <R**2>=           1731.1435
 Charge=             -0.0000 electrons
 Dipole moment (field-independent basis, Debye):
    X=             -0.2061    Y=             -0.0848    Z=             -0.0000  Tot=              0.2229
 Quadrupole moment (field-independent basis, Debye-Ang):
   XX=            -69.0310   YY=            -71.9470   ZZ=            -68.1227
   XY=              1.8102   XZ=             -0.0000   YZ=              0.0000
 Traceless Quadrupole moment (field-independent basis, Debye-Ang):
   XX=              0.6692   YY=             -2.2467   ZZ=              1.5775
   XY=              1.8102   XZ=             -0.0000   YZ=              0.0000
 Octapole moment (field-independent basis, Debye-Ang**2):
  XXX=              8.9405  YYY=            -19.8080  ZZZ=              0.0000  XYY=            -21.5289
  XXY=            -15.4374  XXZ=              0.0000  XZZ=             -4.6493  YZZ=             25.5320
  YYZ=             -0.0000  XYZ=             -0.0000
 Hexadecapole moment (field-independent basis, Debye-Ang**3):
 XXXX=           -452.1439 YYYY=          -1473.7515 ZZZZ=           -536.8038 XXXY=              3.7962
 XXXZ=              0.0000 YYYX=             16.7657 YYYZ=             -0.0000 ZZZX=              0.0000
 ZZZY=              0.0000 XXYY=           -315.3715 XXZZ=           -137.3489 YYZZ=           -317.2503
 XXYZ=              0.0000 YYXZ=             -0.0000 ZZXY=             18.2239
 N-N= 6.541320251055D+02 E-N=-2.537910411856D+03  KE= 5.262951048346D+02
 PrsmSu:  requested number of processors reduced to:  18 ShMem   1 Linda.
 No NMR shielding tensors so no spin-rotation constants.
 Leave Link  601 at Sun Apr 18 13:37:49 2021, MaxMem=   104857600 cpu:            1170.0 elap:              25.3
 (Enter /s/ls4/users/knvvv/bin/g16sse/l801.exe)
 DoSCS=F DFT=T ScalE2(SS,OS)=  1.000000  1.000000
 Range of M.O.s used for correlation:     1  1014
 NBasis=  1020 NAE=    42 NBE=    42 NFC=     0 NFV=     0
 NROrb=   1014 NOA=    42 NOB=    42 NVA=   972 NVB=   972

 **** Warning!!: The largest alpha MO coefficient is  0.12531452D+03

 Leave Link  801 at Sun Apr 18 13:37:49 2021, MaxMem=   104857600 cpu:               5.3 elap:               0.1
 (Enter /s/ls4/users/knvvv/bin/g16sse/l914.exe)
 RHF ground state
 Doing stability rather than CIS.
 Two-electron integrals replicated using symmetry.
 MDV=   104857600 DFT=T DoStab=T Mixed=T DoRPA=F DoScal=F NonHer=F
 Making orbital integer symmetry assigments:
 Orbital symmetries:
       Occupied  (A') (A') (A") (A') (A") (A') (A') (A') (A") (A")
                 (A') (A") (A') (A') (A') (A") (A") (A') (A') (A')
                 (A") (A") (A') (A') (A") (A') (A') (A") (A') (A")
                 (A') (A') (A") (A") (A") (A') (A") (A') (A') (A")
                 (A') (A')
       Virtual   (A') (A') (A") (A") (A') (A') (A") (A') (A") (A')
                 (A") (A') (A') (A") (A') (A') (A') (A") (A") (A')
                 (A') (A") (A') (A") (A') (A') (A") (A') (A") (A')
                 (A') (A") (A') (A') (A") (A") (A') (A") (A') (A")
                 (A") (A') (A") (A') (A') (A") (A') (A") (A') (A")
                 (A') (A') (A") (A') (A") (A') (A') (A') (A") (A")
                 (A') (A') (A') (A") (A") (A') (A") (A") (A') (A')
                 (A') (A") (A') (A") (A') (A") (A") (A') (A') (A")
                 (A") (A") (A') (A") (A') (A") (A") (A') (A') (A")
                 (A') (A") (A") (A') (A') (A") (A') (A') (A') (A')
                 (A') (A") (A') (A') (A") (A") (A') (A") (A") (A')
                 (A') (A") (A') (A") (A') (A") (A") (A') (A') (A')
                 (A") (A") (A") (A') (A') (A") (A') (A') (A") (A")
                 (A") (A') (A') (A") (A") (A') (A') (A") (A') (A")
                 (A") (A') (A") (A') (A') (A") (A") (A') (A") (A')
                 (A") (A") (A') (A") (A') (A") (A') (A") (A') (A")
                 (A') (A") (A') (A') (A') (A") (A') (A") (A") (A')
                 (A") (A') (A") (A') (A') (A') (A") (A') (A") (A')
                 (A') (A') (A") (A') (A") (A") (A') (A') (A") (A")
                 (A') (A') (A") (A') (A") (A') (A') (A") (A") (A')
                 (A') (A') (A") (A") (A') (A") (A') (A") (A') (A")
                 (A') (A") (A') (A") (A') (A") (A') (A') (A") (A')
                 (A") (A') (A") (A") (A') (A") (A') (A") (A') (A")
                 (A') (A") (A') (A") (A') (A") (A') (A") (A") (A')
                 (A') (A") (A") (A') (A') (A") (A') (A") (A") (A')
                 (A') (A') (A") (A') (A') (A") (A") (A') (A") (A")
                 (A") (A') (A') (A") (A") (A') (A') (A") (A') (A")
                 (A') (A") (A') (A") (A') (A") (A") (A") (A') (A')
                 (A") (A') (A') (A') (A") (A') (A") (A') (A') (A')
                 (A") (A') (A") (A') (A') (A") (A') (A') (A") (A')
                 (A') (A") (A') (A") (A') (A") (A") (A') (A') (A')
                 (A") (A") (A') (A") (A') (A') (A") (A') (A") (A')
                 (A") (A') (A") (A") (A') (A') (A") (A') (A') (A")
                 (A') (A") (A') (A') (A') (A") (A") (A') (A") (A")
                 (A") (A') (A") (A') (A") (A') (A') (A') (A") (A')
                 (A") (A") (A') (A') (A") (A') (A") (A') (A") (A")
                 (A') (A') (A") (A") (A") (A') (A') (A") (A") (A")
                 (A') (A') (A") (A') (A") (A') (A") (A') (A') (A")
                 (A') (A') (A') (A") (A") (A') (A") (A') (A") (A")
                 (A') (A") (A") (A') (A") (A') (A") (A') (A") (A')
                 (A") (A') (A") (A') (A") (A") (A') (A") (A') (A")
                 (A') (A") (A') (A') (A") (A") (A') (A') (A") (A")
                 (A') (A") (A') (A') (A") (A") (A') (A") (A") (A')
                 (A') (A") (A") (A') (A') (A") (A') (A") (A") (A')
                 (A") (A') (A') (A') (A") (A') (A") (A") (A') (A')
[...]
 Alpha virt. eigenvalues --    2.15949   2.17547   2.17699   2.18081   2.18801
 Alpha virt. eigenvalues --    2.19357   2.21180   2.21722   2.22290   2.22978
 Alpha virt. eigenvalues --    2.23035   2.23075   2.24022   2.25726   2.26648
 Alpha virt. eigenvalues --    2.27163   2.27206   2.27676   2.27751   2.29053
 Alpha virt. eigenvalues --    2.29188   2.29512   2.30559   2.31696   2.33855
 Alpha virt. eigenvalues --    2.33864   2.34586   2.35077   2.35786   2.36494
 Alpha virt. eigenvalues --    2.37207   2.38154   2.38720   2.39905   2.40498
 Alpha virt. eigenvalues --    2.41826   2.42556   2.43463   2.45042   2.46023
 Alpha virt. eigenvalues --    2.46567   2.47498   2.48602   2.50736   2.51563
 Alpha virt. eigenvalues --    2.52380   2.53606   2.54797   2.55774   2.57589
 Alpha virt. eigenvalues --    2.58363   2.58887   2.59922   2.60603   2.63056
 Alpha virt. eigenvalues --    2.64415   2.66637   2.67639   2.67833   2.68757
 Alpha virt. eigenvalues --    2.69018   2.69748   2.71441   2.71648   2.71829
 Alpha virt. eigenvalues --    2.71941   2.73024   2.73714   2.73892   2.75053
 Alpha virt. eigenvalues --    2.75885   2.76643   2.76801   2.78830   2.79592
 Alpha virt. eigenvalues --    2.79780   2.80069   2.82083   2.82423   2.82879
 Alpha virt. eigenvalues --    2.84486   2.84757   2.84925   2.87368   2.89006
 Alpha virt. eigenvalues --    2.89139   2.89783   2.91428   2.92833   2.92841
 Alpha virt. eigenvalues --    2.93438   2.94077   2.94993   2.96651   2.98479
 Alpha virt. eigenvalues --    2.99729   3.00262   3.00855   3.01857   3.02417
 Alpha virt. eigenvalues --    3.02856   3.08570   3.09054   3.10152   3.10410
 Alpha virt. eigenvalues --    3.11208   3.11446   3.13470   3.14497   3.16357
 Alpha virt. eigenvalues --    3.16663   3.17928   3.19247   3.20934   3.21395
 Alpha virt. eigenvalues --    3.21882   3.23452   3.24275   3.26053   3.27800
 Alpha virt. eigenvalues --    3.28457   3.28863   3.29323   3.29841   3.30614
 Alpha virt. eigenvalues --    3.31571   3.31573   3.32036   3.32806   3.33323
 Alpha virt. eigenvalues --    3.34833   3.36778   3.37794   3.37899   3.38507
 Alpha virt. eigenvalues --    3.41627   3.43674   3.45537   3.46730   3.49527
 Alpha virt. eigenvalues --    3.52244   3.52330   3.56237   3.56437   3.57353
 Alpha virt. eigenvalues --    3.59729   3.60563   3.60742   3.61383   3.61825
 Alpha virt. eigenvalues --    3.63345   3.63596   3.64085   3.64754   3.65303
 Alpha virt. eigenvalues --    3.67814   3.69338   3.69704   3.70252   3.71183
 Alpha virt. eigenvalues --    3.73435   3.73936   3.77120   3.79756   3.80103
 Alpha virt. eigenvalues --    3.86264   3.89566   3.90954   3.91735   3.91832
 Alpha virt. eigenvalues --    3.94344   3.94759   3.95808   3.96235   3.96380
 Alpha virt. eigenvalues --    3.97774   3.98542   3.98911   3.99336   4.01977
 Alpha virt. eigenvalues --    4.03002   4.03926   4.05453   4.06760   4.07874
 Alpha virt. eigenvalues --    4.08291   4.08612   4.11106   4.11440   4.12811
 Alpha virt. eigenvalues --    4.13629   4.14014   4.15724   4.23001   4.23588
 Alpha virt. eigenvalues --    4.27233   4.27702   4.37481   4.38734   4.39442
 Alpha virt. eigenvalues --    4.40360   4.40414   4.43203   4.44380   4.48243
 Alpha virt. eigenvalues --    4.54423   4.55346   4.62906   4.64014   4.67736
 Alpha virt. eigenvalues --    4.69137   4.70219   4.73188   4.79702   4.80443
 Alpha virt. eigenvalues --    4.80962   4.81397   4.81540   4.82364   4.86161
 Alpha virt. eigenvalues --    4.87795   4.88553   4.89296   4.92632   4.95162
 Alpha virt. eigenvalues --    4.96295   4.97044   4.98786   5.01164   5.03717
 Alpha virt. eigenvalues --    5.04911   5.06641   5.07479   5.12226   5.12599
 Alpha virt. eigenvalues --    5.13767   5.13786   5.14836   5.16700   5.21493
 Alpha virt. eigenvalues --    5.22413   5.22552   5.23072   5.27303   5.29374
 Alpha virt. eigenvalues --    5.35173   5.37428   5.37911   5.39599   5.39737
 Alpha virt. eigenvalues --    5.41145   5.44484   5.44658   5.46991   5.47070
 Alpha virt. eigenvalues --    5.48608   5.49227   5.49231   5.52023   5.53632
 Alpha virt. eigenvalues --    5.54558   5.55721   5.56349   5.57424   5.59942
 Alpha virt. eigenvalues --    5.59948   5.61825   5.62568   5.63491   5.64354
 Alpha virt. eigenvalues --    5.64816   5.65708   5.66758   5.67641   5.67993
 Alpha virt. eigenvalues --    5.69150   5.71221   5.71604   5.75691   5.76055
 Alpha virt. eigenvalues --    5.76784   5.76855   5.79914   5.81034   5.81487
 Alpha virt. eigenvalues --    5.83128   5.83806   5.87038   5.88338   5.88377
 Alpha virt. eigenvalues --    5.88646   5.90080   5.92638   5.93924   5.95008
 Alpha virt. eigenvalues --    5.97392   5.98094   5.98402   5.99285   6.01246
 Alpha virt. eigenvalues --    6.01752   6.02082   6.02705   6.03005   6.03701
 Alpha virt. eigenvalues --    6.05374   6.05917   6.09921   6.10147   6.10274
 Alpha virt. eigenvalues --    6.10754   6.10868   6.12758   6.13154   6.13533
 Alpha virt. eigenvalues --    6.13797   6.14891   6.15885   6.15976   6.16580
 Alpha virt. eigenvalues --    6.17179   6.18258   6.18634   6.20368   6.20680
 Alpha virt. eigenvalues --    6.21761   6.21801   6.22097   6.22889   6.24869
 Alpha virt. eigenvalues --    6.25045   6.27592   6.27671   6.29135   6.29746
 Alpha virt. eigenvalues --    6.30722   6.32027   6.33066   6.34935   6.35302
 Alpha virt. eigenvalues --    6.35531   6.35744   6.36121   6.37253   6.37370
 Alpha virt. eigenvalues --    6.38502   6.39246   6.41284   6.42663   6.43002
 Alpha virt. eigenvalues --    6.46868   6.47331   6.48692   6.51701   6.52701
 Alpha virt. eigenvalues --    6.53842   6.54869   6.55342   6.56089   6.56486
 Alpha virt. eigenvalues --    6.58177   6.58722   6.59418   6.61225   6.61248
 Alpha virt. eigenvalues --    6.61599   6.62500   6.65740   6.66544   6.67010
 Alpha virt. eigenvalues --    6.68106   6.68696   6.68915   6.71813   6.73521
 Alpha virt. eigenvalues --    6.75975   6.76793   6.77281   6.77685   6.78892
 Alpha virt. eigenvalues --    6.79106   6.84358   6.84864   6.98221   6.98613
 Alpha virt. eigenvalues --    6.99683   7.00397   7.02704   7.03552   7.09066
 Alpha virt. eigenvalues --    7.09615   7.09841   7.10764   7.21181   7.21757
 Alpha virt. eigenvalues --    7.21838   7.22950   7.26824   7.27454   7.27870
 Alpha virt. eigenvalues --    7.28103   7.34911   7.35694   7.35851   7.36973
 Alpha virt. eigenvalues --    7.38208   7.38447   7.38580   7.39255   7.39854
 Alpha virt. eigenvalues --    7.40077   7.43793   7.43911   7.44763   7.45446
 Alpha virt. eigenvalues --    7.48178   7.48490   7.49510   7.50659   7.55108
 Alpha virt. eigenvalues --    7.57046   7.58573   7.59494   7.60127   7.60635
 Alpha virt. eigenvalues --    7.62804   7.64038   7.64949   7.65377   7.65854
 Alpha virt. eigenvalues --    7.67725   7.68273   7.69127   7.69345   7.69700
 Alpha virt. eigenvalues --    7.71285   7.71727   7.72326   7.72924   7.75312
 Alpha virt. eigenvalues --    7.77687   7.80702   7.82207   7.83771   7.85277
 Alpha virt. eigenvalues --    7.85928   7.86586   7.87285   7.87558   7.88838
 Alpha virt. eigenvalues --    7.89042   7.89960   7.90410   7.91801   7.92900
 Alpha virt. eigenvalues --    7.95450   7.96257   7.97573   7.98695   7.98703
 Alpha virt. eigenvalues --    7.99437   7.99764   8.02299   8.02574   8.05898
 Alpha virt. eigenvalues --    8.08666   8.10484   8.11547   8.12378   8.16550
 Alpha virt. eigenvalues --    8.16601   8.18087   8.18369   8.19187   8.20327
 Alpha virt. eigenvalues --    8.20470   8.20822   8.21786   8.22996   8.23617
 Alpha virt. eigenvalues --    8.23643   8.24604   8.25177   8.26048   8.26585
 Alpha virt. eigenvalues --    8.28759   8.29978   8.30047   8.30923   8.31618
 Alpha virt. eigenvalues --    8.32246   8.33464   8.34716   8.36856   8.37290
 Alpha virt. eigenvalues --    8.37671   8.39374   8.40357   8.40987   8.41496
 Alpha virt. eigenvalues --    8.42799   8.45839   8.46499   8.48971   8.51055
 Alpha virt. eigenvalues --    8.51547   8.52135   8.54412   8.55459   8.57852
 Alpha virt. eigenvalues --    8.58783   8.59611   8.61509   8.68901   8.69764
 Alpha virt. eigenvalues --    8.77614   8.78042   8.81310   8.82957   8.86056
 Alpha virt. eigenvalues --    8.86897   8.87410   8.87425   8.89494   8.89996
 Alpha virt. eigenvalues --    8.95673   8.96176   9.04426   9.05391   9.06124
 Alpha virt. eigenvalues --    9.06635   9.07433   9.10959   9.11359   9.13081
 Alpha virt. eigenvalues --    9.17693   9.17872   9.20137   9.20804   9.22272
 Alpha virt. eigenvalues --    9.22778   9.22835   9.23275   9.26709   9.31268
 Alpha virt. eigenvalues --    9.35710   9.36548   9.47770   9.48750   9.52009
 Alpha virt. eigenvalues --    9.53306   9.54610   9.54966   9.55028   9.55722
 Alpha virt. eigenvalues --    9.55861   9.58447   9.59575   9.62696   9.67449
 Alpha virt. eigenvalues --    9.67566   9.73978   9.74185   9.78108   9.78858
 Alpha virt. eigenvalues --    9.81671   9.82247   9.83736   9.84296   9.88551
 Alpha virt. eigenvalues --    9.90226   9.90868   9.90974   9.97764   9.98060
 Alpha virt. eigenvalues --   10.00821  10.01116  10.08702  10.09614  10.10135
 Alpha virt. eigenvalues --   10.10443  10.10522  10.10561  10.12018  10.12247
 Alpha virt. eigenvalues --   10.14606  10.15853  10.18169  10.19117  10.35165
 Alpha virt. eigenvalues --   10.35322  10.35408  10.36235  10.55650  10.56177
 Alpha virt. eigenvalues --   10.60211  10.61136  10.90911  10.91088  10.95161
 Alpha virt. eigenvalues --   10.95665  11.24520  11.25124  11.40933  11.44813
 Alpha virt. eigenvalues --   11.60367  11.61915  11.66777  11.67295  11.76875
 Alpha virt. eigenvalues --   11.77690  11.96462  11.96714  12.03217  12.03522
 Alpha virt. eigenvalues --   12.32742  12.37207  12.64832  12.66308  12.82328
 Alpha virt. eigenvalues --   12.82549  12.87018  12.89244  28.41337  28.41440
 Alpha virt. eigenvalues --   28.60276  28.61502  28.95229  28.96227  29.07318
 Alpha virt. eigenvalues --   29.09482  37.61554  37.63014  37.91101  37.92041
 Alpha virt. eigenvalues --  145.90404 145.90668 146.07623 146.09102 146.40815
 Alpha virt. eigenvalues --  146.41942 146.52948 146.55363 195.15822 195.17463
 Alpha virt. eigenvalues --  195.49627 195.50679
          Condensed to atoms (all electrons):
               1          2          3          4          5          6
     1  C    6.194430   0.123239  -0.065773  -0.060073  -0.192836   0.092541
     2  C    0.123239   6.194430   0.092541  -0.192836  -0.060073  -0.065773
     3  N   -0.065773   0.092541   7.279242   0.258061  -0.091357  -0.004082
     4  C   -0.060073  -0.192836   0.258061   5.590858   0.349395  -0.091357
     5  C   -0.192836  -0.060073  -0.091357   0.349395   5.590858   0.258061
     6  N    0.092541  -0.065773  -0.004082  -0.091357   0.258061   7.279242
     7  H    0.343024  -0.065582  -0.008794  -0.009892  -0.016688  -0.154497
     8  H   -0.065582   0.343024  -0.154497  -0.016688  -0.009892  -0.008794
     9  H   -0.022004  -0.009346  -0.116225   0.358272  -0.056889  -0.005142
    10  H   -0.009346  -0.022004  -0.005142  -0.056889   0.358272  -0.116225
    11  C    0.016877  -0.007633  -0.008324  -0.003056  -0.005625  -0.005512
    12  C   -0.028759   0.015772   0.021066  -0.010682   0.014724  -0.011340
    13  N   -0.012652  -0.012652  -0.012929   0.005035   0.005035  -0.012929
    14  C    0.015772  -0.028759  -0.011340   0.014724  -0.010682   0.021066
    15  C   -0.007633   0.016877  -0.005512  -0.005625  -0.003056  -0.008324
    16  N    0.004886   0.004886  -0.000556   0.001500   0.001500  -0.000556
    17  H   -0.002657   0.006640   0.006740  -0.001324  -0.000708  -0.000326
    18  H   -0.004481   0.015577   0.015691  -0.003722  -0.006780  -0.002203
    19  H    0.015577  -0.004481  -0.002203  -0.006780  -0.003722   0.015691
    20  H    0.006640  -0.002657  -0.000326  -0.000708  -0.001324   0.006740
               7          8          9         10         11         12
     1  C    0.343024  -0.065582  -0.022004  -0.009346   0.016877  -0.028759
     2  C   -0.065582   0.343024  -0.009346  -0.022004  -0.007633   0.015772
     3  N   -0.008794  -0.154497  -0.116225  -0.005142  -0.008324   0.021066
     4  C   -0.009892  -0.016688   0.358272  -0.056889  -0.003056  -0.010682
     5  C   -0.016688  -0.009892  -0.056889   0.358272  -0.005625   0.014724
     6  N   -0.154497  -0.008794  -0.005142  -0.116225  -0.005512  -0.011340
     7  H    0.498734   0.066030  -0.001981  -0.004162   0.000481   0.002715
     8  H    0.066030   0.498734  -0.004162  -0.001981  -0.003757   0.005506
     9  H   -0.001981  -0.004162   0.510062   0.054516   0.000030  -0.000105
    10  H   -0.004162  -0.001981   0.054516   0.510062  -0.000734  -0.000817
    11  C    0.000481  -0.003757   0.000030  -0.000734   5.832041   0.202371
    12  C    0.002715   0.005506  -0.000105  -0.000817   0.202371   5.898346
    13  N    0.000255   0.000255   0.019634   0.019634  -0.079479   0.155383
    14  C    0.005506   0.002715  -0.000817  -0.000105  -0.065364  -0.025300
    15  C   -0.003757   0.000481  -0.000734   0.000030  -0.195492  -0.065364
    16  N   -0.003915  -0.003915   0.000177   0.000177   0.267856  -0.094011
    17  H   -0.001205   0.001276   0.000041  -0.000082   0.320624  -0.103599
    18  H   -0.000431   0.000861  -0.000312  -0.000734  -0.086452   0.283035
    19  H    0.000861  -0.000431  -0.000734  -0.000312  -0.013273  -0.005479
    20  H    0.001276  -0.001205  -0.000082   0.000041  -0.014548  -0.003921
              13         14         15         16         17         18
     1  C   -0.012652   0.015772  -0.007633   0.004886  -0.002657  -0.004481
     2  C   -0.012652  -0.028759   0.016877   0.004886   0.006640   0.015577
     3  N   -0.012929  -0.011340  -0.005512  -0.000556   0.006740   0.015691
     4  C    0.005035   0.014724  -0.005625   0.001500  -0.001324  -0.003722
     5  C    0.005035  -0.010682  -0.003056   0.001500  -0.000708  -0.006780
     6  N   -0.012929   0.021066  -0.008324  -0.000556  -0.000326  -0.002203
     7  H    0.000255   0.005506  -0.003757  -0.003915  -0.001205  -0.000431
     8  H    0.000255   0.002715   0.000481  -0.003915   0.001276   0.000861
     9  H    0.019634  -0.000817  -0.000734   0.000177   0.000041  -0.000312
    10  H    0.019634  -0.000105   0.000030   0.000177  -0.000082  -0.000734
    11  C   -0.079479  -0.065364  -0.195492   0.267856   0.320624  -0.086452
    12  C    0.155383  -0.025300  -0.065364  -0.094011  -0.103599   0.283035
    13  N    7.340963   0.155383  -0.079479   0.001709  -0.010340  -0.147697
    14  C    0.155383   5.898346   0.202371  -0.094011  -0.003921  -0.005479
    15  C   -0.079479   0.202371   5.832041   0.267856  -0.014548  -0.013273
    16  N    0.001709  -0.094011   0.267856   7.143126  -0.138009  -0.007006
    17  H   -0.010340  -0.003921  -0.014548  -0.138009   0.594216   0.084064
    18  H   -0.147697  -0.005479  -0.013273  -0.007006   0.084064   0.555325
    19  H   -0.147697   0.283035  -0.086452  -0.007006  -0.003858  -0.005596
    20  H   -0.010340  -0.103599   0.320624  -0.138009  -0.009863  -0.003858
              19         20
     1  C    0.015577   0.006640
     2  C   -0.004481  -0.002657
     3  N   -0.002203  -0.000326
     4  C   -0.006780  -0.000708
     5  C   -0.003722  -0.001324
     6  N    0.015691   0.006740
     7  H    0.000861   0.001276
     8  H   -0.000431  -0.001205
     9  H   -0.000734  -0.000082
    10  H   -0.000312   0.000041
    11  C   -0.013273  -0.014548
    12  C   -0.005479  -0.003921
    13  N   -0.147697  -0.010340
    14  C    0.283035  -0.103599
    15  C   -0.086452   0.320624
    16  N   -0.007006  -0.138009
    17  H   -0.003858  -0.009863
    18  H   -0.005596  -0.003858
    19  H    0.555325   0.084064
    20  H    0.084064   0.594216
 Mulliken charges:
               1
     1  C   -0.341189
     2  C   -0.341189
     3  N   -0.186278
     4  C   -0.118215
     5  C   -0.118215
     6  N   -0.186278
     7  H    0.352024
     8  H    0.352024
     9  H    0.275801
    10  H    0.275801
    11  C   -0.151030
    12  C   -0.249539
    13  N   -0.177091
    14  C   -0.249539
    15  C   -0.151030
    16  N   -0.206677
    17  H    0.276840
    18  H    0.333471
    19  H    0.333471
    20  H    0.276840
 Sum of Mulliken charges =  -0.00000
 Mulliken charges with hydrogens summed into heavy atoms:
               1
     1  C    0.010834
     2  C    0.010834
     3  N   -0.186278
     4  C    0.157586
     5  C    0.157586
     6  N   -0.186278
    11  C    0.125809
    12  C    0.083932
    13  N   -0.177091
    14  C    0.083932
    15  C    0.125809
    16  N   -0.206677
 Electronic spatial extent (au):  <R**2>=           1731.1435
 Charge=             -0.0000 electrons
 Dipole moment (field-independent basis, Debye):
    X=             -0.2061    Y=             -0.0848    Z=             -0.0000  Tot=              0.2229
 Quadrupole moment (field-independent basis, Debye-Ang):
   XX=            -69.0310   YY=            -71.9470   ZZ=            -68.1227
   XY=              1.8102   XZ=             -0.0000   YZ=              0.0000
 Traceless Quadrupole moment (field-independent basis, Debye-Ang):
   XX=              0.6692   YY=             -2.2467   ZZ=              1.5775
   XY=              1.8102   XZ=             -0.0000   YZ=              0.0000
 Octapole moment (field-independent basis, Debye-Ang**2):
  XXX=              8.9405  YYY=            -19.8080  ZZZ=              0.0000  XYY=            -21.5289
  XXY=            -15.4374  XXZ=              0.0000  XZZ=             -4.6493  YZZ=             25.5320
  YYZ=             -0.0000  XYZ=             -0.0000
 Hexadecapole moment (field-independent basis, Debye-Ang**3):
 XXXX=           -452.1439 YYYY=          -1473.7515 ZZZZ=           -536.8038 XXXY=              3.7962
 XXXZ=              0.0000 YYYX=             16.7657 YYYZ=             -0.0000 ZZZX=              0.0000
 ZZZY=              0.0000 XXYY=           -315.3715 XXZZ=           -137.3489 YYZZ=           -317.2503
 XXYZ=              0.0000 YYXZ=             -0.0000 ZZXY=             18.2239
 N-N= 6.541320251055D+02 E-N=-2.537910411856D+03  KE= 5.262951048346D+02
 PrsmSu:  requested number of processors reduced to:  18 ShMem   1 Linda.
 No NMR shielding tensors so no spin-rotation constants.
 Leave Link  601 at Sun Apr 18 20:01:13 2021, MaxMem=   104857600 cpu:            1171.2 elap:              25.4
 (Enter /s/ls4/users/knvvv/bin/g16sse/l9999.exe)

 Test job not archived.
 1\1\GINC-N151\Stability\RM062X\Gen\C8H8N4\KNVVV\18-Apr-2021\0\\#P M062
 X/GEN Integral=UltraFineGrid SCF=NoSymm Stable=(RExt, Opt) IOp(1/33=1)
 \\Database calculations.\\0,1\C,0,-1.2471894,-1.1718212,-0.6961388\C,0
 ,-1.2471894,-1.1718212,0.6961388\N,0,-0.258951,-1.7235771,1.4144796\C,
 0,0.7315327,-2.2652221,0.6967288\C,0,0.7315327,-2.2652221,-0.6967288\N
 ,0,-0.258951,-1.7235771,-1.4144796\H,0,-2.0634363,-0.7223199,-1.247279
 7\H,0,-2.0634363,-0.7223199,1.2472797\H,0,1.5488004,-2.7128282,1.24756
 04\H,0,1.5488004,-2.7128282,-1.2475604\C,0,-0.3380031,2.0800608,1.1300
 452\C,0,0.8540254,1.3593471,1.1306308\N,0,1.4701787,0.9907598,0.\C,0,0
 .8540254,1.3593471,-1.1306308\C,0,-0.3380031,2.0800608,-1.1300452\N,0,
 -0.9523059,2.4528836,0.\H,0,-0.8103758,2.3643033,2.0618643\H,0,1.32085
 83,1.067061,2.0623986\H,0,1.3208583,1.067061,-2.0623986\H,0,-0.8103758
 ,2.3643033,-2.0618643\\Version=ES64L-G16RevA.03\State=1-A'\HF=-528.655
 1603\RMSD=5.597e-09\Dipole=0.0816157,-0.0320525,0.\Quadrupole=0.540789
 3,-1.7136281,1.1728387,-1.30981,0.,0.\PG=CS [SG(N2),X(C8H8N2)]\\@


 The lyf so short, the craft so long to lerne.
                             -- Chaucer
 Job cpu time:       6 days  0 hours 27 minutes 23.2 seconds.
 Elapsed time:       0 days  6 hours 52 minutes 32.9 seconds.
 File lengths (MBytes):  RWF=   1998 Int=      0 D2E=      0 Chk=    118 Scr=      1
 Normal termination of Gaussian 16 at Sun Apr 18 20:01:14 2021.
