 Entering Gaussian System, Link 0=/s/ls4/users/knvvv/bin/g16sse/g16
 Input=data/database/M062X--def2-QZVP--RG18_kr3.gjf
 Output=data/database/M062X--def2-QZVP--RG18_kr3.log
 Initial command:
 /s/ls4/users/knvvv/bin/g16sse/l1.exe "/s/ls4/users/knvvv/bin/scratch/Gau-42972.inp" -scrdir="/s/ls4/users/knvvv/bin/scratch/"
 Entering Link 1 = /s/ls4/users/knvvv/bin/g16sse/l1.exe PID=     42973.
  
 Copyright (c) 1988,1990,1992,1993,1995,1998,2003,2009,2016,
            Gaussian, Inc.  All Rights Reserved.
  
 This is part of the Gaussian(R) 16 program.  It is based on
 the Gaussian(R) 09 system (copyright 2009, Gaussian, Inc.),
 the Gaussian(R) 03 system (copyright 2003, Gaussian, Inc.),
 the Gaussian(R) 98 system (copyright 1998, Gaussian, Inc.),
 the Gaussian(R) 94 system (copyright 1995, Gaussian, Inc.),
 the Gaussian 92(TM) system (copyright 1992, Gaussian, Inc.),
 the Gaussian 90(TM) system (copyright 1990, Gaussian, Inc.),
 the Gaussian 88(TM) system (copyright 1988, Gaussian, Inc.),
 the Gaussian 86(TM) system (copyright 1986, Carnegie Mellon
 University), and the Gaussian 82(TM) system (copyright 1983,
 Carnegie Mellon University). Gaussian is a federally registered
 trademark of Gaussian, Inc.
  
 This software contains proprietary and confidential information,
 including trade secrets, belonging to Gaussian, Inc.
  
 This software is provided under written license and may be
 used, copied, transmitted, or stored only in accord with that
 written license.
  
 The following legend is applicable only to US Government
 contracts under FAR:
  
                    RESTRICTED RIGHTS LEGEND
  
 Use, reproduction and disclosure by the US Government is
 subject to restrictions as set forth in subparagraphs (a)
 and (c) of the Commercial Computer Software - Restricted
 Rights clause in FAR 52.227-19.
  
 Gaussian, Inc.
 340 Quinnipiac St., Bldg. 40, Wallingford CT 06492
  
  
 ---------------------------------------------------------------
 Warning -- This program may not be used in any manner that
 competes with the business of Gaussian, Inc. or will provide
 assistance to any competitor of Gaussian, Inc.  The licensee
 of this program is prohibited from giving any competitor of
 Gaussian, Inc. access to this program.  By using this program,
 the user acknowledges that Gaussian, Inc. is engaged in the
 business of creating and licensing software in the field of
 computational chemistry and represents and warrants to the
 licensee that it is not a competitor of Gaussian, Inc. and that
 it will not use this program in any manner prohibited above.
 ---------------------------------------------------------------
  

 Cite this work as:
 Gaussian 16, Revision A.03,
 M. J. Frisch, G. W. Trucks, H. B. Schlegel, G. E. Scuseria, 
 M. A. Robb, J. R. Cheeseman, G. Scalmani, V. Barone, 
 G. A. Petersson, H. Nakatsuji, X. Li, M. Caricato, A. V. Marenich, 
 J. Bloino, B. G. Janesko, R. Gomperts, B. Mennucci, H. P. Hratchian, 
 J. V. Ortiz, A. F. Izmaylov, J. L. Sonnenberg, D. Williams-Young, 
 F. Ding, F. Lipparini, F. Egidi, J. Goings, B. Peng, A. Petrone, 
 T. Henderson, D. Ranasinghe, V. G. Zakrzewski, J. Gao, N. Rega, 
 G. Zheng, W. Liang, M. Hada, M. Ehara, K. Toyota, R. Fukuda, 
 J. Hasegawa, M. Ishida, T. Nakajima, Y. Honda, O. Kitao, H. Nakai, 
 T. Vreven, K. Throssell, J. A. Montgomery, Jr., J. E. Peralta, 
 F. Ogliaro, M. J. Bearpark, J. J. Heyd, E. N. Brothers, K. N. Kudin, 
 V. N. Staroverov, T. A. Keith, R. Kobayashi, J. Normand, 
 K. Raghavachari, A. P. Rendell, J. C. Burant, S. S. Iyengar, 
 J. Tomasi, M. Cossi, J. M. Millam, M. Klene, C. Adamo, R. Cammi, 
 J. W. Ochterski, R. L. Martin, K. Morokuma, O. Farkas, 
 J. B. Foresman, and D. J. Fox, Gaussian, Inc., Wallingford CT, 2016.
 
 ******************************************
 Gaussian 16:  ES64L-G16RevA.03 25-Dec-2016
                18-Apr-2021 
 ******************************************
 %RWF=temp12_26359,70GB
 %nprocshared=48
 Will use up to   48 processors via shared memory.
 Default route: MaxDisk=80GB
 ----------------------------------------------------------------------
 #P M062X/Def2QZVP Integral=UltraFineGrid SCF=NoSymm Stable=(RExt, Opt)
  IOp(1/33=1)
 ----------------------------------------------------------------------
 1/33=1,38=1,172=1/1;
 2/12=2,17=6,18=5,40=1/2;
 3/5=45,7=101,11=2,25=1,30=1,74=-55,75=-5/1,2,3;
 4/9=2/1;
 5/5=2,38=5/2;
 6/7=2,8=2,9=2,10=2,28=1/1;
 8/6=1,10=90,11=11/1;
 9/8=-3,42=1,46=1/14;
 5/5=2,8=3,17=40,38=5/8(-2);
 6/7=2,8=2,9=2,10=2,28=1/1;
 99/5=1,9=1/99;
 Leave Link    1 at Sun Apr 18 04:16:04 2021, MaxMem=           0 cpu:              11.3 elap:               0.3
 (Enter /s/ls4/users/knvvv/bin/g16sse/l101.exe)
 ONIOM data not found on unit 2.
 ----------------------
 Database calculations.
 ----------------------
 TstMul:  ICh=     0
 TstMul:  Mul=     1
 TstMul:  ICh=     0
 TstMul:  Mul=     1
 Symbolic Z-matrix:
 Charge =  0 Multiplicity = 1
 Kr                    1.20554   2.08805   0. 
 Kr                    1.20554  -2.08805   0. 
 Kr                   -2.41107   0.        0. 
 
 RdStrC is calling ZToCFu for IStruc=1 NZ=     3.
 PrtBox:  NBox=     1 Levels=  1 BoxLen=    8.00 SMaxX=        7.89
          Shift=            4.556265            3.945841            0.000000
 Box      1 Number                   0 centers from      1 to      3:
 After GenITR:
 ITRead=  0  0  0
 MicOpt= -1 -1 -1
 ITRead=  0  0  0
 MicOpt= -1 -1 -1
 NAtoms=      3 NQM=        3 NQMF=       0 NMMI=      0 NMMIF=      0
                NMic=       0 NMicF=      0.
                    Isotopes and Nuclear Properties:
 (Nuclear quadrupole moments (NQMom) in fm**2, nuclear magnetic moments (NMagM)
  in nuclear magnetons)

  Atom         1           2           3
 IAtWgt=          84          84          84
 AtmWgt=  83.9115064  83.9115064  83.9115064
 NucSpn=           0           0           0
 AtZEff=  -0.0000000  -0.0000000  -0.0000000
 NQMom=    0.0000000   0.0000000   0.0000000
 NMagM=    0.0000000   0.0000000   0.0000000
 AtZNuc=  36.0000000  36.0000000  36.0000000
 No MM parameters found.
 Leave Link  101 at Sun Apr 18 04:16:04 2021, MaxMem=   104857600 cpu:               7.2 elap:               0.2
 (Enter /s/ls4/users/knvvv/bin/g16sse/l202.exe)
                          Input orientation:                          
 ---------------------------------------------------------------------
 Center     Atomic      Atomic             Coordinates (Angstroms)
 Number     Number       Type             X           Y           Z
 ---------------------------------------------------------------------
      1         36           0        1.205536    2.088049    0.000000
      2         36           0        1.205536   -2.088049    0.000000
      3         36           0       -2.411071    0.000000    0.000000
 ---------------------------------------------------------------------
                    Distance matrix (angstroms):
                    1          2          3
     1  Kr   0.000000
     2  Kr   4.176098   0.000000
     3  Kr   4.176098   4.176098   0.000000
 Stoichiometry    Kr3
 Framework group  D3H[3C2(Kr)]
 Deg. of freedom     1
 Full point group                 D3H     NOp  12
 Largest Abelian subgroup         C2V     NOp   4
 Largest concise Abelian subgroup C2      NOp   2
                         Standard orientation:                         
 ---------------------------------------------------------------------
 Center     Atomic      Atomic             Coordinates (Angstroms)
 Number     Number       Type             X           Y           Z
 ---------------------------------------------------------------------
      1         36           0        0.000000    2.411071    0.000000
      2         36           0        2.088049   -1.205536    0.000000
      3         36           0       -2.088049   -1.205536    0.000000
 ---------------------------------------------------------------------
 Rotational constants (GHZ):           0.6906918           0.6906918           0.3453459
 Leave Link  202 at Sun Apr 18 04:16:04 2021, MaxMem=   104857600 cpu:               9.7 elap:               0.2
 (Enter /s/ls4/users/knvvv/bin/g16sse/l301.exe)
 Standard basis: def2QZVP (5D, 7F)
 Ernie: Thresh=  0.10000D-02 Tol=  0.10000D-05 Strict=F.
 There are   104 symmetry adapted cartesian basis functions of A1  symmetry.
 There are    38 symmetry adapted cartesian basis functions of A2  symmetry.
 There are    82 symmetry adapted cartesian basis functions of B1  symmetry.
 There are    49 symmetry adapted cartesian basis functions of B2  symmetry.
 There are    83 symmetry adapted basis functions of A1  symmetry.
 There are    33 symmetry adapted basis functions of A2  symmetry.
 There are    67 symmetry adapted basis functions of B1  symmetry.
 There are    42 symmetry adapted basis functions of B2  symmetry.
   225 basis functions,   537 primitive gaussians,   273 cartesian basis functions
    54 alpha electrons       54 beta electrons
       nuclear repulsion energy       492.6706465641 Hartrees.
 IExCor= 4336 DFT=T Ex+Corr=M062X ExCW=0 ScaHFX=  0.540000
 ScaDFX=  1.000000  1.000000  1.000000  1.000000 ScalE2=  1.000000  1.000000
 IRadAn=      5 IRanWt=     -1 IRanGd=            0 ICorTp=0 IEmpDi=  4
 NAtoms=    3 NActive=    3 NUniq=    1 SFac= 4.00D+00 NAtFMM=   60 NAOKFM=F Big=F
 Integral buffers will be    131072 words long.
 Raffenetti 2 integral format.
 Two-electron integral symmetry is turned on.
 Leave Link  301 at Sun Apr 18 04:16:04 2021, MaxMem=   104857600 cpu:               6.6 elap:               0.2
 (Enter /s/ls4/users/knvvv/bin/g16sse/l302.exe)
 NPDir=0 NMtPBC=     1 NCelOv=     1 NCel=       1 NClECP=     1 NCelD=      1
         NCelK=      1 NCelE2=     1 NClLst=     1 CellRange=     0.0.
 One-electron integrals computed using PRISM.
 One-electron integral symmetry used in STVInt
 PrsmSu:  requested number of processors reduced to:   4 ShMem   1 Linda.
 PrsmSu:  requested number of processors reduced to:  21 ShMem   1 Linda.
  12 Symmetry operations used in ECPInt.
 ECPInt:  NShTT=    2850 NPrTT=   15117 LenC2=    2305 LenP2D=    8715.
 LDataN:  DoStor=T MaxTD1= 8 Len=  415
 Number of processors reduced to  27 by ecpmxn.
 NBasis=   225 RedAO= T EigKep=  6.94D-04  NBF=    83    33    67    42
 NBsUse=   225 1.00D-06 EigRej= -1.00D+00 NBFU=    83    33    67    42
 Precomputing XC quadrature grid using
 IXCGrd= 4 IRadAn=           5 IRanWt=          -1 IRanGd=           0 AccXCQ= 0.00D+00.
 Generated NRdTot=       0 NPtTot=           0 NUsed=           0 NTot=          32
 NSgBfM=   235   235   235   235   235 MxSgAt=     3 MxSgA2=     3.
 Leave Link  302 at Sun Apr 18 04:16:42 2021, MaxMem=   104857600 cpu:            1749.3 elap:              37.3
 (Enter /s/ls4/users/knvvv/bin/g16sse/l303.exe)
 DipDrv:  MaxL=1.
 Leave Link  303 at Sun Apr 18 04:16:43 2021, MaxMem=   104857600 cpu:              47.3 elap:               1.0
 (Enter /s/ls4/users/knvvv/bin/g16sse/l401.exe)
 SCF N**3 symmetry information disabled.
 ExpMin= 9.68D-02 ExpMax= 1.17D+07 ExpMxC= 1.34D+04 IAcc=3 IRadAn=         5 AccDes= 0.00D+00
 Harris functional with IExCor= 1009 and IRadAn=       5 diagonalized for initial guess.
 HarFok:  IExCor= 1009 AccDes= 0.00D+00 IRadAn=         5 IDoV= 1 UseB2=F ITyADJ=14
 ICtDFT=  3500011 ScaDFX=  1.000000  1.000000  1.000000  1.000000
 FoFCou: FMM=F IPFlag=           0 FMFlag=      100000 FMFlg1=           0
         NFxFlg=           0 DoJE=T BraDBF=F KetDBF=T FulRan=T
         wScrn=  0.000000 ICntrl=       500 IOpCl=  0 I1Cent=   200000004 NGrid=           0
         NMat0=    1 NMatS0=      1 NMatT0=    0 NMatD0=    1 NMtDS0=    0 NMtDT0=    0
 Petite list used in FoFCou.
 CoulSu:  requested number of processors reduced to:  21 ShMem   1 Linda.
 CoulSu:  requested number of processors reduced to:  21 ShMem   1 Linda.
 CoulSu:  requested number of processors reduced to:  21 ShMem   1 Linda.
 CoulSu:  requested number of processors reduced to:  21 ShMem   1 Linda.
 Harris En= -8260.13376885940    
 JPrj=0 DoOrth=F DoCkMO=F.
 Initial guess orbital symmetries:
       Occupied  (E') (E') (A1') (E') (E') (A1') (A1') (E') (E')
                 (A2') (E") (E") (E') (E') (A2") (E') (E') (A1')
                 (E') (E') (A1') (A2') (E') (E') (E") (E") (A2")
                 (E') (E') (A1') (A1") (E") (E") (A2') (E") (E")
                 (E') (E') (A2") (E') (E') (A1') (A1') (E') (E')
                 (A1') (E') (E') (A2") (E") (E") (A2') (E') (E')
       Virtual   (A1') (E') (E') (A2") (E') (E') (E") (E") (A1')
                 (A2') (E') (E') (E') (E') (A1') (E") (E") (A2")
                 (A1') (A1") (E') (E') (E") (E") (A2') (E') (E')
                 (E') (E') (A2") (A1') (E") (E") (A1') (E') (E')
                 (A2") (A2') (E") (E") (E") (E") (E') (E') (E')
                 (E') (A1") (A2') (A2") (E') (E') (E") (E") (A2')
                 (E') (E') (A1') (E') (E') (A1') (A2") (A1') (E")
                 (E") (A1") (E') (E') (E") (E") (E') (E') (A2')
                 (A1') (E') (E') (A1') (E") (E") (E') (E') (A2")
                 (E') (E') (A1') (A1") (E") (E") (E') (E') (A2')
                 (A1') (E") (E") (A1") (A2") (E") (E") (E') (E')
                 (A2') (E') (E') (E') (E') (A1') (A1') (E") (E")
                 (A2") (A2") (E') (E') (E") (E") (A2') (A1") (E")
                 (E") (E') (E') (E') (E') (A2') (A2") (E') (E')
                 (E") (E") (A2') (E') (E') (A1') (E') (E') (A1')
                 (A2") (A1') (E") (E") (A1") (E') (E') (E") (E")
                 (E') (E') (A2') (A1') (E') (E') (A2") (E') (E')
                 (E") (E") (A2') (E') (E') (A1') (A1') (E') (E')
                 (A1') (E') (E') (A1') (E') (E') (A1') (E') (E')
 The electronic state of the initial guess is 1-A1'.
 Leave Link  401 at Sun Apr 18 04:16:44 2021, MaxMem=   104857600 cpu:              72.7 elap:               1.7
 (Enter /s/ls4/users/knvvv/bin/g16sse/l502.exe)
 Integral symmetry usage will be decided dynamically.
 Closed shell SCF:
 Using DIIS extrapolation, IDIIS=  1040.
 NGot=   104857600 LenX=   104690934 LenY=   104615964
 Requested convergence on RMS density matrix=1.00D-08 within 128 cycles.
 Requested convergence on MAX density matrix=1.00D-06.
 Requested convergence on             energy=1.00D-06.
 No special actions if energy rises.
 Fock matrices will be formed incrementally for  20 cycles.
 Integral accuracy reduced to 1.0D-05 until final iterations.

 Cycle   1  Pass 0  IDiag  1:
 FoFJK:  IHMeth= 1 ICntrl=       0 DoSepK=F KAlg= 0 I1Cent=           0 FoldK=F
 IRaf= 750000000 NMat=       1 IRICut=       1 DoRegI=T DoRafI=F ISym2E= 1 IDoP0=0 IntGTp=1.
 FoFCou: FMM=F IPFlag=           0 FMFlag=      100000 FMFlg1=           0
         NFxFlg=           0 DoJE=F BraDBF=F KetDBF=F FulRan=T
         wScrn=  0.000000 ICntrl=         0 IOpCl=  0 I1Cent=           0 NGrid=           0
         NMat0=    1 NMatS0=      1 NMatT0=    0 NMatD0=    1 NMtDS0=    0 NMtDT0=    0
 Petite list used in FoFCou.
 CoulSu:  requested number of processors reduced to:  21 ShMem   1 Linda.
 E= -8261.44063877156    
 DIIS: error= 1.59D-01 at cycle   1 NSaved=   1.
 NSaved= 1 IEnMin= 1 EnMin= -8261.44063877156     IErMin= 1 ErrMin= 1.59D-01
 ErrMax= 1.59D-01  0.00D+00 EMaxC= 1.00D-01 BMatC= 4.16D+00 BMatP= 4.16D+00
 IDIUse=3 WtCom= 0.00D+00 WtEn= 1.00D+00
 Coeff-Com:  0.100D+01
 Coeff-En:   0.100D+01
 Coeff:      0.100D+01
 Gap=     0.626 Goal=   None    Shift=    0.000
 GapD=    0.626 DampG=2.000 DampE=0.250 DampFc=0.5000 IDamp=-1.
 Damping current iteration by 5.00D-01
 RMSDP=2.85D-03 MaxDP=1.01D-01              OVMax= 5.52D-02

 Cycle   2  Pass 0  IDiag  1:
 RMSU=  1.41D-03    CP:  1.01D+00
 CoulSu:  requested number of processors reduced to:  21 ShMem   1 Linda.
 E= -8261.54548985988     Delta-E=       -0.104851088316 Rises=F Damp=T
 DIIS: error= 6.61D-02 at cycle   2 NSaved=   2.
 NSaved= 2 IEnMin= 2 EnMin= -8261.54548985988     IErMin= 2 ErrMin= 6.61D-02
 ErrMax= 6.61D-02  0.00D+00 EMaxC= 1.00D-01 BMatC= 6.60D-01 BMatP= 4.16D+00
 IDIUse=3 WtCom= 3.39D-01 WtEn= 6.61D-01
 Coeff-Com: -0.493D+00 0.149D+01
 Coeff-En:   0.000D+00 0.100D+01
 Coeff:     -0.167D+00 0.117D+01
 Gap=     0.600 Goal=   None    Shift=    0.000
 RMSDP=1.02D-03 MaxDP=4.77D-02 DE=-1.05D-01 OVMax= 2.57D-02

 Cycle   3  Pass 0  IDiag  1:
 RMSU=  6.00D-04    CP:  1.01D+00  1.59D+00
 CoulSu:  requested number of processors reduced to:  21 ShMem   1 Linda.
 E= -8261.63522482424     Delta-E=       -0.089734964366 Rises=F Damp=F
 DIIS: error= 1.86D-03 at cycle   3 NSaved=   3.
 NSaved= 3 IEnMin= 3 EnMin= -8261.63522482424     IErMin= 3 ErrMin= 1.86D-03
 ErrMax= 1.86D-03  0.00D+00 EMaxC= 1.00D-01 BMatC= 5.83D-04 BMatP= 6.60D-01
 IDIUse=3 WtCom= 9.81D-01 WtEn= 1.86D-02
 Coeff-Com: -0.213D-01 0.552D-01 0.966D+00
 Coeff-En:   0.000D+00 0.000D+00 0.100D+01
 Coeff:     -0.209D-01 0.542D-01 0.967D+00
 Gap=     0.603 Goal=   None    Shift=    0.000
 RMSDP=6.85D-05 MaxDP=2.58D-03 DE=-8.97D-02 OVMax= 2.30D-03

 Cycle   4  Pass 0  IDiag  1:
 RMSU=  3.93D-05    CP:  1.01D+00  1.62D+00  9.96D-01
 CoulSu:  requested number of processors reduced to:  21 ShMem   1 Linda.
 E= -8261.63535534932     Delta-E=       -0.000130525075 Rises=F Damp=F
 DIIS: error= 5.44D-04 at cycle   4 NSaved=   4.
 NSaved= 4 IEnMin= 4 EnMin= -8261.63535534932     IErMin= 4 ErrMin= 5.44D-04
 ErrMax= 5.44D-04  0.00D+00 EMaxC= 1.00D-01 BMatC= 3.70D-05 BMatP= 5.83D-04
 IDIUse=3 WtCom= 9.95D-01 WtEn= 5.44D-03
 Coeff-Com:  0.557D-02-0.114D-01 0.600D-01 0.946D+00
 Coeff-En:   0.000D+00 0.000D+00 0.000D+00 0.100D+01
 Coeff:      0.554D-02-0.113D-01 0.597D-01 0.946D+00
 Gap=     0.603 Goal=   None    Shift=    0.000
 RMSDP=1.67D-05 MaxDP=6.12D-04 DE=-1.31D-04 OVMax= 5.53D-04

 Cycle   5  Pass 0  IDiag  1:
 RMSU=  9.14D-06    CP:  1.01D+00  1.62D+00  1.01D+00  9.59D-01
 CoulSu:  requested number of processors reduced to:  21 ShMem   1 Linda.
 E= -8261.63536454798     Delta-E=       -0.000009198660 Rises=F Damp=F
 DIIS: error= 4.73D-05 at cycle   5 NSaved=   5.
 NSaved= 5 IEnMin= 5 EnMin= -8261.63536454798     IErMin= 5 ErrMin= 4.73D-05
 ErrMax= 4.73D-05  0.00D+00 EMaxC= 1.00D-01 BMatC= 4.51D-07 BMatP= 3.70D-05
 IDIUse=1 WtCom= 1.00D+00 WtEn= 0.00D+00
 Coeff-Com:  0.692D-03-0.160D-02-0.740D-02 0.144D+00 0.864D+00
 Coeff:      0.692D-03-0.160D-02-0.740D-02 0.144D+00 0.864D+00
 Gap=     0.603 Goal=   None    Shift=    0.000
 RMSDP=2.54D-06 MaxDP=9.13D-05 DE=-9.20D-06 OVMax= 1.05D-04

 Initial convergence to 1.0D-05 achieved.  Increase integral accuracy.
 Cycle   6  Pass 1  IDiag  1:
 CoulSu:  requested number of processors reduced to:  21 ShMem   1 Linda.
 E= -8261.63521561631     Delta-E=        0.000148931675 Rises=F Damp=F
 DIIS: error= 1.33D-04 at cycle   1 NSaved=   1.
 NSaved= 1 IEnMin= 1 EnMin= -8261.63521561631     IErMin= 1 ErrMin= 1.33D-04
 ErrMax= 1.33D-04  0.00D+00 EMaxC= 1.00D-01 BMatC= 2.13D-06 BMatP= 2.13D-06
 IDIUse=3 WtCom= 9.99D-01 WtEn= 1.33D-03
 Coeff-Com:  0.100D+01
 Coeff-En:   0.100D+01
 Coeff:      0.100D+01
 Gap=     0.603 Goal=   None    Shift=    0.000
 RMSDP=2.54D-06 MaxDP=9.13D-05 DE= 1.49D-04 OVMax= 2.18D-04

 Cycle   7  Pass 1  IDiag  1:
 RMSU=  6.35D-06    CP:  1.00D+00
 CoulSu:  requested number of processors reduced to:  21 ShMem   1 Linda.
 E= -8261.63521603404     Delta-E=       -0.000000417736 Rises=F Damp=F
 DIIS: error= 1.15D-05 at cycle   2 NSaved=   2.
 NSaved= 2 IEnMin= 2 EnMin= -8261.63521603404     IErMin= 2 ErrMin= 1.15D-05
 ErrMax= 1.15D-05  0.00D+00 EMaxC= 1.00D-01 BMatC= 2.77D-08 BMatP= 2.13D-06
 IDIUse=1 WtCom= 1.00D+00 WtEn= 0.00D+00
 Coeff-Com:  0.304D-01 0.970D+00
 Coeff:      0.304D-01 0.970D+00
 Gap=     0.603 Goal=   None    Shift=    0.000
 RMSDP=6.67D-07 MaxDP=2.34D-05 DE=-4.18D-07 OVMax= 4.22D-05

 Cycle   8  Pass 1  IDiag  1:
 RMSU=  5.55D-07    CP:  1.00D+00  1.06D+00
 CoulSu:  requested number of processors reduced to:  21 ShMem   1 Linda.
 E= -8261.63521604090     Delta-E=       -0.000000006863 Rises=F Damp=F
 DIIS: error= 9.89D-06 at cycle   3 NSaved=   3.
 NSaved= 3 IEnMin= 3 EnMin= -8261.63521604090     IErMin= 3 ErrMin= 9.89D-06
 ErrMax= 9.89D-06  0.00D+00 EMaxC= 1.00D-01 BMatC= 1.31D-08 BMatP= 2.77D-08
 IDIUse=1 WtCom= 1.00D+00 WtEn= 0.00D+00
 Coeff-Com: -0.391D-02 0.400D+00 0.604D+00
 Coeff:     -0.391D-02 0.400D+00 0.604D+00
 Gap=     0.603 Goal=   None    Shift=    0.000
 RMSDP=1.68D-07 MaxDP=4.46D-06 DE=-6.86D-09 OVMax= 7.05D-06

 Cycle   9  Pass 1  IDiag  1:
 RMSU=  1.40D-07    CP:  1.00D+00  1.07D+00  9.72D-01
 CoulSu:  requested number of processors reduced to:  21 ShMem   1 Linda.
 E= -8261.63521604358     Delta-E=       -0.000000002676 Rises=F Damp=F
 DIIS: error= 7.20D-07 at cycle   4 NSaved=   4.
 NSaved= 4 IEnMin= 4 EnMin= -8261.63521604358     IErMin= 4 ErrMin= 7.20D-07
 ErrMax= 7.20D-07  0.00D+00 EMaxC= 1.00D-01 BMatC= 2.82D-11 BMatP= 1.31D-08
 IDIUse=1 WtCom= 1.00D+00 WtEn= 0.00D+00
 Coeff-Com: -0.987D-04-0.508D-01-0.437D-01 0.109D+01
 Coeff:     -0.987D-04-0.508D-01-0.437D-01 0.109D+01
 Gap=     0.603 Goal=   None    Shift=    0.000
 RMSDP=6.77D-08 MaxDP=2.74D-06 DE=-2.68D-09 OVMax= 4.82D-06

 Cycle  10  Pass 1  IDiag  1:
 RMSU=  1.48D-08    CP:  1.00D+00  1.07D+00  1.06D+00  1.23D+00
 CoulSu:  requested number of processors reduced to:  21 ShMem   1 Linda.
 E= -8261.63521604369     Delta-E=       -0.000000000111 Rises=F Damp=F
 DIIS: error= 1.05D-07 at cycle   5 NSaved=   5.
 NSaved= 5 IEnMin= 5 EnMin= -8261.63521604369     IErMin= 5 ErrMin= 1.05D-07
 ErrMax= 1.05D-07  0.00D+00 EMaxC= 1.00D-01 BMatC= 2.42D-12 BMatP= 2.82D-11
 IDIUse=1 WtCom= 1.00D+00 WtEn= 0.00D+00
 Coeff-Com: -0.950D-05-0.159D-01-0.186D-01 0.275D+00 0.760D+00
 Coeff:     -0.950D-05-0.159D-01-0.186D-01 0.275D+00 0.760D+00
 Gap=     0.603 Goal=   None    Shift=    0.000
 RMSDP=7.19D-09 MaxDP=2.59D-07 DE=-1.11D-10 OVMax= 4.22D-07

 SCF Done:  E(RM062X) =  -8261.63521604     A.U. after   10 cycles
            NFock= 10  Conv=0.72D-08     -V/T= 2.0020
 KE= 8.245268936008D+03 PE=-2.072210810106D+04 EE= 3.722533302448D+03
 Leave Link  502 at Sun Apr 18 04:23:22 2021, MaxMem=   104857600 cpu:           18525.9 elap:             398.1
 (Enter /s/ls4/users/knvvv/bin/g16sse/l601.exe)
 Copying SCF densities to generalized density rwf, IOpCl= 0 IROHF=0.

 **********************************************************************

            Population analysis using the SCF density.

 **********************************************************************

 Orbital symmetries:
       Occupied  (E') (E') (A1') (E') (E') (A1') (E") (E") (A2")
                 (A2') (E') (E') (A1') (E') (E') (E') (E') (A1')
                 (E") (E") (A2") (A2') (E') (E') (E') (E') (A1')
                 (E') (E') (A1') (A1") (E") (E") (E") (E") (A2")
                 (A2') (E') (E') (E') (E') (A1') (A1') (E') (E')
                 (A1') (E') (E') (A2") (E") (E") (A2') (E') (E')
       Virtual   (A1') (A2") (E') (E') (E') (E') (E") (E") (A2')
                 (A1') (E') (E') (E') (E') (A1') (A2") (A1') (E")
                 (E") (A1") (E') (E') (E") (E") (A2') (E') (E')
                 (E') (E') (A2") (E") (E") (E') (E') (A1') (A1')
                 (E') (E') (A2') (E") (E") (A2") (E") (E") (E')
                 (E') (A1") (A2') (A2") (E') (E') (E") (E") (A2')
                 (E') (E') (A1') (E') (E') (A1') (A2") (A1') (E")
                 (E") (A1") (E') (E') (E") (E") (E') (E') (A2')
                 (A1') (E') (E') (A1') (E') (E') (E") (E") (A2")
                 (A1") (E") (E") (A2') (A1') (E') (E') (A2") (E')
                 (E') (A1') (E") (E") (A1") (E") (E") (E') (E')
                 (A2') (E') (E') (E') (E') (A1') (A1') (E") (E")
                 (A2") (E') (E') (A2") (E") (E") (A2') (A1") (E')
                 (E') (E") (E") (E') (E') (A2') (A2") (E') (E')
                 (E") (E") (A2') (E') (E') (A1') (E') (E') (A1')
                 (A2") (A1') (E") (E") (A1") (E') (E') (E") (E")
                 (E') (E') (A2') (A1') (E') (E') (A2") (E') (E')
                 (E") (E") (A2') (E') (E') (A1') (A1') (E') (E')
                 (A1') (E') (E') (A1') (E') (E') (A1') (E') (E')
 The electronic state is 1-A1'.
 Alpha  occ. eigenvalues -- -515.39128-515.39128-515.39128 -68.01923 -68.01923
 Alpha  occ. eigenvalues --  -68.01923 -61.60392 -61.60392 -61.60392 -61.60392
 Alpha  occ. eigenvalues --  -61.60392 -61.60392 -61.60392 -61.60392 -61.60392
 Alpha  occ. eigenvalues --   -9.98782  -9.98782  -9.98782  -7.68836  -7.68836
 Alpha  occ. eigenvalues --   -7.68836  -7.68836  -7.68836  -7.68836  -7.68835
 Alpha  occ. eigenvalues --   -7.68835  -7.68835  -3.48353  -3.48353  -3.48353
 Alpha  occ. eigenvalues --   -3.48353  -3.48353  -3.48353  -3.48353  -3.48353
 Alpha  occ. eigenvalues --   -3.48353  -3.48353  -3.48353  -3.48353  -3.48352
 Alpha  occ. eigenvalues --   -3.48352  -3.48352  -0.98292  -0.98137  -0.98137
 Alpha  occ. eigenvalues --   -0.45531  -0.44966  -0.44966  -0.44733  -0.44475
 Alpha  occ. eigenvalues --   -0.44475  -0.44129  -0.43900  -0.43900
 Alpha virt. eigenvalues --    0.16436   0.19247   0.19778   0.19778   0.23210
 Alpha virt. eigenvalues --    0.23210   0.24821   0.24821   0.27237   0.27352
 Alpha virt. eigenvalues --    0.32605   0.32605   0.37368   0.37368   0.37636
 Alpha virt. eigenvalues --    0.37955   0.37974   0.38032   0.38032   0.38682
 Alpha virt. eigenvalues --    0.38784   0.38784   0.39268   0.39268   0.43930
 Alpha virt. eigenvalues --    0.47953   0.47953   1.17416   1.17416   1.17553
 Alpha virt. eigenvalues --    1.18511   1.18511   1.18614   1.18614   1.18746
 Alpha virt. eigenvalues --    1.18995   1.19171   1.19171   1.19201   1.19280
 Alpha virt. eigenvalues --    1.19280   1.19339   1.19391   1.19391   1.19392
 Alpha virt. eigenvalues --    1.19392   1.19601   1.19701   1.20563   1.22348
 Alpha virt. eigenvalues --    1.22348   1.22884   1.22884   1.24131   1.25104
 Alpha virt. eigenvalues --    1.25104   1.28933   1.60077   1.60077   1.60230
 Alpha virt. eigenvalues --    1.61968   1.62216   1.62376   1.62376   1.63549
 Alpha virt. eigenvalues --    1.63624   1.63624   1.64372   1.64372   1.68234
 Alpha virt. eigenvalues --    1.68234   1.70948   1.85454   2.00180   2.00180
 Alpha virt. eigenvalues --    3.01704   3.01707   3.01707   3.01708   3.01708
 Alpha virt. eigenvalues --    3.01709   3.01709   3.01710   3.01710   3.01712
 Alpha virt. eigenvalues --    3.01712   3.01713   3.01713   3.01714   3.01715
 Alpha virt. eigenvalues --    3.01715   3.01716   3.01720   3.01720   3.01720
 Alpha virt. eigenvalues --    3.01720   3.01720   3.01721   3.01721   3.01728
 Alpha virt. eigenvalues --    3.01795   3.01795   3.11831   3.11831   3.11952
 Alpha virt. eigenvalues --    3.12066   3.12170   3.12170   3.12187   3.12353
 Alpha virt. eigenvalues --    3.12353   3.12356   3.12402   3.12402   3.12435
 Alpha virt. eigenvalues --    3.12615   3.12699   3.12699   3.12700   3.12700
 Alpha virt. eigenvalues --    3.13870   3.13870   3.13895   4.42847   4.44502
 Alpha virt. eigenvalues --    4.44502   4.45241   4.45241   4.46704   4.47192
 Alpha virt. eigenvalues --    4.47192   4.50869   5.59819   5.59819   5.59930
 Alpha virt. eigenvalues --    5.61088   5.61341   5.61441   5.61441   5.62288
 Alpha virt. eigenvalues --    5.62329   5.62329   5.62826   5.62826   5.67337
 Alpha virt. eigenvalues --    5.67337   5.67410   8.49811   8.59773   8.59773
 Alpha virt. eigenvalues --   15.05848  15.07437  15.07437  15.08002  15.08002
 Alpha virt. eigenvalues --   15.09438  15.09771  15.09771  15.12588  31.89538
 Alpha virt. eigenvalues --   31.98696  31.98696 103.55578 103.63892 103.63892
 Alpha virt. eigenvalues --  352.47292 352.55065 352.550651975.661331975.80651
 Alpha virt. eigenvalues -- 1975.80651
          Condensed to atoms (all electrons):
               1          2          3
     1  Kr  36.003915  -0.001957  -0.001957
     2  Kr  -0.001957  36.003915  -0.001957
     3  Kr  -0.001957  -0.001957  36.003915
 Mulliken charges:
               1
     1  Kr  -0.000000
     2  Kr  -0.000000
     3  Kr  -0.000000
 Sum of Mulliken charges =  -0.00000
 Mulliken charges with hydrogens summed into heavy atoms:
               1
     1  Kr  -0.000000
     2  Kr  -0.000000
     3  Kr  -0.000000
 Electronic spatial extent (au):  <R**2>=           2360.7209
 Charge=             -0.0000 electrons
 Dipole moment (field-independent basis, Debye):
    X=             -0.0000    Y=             -0.0000    Z=             -0.0000  Tot=              0.0000
 Quadrupole moment (field-independent basis, Debye-Ang):
   XX=            -53.2262   YY=            -53.2262   ZZ=            -53.1894
   XY=              0.0000   XZ=             -0.0000   YZ=             -0.0000
 Traceless Quadrupole moment (field-independent basis, Debye-Ang):
   XX=             -0.0123   YY=             -0.0123   ZZ=              0.0245
   XY=              0.0000   XZ=             -0.0000   YZ=             -0.0000
 Octapole moment (field-independent basis, Debye-Ang**2):
  XXX=             -0.0000  YYY=             -0.0759  ZZZ=             -0.0000  XYY=              0.0000
  XXY=              0.0759  XXZ=             -0.0000  XZZ=              0.0000  YZZ=              0.0000
  YYZ=             -0.0000  XYZ=             -0.0000
 Hexadecapole moment (field-independent basis, Debye-Ang**3):
 XXXX=           -983.9012 YYYY=           -983.9012 ZZZZ=            -55.7773 XXXY=             -0.0000
 XXXZ=             -0.0000 YYYX=              0.0000 YYYZ=             -0.0000 ZZZX=             -0.0000
 ZZZY=             -0.0000 XXYY=           -327.9671 XXZZ=           -173.2106 YYZZ=           -173.2106
 XXYZ=             -0.0000 YYXZ=             -0.0000 ZZXY=              0.0000
 N-N= 4.926706465641D+02 E-N=-2.072210808120D+04  KE= 8.245268936008D+03
 PrsmSu:  requested number of processors reduced to:  21 ShMem   1 Linda.
 No NMR shielding tensors so no spin-rotation constants.
 Leave Link  601 at Sun Apr 18 04:23:34 2021, MaxMem=   104857600 cpu:             515.0 elap:              11.1
 (Enter /s/ls4/users/knvvv/bin/g16sse/l801.exe)
 DoSCS=F DFT=T ScalE2(SS,OS)=  1.000000  1.000000
 Range of M.O.s used for correlation:     1   225
 NBasis=   225 NAE=    54 NBE=    54 NFC=     0 NFV=     0
 NROrb=    225 NOA=    54 NOB=    54 NVA=   171 NVB=   171

 **** Warning!!: The largest alpha MO coefficient is  0.12045897D+02

 Leave Link  801 at Sun Apr 18 04:23:34 2021, MaxMem=   104857600 cpu:               3.7 elap:               0.1
 (Enter /s/ls4/users/knvvv/bin/g16sse/l914.exe)
 RHF ground state
 Doing stability rather than CIS.
 Two-electron integrals replicated using symmetry.
 MDV=   104857600 DFT=T DoStab=T Mixed=T DoRPA=F DoScal=F NonHer=F
 Making orbital integer symmetry assigments:
 Orbital symmetries:
       Occupied  (E') (E') (A1') (E') (E') (A1') (E") (E") (A2")
                 (A2') (E') (E') (A1') (E') (E') (E') (E') (A1')
                 (E") (E") (A2") (A2') (E') (E') (E') (E') (A1')
                 (E') (E') (A1') (A1") (E") (E") (E") (E") (A2")
                 (A2') (E') (E') (E') (E') (A1') (A1') (E') (E')
                 (A1') (E') (E') (A2") (E") (E") (A2') (E') (E')
       Virtual   (A1') (A2") (E') (E') (E') (E') (E") (E") (A2')
                 (A1') (E') (E') (E') (E') (A1') (A2") (A1') (E")
                 (E") (A1") (E') (E') (E") (E") (A2') (E') (E')
                 (E') (E') (A2") (E") (E") (E') (E') (A1') (A1')
                 (E') (E') (A2') (E") (E") (A2") (E") (E") (E')
                 (E') (A1") (A2') (A2") (E') (E') (E") (E") (A2')
                 (E') (E') (A1') (E') (E') (A1') (A2") (A1') (E")
                 (E") (A1") (E') (E') (E") (E") (E') (E') (A2')
                 (A1') (E') (E') (A1') (E') (E') (E") (E") (A2")
                 (A1") (E") (E") (A2') (A1') (E') (E') (A2") (E')
                 (E') (A1') (E") (E") (A1") (E") (E") (E') (E')
                 (A2') (E') (E') (E') (E') (A1') (A1') (E") (E")
                 (A2") (E') (E') (A2") (E") (E") (A2') (A1") (E')
                 (E') (E") (E") (E') (E') (A2') (A2") (E') (E')
                 (E") (E") (A2') (E') (E') (A1') (E') (E') (A1')
                 (A2") (A1') (E") (E") (A1") (E') (E') (E") (E")
                 (E') (E') (A2') (A1') (E') (E') (A2") (E') (E')
                 (E") (E") (A2') (E') (E') (A1') (A1') (E') (E')
                 (A1') (E') (E') (A1') (E') (E') (A1') (E') (E')
    24 initial guesses have been made.
 Convergence on wavefunction:    0.001000000000000
 Davidson Disk Diagonalization:  ConvIn= 1.00D-03 SkipCon=T Conv= 1.00D-03.
 Max sub-space:  2000 roots to seek:    24 dimension of matrix:        18468
 Iteration     1 Dimension    24 NMult     0 NNew     24
 Estimated number of processors is:   19
 CISAX will form     1 AO SS matrices at one time.
 NMat=     1 NSing=     1 JSym2X= 2.
 FoFJK:  IHMeth= 1 ICntrl=       0 DoSepK=F KAlg= 0 I1Cent=           0 FoldK=F
 IRaf= 750000000 NMat=       1 IRICut=       1 DoRegI=T DoRafI=F ISym2E= 2 IDoP0=0 IntGTp=1.
 FoFCou: FMM=F IPFlag=           0 FMFlag=      100000 FMFlg1=           0
         NFxFlg=           0 DoJE=F BraDBF=F KetDBF=F FulRan=T
         wScrn=  0.000000 ICntrl=         0 IOpCl=  0 I1Cent=           0 NGrid=           0
         NMat0=    1 NMatS0=      1 NMatT0=    0 NMatD0=    1 NMtDS0=    0 NMtDT0=    0
 Integrals replicated using symmetry in FoFCou.
 CoulSu:  requested number of processors reduced to:  20 ShMem   1 Linda.
 NMat=     1 NSing=     1 JSym2X= 2.
 CoulSu:  requested number of processors reduced to:  20 ShMem   1 Linda.
 NMat=     1 NSing=     1 JSym2X= 2.
 CoulSu:  requested number of processors reduced to:  20 ShMem   1 Linda.
 NMat=     1 NSing=     1 JSym2X= 2.
 CoulSu:  requested number of processors reduced to:  20 ShMem   1 Linda.
 NMat=     1 NSing=     1 JSym2X= 2.
 CoulSu:  requested number of processors reduced to:  20 ShMem   1 Linda.
 NMat=     1 NSing=     1 JSym2X= 2.
 CoulSu:  requested number of processors reduced to:  20 ShMem   1 Linda.
 NMat=     1 NSing=     1 JSym2X= 2.
 CoulSu:  requested number of processors reduced to:  20 ShMem   1 Linda.
 NMat=     1 NSing=     1 JSym2X= 2.
 CoulSu:  requested number of processors reduced to:  20 ShMem   1 Linda.
 NMat=     1 NSing=     1 JSym2X= 2.
 CoulSu:  requested number of processors reduced to:  20 ShMem   1 Linda.
 NMat=     1 NSing=     1 JSym2X= 2.
 CoulSu:  requested number of processors reduced to:  20 ShMem   1 Linda.
 NMat=     1 NSing=     1 JSym2X= 2.
 CoulSu:  requested number of processors reduced to:  20 ShMem   1 Linda.
 NMat=     1 NSing=     1 JSym2X= 2.
 CoulSu:  requested number of processors reduced to:  20 ShMem   1 Linda.
 NMat=     1 NSing=     0 JSym2X= 2.
 CoulSu:  requested number of processors reduced to:  20 ShMem   1 Linda.
 NMat=     1 NSing=     0 JSym2X= 2.
 CoulSu:  requested number of processors reduced to:  20 ShMem   1 Linda.
 NMat=     1 NSing=     0 JSym2X= 2.
 CoulSu:  requested number of processors reduced to:  20 ShMem   1 Linda.
 NMat=     1 NSing=     0 JSym2X= 2.
 CoulSu:  requested number of processors reduced to:  20 ShMem   1 Linda.
 NMat=     1 NSing=     0 JSym2X= 2.
 CoulSu:  requested number of processors reduced to:  20 ShMem   1 Linda.
 NMat=     1 NSing=     0 JSym2X= 2.
 CoulSu:  requested number of processors reduced to:  20 ShMem   1 Linda.
 NMat=     1 NSing=     0 JSym2X= 2.
 CoulSu:  requested number of processors reduced to:  20 ShMem   1 Linda.
 NMat=     1 NSing=     0 JSym2X= 2.
 CoulSu:  requested number of processors reduced to:  20 ShMem   1 Linda.
 NMat=     1 NSing=     0 JSym2X= 2.
 CoulSu:  requested number of processors reduced to:  20 ShMem   1 Linda.
 NMat=     1 NSing=     0 JSym2X= 2.
 CoulSu:  requested number of processors reduced to:  20 ShMem   1 Linda.
 NMat=     1 NSing=     0 JSym2X= 2.
 CoulSu:  requested number of processors reduced to:  20 ShMem   1 Linda.
 NMat=     1 NSing=     0 JSym2X= 2.
 CoulSu:  requested number of processors reduced to:  20 ShMem   1 Linda.
 New state      1 was old state      4
 Excitation Energies [eV] at current iteration:
 Root      1 :    12.702822358653020
 Root      2 :    12.719637253764280
 Root      3 :    13.291911584717850
 Root      4 :    13.353027057788810
 Root      5 :    13.511570136971900
 Root      6 :    13.512678820880480
 Root      7 :    13.616439900796060
 Root      8 :    13.618007365691930
 Root      9 :    13.636694516061870
 Root     10 :    13.766452219557660
 Root     11 :    13.776452851625320
 Root     12 :    13.777165677587510
 Root     13 :    13.817982184150090
 Root     14 :    13.820599125184980
 Root     15 :    13.910537970828860
 Root     16 :    14.207125057493660
 Root     17 :    14.210331590869680
 Root     18 :    14.378701768602690
 Root     19 :    14.687945719481640
 Root     20 :    14.689507043332890
 Root     21 :    14.743067945170290
 Root     22 :    14.744661037866900
 Root     23 :    14.771372368013310
 Root     24 :    14.807147598945830
 Iteration     2 Dimension    48 NMult    24 NNew     24
 Estimated number of processors is:   19
 CISAX will form     1 AO SS matrices at one time.
 NMat=     1 NSing=     1 JSym2X= 2.
 CoulSu:  requested number of processors reduced to:  20 ShMem   1 Linda.
 NMat=     1 NSing=     1 JSym2X= 2.
 CoulSu:  requested number of processors reduced to:  20 ShMem   1 Linda.
 NMat=     1 NSing=     1 JSym2X= 2.
 CoulSu:  requested number of processors reduced to:  20 ShMem   1 Linda.
 NMat=     1 NSing=     1 JSym2X= 2.
 CoulSu:  requested number of processors reduced to:  20 ShMem   1 Linda.
 NMat=     1 NSing=     1 JSym2X= 2.
 CoulSu:  requested number of processors reduced to:  20 ShMem   1 Linda.
 NMat=     1 NSing=     1 JSym2X= 2.
 CoulSu:  requested number of processors reduced to:  20 ShMem   1 Linda.
 NMat=     1 NSing=     1 JSym2X= 2.
 CoulSu:  requested number of processors reduced to:  20 ShMem   1 Linda.
 NMat=     1 NSing=     1 JSym2X= 2.
 CoulSu:  requested number of processors reduced to:  20 ShMem   1 Linda.
 NMat=     1 NSing=     1 JSym2X= 2.
 CoulSu:  requested number of processors reduced to:  20 ShMem   1 Linda.
 NMat=     1 NSing=     1 JSym2X= 2.
 CoulSu:  requested number of processors reduced to:  20 ShMem   1 Linda.
 NMat=     1 NSing=     1 JSym2X= 2.
 CoulSu:  requested number of processors reduced to:  20 ShMem   1 Linda.
 NMat=     1 NSing=     1 JSym2X= 2.
 CoulSu:  requested number of processors reduced to:  20 ShMem   1 Linda.
 NMat=     1 NSing=     0 JSym2X= 2.
 CoulSu:  requested number of processors reduced to:  20 ShMem   1 Linda.
 NMat=     1 NSing=     0 JSym2X= 2.
 CoulSu:  requested number of processors reduced to:  20 ShMem   1 Linda.
 NMat=     1 NSing=     0 JSym2X= 2.
 CoulSu:  requested number of processors reduced to:  20 ShMem   1 Linda.
 NMat=     1 NSing=     0 JSym2X= 2.
 CoulSu:  requested number of processors reduced to:  20 ShMem   1 Linda.
 NMat=     1 NSing=     0 JSym2X= 2.
 CoulSu:  requested number of processors reduced to:  20 ShMem   1 Linda.
 NMat=     1 NSing=     0 JSym2X= 2.
 CoulSu:  requested number of processors reduced to:  20 ShMem   1 Linda.
 NMat=     1 NSing=     0 JSym2X= 2.
 CoulSu:  requested number of processors reduced to:  20 ShMem   1 Linda.
 NMat=     1 NSing=     0 JSym2X= 2.
 CoulSu:  requested number of processors reduced to:  20 ShMem   1 Linda.
 NMat=     1 NSing=     0 JSym2X= 2.
 CoulSu:  requested number of processors reduced to:  20 ShMem   1 Linda.
 NMat=     1 NSing=     0 JSym2X= 2.
 CoulSu:  requested number of processors reduced to:  20 ShMem   1 Linda.
 NMat=     1 NSing=     0 JSym2X= 2.
 CoulSu:  requested number of processors reduced to:  20 ShMem   1 Linda.
 NMat=     1 NSing=     0 JSym2X= 2.
 CoulSu:  requested number of processors reduced to:  20 ShMem   1 Linda.
 Root      1 not converged, maximum delta is    0.104400242062306
 Excitation Energies [eV] at current iteration:
 Root      1 :    11.774910360112610   Change is   -0.927911998540404
 Root      2 :    11.798332224062200   Change is   -0.921305029702075
 Root      3 :    12.484573963558310   Change is   -0.807337621159543
 Root      4 :    12.852300902973310   Change is   -0.500726154815507
 Root      5 :    12.971413736078550   Change is   -0.540156400893349
 Root      6 :    12.973064623048840   Change is   -0.539614197831646
 Root      7 :    13.082781914869380   Change is   -0.533657985926682
 Root      8 :    13.084098526585140   Change is   -0.533908839106796
 Root      9 :    13.257673426487650   Change is   -0.508778793070010
 Root     10 :    13.416039718179120   Change is   -0.220654797882759
 Root     11 :    13.557302282608060   Change is   -0.219150569017259
 Root     12 :    13.559326233606770   Change is   -0.217839443980739
 Root     13 :    13.574118863504890   Change is   -0.243863320645206
 Root     14 :    13.575871498264520   Change is   -0.244727626920462
 Root     15 :    13.645276373350440   Change is   -0.561848684143220
 Root     16 :    13.647218433390870   Change is   -0.563113157478809
 Root     17 :    13.761456623120410   Change is   -0.149081347708446
 Root     18 :    13.829674398430400   Change is   -0.549027370172291
 Root     19 :    14.113690798843570   Change is   -0.657681569169740
 Root     20 :    14.126834727957950   Change is   -0.561110991523685
 Root     21 :    14.130966208780880   Change is   -0.558540834552005
 Root     22 :    14.268277567764570   Change is   -0.538870031181255
 Root     23 :    14.328410004713260   Change is   -0.414657940457024
 Root     24 :    14.331770172312680   Change is   -0.412890865554223
 Iteration     3 Dimension    54 NMult    48 NNew      6
 Estimated number of processors is:   19
 CISAX will form     1 AO SS matrices at one time.
 NMat=     1 NSing=     1 JSym2X= 2.
 CoulSu:  requested number of processors reduced to:  20 ShMem   1 Linda.
 NMat=     1 NSing=     1 JSym2X= 2.
 CoulSu:  requested number of processors reduced to:  20 ShMem   1 Linda.
 NMat=     1 NSing=     1 JSym2X= 2.
 CoulSu:  requested number of processors reduced to:  20 ShMem   1 Linda.
 NMat=     1 NSing=     0 JSym2X= 2.
 CoulSu:  requested number of processors reduced to:  20 ShMem   1 Linda.
 NMat=     1 NSing=     0 JSym2X= 2.
 CoulSu:  requested number of processors reduced to:  20 ShMem   1 Linda.
 NMat=     1 NSing=     0 JSym2X= 2.
 CoulSu:  requested number of processors reduced to:  20 ShMem   1 Linda.
 Root      1 not converged, maximum delta is    0.033275481107656
 Excitation Energies [eV] at current iteration:
 Root      1 :    11.720539723162420   Change is   -0.054370636950191
 Root      2 :    11.742789542920580   Change is   -0.055542681141622
 Root      3 :    12.359839683388120   Change is   -0.124734280170194
 Root      4 :    13.335496702041790   Change is   -0.080543016137329
 Root      5 :    13.511244465893890   Change is   -0.046057816714167
 Root      6 :    13.512848227561660   Change is   -0.046478006045113
 Iteration     4 Dimension    60 NMult    54 NNew      6
 Estimated number of processors is:   19
 CISAX will form     1 AO SS matrices at one time.
 NMat=     1 NSing=     1 JSym2X= 2.
 CoulSu:  requested number of processors reduced to:  20 ShMem   1 Linda.
 NMat=     1 NSing=     1 JSym2X= 2.
 CoulSu:  requested number of processors reduced to:  20 ShMem   1 Linda.
 NMat=     1 NSing=     1 JSym2X= 2.
 CoulSu:  requested number of processors reduced to:  20 ShMem   1 Linda.
 NMat=     1 NSing=     0 JSym2X= 2.
 CoulSu:  requested number of processors reduced to:  20 ShMem   1 Linda.
 NMat=     1 NSing=     0 JSym2X= 2.
 CoulSu:  requested number of processors reduced to:  20 ShMem   1 Linda.
 NMat=     1 NSing=     0 JSym2X= 2.
 CoulSu:  requested number of processors reduced to:  20 ShMem   1 Linda.
 Root      1 not converged, maximum delta is    0.011778847698334
 Excitation Energies [eV] at current iteration:
 Root      1 :    11.712154474742500   Change is   -0.008385248419925
 Root      2 :    11.734345534580150   Change is   -0.008444008340435
 Root      3 :    12.352915995971280   Change is   -0.006923687416833
 Root      4 :    13.313652451951540   Change is   -0.021844250090245
 Root      5 :    13.507499285741820   Change is   -0.003745180152070
 Root      6 :    13.509090539026730   Change is   -0.003757688534934
 Iteration     5 Dimension    66 NMult    60 NNew      6
 Estimated number of processors is:   19
 CISAX will form     1 AO SS matrices at one time.
 NMat=     1 NSing=     1 JSym2X= 2.
 CoulSu:  requested number of processors reduced to:  20 ShMem   1 Linda.
 NMat=     1 NSing=     1 JSym2X= 2.
 CoulSu:  requested number of processors reduced to:  20 ShMem   1 Linda.
 NMat=     1 NSing=     1 JSym2X= 2.
 CoulSu:  requested number of processors reduced to:  20 ShMem   1 Linda.
 NMat=     1 NSing=     0 JSym2X= 2.
 CoulSu:  requested number of processors reduced to:  20 ShMem   1 Linda.
 NMat=     1 NSing=     0 JSym2X= 2.
 CoulSu:  requested number of processors reduced to:  20 ShMem   1 Linda.
 NMat=     1 NSing=     0 JSym2X= 2.
 CoulSu:  requested number of processors reduced to:  20 ShMem   1 Linda.
 Root      1 not converged, maximum delta is    0.002543566724938
 Excitation Energies [eV] at current iteration:
 Root      1 :    11.711818044798370   Change is   -0.000336429944130
 Root      2 :    11.733999784105680   Change is   -0.000345750474463
 Root      3 :    12.351872842717610   Change is   -0.001043153253676
 Root      4 :    13.302582829700300   Change is   -0.011069622251243
 Root      5 :    13.506971018336590   Change is   -0.000528267405233
 Root      6 :    13.508572760194260   Change is   -0.000517778832461
 Iteration     6 Dimension    72 NMult    66 NNew      6
 Estimated number of processors is:   19
 CISAX will form     1 AO SS matrices at one time.
 NMat=     1 NSing=     1 JSym2X= 2.
 CoulSu:  requested number of processors reduced to:  20 ShMem   1 Linda.
 NMat=     1 NSing=     1 JSym2X= 2.
 CoulSu:  requested number of processors reduced to:  20 ShMem   1 Linda.
 NMat=     1 NSing=     1 JSym2X= 2.
 CoulSu:  requested number of processors reduced to:  20 ShMem   1 Linda.
 NMat=     1 NSing=     0 JSym2X= 2.
 CoulSu:  requested number of processors reduced to:  20 ShMem   1 Linda.
 NMat=     1 NSing=     0 JSym2X= 2.
 CoulSu:  requested number of processors reduced to:  20 ShMem   1 Linda.
 NMat=     1 NSing=     0 JSym2X= 2.
 CoulSu:  requested number of processors reduced to:  20 ShMem   1 Linda.
 Root      1 has converged.
 Excitation Energies [eV] at current iteration:
 Root      1 :    11.711783029966880   Change is   -0.000035014831490
 Root      2 :    11.733963647784050   Change is   -0.000036136321636
 Root      3 :    12.351765616260910   Change is   -0.000107226456703
 Root      4 :    13.301114759368340   Change is   -0.001468070331954
 Root      5 :    13.506795712358170   Change is   -0.000175305978416
 Root      6 :    13.508402246359690   Change is   -0.000170513834573
 Convergence achieved on expansion vectors.
 ***********************************************************************
 Stability analysis using <AA,BB:AA,BB> singles matrix:
 ***********************************************************************
 1PDM for each excited state written to RWF  633
 Ground to excited state transition densities written to RWF  633

 Eigenvectors of the stability matrix:
 
 Eigenvector   1:      Triplet-E'   Eigenvalue= 0.4304001  <S**2>=2.000
      46 -> 80         0.10360
      47 -> 55        -0.11006
      52 -> 57         0.12050
      53 -> 55         0.61241
      53 -> 57        -0.13635
      54 -> 58         0.13498
 The wavefunction is stable under the perturbations considered.
 Leave Link  914 at Sun Apr 18 04:28:06 2021, MaxMem=   104857600 cpu:           10752.7 elap:             272.4
 (Enter /s/ls4/users/knvvv/bin/g16sse/l508.exe)
 The wavefunction is already stable.
 Leave Link  508 at Sun Apr 18 04:28:06 2021, MaxMem=   104857600 cpu:               2.2 elap:               0.1
 (Enter /s/ls4/users/knvvv/bin/g16sse/l601.exe)
 Copying SCF densities to generalized density rwf, IOpCl= 0 IROHF=0.

 **********************************************************************

            Population analysis using the SCF density.

 **********************************************************************

 Orbital symmetries:
       Occupied  (E') (E') (A1') (E') (E') (A1') (E") (E") (A2")
                 (A2') (E') (E') (A1') (E') (E') (E') (E') (A1')
                 (E") (E") (A2") (A2') (E') (E') (E') (E') (A1')
                 (E') (E') (A1') (A1") (E") (E") (E") (E") (A2")
                 (A2') (E') (E') (E') (E') (A1') (A1') (E') (E')
                 (A1') (E') (E') (A2") (E") (E") (A2') (E') (E')
       Virtual   (A1') (A2") (E') (E') (E') (E') (E") (E") (A2')
                 (A1') (E') (E') (E') (E') (A1') (A2") (A1') (E")
                 (E") (A1") (E') (E') (E") (E") (A2') (E') (E')
                 (E') (E') (A2") (E") (E") (E') (E') (A1') (A1')
                 (E') (E') (A2') (E") (E") (A2") (E") (E") (E')
                 (E') (A1") (A2') (A2") (E') (E') (E") (E") (A2')
                 (E') (E') (A1') (E') (E') (A1') (A2") (A1') (E")
                 (E") (A1") (E') (E') (E") (E") (E') (E') (A2')
                 (A1') (E') (E') (A1') (E') (E') (E") (E") (A2")
                 (A1") (E") (E") (A2') (A1') (E') (E') (A2") (E')
                 (E') (A1') (E") (E") (A1") (E") (E") (E') (E')
                 (A2') (E') (E') (E') (E') (A1') (A1') (E") (E")
                 (A2") (E') (E') (A2") (E") (E") (A2') (A1") (E')
                 (E') (E") (E") (E') (E') (A2') (A2") (E') (E')
                 (E") (E") (A2') (E') (E') (A1') (E') (E') (A1')
                 (A2") (A1') (E") (E") (A1") (E') (E') (E") (E")
                 (E') (E') (A2') (A1') (E') (E') (A2") (E') (E')
                 (E") (E") (A2') (E') (E') (A1') (A1') (E') (E')
                 (A1') (E') (E') (A1') (E') (E') (A1') (E') (E')
 The electronic state is 1-A1'.
 Alpha  occ. eigenvalues -- -515.39128-515.39128-515.39128 -68.01923 -68.01923
 Alpha  occ. eigenvalues --  -68.01923 -61.60392 -61.60392 -61.60392 -61.60392
 Alpha  occ. eigenvalues --  -61.60392 -61.60392 -61.60392 -61.60392 -61.60392
 Alpha  occ. eigenvalues --   -9.98782  -9.98782  -9.98782  -7.68836  -7.68836
 Alpha  occ. eigenvalues --   -7.68836  -7.68836  -7.68836  -7.68836  -7.68835
 Alpha  occ. eigenvalues --   -7.68835  -7.68835  -3.48353  -3.48353  -3.48353
 Alpha  occ. eigenvalues --   -3.48353  -3.48353  -3.48353  -3.48353  -3.48353
 Alpha  occ. eigenvalues --   -3.48353  -3.48353  -3.48353  -3.48353  -3.48352
 Alpha  occ. eigenvalues --   -3.48352  -3.48352  -0.98292  -0.98137  -0.98137
 Alpha  occ. eigenvalues --   -0.45531  -0.44966  -0.44966  -0.44733  -0.44475
 Alpha  occ. eigenvalues --   -0.44475  -0.44129  -0.43900  -0.43900
 Alpha virt. eigenvalues --    0.16436   0.19247   0.19778   0.19778   0.23210
 Alpha virt. eigenvalues --    0.23210   0.24821   0.24821   0.27237   0.27352
 Alpha virt. eigenvalues --    0.32605   0.32605   0.37368   0.37368   0.37636
 Alpha virt. eigenvalues --    0.37955   0.37974   0.38032   0.38032   0.38682
 Alpha virt. eigenvalues --    0.38784   0.38784   0.39268   0.39268   0.43930
 Alpha virt. eigenvalues --    0.47953   0.47953   1.17416   1.17416   1.17553
 Alpha virt. eigenvalues --    1.18511   1.18511   1.18614   1.18614   1.18746
 Alpha virt. eigenvalues --    1.18995   1.19171   1.19171   1.19201   1.19280
 Alpha virt. eigenvalues --    1.19280   1.19339   1.19391   1.19391   1.19392
 Alpha virt. eigenvalues --    1.19392   1.19601   1.19701   1.20563   1.22348
 Alpha virt. eigenvalues --    1.22348   1.22884   1.22884   1.24131   1.25104
 Alpha virt. eigenvalues --    1.25104   1.28933   1.60077   1.60077   1.60230
 Alpha virt. eigenvalues --    1.61968   1.62216   1.62376   1.62376   1.63549
 Alpha virt. eigenvalues --    1.63624   1.63624   1.64372   1.64372   1.68234
 Alpha virt. eigenvalues --    1.68234   1.70948   1.85454   2.00180   2.00180
 Alpha virt. eigenvalues --    3.01704   3.01707   3.01707   3.01708   3.01708
 Alpha virt. eigenvalues --    3.01709   3.01709   3.01710   3.01710   3.01712
 Alpha virt. eigenvalues --    3.01712   3.01713   3.01713   3.01714   3.01715
 Alpha virt. eigenvalues --    3.01715   3.01716   3.01720   3.01720   3.01720
 Alpha virt. eigenvalues --    3.01720   3.01720   3.01721   3.01721   3.01728
 Alpha virt. eigenvalues --    3.01795   3.01795   3.11831   3.11831   3.11952
 Alpha virt. eigenvalues --    3.12066   3.12170   3.12170   3.12187   3.12353
 Alpha virt. eigenvalues --    3.12353   3.12356   3.12402   3.12402   3.12435
 Alpha virt. eigenvalues --    3.12615   3.12699   3.12699   3.12700   3.12700
 Alpha virt. eigenvalues --    3.13870   3.13870   3.13895   4.42847   4.44502
 Alpha virt. eigenvalues --    4.44502   4.45241   4.45241   4.46704   4.47192
 Alpha virt. eigenvalues --    4.47192   4.50869   5.59819   5.59819   5.59930
 Alpha virt. eigenvalues --    5.61088   5.61341   5.61441   5.61441   5.62288
 Alpha virt. eigenvalues --    5.62329   5.62329   5.62826   5.62826   5.67337
 Alpha virt. eigenvalues --    5.67337   5.67410   8.49811   8.59773   8.59773
 Alpha virt. eigenvalues --   15.05848  15.07437  15.07437  15.08002  15.08002
 Alpha virt. eigenvalues --   15.09438  15.09771  15.09771  15.12588  31.89538
 Alpha virt. eigenvalues --   31.98696  31.98696 103.55578 103.63892 103.63892
 Alpha virt. eigenvalues --  352.47292 352.55065 352.550651975.661331975.80651
 Alpha virt. eigenvalues -- 1975.80651
          Condensed to atoms (all electrons):
               1          2          3
     1  Kr  36.003915  -0.001957  -0.001957
     2  Kr  -0.001957  36.003915  -0.001957
     3  Kr  -0.001957  -0.001957  36.003915
 Mulliken charges:
               1
     1  Kr  -0.000000
     2  Kr  -0.000000
     3  Kr  -0.000000
 Sum of Mulliken charges =  -0.00000
 Mulliken charges with hydrogens summed into heavy atoms:
               1
     1  Kr  -0.000000
     2  Kr  -0.000000
     3  Kr  -0.000000
 Electronic spatial extent (au):  <R**2>=           2360.7209
 Charge=             -0.0000 electrons
 Dipole moment (field-independent basis, Debye):
    X=             -0.0000    Y=             -0.0000    Z=             -0.0000  Tot=              0.0000
 Quadrupole moment (field-independent basis, Debye-Ang):
   XX=            -53.2262   YY=            -53.2262   ZZ=            -53.1894
   XY=              0.0000   XZ=             -0.0000   YZ=             -0.0000
 Traceless Quadrupole moment (field-independent basis, Debye-Ang):
   XX=             -0.0123   YY=             -0.0123   ZZ=              0.0245
   XY=              0.0000   XZ=             -0.0000   YZ=             -0.0000
 Octapole moment (field-independent basis, Debye-Ang**2):
  XXX=             -0.0000  YYY=             -0.0759  ZZZ=             -0.0000  XYY=              0.0000
  XXY=              0.0759  XXZ=             -0.0000  XZZ=              0.0000  YZZ=              0.0000
  YYZ=             -0.0000  XYZ=             -0.0000
 Hexadecapole moment (field-independent basis, Debye-Ang**3):
 XXXX=           -983.9012 YYYY=           -983.9012 ZZZZ=            -55.7773 XXXY=             -0.0000
 XXXZ=             -0.0000 YYYX=              0.0000 YYYZ=             -0.0000 ZZZX=             -0.0000
 ZZZY=             -0.0000 XXYY=           -327.9671 XXZZ=           -173.2106 YYZZ=           -173.2106
 XXYZ=             -0.0000 YYXZ=             -0.0000 ZZXY=              0.0000
 N-N= 4.926706465641D+02 E-N=-2.072210808120D+04  KE= 8.245268936008D+03
 PrsmSu:  requested number of processors reduced to:  21 ShMem   1 Linda.
 No NMR shielding tensors so no spin-rotation constants.
 Leave Link  601 at Sun Apr 18 04:28:18 2021, MaxMem=   104857600 cpu:             547.9 elap:              11.8
 (Enter /s/ls4/users/knvvv/bin/g16sse/l9999.exe)

 Test job not archived.
 1\1\GINC-N178\Stability\RM062X\def2QZVP\Kr3\KNVVV\18-Apr-2021\0\\#P M0
 62X/Def2QZVP Integral=UltraFineGrid SCF=NoSymm Stable=(RExt, Opt) IOp(
 1/33=1)\\Database calculations.\\0,1\Kr,0,1.2055357,2.0880491,0.\Kr,0,
 1.2055357,-2.0880491,0.\Kr,0,-2.4110714,0.,0.\\Version=ES64L-G16RevA.0
 3\State=1-A1'\HF=-8261.635216\RMSD=7.191e-09\Dipole=0.,0.,0.\Quadrupol
 e=-0.0091125,-0.0091125,0.018225,0.,0.,0.\PG=D03H [3C2(Kr1)]\\@


 You don't have to suffer to be a poet.
 Adolescence is enough suffering for anyone.
                             -- John Ciardi
 Job cpu time:       0 days  8 hours 57 minutes 37.7 seconds.
 Elapsed time:       0 days  0 hours 12 minutes 14.6 seconds.
 File lengths (MBytes):  RWF=    443 Int=      0 D2E=      0 Chk=     12 Scr=      1
 Normal termination of Gaussian 16 at Sun Apr 18 04:28:18 2021.
