 Entering Gaussian System, Link 0=/s/ls4/users/knvvv/bin/g16sse/g16
 Input=data/database/M062X--def2-QZVP--G2RC_68.gjf
 Output=data/database/M062X--def2-QZVP--G2RC_68.log
 Initial command:
 /s/ls4/users/knvvv/bin/g16sse/l1.exe "/s/ls4/users/knvvv/bin/scratch/Gau-30400.inp" -scrdir="/s/ls4/users/knvvv/bin/scratch/"
 Entering Link 1 = /s/ls4/users/knvvv/bin/g16sse/l1.exe PID=     30401.
  
 Copyright (c) 1988,1990,1992,1993,1995,1998,2003,2009,2016,
            Gaussian, Inc.  All Rights Reserved.
  
 This is part of the Gaussian(R) 16 program.  It is based on
 the Gaussian(R) 09 system (copyright 2009, Gaussian, Inc.),
 the Gaussian(R) 03 system (copyright 2003, Gaussian, Inc.),
 the Gaussian(R) 98 system (copyright 1998, Gaussian, Inc.),
 the Gaussian(R) 94 system (copyright 1995, Gaussian, Inc.),
 the Gaussian 92(TM) system (copyright 1992, Gaussian, Inc.),
 the Gaussian 90(TM) system (copyright 1990, Gaussian, Inc.),
 the Gaussian 88(TM) system (copyright 1988, Gaussian, Inc.),
 the Gaussian 86(TM) system (copyright 1986, Carnegie Mellon
 University), and the Gaussian 82(TM) system (copyright 1983,
 Carnegie Mellon University). Gaussian is a federally registered
 trademark of Gaussian, Inc.
  
 This software contains proprietary and confidential information,
 including trade secrets, belonging to Gaussian, Inc.
  
 This software is provided under written license and may be
 used, copied, transmitted, or stored only in accord with that
 written license.
  
 The following legend is applicable only to US Government
 contracts under FAR:
  
                    RESTRICTED RIGHTS LEGEND
  
 Use, reproduction and disclosure by the US Government is
 subject to restrictions as set forth in subparagraphs (a)
 and (c) of the Commercial Computer Software - Restricted
 Rights clause in FAR 52.227-19.
  
 Gaussian, Inc.
 340 Quinnipiac St., Bldg. 40, Wallingford CT 06492
  
  
 ---------------------------------------------------------------
 Warning -- This program may not be used in any manner that
 competes with the business of Gaussian, Inc. or will provide
 assistance to any competitor of Gaussian, Inc.  The licensee
 of this program is prohibited from giving any competitor of
 Gaussian, Inc. access to this program.  By using this program,
 the user acknowledges that Gaussian, Inc. is engaged in the
 business of creating and licensing software in the field of
 computational chemistry and represents and warrants to the
 licensee that it is not a competitor of Gaussian, Inc. and that
 it will not use this program in any manner prohibited above.
 ---------------------------------------------------------------
  

 Cite this work as:
 Gaussian 16, Revision A.03,
 M. J. Frisch, G. W. Trucks, H. B. Schlegel, G. E. Scuseria, 
 M. A. Robb, J. R. Cheeseman, G. Scalmani, V. Barone, 
 G. A. Petersson, H. Nakatsuji, X. Li, M. Caricato, A. V. Marenich, 
 J. Bloino, B. G. Janesko, R. Gomperts, B. Mennucci, H. P. Hratchian, 
 J. V. Ortiz, A. F. Izmaylov, J. L. Sonnenberg, D. Williams-Young, 
 F. Ding, F. Lipparini, F. Egidi, J. Goings, B. Peng, A. Petrone, 
 T. Henderson, D. Ranasinghe, V. G. Zakrzewski, J. Gao, N. Rega, 
 G. Zheng, W. Liang, M. Hada, M. Ehara, K. Toyota, R. Fukuda, 
 J. Hasegawa, M. Ishida, T. Nakajima, Y. Honda, O. Kitao, H. Nakai, 
 T. Vreven, K. Throssell, J. A. Montgomery, Jr., J. E. Peralta, 
 F. Ogliaro, M. J. Bearpark, J. J. Heyd, E. N. Brothers, K. N. Kudin, 
 V. N. Staroverov, T. A. Keith, R. Kobayashi, J. Normand, 
 K. Raghavachari, A. P. Rendell, J. C. Burant, S. S. Iyengar, 
 J. Tomasi, M. Cossi, J. M. Millam, M. Klene, C. Adamo, R. Cammi, 
 J. W. Ochterski, R. L. Martin, K. Morokuma, O. Farkas, 
 J. B. Foresman, and D. J. Fox, Gaussian, Inc., Wallingford CT, 2016.
 
 ******************************************
 Gaussian 16:  ES64L-G16RevA.03 25-Dec-2016
                16-Apr-2021 
 ******************************************
 %RWF=temp17_97329,70GB
 %nprocshared=48
 Will use up to   48 processors via shared memory.
 Default route: MaxDisk=80GB
 ----------------------------------------------------------------------
 #P M062X/Def2QZVP Integral=UltraFineGrid SCF=NoSymm Stable=(RExt, Opt)
  IOp(1/33=1)
 ----------------------------------------------------------------------
 1/33=1,38=1,172=1/1;
 2/12=2,17=6,18=5,40=1/2;
 3/5=45,7=101,11=2,25=1,30=1,74=-55,75=-5/1,2,3;
 4/9=2/1;
 5/5=2,38=5/2;
 6/7=2,8=2,9=2,10=2,28=1/1;
 8/6=1,10=90,11=11/1;
 9/8=-3,42=1,46=1/14;
 5/5=2,8=3,17=40,38=5/8(-2);
 6/7=2,8=2,9=2,10=2,28=1/1;
 99/5=1,9=1/99;
 Leave Link    1 at Fri Apr 16 23:22:11 2021, MaxMem=           0 cpu:              10.2 elap:               0.2
 (Enter /s/ls4/users/knvvv/bin/g16sse/l101.exe)
 ONIOM data not found on unit 2.
 ----------------------
 Database calculations.
 ----------------------
 TstMul:  ICh=     0
 TstMul:  Mul=     1
 TstMul:  ICh=     0
 TstMul:  Mul=     1
 Symbolic Z-matrix:
 Charge =  0 Multiplicity = 1
 N                     0.        0.       -0.02119 
 N                     0.        0.       -1.14245 
 O                     0.        0.        1.16363 
 
 RdStrC is calling ZToCFu for IStruc=1 NZ=     3.
 PrtBox:  NBox=     1 Levels=  1 BoxLen=    8.00 SMaxX=        4.36
          Shift=            0.000000            0.000000            2.158915
 Box      1 Number                   0 centers from      1 to      3:
 After GenITR:
 ITRead=  0  0  0
 MicOpt= -1 -1 -1
 ITRead=  0  0  0
 MicOpt= -1 -1 -1
 NAtoms=      3 NQM=        3 NQMF=       0 NMMI=      0 NMMIF=      0
                NMic=       0 NMicF=      0.
                    Isotopes and Nuclear Properties:
 (Nuclear quadrupole moments (NQMom) in fm**2, nuclear magnetic moments (NMagM)
  in nuclear magnetons)

  Atom         1           2           3
 IAtWgt=          14          14          16
 AtmWgt=  14.0030740  14.0030740  15.9949146
 NucSpn=           2           2           0
 AtZEff=  -0.0000000  -0.0000000  -0.0000000
 NQMom=    2.0440000   2.0440000   0.0000000
 NMagM=    0.4037610   0.4037610   0.0000000
 AtZNuc=   7.0000000   7.0000000   8.0000000
 No MM parameters found.
 Leave Link  101 at Fri Apr 16 23:22:11 2021, MaxMem=   104857600 cpu:               6.5 elap:               0.2
 (Enter /s/ls4/users/knvvv/bin/g16sse/l202.exe)
                          Input orientation:                          
 ---------------------------------------------------------------------
 Center     Atomic      Atomic             Coordinates (Angstroms)
 Number     Number       Type             X           Y           Z
 ---------------------------------------------------------------------
      1          7           0        0.000000    0.000000   -0.021186
      2          7           0        0.000000    0.000000   -1.142449
      3          8           0        0.000000    0.000000    1.163635
 ---------------------------------------------------------------------
                    Distance matrix (angstroms):
                    1          2          3
     1  N    0.000000
     2  N    1.121263   0.000000
     3  O    1.184821   2.306083   0.000000
 Stoichiometry    N2O
 Framework group  C*V[C*(NNO)]
 Deg. of freedom     2
 Full point group                 C*V     NOp   4
 Largest Abelian subgroup         C2V     NOp   4
 Largest concise Abelian subgroup C1      NOp   1
                         Standard orientation:                         
 ---------------------------------------------------------------------
 Center     Atomic      Atomic             Coordinates (Angstroms)
 Number     Number       Type             X           Y           Z
 ---------------------------------------------------------------------
      1          7           0        0.000000    0.000000   -0.074079
      2          7           0        0.000000    0.000000   -1.195341
      3          8           0        0.000000    0.000000    1.110742
 ---------------------------------------------------------------------
 Rotational constants (GHZ):           0.0000000          12.6920023          12.6920023
 Leave Link  202 at Fri Apr 16 23:22:11 2021, MaxMem=   104857600 cpu:               4.8 elap:               0.1
 (Enter /s/ls4/users/knvvv/bin/g16sse/l301.exe)
 Standard basis: def2QZVP (5D, 7F)
 Ernie: Thresh=  0.10000D-02 Tol=  0.10000D-05 Strict=F.
 There are    96 symmetry adapted cartesian basis functions of A1  symmetry.
 There are    24 symmetry adapted cartesian basis functions of A2  symmetry.
 There are    48 symmetry adapted cartesian basis functions of B1  symmetry.
 There are    48 symmetry adapted cartesian basis functions of B2  symmetry.
 There are    72 symmetry adapted basis functions of A1  symmetry.
 There are    21 symmetry adapted basis functions of A2  symmetry.
 There are    39 symmetry adapted basis functions of B1  symmetry.
 There are    39 symmetry adapted basis functions of B2  symmetry.
   171 basis functions,   276 primitive gaussians,   216 cartesian basis functions
    11 alpha electrons       11 beta electrons
       nuclear repulsion energy        60.9870736615 Hartrees.
 IExCor= 4336 DFT=T Ex+Corr=M062X ExCW=0 ScaHFX=  0.540000
 ScaDFX=  1.000000  1.000000  1.000000  1.000000 ScalE2=  1.000000  1.000000
 IRadAn=      5 IRanWt=     -1 IRanGd=            0 ICorTp=0 IEmpDi=  4
 NAtoms=    3 NActive=    3 NUniq=    3 SFac= 1.00D+00 NAtFMM=   60 NAOKFM=F Big=F
 Integral buffers will be    131072 words long.
 Raffenetti 2 integral format.
 Two-electron integral symmetry is turned on.
 Leave Link  301 at Fri Apr 16 23:22:11 2021, MaxMem=   104857600 cpu:               5.6 elap:               0.1
 (Enter /s/ls4/users/knvvv/bin/g16sse/l302.exe)
 NPDir=0 NMtPBC=     1 NCelOv=     1 NCel=       1 NClECP=     1 NCelD=      1
         NCelK=      1 NCelE2=     1 NClLst=     1 CellRange=     0.0.
 One-electron integrals computed using PRISM.
 One-electron integral symmetry used in STVInt
 PrsmSu:  requested number of processors reduced to:   4 ShMem   1 Linda.
 PrsmSu:  requested number of processors reduced to:  21 ShMem   1 Linda.
   4 Symmetry operations used in ECPInt.
 ECPInt:  NShTT=    1326 NPrTT=    3945 LenC2=    1316 LenP2D=    3406.
 LDataN:  DoStor=T MaxTD1= 8 Len=  415
 Number of processors reduced to  34 by ecpmxn.
 NBasis=   171 RedAO= T EigKep=  1.06D-04  NBF=    72    21    39    39
 NBsUse=   171 1.00D-06 EigRej= -1.00D+00 NBFU=    72    21    39    39
 Precomputing XC quadrature grid using
 IXCGrd= 4 IRadAn=           5 IRanWt=          -1 IRanGd=           0 AccXCQ= 0.00D+00.
 Generated NRdTot=       0 NPtTot=           0 NUsed=           0 NTot=          32
 NSgBfM=   216   216   216   216   216 MxSgAt=     3 MxSgA2=     3.
 Leave Link  302 at Fri Apr 16 23:22:20 2021, MaxMem=   104857600 cpu:             419.0 elap:               9.0
 (Enter /s/ls4/users/knvvv/bin/g16sse/l303.exe)
 DipDrv:  MaxL=1.
 Leave Link  303 at Fri Apr 16 23:22:22 2021, MaxMem=   104857600 cpu:              52.0 elap:               1.1
 (Enter /s/ls4/users/knvvv/bin/g16sse/l401.exe)
 SCF N**3 symmetry information disabled.
 ExpMin= 1.07D-01 ExpMax= 1.17D+05 ExpMxC= 1.13D+03 IAcc=3 IRadAn=         5 AccDes= 0.00D+00
 Harris functional with IExCor= 1009 and IRadAn=       5 diagonalized for initial guess.
 HarFok:  IExCor= 1009 AccDes= 0.00D+00 IRadAn=         5 IDoV= 1 UseB2=F ITyADJ=14
 ICtDFT=  3500011 ScaDFX=  1.000000  1.000000  1.000000  1.000000
 FoFCou: FMM=F IPFlag=           0 FMFlag=      100000 FMFlg1=           0
         NFxFlg=           0 DoJE=T BraDBF=F KetDBF=T FulRan=T
         wScrn=  0.000000 ICntrl=       500 IOpCl=  0 I1Cent=   200000004 NGrid=           0
         NMat0=    1 NMatS0=      1 NMatT0=    0 NMatD0=    1 NMtDS0=    0 NMtDT0=    0
 Petite list used in FoFCou.
 CoulSu:  requested number of processors reduced to:  21 ShMem   1 Linda.
 CoulSu:  requested number of processors reduced to:  21 ShMem   1 Linda.
 CoulSu:  requested number of processors reduced to:  21 ShMem   1 Linda.
 CoulSu:  requested number of processors reduced to:  21 ShMem   1 Linda.
 Harris En= -184.582460641566    
 JPrj=0 DoOrth=F DoCkMO=F.
 Initial guess orbital symmetries:
       Occupied  (SG) (SG) (SG) (SG) (SG) (SG) (PI) (PI) (SG) (PI)
                 (PI)
       Virtual   (PI) (PI) (SG) (SG) (PI) (PI) (SG) (SG) (PI) (PI)
                 (SG) (PI) (PI) (DLTA) (DLTA) (SG) (SG) (SG) (DLTA)
                 (DLTA) (PI) (PI) (PI) (PI) (SG) (PI) (PI) (SG)
                 (DLTA) (DLTA) (SG) (PI) (PI) (PI) (PI) (SG) (SG)
                 (PI) (PI) (SG) (PHI) (PHI) (DLTA) (DLTA) (SG)
                 (DLTA) (DLTA) (PI) (PI) (PHI) (PHI) (DLTA) (DLTA)
                 (PI) (PI) (SG) (SG) (PHI) (PHI) (DLTA) (DLTA)
                 (SG) (PI) (PI) (SG) (PI) (PI) (DLTA) (DLTA) (SG)
                 (PI) (PI) (SG) (DLTA) (DLTA) (PI) (PI) (SG) (PI)
                 (PI) (SG) (PI) (PI) (SG) (PI) (PI) (PHI) (PHI)
                 (?A) (?A) (SG) (DLTA) (DLTA) (?A) (?A) (SG) (PI)
                 (PI) (PHI) (PHI) (PI) (PI) (SG) (DLTA) (DLTA)
                 (PHI) (PHI) (DLTA) (DLTA) (PHI) (PHI) (SG) (SG)
                 (PI) (PI) (?A) (?A) (DLTA) (DLTA) (DLTA) (DLTA)
                 (PHI) (PHI) (DLTA) (DLTA) (PI) (PI) (SG) (PI)
                 (PI) (SG) (SG) (DLTA) (DLTA) (PHI) (PHI) (PI)
                 (PI) (SG) (DLTA) (DLTA) (SG) (PI) (PI) (DLTA)
                 (DLTA) (PI) (PI) (SG) (SG) (PI) (PI) (SG) (SG)
                 (SG) (SG) (SG) (SG) (SG) (SG)
 The electronic state of the initial guess is 1-SG.
 Leave Link  401 at Fri Apr 16 23:22:25 2021, MaxMem=   104857600 cpu:             156.6 elap:               3.5
 (Enter /s/ls4/users/knvvv/bin/g16sse/l502.exe)
 Integral symmetry usage will be decided dynamically.
 Closed shell SCF:
 Using DIIS extrapolation, IDIIS=  1040.
 NGot=   104857600 LenX=   104750835 LenY=   104703738
 Requested convergence on RMS density matrix=1.00D-08 within 128 cycles.
 Requested convergence on MAX density matrix=1.00D-06.
 Requested convergence on             energy=1.00D-06.
 No special actions if energy rises.
 Fock matrices will be formed incrementally for  20 cycles.
 Integral accuracy reduced to 1.0D-05 until final iterations.

 Cycle   1  Pass 0  IDiag  1:
 FoFJK:  IHMeth= 1 ICntrl=       0 DoSepK=F KAlg= 0 I1Cent=           0 FoldK=F
 IRaf= 980000000 NMat=       1 IRICut=       1 DoRegI=T DoRafI=F ISym2E= 1 IDoP0=0 IntGTp=1.
 FoFCou: FMM=F IPFlag=           0 FMFlag=      100000 FMFlg1=           0
         NFxFlg=           0 DoJE=F BraDBF=F KetDBF=F FulRan=T
         wScrn=  0.000000 ICntrl=         0 IOpCl=  0 I1Cent=           0 NGrid=           0
         NMat0=    1 NMatS0=      1 NMatT0=    0 NMatD0=    1 NMtDS0=    0 NMtDT0=    0
 Petite list used in FoFCou.
 CoulSu:  requested number of processors reduced to:  21 ShMem   1 Linda.
 E= -184.613648328930    
 DIIS: error= 3.94D-02 at cycle   1 NSaved=   1.
 NSaved= 1 IEnMin= 1 EnMin= -184.613648328930     IErMin= 1 ErrMin= 3.94D-02
 ErrMax= 3.94D-02  0.00D+00 EMaxC= 1.00D-01 BMatC= 1.88D-01 BMatP= 1.88D-01
 IDIUse=3 WtCom= 6.06D-01 WtEn= 3.94D-01
 Coeff-Com:  0.100D+01
 Coeff-En:   0.100D+01
 Coeff:      0.100D+01
 Gap=     0.394 Goal=   None    Shift=    0.000
 GapD=    0.394 DampG=1.000 DampE=0.500 DampFc=0.5000 IDamp=-1.
 Damping current iteration by 5.00D-01
 RMSDP=1.44D-03 MaxDP=4.28D-02              OVMax= 1.43D-01

 Cycle   2  Pass 0  IDiag  1:
 RMSU=  7.18D-04    CP:  1.01D+00
 CoulSu:  requested number of processors reduced to:  21 ShMem   1 Linda.
 E= -184.638780284834     Delta-E=       -0.025131955904 Rises=F Damp=T
 DIIS: error= 1.88D-02 at cycle   2 NSaved=   2.
 NSaved= 2 IEnMin= 2 EnMin= -184.638780284834     IErMin= 2 ErrMin= 1.88D-02
 ErrMax= 1.88D-02  0.00D+00 EMaxC= 1.00D-01 BMatC= 3.20D-02 BMatP= 1.88D-01
 IDIUse=3 WtCom= 8.12D-01 WtEn= 1.88D-01
 Coeff-Com: -0.239D-01 0.102D+01
 Coeff-En:   0.237D+00 0.763D+00
 Coeff:      0.253D-01 0.975D+00
 Gap=     0.444 Goal=   None    Shift=    0.000
 RMSDP=5.20D-04 MaxDP=1.82D-02 DE=-2.51D-02 OVMax= 1.08D-01

 Cycle   3  Pass 0  IDiag  1:
 RMSU=  4.70D-04    CP:  9.98D-01  7.04D-01
 CoulSu:  requested number of processors reduced to:  21 ShMem   1 Linda.
 E= -184.673527007159     Delta-E=       -0.034746722325 Rises=F Damp=F
 DIIS: error= 1.27D-02 at cycle   3 NSaved=   3.
 NSaved= 3 IEnMin= 3 EnMin= -184.673527007159     IErMin= 3 ErrMin= 1.27D-02
 ErrMax= 1.27D-02  0.00D+00 EMaxC= 1.00D-01 BMatC= 1.08D-02 BMatP= 3.20D-02
 IDIUse=3 WtCom= 8.73D-01 WtEn= 1.27D-01
 Coeff-Com: -0.152D+00 0.404D+00 0.747D+00
 Coeff-En:   0.000D+00 0.000D+00 0.100D+01
 Coeff:     -0.132D+00 0.353D+00 0.780D+00
 Gap=     0.451 Goal=   None    Shift=    0.000
 RMSDP=3.71D-04 MaxDP=8.24D-03 DE=-3.47D-02 OVMax= 4.63D-02

 Cycle   4  Pass 0  IDiag  1:
 RMSU=  2.80D-04    CP:  1.00D+00  9.44D-01  6.42D-01
 CoulSu:  requested number of processors reduced to:  21 ShMem   1 Linda.
 E= -184.676189062830     Delta-E=       -0.002662055671 Rises=F Damp=F
 DIIS: error= 1.07D-02 at cycle   4 NSaved=   4.
 NSaved= 4 IEnMin= 4 EnMin= -184.676189062830     IErMin= 4 ErrMin= 1.07D-02
 ErrMax= 1.07D-02  0.00D+00 EMaxC= 1.00D-01 BMatC= 6.72D-03 BMatP= 1.08D-02
 IDIUse=3 WtCom= 8.93D-01 WtEn= 1.07D-01
 Coeff-Com: -0.914D-01 0.202D+00 0.534D+00 0.355D+00
 Coeff-En:   0.000D+00 0.000D+00 0.409D+00 0.591D+00
 Coeff:     -0.816D-01 0.181D+00 0.521D+00 0.380D+00
 Gap=     0.444 Goal=   None    Shift=    0.000
 RMSDP=1.98D-04 MaxDP=4.35D-03 DE=-2.66D-03 OVMax= 2.60D-02

 Cycle   5  Pass 0  IDiag  1:
 RMSU=  7.16D-05    CP:  1.00D+00  8.96D-01  8.09D-01  4.17D-01
 CoulSu:  requested number of processors reduced to:  21 ShMem   1 Linda.
 E= -184.681132325463     Delta-E=       -0.004943262633 Rises=F Damp=F
 DIIS: error= 1.41D-03 at cycle   5 NSaved=   5.
 NSaved= 5 IEnMin= 5 EnMin= -184.681132325463     IErMin= 5 ErrMin= 1.41D-03
 ErrMax= 1.41D-03  0.00D+00 EMaxC= 1.00D-01 BMatC= 9.36D-05 BMatP= 6.72D-03
 IDIUse=3 WtCom= 9.86D-01 WtEn= 1.41D-02
 Coeff-Com: -0.161D-01 0.330D-01 0.141D+00 0.159D+00 0.683D+00
 Coeff-En:   0.000D+00 0.000D+00 0.000D+00 0.000D+00 0.100D+01
 Coeff:     -0.158D-01 0.326D-01 0.139D+00 0.157D+00 0.687D+00
 Gap=     0.446 Goal=   None    Shift=    0.000
 RMSDP=2.55D-05 MaxDP=5.76D-04 DE=-4.94D-03 OVMax= 2.91D-03

 Cycle   6  Pass 0  IDiag  1:
 RMSU=  1.21D-05    CP:  1.00D+00  8.91D-01  8.10D-01  4.78D-01  8.09D-01
 CoulSu:  requested number of processors reduced to:  21 ShMem   1 Linda.
 E= -184.681201800870     Delta-E=       -0.000069475407 Rises=F Damp=F
 DIIS: error= 1.93D-04 at cycle   6 NSaved=   6.
 NSaved= 6 IEnMin= 6 EnMin= -184.681201800870     IErMin= 6 ErrMin= 1.93D-04
 ErrMax= 1.93D-04  0.00D+00 EMaxC= 1.00D-01 BMatC= 2.21D-06 BMatP= 9.36D-05
 IDIUse=3 WtCom= 9.98D-01 WtEn= 1.93D-03
 Coeff-Com:  0.227D-02-0.538D-02-0.140D-01-0.114D-01 0.103D+00 0.926D+00
 Coeff-En:   0.000D+00 0.000D+00 0.000D+00 0.000D+00 0.000D+00 0.100D+01
 Coeff:      0.227D-02-0.537D-02-0.140D-01-0.114D-01 0.103D+00 0.926D+00
 Gap=     0.446 Goal=   None    Shift=    0.000
 RMSDP=6.14D-06 MaxDP=3.27D-04 DE=-6.95D-05 OVMax= 3.79D-04

 Initial convergence to 1.0D-05 achieved.  Increase integral accuracy.
 Cycle   7  Pass 1  IDiag  1:
 CoulSu:  requested number of processors reduced to:  21 ShMem   1 Linda.
 E= -184.681208514312     Delta-E=       -0.000006713443 Rises=F Damp=F
 DIIS: error= 2.89D-05 at cycle   1 NSaved=   1.
 NSaved= 1 IEnMin= 1 EnMin= -184.681208514312     IErMin= 1 ErrMin= 2.89D-05
 ErrMax= 2.89D-05  0.00D+00 EMaxC= 1.00D-01 BMatC= 1.07D-07 BMatP= 1.07D-07
 IDIUse=1 WtCom= 1.00D+00 WtEn= 0.00D+00
 Coeff-Com:  0.100D+01
 Coeff:      0.100D+01
 Gap=     0.446 Goal=   None    Shift=    0.000
 RMSDP=6.14D-06 MaxDP=3.27D-04 DE=-6.71D-06 OVMax= 6.63D-05

 Cycle   8  Pass 1  IDiag  1:
 RMSU=  6.22D-06    CP:  1.00D+00
 CoulSu:  requested number of processors reduced to:  21 ShMem   1 Linda.
 E= -184.681208538279     Delta-E=       -0.000000023967 Rises=F Damp=F
 DIIS: error= 2.27D-05 at cycle   2 NSaved=   2.
 NSaved= 2 IEnMin= 2 EnMin= -184.681208538279     IErMin= 2 ErrMin= 2.27D-05
 ErrMax= 2.27D-05  0.00D+00 EMaxC= 1.00D-01 BMatC= 2.95D-08 BMatP= 1.07D-07
 IDIUse=1 WtCom= 1.00D+00 WtEn= 0.00D+00
 Coeff-Com:  0.286D+00 0.714D+00
 Coeff:      0.286D+00 0.714D+00
 Gap=     0.446 Goal=   None    Shift=    0.000
 RMSDP=7.55D-07 MaxDP=2.16D-05 DE=-2.40D-08 OVMax= 1.08D-04

 Cycle   9  Pass 1  IDiag  1:
 RMSU=  7.51D-07    CP:  1.00D+00  9.91D-01
 CoulSu:  requested number of processors reduced to:  21 ShMem   1 Linda.
 E= -184.681208533358     Delta-E=        0.000000004921 Rises=F Damp=F
 DIIS: error= 2.54D-05 at cycle   3 NSaved=   3.
 NSaved= 3 IEnMin= 2 EnMin= -184.681208538279     IErMin= 2 ErrMin= 2.27D-05
 ErrMax= 2.54D-05  0.00D+00 EMaxC= 1.00D-01 BMatC= 3.73D-08 BMatP= 2.95D-08
 IDIUse=1 WtCom= 1.00D+00 WtEn= 0.00D+00
 Coeff-Com:  0.355D-01 0.524D+00 0.440D+00
 Coeff:      0.355D-01 0.524D+00 0.440D+00
 Gap=     0.446 Goal=   None    Shift=    0.000
 RMSDP=4.88D-07 MaxDP=8.83D-06 DE= 4.92D-09 OVMax= 5.67D-05

 Cycle  10  Pass 1  IDiag  1:
 RMSU=  2.46D-07    CP:  1.00D+00  1.02D+00  4.85D-01
 CoulSu:  requested number of processors reduced to:  21 ShMem   1 Linda.
 E= -184.681208560207     Delta-E=       -0.000000026849 Rises=F Damp=F
 DIIS: error= 2.54D-06 at cycle   4 NSaved=   4.
 NSaved= 4 IEnMin= 4 EnMin= -184.681208560207     IErMin= 4 ErrMin= 2.54D-06
 ErrMax= 2.54D-06  0.00D+00 EMaxC= 1.00D-01 BMatC= 5.96D-10 BMatP= 2.95D-08
 IDIUse=1 WtCom= 1.00D+00 WtEn= 0.00D+00
 Coeff-Com: -0.140D-01 0.147D+00 0.164D+00 0.703D+00
 Coeff:     -0.140D-01 0.147D+00 0.164D+00 0.703D+00
 Gap=     0.446 Goal=   None    Shift=    0.000
 RMSDP=9.24D-08 MaxDP=3.34D-06 DE=-2.68D-08 OVMax= 9.68D-06

 Cycle  11  Pass 1  IDiag  1:
 RMSU=  8.09D-08    CP:  1.00D+00  1.02D+00  5.25D-01  8.87D-01
 CoulSu:  requested number of processors reduced to:  21 ShMem   1 Linda.
 E= -184.681208560658     Delta-E=       -0.000000000451 Rises=F Damp=F
 DIIS: error= 1.31D-06 at cycle   5 NSaved=   5.
 NSaved= 5 IEnMin= 5 EnMin= -184.681208560658     IErMin= 5 ErrMin= 1.31D-06
 ErrMax= 1.31D-06  0.00D+00 EMaxC= 1.00D-01 BMatC= 1.26D-10 BMatP= 5.96D-10
 IDIUse=1 WtCom= 1.00D+00 WtEn= 0.00D+00
 Coeff-Com: -0.843D-02 0.156D-01 0.106D-01 0.296D+00 0.686D+00
 Coeff:     -0.843D-02 0.156D-01 0.106D-01 0.296D+00 0.686D+00
 Gap=     0.446 Goal=   None    Shift=    0.000
 RMSDP=3.26D-08 MaxDP=9.71D-07 DE=-4.51D-10 OVMax= 3.47D-06

 Cycle  12  Pass 1  IDiag  1:
 RMSU=  2.37D-08    CP:  1.00D+00  1.02D+00  5.22D-01  9.76D-01  1.03D+00
 CoulSu:  requested number of processors reduced to:  21 ShMem   1 Linda.
 E= -184.681208560743     Delta-E=       -0.000000000084 Rises=F Damp=F
 DIIS: error= 6.79D-07 at cycle   6 NSaved=   6.
 NSaved= 6 IEnMin= 6 EnMin= -184.681208560743     IErMin= 6 ErrMin= 6.79D-07
 ErrMax= 6.79D-07  0.00D+00 EMaxC= 1.00D-01 BMatC= 2.64D-11 BMatP= 1.26D-10
 IDIUse=1 WtCom= 1.00D+00 WtEn= 0.00D+00
 Coeff-Com: -0.350D-03-0.309D-01-0.482D-01-0.439D-01 0.341D+00 0.782D+00
 Coeff:     -0.350D-03-0.309D-01-0.482D-01-0.439D-01 0.341D+00 0.782D+00
 Gap=     0.446 Goal=   None    Shift=    0.000
 RMSDP=2.04D-08 MaxDP=5.40D-07 DE=-8.42D-11 OVMax= 1.77D-06

 Cycle  13  Pass 1  IDiag  1:
 RMSU=  7.24D-09    CP:  1.00D+00  1.02D+00  5.18D-01  1.02D+00  1.19D+00
                    CP:  8.00D-01
 CoulSu:  requested number of processors reduced to:  21 ShMem   1 Linda.
 E= -184.681208560764     Delta-E=       -0.000000000022 Rises=F Damp=F
 DIIS: error= 5.59D-08 at cycle   7 NSaved=   7.
 NSaved= 7 IEnMin= 7 EnMin= -184.681208560764     IErMin= 7 ErrMin= 5.59D-08
 ErrMax= 5.59D-08  0.00D+00 EMaxC= 1.00D-01 BMatC= 1.88D-13 BMatP= 2.64D-11
 IDIUse=1 WtCom= 1.00D+00 WtEn= 0.00D+00
 Coeff-Com:  0.238D-03-0.728D-02-0.116D-01-0.200D-01 0.527D-01 0.180D+00
 Coeff-Com:  0.806D+00
 Coeff:      0.238D-03-0.728D-02-0.116D-01-0.200D-01 0.527D-01 0.180D+00
 Coeff:      0.806D+00
 Gap=     0.446 Goal=   None    Shift=    0.000
 RMSDP=2.29D-09 MaxDP=6.66D-08 DE=-2.17D-11 OVMax= 1.05D-07

 SCF Done:  E(RM062X) =  -184.681208561     A.U. after   13 cycles
            NFock= 13  Conv=0.23D-08     -V/T= 2.0036
 KE= 1.840236683394D+02 PE=-5.552938831353D+02 EE= 1.256019325736D+02
 Leave Link  502 at Fri Apr 16 23:24:36 2021, MaxMem=   104857600 cpu:            5942.8 elap:             131.2
 (Enter /s/ls4/users/knvvv/bin/g16sse/l601.exe)
 Copying SCF densities to generalized density rwf, IOpCl= 0 IROHF=0.

 **********************************************************************

            Population analysis using the SCF density.

 **********************************************************************

 Orbital symmetries:
       Occupied  (SG) (SG) (SG) (SG) (SG) (SG) (PI) (PI) (SG) (PI)
                 (PI)
       Virtual   (PI) (PI) (SG) (SG) (PI) (PI) (SG) (PI) (PI) (SG)
                 (SG) (PI) (PI) (DLTA) (DLTA) (SG) (SG) (SG) (DLTA)
                 (DLTA) (PI) (PI) (PI) (PI) (SG) (PI) (PI) (SG)
                 (DLTA) (DLTA) (SG) (PI) (PI) (PI) (PI) (SG) (SG)
                 (PI) (PI) (SG) (PHI) (PHI) (DLTA) (DLTA) (SG)
                 (DLTA) (DLTA) (PHI) (PHI) (PI) (PI) (DLTA) (DLTA)
                 (PI) (PI) (SG) (SG) (PHI) (PHI) (DLTA) (DLTA)
                 (SG) (PI) (PI) (PI) (PI) (SG) (SG) (DLTA) (DLTA)
                 (PI) (PI) (SG) (DLTA) (DLTA) (PI) (PI) (SG) (SG)
                 (PI) (PI) (PI) (PI) (SG) (PHI) (PHI) (PI) (PI)
                 (?A) (?A) (SG) (DLTA) (DLTA) (?A) (?A) (PI) (PI)
                 (SG) (PHI) (PHI) (PI) (PI) (SG) (DLTA) (DLTA)
                 (PHI) (PHI) (DLTA) (DLTA) (PHI) (PHI) (SG) (SG)
                 (PI) (PI) (DLTA) (DLTA) (?A) (?A) (DLTA) (DLTA)
                 (PHI) (PHI) (DLTA) (DLTA) (PI) (PI) (SG) (PI)
                 (PI) (SG) (SG) (DLTA) (DLTA) (PHI) (PHI) (PI)
                 (PI) (SG) (DLTA) (DLTA) (SG) (PI) (PI) (DLTA)
                 (DLTA) (PI) (PI) (SG) (SG) (PI) (PI) (SG) (SG)
                 (SG) (SG) (SG) (SG) (SG) (SG)
 The electronic state is 1-SG.
 Alpha  occ. eigenvalues --  -19.72693 -14.99583 -14.86241  -1.37719  -1.20749
 Alpha  occ. eigenvalues --   -0.70008  -0.65875  -0.65875  -0.56964  -0.41553
 Alpha  occ. eigenvalues --   -0.41553
 Alpha virt. eigenvalues --    0.03031   0.03031   0.10643   0.17166   0.20020
 Alpha virt. eigenvalues --    0.20020   0.24125   0.29602   0.29602   0.32167
 Alpha virt. eigenvalues --    0.36235   0.40159   0.40159   0.59573   0.59573
 Alpha virt. eigenvalues --    0.60268   0.76099   0.81585   0.87936   0.87936
 Alpha virt. eigenvalues --    0.94189   0.94189   1.03454   1.03454   1.06837
 Alpha virt. eigenvalues --    1.16182   1.16182   1.22686   1.25307   1.25307
 Alpha virt. eigenvalues --    1.33968   1.36579   1.36579   1.47442   1.47442
 Alpha virt. eigenvalues --    1.48697   1.58396   1.94979   1.94979   2.15515
 Alpha virt. eigenvalues --    2.16431   2.16431   2.32624   2.32624   2.50201
 Alpha virt. eigenvalues --    2.57129   2.57129   2.60008   2.60008   2.61513
 Alpha virt. eigenvalues --    2.61513   2.83314   2.83315   2.85135   2.85135
 Alpha virt. eigenvalues --    2.89438   2.92547   3.18715   3.18715   3.21308
 Alpha virt. eigenvalues --    3.21309   3.25024   3.32725   3.32725   3.58757
 Alpha virt. eigenvalues --    3.58757   3.59289   3.76309   3.84304   3.84304
 Alpha virt. eigenvalues --    3.86243   3.86243   3.95240   4.11563   4.11563
 Alpha virt. eigenvalues --    4.26738   4.26738   4.41211   4.77624   4.78963
 Alpha virt. eigenvalues --    4.78963   5.02560   5.02560   5.55918   6.15353
 Alpha virt. eigenvalues --    6.15353   6.17943   6.17943   6.46166   6.46166
 Alpha virt. eigenvalues --    6.64337   6.69285   6.69285   6.82141   6.82142
 Alpha virt. eigenvalues --    7.12073   7.12073   7.16374   7.48521   7.48521
 Alpha virt. eigenvalues --    7.51867   7.51867   7.68579   7.87201   7.87202
 Alpha virt. eigenvalues --    8.12725   8.12725   8.31161   8.31161   8.31646
 Alpha virt. eigenvalues --    8.31646   8.39183   8.49859   8.54982   8.54982
 Alpha virt. eigenvalues --    8.66579   8.66580   8.73945   8.73947   8.84052
 Alpha virt. eigenvalues --    8.84052   8.99163   8.99163   9.18392   9.18393
 Alpha virt. eigenvalues --    9.20379   9.20379   9.41948   9.83282   9.83282
 Alpha virt. eigenvalues --    9.92409  10.28269  10.56442  10.56443  10.77141
 Alpha virt. eigenvalues --   10.77141  10.97126  10.97126  11.05579  11.07223
 Alpha virt. eigenvalues --   11.07224  11.25161  11.41286  11.41286  11.89920
 Alpha virt. eigenvalues --   11.89923  12.49322  12.49322  12.63143  13.85006
 Alpha virt. eigenvalues --   14.21758  14.21758  14.73907  15.88692  37.03878
 Alpha virt. eigenvalues --   38.99946  47.91505 194.48195 196.61854 250.92220
          Condensed to atoms (all electrons):
               1          2          3
     1  N    5.623300   0.511223   0.577092
     2  N    0.511223   6.648373  -0.098680
     3  O    0.577092  -0.098680   7.749055
 Mulliken charges:
               1
     1  N    0.288384
     2  N   -0.060916
     3  O   -0.227468
 Sum of Mulliken charges =  -0.00000
 Mulliken charges with hydrogens summed into heavy atoms:
               1
     1  N    0.288384
     2  N   -0.060916
     3  O   -0.227468
 Electronic spatial extent (au):  <R**2>=            108.0717
 Charge=             -0.0000 electrons
 Dipole moment (field-independent basis, Debye):
    X=              0.0000    Y=              0.0000    Z=             -0.2872  Tot=              0.2872
 Quadrupole moment (field-independent basis, Debye-Ang):
   XX=            -15.3169   YY=            -15.3169   ZZ=            -19.0931
   XY=             -0.0000   XZ=              0.0000   YZ=              0.0000
 Traceless Quadrupole moment (field-independent basis, Debye-Ang):
   XX=              1.2587   YY=              1.2587   ZZ=             -2.5175
   XY=             -0.0000   XZ=              0.0000   YZ=              0.0000
 Octapole moment (field-independent basis, Debye-Ang**2):
  XXX=              0.0000  YYY=              0.0000  ZZZ=              4.6473  XYY=              0.0000
  XXY=              0.0000  XXZ=              0.9208  XZZ=              0.0000  YZZ=              0.0000
  YYZ=              0.9208  XYZ=              0.0000
 Hexadecapole moment (field-independent basis, Debye-Ang**3):
 XXXX=            -12.3246 YYYY=            -12.3246 ZZZZ=           -105.7054 XXXY=             -0.0000
 XXXZ=              0.0000 YYYX=             -0.0000 YYYZ=              0.0000 ZZZX=              0.0000
 ZZZY=             -0.0000 XXYY=             -4.1082 XXZZ=            -19.3779 YYZZ=            -19.3779
 XXYZ=              0.0000 YYXZ=              0.0000 ZZXY=              0.0000
 N-N= 6.098707366152D+01 E-N=-5.552938807067D+02  KE= 1.840236683394D+02
 PrsmSu:  requested number of processors reduced to:  21 ShMem   1 Linda.
 No NMR shielding tensors so no spin-rotation constants.
 Leave Link  601 at Fri Apr 16 23:24:40 2021, MaxMem=   104857600 cpu:             167.6 elap:               3.7
 (Enter /s/ls4/users/knvvv/bin/g16sse/l801.exe)
 DoSCS=F DFT=T ScalE2(SS,OS)=  1.000000  1.000000
 Range of M.O.s used for correlation:     1   171
 NBasis=   171 NAE=    11 NBE=    11 NFC=     0 NFV=     0
 NROrb=    171 NOA=    11 NOB=    11 NVA=   160 NVB=   160

 **** Warning!!: The largest alpha MO coefficient is  0.23792266D+02

 Leave Link  801 at Fri Apr 16 23:24:40 2021, MaxMem=   104857600 cpu:               3.6 elap:               0.1
 (Enter /s/ls4/users/knvvv/bin/g16sse/l914.exe)
 RHF ground state
 Doing stability rather than CIS.
 Two-electron integrals replicated using symmetry.
 MDV=   104857600 DFT=T DoStab=T Mixed=T DoRPA=F DoScal=F NonHer=F
 Making orbital integer symmetry assigments:
 Orbital symmetries:
       Occupied  (SG) (SG) (SG) (SG) (SG) (SG) (PI) (PI) (SG) (PI)
                 (PI)
       Virtual   (PI) (PI) (SG) (SG) (PI) (PI) (SG) (PI) (PI) (SG)
                 (SG) (PI) (PI) (DLTA) (DLTA) (SG) (SG) (SG) (DLTA)
                 (DLTA) (PI) (PI) (PI) (PI) (SG) (PI) (PI) (SG)
                 (DLTA) (DLTA) (SG) (PI) (PI) (PI) (PI) (SG) (SG)
                 (PI) (PI) (SG) (PHI) (PHI) (DLTA) (DLTA) (SG)
                 (DLTA) (DLTA) (PHI) (PHI) (PI) (PI) (DLTA) (DLTA)
                 (PI) (PI) (SG) (SG) (PHI) (PHI) (DLTA) (DLTA)
                 (SG) (PI) (PI) (PI) (PI) (SG) (SG) (DLTA) (DLTA)
                 (PI) (PI) (SG) (DLTA) (DLTA) (PI) (PI) (SG) (SG)
                 (PI) (PI) (PI) (PI) (SG) (PHI) (PHI) (PI) (PI)
                 (?A) (?A) (SG) (DLTA) (DLTA) (?A) (?A) (PI) (PI)
                 (SG) (PHI) (PHI) (PI) (PI) (SG) (DLTA) (DLTA)
                 (PHI) (PHI) (DLTA) (DLTA) (PHI) (PHI) (SG) (SG)
                 (PI) (PI) (DLTA) (DLTA) (?A) (?A) (DLTA) (DLTA)
                 (PHI) (PHI) (DLTA) (DLTA) (PI) (PI) (SG) (PI)
                 (PI) (SG) (SG) (DLTA) (DLTA) (PHI) (PHI) (PI)
                 (PI) (SG) (DLTA) (DLTA) (SG) (PI) (PI) (DLTA)
                 (DLTA) (PI) (PI) (SG) (SG) (PI) (PI) (SG) (SG)
                 (SG) (SG) (SG) (SG) (SG) (SG)
    24 initial guesses have been made.
 Convergence on wavefunction:    0.001000000000000
 Davidson Disk Diagonalization:  ConvIn= 1.00D-03 SkipCon=T Conv= 1.00D-03.
 Max sub-space:  2000 roots to seek:    24 dimension of matrix:         3520
 Iteration     1 Dimension    24 NMult     0 NNew     24
 Estimated number of processors is:   19
 CISAX will form     1 AO SS matrices at one time.
 NMat=     1 NSing=     1 JSym2X= 2.
 FoFJK:  IHMeth= 1 ICntrl=       0 DoSepK=F KAlg= 0 I1Cent=           0 FoldK=F
 IRaf= 980000000 NMat=       1 IRICut=       1 DoRegI=T DoRafI=F ISym2E= 2 IDoP0=0 IntGTp=1.
 FoFCou: FMM=F IPFlag=           0 FMFlag=      100000 FMFlg1=           0
         NFxFlg=           0 DoJE=F BraDBF=F KetDBF=F FulRan=T
         wScrn=  0.000000 ICntrl=         0 IOpCl=  0 I1Cent=           0 NGrid=           0
         NMat0=    1 NMatS0=      1 NMatT0=    0 NMatD0=    1 NMtDS0=    0 NMtDT0=    0
 Integrals replicated using symmetry in FoFCou.
 CoulSu:  requested number of processors reduced to:  21 ShMem   1 Linda.
 NMat=     1 NSing=     1 JSym2X= 2.
 CoulSu:  requested number of processors reduced to:  21 ShMem   1 Linda.
 NMat=     1 NSing=     1 JSym2X= 2.
 CoulSu:  requested number of processors reduced to:  21 ShMem   1 Linda.
 NMat=     1 NSing=     1 JSym2X= 2.
 CoulSu:  requested number of processors reduced to:  21 ShMem   1 Linda.
 NMat=     1 NSing=     1 JSym2X= 2.
 CoulSu:  requested number of processors reduced to:  21 ShMem   1 Linda.
 NMat=     1 NSing=     1 JSym2X= 2.
 CoulSu:  requested number of processors reduced to:  21 ShMem   1 Linda.
 NMat=     1 NSing=     1 JSym2X= 2.
 CoulSu:  requested number of processors reduced to:  21 ShMem   1 Linda.
 NMat=     1 NSing=     1 JSym2X= 2.
 CoulSu:  requested number of processors reduced to:  21 ShMem   1 Linda.
 NMat=     1 NSing=     1 JSym2X= 2.
 CoulSu:  requested number of processors reduced to:  21 ShMem   1 Linda.
 NMat=     1 NSing=     1 JSym2X= 2.
 CoulSu:  requested number of processors reduced to:  21 ShMem   1 Linda.
 NMat=     1 NSing=     1 JSym2X= 2.
 CoulSu:  requested number of processors reduced to:  21 ShMem   1 Linda.
 NMat=     1 NSing=     1 JSym2X= 2.
 CoulSu:  requested number of processors reduced to:  21 ShMem   1 Linda.
 NMat=     1 NSing=     0 JSym2X= 2.
 CoulSu:  requested number of processors reduced to:  21 ShMem   1 Linda.
 NMat=     1 NSing=     0 JSym2X= 2.
 CoulSu:  requested number of processors reduced to:  21 ShMem   1 Linda.
 NMat=     1 NSing=     0 JSym2X= 2.
 CoulSu:  requested number of processors reduced to:  21 ShMem   1 Linda.
 NMat=     1 NSing=     0 JSym2X= 2.
 CoulSu:  requested number of processors reduced to:  21 ShMem   1 Linda.
 NMat=     1 NSing=     0 JSym2X= 2.
 CoulSu:  requested number of processors reduced to:  21 ShMem   1 Linda.
 NMat=     1 NSing=     0 JSym2X= 2.
 CoulSu:  requested number of processors reduced to:  21 ShMem   1 Linda.
 NMat=     1 NSing=     0 JSym2X= 2.
 CoulSu:  requested number of processors reduced to:  21 ShMem   1 Linda.
 NMat=     1 NSing=     0 JSym2X= 2.
 CoulSu:  requested number of processors reduced to:  21 ShMem   1 Linda.
 NMat=     1 NSing=     0 JSym2X= 2.
 CoulSu:  requested number of processors reduced to:  21 ShMem   1 Linda.
 NMat=     1 NSing=     0 JSym2X= 2.
 CoulSu:  requested number of processors reduced to:  21 ShMem   1 Linda.
 NMat=     1 NSing=     0 JSym2X= 2.
 CoulSu:  requested number of processors reduced to:  21 ShMem   1 Linda.
 NMat=     1 NSing=     0 JSym2X= 2.
 CoulSu:  requested number of processors reduced to:  21 ShMem   1 Linda.
 New state      1 was old state      2
 Excitation Energies [eV] at current iteration:
 Root      1 :     4.328773288522037
 Root      2 :     5.211398471430851
 Root      3 :     5.223871745351448
 Root      4 :     6.557849052107736
 Root      5 :     6.559590663960055
 Root      6 :     7.831122408010009
 Root      7 :     7.831148395667382
 Root      8 :     9.672259940634287
 Root      9 :     9.672259940634378
 Root     10 :     9.847764279355985
 Root     11 :     9.847764279356214
 Root     12 :    10.393343188410110
 Root     13 :    10.393343188410290
 Root     14 :    13.001889454573240
 Root     15 :    13.001889454574590
 Root     16 :    13.095250957950460
 Root     17 :    13.095250957952130
 Root     18 :    13.162990435550340
 Root     19 :    13.229459718568390
 Root     20 :    13.304871631347170
 Root     21 :    13.455975503803310
 Root     22 :    13.903541483239160
 Root     23 :    13.903541483239510
 Root     24 :    28.261341207048590
 Iteration     2 Dimension    48 NMult    24 NNew     24
 Estimated number of processors is:   19
 CISAX will form     1 AO SS matrices at one time.
 NMat=     1 NSing=     1 JSym2X= 2.
 CoulSu:  requested number of processors reduced to:  21 ShMem   1 Linda.
 NMat=     1 NSing=     1 JSym2X= 2.
 CoulSu:  requested number of processors reduced to:  21 ShMem   1 Linda.
 NMat=     1 NSing=     1 JSym2X= 2.
 CoulSu:  requested number of processors reduced to:  21 ShMem   1 Linda.
 NMat=     1 NSing=     1 JSym2X= 2.
 CoulSu:  requested number of processors reduced to:  21 ShMem   1 Linda.
 NMat=     1 NSing=     1 JSym2X= 2.
 CoulSu:  requested number of processors reduced to:  21 ShMem   1 Linda.
 NMat=     1 NSing=     1 JSym2X= 2.
 CoulSu:  requested number of processors reduced to:  21 ShMem   1 Linda.
 NMat=     1 NSing=     1 JSym2X= 2.
 CoulSu:  requested number of processors reduced to:  21 ShMem   1 Linda.
 NMat=     1 NSing=     1 JSym2X= 2.
 CoulSu:  requested number of processors reduced to:  21 ShMem   1 Linda.
 NMat=     1 NSing=     1 JSym2X= 2.
 CoulSu:  requested number of processors reduced to:  21 ShMem   1 Linda.
 NMat=     1 NSing=     1 JSym2X= 2.
 CoulSu:  requested number of processors reduced to:  21 ShMem   1 Linda.
 NMat=     1 NSing=     1 JSym2X= 2.
 CoulSu:  requested number of processors reduced to:  21 ShMem   1 Linda.
 NMat=     1 NSing=     1 JSym2X= 2.
 CoulSu:  requested number of processors reduced to:  21 ShMem   1 Linda.
 NMat=     1 NSing=     0 JSym2X= 2.
 CoulSu:  requested number of processors reduced to:  21 ShMem   1 Linda.
 NMat=     1 NSing=     0 JSym2X= 2.
 CoulSu:  requested number of processors reduced to:  21 ShMem   1 Linda.
 NMat=     1 NSing=     0 JSym2X= 2.
 CoulSu:  requested number of processors reduced to:  21 ShMem   1 Linda.
 NMat=     1 NSing=     0 JSym2X= 2.
 CoulSu:  requested number of processors reduced to:  21 ShMem   1 Linda.
 NMat=     1 NSing=     0 JSym2X= 2.
 CoulSu:  requested number of processors reduced to:  21 ShMem   1 Linda.
 NMat=     1 NSing=     0 JSym2X= 2.
 CoulSu:  requested number of processors reduced to:  21 ShMem   1 Linda.
 NMat=     1 NSing=     0 JSym2X= 2.
 CoulSu:  requested number of processors reduced to:  21 ShMem   1 Linda.
 NMat=     1 NSing=     0 JSym2X= 2.
 CoulSu:  requested number of processors reduced to:  21 ShMem   1 Linda.
 NMat=     1 NSing=     0 JSym2X= 2.
 CoulSu:  requested number of processors reduced to:  21 ShMem   1 Linda.
 NMat=     1 NSing=     0 JSym2X= 2.
 CoulSu:  requested number of processors reduced to:  21 ShMem   1 Linda.
 NMat=     1 NSing=     0 JSym2X= 2.
 CoulSu:  requested number of processors reduced to:  21 ShMem   1 Linda.
 NMat=     1 NSing=     0 JSym2X= 2.
 CoulSu:  requested number of processors reduced to:  21 ShMem   1 Linda.
 Root      1 not converged, maximum delta is    0.085032999788961
 Excitation Energies [eV] at current iteration:
 Root      1 :     3.547070147023265   Change is   -0.781703141498773
 Root      2 :     4.788044420769314   Change is   -0.423354050661537
 Root      3 :     4.788707539973665   Change is   -0.435164205377782
 Root      4 :     6.338965252755086   Change is   -0.218883799352649
 Root      5 :     6.339527875618537   Change is   -0.220062788341518
 Root      6 :     7.772451797034581   Change is   -0.058670610975427
 Root      7 :     7.772454913540966   Change is   -0.058693482126416
 Root      8 :     8.894867039218251   Change is   -0.777392901416036
 Root      9 :     8.894867039218282   Change is   -0.777392901416097
 Root     10 :     9.329118700830069   Change is   -0.518645578525916
 Root     11 :     9.329118700830104   Change is   -0.518645578526110
 Root     12 :    10.111717209595880   Change is   -0.281625978814229
 Root     13 :    10.111717209595930   Change is   -0.281625978814356
 Root     14 :    12.319927972982360   Change is   -0.681961481590878
 Root     15 :    12.319927972982710   Change is   -0.681961481591875
 Root     16 :    12.645467166980740   Change is   -0.449783790969719
 Root     17 :    12.645467166981740   Change is   -0.449783790970395
 Root     18 :    12.887547843671360   Change is   -0.275442591878979
 Root     19 :    13.133163607043900   Change is   -0.096296111524497
 Root     20 :    13.148896605996710   Change is   -0.754644877242446
 Root     21 :    13.148896605997750   Change is   -0.754644877241763
 Root     22 :    13.164895493118890   Change is   -0.291080010684424
 Root     23 :    13.172759097780610   Change is   -0.132112533566556
 Root     24 :    18.068875580562580
 Iteration     3 Dimension    54 NMult    48 NNew      6
 Estimated number of processors is:   19
 CISAX will form     1 AO SS matrices at one time.
 NMat=     1 NSing=     1 JSym2X= 2.
 CoulSu:  requested number of processors reduced to:  21 ShMem   1 Linda.
 NMat=     1 NSing=     1 JSym2X= 2.
 CoulSu:  requested number of processors reduced to:  21 ShMem   1 Linda.
 NMat=     1 NSing=     1 JSym2X= 2.
 CoulSu:  requested number of processors reduced to:  21 ShMem   1 Linda.
 NMat=     1 NSing=     0 JSym2X= 2.
 CoulSu:  requested number of processors reduced to:  21 ShMem   1 Linda.
 NMat=     1 NSing=     0 JSym2X= 2.
 CoulSu:  requested number of processors reduced to:  21 ShMem   1 Linda.
 NMat=     1 NSing=     0 JSym2X= 2.
 CoulSu:  requested number of processors reduced to:  21 ShMem   1 Linda.
 Root      1 not converged, maximum delta is    0.019863420387445
 Excitation Energies [eV] at current iteration:
 Root      1 :     3.505733636738107   Change is   -0.041336510285158
 Root      2 :     4.781026590799778   Change is   -0.007017829969536
 Root      3 :     4.781185408035554   Change is   -0.007522131938111
 Root      4 :     6.333225479120043   Change is   -0.005739773635043
 Root      5 :     6.333454423642173   Change is   -0.006073451976363
 Root      6 :     7.771004145815752   Change is   -0.001447651218829
 Iteration     4 Dimension    60 NMult    54 NNew      6
 Estimated number of processors is:   19
 CISAX will form     1 AO SS matrices at one time.
 NMat=     1 NSing=     1 JSym2X= 2.
 CoulSu:  requested number of processors reduced to:  21 ShMem   1 Linda.
 NMat=     1 NSing=     1 JSym2X= 2.
 CoulSu:  requested number of processors reduced to:  21 ShMem   1 Linda.
 NMat=     1 NSing=     1 JSym2X= 2.
 CoulSu:  requested number of processors reduced to:  21 ShMem   1 Linda.
 NMat=     1 NSing=     0 JSym2X= 2.
 CoulSu:  requested number of processors reduced to:  21 ShMem   1 Linda.
 NMat=     1 NSing=     0 JSym2X= 2.
 CoulSu:  requested number of processors reduced to:  21 ShMem   1 Linda.
 NMat=     1 NSing=     0 JSym2X= 2.
 CoulSu:  requested number of processors reduced to:  21 ShMem   1 Linda.
 Root      1 not converged, maximum delta is    0.006825136956617
 Excitation Energies [eV] at current iteration:
 Root      1 :     3.501407411531574   Change is   -0.004326225206534
 Root      2 :     4.780676019627788   Change is   -0.000350571171990
 Root      3 :     4.780856205973419   Change is   -0.000329202062136
 Root      4 :     6.333105563051098   Change is   -0.000119916068945
 Root      5 :     6.333276616509858   Change is   -0.000177807132315
 Root      6 :     7.770951430162007   Change is   -0.000052715653746
 Iteration     5 Dimension    66 NMult    60 NNew      6
 Estimated number of processors is:   19
 CISAX will form     1 AO SS matrices at one time.
 NMat=     1 NSing=     1 JSym2X= 2.
 CoulSu:  requested number of processors reduced to:  21 ShMem   1 Linda.
 NMat=     1 NSing=     1 JSym2X= 2.
 CoulSu:  requested number of processors reduced to:  21 ShMem   1 Linda.
 NMat=     1 NSing=     1 JSym2X= 2.
 CoulSu:  requested number of processors reduced to:  21 ShMem   1 Linda.
 NMat=     1 NSing=     0 JSym2X= 2.
 CoulSu:  requested number of processors reduced to:  21 ShMem   1 Linda.
 NMat=     1 NSing=     0 JSym2X= 2.
 CoulSu:  requested number of processors reduced to:  21 ShMem   1 Linda.
 NMat=     1 NSing=     0 JSym2X= 2.
 CoulSu:  requested number of processors reduced to:  21 ShMem   1 Linda.
 Root      1 not converged, maximum delta is    0.001271250334465
 Excitation Energies [eV] at current iteration:
 Root      1 :     3.501164341676628   Change is   -0.000243069854946
 Root      2 :     4.780653189791203   Change is   -0.000022829836585
 Root      3 :     4.780838572033226   Change is   -0.000017633940192
 Root      4 :     6.333102874477155   Change is   -0.000002688573944
 Root      5 :     6.333254732049676   Change is   -0.000021884460182
 Root      6 :     7.770951129076550   Change is   -0.000000301085457
 Iteration     6 Dimension    72 NMult    66 NNew      6
 Estimated number of processors is:   19
 CISAX will form     1 AO SS matrices at one time.
 NMat=     1 NSing=     1 JSym2X= 2.
 CoulSu:  requested number of processors reduced to:  21 ShMem   1 Linda.
 NMat=     1 NSing=     1 JSym2X= 2.
 CoulSu:  requested number of processors reduced to:  21 ShMem   1 Linda.
 NMat=     1 NSing=     1 JSym2X= 2.
 CoulSu:  requested number of processors reduced to:  21 ShMem   1 Linda.
 NMat=     1 NSing=     0 JSym2X= 2.
 CoulSu:  requested number of processors reduced to:  21 ShMem   1 Linda.
 NMat=     1 NSing=     0 JSym2X= 2.
 CoulSu:  requested number of processors reduced to:  21 ShMem   1 Linda.
 NMat=     1 NSing=     0 JSym2X= 2.
 CoulSu:  requested number of processors reduced to:  21 ShMem   1 Linda.
 Root      1 has converged.
 Excitation Energies [eV] at current iteration:
 Root      1 :     3.501158675920572   Change is   -0.000005665756056
 Root      2 :     4.780652903561257   Change is   -0.000000286229946
 Root      3 :     4.780838209203002   Change is   -0.000000362830225
 Root      4 :     6.333102730250802   Change is   -0.000000144226352
 Root      5 :     6.333252637281942   Change is   -0.000002094767734
 Root      6 :     7.770951125369750   Change is   -0.000000003706799
 Convergence achieved on expansion vectors.
 ***********************************************************************
 Stability analysis using <AA,BB:AA,BB> singles matrix:
 ***********************************************************************
 1PDM for each excited state written to RWF  633
 Ground to excited state transition densities written to RWF  633

 Eigenvectors of the stability matrix:
 
 Excited state symmetry could not be determined.
 Eigenvector   1:      Triplet-?Sym  Eigenvalue= 0.1286652  <S**2>=2.000
      10 -> 13         0.47510
      11 -> 12         0.47510
 The wavefunction is stable under the perturbations considered.
 Leave Link  914 at Fri Apr 16 23:27:12 2021, MaxMem=   104857600 cpu:            5845.4 elap:             151.9
 (Enter /s/ls4/users/knvvv/bin/g16sse/l508.exe)
 The wavefunction is already stable.
 Leave Link  508 at Fri Apr 16 23:27:12 2021, MaxMem=   104857600 cpu:               2.2 elap:               0.1
 (Enter /s/ls4/users/knvvv/bin/g16sse/l601.exe)
 Copying SCF densities to generalized density rwf, IOpCl= 0 IROHF=0.

 **********************************************************************

            Population analysis using the SCF density.

 **********************************************************************

 Orbital symmetries:
       Occupied  (SG) (SG) (SG) (SG) (SG) (SG) (PI) (PI) (SG) (PI)
                 (PI)
       Virtual   (PI) (PI) (SG) (SG) (PI) (PI) (SG) (PI) (PI) (SG)
                 (SG) (PI) (PI) (DLTA) (DLTA) (SG) (SG) (SG) (DLTA)
                 (DLTA) (PI) (PI) (PI) (PI) (SG) (PI) (PI) (SG)
                 (DLTA) (DLTA) (SG) (PI) (PI) (PI) (PI) (SG) (SG)
                 (PI) (PI) (SG) (PHI) (PHI) (DLTA) (DLTA) (SG)
                 (DLTA) (DLTA) (PHI) (PHI) (PI) (PI) (DLTA) (DLTA)
                 (PI) (PI) (SG) (SG) (PHI) (PHI) (DLTA) (DLTA)
                 (SG) (PI) (PI) (PI) (PI) (SG) (SG) (DLTA) (DLTA)
                 (PI) (PI) (SG) (DLTA) (DLTA) (PI) (PI) (SG) (SG)
                 (PI) (PI) (PI) (PI) (SG) (PHI) (PHI) (PI) (PI)
                 (?A) (?A) (SG) (DLTA) (DLTA) (?A) (?A) (PI) (PI)
                 (SG) (PHI) (PHI) (PI) (PI) (SG) (DLTA) (DLTA)
                 (PHI) (PHI) (DLTA) (DLTA) (PHI) (PHI) (SG) (SG)
                 (PI) (PI) (DLTA) (DLTA) (?A) (?A) (DLTA) (DLTA)
                 (PHI) (PHI) (DLTA) (DLTA) (PI) (PI) (SG) (PI)
                 (PI) (SG) (SG) (DLTA) (DLTA) (PHI) (PHI) (PI)
                 (PI) (SG) (DLTA) (DLTA) (SG) (PI) (PI) (DLTA)
                 (DLTA) (PI) (PI) (SG) (SG) (PI) (PI) (SG) (SG)
                 (SG) (SG) (SG) (SG) (SG) (SG)
 The electronic state is 1-SG.
 Alpha  occ. eigenvalues --  -19.72693 -14.99583 -14.86241  -1.37719  -1.20749
 Alpha  occ. eigenvalues --   -0.70008  -0.65875  -0.65875  -0.56964  -0.41553
 Alpha  occ. eigenvalues --   -0.41553
 Alpha virt. eigenvalues --    0.03031   0.03031   0.10643   0.17166   0.20020
 Alpha virt. eigenvalues --    0.20020   0.24125   0.29602   0.29602   0.32167
 Alpha virt. eigenvalues --    0.36235   0.40159   0.40159   0.59573   0.59573
 Alpha virt. eigenvalues --    0.60268   0.76099   0.81585   0.87936   0.87936
 Alpha virt. eigenvalues --    0.94189   0.94189   1.03454   1.03454   1.06837
 Alpha virt. eigenvalues --    1.16182   1.16182   1.22686   1.25307   1.25307
 Alpha virt. eigenvalues --    1.33968   1.36579   1.36579   1.47442   1.47442
 Alpha virt. eigenvalues --    1.48697   1.58396   1.94979   1.94979   2.15515
 Alpha virt. eigenvalues --    2.16431   2.16431   2.32624   2.32624   2.50201
 Alpha virt. eigenvalues --    2.57129   2.57129   2.60008   2.60008   2.61513
 Alpha virt. eigenvalues --    2.61513   2.83314   2.83315   2.85135   2.85135
 Alpha virt. eigenvalues --    2.89438   2.92547   3.18715   3.18715   3.21308
 Alpha virt. eigenvalues --    3.21309   3.25024   3.32725   3.32725   3.58757
 Alpha virt. eigenvalues --    3.58757   3.59289   3.76309   3.84304   3.84304
 Alpha virt. eigenvalues --    3.86243   3.86243   3.95240   4.11563   4.11563
 Alpha virt. eigenvalues --    4.26738   4.26738   4.41211   4.77624   4.78963
 Alpha virt. eigenvalues --    4.78963   5.02560   5.02560   5.55918   6.15353
 Alpha virt. eigenvalues --    6.15353   6.17943   6.17943   6.46166   6.46166
 Alpha virt. eigenvalues --    6.64337   6.69285   6.69285   6.82141   6.82142
 Alpha virt. eigenvalues --    7.12073   7.12073   7.16374   7.48521   7.48521
 Alpha virt. eigenvalues --    7.51867   7.51867   7.68579   7.87201   7.87202
 Alpha virt. eigenvalues --    8.12725   8.12725   8.31161   8.31161   8.31646
 Alpha virt. eigenvalues --    8.31646   8.39183   8.49859   8.54982   8.54982
 Alpha virt. eigenvalues --    8.66579   8.66580   8.73945   8.73947   8.84052
 Alpha virt. eigenvalues --    8.84052   8.99163   8.99163   9.18392   9.18393
 Alpha virt. eigenvalues --    9.20379   9.20379   9.41948   9.83282   9.83282
 Alpha virt. eigenvalues --    9.92409  10.28269  10.56442  10.56443  10.77141
 Alpha virt. eigenvalues --   10.77141  10.97126  10.97126  11.05579  11.07223
 Alpha virt. eigenvalues --   11.07224  11.25161  11.41286  11.41286  11.89920
 Alpha virt. eigenvalues --   11.89923  12.49322  12.49322  12.63143  13.85006
 Alpha virt. eigenvalues --   14.21758  14.21758  14.73907  15.88692  37.03878
 Alpha virt. eigenvalues --   38.99946  47.91505 194.48195 196.61854 250.92220
          Condensed to atoms (all electrons):
               1          2          3
     1  N    5.623300   0.511223   0.577092
     2  N    0.511223   6.648373  -0.098680
     3  O    0.577092  -0.098680   7.749055
 Mulliken charges:
               1
     1  N    0.288384
     2  N   -0.060916
     3  O   -0.227468
 Sum of Mulliken charges =  -0.00000
 Mulliken charges with hydrogens summed into heavy atoms:
               1
     1  N    0.288384
     2  N   -0.060916
     3  O   -0.227468
 Electronic spatial extent (au):  <R**2>=            108.0717
 Charge=             -0.0000 electrons
 Dipole moment (field-independent basis, Debye):
    X=              0.0000    Y=              0.0000    Z=             -0.2872  Tot=              0.2872
 Quadrupole moment (field-independent basis, Debye-Ang):
   XX=            -15.3169   YY=            -15.3169   ZZ=            -19.0931
   XY=             -0.0000   XZ=              0.0000   YZ=              0.0000
 Traceless Quadrupole moment (field-independent basis, Debye-Ang):
   XX=              1.2587   YY=              1.2587   ZZ=             -2.5175
   XY=             -0.0000   XZ=              0.0000   YZ=              0.0000
 Octapole moment (field-independent basis, Debye-Ang**2):
  XXX=              0.0000  YYY=              0.0000  ZZZ=              4.6473  XYY=              0.0000
  XXY=              0.0000  XXZ=              0.9208  XZZ=              0.0000  YZZ=              0.0000
  YYZ=              0.9208  XYZ=              0.0000
 Hexadecapole moment (field-independent basis, Debye-Ang**3):
 XXXX=            -12.3246 YYYY=            -12.3246 ZZZZ=           -105.7054 XXXY=             -0.0000
 XXXZ=              0.0000 YYYX=             -0.0000 YYYZ=              0.0000 ZZZX=              0.0000
 ZZZY=             -0.0000 XXYY=             -4.1082 XXZZ=            -19.3779 YYZZ=            -19.3779
 XXYZ=              0.0000 YYXZ=              0.0000 ZZXY=              0.0000
 N-N= 6.098707366152D+01 E-N=-5.552938807067D+02  KE= 1.840236683394D+02
 PrsmSu:  requested number of processors reduced to:  21 ShMem   1 Linda.
 No NMR shielding tensors so no spin-rotation constants.
 Leave Link  601 at Fri Apr 16 23:27:15 2021, MaxMem=   104857600 cpu:             141.9 elap:               3.1
 (Enter /s/ls4/users/knvvv/bin/g16sse/l9999.exe)

 Test job not archived.
 1\1\GINC-N183\Stability\RM062X\def2QZVP\N2O1\KNVVV\16-Apr-2021\0\\#P M
 062X/Def2QZVP Integral=UltraFineGrid SCF=NoSymm Stable=(RExt, Opt) IOp
 (1/33=1)\\Database calculations.\\0,1\N,0,0.,0.,-0.0211861082\N,0,0.,0
 .,-1.1424486191\O,0,0.,0.,1.1636347273\\Version=ES64L-G16RevA.03\State
 =1-SG\HF=-184.6812086\RMSD=2.288e-09\Dipole=0.,0.,-0.1130023\Quadrupol
 e=0.9358335,0.9358335,-1.8716671,0.,0.,0.\PG=C*V [C*(N1N1O1)]\\@


 TRUTH, IN SCIENCE, CAN BE DEFINED AS THE WORKING HYPOTHESIS 
 BEST FITTED TO OPEN THE WAY TO THE NEXT BETTER ONE.

                              -- KONRAD LORENZ
 Job cpu time:       0 days  3 hours 32 minutes 44.5 seconds.
 Elapsed time:       0 days  0 hours  5 minutes  4.6 seconds.
 File lengths (MBytes):  RWF=    114 Int=      0 D2E=      0 Chk=      5 Scr=      1
 Normal termination of Gaussian 16 at Fri Apr 16 23:27:15 2021.
