 Entering Gaussian System, Link 0=/s/ls4/users/knvvv/bin/g16sse/g16
 Input=data/database/M062X--def2-QZVP--BH76_CH4.gjf
 Output=data/database/M062X--def2-QZVP--BH76_CH4.log
 Initial command:
 /s/ls4/users/knvvv/bin/g16sse/l1.exe "/s/ls4/users/knvvv/bin/scratch/Gau-46816.inp" -scrdir="/s/ls4/users/knvvv/bin/scratch/"
 Entering Link 1 = /s/ls4/users/knvvv/bin/g16sse/l1.exe PID=     46817.
  
 Copyright (c) 1988,1990,1992,1993,1995,1998,2003,2009,2016,
            Gaussian, Inc.  All Rights Reserved.
  
 This is part of the Gaussian(R) 16 program.  It is based on
 the Gaussian(R) 09 system (copyright 2009, Gaussian, Inc.),
 the Gaussian(R) 03 system (copyright 2003, Gaussian, Inc.),
 the Gaussian(R) 98 system (copyright 1998, Gaussian, Inc.),
 the Gaussian(R) 94 system (copyright 1995, Gaussian, Inc.),
 the Gaussian 92(TM) system (copyright 1992, Gaussian, Inc.),
 the Gaussian 90(TM) system (copyright 1990, Gaussian, Inc.),
 the Gaussian 88(TM) system (copyright 1988, Gaussian, Inc.),
 the Gaussian 86(TM) system (copyright 1986, Carnegie Mellon
 University), and the Gaussian 82(TM) system (copyright 1983,
 Carnegie Mellon University). Gaussian is a federally registered
 trademark of Gaussian, Inc.
  
 This software contains proprietary and confidential information,
 including trade secrets, belonging to Gaussian, Inc.
  
 This software is provided under written license and may be
 used, copied, transmitted, or stored only in accord with that
 written license.
  
 The following legend is applicable only to US Government
 contracts under FAR:
  
                    RESTRICTED RIGHTS LEGEND
  
 Use, reproduction and disclosure by the US Government is
 subject to restrictions as set forth in subparagraphs (a)
 and (c) of the Commercial Computer Software - Restricted
 Rights clause in FAR 52.227-19.
  
 Gaussian, Inc.
 340 Quinnipiac St., Bldg. 40, Wallingford CT 06492
  
  
 ---------------------------------------------------------------
 Warning -- This program may not be used in any manner that
 competes with the business of Gaussian, Inc. or will provide
 assistance to any competitor of Gaussian, Inc.  The licensee
 of this program is prohibited from giving any competitor of
 Gaussian, Inc. access to this program.  By using this program,
 the user acknowledges that Gaussian, Inc. is engaged in the
 business of creating and licensing software in the field of
 computational chemistry and represents and warrants to the
 licensee that it is not a competitor of Gaussian, Inc. and that
 it will not use this program in any manner prohibited above.
 ---------------------------------------------------------------
  

 Cite this work as:
 Gaussian 16, Revision A.03,
 M. J. Frisch, G. W. Trucks, H. B. Schlegel, G. E. Scuseria, 
 M. A. Robb, J. R. Cheeseman, G. Scalmani, V. Barone, 
 G. A. Petersson, H. Nakatsuji, X. Li, M. Caricato, A. V. Marenich, 
 J. Bloino, B. G. Janesko, R. Gomperts, B. Mennucci, H. P. Hratchian, 
 J. V. Ortiz, A. F. Izmaylov, J. L. Sonnenberg, D. Williams-Young, 
 F. Ding, F. Lipparini, F. Egidi, J. Goings, B. Peng, A. Petrone, 
 T. Henderson, D. Ranasinghe, V. G. Zakrzewski, J. Gao, N. Rega, 
 G. Zheng, W. Liang, M. Hada, M. Ehara, K. Toyota, R. Fukuda, 
 J. Hasegawa, M. Ishida, T. Nakajima, Y. Honda, O. Kitao, H. Nakai, 
 T. Vreven, K. Throssell, J. A. Montgomery, Jr., J. E. Peralta, 
 F. Ogliaro, M. J. Bearpark, J. J. Heyd, E. N. Brothers, K. N. Kudin, 
 V. N. Staroverov, T. A. Keith, R. Kobayashi, J. Normand, 
 K. Raghavachari, A. P. Rendell, J. C. Burant, S. S. Iyengar, 
 J. Tomasi, M. Cossi, J. M. Millam, M. Klene, C. Adamo, R. Cammi, 
 J. W. Ochterski, R. L. Martin, K. Morokuma, O. Farkas, 
 J. B. Foresman, and D. J. Fox, Gaussian, Inc., Wallingford CT, 2016.
 
 ******************************************
 Gaussian 16:  ES64L-G16RevA.03 25-Dec-2016
                16-Apr-2021 
 ******************************************
 %RWF=temp5_69070,70GB
 %nprocshared=48
 Will use up to   48 processors via shared memory.
 Default route: MaxDisk=80GB
 ----------------------------------------------------------------------
 #P M062X/Def2QZVP Integral=UltraFineGrid SCF=NoSymm Stable=(RExt, Opt)
  IOp(1/33=1)
 ----------------------------------------------------------------------
 1/33=1,38=1,172=1/1;
 2/12=2,17=6,18=5,40=1/2;
 3/5=45,7=101,11=2,25=1,30=1,74=-55,75=-5/1,2,3;
 4/9=2/1;
 5/5=2,38=5/2;
 6/7=2,8=2,9=2,10=2,28=1/1;
 8/6=1,10=90,11=11/1;
 9/8=-3,42=1,46=1/14;
 5/5=2,8=3,17=40,38=5/8(-2);
 6/7=2,8=2,9=2,10=2,28=1/1;
 99/5=1,9=1/99;
 Leave Link    1 at Fri Apr 16 23:00:19 2021, MaxMem=           0 cpu:              11.2 elap:               0.3
 (Enter /s/ls4/users/knvvv/bin/g16sse/l101.exe)
 ONIOM data not found on unit 2.
 ----------------------
 Database calculations.
 ----------------------
 TstMul:  ICh=     0
 TstMul:  Mul=     1
 TstMul:  ICh=     0
 TstMul:  Mul=     1
 Symbolic Z-matrix:
 Charge =  0 Multiplicity = 1
 C                     0.        0.        0. 
 H                     0.62784   0.62784   0.62784 
 H                    -0.62784  -0.62784   0.62784 
 H                     0.62784  -0.62784  -0.62784 
 H                    -0.62784   0.62784  -0.62784 
 
 RdStrC is calling ZToCFu for IStruc=1 NZ=     5.
 PrtBox:  NBox=     1 Levels=  1 BoxLen=    8.00 SMaxX=        2.37
          Shift=            1.186440            1.186440            1.186440
 Box      1 Number                   0 centers from      1 to      5:
 After GenITR:
 ITRead=  0  0  0  0  0
 MicOpt= -1 -1 -1 -1 -1
 ITRead=  0  0  0  0  0
 MicOpt= -1 -1 -1 -1 -1
 NAtoms=      5 NQM=        5 NQMF=       0 NMMI=      0 NMMIF=      0
                NMic=       0 NMicF=      0.
                    Isotopes and Nuclear Properties:
 (Nuclear quadrupole moments (NQMom) in fm**2, nuclear magnetic moments (NMagM)
  in nuclear magnetons)

  Atom         1           2           3           4           5
 IAtWgt=          12           1           1           1           1
 AtmWgt=  12.0000000   1.0078250   1.0078250   1.0078250   1.0078250
 NucSpn=           0           1           1           1           1
 AtZEff=  -0.0000000  -0.0000000  -0.0000000  -0.0000000  -0.0000000
 NQMom=    0.0000000   0.0000000   0.0000000   0.0000000   0.0000000
 NMagM=    0.0000000   2.7928460   2.7928460   2.7928460   2.7928460
 AtZNuc=   6.0000000   1.0000000   1.0000000   1.0000000   1.0000000
 No MM parameters found.
 Leave Link  101 at Fri Apr 16 23:00:20 2021, MaxMem=   104857600 cpu:               6.6 elap:               0.2
 (Enter /s/ls4/users/knvvv/bin/g16sse/l202.exe)
                          Input orientation:                          
 ---------------------------------------------------------------------
 Center     Atomic      Atomic             Coordinates (Angstroms)
 Number     Number       Type             X           Y           Z
 ---------------------------------------------------------------------
      1          6           0        0.000000    0.000000    0.000000
      2          1           0        0.627837    0.627837    0.627837
      3          1           0       -0.627837   -0.627837    0.627837
      4          1           0        0.627837   -0.627837   -0.627837
      5          1           0       -0.627837    0.627837   -0.627837
 ---------------------------------------------------------------------
                    Distance matrix (angstroms):
                    1          2          3          4          5
     1  C    0.000000
     2  H    1.087446   0.000000
     3  H    1.087446   1.775791   0.000000
     4  H    1.087446   1.775791   1.775791   0.000000
     5  H    1.087446   1.775791   1.775791   1.775791   0.000000
 Stoichiometry    CH4
 Framework group  TD[O(C),4C3(H)]
 Deg. of freedom     1
 Full point group                 TD      NOp  24
 Largest Abelian subgroup         D2      NOp   4
 Largest concise Abelian subgroup D2      NOp   4
                         Standard orientation:                         
 ---------------------------------------------------------------------
 Center     Atomic      Atomic             Coordinates (Angstroms)
 Number     Number       Type             X           Y           Z
 ---------------------------------------------------------------------
      1          6           0        0.000000    0.000000    0.000000
      2          1           0        0.627837    0.627837    0.627837
      3          1           0       -0.627837   -0.627837    0.627837
      4          1           0        0.627837   -0.627837   -0.627837
      5          1           0       -0.627837    0.627837   -0.627837
 ---------------------------------------------------------------------
 Rotational constants (GHZ):         159.0186934         159.0186934         159.0186934
 Leave Link  202 at Fri Apr 16 23:00:20 2021, MaxMem=   104857600 cpu:              20.2 elap:               0.4
 (Enter /s/ls4/users/knvvv/bin/g16sse/l301.exe)
 Standard basis: def2QZVP (5D, 7F)
 Ernie: Thresh=  0.10000D-02 Tol=  0.10000D-05 Strict=F.
 There are    59 symmetry adapted cartesian basis functions of A   symmetry.
 There are    51 symmetry adapted cartesian basis functions of B1  symmetry.
 There are    51 symmetry adapted cartesian basis functions of B2  symmetry.
 There are    51 symmetry adapted cartesian basis functions of B3  symmetry.
 There are    48 symmetry adapted basis functions of A   symmetry.
 There are    43 symmetry adapted basis functions of B1  symmetry.
 There are    43 symmetry adapted basis functions of B2  symmetry.
 There are    43 symmetry adapted basis functions of B3  symmetry.
   177 basis functions,   244 primitive gaussians,   212 cartesian basis functions
     5 alpha electrons        5 beta electrons
       nuclear repulsion energy        13.4669478898 Hartrees.
 IExCor= 4336 DFT=T Ex+Corr=M062X ExCW=0 ScaHFX=  0.540000
 ScaDFX=  1.000000  1.000000  1.000000  1.000000 ScalE2=  1.000000  1.000000
 IRadAn=      5 IRanWt=     -1 IRanGd=            0 ICorTp=0 IEmpDi=  4
 NAtoms=    5 NActive=    5 NUniq=    2 SFac= 4.00D+00 NAtFMM=   60 NAOKFM=F Big=F
 Integral buffers will be    131072 words long.
 Raffenetti 2 integral format.
 Two-electron integral symmetry is turned on.
 Leave Link  301 at Fri Apr 16 23:00:20 2021, MaxMem=   104857600 cpu:               7.0 elap:               0.2
 (Enter /s/ls4/users/knvvv/bin/g16sse/l302.exe)
 NPDir=0 NMtPBC=     1 NCelOv=     1 NCel=       1 NClECP=     1 NCelD=      1
         NCelK=      1 NCelE2=     1 NClLst=     1 CellRange=     0.0.
 One-electron integrals computed using PRISM.
 One-electron integral symmetry used in STVInt
 PrsmSu:  requested number of processors reduced to:   4 ShMem   1 Linda.
 PrsmSu:  requested number of processors reduced to:  21 ShMem   1 Linda.
  24 Symmetry operations used in ECPInt.
 ECPInt:  NShTT=    1653 NPrTT=    3384 LenC2=    1654 LenP2D=    3252.
 LDataN:  DoStor=T MaxTD1= 8 Len=  415
 Number of processors reduced to  35 by ecpmxn.
 NBasis=   177 RedAO= T EigKep=  1.37D-04  NBF=    48    43    43    43
 NBsUse=   177 1.00D-06 EigRej= -1.00D+00 NBFU=    48    43    43    43
 Precomputing XC quadrature grid using
 IXCGrd= 4 IRadAn=           5 IRanWt=          -1 IRanGd=           0 AccXCQ= 0.00D+00.
 Generated NRdTot=       0 NPtTot=           0 NUsed=           0 NTot=          32
 NSgBfM=   212   212   212   212   212 MxSgAt=     5 MxSgA2=     5.
 Leave Link  302 at Fri Apr 16 23:01:02 2021, MaxMem=   104857600 cpu:            1976.3 elap:              42.1
 (Enter /s/ls4/users/knvvv/bin/g16sse/l303.exe)
 DipDrv:  MaxL=1.
 Leave Link  303 at Fri Apr 16 23:01:03 2021, MaxMem=   104857600 cpu:              23.0 elap:               0.5
 (Enter /s/ls4/users/knvvv/bin/g16sse/l401.exe)
 SCF N**3 symmetry information disabled.
 ExpMin= 7.60D-02 ExpMax= 6.70D+04 ExpMxC= 6.47D+02 IAcc=3 IRadAn=         5 AccDes= 0.00D+00
 Harris functional with IExCor= 1009 and IRadAn=       5 diagonalized for initial guess.
 HarFok:  IExCor= 1009 AccDes= 0.00D+00 IRadAn=         5 IDoV= 1 UseB2=F ITyADJ=14
 ICtDFT=  3500011 ScaDFX=  1.000000  1.000000  1.000000  1.000000
 FoFCou: FMM=F IPFlag=           0 FMFlag=      100000 FMFlg1=           0
         NFxFlg=           0 DoJE=T BraDBF=F KetDBF=T FulRan=T
         wScrn=  0.000000 ICntrl=       500 IOpCl=  0 I1Cent=   200000004 NGrid=           0
         NMat0=    1 NMatS0=      1 NMatT0=    0 NMatD0=    1 NMtDS0=    0 NMtDT0=    0
 Petite list used in FoFCou.
 CoulSu:  requested number of processors reduced to:  21 ShMem   1 Linda.
 CoulSu:  requested number of processors reduced to:  21 ShMem   1 Linda.
 CoulSu:  requested number of processors reduced to:  21 ShMem   1 Linda.
 CoulSu:  requested number of processors reduced to:  21 ShMem   1 Linda.
 Harris En= -40.5450222480335    
 JPrj=0 DoOrth=F DoCkMO=F.
 Initial guess orbital symmetries:
       Occupied  (A1) (A1) (T2) (T2) (T2)
       Virtual   (A1) (T2) (T2) (T2) (T2) (T2) (T2) (T2) (T2) (T2)
                 (A1) (E) (E) (A1) (T2) (T2) (T2) (T1) (T1) (T1)
                 (T2) (T2) (T2) (T2) (T2) (T2) (A1) (T2) (T2) (T2)
                 (E) (E) (A1) (T2) (T2) (T2) (E) (E) (T1) (T1)
                 (T1) (T2) (T2) (T2) (A1) (T2) (T2) (T2) (T1) (T1)
                 (T1) (E) (E) (A1) (T2) (T2) (T2) (E) (E) (T2)
                 (T2) (T2) (T1) (T1) (T1) (A1) (T2) (T2) (T2) (T2)
                 (T2) (T2) (T1) (T1) (T1) (A1) (T2) (T2) (T2) (E)
                 (E) (T2) (T2) (T2) (E) (E) (T1) (T1) (T1) (A1)
                 (T2) (T2) (T2) (T2) (T2) (T2) (A2) (T1) (T1) (T1)
                 (T1) (T1) (T1) (A1) (T2) (T2) (T2) (A1) (T2) (T2)
                 (T2) (E) (E) (A1) (T1) (T1) (T1) (E) (E) (T2)
                 (T2) (T2) (T2) (T2) (T2) (E) (E) (T1) (T1) (T1)
                 (T2) (T2) (T2) (A1) (A1) (T2) (T2) (T2) (E) (E)
                 (T1) (T1) (T1) (T2) (T2) (T2) (T2) (T2) (T2) (T1)
                 (T1) (T1) (E) (E) (T2) (T2) (T2) (E) (E) (T2)
                 (T2) (T2) (A1) (T1) (T1) (T1) (T2) (T2) (T2) (A1)
                 (A1) (A1)
 The electronic state of the initial guess is 1-A1.
 Leave Link  401 at Fri Apr 16 23:01:23 2021, MaxMem=   104857600 cpu:             941.9 elap:              20.2
 (Enter /s/ls4/users/knvvv/bin/g16sse/l502.exe)
 Integral symmetry usage will be decided dynamically.
 Closed shell SCF:
 Using DIIS extrapolation, IDIIS=  1040.
 NGot=   104857600 LenX=   104753225 LenY=   104707840
 Requested convergence on RMS density matrix=1.00D-08 within 128 cycles.
 Requested convergence on MAX density matrix=1.00D-06.
 Requested convergence on             energy=1.00D-06.
 No special actions if energy rises.
 Fock matrices will be formed incrementally for  20 cycles.
 Integral accuracy reduced to 1.0D-05 until final iterations.

 Cycle   1  Pass 0  IDiag  1:
 FoFJK:  IHMeth= 1 ICntrl=       0 DoSepK=F KAlg= 0 I1Cent=           0 FoldK=F
 IRaf= 990000000 NMat=       1 IRICut=       1 DoRegI=T DoRafI=F ISym2E= 1 IDoP0=0 IntGTp=1.
 FoFCou: FMM=F IPFlag=           0 FMFlag=      100000 FMFlg1=           0
         NFxFlg=           0 DoJE=F BraDBF=F KetDBF=F FulRan=T
         wScrn=  0.000000 ICntrl=         0 IOpCl=  0 I1Cent=           0 NGrid=           0
         NMat0=    1 NMatS0=      1 NMatT0=    0 NMatD0=    1 NMtDS0=    0 NMtDT0=    0
 Petite list used in FoFCou.
 CoulSu:  requested number of processors reduced to:  21 ShMem   1 Linda.
 E= -40.4066431595332    
 DIIS: error= 4.58D-02 at cycle   1 NSaved=   1.
 NSaved= 1 IEnMin= 1 EnMin= -40.4066431595332     IErMin= 1 ErrMin= 4.58D-02
 ErrMax= 4.58D-02  0.00D+00 EMaxC= 1.00D-01 BMatC= 1.20D-01 BMatP= 1.20D-01
 IDIUse=3 WtCom= 5.42D-01 WtEn= 4.58D-01
 Coeff-Com:  0.100D+01
 Coeff-En:   0.100D+01
 Coeff:      0.100D+01
 Gap=     0.414 Goal=   None    Shift=    0.000
 DSYEVD-2 returned Info=         355 IAlg= 4 N=   177 NDim=   177 NE2=      591568 trying  DSYEV.
 GapD=    0.414 DampG=2.000 DampE=0.500 DampFc=1.0000 IDamp=-1.
 RMSDP=1.33D-03 MaxDP=4.53D-02              OVMax= 1.73D-01

 Cycle   2  Pass 0  IDiag  1:
 RMSU=  1.24D-03    CP:  8.95D-01
 CoulSu:  requested number of processors reduced to:  21 ShMem   1 Linda.
 E= -40.4374524468954     Delta-E=       -0.030809287362 Rises=F Damp=F
 DIIS: error= 4.24D-02 at cycle   2 NSaved=   2.
 NSaved= 2 IEnMin= 2 EnMin= -40.4374524468954     IErMin= 2 ErrMin= 4.24D-02
 ErrMax= 4.24D-02  0.00D+00 EMaxC= 1.00D-01 BMatC= 7.01D-02 BMatP= 1.20D-01
 IDIUse=3 WtCom= 5.76D-01 WtEn= 4.24D-01
 Coeff-Com:  0.429D+00 0.571D+00
 Coeff-En:   0.398D+00 0.602D+00
 Coeff:      0.416D+00 0.584D+00
 Gap=     0.511 Goal=   None    Shift=    0.000
 RMSDP=8.13D-04 MaxDP=5.64D-02 DE=-3.08D-02 OVMax= 8.48D-02

 Cycle   3  Pass 0  IDiag  1:
 RMSU=  5.58D-04    CP:  9.68D-01  6.07D-01
 CoulSu:  requested number of processors reduced to:  21 ShMem   1 Linda.
 E= -40.5058419557426     Delta-E=       -0.068389508847 Rises=F Damp=F
 DIIS: error= 3.76D-03 at cycle   3 NSaved=   3.
 NSaved= 3 IEnMin= 3 EnMin= -40.5058419557426     IErMin= 3 ErrMin= 3.76D-03
 ErrMax= 3.76D-03  0.00D+00 EMaxC= 1.00D-01 BMatC= 6.39D-04 BMatP= 7.01D-02
 IDIUse=3 WtCom= 9.62D-01 WtEn= 3.76D-02
 Coeff-Com: -0.244D-01 0.588D-01 0.966D+00
 Coeff-En:   0.000D+00 0.000D+00 0.100D+01
 Coeff:     -0.235D-01 0.566D-01 0.967D+00
 Gap=     0.508 Goal=   None    Shift=    0.000
 RMSDP=1.28D-04 MaxDP=7.08D-03 DE=-6.84D-02 OVMax= 7.25D-03

 Cycle   4  Pass 0  IDiag  1:
 RMSU=  5.39D-05    CP:  9.63D-01  6.66D-01  1.16D+00
 CoulSu:  requested number of processors reduced to:  21 ShMem   1 Linda.
 E= -40.5064136357411     Delta-E=       -0.000571679999 Rises=F Damp=F
 DIIS: error= 1.20D-04 at cycle   4 NSaved=   4.
 NSaved= 4 IEnMin= 4 EnMin= -40.5064136357411     IErMin= 4 ErrMin= 1.20D-04
 ErrMax= 1.20D-04  0.00D+00 EMaxC= 1.00D-01 BMatC= 1.14D-06 BMatP= 6.39D-04
 IDIUse=3 WtCom= 9.99D-01 WtEn= 1.20D-03
 Coeff-Com: -0.608D-03-0.760D-02-0.423D-01 0.105D+01
 Coeff-En:   0.000D+00 0.000D+00 0.000D+00 0.100D+01
 Coeff:     -0.607D-03-0.759D-02-0.423D-01 0.105D+01
 Gap=     0.508 Goal=   None    Shift=    0.000
 RMSDP=1.73D-05 MaxDP=5.09D-04 DE=-5.72D-04 OVMax= 2.08D-04

 Cycle   5  Pass 0  IDiag  1:
 RMSU=  7.60D-06    CP:  9.63D-01  6.68D-01  1.18D+00  1.15D+00
 CoulSu:  requested number of processors reduced to:  21 ShMem   1 Linda.
 E= -40.5064142867938     Delta-E=       -0.000000651053 Rises=F Damp=F
 DIIS: error= 2.16D-05 at cycle   5 NSaved=   5.
 NSaved= 5 IEnMin= 5 EnMin= -40.5064142867938     IErMin= 5 ErrMin= 2.16D-05
 ErrMax= 2.16D-05  0.00D+00 EMaxC= 1.00D-01 BMatC= 1.88D-08 BMatP= 1.14D-06
 IDIUse=1 WtCom= 1.00D+00 WtEn= 0.00D+00
 Coeff-Com:  0.129D-03-0.349D-03-0.585D-03-0.138D-01 0.101D+01
 Coeff:      0.129D-03-0.349D-03-0.585D-03-0.138D-01 0.101D+01
 Gap=     0.508 Goal=   None    Shift=    0.000
 RMSDP=6.19D-07 MaxDP=3.44D-05 DE=-6.51D-07 OVMax= 3.60D-05

 Initial convergence to 1.0D-05 achieved.  Increase integral accuracy.
 Cycle   6  Pass 1  IDiag  1:
 CoulSu:  requested number of processors reduced to:  21 ShMem   1 Linda.
 E= -40.5063848571035     Delta-E=        0.000029429690 Rises=F Damp=F
 DIIS: error= 5.55D-05 at cycle   1 NSaved=   1.
 NSaved= 1 IEnMin= 1 EnMin= -40.5063848571035     IErMin= 1 ErrMin= 5.55D-05
 ErrMax= 5.55D-05  0.00D+00 EMaxC= 1.00D-01 BMatC= 4.56D-07 BMatP= 4.56D-07
 IDIUse=1 WtCom= 1.00D+00 WtEn= 0.00D+00
 Coeff-Com:  0.100D+01
 Coeff:      0.100D+01
 Gap=     0.508 Goal=   None    Shift=    0.000
 RMSDP=6.19D-07 MaxDP=3.44D-05 DE= 2.94D-05 OVMax= 7.41D-05

 Cycle   7  Pass 1  IDiag  1:
 RMSU=  1.05D-05    CP:  1.00D+00
 CoulSu:  requested number of processors reduced to:  21 ShMem   1 Linda.
 E= -40.5063849970731     Delta-E=       -0.000000139970 Rises=F Damp=F
 DIIS: error= 5.92D-06 at cycle   2 NSaved=   2.
 NSaved= 2 IEnMin= 2 EnMin= -40.5063849970731     IErMin= 2 ErrMin= 5.92D-06
 ErrMax= 5.92D-06  0.00D+00 EMaxC= 1.00D-01 BMatC= 3.48D-09 BMatP= 4.56D-07
 IDIUse=1 WtCom= 1.00D+00 WtEn= 0.00D+00
 Coeff-Com:  0.178D-01 0.982D+00
 Coeff:      0.178D-01 0.982D+00
 Gap=     0.508 Goal=   None    Shift=    0.000
 RMSDP=4.52D-07 MaxDP=3.53D-05 DE=-1.40D-07 OVMax= 2.48D-05

 Cycle   8  Pass 1  IDiag  1:
 RMSU=  4.42D-07    CP:  1.00D+00  9.99D-01
 CoulSu:  requested number of processors reduced to:  21 ShMem   1 Linda.
 E= -40.5063849984850     Delta-E=       -0.000000001412 Rises=F Damp=F
 DIIS: error= 5.85D-06 at cycle   3 NSaved=   3.
 NSaved= 3 IEnMin= 3 EnMin= -40.5063849984850     IErMin= 3 ErrMin= 5.85D-06
 ErrMax= 5.85D-06  0.00D+00 EMaxC= 1.00D-01 BMatC= 1.41D-09 BMatP= 3.48D-09
 IDIUse=1 WtCom= 1.00D+00 WtEn= 0.00D+00
 Coeff-Com: -0.697D-03 0.366D+00 0.634D+00
 Coeff:     -0.697D-03 0.366D+00 0.634D+00
 Gap=     0.508 Goal=   None    Shift=    0.000
 RMSDP=1.27D-07 MaxDP=1.00D-05 DE=-1.41D-09 OVMax= 1.18D-05

 Cycle   9  Pass 1  IDiag  1:
 RMSU=  1.08D-07    CP:  1.00D+00  9.96D-01  1.03D+00
 CoulSu:  requested number of processors reduced to:  21 ShMem   1 Linda.
 E= -40.5063849997090     Delta-E=       -0.000000001224 Rises=F Damp=F
 DIIS: error= 9.13D-07 at cycle   4 NSaved=   4.
 NSaved= 4 IEnMin= 4 EnMin= -40.5063849997090     IErMin= 4 ErrMin= 9.13D-07
 ErrMax= 9.13D-07  0.00D+00 EMaxC= 1.00D-01 BMatC= 4.58D-11 BMatP= 1.41D-09
 IDIUse=1 WtCom= 1.00D+00 WtEn= 0.00D+00
 Coeff-Com: -0.171D-02-0.557D-01 0.101D+00 0.957D+00
 Coeff:     -0.171D-02-0.557D-01 0.101D+00 0.957D+00
 Gap=     0.508 Goal=   None    Shift=    0.000
 RMSDP=4.58D-08 MaxDP=2.14D-06 DE=-1.22D-09 OVMax= 2.25D-06

 Cycle  10  Pass 1  IDiag  1:
 RMSU=  9.14D-09    CP:  1.00D+00  9.98D-01  1.13D+00  1.02D+00
 CoulSu:  requested number of processors reduced to:  21 ShMem   1 Linda.
 E= -40.5063849997539     Delta-E=       -0.000000000045 Rises=F Damp=F
 DIIS: error= 4.11D-08 at cycle   5 NSaved=   5.
 NSaved= 5 IEnMin= 5 EnMin= -40.5063849997539     IErMin= 5 ErrMin= 4.11D-08
 ErrMax= 4.11D-08  0.00D+00 EMaxC= 1.00D-01 BMatC= 6.21D-14 BMatP= 4.58D-11
 IDIUse=1 WtCom= 1.00D+00 WtEn= 0.00D+00
 Coeff-Com:  0.179D-03 0.269D-02-0.153D-01-0.785D-01 0.109D+01
 Coeff:      0.179D-03 0.269D-02-0.153D-01-0.785D-01 0.109D+01
 Gap=     0.508 Goal=   None    Shift=    0.000
 RMSDP=3.24D-09 MaxDP=2.74D-07 DE=-4.48D-11 OVMax= 1.22D-07

 SCF Done:  E(RM062X) =  -40.5063849998     A.U. after   10 cycles
            NFock= 10  Conv=0.32D-08     -V/T= 2.0053
 KE= 4.029334999480D+01 PE=-1.201734653478D+02 EE= 2.590678246351D+01
 Leave Link  502 at Fri Apr 16 23:08:24 2021, MaxMem=   104857600 cpu:           19666.2 elap:             420.9
 (Enter /s/ls4/users/knvvv/bin/g16sse/l601.exe)
 Copying SCF densities to generalized density rwf, IOpCl= 0 IROHF=0.

 **********************************************************************

            Population analysis using the SCF density.

 **********************************************************************

 Orbital symmetries:
       Occupied  (A1) (A1) (T2) (T2) (T2)
       Virtual   (A1) (T2) (T2) (T2) (T2) (T2) (T2) (T2) (T2) (T2)
                 (A1) (E) (E) (A1) (T2) (T2) (T2) (T1) (T1) (T1)
                 (T2) (T2) (T2) (T2) (T2) (T2) (A1) (T2) (T2) (T2)
                 (E) (E) (A1) (T2) (T2) (T2) (E) (E) (T1) (T1)
                 (T1) (T2) (T2) (T2) (A1) (T2) (T2) (T2) (T1) (T1)
                 (T1) (E) (E) (A1) (E) (E) (T2) (T2) (T2) (T2)
                 (T2) (T2) (T1) (T1) (T1) (A1) (T2) (T2) (T2) (T2)
                 (T2) (T2) (T1) (T1) (T1) (A1) (T2) (T2) (T2) (E)
                 (E) (T2) (T2) (T2) (E) (E) (T1) (T1) (T1) (A1)
                 (T2) (T2) (T2) (A2) (T2) (T2) (T2) (T1) (T1) (T1)
                 (T1) (T1) (T1) (A1) (T2) (T2) (T2) (A1) (T2) (T2)
                 (T2) (E) (E) (A1) (T1) (T1) (T1) (E) (E) (T2)
                 (T2) (T2) (T2) (T2) (T2) (E) (E) (T1) (T1) (T1)
                 (T2) (T2) (T2) (A1) (A1) (E) (E) (T1) (T1) (T1)
                 (T2) (T2) (T2) (T2) (T2) (T2) (T2) (T2) (T2) (T1)
                 (T1) (T1) (E) (E) (T2) (T2) (T2) (E) (E) (T2)
                 (T2) (T2) (A1) (T1) (T1) (T1) (T2) (T2) (T2) (A1)
                 (A1) (A1)
 The electronic state is 1-A1.
 Alpha  occ. eigenvalues --  -10.51792  -0.78685  -0.45688  -0.45688  -0.45688
 Alpha virt. eigenvalues --    0.05088   0.12221   0.12221   0.12221   0.15123
 Alpha virt. eigenvalues --    0.15123   0.15123   0.36451   0.36451   0.36451
 Alpha virt. eigenvalues --    0.37650   0.42581   0.42581   0.46270   0.66693
 Alpha virt. eigenvalues --    0.66693   0.66693   0.71354   0.71354   0.71354
 Alpha virt. eigenvalues --    0.76014   0.76014   0.76014   0.95875   0.95875
 Alpha virt. eigenvalues --    0.95875   1.01626   1.07577   1.07577   1.07577
 Alpha virt. eigenvalues --    1.09460   1.09460   1.17441   1.45341   1.45341
 Alpha virt. eigenvalues --    1.45341   1.71009   1.71009   1.84115   1.84115
 Alpha virt. eigenvalues --    1.84115   1.89010   1.89010   1.89010   2.01691
 Alpha virt. eigenvalues --    2.11748   2.11748   2.11748   2.13512   2.13512
 Alpha virt. eigenvalues --    2.13512   2.26543   2.26543   2.46192   2.52874
 Alpha virt. eigenvalues --    2.52874   2.54213   2.54213   2.54213   2.71671
 Alpha virt. eigenvalues --    2.71671   2.71671   2.88228   2.88228   2.88228
 Alpha virt. eigenvalues --    2.95689   2.98363   2.98363   2.98363   3.11395
 Alpha virt. eigenvalues --    3.11395   3.11395   3.19478   3.19478   3.19478
 Alpha virt. eigenvalues --    3.37986   3.75318   3.75318   3.75318   3.81676
 Alpha virt. eigenvalues --    3.81676   4.05142   4.05142   4.05142   5.18307
 Alpha virt. eigenvalues --    5.18307   5.30312   5.30312   5.30312   5.54657
 Alpha virt. eigenvalues --    5.59898   5.59898   5.59898   5.74609   5.77656
 Alpha virt. eigenvalues --    5.77656   5.77656   5.86775   5.86775   5.86775
 Alpha virt. eigenvalues --    5.99544   5.99544   5.99544   6.12630   6.23745
 Alpha virt. eigenvalues --    6.23745   6.23745   6.40627   6.44068   6.44068
 Alpha virt. eigenvalues --    6.44068   6.51762   6.51762   6.83060   7.06876
 Alpha virt. eigenvalues --    7.06876   7.06876   7.10775   7.10775   7.20449
 Alpha virt. eigenvalues --    7.20449   7.20449   7.39110   7.39110   7.39110
 Alpha virt. eigenvalues --    7.46300   7.46300   7.49576   7.49576   7.49576
 Alpha virt. eigenvalues --    7.61861   7.61861   7.61861   7.91997   7.98908
 Alpha virt. eigenvalues --    8.07990   8.07990   8.14417   8.14417   8.14417
 Alpha virt. eigenvalues --    8.15452   8.15452   8.15452   8.17241   8.17241
 Alpha virt. eigenvalues --    8.17241   8.56148   8.56148   8.56148   8.73681
 Alpha virt. eigenvalues --    8.73681   8.73681   9.17254   9.17254   9.43341
 Alpha virt. eigenvalues --    9.43341   9.43341   9.55853   9.55853   9.80034
 Alpha virt. eigenvalues --    9.80034   9.80034   9.88744  10.21383  10.21383
 Alpha virt. eigenvalues --   10.21383  11.33163  11.33163  11.33163  13.50159
 Alpha virt. eigenvalues --   29.12175 146.60345
          Condensed to atoms (all electrons):
               1          2          3          4          5
     1  C    5.342938   0.371517   0.371517   0.371517   0.371517
     2  H    0.371517   0.506682  -0.028483  -0.028483  -0.028483
     3  H    0.371517  -0.028483   0.506682  -0.028483  -0.028483
     4  H    0.371517  -0.028483  -0.028483   0.506682  -0.028483
     5  H    0.371517  -0.028483  -0.028483  -0.028483   0.506682
 Mulliken charges:
               1
     1  C   -0.829006
     2  H    0.207252
     3  H    0.207252
     4  H    0.207252
     5  H    0.207252
 Sum of Mulliken charges =   0.00000
 Mulliken charges with hydrogens summed into heavy atoms:
               1
     1  C    0.000000
 Electronic spatial extent (au):  <R**2>=             35.7095
 Charge=              0.0000 electrons
 Dipole moment (field-independent basis, Debye):
    X=              0.0000    Y=              0.0000    Z=              0.0000  Tot=              0.0000
 Quadrupole moment (field-independent basis, Debye-Ang):
   XX=             -8.4369   YY=             -8.4369   ZZ=             -8.4369
   XY=             -0.0000   XZ=              0.0000   YZ=              0.0000
 Traceless Quadrupole moment (field-independent basis, Debye-Ang):
   XX=              0.0000   YY=             -0.0000   ZZ=             -0.0000
   XY=             -0.0000   XZ=              0.0000   YZ=              0.0000
 Octapole moment (field-independent basis, Debye-Ang**2):
  XXX=             -0.0000  YYY=             -0.0000  ZZZ=             -0.0000  XYY=              0.0000
  XXY=             -0.0000  XXZ=              0.0000  XZZ=             -0.0000  YZZ=              0.0000
  YYZ=             -0.0000  XYZ=              0.7543
 Hexadecapole moment (field-independent basis, Debye-Ang**3):
 XXXX=            -17.0009 YYYY=            -17.0009 ZZZZ=            -17.0009 XXXY=              0.0000
 XXXZ=             -0.0000 YYYX=              0.0000 YYYZ=              0.0000 ZZZX=              0.0000
 ZZZY=              0.0000 XXYY=             -5.1207 XXZZ=             -5.1207 YYZZ=             -5.1207
 XXYZ=             -0.0000 YYXZ=             -0.0000 ZZXY=             -0.0000
 N-N= 1.346694788976D+01 E-N=-1.201734647440D+02  KE= 4.029334999480D+01
 PrsmSu:  requested number of processors reduced to:  21 ShMem   1 Linda.
 No NMR shielding tensors so no spin-rotation constants.
 Leave Link  601 at Fri Apr 16 23:08:34 2021, MaxMem=   104857600 cpu:             475.4 elap:              10.2
 (Enter /s/ls4/users/knvvv/bin/g16sse/l801.exe)
 DoSCS=F DFT=T ScalE2(SS,OS)=  1.000000  1.000000
 Range of M.O.s used for correlation:     1   177
 NBasis=   177 NAE=     5 NBE=     5 NFC=     0 NFV=     0
 NROrb=    177 NOA=     5 NOB=     5 NVA=   172 NVB=   172

 **** Warning!!: The largest alpha MO coefficient is  0.39772381D+02

 Leave Link  801 at Fri Apr 16 23:08:34 2021, MaxMem=   104857600 cpu:               4.4 elap:               0.1
 (Enter /s/ls4/users/knvvv/bin/g16sse/l914.exe)
 RHF ground state
 Doing stability rather than CIS.
 Two-electron integrals replicated using symmetry.
 MDV=   104857600 DFT=T DoStab=T Mixed=T DoRPA=F DoScal=F NonHer=F
 Making orbital integer symmetry assigments:
 Orbital symmetries:
       Occupied  (A1) (A1) (T2) (T2) (T2)
       Virtual   (A1) (T2) (T2) (T2) (T2) (T2) (T2) (T2) (T2) (T2)
                 (A1) (E) (E) (A1) (T2) (T2) (T2) (T1) (T1) (T1)
                 (T2) (T2) (T2) (T2) (T2) (T2) (A1) (T2) (T2) (T2)
                 (E) (E) (A1) (T2) (T2) (T2) (E) (E) (T1) (T1)
                 (T1) (T2) (T2) (T2) (A1) (T2) (T2) (T2) (T1) (T1)
                 (T1) (E) (E) (A1) (E) (E) (T2) (T2) (T2) (T2)
                 (T2) (T2) (T1) (T1) (T1) (A1) (T2) (T2) (T2) (T2)
                 (T2) (T2) (T1) (T1) (T1) (A1) (T2) (T2) (T2) (E)
                 (E) (T2) (T2) (T2) (E) (E) (T1) (T1) (T1) (A1)
                 (T2) (T2) (T2) (A2) (T2) (T2) (T2) (T1) (T1) (T1)
                 (T1) (T1) (T1) (A1) (T2) (T2) (T2) (A1) (T2) (T2)
                 (T2) (E) (E) (A1) (T1) (T1) (T1) (E) (E) (T2)
                 (T2) (T2) (T2) (T2) (T2) (E) (E) (T1) (T1) (T1)
                 (T2) (T2) (T2) (A1) (A1) (E) (E) (T1) (T1) (T1)
                 (T2) (T2) (T2) (T2) (T2) (T2) (T2) (T2) (T2) (T1)
                 (T1) (T1) (E) (E) (T2) (T2) (T2) (E) (E) (T2)
                 (T2) (T2) (A1) (T1) (T1) (T1) (T2) (T2) (T2) (A1)
                 (A1) (A1)
    24 initial guesses have been made.
 Convergence on wavefunction:    0.001000000000000
 Davidson Disk Diagonalization:  ConvIn= 1.00D-03 SkipCon=T Conv= 1.00D-03.
 Max sub-space:  2000 roots to seek:    24 dimension of matrix:         1720
 Iteration     1 Dimension    24 NMult     0 NNew     24
 Estimated number of processors is:   19
 CISAX will form     1 AO SS matrices at one time.
 NMat=     1 NSing=     1 JSym2X= 2.
 FoFJK:  IHMeth= 1 ICntrl=       0 DoSepK=F KAlg= 0 I1Cent=           0 FoldK=F
 IRaf= 990000000 NMat=       1 IRICut=       1 DoRegI=T DoRafI=F ISym2E= 2 IDoP0=0 IntGTp=1.
 FoFCou: FMM=F IPFlag=           0 FMFlag=      100000 FMFlg1=           0
         NFxFlg=           0 DoJE=F BraDBF=F KetDBF=F FulRan=T
         wScrn=  0.000000 ICntrl=         0 IOpCl=  0 I1Cent=           0 NGrid=           0
         NMat0=    1 NMatS0=      1 NMatT0=    0 NMatD0=    1 NMtDS0=    0 NMtDT0=    0
 Integrals replicated using symmetry in FoFCou.
 CoulSu:  requested number of processors reduced to:  18 ShMem   1 Linda.
 NMat=     1 NSing=     1 JSym2X= 2.
 CoulSu:  requested number of processors reduced to:  18 ShMem   1 Linda.
 NMat=     1 NSing=     1 JSym2X= 2.
 CoulSu:  requested number of processors reduced to:  18 ShMem   1 Linda.
 NMat=     1 NSing=     1 JSym2X= 2.
 CoulSu:  requested number of processors reduced to:  18 ShMem   1 Linda.
 NMat=     1 NSing=     1 JSym2X= 2.
 CoulSu:  requested number of processors reduced to:  18 ShMem   1 Linda.
 NMat=     1 NSing=     1 JSym2X= 2.
 CoulSu:  requested number of processors reduced to:  18 ShMem   1 Linda.
 NMat=     1 NSing=     1 JSym2X= 2.
 CoulSu:  requested number of processors reduced to:  18 ShMem   1 Linda.
 NMat=     1 NSing=     1 JSym2X= 2.
 CoulSu:  requested number of processors reduced to:  18 ShMem   1 Linda.
 NMat=     1 NSing=     1 JSym2X= 2.
 CoulSu:  requested number of processors reduced to:  18 ShMem   1 Linda.
 NMat=     1 NSing=     1 JSym2X= 2.
 CoulSu:  requested number of processors reduced to:  18 ShMem   1 Linda.
 NMat=     1 NSing=     1 JSym2X= 2.
 CoulSu:  requested number of processors reduced to:  18 ShMem   1 Linda.
 NMat=     1 NSing=     1 JSym2X= 2.
 CoulSu:  requested number of processors reduced to:  18 ShMem   1 Linda.
 NMat=     1 NSing=     0 JSym2X= 2.
 CoulSu:  requested number of processors reduced to:  18 ShMem   1 Linda.
 NMat=     1 NSing=     0 JSym2X= 2.
 CoulSu:  requested number of processors reduced to:  18 ShMem   1 Linda.
 NMat=     1 NSing=     0 JSym2X= 2.
 CoulSu:  requested number of processors reduced to:  18 ShMem   1 Linda.
 NMat=     1 NSing=     0 JSym2X= 2.
 CoulSu:  requested number of processors reduced to:  18 ShMem   1 Linda.
 NMat=     1 NSing=     0 JSym2X= 2.
 CoulSu:  requested number of processors reduced to:  18 ShMem   1 Linda.
 NMat=     1 NSing=     0 JSym2X= 2.
 CoulSu:  requested number of processors reduced to:  18 ShMem   1 Linda.
 NMat=     1 NSing=     0 JSym2X= 2.
 CoulSu:  requested number of processors reduced to:  18 ShMem   1 Linda.
 NMat=     1 NSing=     0 JSym2X= 2.
 CoulSu:  requested number of processors reduced to:  18 ShMem   1 Linda.
 NMat=     1 NSing=     0 JSym2X= 2.
 CoulSu:  requested number of processors reduced to:  18 ShMem   1 Linda.
 NMat=     1 NSing=     0 JSym2X= 2.
 CoulSu:  requested number of processors reduced to:  18 ShMem   1 Linda.
 NMat=     1 NSing=     0 JSym2X= 2.
 CoulSu:  requested number of processors reduced to:  18 ShMem   1 Linda.
 NMat=     1 NSing=     0 JSym2X= 2.
 CoulSu:  requested number of processors reduced to:  18 ShMem   1 Linda.
 New state      1 was old state      4
 Excitation Energies [eV] at current iteration:
 Root      1 :    10.903485262310960
 Root      2 :    10.903485262313370
 Root      3 :    10.903485262315280
 Root      4 :    11.090291693438110
 Root      5 :    11.090291693439470
 Root      6 :    11.090291693439860
 Root      7 :    12.550353097881890
 Root      8 :    12.720819939580500
 Root      9 :    12.720819939584410
 Root     10 :    12.720819939603980
 Root     11 :    12.797366352626670
 Root     12 :    12.797366352627450
 Root     13 :    12.871820493403160
 Root     14 :    12.871820493403590
 Root     15 :    12.871820493404140
 Root     16 :    12.887121819953680
 Root     17 :    12.887121819954560
 Root     18 :    12.887121819955160
 Root     19 :    12.900733730420760
 Root     20 :    12.900733730421160
 Root     21 :    13.108544527314960
 Root     22 :    13.108544527316520
 Root     23 :    13.108544527322790
 Root     24 :    16.879790158055520
 Iteration     2 Dimension    48 NMult    24 NNew     24
 Estimated number of processors is:   19
 CISAX will form     1 AO SS matrices at one time.
 NMat=     1 NSing=     1 JSym2X= 2.
 CoulSu:  requested number of processors reduced to:  18 ShMem   1 Linda.
 NMat=     1 NSing=     1 JSym2X= 2.
 CoulSu:  requested number of processors reduced to:  18 ShMem   1 Linda.
 NMat=     1 NSing=     1 JSym2X= 2.
 CoulSu:  requested number of processors reduced to:  18 ShMem   1 Linda.
 NMat=     1 NSing=     1 JSym2X= 2.
 CoulSu:  requested number of processors reduced to:  18 ShMem   1 Linda.
 NMat=     1 NSing=     1 JSym2X= 2.
 CoulSu:  requested number of processors reduced to:  18 ShMem   1 Linda.
 NMat=     1 NSing=     1 JSym2X= 2.
 CoulSu:  requested number of processors reduced to:  18 ShMem   1 Linda.
 NMat=     1 NSing=     1 JSym2X= 2.
 CoulSu:  requested number of processors reduced to:  18 ShMem   1 Linda.
 NMat=     1 NSing=     1 JSym2X= 2.
 CoulSu:  requested number of processors reduced to:  18 ShMem   1 Linda.
 NMat=     1 NSing=     1 JSym2X= 2.
 CoulSu:  requested number of processors reduced to:  18 ShMem   1 Linda.
 NMat=     1 NSing=     1 JSym2X= 2.
 CoulSu:  requested number of processors reduced to:  18 ShMem   1 Linda.
 NMat=     1 NSing=     1 JSym2X= 2.
 CoulSu:  requested number of processors reduced to:  18 ShMem   1 Linda.
 NMat=     1 NSing=     1 JSym2X= 2.
 CoulSu:  requested number of processors reduced to:  18 ShMem   1 Linda.
 NMat=     1 NSing=     0 JSym2X= 2.
 CoulSu:  requested number of processors reduced to:  18 ShMem   1 Linda.
 NMat=     1 NSing=     0 JSym2X= 2.
 CoulSu:  requested number of processors reduced to:  18 ShMem   1 Linda.
 NMat=     1 NSing=     0 JSym2X= 2.
 CoulSu:  requested number of processors reduced to:  18 ShMem   1 Linda.
 NMat=     1 NSing=     0 JSym2X= 2.
 CoulSu:  requested number of processors reduced to:  18 ShMem   1 Linda.
 NMat=     1 NSing=     0 JSym2X= 2.
 CoulSu:  requested number of processors reduced to:  18 ShMem   1 Linda.
 NMat=     1 NSing=     0 JSym2X= 2.
 CoulSu:  requested number of processors reduced to:  18 ShMem   1 Linda.
 NMat=     1 NSing=     0 JSym2X= 2.
 CoulSu:  requested number of processors reduced to:  18 ShMem   1 Linda.
 NMat=     1 NSing=     0 JSym2X= 2.
 CoulSu:  requested number of processors reduced to:  18 ShMem   1 Linda.
 NMat=     1 NSing=     0 JSym2X= 2.
 CoulSu:  requested number of processors reduced to:  18 ShMem   1 Linda.
 NMat=     1 NSing=     0 JSym2X= 2.
 CoulSu:  requested number of processors reduced to:  18 ShMem   1 Linda.
 NMat=     1 NSing=     0 JSym2X= 2.
 CoulSu:  requested number of processors reduced to:  18 ShMem   1 Linda.
 NMat=     1 NSing=     0 JSym2X= 2.
 CoulSu:  requested number of processors reduced to:  18 ShMem   1 Linda.
 New state      1 was old state      2
 Root      1 not converged, maximum delta is    0.435708908123251
 Excitation Energies [eV] at current iteration:
 Root      1 :    10.412736139652700   Change is   -0.490749122660671
 Root      2 :    10.412736299717560   Change is   -0.490748962593398
 Root      3 :    10.412736362910290   Change is   -0.490748899404992
 Root      4 :    10.920700870649990   Change is   -1.629652227231899
 Root      5 :    10.978016948278520   Change is   -0.112274745159589
 Root      6 :    10.978016962109220   Change is   -0.112274731330645
 Root      7 :    10.978017002959160   Change is   -0.112274690480306
 Root      8 :    12.116361914659680   Change is   -0.604458024924730
 Root      9 :    12.116362036195190   Change is   -0.604457903385309
 Root     10 :    12.116362218488150   Change is   -0.604457721115828
 Root     11 :    12.505275031044960   Change is   -0.292091321581705
 Root     12 :    12.505275168042180   Change is   -0.292091184585268
 Root     13 :    12.618948978218430   Change is   -0.268172841736726
 Root     14 :    12.618949010600200   Change is   -0.268172809354367
 Root     15 :    12.618949051178600   Change is   -0.268172768775078
 Root     16 :    12.704759715882290   Change is   -0.167060777520871
 Root     17 :    12.704759781954430   Change is   -0.167060711449150
 Root     18 :    12.704759853722430   Change is   -0.167060639681713
 Root     19 :    12.768152135431120   Change is   -0.132581594989636
 Root     20 :    12.768152164880450   Change is   -0.132581565540708
 Root     21 :    12.787336883874930   Change is   -0.321207643440024
 Root     22 :    12.787337022780020   Change is   -0.321207504542778
 Root     23 :    12.787337127400300   Change is   -0.321207399916219
 Root     24 :    13.950788414893170   Change is   -2.929001743162354
 Iteration     3 Dimension    54 NMult    48 NNew      6
 Estimated number of processors is:   19
 CISAX will form     1 AO SS matrices at one time.
 NMat=     1 NSing=     1 JSym2X= 2.
 CoulSu:  requested number of processors reduced to:  18 ShMem   1 Linda.
 NMat=     1 NSing=     1 JSym2X= 2.
 CoulSu:  requested number of processors reduced to:  18 ShMem   1 Linda.
 NMat=     1 NSing=     1 JSym2X= 2.
 CoulSu:  requested number of processors reduced to:  18 ShMem   1 Linda.
 NMat=     1 NSing=     0 JSym2X= 2.
 CoulSu:  requested number of processors reduced to:  18 ShMem   1 Linda.
 NMat=     1 NSing=     0 JSym2X= 2.
 CoulSu:  requested number of processors reduced to:  18 ShMem   1 Linda.
 NMat=     1 NSing=     0 JSym2X= 2.
 CoulSu:  requested number of processors reduced to:  18 ShMem   1 Linda.
 Root      1 not converged, maximum delta is    0.213273442959769
 Excitation Energies [eV] at current iteration:
 Root      1 :    10.384821359155880   Change is   -0.027914780496824
 Root      2 :    10.384821379152220   Change is   -0.027914983758069
 Root      3 :    10.384821444603770   Change is   -0.027914855113785
 Root      4 :    10.970370410209510   Change is   -0.007646551899706
 Root      5 :    10.970370450105600   Change is   -0.007646552853563
 Root      6 :    10.970388706044160   Change is   -0.007628242234358
 Iteration     4 Dimension    60 NMult    54 NNew      6
 Estimated number of processors is:   19
 CISAX will form     1 AO SS matrices at one time.
 NMat=     1 NSing=     1 JSym2X= 2.
 CoulSu:  requested number of processors reduced to:  18 ShMem   1 Linda.
 NMat=     1 NSing=     1 JSym2X= 2.
 CoulSu:  requested number of processors reduced to:  18 ShMem   1 Linda.
 NMat=     1 NSing=     1 JSym2X= 2.
 CoulSu:  requested number of processors reduced to:  18 ShMem   1 Linda.
 NMat=     1 NSing=     0 JSym2X= 2.
 CoulSu:  requested number of processors reduced to:  18 ShMem   1 Linda.
 NMat=     1 NSing=     0 JSym2X= 2.
 CoulSu:  requested number of processors reduced to:  18 ShMem   1 Linda.
 NMat=     1 NSing=     0 JSym2X= 2.
 CoulSu:  requested number of processors reduced to:  18 ShMem   1 Linda.
 New state      1 was old state      2
 Root      1 not converged, maximum delta is    0.282366945091595
 Excitation Energies [eV] at current iteration:
 Root      1 :    10.382747393588470   Change is   -0.002073985563751
 Root      2 :    10.382747411381830   Change is   -0.002073947774047
 Root      3 :    10.382747480738890   Change is   -0.002073963864883
 Root      4 :    10.969994851159930   Change is   -0.000375559049585
 Root      5 :    10.969994865467970   Change is   -0.000375584637625
 Root      6 :    10.969995981494160   Change is   -0.000392724550003
 Iteration     5 Dimension    66 NMult    60 NNew      6
 Estimated number of processors is:   19
 CISAX will form     1 AO SS matrices at one time.
 NMat=     1 NSing=     1 JSym2X= 2.
 CoulSu:  requested number of processors reduced to:  18 ShMem   1 Linda.
 NMat=     1 NSing=     1 JSym2X= 2.
 CoulSu:  requested number of processors reduced to:  18 ShMem   1 Linda.
 NMat=     1 NSing=     1 JSym2X= 2.
 CoulSu:  requested number of processors reduced to:  18 ShMem   1 Linda.
 NMat=     1 NSing=     0 JSym2X= 2.
 CoulSu:  requested number of processors reduced to:  18 ShMem   1 Linda.
 NMat=     1 NSing=     0 JSym2X= 2.
 CoulSu:  requested number of processors reduced to:  18 ShMem   1 Linda.
 NMat=     1 NSing=     0 JSym2X= 2.
 CoulSu:  requested number of processors reduced to:  18 ShMem   1 Linda.
 Root      1 not converged, maximum delta is    0.247347728341093
 Excitation Energies [eV] at current iteration:
 Root      1 :    10.382446316690090   Change is   -0.000301076898385
 Root      2 :    10.382446338997680   Change is   -0.000301141741216
 Root      3 :    10.382446356182140   Change is   -0.000301055199684
 Root      4 :    10.969982611401980   Change is   -0.000012254065991
 Root      5 :    10.969982622534850   Change is   -0.000012228625078
 Root      6 :    10.969982658198000   Change is   -0.000013323296155
 Iteration     6 Dimension    72 NMult    66 NNew      6
 Estimated number of processors is:   19
 CISAX will form     1 AO SS matrices at one time.
 NMat=     1 NSing=     1 JSym2X= 2.
 CoulSu:  requested number of processors reduced to:  18 ShMem   1 Linda.
 NMat=     1 NSing=     1 JSym2X= 2.
 CoulSu:  requested number of processors reduced to:  18 ShMem   1 Linda.
 NMat=     1 NSing=     1 JSym2X= 2.
 CoulSu:  requested number of processors reduced to:  18 ShMem   1 Linda.
 NMat=     1 NSing=     0 JSym2X= 2.
 CoulSu:  requested number of processors reduced to:  18 ShMem   1 Linda.
 NMat=     1 NSing=     0 JSym2X= 2.
 CoulSu:  requested number of processors reduced to:  18 ShMem   1 Linda.
 NMat=     1 NSing=     0 JSym2X= 2.
 CoulSu:  requested number of processors reduced to:  18 ShMem   1 Linda.
 Root      1 not converged, maximum delta is    0.414862859625896
 Excitation Energies [eV] at current iteration:
 Root      1 :    10.382421824423220   Change is   -0.000024492266869
 Root      2 :    10.382421832505970   Change is   -0.000024506491701
 Root      3 :    10.382421852172440   Change is   -0.000024504009706
 Root      4 :    10.969982382138440   Change is   -0.000000240396414
 Root      5 :    10.969982384824170   Change is   -0.000000226577810
 Root      6 :    10.969982398819920   Change is   -0.000000259378086
 Iteration     7 Dimension    78 NMult    72 NNew      6
 Estimated number of processors is:   19
 CISAX will form     1 AO SS matrices at one time.
 NMat=     1 NSing=     1 JSym2X= 2.
 CoulSu:  requested number of processors reduced to:  18 ShMem   1 Linda.
 NMat=     1 NSing=     1 JSym2X= 2.
 CoulSu:  requested number of processors reduced to:  18 ShMem   1 Linda.
 NMat=     1 NSing=     1 JSym2X= 2.
 CoulSu:  requested number of processors reduced to:  18 ShMem   1 Linda.
 NMat=     1 NSing=     0 JSym2X= 2.
 CoulSu:  requested number of processors reduced to:  18 ShMem   1 Linda.
 NMat=     1 NSing=     0 JSym2X= 2.
 CoulSu:  requested number of processors reduced to:  18 ShMem   1 Linda.
 NMat=     1 NSing=     0 JSym2X= 2.
 CoulSu:  requested number of processors reduced to:  18 ShMem   1 Linda.
 New state      1 was old state      2
 Root      1 not converged, maximum delta is    0.310677019754410
 Excitation Energies [eV] at current iteration:
 Root      1 :    10.382421053555970   Change is   -0.000000778950001
 Root      2 :    10.382421062239960   Change is   -0.000000762183260
 Root      3 :    10.382421069819110   Change is   -0.000000782353325
 Root      4 :    10.969982369994760   Change is   -0.000000012143680
 Root      5 :    10.969982376785580   Change is   -0.000000008038587
 Root      6 :    10.969982384073550   Change is   -0.000000014746362
 Iteration     8 Dimension    84 NMult    78 NNew      6
 Estimated number of processors is:   19
 CISAX will form     1 AO SS matrices at one time.
 NMat=     1 NSing=     1 JSym2X= 2.
 CoulSu:  requested number of processors reduced to:  18 ShMem   1 Linda.
 NMat=     1 NSing=     1 JSym2X= 2.
 CoulSu:  requested number of processors reduced to:  18 ShMem   1 Linda.
 NMat=     1 NSing=     1 JSym2X= 2.
 CoulSu:  requested number of processors reduced to:  18 ShMem   1 Linda.
 NMat=     1 NSing=     0 JSym2X= 2.
 CoulSu:  requested number of processors reduced to:  18 ShMem   1 Linda.
 NMat=     1 NSing=     0 JSym2X= 2.
 CoulSu:  requested number of processors reduced to:  18 ShMem   1 Linda.
 NMat=     1 NSing=     0 JSym2X= 2.
 CoulSu:  requested number of processors reduced to:  18 ShMem   1 Linda.
 Root      1 not converged, maximum delta is    0.095596263584157
 Excitation Energies [eV] at current iteration:
 Root      1 :    10.382421036138180   Change is   -0.000000017417789
 Root      2 :    10.382421038687470   Change is   -0.000000023552486
 Root      3 :    10.382421049136600   Change is   -0.000000020682514
 Root      4 :    10.969982369073100   Change is   -0.000000000921656
 Root      5 :    10.969982372900370   Change is   -0.000000003885210
 Root      6 :    10.969982381723970   Change is   -0.000000002349580
 Iteration     9 Dimension    87 NMult    84 NNew      3
 Estimated number of processors is:   19
 CISAX will form     1 AO SS matrices at one time.
 NMat=     1 NSing=     0 JSym2X= 2.
 CoulSu:  requested number of processors reduced to:  18 ShMem   1 Linda.
 NMat=     1 NSing=     0 JSym2X= 2.
 CoulSu:  requested number of processors reduced to:  18 ShMem   1 Linda.
 NMat=     1 NSing=     0 JSym2X= 2.
 CoulSu:  requested number of processors reduced to:  18 ShMem   1 Linda.
 Root      1 not converged, maximum delta is    0.121085984971858
 Excitation Energies [eV] at current iteration:
 Root      1 :    10.382421033723430   Change is   -0.000000002414751
 Root      2 :    10.382421036997420   Change is   -0.000000001690056
 Root      3 :    10.382421046743910   Change is   -0.000000002392691
 Root      4 :    10.969982369073100   Change is   -0.000000000000005
 Root      5 :    10.969982372900360   Change is   -0.000000000000015
 Root      6 :    10.969982381723970   Change is   -0.000000000000006
 Iteration    10 Dimension    89 NMult    87 NNew      2
 Estimated number of processors is:   19
 CISAX will form     1 AO SS matrices at one time.
 NMat=     1 NSing=     0 JSym2X= 2.
 CoulSu:  requested number of processors reduced to:  18 ShMem   1 Linda.
 NMat=     1 NSing=     0 JSym2X= 2.
 CoulSu:  requested number of processors reduced to:  18 ShMem   1 Linda.
 Root      1 not converged, maximum delta is    0.040605887310198
 Excitation Energies [eV] at current iteration:
 Root      1 :    10.382421032760870   Change is   -0.000000000962567
 Root      2 :    10.382421036794120   Change is   -0.000000000203298
 Root      3 :    10.382421045834520   Change is   -0.000000000909391
 Root      4 :    10.969982369073100   Change is    0.000000000000000
 Root      5 :    10.969982372900370   Change is    0.000000000000009
 Root      6 :    10.969982381723960   Change is   -0.000000000000003
 Iteration    11 Dimension    91 NMult    89 NNew      2
 Estimated number of processors is:   19
 CISAX will form     1 AO SS matrices at one time.
 NMat=     1 NSing=     0 JSym2X= 2.
 CoulSu:  requested number of processors reduced to:  18 ShMem   1 Linda.
 NMat=     1 NSing=     0 JSym2X= 2.
 CoulSu:  requested number of processors reduced to:  18 ShMem   1 Linda.
 Root      1 not converged, maximum delta is    0.058585339215351
 Excitation Energies [eV] at current iteration:
 Root      1 :    10.382421031702600   Change is   -0.000000001058266
 Root      2 :    10.382421035826120   Change is   -0.000000000967995
 Root      3 :    10.382421045628330   Change is   -0.000000000206187
 Root      4 :    10.969982369073090   Change is   -0.000000000000006
 Root      5 :    10.969982372900360   Change is   -0.000000000000006
 Root      6 :    10.969982381723960   Change is   -0.000000000000003
 Iteration    12 Dimension    94 NMult    91 NNew      3
 Estimated number of processors is:   19
 CISAX will form     1 AO SS matrices at one time.
 NMat=     1 NSing=     0 JSym2X= 2.
 CoulSu:  requested number of processors reduced to:  18 ShMem   1 Linda.
 NMat=     1 NSing=     0 JSym2X= 2.
 CoulSu:  requested number of processors reduced to:  18 ShMem   1 Linda.
 NMat=     1 NSing=     0 JSym2X= 2.
 CoulSu:  requested number of processors reduced to:  18 ShMem   1 Linda.
 Root      1 not converged, maximum delta is    0.020870302232990
 Excitation Energies [eV] at current iteration:
 Root      1 :    10.382421030962890   Change is   -0.000000000739712
 Root      2 :    10.382421034395510   Change is   -0.000000001430614
 Root      3 :    10.382421045057900   Change is   -0.000000000570436
 Root      4 :    10.969982369073100   Change is    0.000000000000006
 Root      5 :    10.969982372900370   Change is    0.000000000000005
 Root      6 :    10.969982381723970   Change is    0.000000000000009
 Iteration    13 Dimension    95 NMult    94 NNew      1
 Estimated number of processors is:   19
 CISAX will form     1 AO SS matrices at one time.
 NMat=     1 NSing=     0 JSym2X= 2.
 CoulSu:  requested number of processors reduced to:  18 ShMem   1 Linda.
 Root      1 not converged, maximum delta is    0.014943823048697
 Excitation Energies [eV] at current iteration:
 Root      1 :    10.382421030720990   Change is   -0.000000000241894
 Root      2 :    10.382421034385330   Change is   -0.000000000010178
 Root      3 :    10.382421044592070   Change is   -0.000000000465831
 Root      4 :    10.969982369073090   Change is   -0.000000000000002
 Root      5 :    10.969982372900370   Change is    0.000000000000002
 Root      6 :    10.969982381723960   Change is   -0.000000000000008
 Convergence achieved on expansion vectors.
 ***********************************************************************
 Stability analysis using <AA,BB:AA,BB> singles matrix:
 ***********************************************************************
 1PDM for each excited state written to RWF  633
 Ground to excited state transition densities written to RWF  633

 Eigenvectors of the stability matrix:
 
 Eigenvector   1:      Triplet-T2   Eigenvalue= 0.3815470  <S**2>=2.000
       3 ->  6         0.20269
       4 ->  6         0.18412
       5 ->  6         0.61173
       5 -> 16        -0.12301
 
 Eigenvector   2:      Triplet-T2   Eigenvalue= 0.3815470  <S**2>=2.000
       3 ->  6         0.56729
       3 -> 16        -0.11408
       4 ->  6        -0.34698
 
 Eigenvector   3:      Triplet-T2   Eigenvalue= 0.3815470  <S**2>=2.000
       3 ->  6         0.29375
       4 ->  6         0.54305
       4 -> 16        -0.10920
       5 ->  6        -0.26078
 
 Eigenvector   4:      Singlet-T2   Eigenvalue= 0.4031394  <S**2>=0.000
       3 ->  6         0.32755
       4 ->  6        -0.17297
       5 ->  6         0.59619
 
 Eigenvector   5:      Singlet-T2   Eigenvalue= 0.4031394  <S**2>=0.000
       3 ->  6         0.61635
       4 ->  6         0.17096
       5 ->  6        -0.28903
 
 Eigenvector   6:      Singlet-T2   Eigenvalue= 0.4031394  <S**2>=0.000
       4 ->  6         0.65841
       5 ->  6         0.23167
 The wavefunction is stable under the perturbations considered.
 Leave Link  914 at Fri Apr 16 23:12:29 2021, MaxMem=   104857600 cpu:            9320.3 elap:             234.7
 (Enter /s/ls4/users/knvvv/bin/g16sse/l508.exe)
 The wavefunction is already stable.
 Leave Link  508 at Fri Apr 16 23:12:29 2021, MaxMem=   104857600 cpu:               2.2 elap:               0.1
 (Enter /s/ls4/users/knvvv/bin/g16sse/l601.exe)
 Copying SCF densities to generalized density rwf, IOpCl= 0 IROHF=0.

 **********************************************************************

            Population analysis using the SCF density.

 **********************************************************************

 Orbital symmetries:
       Occupied  (A1) (A1) (T2) (T2) (T2)
       Virtual   (A1) (T2) (T2) (T2) (T2) (T2) (T2) (T2) (T2) (T2)
                 (A1) (E) (E) (A1) (T2) (T2) (T2) (T1) (T1) (T1)
                 (T2) (T2) (T2) (T2) (T2) (T2) (A1) (T2) (T2) (T2)
                 (E) (E) (A1) (T2) (T2) (T2) (E) (E) (T1) (T1)
                 (T1) (T2) (T2) (T2) (A1) (T2) (T2) (T2) (T1) (T1)
                 (T1) (E) (E) (A1) (E) (E) (T2) (T2) (T2) (T2)
                 (T2) (T2) (T1) (T1) (T1) (A1) (T2) (T2) (T2) (T2)
                 (T2) (T2) (T1) (T1) (T1) (A1) (T2) (T2) (T2) (E)
                 (E) (T2) (T2) (T2) (E) (E) (T1) (T1) (T1) (A1)
                 (T2) (T2) (T2) (A2) (T2) (T2) (T2) (T1) (T1) (T1)
                 (T1) (T1) (T1) (A1) (T2) (T2) (T2) (A1) (T2) (T2)
                 (T2) (E) (E) (A1) (T1) (T1) (T1) (E) (E) (T2)
                 (T2) (T2) (T2) (T2) (T2) (E) (E) (T1) (T1) (T1)
                 (T2) (T2) (T2) (A1) (A1) (E) (E) (T1) (T1) (T1)
                 (T2) (T2) (T2) (T2) (T2) (T2) (T2) (T2) (T2) (T1)
                 (T1) (T1) (E) (E) (T2) (T2) (T2) (E) (E) (T2)
                 (T2) (T2) (A1) (T1) (T1) (T1) (T2) (T2) (T2) (A1)
                 (A1) (A1)
 The electronic state is 1-A1.
 Alpha  occ. eigenvalues --  -10.51792  -0.78685  -0.45688  -0.45688  -0.45688
 Alpha virt. eigenvalues --    0.05088   0.12221   0.12221   0.12221   0.15123
 Alpha virt. eigenvalues --    0.15123   0.15123   0.36451   0.36451   0.36451
 Alpha virt. eigenvalues --    0.37650   0.42581   0.42581   0.46270   0.66693
 Alpha virt. eigenvalues --    0.66693   0.66693   0.71354   0.71354   0.71354
 Alpha virt. eigenvalues --    0.76014   0.76014   0.76014   0.95875   0.95875
 Alpha virt. eigenvalues --    0.95875   1.01626   1.07577   1.07577   1.07577
 Alpha virt. eigenvalues --    1.09460   1.09460   1.17441   1.45341   1.45341
 Alpha virt. eigenvalues --    1.45341   1.71009   1.71009   1.84115   1.84115
 Alpha virt. eigenvalues --    1.84115   1.89010   1.89010   1.89010   2.01691
 Alpha virt. eigenvalues --    2.11748   2.11748   2.11748   2.13512   2.13512
 Alpha virt. eigenvalues --    2.13512   2.26543   2.26543   2.46192   2.52874
 Alpha virt. eigenvalues --    2.52874   2.54213   2.54213   2.54213   2.71671
 Alpha virt. eigenvalues --    2.71671   2.71671   2.88228   2.88228   2.88228
 Alpha virt. eigenvalues --    2.95689   2.98363   2.98363   2.98363   3.11395
 Alpha virt. eigenvalues --    3.11395   3.11395   3.19478   3.19478   3.19478
 Alpha virt. eigenvalues --    3.37986   3.75318   3.75318   3.75318   3.81676
 Alpha virt. eigenvalues --    3.81676   4.05142   4.05142   4.05142   5.18307
 Alpha virt. eigenvalues --    5.18307   5.30312   5.30312   5.30312   5.54657
 Alpha virt. eigenvalues --    5.59898   5.59898   5.59898   5.74609   5.77656
 Alpha virt. eigenvalues --    5.77656   5.77656   5.86775   5.86775   5.86775
 Alpha virt. eigenvalues --    5.99544   5.99544   5.99544   6.12630   6.23745
 Alpha virt. eigenvalues --    6.23745   6.23745   6.40627   6.44068   6.44068
 Alpha virt. eigenvalues --    6.44068   6.51762   6.51762   6.83060   7.06876
 Alpha virt. eigenvalues --    7.06876   7.06876   7.10775   7.10775   7.20449
 Alpha virt. eigenvalues --    7.20449   7.20449   7.39110   7.39110   7.39110
 Alpha virt. eigenvalues --    7.46300   7.46300   7.49576   7.49576   7.49576
 Alpha virt. eigenvalues --    7.61861   7.61861   7.61861   7.91997   7.98908
 Alpha virt. eigenvalues --    8.07990   8.07990   8.14417   8.14417   8.14417
 Alpha virt. eigenvalues --    8.15452   8.15452   8.15452   8.17241   8.17241
 Alpha virt. eigenvalues --    8.17241   8.56148   8.56148   8.56148   8.73681
 Alpha virt. eigenvalues --    8.73681   8.73681   9.17254   9.17254   9.43341
 Alpha virt. eigenvalues --    9.43341   9.43341   9.55853   9.55853   9.80034
 Alpha virt. eigenvalues --    9.80034   9.80034   9.88744  10.21383  10.21383
 Alpha virt. eigenvalues --   10.21383  11.33163  11.33163  11.33163  13.50159
 Alpha virt. eigenvalues --   29.12175 146.60345
          Condensed to atoms (all electrons):
               1          2          3          4          5
     1  C    5.342938   0.371517   0.371517   0.371517   0.371517
     2  H    0.371517   0.506682  -0.028483  -0.028483  -0.028483
     3  H    0.371517  -0.028483   0.506682  -0.028483  -0.028483
     4  H    0.371517  -0.028483  -0.028483   0.506682  -0.028483
     5  H    0.371517  -0.028483  -0.028483  -0.028483   0.506682
 Mulliken charges:
               1
     1  C   -0.829006
     2  H    0.207252
     3  H    0.207252
     4  H    0.207252
     5  H    0.207252
 Sum of Mulliken charges =   0.00000
 Mulliken charges with hydrogens summed into heavy atoms:
               1
     1  C    0.000000
 Electronic spatial extent (au):  <R**2>=             35.7095
 Charge=              0.0000 electrons
 Dipole moment (field-independent basis, Debye):
    X=              0.0000    Y=              0.0000    Z=              0.0000  Tot=              0.0000
 Quadrupole moment (field-independent basis, Debye-Ang):
   XX=             -8.4369   YY=             -8.4369   ZZ=             -8.4369
   XY=             -0.0000   XZ=              0.0000   YZ=              0.0000
 Traceless Quadrupole moment (field-independent basis, Debye-Ang):
   XX=              0.0000   YY=             -0.0000   ZZ=             -0.0000
   XY=             -0.0000   XZ=              0.0000   YZ=              0.0000
 Octapole moment (field-independent basis, Debye-Ang**2):
  XXX=             -0.0000  YYY=             -0.0000  ZZZ=             -0.0000  XYY=              0.0000
  XXY=             -0.0000  XXZ=              0.0000  XZZ=             -0.0000  YZZ=              0.0000
  YYZ=             -0.0000  XYZ=              0.7543
 Hexadecapole moment (field-independent basis, Debye-Ang**3):
 XXXX=            -17.0009 YYYY=            -17.0009 ZZZZ=            -17.0009 XXXY=              0.0000
 XXXZ=             -0.0000 YYYX=              0.0000 YYYZ=              0.0000 ZZZX=              0.0000
 ZZZY=              0.0000 XXYY=             -5.1207 XXZZ=             -5.1207 YYZZ=             -5.1207
 XXYZ=             -0.0000 YYXZ=             -0.0000 ZZXY=             -0.0000
 N-N= 1.346694788976D+01 E-N=-1.201734647440D+02  KE= 4.029334999480D+01
 PrsmSu:  requested number of processors reduced to:  21 ShMem   1 Linda.
 No NMR shielding tensors so no spin-rotation constants.
 Leave Link  601 at Fri Apr 16 23:12:41 2021, MaxMem=   104857600 cpu:             545.0 elap:              11.7
 (Enter /s/ls4/users/knvvv/bin/g16sse/l9999.exe)

 Test job not archived.
 1\1\GINC-N151\Stability\RM062X\def2QZVP\C1H4\KNVVV\16-Apr-2021\0\\#P M
 062X/Def2QZVP Integral=UltraFineGrid SCF=NoSymm Stable=(RExt, Opt) IOp
 (1/33=1)\\Database calculations.\\0,1\C,0,0.,0.,0.\H,0,0.6278370553,0.
 6278370553,0.6278370553\H,0,-0.6278370553,-0.6278370553,0.6278370553\H
 ,0,0.6278370553,-0.6278370553,-0.6278370553\H,0,-0.6278370553,0.627837
 0553,-0.6278370553\\Version=ES64L-G16RevA.03\State=1-A1\HF=-40.506385\
 RMSD=3.245e-09\Dipole=0.,0.,0.\Quadrupole=0.,0.,0.,0.,0.,0.\PG=TD [O(C
 1),4C3(H1)]\\@


 WE MIGHT AS WELL ATTEMPT TO INTRODUCE A NEW PLANET 
 INTO THE SOLAR SYSTEM, OR TO ANNIHILATE ONE ALREADYIN EXISTENCE, 
 AS TO CREATE OR DESTROY A PARTICLE OF HYDROGEN.
 ALL THE CHANGES WE CAN PRODUCE CONSIST IN SEPARATING PARTICLES
 THAT ARE IN A STATE OF ... COMBINATION, AND JOINING 
 THOSE THAT WERE PREVIOUSLY AT A DISTANCE.

                                    -- JOHN DALTON, 1810
 Job cpu time:       0 days  9 hours 10 minutes  3.3 seconds.
 Elapsed time:       0 days  0 hours 12 minutes 21.8 seconds.
 File lengths (MBytes):  RWF=     74 Int=      0 D2E=      0 Chk=      7 Scr=      1
 Normal termination of Gaussian 16 at Fri Apr 16 23:12:41 2021.
