 Entering Gaussian System, Link 0=/s/ls4/users/knvvv/bin/g16sse/g16
 Input=data/database/M062X--def2-QZVPPD--20_isomer10_mon1_H2O20Bind10.gjf
 Output=data/database/M062X--def2-QZVPPD--20_isomer10_mon1_H2O20Bind10.log
 Initial command:
 /s/ls4/users/knvvv/bin/g16sse/l1.exe "/s/ls4/users/knvvv/bin/scratch/Gau-18184.inp" -scrdir="/s/ls4/users/knvvv/bin/scratch/"
 Entering Link 1 = /s/ls4/users/knvvv/bin/g16sse/l1.exe PID=     18185.
  
 Copyright (c) 1988,1990,1992,1993,1995,1998,2003,2009,2016,
            Gaussian, Inc.  All Rights Reserved.
  
 This is part of the Gaussian(R) 16 program.  It is based on
 the Gaussian(R) 09 system (copyright 2009, Gaussian, Inc.),
 the Gaussian(R) 03 system (copyright 2003, Gaussian, Inc.),
 the Gaussian(R) 98 system (copyright 1998, Gaussian, Inc.),
 the Gaussian(R) 94 system (copyright 1995, Gaussian, Inc.),
 the Gaussian 92(TM) system (copyright 1992, Gaussian, Inc.),
 the Gaussian 90(TM) system (copyright 1990, Gaussian, Inc.),
 the Gaussian 88(TM) system (copyright 1988, Gaussian, Inc.),
 the Gaussian 86(TM) system (copyright 1986, Carnegie Mellon
 University), and the Gaussian 82(TM) system (copyright 1983,
 Carnegie Mellon University). Gaussian is a federally registered
 trademark of Gaussian, Inc.
  
 This software contains proprietary and confidential information,
 including trade secrets, belonging to Gaussian, Inc.
  
 This software is provided under written license and may be
 used, copied, transmitted, or stored only in accord with that
 written license.
  
 The following legend is applicable only to US Government
 contracts under FAR:
  
                    RESTRICTED RIGHTS LEGEND
  
 Use, reproduction and disclosure by the US Government is
 subject to restrictions as set forth in subparagraphs (a)
 and (c) of the Commercial Computer Software - Restricted
 Rights clause in FAR 52.227-19.
  
 Gaussian, Inc.
 340 Quinnipiac St., Bldg. 40, Wallingford CT 06492
  
  
 ---------------------------------------------------------------
 Warning -- This program may not be used in any manner that
 competes with the business of Gaussian, Inc. or will provide
 assistance to any competitor of Gaussian, Inc.  The licensee
 of this program is prohibited from giving any competitor of
 Gaussian, Inc. access to this program.  By using this program,
 the user acknowledges that Gaussian, Inc. is engaged in the
 business of creating and licensing software in the field of
 computational chemistry and represents and warrants to the
 licensee that it is not a competitor of Gaussian, Inc. and that
 it will not use this program in any manner prohibited above.
 ---------------------------------------------------------------
  

 Cite this work as:
 Gaussian 16, Revision A.03,
 M. J. Frisch, G. W. Trucks, H. B. Schlegel, G. E. Scuseria, 
 M. A. Robb, J. R. Cheeseman, G. Scalmani, V. Barone, 
 G. A. Petersson, H. Nakatsuji, X. Li, M. Caricato, A. V. Marenich, 
 J. Bloino, B. G. Janesko, R. Gomperts, B. Mennucci, H. P. Hratchian, 
 J. V. Ortiz, A. F. Izmaylov, J. L. Sonnenberg, D. Williams-Young, 
 F. Ding, F. Lipparini, F. Egidi, J. Goings, B. Peng, A. Petrone, 
 T. Henderson, D. Ranasinghe, V. G. Zakrzewski, J. Gao, N. Rega, 
 G. Zheng, W. Liang, M. Hada, M. Ehara, K. Toyota, R. Fukuda, 
 J. Hasegawa, M. Ishida, T. Nakajima, Y. Honda, O. Kitao, H. Nakai, 
 T. Vreven, K. Throssell, J. A. Montgomery, Jr., J. E. Peralta, 
 F. Ogliaro, M. J. Bearpark, J. J. Heyd, E. N. Brothers, K. N. Kudin, 
 V. N. Staroverov, T. A. Keith, R. Kobayashi, J. Normand, 
 K. Raghavachari, A. P. Rendell, J. C. Burant, S. S. Iyengar, 
 J. Tomasi, M. Cossi, J. M. Millam, M. Klene, C. Adamo, R. Cammi, 
 J. W. Ochterski, R. L. Martin, K. Morokuma, O. Farkas, 
 J. B. Foresman, and D. J. Fox, Gaussian, Inc., Wallingford CT, 2016.
 
 ******************************************
 Gaussian 16:  ES64L-G16RevA.03 25-Dec-2016
                17-Apr-2021 
 ******************************************
 %RWF=temp5_61298,70GB
 %nprocshared=48
 Will use up to   48 processors via shared memory.
 Default route: MaxDisk=80GB
 ----------------------------------------------------------------------
 #P M062X/GEN Integral=UltraFineGrid SCF=NoSymm Stable=(RExt, Opt) IOp(
 1/33=1)
 ----------------------------------------------------------------------
 1/33=1,38=1,172=1/1;
 2/12=2,17=6,18=5,40=1/2;
 3/5=7,11=2,25=1,30=1,74=-55,75=-5/1,2,3;
 4/9=2/1;
 5/5=2,38=5/2;
 6/7=2,8=2,9=2,10=2,28=1/1;
 8/6=1,10=90,11=11/1;
 9/8=-3,42=1,46=1/14;
 5/5=2,8=3,17=40,38=5/8(-2);
 6/7=2,8=2,9=2,10=2,28=1/1;
 99/5=1,9=1/99;
 Leave Link    1 at Sat Apr 17 20:09:54 2021, MaxMem=           0 cpu:              11.6 elap:               0.3
 (Enter /s/ls4/users/knvvv/bin/g16sse/l101.exe)
 ONIOM data not found on unit 2.
 ----------------------
 Database calculations.
 ----------------------
 TstMul:  ICh=     0
 TstMul:  Mul=     1
 TstMul:  ICh=     0
 TstMul:  Mul=     1
 Symbolic Z-matrix:
 Charge =  0 Multiplicity = 1
 O                    -8.08974   1.07424   2.6046 
 H                    -7.89759   1.10545   1.6674 
 H                    -9.00889   0.81138   2.6525 
 
 RdStrC is calling ZToCFu for IStruc=1 NZ=     3.
 PrtBox:  NBox=     1 Levels=  1 BoxLen=    8.00 SMaxX=        2.10
          Shift=           17.024340           -1.533284           -3.150931
 Box      1 Number                   0 centers from      1 to      3:
 After GenITR:
 ITRead=  0  0  0
 MicOpt= -1 -1 -1
 ITRead=  0  0  0
 MicOpt= -1 -1 -1
 NAtoms=      3 NQM=        3 NQMF=       0 NMMI=      0 NMMIF=      0
                NMic=       0 NMicF=      0.
                    Isotopes and Nuclear Properties:
 (Nuclear quadrupole moments (NQMom) in fm**2, nuclear magnetic moments (NMagM)
  in nuclear magnetons)

  Atom         1           2           3
 IAtWgt=          16           1           1
 AtmWgt=  15.9949146   1.0078250   1.0078250
 NucSpn=           0           1           1
 AtZEff=  -0.0000000  -0.0000000  -0.0000000
 NQMom=    0.0000000   0.0000000   0.0000000
 NMagM=    0.0000000   2.7928460   2.7928460
 AtZNuc=   8.0000000   1.0000000   1.0000000
 No MM parameters found.
 Leave Link  101 at Sat Apr 17 20:09:54 2021, MaxMem=   104857600 cpu:               8.8 elap:               0.2
 (Enter /s/ls4/users/knvvv/bin/g16sse/l202.exe)
                          Input orientation:                          
 ---------------------------------------------------------------------
 Center     Atomic      Atomic             Coordinates (Angstroms)
 Number     Number       Type             X           Y           Z
 ---------------------------------------------------------------------
      1          8           0       -8.089741    1.074241    2.604597
      2          1           0       -7.897586    1.105451    1.667401
      3          1           0       -9.008893    0.811379    2.652497
 ---------------------------------------------------------------------
                    Distance matrix (angstroms):
                    1          2          3
     1  O    0.000000
     2  H    0.957201   0.000000
     3  H    0.957200   1.513901   0.000000
 Stoichiometry    H2O
 Framework group  CS[SG(H2O)]
 Deg. of freedom     3
 Full point group                 CS      NOp   2
 Largest Abelian subgroup         CS      NOp   2
 Largest concise Abelian subgroup C1      NOp   1
                         Standard orientation:                         
 ---------------------------------------------------------------------
 Center     Atomic      Atomic             Coordinates (Angstroms)
 Number     Number       Type             X           Y           Z
 ---------------------------------------------------------------------
      1          8           0        0.000000    0.117177    0.000000
      2          1           0        0.756950   -0.468707   -0.000000
      3          1           0       -0.756950   -0.468705   -0.000000
 ---------------------------------------------------------------------
 Rotational constants (GHZ):         822.4811518         437.5898086         285.6262712
 Leave Link  202 at Sat Apr 17 20:09:54 2021, MaxMem=   104857600 cpu:               8.3 elap:               0.2
 (Enter /s/ls4/users/knvvv/bin/g16sse/l301.exe)
 General basis read from cards:  (5D, 7F)
 Centers:       2      3
 S 4 1.00
     Exponent=  1.9069169000D+02 Coefficients=  7.0815167000D-04
     Exponent=  2.8605532000D+01 Coefficients=  5.4678827000D-03
     Exponent=  6.5095943000D+00 Coefficients=  2.7966605000D-02
     Exponent=  1.8412455000D+00 Coefficients=  1.0764538000D-01
 S 1 1.00
     Exponent=  5.9853725000D-01 Coefficients=  1.0000000000D+00
 S 1 1.00
     Exponent=  2.1397624000D-01 Coefficients=  1.0000000000D+00
 S 1 1.00
     Exponent=  8.0316286000D-02 Coefficients=  1.0000000000D+00
 P 1 1.00
     Exponent=  2.2920000000D+00 Coefficients=  1.0000000000D+00
 P 1 1.00
     Exponent=  8.3800000000D-01 Coefficients=  1.0000000000D+00
 P 1 1.00
     Exponent=  2.9200000000D-01 Coefficients=  1.0000000000D+00
 P 1 1.00
     Exponent=  8.4063199228D-02 Coefficients=  1.0000000000D+00
 D 1 1.00
     Exponent=  2.0620000000D+00 Coefficients=  1.0000000000D+00
 D 1 1.00
     Exponent=  6.6200000000D-01 Coefficients=  1.0000000000D+00
 F 1 1.00
     Exponent=  1.3970000000D+00 Coefficients=  1.0000000000D+00
 ****
 Centers:       1
 S 8 1.00
     Exponent=  1.1650646908D+05 Coefficients=  4.0383857939D-05
     Exponent=  1.7504349724D+04 Coefficients=  3.1255139004D-04
     Exponent=  3.9934513230D+03 Coefficients=  1.6341473495D-03
     Exponent=  1.1330063186D+03 Coefficients=  6.8283224757D-03
     Exponent=  3.6999569594D+02 Coefficients=  2.4124410221D-02
     Exponent=  1.3362074349D+02 Coefficients=  7.2730206154D-02
     Exponent=  5.2035643649D+01 Coefficients=  1.7934429892D-01
     Exponent=  2.1461939313D+01 Coefficients=  3.3059588895D-01
 S 2 1.00
     Exponent=  8.9835051252D+01 Coefficients=  9.6468652996D-02
     Exponent=  2.6428010844D+01 Coefficients=  9.4117481120D-01
 S 1 1.00
     Exponent=  9.2822824649D+00 Coefficients=  1.0000000000D+00
 S 1 1.00
     Exponent=  4.0947728533D+00 Coefficients=  1.0000000000D+00
 S 1 1.00
     Exponent=  1.3255349078D+00 Coefficients=  1.0000000000D+00
 S 1 1.00
     Exponent=  5.1877230787D-01 Coefficients=  1.0000000000D+00
 S 1 1.00
     Exponent=  1.9772676454D-01 Coefficients=  1.0000000000D+00
 S 1 1.00
     Exponent=  6.9638535104D-02 Coefficients=  1.0000000000D+00
 P 5 1.00
     Exponent=  1.9115255810D+02 Coefficients=  2.5115697705D-03
     Exponent=  4.5233356739D+01 Coefficients=  2.0039240864D-02
     Exponent=  1.4353465922D+01 Coefficients=  9.3609064762D-02
     Exponent=  5.2422371832D+00 Coefficients=  3.0618127124D-01
     Exponent=  2.0792418599D+00 Coefficients=  6.7810501439D-01
 P 1 1.00
     Exponent=  8.4282371424D-01 Coefficients=  1.0000000000D+00
 P 1 1.00
     Exponent=  3.3617694891D-01 Coefficients=  1.0000000000D+00
 P 1 1.00
     Exponent=  1.2863997974D-01 Coefficients=  1.0000000000D+00
 P 1 1.00
     Exponent=  4.3598162776D-02 Coefficients=  1.0000000000D+00
 D 1 1.00
     Exponent=  3.7750000000D+00 Coefficients=  1.0000000000D+00
 D 1 1.00
     Exponent=  1.3000000000D+00 Coefficients=  1.0000000000D+00
 D 1 1.00
     Exponent=  4.4400000000D-01 Coefficients=  1.0000000000D+00
 D 1 1.00
     Exponent=  1.2546378695D-01 Coefficients=  1.0000000000D+00
 F 1 1.00
     Exponent=  2.6660000000D+00 Coefficients=  1.0000000000D+00
 F 1 1.00
     Exponent=  8.5900000000D-01 Coefficients=  1.0000000000D+00
 G 1 1.00
     Exponent=  1.8460000000D+00 Coefficients=  1.0000000000D+00
 ****
 Ernie: Thresh=  0.10000D-02 Tol=  0.10000D-05 Strict=F.
 There are   107 symmetry adapted cartesian basis functions of A'  symmetry.
 There are    51 symmetry adapted cartesian basis functions of A"  symmetry.
 There are    87 symmetry adapted basis functions of A'  symmetry.
 There are    45 symmetry adapted basis functions of A"  symmetry.
   132 basis functions,   184 primitive gaussians,   158 cartesian basis functions
     5 alpha electrons        5 beta electrons
       nuclear repulsion energy         9.1949611682 Hartrees.
 IExCor= 4336 DFT=T Ex+Corr=M062X ExCW=0 ScaHFX=  0.540000
 ScaDFX=  1.000000  1.000000  1.000000  1.000000 ScalE2=  1.000000  1.000000
 IRadAn=      5 IRanWt=     -1 IRanGd=            0 ICorTp=0 IEmpDi=  4
 NAtoms=    3 NActive=    3 NUniq=    3 SFac= 1.00D+00 NAtFMM=   60 NAOKFM=F Big=F
 Integral buffers will be    131072 words long.
 Raffenetti 2 integral format.
 Two-electron integral symmetry is turned on.
 Leave Link  301 at Sat Apr 17 20:09:55 2021, MaxMem=   104857600 cpu:               9.7 elap:               0.2
 (Enter /s/ls4/users/knvvv/bin/g16sse/l302.exe)
 NPDir=0 NMtPBC=     1 NCelOv=     1 NCel=       1 NClECP=     1 NCelD=      1
         NCelK=      1 NCelE2=     1 NClLst=     1 CellRange=     0.0.
 One-electron integrals computed using PRISM.
 One-electron integral symmetry used in STVInt
 PrsmSu:  requested number of processors reduced to:   4 ShMem   1 Linda.
 PrsmSu:  requested number of processors reduced to:  21 ShMem   1 Linda.
 NBasis=   132 RedAO= T EigKep=  1.32D-04  NBF=    87    45
 NBsUse=   132 1.00D-06 EigRej= -1.00D+00 NBFU=    87    45
 Precomputing XC quadrature grid using
 IXCGrd= 4 IRadAn=           5 IRanWt=          -1 IRanGd=           0 AccXCQ= 0.00D+00.
 Generated NRdTot=       0 NPtTot=           0 NUsed=           0 NTot=          32
 NSgBfM=   158   158   158   158   158 MxSgAt=     3 MxSgA2=     3.
 Leave Link  302 at Sat Apr 17 20:09:58 2021, MaxMem=   104857600 cpu:             129.5 elap:               2.9
 (Enter /s/ls4/users/knvvv/bin/g16sse/l303.exe)
 DipDrv:  MaxL=1.
 Leave Link  303 at Sat Apr 17 20:09:58 2021, MaxMem=   104857600 cpu:              22.1 elap:               0.5
 (Enter /s/ls4/users/knvvv/bin/g16sse/l401.exe)
 SCF N**3 symmetry information disabled.
 ExpMin= 4.36D-02 ExpMax= 1.17D+05 ExpMxC= 1.13D+03 IAcc=3 IRadAn=         5 AccDes= 0.00D+00
 Harris functional with IExCor= 1009 and IRadAn=       5 diagonalized for initial guess.
 HarFok:  IExCor= 1009 AccDes= 0.00D+00 IRadAn=         5 IDoV= 1 UseB2=F ITyADJ=14
 ICtDFT=  3500011 ScaDFX=  1.000000  1.000000  1.000000  1.000000
 FoFCou: FMM=F IPFlag=           0 FMFlag=      100000 FMFlg1=           0
         NFxFlg=           0 DoJE=T BraDBF=F KetDBF=T FulRan=T
         wScrn=  0.000000 ICntrl=       500 IOpCl=  0 I1Cent=   200000004 NGrid=           0
         NMat0=    1 NMatS0=      1 NMatT0=    0 NMatD0=    1 NMtDS0=    0 NMtDT0=    0
 Petite list used in FoFCou.
 CoulSu:  requested number of processors reduced to:  21 ShMem   1 Linda.
 CoulSu:  requested number of processors reduced to:  21 ShMem   1 Linda.
 CoulSu:  requested number of processors reduced to:  21 ShMem   1 Linda.
 CoulSu:  requested number of processors reduced to:  21 ShMem   1 Linda.
 Harris En= -76.4322407215445    
 JPrj=0 DoOrth=F DoCkMO=F.
 Initial guess orbital symmetries:
       Occupied  (A') (A') (A') (A') (A")
       Virtual   (A') (A') (A') (A") (A') (A') (A') (A") (A") (A')
                 (A') (A') (A') (A') (A") (A') (A") (A') (A") (A')
                 (A') (A') (A") (A") (A') (A') (A') (A') (A') (A')
                 (A") (A') (A") (A') (A') (A") (A') (A") (A') (A')
                 (A') (A") (A') (A') (A") (A") (A') (A') (A") (A")
                 (A') (A') (A') (A') (A') (A') (A") (A") (A') (A")
                 (A') (A') (A") (A') (A') (A") (A') (A') (A") (A')
                 (A') (A") (A') (A") (A') (A") (A') (A') (A") (A')
                 (A') (A") (A") (A') (A') (A') (A') (A") (A") (A")
                 (A') (A') (A") (A') (A') (A') (A") (A') (A") (A')
                 (A') (A") (A') (A') (A") (A') (A') (A") (A") (A')
                 (A") (A') (A") (A') (A") (A') (A') (A') (A') (A')
                 (A") (A") (A') (A') (A') (A') (A')
 The electronic state of the initial guess is 1-A'.
 Leave Link  401 at Sat Apr 17 20:10:00 2021, MaxMem=   104857600 cpu:              82.3 elap:               2.0
 (Enter /s/ls4/users/knvvv/bin/g16sse/l502.exe)
 Keep R1 ints in memory in symmetry-blocked form, NReq=92806865.
 FoFCou: FMM=F IPFlag=           0 FMFlag=           0 FMFlg1=           0
         NFxFlg=           0 DoJE=F BraDBF=F KetDBF=F FulRan=T
         wScrn=  0.000000 ICntrl=       600 IOpCl=  0 I1Cent=           0 NGrid=           0
         NMat0=    1 NMatS0=   8778 NMatT0=    0 NMatD0=    1 NMtDS0=    0 NMtDT0=    0
 Petite list used in FoFCou.
 CoulSu:  requested number of processors reduced to:  14 ShMem   1 Linda.
 Closed shell SCF:
 Using DIIS extrapolation, IDIIS=  1040.
 NGot=   104857600 LenX=    85286723 LenY=    85261318
 Requested convergence on RMS density matrix=1.00D-08 within 128 cycles.
 Requested convergence on MAX density matrix=1.00D-06.
 Requested convergence on             energy=1.00D-06.
 No special actions if energy rises.

 Cycle   1  Pass 1  IDiag  1:
 E= -76.3572318330327    
 DIIS: error= 4.36D-02 at cycle   1 NSaved=   1.
 NSaved= 1 IEnMin= 1 EnMin= -76.3572318330327     IErMin= 1 ErrMin= 4.36D-02
 ErrMax= 4.36D-02  0.00D+00 EMaxC= 1.00D-01 BMatC= 1.46D-01 BMatP= 1.46D-01
 IDIUse=3 WtCom= 5.64D-01 WtEn= 4.36D-01
 Coeff-Com:  0.100D+01
 Coeff-En:   0.100D+01
 Coeff:      0.100D+01
 Gap=     0.274 Goal=   None    Shift=    0.000
 GapD=    0.274 DampG=1.000 DampE=0.500 DampFc=0.5000 IDamp=-1.
 Damping current iteration by 5.00D-01
 RMSDP=1.89D-03 MaxDP=6.57D-02              OVMax= 1.76D-01

 Cycle   2  Pass 1  IDiag  1:
 E= -76.3903546374639     Delta-E=       -0.033122804431 Rises=F Damp=T
 DIIS: error= 2.10D-02 at cycle   2 NSaved=   2.
 NSaved= 2 IEnMin= 2 EnMin= -76.3903546374639     IErMin= 2 ErrMin= 2.10D-02
 ErrMax= 2.10D-02  0.00D+00 EMaxC= 1.00D-01 BMatC= 1.35D-02 BMatP= 1.46D-01
 IDIUse=3 WtCom= 7.90D-01 WtEn= 2.10D-01
 Coeff-Com:  0.562D-01 0.944D+00
 Coeff-En:   0.182D+00 0.818D+00
 Coeff:      0.827D-01 0.917D+00
 Gap=     0.413 Goal=   None    Shift=    0.000
 RMSDP=6.29D-04 MaxDP=1.31D-02 DE=-3.31D-02 OVMax= 1.05D-01

 Cycle   3  Pass 1  IDiag  1:
 E= -76.4366136817202     Delta-E=       -0.046259044256 Rises=F Damp=F
 DIIS: error= 2.05D-03 at cycle   3 NSaved=   3.
 NSaved= 3 IEnMin= 3 EnMin= -76.4366136817202     IErMin= 3 ErrMin= 2.05D-03
 ErrMax= 2.05D-03  0.00D+00 EMaxC= 1.00D-01 BMatC= 2.52D-04 BMatP= 1.35D-02
 IDIUse=3 WtCom= 9.79D-01 WtEn= 2.05D-02
 Coeff-Com: -0.350D-01 0.647D-01 0.970D+00
 Coeff-En:   0.000D+00 0.000D+00 0.100D+01
 Coeff:     -0.343D-01 0.634D-01 0.971D+00
 Gap=     0.414 Goal=   None    Shift=    0.000
 RMSDP=7.49D-05 MaxDP=3.14D-03 DE=-4.63D-02 OVMax= 4.24D-03

 Cycle   4  Pass 1  IDiag  1:
 E= -76.4367895032174     Delta-E=       -0.000175821497 Rises=F Damp=F
 DIIS: error= 1.76D-04 at cycle   4 NSaved=   4.
 NSaved= 4 IEnMin= 4 EnMin= -76.4367895032174     IErMin= 4 ErrMin= 1.76D-04
 ErrMax= 1.76D-04  0.00D+00 EMaxC= 1.00D-01 BMatC= 2.64D-06 BMatP= 2.52D-04
 IDIUse=3 WtCom= 9.98D-01 WtEn= 1.76D-03
 Coeff-Com:  0.730D-03-0.178D-02 0.338D-01 0.967D+00
 Coeff-En:   0.000D+00 0.000D+00 0.000D+00 0.100D+01
 Coeff:      0.729D-03-0.178D-02 0.338D-01 0.967D+00
 Gap=     0.414 Goal=   None    Shift=    0.000
 RMSDP=2.46D-05 MaxDP=6.15D-04 DE=-1.76D-04 OVMax= 5.93D-04

 Cycle   5  Pass 1  IDiag  1:
 E= -76.4367911297588     Delta-E=       -0.000001626541 Rises=F Damp=F
 DIIS: error= 4.72D-05 at cycle   5 NSaved=   5.
 NSaved= 5 IEnMin= 5 EnMin= -76.4367911297588     IErMin= 5 ErrMin= 4.72D-05
 ErrMax= 4.72D-05  0.00D+00 EMaxC= 1.00D-01 BMatC= 7.70D-08 BMatP= 2.64D-06
 IDIUse=1 WtCom= 1.00D+00 WtEn= 0.00D+00
 Coeff-Com:  0.143D-02-0.256D-02-0.310D-01 0.497D-01 0.982D+00
 Coeff:      0.143D-02-0.256D-02-0.310D-01 0.497D-01 0.982D+00
 Gap=     0.414 Goal=   None    Shift=    0.000
 RMSDP=4.26D-06 MaxDP=1.10D-04 DE=-1.63D-06 OVMax= 1.72D-04

 Cycle   6  Pass 1  IDiag  1:
 E= -76.4367912350395     Delta-E=       -0.000000105281 Rises=F Damp=F
 DIIS: error= 7.72D-06 at cycle   6 NSaved=   6.
 NSaved= 6 IEnMin= 6 EnMin= -76.4367912350395     IErMin= 6 ErrMin= 7.72D-06
 ErrMax= 7.72D-06  0.00D+00 EMaxC= 1.00D-01 BMatC= 2.87D-09 BMatP= 7.70D-08
 IDIUse=1 WtCom= 1.00D+00 WtEn= 0.00D+00
 Coeff-Com: -0.150D-03 0.207D-03 0.109D-02-0.268D-01-0.309D-02 0.103D+01
 Coeff:     -0.150D-03 0.207D-03 0.109D-02-0.268D-01-0.309D-02 0.103D+01
 Gap=     0.414 Goal=   None    Shift=    0.000
 RMSDP=5.45D-07 MaxDP=2.35D-05 DE=-1.05D-07 OVMax= 3.33D-05

 Cycle   7  Pass 1  IDiag  1:
 E= -76.4367912394463     Delta-E=       -0.000000004407 Rises=F Damp=F
 DIIS: error= 1.40D-06 at cycle   7 NSaved=   7.
 NSaved= 7 IEnMin= 7 EnMin= -76.4367912394463     IErMin= 7 ErrMin= 1.40D-06
 ErrMax= 1.40D-06  0.00D+00 EMaxC= 1.00D-01 BMatC= 8.52D-11 BMatP= 2.87D-09
 IDIUse=1 WtCom= 1.00D+00 WtEn= 0.00D+00
 Coeff-Com: -0.261D-04 0.636D-04 0.412D-03-0.130D-03-0.275D-01-0.833D-01
 Coeff-Com:  0.111D+01
 Coeff:     -0.261D-04 0.636D-04 0.412D-03-0.130D-03-0.275D-01-0.833D-01
 Coeff:      0.111D+01
 Gap=     0.414 Goal=   None    Shift=    0.000
 RMSDP=1.21D-07 MaxDP=5.02D-06 DE=-4.41D-09 OVMax= 9.18D-06

 Cycle   8  Pass 1  IDiag  1:
 E= -76.4367912396501     Delta-E=       -0.000000000204 Rises=F Damp=F
 DIIS: error= 2.22D-07 at cycle   8 NSaved=   8.
 NSaved= 8 IEnMin= 8 EnMin= -76.4367912396501     IErMin= 8 ErrMin= 2.22D-07
 ErrMax= 2.22D-07  0.00D+00 EMaxC= 1.00D-01 BMatC= 1.33D-12 BMatP= 8.52D-11
 IDIUse=1 WtCom= 1.00D+00 WtEn= 0.00D+00
 Coeff-Com:  0.609D-05-0.114D-04-0.451D-04 0.295D-03 0.360D-02 0.104D-02
 Coeff-Com: -0.198D+00 0.119D+01
 Coeff:      0.609D-05-0.114D-04-0.451D-04 0.295D-03 0.360D-02 0.104D-02
 Coeff:     -0.198D+00 0.119D+01
 Gap=     0.414 Goal=   None    Shift=    0.000
 RMSDP=1.40D-08 MaxDP=3.98D-07 DE=-2.04D-10 OVMax= 1.29D-06

 Cycle   9  Pass 1  IDiag  1:
 E= -76.4367912396530     Delta-E=       -0.000000000003 Rises=F Damp=F
 DIIS: error= 3.06D-08 at cycle   9 NSaved=   9.
 NSaved= 9 IEnMin= 9 EnMin= -76.4367912396530     IErMin= 9 ErrMin= 3.06D-08
 ErrMax= 3.06D-08  0.00D+00 EMaxC= 1.00D-01 BMatC= 3.00D-14 BMatP= 1.33D-12
 IDIUse=1 WtCom= 1.00D+00 WtEn= 0.00D+00
 Coeff-Com: -0.197D-06 0.199D-06 0.241D-05 0.412D-04-0.411D-03-0.111D-02
 Coeff-Com:  0.273D-01-0.192D+00 0.117D+01
 Coeff:     -0.197D-06 0.199D-06 0.241D-05 0.412D-04-0.411D-03-0.111D-02
 Coeff:      0.273D-01-0.192D+00 0.117D+01
 Gap=     0.414 Goal=   None    Shift=    0.000
 RMSDP=2.55D-09 MaxDP=8.45D-08 DE=-2.93D-12 OVMax= 1.06D-07

 SCF Done:  E(RM062X) =  -76.4367912397     A.U. after    9 cycles
            NFock=  9  Conv=0.26D-08     -V/T= 2.0031
 KE= 7.619795401676D+01 PE=-1.992356962725D+02 EE= 3.740598984789D+01
 Leave Link  502 at Sat Apr 17 20:10:25 2021, MaxMem=   104857600 cpu:            1138.8 elap:              24.9
 (Enter /s/ls4/users/knvvv/bin/g16sse/l601.exe)
 Copying SCF densities to generalized density rwf, IOpCl= 0 IROHF=0.

 **********************************************************************

            Population analysis using the SCF density.

 **********************************************************************

 Orbital symmetries:
       Occupied  (A') (A') (A') (A') (A")
       Virtual   (A') (A') (A') (A") (A') (A') (A") (A') (A") (A')
                 (A') (A') (A') (A') (A") (A') (A') (A") (A") (A')
                 (A') (A') (A") (A") (A') (A') (A') (A') (A') (A')
                 (A') (A") (A") (A') (A') (A") (A') (A") (A') (A')
                 (A') (A") (A') (A") (A') (A") (A') (A') (A") (A')
                 (A") (A') (A') (A') (A') (A') (A") (A') (A") (A")
                 (A') (A') (A') (A") (A') (A") (A') (A') (A") (A')
                 (A') (A") (A') (A") (A') (A") (A') (A') (A") (A')
                 (A') (A") (A") (A') (A') (A') (A") (A') (A") (A')
                 (A") (A') (A") (A') (A') (A') (A") (A') (A") (A')
                 (A') (A') (A") (A') (A") (A') (A') (A") (A') (A")
                 (A") (A') (A") (A') (A') (A") (A') (A') (A') (A')
                 (A") (A") (A') (A') (A') (A') (A')
 The electronic state is 1-A'.
 Alpha  occ. eigenvalues --  -19.62866  -1.13792  -0.61176  -0.47770  -0.40381
 Alpha virt. eigenvalues --    0.01061   0.04194   0.06378   0.06385   0.13532
 Alpha virt. eigenvalues --    0.14825   0.17179   0.18797   0.19507   0.23224
 Alpha virt. eigenvalues --    0.25659   0.27697   0.35611   0.36785   0.40060
 Alpha virt. eigenvalues --    0.44856   0.46090   0.46121   0.51423   0.53351
 Alpha virt. eigenvalues --    0.54637   0.64948   0.77299   0.81529   0.83832
 Alpha virt. eigenvalues --    0.94923   1.00343   1.05903   1.11168   1.14826
 Alpha virt. eigenvalues --    1.33233   1.38539   1.44137   1.46172   1.51011
 Alpha virt. eigenvalues --    1.60129   1.63020   1.89171   1.94896   2.01239
 Alpha virt. eigenvalues --    2.04041   2.25390   2.27392   2.44021   2.44424
 Alpha virt. eigenvalues --    2.46038   2.55823   2.60804   2.65833   2.68470
 Alpha virt. eigenvalues --    2.70042   2.89806   3.11158   3.22604   3.27394
 Alpha virt. eigenvalues --    3.40822   3.69901   3.87830   3.89880   3.92577
 Alpha virt. eigenvalues --    4.06673   4.17139   4.24784   4.25743   4.40260
 Alpha virt. eigenvalues --    4.57224   4.79931   4.80399   5.30639   5.31140
 Alpha virt. eigenvalues --    5.42546   5.60947   5.83820   5.86352   5.95447
 Alpha virt. eigenvalues --    6.32764   6.42480   6.66519   6.94066   7.03340
 Alpha virt. eigenvalues --    7.11414   7.15945   7.24502   7.26526   7.30854
 Alpha virt. eigenvalues --    7.32361   7.52505   7.54347   7.64886   7.70966
 Alpha virt. eigenvalues --    7.71494   7.72174   7.82169   7.95887   8.18741
 Alpha virt. eigenvalues --    8.37732   8.46991   8.59763   8.64237   8.88685
 Alpha virt. eigenvalues --    8.96104   9.71214   9.71761  10.09795  10.16680
 Alpha virt. eigenvalues --   10.53338  10.60336  10.78766  10.93170  10.98294
 Alpha virt. eigenvalues --   11.14247  11.31071  11.58240  11.60681  11.67680
 Alpha virt. eigenvalues --   11.70936  12.12613  12.69732  13.30334  13.44184
 Alpha virt. eigenvalues --   13.49176  13.88717  14.24618  16.45412  16.49777
 Alpha virt. eigenvalues --   48.35436 251.43015
          Condensed to atoms (all electrons):
               1          2          3
     1  O    8.158772   0.277861   0.277861
     2  H    0.277861   0.383076  -0.018183
     3  H    0.277861  -0.018183   0.383076
 Mulliken charges:
               1
     1  O   -0.714493
     2  H    0.357246
     3  H    0.357247
 Sum of Mulliken charges =  -0.00000
 Mulliken charges with hydrogens summed into heavy atoms:
               1
     1  O   -0.000000
 Electronic spatial extent (au):  <R**2>=             19.7918
 Charge=             -0.0000 electrons
 Dipole moment (field-independent basis, Debye):
    X=             -0.0000    Y=             -1.8967    Z=             -0.0000  Tot=              1.8967
 Quadrupole moment (field-independent basis, Debye-Ang):
   XX=             -4.4031   YY=             -6.3807   ZZ=             -7.6946
   XY=             -0.0000   XZ=              0.0000   YZ=             -0.0000
 Traceless Quadrupole moment (field-independent basis, Debye-Ang):
   XX=              1.7564   YY=             -0.2212   ZZ=             -1.5352
   XY=             -0.0000   XZ=              0.0000   YZ=             -0.0000
 Octapole moment (field-independent basis, Debye-Ang**2):
  XXX=             -0.0000  YYY=             -1.0296  ZZZ=             -0.0000  XYY=              0.0000
  XXY=             -1.3322  XXZ=             -0.0000  XZZ=             -0.0000  YZZ=             -0.2225
  YYZ=             -0.0000  XYZ=              0.0000
 Hexadecapole moment (field-independent basis, Debye-Ang**3):
 XXXX=             -6.3848 YYYY=             -7.6657 ZZZZ=             -7.2730 XXXY=              0.0000
 XXXZ=              0.0000 YYYX=              0.0000 YYYZ=             -0.0000 ZZZX=              0.0000
 ZZZY=             -0.0000 XXYY=             -2.0197 XXZZ=             -2.6007 YYZZ=             -2.5396
 XXYZ=             -0.0000 YYXZ=              0.0000 ZZXY=              0.0000
 N-N= 9.194961168242D+00 E-N=-1.992356970552D+02  KE= 7.619795401676D+01
 PrsmSu:  requested number of processors reduced to:  21 ShMem   1 Linda.
 No NMR shielding tensors so no spin-rotation constants.
 Leave Link  601 at Sat Apr 17 20:10:26 2021, MaxMem=   104857600 cpu:              55.4 elap:               1.3
 (Enter /s/ls4/users/knvvv/bin/g16sse/l801.exe)
 DoSCS=F DFT=T ScalE2(SS,OS)=  1.000000  1.000000
 Range of M.O.s used for correlation:     1   132
 NBasis=   132 NAE=     5 NBE=     5 NFC=     0 NFV=     0
 NROrb=    132 NOA=     5 NOB=     5 NVA=   127 NVB=   127

 **** Warning!!: The largest alpha MO coefficient is  0.27225957D+02

 Leave Link  801 at Sat Apr 17 20:10:27 2021, MaxMem=   104857600 cpu:               4.6 elap:               0.1
 (Enter /s/ls4/users/knvvv/bin/g16sse/l914.exe)
 RHF ground state
 Doing stability rather than CIS.
 Two-electron integrals replicated using symmetry.
 MDV=   104857600 DFT=T DoStab=T Mixed=T DoRPA=F DoScal=F NonHer=F
 Making orbital integer symmetry assigments:
 Orbital symmetries:
       Occupied  (A') (A') (A') (A') (A")
       Virtual   (A') (A') (A') (A") (A') (A') (A") (A') (A") (A')
                 (A') (A') (A') (A') (A") (A') (A') (A") (A") (A')
                 (A') (A') (A") (A") (A') (A') (A') (A') (A') (A')
                 (A') (A") (A") (A') (A') (A") (A') (A") (A') (A')
                 (A') (A") (A') (A") (A') (A") (A') (A') (A") (A')
                 (A") (A') (A') (A') (A') (A') (A") (A') (A") (A")
                 (A') (A') (A') (A") (A') (A") (A') (A') (A") (A')
                 (A') (A") (A') (A") (A') (A") (A') (A') (A") (A')
                 (A') (A") (A") (A') (A') (A') (A") (A') (A") (A')
                 (A") (A') (A") (A') (A') (A') (A") (A') (A") (A')
                 (A') (A') (A") (A') (A") (A') (A') (A") (A') (A")
                 (A") (A') (A") (A') (A') (A") (A') (A') (A') (A')
                 (A") (A") (A') (A') (A') (A') (A')
    24 initial guesses have been made.
 Convergence on wavefunction:    0.001000000000000
 Davidson Disk Diagonalization:  ConvIn= 1.00D-03 SkipCon=T Conv= 1.00D-03.
 Max sub-space:  2000 roots to seek:    24 dimension of matrix:         1270
 Iteration     1 Dimension    24 NMult     0 NNew     24
 Estimated number of processors is:   20
 CISAX will form     1 AO SS matrices at one time.
 NMat=     1 NSing=     1 JSym2X= 2.
 FoFJK:  IHMeth= 1 ICntrl=       0 DoSepK=F KAlg= 0 I1Cent=           0 FoldK=F
 IRaf= 990000000 NMat=       1 IRICut=       1 DoRegI=T DoRafI=F ISym2E= 2 IDoP0=0 IntGTp=1.
 FoFCou: FMM=F IPFlag=           0 FMFlag=      100000 FMFlg1=           0
         NFxFlg=           0 DoJE=F BraDBF=F KetDBF=F FulRan=T
         wScrn=  0.000000 ICntrl=         0 IOpCl=  0 I1Cent=           0 NGrid=           0
         NMat0=    1 NMatS0=      1 NMatT0=    0 NMatD0=    1 NMtDS0=    0 NMtDT0=    0
 Integrals replicated using symmetry in FoFCou.
 CoulSu:  requested number of processors reduced to:  21 ShMem   1 Linda.
 NMat=     1 NSing=     1 JSym2X= 2.
 CoulSu:  requested number of processors reduced to:  21 ShMem   1 Linda.
 NMat=     1 NSing=     1 JSym2X= 2.
 CoulSu:  requested number of processors reduced to:  21 ShMem   1 Linda.
 NMat=     1 NSing=     1 JSym2X= 2.
 CoulSu:  requested number of processors reduced to:  21 ShMem   1 Linda.
 NMat=     1 NSing=     1 JSym2X= 2.
 CoulSu:  requested number of processors reduced to:  21 ShMem   1 Linda.
 NMat=     1 NSing=     1 JSym2X= 2.
 CoulSu:  requested number of processors reduced to:  21 ShMem   1 Linda.
 NMat=     1 NSing=     1 JSym2X= 2.
 CoulSu:  requested number of processors reduced to:  21 ShMem   1 Linda.
 NMat=     1 NSing=     1 JSym2X= 2.
 CoulSu:  requested number of processors reduced to:  21 ShMem   1 Linda.
 NMat=     1 NSing=     1 JSym2X= 2.
 CoulSu:  requested number of processors reduced to:  21 ShMem   1 Linda.
 NMat=     1 NSing=     1 JSym2X= 2.
 CoulSu:  requested number of processors reduced to:  21 ShMem   1 Linda.
 NMat=     1 NSing=     1 JSym2X= 2.
 CoulSu:  requested number of processors reduced to:  21 ShMem   1 Linda.
 NMat=     1 NSing=     1 JSym2X= 2.
 CoulSu:  requested number of processors reduced to:  21 ShMem   1 Linda.
 NMat=     1 NSing=     0 JSym2X= 2.
 CoulSu:  requested number of processors reduced to:  21 ShMem   1 Linda.
 NMat=     1 NSing=     0 JSym2X= 2.
 CoulSu:  requested number of processors reduced to:  21 ShMem   1 Linda.
 NMat=     1 NSing=     0 JSym2X= 2.
 CoulSu:  requested number of processors reduced to:  21 ShMem   1 Linda.
 NMat=     1 NSing=     0 JSym2X= 2.
 CoulSu:  requested number of processors reduced to:  21 ShMem   1 Linda.
 NMat=     1 NSing=     0 JSym2X= 2.
 CoulSu:  requested number of processors reduced to:  21 ShMem   1 Linda.
 NMat=     1 NSing=     0 JSym2X= 2.
 CoulSu:  requested number of processors reduced to:  21 ShMem   1 Linda.
 NMat=     1 NSing=     0 JSym2X= 2.
 CoulSu:  requested number of processors reduced to:  21 ShMem   1 Linda.
 NMat=     1 NSing=     0 JSym2X= 2.
 CoulSu:  requested number of processors reduced to:  21 ShMem   1 Linda.
 NMat=     1 NSing=     0 JSym2X= 2.
 CoulSu:  requested number of processors reduced to:  21 ShMem   1 Linda.
 NMat=     1 NSing=     0 JSym2X= 2.
 CoulSu:  requested number of processors reduced to:  21 ShMem   1 Linda.
 NMat=     1 NSing=     0 JSym2X= 2.
 CoulSu:  requested number of processors reduced to:  21 ShMem   1 Linda.
 NMat=     1 NSing=     0 JSym2X= 2.
 CoulSu:  requested number of processors reduced to:  21 ShMem   1 Linda.
 New state      1 was old state      2
 Excitation Energies [eV] at current iteration:
 Root      1 :     7.822606115234723
 Root      2 :     8.142844912984769
 Root      3 :     9.367177894554272
 Root      4 :     9.520636950190323
 Root      5 :    10.049873275373590
 Root      6 :    10.081709875897660
 Root      7 :    10.179714335595670
 Root      8 :    10.199651188611970
 Root      9 :    10.291520437701990
 Root     10 :    11.250574152435780
 Root     11 :    11.473728743294500
 Root     12 :    11.561680028417860
 Root     13 :    11.657327171420100
 Root     14 :    11.680061695681600
 Root     15 :    12.010355951840800
 Root     16 :    12.102654307110320
 Root     17 :    12.195872627184020
 Root     18 :    12.248666665920230
 Root     19 :    12.273542390236260
 Root     20 :    13.038922727079600
 Root     21 :    13.147974220377990
 Root     22 :    13.186191121009620
 Root     23 :    13.221951333061740
 Root     24 :    13.403522532377970
 Iteration     2 Dimension    48 NMult    24 NNew     24
 Estimated number of processors is:   20
 CISAX will form     1 AO SS matrices at one time.
 NMat=     1 NSing=     1 JSym2X= 2.
 CoulSu:  requested number of processors reduced to:  21 ShMem   1 Linda.
 NMat=     1 NSing=     1 JSym2X= 2.
 CoulSu:  requested number of processors reduced to:  21 ShMem   1 Linda.
 NMat=     1 NSing=     1 JSym2X= 2.
 CoulSu:  requested number of processors reduced to:  21 ShMem   1 Linda.
 NMat=     1 NSing=     1 JSym2X= 2.
 CoulSu:  requested number of processors reduced to:  21 ShMem   1 Linda.
 NMat=     1 NSing=     1 JSym2X= 2.
 CoulSu:  requested number of processors reduced to:  21 ShMem   1 Linda.
 NMat=     1 NSing=     1 JSym2X= 2.
 CoulSu:  requested number of processors reduced to:  21 ShMem   1 Linda.
 NMat=     1 NSing=     1 JSym2X= 2.
 CoulSu:  requested number of processors reduced to:  21 ShMem   1 Linda.
 NMat=     1 NSing=     1 JSym2X= 2.
 CoulSu:  requested number of processors reduced to:  21 ShMem   1 Linda.
 NMat=     1 NSing=     1 JSym2X= 2.
 CoulSu:  requested number of processors reduced to:  21 ShMem   1 Linda.
 NMat=     1 NSing=     1 JSym2X= 2.
 CoulSu:  requested number of processors reduced to:  21 ShMem   1 Linda.
 NMat=     1 NSing=     1 JSym2X= 2.
 CoulSu:  requested number of processors reduced to:  21 ShMem   1 Linda.
 NMat=     1 NSing=     1 JSym2X= 2.
 CoulSu:  requested number of processors reduced to:  21 ShMem   1 Linda.
 NMat=     1 NSing=     0 JSym2X= 2.
 CoulSu:  requested number of processors reduced to:  21 ShMem   1 Linda.
 NMat=     1 NSing=     0 JSym2X= 2.
 CoulSu:  requested number of processors reduced to:  21 ShMem   1 Linda.
 NMat=     1 NSing=     0 JSym2X= 2.
 CoulSu:  requested number of processors reduced to:  21 ShMem   1 Linda.
 NMat=     1 NSing=     0 JSym2X= 2.
 CoulSu:  requested number of processors reduced to:  21 ShMem   1 Linda.
 NMat=     1 NSing=     0 JSym2X= 2.
 CoulSu:  requested number of processors reduced to:  21 ShMem   1 Linda.
 NMat=     1 NSing=     0 JSym2X= 2.
 CoulSu:  requested number of processors reduced to:  21 ShMem   1 Linda.
 NMat=     1 NSing=     0 JSym2X= 2.
 CoulSu:  requested number of processors reduced to:  21 ShMem   1 Linda.
 NMat=     1 NSing=     0 JSym2X= 2.
 CoulSu:  requested number of processors reduced to:  21 ShMem   1 Linda.
 NMat=     1 NSing=     0 JSym2X= 2.
 CoulSu:  requested number of processors reduced to:  21 ShMem   1 Linda.
 NMat=     1 NSing=     0 JSym2X= 2.
 CoulSu:  requested number of processors reduced to:  21 ShMem   1 Linda.
 NMat=     1 NSing=     0 JSym2X= 2.
 CoulSu:  requested number of processors reduced to:  21 ShMem   1 Linda.
 NMat=     1 NSing=     0 JSym2X= 2.
 CoulSu:  requested number of processors reduced to:  21 ShMem   1 Linda.
 Root      1 not converged, maximum delta is    0.144829648587087
 Excitation Energies [eV] at current iteration:
 Root      1 :     7.241342454977935   Change is   -0.581263660256789
 Root      2 :     7.960618327932238   Change is   -0.182226585052531
 Root      3 :     8.952148474628173   Change is   -0.415029419926099
 Root      4 :     9.272980820359461   Change is   -0.247656129830861
 Root      5 :     9.275005065421794   Change is   -0.774868209951796
 Root      6 :     9.823065733538138   Change is   -0.356648602057535
 Root      7 :     9.928763780105280   Change is   -0.152946095792382
 Root      8 :     9.975179658109623   Change is   -0.316340779592369
 Root      9 :    10.116009381536500   Change is   -0.083641807075470
 Root     10 :    10.714470638592180   Change is   -0.536103513843599
 Root     11 :    10.970539320312270   Change is   -0.503189422982229
 Root     12 :    11.089703606305670   Change is   -0.471976422112190
 Root     13 :    11.393996810591550   Change is   -0.286064885090044
 Root     14 :    11.433861658760320   Change is   -0.223465512659784
 Root     15 :    11.770354403443560   Change is   -0.240001548397249
 Root     16 :    11.809167444607350   Change is   -0.293486862502968
 Root     17 :    12.000214933728080   Change is   -0.195657693455941
 Root     18 :    12.100733959297030   Change is   -0.172808430939234
 Root     19 :    12.130233888829790   Change is   -0.118432777090434
 Root     20 :    12.457573479416000   Change is   -0.690400740961989
 Root     21 :    12.541602602194270   Change is   -0.497320124885332
 Root     22 :    12.966665570561950   Change is   -0.219525550447669
 Root     23 :    12.968660884377000   Change is   -0.253290448684737
 Root     24 :    13.144199819744820   Change is   -0.259322712633150
 Iteration     3 Dimension    54 NMult    48 NNew      6
 Estimated number of processors is:   20
 CISAX will form     1 AO SS matrices at one time.
 NMat=     1 NSing=     1 JSym2X= 2.
 CoulSu:  requested number of processors reduced to:  21 ShMem   1 Linda.
 NMat=     1 NSing=     1 JSym2X= 2.
 CoulSu:  requested number of processors reduced to:  21 ShMem   1 Linda.
 NMat=     1 NSing=     1 JSym2X= 2.
 CoulSu:  requested number of processors reduced to:  21 ShMem   1 Linda.
 NMat=     1 NSing=     0 JSym2X= 2.
 CoulSu:  requested number of processors reduced to:  21 ShMem   1 Linda.
 NMat=     1 NSing=     0 JSym2X= 2.
 CoulSu:  requested number of processors reduced to:  21 ShMem   1 Linda.
 NMat=     1 NSing=     0 JSym2X= 2.
 CoulSu:  requested number of processors reduced to:  21 ShMem   1 Linda.
 Root      1 not converged, maximum delta is    0.011786069023229
 Excitation Energies [eV] at current iteration:
 Root      1 :     7.228198768763055   Change is   -0.013143686214880
 Root      2 :     7.949966415760735   Change is   -0.010651912171503
 Root      3 :     8.934569627856950   Change is   -0.017578846771222
 Root      4 :     9.178144882255593   Change is   -0.096860183166201
 Root      5 :     9.268077964063384   Change is   -0.004902856296077
 Root      6 :     9.960892255580516   Change is   -0.014287402529107
 Iteration     4 Dimension    60 NMult    54 NNew      6
 Estimated number of processors is:   20
 CISAX will form     1 AO SS matrices at one time.
 NMat=     1 NSing=     1 JSym2X= 2.
 CoulSu:  requested number of processors reduced to:  21 ShMem   1 Linda.
 NMat=     1 NSing=     1 JSym2X= 2.
 CoulSu:  requested number of processors reduced to:  21 ShMem   1 Linda.
 NMat=     1 NSing=     1 JSym2X= 2.
 CoulSu:  requested number of processors reduced to:  21 ShMem   1 Linda.
 NMat=     1 NSing=     0 JSym2X= 2.
 CoulSu:  requested number of processors reduced to:  21 ShMem   1 Linda.
 NMat=     1 NSing=     0 JSym2X= 2.
 CoulSu:  requested number of processors reduced to:  21 ShMem   1 Linda.
 NMat=     1 NSing=     0 JSym2X= 2.
 CoulSu:  requested number of processors reduced to:  21 ShMem   1 Linda.
 Root      1 has converged.
 Excitation Energies [eV] at current iteration:
 Root      1 :     7.228070579719631   Change is   -0.000128189043424
 Root      2 :     7.949879208323457   Change is   -0.000087207437278
 Root      3 :     8.934238911209141   Change is   -0.000330716647810
 Root      4 :     9.161359619232071   Change is   -0.016785263023523
 Root      5 :     9.268003083463944   Change is   -0.000074880599441
 Root      6 :     9.959346096354620   Change is   -0.001546159225895
 Convergence achieved on expansion vectors.
 ***********************************************************************
 Stability analysis using <AA,BB:AA,BB> singles matrix:
 ***********************************************************************
 1PDM for each excited state written to RWF  633
 Ground to excited state transition densities written to RWF  633

 Eigenvectors of the stability matrix:
 
 Eigenvector   1:      Triplet-A"   Eigenvalue= 0.2656267  <S**2>=2.000
       5 ->  6         0.65432
       5 ->  8         0.10744
       5 -> 13        -0.14952
       5 -> 16        -0.15401
 The wavefunction is stable under the perturbations considered.
 Leave Link  914 at Sat Apr 17 20:12:00 2021, MaxMem=   104857600 cpu:            3626.1 elap:              93.9
 (Enter /s/ls4/users/knvvv/bin/g16sse/l508.exe)
 The wavefunction is already stable.
 Leave Link  508 at Sat Apr 17 20:12:01 2021, MaxMem=   104857600 cpu:               2.2 elap:               0.1
 (Enter /s/ls4/users/knvvv/bin/g16sse/l601.exe)
 Copying SCF densities to generalized density rwf, IOpCl= 0 IROHF=0.

 **********************************************************************

            Population analysis using the SCF density.

 **********************************************************************

 Orbital symmetries:
       Occupied  (A') (A') (A') (A') (A")
       Virtual   (A') (A') (A') (A") (A') (A') (A") (A') (A") (A')
                 (A') (A') (A') (A') (A") (A') (A') (A") (A") (A')
                 (A') (A') (A") (A") (A') (A') (A') (A') (A') (A')
                 (A') (A") (A") (A') (A') (A") (A') (A") (A') (A')
                 (A') (A") (A') (A") (A') (A") (A') (A') (A") (A')
                 (A") (A') (A') (A') (A') (A') (A") (A') (A") (A")
                 (A') (A') (A') (A") (A') (A") (A') (A') (A") (A')
                 (A') (A") (A') (A") (A') (A") (A') (A') (A") (A')
                 (A') (A") (A") (A') (A') (A') (A") (A') (A") (A')
                 (A") (A') (A") (A') (A') (A') (A") (A') (A") (A')
                 (A') (A') (A") (A') (A") (A') (A') (A") (A') (A")
                 (A") (A') (A") (A') (A') (A") (A') (A') (A') (A')
                 (A") (A") (A') (A') (A') (A') (A')
 The electronic state is 1-A'.
 Alpha  occ. eigenvalues --  -19.62866  -1.13792  -0.61176  -0.47770  -0.40381
 Alpha virt. eigenvalues --    0.01061   0.04194   0.06378   0.06385   0.13532
 Alpha virt. eigenvalues --    0.14825   0.17179   0.18797   0.19507   0.23224
 Alpha virt. eigenvalues --    0.25659   0.27697   0.35611   0.36785   0.40060
 Alpha virt. eigenvalues --    0.44856   0.46090   0.46121   0.51423   0.53351
 Alpha virt. eigenvalues --    0.54637   0.64948   0.77299   0.81529   0.83832
 Alpha virt. eigenvalues --    0.94923   1.00343   1.05903   1.11168   1.14826
 Alpha virt. eigenvalues --    1.33233   1.38539   1.44137   1.46172   1.51011
 Alpha virt. eigenvalues --    1.60129   1.63020   1.89171   1.94896   2.01239
 Alpha virt. eigenvalues --    2.04041   2.25390   2.27392   2.44021   2.44424
 Alpha virt. eigenvalues --    2.46038   2.55823   2.60804   2.65833   2.68470
 Alpha virt. eigenvalues --    2.70042   2.89806   3.11158   3.22604   3.27394
 Alpha virt. eigenvalues --    3.40822   3.69901   3.87830   3.89880   3.92577
 Alpha virt. eigenvalues --    4.06673   4.17139   4.24784   4.25743   4.40260
 Alpha virt. eigenvalues --    4.57224   4.79931   4.80399   5.30639   5.31140
 Alpha virt. eigenvalues --    5.42546   5.60947   5.83820   5.86352   5.95447
 Alpha virt. eigenvalues --    6.32764   6.42480   6.66519   6.94066   7.03340
 Alpha virt. eigenvalues --    7.11414   7.15945   7.24502   7.26526   7.30854
 Alpha virt. eigenvalues --    7.32361   7.52505   7.54347   7.64886   7.70966
 Alpha virt. eigenvalues --    7.71494   7.72174   7.82169   7.95887   8.18741
 Alpha virt. eigenvalues --    8.37732   8.46991   8.59763   8.64237   8.88685
 Alpha virt. eigenvalues --    8.96104   9.71214   9.71761  10.09795  10.16680
 Alpha virt. eigenvalues --   10.53338  10.60336  10.78766  10.93170  10.98294
 Alpha virt. eigenvalues --   11.14247  11.31071  11.58240  11.60681  11.67680
 Alpha virt. eigenvalues --   11.70936  12.12613  12.69732  13.30334  13.44184
 Alpha virt. eigenvalues --   13.49176  13.88717  14.24618  16.45412  16.49777
 Alpha virt. eigenvalues --   48.35436 251.43015
          Condensed to atoms (all electrons):
               1          2          3
     1  O    8.158772   0.277861   0.277861
     2  H    0.277861   0.383076  -0.018183
     3  H    0.277861  -0.018183   0.383076
 Mulliken charges:
               1
     1  O   -0.714493
     2  H    0.357246
     3  H    0.357247
 Sum of Mulliken charges =  -0.00000
 Mulliken charges with hydrogens summed into heavy atoms:
               1
     1  O   -0.000000
 Electronic spatial extent (au):  <R**2>=             19.7918
 Charge=             -0.0000 electrons
 Dipole moment (field-independent basis, Debye):
    X=             -0.0000    Y=             -1.8967    Z=             -0.0000  Tot=              1.8967
 Quadrupole moment (field-independent basis, Debye-Ang):
   XX=             -4.4031   YY=             -6.3807   ZZ=             -7.6946
   XY=             -0.0000   XZ=              0.0000   YZ=             -0.0000
 Traceless Quadrupole moment (field-independent basis, Debye-Ang):
   XX=              1.7564   YY=             -0.2212   ZZ=             -1.5352
   XY=             -0.0000   XZ=              0.0000   YZ=             -0.0000
 Octapole moment (field-independent basis, Debye-Ang**2):
  XXX=             -0.0000  YYY=             -1.0296  ZZZ=             -0.0000  XYY=              0.0000
  XXY=             -1.3322  XXZ=             -0.0000  XZZ=             -0.0000  YZZ=             -0.2225
  YYZ=             -0.0000  XYZ=              0.0000
 Hexadecapole moment (field-independent basis, Debye-Ang**3):
 XXXX=             -6.3848 YYYY=             -7.6657 ZZZZ=             -7.2730 XXXY=              0.0000
 XXXZ=              0.0000 YYYX=              0.0000 YYYZ=             -0.0000 ZZZX=              0.0000
 ZZZY=             -0.0000 XXYY=             -2.0197 XXZZ=             -2.6007 YYZZ=             -2.5396
 XXYZ=             -0.0000 YYXZ=              0.0000 ZZXY=              0.0000
 N-N= 9.194961168242D+00 E-N=-1.992356970552D+02  KE= 7.619795401676D+01
 PrsmSu:  requested number of processors reduced to:  21 ShMem   1 Linda.
 No NMR shielding tensors so no spin-rotation constants.
 Leave Link  601 at Sat Apr 17 20:12:02 2021, MaxMem=   104857600 cpu:              54.1 elap:               1.3
 (Enter /s/ls4/users/knvvv/bin/g16sse/l9999.exe)

 Test job not archived.
 1\1\GINC-N151\Stability\RM062X\Gen\H2O1\KNVVV\17-Apr-2021\0\\#P M062X/
 GEN Integral=UltraFineGrid SCF=NoSymm Stable=(RExt, Opt) IOp(1/33=1)\\
 Database calculations.\\0,1\O,0,-8.089741,1.074241,2.604597\H,0,-7.897
 586,1.105451,1.667401\H,0,-9.008893,0.811379,2.652497\\Version=ES64L-G
 16RevA.03\State=1-A'\HF=-76.4367912\RMSD=2.553e-09\Dipole=-0.4629875,-
 0.1475274,-0.5663472\Quadrupole=0.5533537,-1.0108313,0.4574776,0.46876
 39,-0.7089184,-0.1627424\PG=CS [SG(H2O1)]\\@


 Any fool can criticize, condemn, and complain -- and most do.
 -- Dale Carnegie
 Job cpu time:       0 days  1 hours 26 minutes 13.2 seconds.
 Elapsed time:       0 days  0 hours  2 minutes  8.4 seconds.
 File lengths (MBytes):  RWF=     56 Int=      0 D2E=      0 Chk=      3 Scr=      1
 Normal termination of Gaussian 16 at Sat Apr 17 20:12:02 2021.
