 Entering Gaussian System, Link 0=/s/ls4/users/knvvv/bin/g16sse/g16
 Input=data/database/M062X--def2-QZVPPD--144_ch3_W4-11.gjf
 Output=data/database/M062X--def2-QZVPPD--144_ch3_W4-11.log
 Initial command:
 /s/ls4/users/knvvv/bin/g16sse/l1.exe "/s/ls4/users/knvvv/bin/scratch/Gau-3564.inp" -scrdir="/s/ls4/users/knvvv/bin/scratch/"
 Entering Link 1 = /s/ls4/users/knvvv/bin/g16sse/l1.exe PID=      3565.
  
 Copyright (c) 1988,1990,1992,1993,1995,1998,2003,2009,2016,
            Gaussian, Inc.  All Rights Reserved.
  
 This is part of the Gaussian(R) 16 program.  It is based on
 the Gaussian(R) 09 system (copyright 2009, Gaussian, Inc.),
 the Gaussian(R) 03 system (copyright 2003, Gaussian, Inc.),
 the Gaussian(R) 98 system (copyright 1998, Gaussian, Inc.),
 the Gaussian(R) 94 system (copyright 1995, Gaussian, Inc.),
 the Gaussian 92(TM) system (copyright 1992, Gaussian, Inc.),
 the Gaussian 90(TM) system (copyright 1990, Gaussian, Inc.),
 the Gaussian 88(TM) system (copyright 1988, Gaussian, Inc.),
 the Gaussian 86(TM) system (copyright 1986, Carnegie Mellon
 University), and the Gaussian 82(TM) system (copyright 1983,
 Carnegie Mellon University). Gaussian is a federally registered
 trademark of Gaussian, Inc.
  
 This software contains proprietary and confidential information,
 including trade secrets, belonging to Gaussian, Inc.
  
 This software is provided under written license and may be
 used, copied, transmitted, or stored only in accord with that
 written license.
  
 The following legend is applicable only to US Government
 contracts under FAR:
  
                    RESTRICTED RIGHTS LEGEND
  
 Use, reproduction and disclosure by the US Government is
 subject to restrictions as set forth in subparagraphs (a)
 and (c) of the Commercial Computer Software - Restricted
 Rights clause in FAR 52.227-19.
  
 Gaussian, Inc.
 340 Quinnipiac St., Bldg. 40, Wallingford CT 06492
  
  
 ---------------------------------------------------------------
 Warning -- This program may not be used in any manner that
 competes with the business of Gaussian, Inc. or will provide
 assistance to any competitor of Gaussian, Inc.  The licensee
 of this program is prohibited from giving any competitor of
 Gaussian, Inc. access to this program.  By using this program,
 the user acknowledges that Gaussian, Inc. is engaged in the
 business of creating and licensing software in the field of
 computational chemistry and represents and warrants to the
 licensee that it is not a competitor of Gaussian, Inc. and that
 it will not use this program in any manner prohibited above.
 ---------------------------------------------------------------
  

 Cite this work as:
 Gaussian 16, Revision A.03,
 M. J. Frisch, G. W. Trucks, H. B. Schlegel, G. E. Scuseria, 
 M. A. Robb, J. R. Cheeseman, G. Scalmani, V. Barone, 
 G. A. Petersson, H. Nakatsuji, X. Li, M. Caricato, A. V. Marenich, 
 J. Bloino, B. G. Janesko, R. Gomperts, B. Mennucci, H. P. Hratchian, 
 J. V. Ortiz, A. F. Izmaylov, J. L. Sonnenberg, D. Williams-Young, 
 F. Ding, F. Lipparini, F. Egidi, J. Goings, B. Peng, A. Petrone, 
 T. Henderson, D. Ranasinghe, V. G. Zakrzewski, J. Gao, N. Rega, 
 G. Zheng, W. Liang, M. Hada, M. Ehara, K. Toyota, R. Fukuda, 
 J. Hasegawa, M. Ishida, T. Nakajima, Y. Honda, O. Kitao, H. Nakai, 
 T. Vreven, K. Throssell, J. A. Montgomery, Jr., J. E. Peralta, 
 F. Ogliaro, M. J. Bearpark, J. J. Heyd, E. N. Brothers, K. N. Kudin, 
 V. N. Staroverov, T. A. Keith, R. Kobayashi, J. Normand, 
 K. Raghavachari, A. P. Rendell, J. C. Burant, S. S. Iyengar, 
 J. Tomasi, M. Cossi, J. M. Millam, M. Klene, C. Adamo, R. Cammi, 
 J. W. Ochterski, R. L. Martin, K. Morokuma, O. Farkas, 
 J. B. Foresman, and D. J. Fox, Gaussian, Inc., Wallingford CT, 2016.
 
 ******************************************
 Gaussian 16:  ES64L-G16RevA.03 25-Dec-2016
                17-Apr-2021 
 ******************************************
 %RWF=temp0_12417,70GB
 %nprocshared=48
 Will use up to   48 processors via shared memory.
 Default route: MaxDisk=80GB
 ----------------------------------------------------------------------
 #P M062X/GEN Integral=UltraFineGrid SCF=NoSymm Stable=(RExt, Opt) IOp(
 1/33=1)
 ----------------------------------------------------------------------
 1/33=1,38=1,172=1/1;
 2/12=2,17=6,18=5,40=1/2;
 3/5=7,11=2,25=1,30=1,74=-55,75=-5/1,2,3;
 4/9=2/1;
 5/5=2,38=5/2;
 6/7=2,8=2,9=2,10=2,28=1/1;
 8/6=1,10=90,11=11/1;
 9/8=-3,42=1,46=1/14;
 5/5=2,8=3,17=40,38=5/8(-2);
 6/7=2,8=2,9=2,10=2,28=1/1;
 99/5=1,9=1/99;
 Leave Link    1 at Sat Apr 17 11:17:17 2021, MaxMem=           0 cpu:               8.4 elap:               0.2
 (Enter /s/ls4/users/knvvv/bin/g16sse/l101.exe)
 ONIOM data not found on unit 2.
 ----------------------
 Database calculations.
 ----------------------
 TstMul:  ICh=     0
 TstMul:  Mul=     2
 TstMul:  ICh=     0
 TstMul:  Mul=     2
 Symbolic Z-matrix:
 Charge =  0 Multiplicity = 2
 C                     0.        0.        0. 
 H                     0.        0.        1.0777 
 H                     0.93332   0.       -0.53885 
 H                    -0.93332   0.       -0.53885 
 
 RdStrC is calling ZToCFu for IStruc=1 NZ=     4.
 PrtBox:  NBox=     1 Levels=  1 BoxLen=    8.00 SMaxX=        3.53
          Shift=            1.763711            0.000000            1.018279
 Box      1 Number                   0 centers from      1 to      4:
 After GenITR:
 ITRead=  0  0  0  0
 MicOpt= -1 -1 -1 -1
 ITRead=  0  0  0  0
 MicOpt= -1 -1 -1 -1
 NAtoms=      4 NQM=        4 NQMF=       0 NMMI=      0 NMMIF=      0
                NMic=       0 NMicF=      0.
                    Isotopes and Nuclear Properties:
 (Nuclear quadrupole moments (NQMom) in fm**2, nuclear magnetic moments (NMagM)
  in nuclear magnetons)

  Atom         1           2           3           4
 IAtWgt=          12           1           1           1
 AtmWgt=  12.0000000   1.0078250   1.0078250   1.0078250
 NucSpn=           0           1           1           1
 AtZEff=  -0.0000000  -0.0000000  -0.0000000  -0.0000000
 NQMom=    0.0000000   0.0000000   0.0000000   0.0000000
 NMagM=    0.0000000   2.7928460   2.7928460   2.7928460
 AtZNuc=   6.0000000   1.0000000   1.0000000   1.0000000
 No MM parameters found.
 Leave Link  101 at Sat Apr 17 11:17:17 2021, MaxMem=   104857600 cpu:               7.0 elap:               0.2
 (Enter /s/ls4/users/knvvv/bin/g16sse/l202.exe)
                          Input orientation:                          
 ---------------------------------------------------------------------
 Center     Atomic      Atomic             Coordinates (Angstroms)
 Number     Number       Type             X           Y           Z
 ---------------------------------------------------------------------
      1          6           0        0.000000    0.000000    0.000000
      2          1           0        0.000000    0.000000    1.077700
      3          1           0        0.933316    0.000000   -0.538850
      4          1           0       -0.933316    0.000000   -0.538850
 ---------------------------------------------------------------------
                    Distance matrix (angstroms):
                    1          2          3          4
     1  C    0.000000
     2  H    1.077700   0.000000
     3  H    1.077700   1.866631   0.000000
     4  H    1.077700   1.866631   1.866631   0.000000
 Stoichiometry    CH3(2)
 Framework group  D3H[O(C),3C2(H)]
 Deg. of freedom     1
 Full point group                 D3H     NOp  12
 Largest Abelian subgroup         C2V     NOp   4
 Largest concise Abelian subgroup C2      NOp   2
                         Standard orientation:                         
 ---------------------------------------------------------------------
 Center     Atomic      Atomic             Coordinates (Angstroms)
 Number     Number       Type             X           Y           Z
 ---------------------------------------------------------------------
      1          6           0        0.000000    0.000000    0.000000
      2          1           0        0.000000    1.077700    0.000000
      3          1           0        0.933316   -0.538850    0.000000
      4          1           0       -0.933316   -0.538850    0.000000
 ---------------------------------------------------------------------
 Rotational constants (GHZ):         287.8359476         287.8359476         143.9179738
 Leave Link  202 at Sat Apr 17 11:17:17 2021, MaxMem=   104857600 cpu:              13.2 elap:               0.3
 (Enter /s/ls4/users/knvvv/bin/g16sse/l301.exe)
 General basis read from cards:  (5D, 7F)
 Centers:       2      3      4
 S 4 1.00
     Exponent=  1.9069169000D+02 Coefficients=  7.0815167000D-04
     Exponent=  2.8605532000D+01 Coefficients=  5.4678827000D-03
     Exponent=  6.5095943000D+00 Coefficients=  2.7966605000D-02
     Exponent=  1.8412455000D+00 Coefficients=  1.0764538000D-01
 S 1 1.00
     Exponent=  5.9853725000D-01 Coefficients=  1.0000000000D+00
 S 1 1.00
     Exponent=  2.1397624000D-01 Coefficients=  1.0000000000D+00
 S 1 1.00
     Exponent=  8.0316286000D-02 Coefficients=  1.0000000000D+00
 P 1 1.00
     Exponent=  2.2920000000D+00 Coefficients=  1.0000000000D+00
 P 1 1.00
     Exponent=  8.3800000000D-01 Coefficients=  1.0000000000D+00
 P 1 1.00
     Exponent=  2.9200000000D-01 Coefficients=  1.0000000000D+00
 P 1 1.00
     Exponent=  8.4063199228D-02 Coefficients=  1.0000000000D+00
 D 1 1.00
     Exponent=  2.0620000000D+00 Coefficients=  1.0000000000D+00
 D 1 1.00
     Exponent=  6.6200000000D-01 Coefficients=  1.0000000000D+00
 F 1 1.00
     Exponent=  1.3970000000D+00 Coefficients=  1.0000000000D+00
 ****
 Centers:       1
 S 8 1.00
     Exponent=  6.7025071029D+04 Coefficients=  3.8736308501D-05
     Exponent=  1.0039986538D+04 Coefficients=  3.0107917575D-04
     Exponent=  2.2849316911D+03 Coefficients=  1.5787918095D-03
     Exponent=  6.4714122130D+02 Coefficients=  6.6087087195D-03
     Exponent=  2.1109472335D+02 Coefficients=  2.3367123250D-02
     Exponent=  7.6177643862D+01 Coefficients=  7.0420716898D-02
     Exponent=  2.9633839163D+01 Coefficients=  1.7360344953D-01
     Exponent=  1.2187785081D+01 Coefficients=  3.2292305648D-01
 S 2 1.00
     Exponent=  5.3026006299D+01 Coefficients=  7.4897404492D-02
     Exponent=  1.5258502776D+01 Coefficients=  7.6136220983D-01
 S 1 1.00
     Exponent=  5.2403957464D+00 Coefficients=  1.0000000000D+00
 S 1 1.00
     Exponent=  2.2905022379D+00 Coefficients=  1.0000000000D+00
 S 1 1.00
     Exponent=  6.9673283006D-01 Coefficients=  1.0000000000D+00
 S 1 1.00
     Exponent=  2.7599337363D-01 Coefficients=  1.0000000000D+00
 S 1 1.00
     Exponent=  1.0739884389D-01 Coefficients=  1.0000000000D+00
 S 1 1.00
     Exponent=  4.4981404899D-02 Coefficients=  1.0000000000D+00
 P 5 1.00
     Exponent=  1.0512555082D+02 Coefficients=  8.4647553844D-04
     Exponent=  2.4884461066D+01 Coefficients=  6.6274038534D-03
     Exponent=  7.8637230826D+00 Coefficients=  3.0120390419D-02
     Exponent=  2.8407001835D+00 Coefficients=  9.9951435476D-02
     Exponent=  1.1227137335D+00 Coefficients=  2.3826299282D-01
 P 1 1.00
     Exponent=  4.6050725555D-01 Coefficients=  1.0000000000D+00
 P 1 1.00
     Exponent=  1.8937530913D-01 Coefficients=  1.0000000000D+00
 P 1 1.00
     Exponent=  7.5983791611D-02 Coefficients=  1.0000000000D+00
 D 1 1.00
     Exponent=  1.8480000000D+00 Coefficients=  1.0000000000D+00
 D 1 1.00
     Exponent=  6.4900000000D-01 Coefficients=  1.0000000000D+00
 D 1 1.00
     Exponent=  2.2800000000D-01 Coefficients=  1.0000000000D+00
 D 1 1.00
     Exponent=  7.6889830417D-02 Coefficients=  1.0000000000D+00
 F 1 1.00
     Exponent=  1.4190000000D+00 Coefficients=  1.0000000000D+00
 F 1 1.00
     Exponent=  4.8500000000D-01 Coefficients=  1.0000000000D+00
 G 1 1.00
     Exponent=  1.0110000000D+00 Coefficients=  1.0000000000D+00
 ****
 Ernie: Thresh=  0.10000D-02 Tol=  0.10000D-05 Strict=F.
 There are    79 symmetry adapted cartesian basis functions of A1  symmetry.
 There are    24 symmetry adapted cartesian basis functions of A2  symmetry.
 There are    52 symmetry adapted cartesian basis functions of B1  symmetry.
 There are    38 symmetry adapted cartesian basis functions of B2  symmetry.
 There are    63 symmetry adapted basis functions of A1  symmetry.
 There are    22 symmetry adapted basis functions of A2  symmetry.
 There are    44 symmetry adapted basis functions of B1  symmetry.
 There are    33 symmetry adapted basis functions of B2  symmetry.
   162 basis functions,   222 primitive gaussians,   193 cartesian basis functions
     5 alpha electrons        4 beta electrons
       nuclear repulsion energy         9.6889223458 Hartrees.
 IExCor= 4336 DFT=T Ex+Corr=M062X ExCW=0 ScaHFX=  0.540000
 ScaDFX=  1.000000  1.000000  1.000000  1.000000 ScalE2=  1.000000  1.000000
 IRadAn=      5 IRanWt=     -1 IRanGd=            0 ICorTp=0 IEmpDi=  4
 NAtoms=    4 NActive=    4 NUniq=    2 SFac= 4.00D+00 NAtFMM=   60 NAOKFM=F Big=F
 Integral buffers will be    131072 words long.
 Raffenetti 2 integral format.
 Two-electron integral symmetry is turned on.
 Leave Link  301 at Sat Apr 17 11:17:18 2021, MaxMem=   104857600 cpu:               7.8 elap:               0.2
 (Enter /s/ls4/users/knvvv/bin/g16sse/l302.exe)
 NPDir=0 NMtPBC=     1 NCelOv=     1 NCel=       1 NClECP=     1 NCelD=      1
         NCelK=      1 NCelE2=     1 NClLst=     1 CellRange=     0.0.
 One-electron integrals computed using PRISM.
 One-electron integral symmetry used in STVInt
 PrsmSu:  requested number of processors reduced to:   4 ShMem   1 Linda.
 PrsmSu:  requested number of processors reduced to:  21 ShMem   1 Linda.
 NBasis=   162 RedAO= T EigKep=  1.20D-05  NBF=    63    22    44    33
 NBsUse=   162 1.00D-06 EigRej= -1.00D+00 NBFU=    63    22    44    33
 Precomputing XC quadrature grid using
 IXCGrd= 4 IRadAn=           5 IRanWt=          -1 IRanGd=           0 AccXCQ= 0.00D+00.
 Generated NRdTot=       0 NPtTot=           0 NUsed=           0 NTot=          32
 NSgBfM=   193   193   193   193   193 MxSgAt=     4 MxSgA2=     4.
 Leave Link  302 at Sat Apr 17 11:17:34 2021, MaxMem=   104857600 cpu:             752.5 elap:              16.1
 (Enter /s/ls4/users/knvvv/bin/g16sse/l303.exe)
 DipDrv:  MaxL=1.
 Leave Link  303 at Sat Apr 17 11:17:34 2021, MaxMem=   104857600 cpu:              26.9 elap:               0.6
 (Enter /s/ls4/users/knvvv/bin/g16sse/l401.exe)
 SCF N**3 symmetry information disabled.
 ExpMin= 4.50D-02 ExpMax= 6.70D+04 ExpMxC= 6.47D+02 IAcc=3 IRadAn=         5 AccDes= 0.00D+00
 Harris functional with IExCor= 1009 and IRadAn=       5 diagonalized for initial guess.
 HarFok:  IExCor= 1009 AccDes= 0.00D+00 IRadAn=         5 IDoV= 1 UseB2=F ITyADJ=14
 ICtDFT=  3500011 ScaDFX=  1.000000  1.000000  1.000000  1.000000
 FoFCou: FMM=F IPFlag=           0 FMFlag=      100000 FMFlg1=           0
         NFxFlg=           0 DoJE=T BraDBF=F KetDBF=T FulRan=T
         wScrn=  0.000000 ICntrl=       500 IOpCl=  0 I1Cent=   200000004 NGrid=           0
         NMat0=    1 NMatS0=      1 NMatT0=    0 NMatD0=    1 NMtDS0=    0 NMtDT0=    0
 Petite list used in FoFCou.
 CoulSu:  requested number of processors reduced to:  21 ShMem   1 Linda.
 CoulSu:  requested number of processors reduced to:  21 ShMem   1 Linda.
 CoulSu:  requested number of processors reduced to:  21 ShMem   1 Linda.
 CoulSu:  requested number of processors reduced to:  21 ShMem   1 Linda.
 Harris En= -39.8124695585463    
 JPrj=0 DoOrth=F DoCkMO=F.
 Initial guess orbital symmetries:
 Alpha Orbitals:
       Occupied  (A1') (A1') (E') (E') (A2")
       Virtual   (A1') (E') (E') (E') (E') (A1') (A2") (E") (E")
                 (A1') (A2') (A1') (E') (E') (E') (E') (E") (E")
                 (A2") (A1') (E') (E') (E') (E') (E") (E") (A1')
                 (E') (E') (A2") (A1') (A2') (E') (E') (A2") (E")
                 (E") (E') (E') (A1') (A1') (E') (E') (E') (E')
                 (E") (E") (A1') (E') (E') (A2') (E") (E") (A2")
                 (A1') (A1") (E') (E') (A2") (E") (E") (E') (E')
                 (A1') (E') (E') (A2") (A2') (A1') (E') (E') (E")
                 (E") (A1') (E') (E') (E") (E") (A2") (A1') (E')
                 (E') (E') (E') (A2') (A1') (E') (E') (A1") (E")
                 (E") (E") (E") (A2') (A2") (E') (E') (A2") (A1')
                 (A2') (E") (E") (E') (E') (E') (E') (A1') (A2")
                 (E") (E") (E') (E') (A1') (E') (E') (E") (E")
                 (E') (E') (A2") (A1") (E") (E") (E') (E') (A1')
                 (A1') (A2') (E') (E') (E") (E") (A1') (E') (E')
                 (A1') (E") (E") (A2") (A1") (A2') (E') (E') (E')
                 (E') (A1') (E") (E") (A2") (A2') (E') (E') (E')
                 (E') (A1') (A1') (A1')
 Beta  Orbitals:
       Occupied  (A1') (A1') (E') (E')
       Virtual   (A2") (A1') (E') (E') (E') (E') (A1') (A2") (E")
                 (E") (A1') (A2') (A1') (E') (E') (E') (E') (E")
                 (E") (A2") (A1') (E') (E') (E') (E') (E") (E")
                 (A1') (E') (E') (A2") (A1') (A2') (E') (E') (A2")
                 (E") (E") (E') (E') (A1') (A1') (E') (E') (E')
                 (E') (E") (E") (A1') (E') (E') (A2') (E") (E")
                 (A2") (A1') (A1") (E') (E') (A2") (E") (E") (E')
                 (E') (A1') (E') (E') (A2") (A2') (A1') (E') (E')
                 (E") (E") (A1') (E') (E') (E") (E") (A2") (A1')
                 (E') (E') (E') (E') (A2') (A1') (E') (E') (A1")
                 (E") (E") (E") (E") (A2') (A2") (E') (E') (A2")
                 (A1') (A2') (E") (E") (E') (E') (E') (E') (A1')
                 (A2") (E") (E") (E') (E') (A1') (E') (E') (E")
                 (E") (E') (E') (A2") (A1") (E") (E") (E') (E')
                 (A1') (A1') (A2') (E') (E') (E") (E") (A1') (E')
                 (E') (A1') (E") (E") (A2") (A1") (A2') (E') (E')
                 (E') (E') (A1') (E") (E") (A2") (A2') (E') (E')
                 (E') (E') (A1') (A1') (A1')
 The electronic state of the initial guess is 2-A2".
 Initial guess <Sx>= 0.0000 <Sy>= 0.0000 <Sz>= 0.5000 <S**2>= 0.7500 S= 0.5000
 Leave Link  401 at Sat Apr 17 11:17:46 2021, MaxMem=   104857600 cpu:             554.1 elap:              12.0
 (Enter /s/ls4/users/knvvv/bin/g16sse/l502.exe)
 Integral symmetry usage will be decided dynamically.
 UHF open shell SCF:
 Using DIIS extrapolation, IDIIS=  1040.
 NGot=   104857600 LenX=   104770541 LenY=   104732851
 Requested convergence on RMS density matrix=1.00D-08 within 128 cycles.
 Requested convergence on MAX density matrix=1.00D-06.
 Requested convergence on             energy=1.00D-06.
 No special actions if energy rises.
 Fock matrices will be formed incrementally for  20 cycles.

 Cycle   1  Pass 1  IDiag  1:
 FoFJK:  IHMeth= 1 ICntrl=       0 DoSepK=F KAlg= 0 I1Cent=           0 FoldK=F
 IRaf= 990000000 NMat=       1 IRICut=       1 DoRegI=T DoRafI=F ISym2E= 1 IDoP0=0 IntGTp=1.
 FoFCou: FMM=F IPFlag=           0 FMFlag=      100000 FMFlg1=           0
         NFxFlg=           0 DoJE=F BraDBF=F KetDBF=F FulRan=T
         wScrn=  0.000000 ICntrl=         0 IOpCl=  1 I1Cent=           0 NGrid=           0
         NMat0=    1 NMatS0=      1 NMatT0=    0 NMatD0=    1 NMtDS0=    0 NMtDT0=    0
 Petite list used in FoFCou.
 CoulSu:  requested number of processors reduced to:  20 ShMem   1 Linda.
 E= -39.7805102240157    
 DIIS: error= 3.74D-02 at cycle   1 NSaved=   1.
 NSaved= 1 IEnMin= 1 EnMin= -39.7805102240157     IErMin= 1 ErrMin= 3.74D-02
 ErrMax= 3.74D-02  0.00D+00 EMaxC= 1.00D-01 BMatC= 2.50D-01 BMatP= 2.50D-01
 IDIUse=3 WtCom= 6.26D-01 WtEn= 3.74D-01
 Coeff-Com:  0.100D+01
 Coeff-En:   0.100D+01
 Coeff:      0.100D+01
 Gap=     0.240 Goal=   None    Shift=    0.000
 Gap=     0.499 Goal=   None    Shift=    0.000
 GapD=    0.240 DampG=1.000 DampE=0.500 DampFc=0.5000 IDamp=-1.
 Damping current iteration by 5.00D-01
 RMSDP=3.54D-03 MaxDP=1.13D-01              OVMax= 1.38D-01

 Cycle   2  Pass 1  IDiag  1:
 RMSU=  1.59D-03    CP:  8.56D-01
 CoulSu:  requested number of processors reduced to:  20 ShMem   1 Linda.
 E= -39.8067461001345     Delta-E=       -0.026235876119 Rises=F Damp=T
 DIIS: error= 1.53D-02 at cycle   2 NSaved=   2.
 NSaved= 2 IEnMin= 2 EnMin= -39.8067461001345     IErMin= 2 ErrMin= 1.53D-02
 ErrMax= 1.53D-02  0.00D+00 EMaxC= 1.00D-01 BMatC= 2.75D-02 BMatP= 2.50D-01
 IDIUse=3 WtCom= 8.47D-01 WtEn= 1.53D-01
 Coeff-Com: -0.244D+00 0.124D+01
 Coeff-En:   0.000D+00 0.100D+01
 Coeff:     -0.206D+00 0.121D+01
 Gap=     0.302 Goal=   None    Shift=    0.000
 Gap=     0.439 Goal=   None    Shift=    0.000
 RMSDP=2.27D-03 MaxDP=6.20D-02 DE=-2.62D-02 OVMax= 6.74D-02

 Cycle   3  Pass 1  IDiag  1:
 RMSU=  1.15D-03    CP:  7.21D-01  2.14D+00
 CoulSu:  requested number of processors reduced to:  20 ShMem   1 Linda.
 E= -39.8293664318920     Delta-E=       -0.022620331758 Rises=F Damp=F
 DIIS: error= 2.26D-03 at cycle   3 NSaved=   3.
 NSaved= 3 IEnMin= 3 EnMin= -39.8293664318920     IErMin= 3 ErrMin= 2.26D-03
 ErrMax= 2.26D-03  0.00D+00 EMaxC= 1.00D-01 BMatC= 5.51D-04 BMatP= 2.75D-02
 IDIUse=3 WtCom= 9.77D-01 WtEn= 2.26D-02
 Coeff-Com: -0.515D-01 0.972D-01 0.954D+00
 Coeff-En:   0.000D+00 0.000D+00 0.100D+01
 Coeff:     -0.503D-01 0.950D-01 0.955D+00
 Gap=     0.301 Goal=   None    Shift=    0.000
 Gap=     0.436 Goal=   None    Shift=    0.000
 RMSDP=2.03D-04 MaxDP=9.33D-03 DE=-2.26D-02 OVMax= 5.88D-03

 Cycle   4  Pass 1  IDiag  1:
 RMSU=  1.61D-04    CP:  7.18D-01  2.10D+00  1.08D+00
 CoulSu:  requested number of processors reduced to:  20 ShMem   1 Linda.
 E= -39.8295359095119     Delta-E=       -0.000169477620 Rises=F Damp=F
 DIIS: error= 4.39D-04 at cycle   4 NSaved=   4.
 NSaved= 4 IEnMin= 4 EnMin= -39.8295359095119     IErMin= 4 ErrMin= 4.39D-04
 ErrMax= 4.39D-04  0.00D+00 EMaxC= 1.00D-01 BMatC= 3.11D-05 BMatP= 5.51D-04
 IDIUse=3 WtCom= 9.96D-01 WtEn= 4.39D-03
 Coeff-Com:  0.211D-01-0.455D-01-0.287D+00 0.131D+01
 Coeff-En:   0.000D+00 0.000D+00 0.000D+00 0.100D+01
 Coeff:      0.211D-01-0.453D-01-0.285D+00 0.131D+01
 Gap=     0.302 Goal=   None    Shift=    0.000
 Gap=     0.437 Goal=   None    Shift=    0.000
 RMSDP=4.87D-05 MaxDP=2.47D-03 DE=-1.69D-04 OVMax= 2.17D-03

 Cycle   5  Pass 1  IDiag  1:
 RMSU=  1.87D-05    CP:  7.18D-01  2.08D+00  1.09D+00  1.21D+00
 CoulSu:  requested number of processors reduced to:  20 ShMem   1 Linda.
 E= -39.8295555192146     Delta-E=       -0.000019609703 Rises=F Damp=F
 DIIS: error= 1.46D-04 at cycle   5 NSaved=   5.
 NSaved= 5 IEnMin= 5 EnMin= -39.8295555192146     IErMin= 5 ErrMin= 1.46D-04
 ErrMax= 1.46D-04  0.00D+00 EMaxC= 1.00D-01 BMatC= 2.63D-06 BMatP= 3.11D-05
 IDIUse=3 WtCom= 9.99D-01 WtEn= 1.46D-03
 Coeff-Com: -0.595D-02 0.121D-01 0.405D-01-0.431D+00 0.138D+01
 Coeff-En:   0.000D+00 0.000D+00 0.000D+00 0.000D+00 0.100D+01
 Coeff:     -0.595D-02 0.121D-01 0.404D-01-0.430D+00 0.138D+01
 Gap=     0.302 Goal=   None    Shift=    0.000
 Gap=     0.437 Goal=   None    Shift=    0.000
 RMSDP=1.16D-05 MaxDP=1.16D-03 DE=-1.96D-05 OVMax= 7.38D-04

 Cycle   6  Pass 1  IDiag  1:
 RMSU=  9.81D-06    CP:  7.19D-01  2.08D+00  1.10D+00  1.22D+00  1.23D+00
 CoulSu:  requested number of processors reduced to:  20 ShMem   1 Linda.
 E= -39.8295571289598     Delta-E=       -0.000001609745 Rises=F Damp=F
 DIIS: error= 1.78D-05 at cycle   6 NSaved=   6.
 NSaved= 6 IEnMin= 6 EnMin= -39.8295571289598     IErMin= 6 ErrMin= 1.78D-05
 ErrMax= 1.78D-05  0.00D+00 EMaxC= 1.00D-01 BMatC= 5.05D-08 BMatP= 2.63D-06
 IDIUse=1 WtCom= 1.00D+00 WtEn= 0.00D+00
 Coeff-Com: -0.297D-03 0.931D-03 0.563D-02-0.178D-01-0.965D-01 0.111D+01
 Coeff:     -0.297D-03 0.931D-03 0.563D-02-0.178D-01-0.965D-01 0.111D+01
 Gap=     0.302 Goal=   None    Shift=    0.000
 Gap=     0.437 Goal=   None    Shift=    0.000
 RMSDP=3.89D-06 MaxDP=1.91D-04 DE=-1.61D-06 OVMax= 9.37D-05

 Cycle   7  Pass 1  IDiag  1:
 RMSU=  1.41D-06    CP:  7.19D-01  2.08D+00  1.09D+00  1.24D+00  1.29D+00
                    CP:  1.03D+00
 CoulSu:  requested number of processors reduced to:  20 ShMem   1 Linda.
 E= -39.8295571520732     Delta-E=       -0.000000023113 Rises=F Damp=F
 DIIS: error= 2.86D-06 at cycle   7 NSaved=   7.
 NSaved= 7 IEnMin= 7 EnMin= -39.8295571520732     IErMin= 7 ErrMin= 2.86D-06
 ErrMax= 2.86D-06  0.00D+00 EMaxC= 1.00D-01 BMatC= 1.20D-09 BMatP= 5.05D-08
 IDIUse=1 WtCom= 1.00D+00 WtEn= 0.00D+00
 Coeff-Com:  0.179D-03-0.379D-03-0.946D-03 0.981D-02-0.168D-01-0.142D+00
 Coeff-Com:  0.115D+01
 Coeff:      0.179D-03-0.379D-03-0.946D-03 0.981D-02-0.168D-01-0.142D+00
 Coeff:      0.115D+01
 Gap=     0.302 Goal=   None    Shift=    0.000
 Gap=     0.437 Goal=   None    Shift=    0.000
 RMSDP=3.82D-07 MaxDP=1.59D-05 DE=-2.31D-08 OVMax= 1.04D-05

 Cycle   8  Pass 1  IDiag  1:
 RMSU=  2.26D-07    CP:  7.19D-01  2.08D+00  1.10D+00  1.24D+00  1.29D+00
                    CP:  1.03D+00  1.16D+00
 CoulSu:  requested number of processors reduced to:  20 ShMem   1 Linda.
 E= -39.8295571524502     Delta-E=       -0.000000000377 Rises=F Damp=F
 DIIS: error= 3.02D-07 at cycle   8 NSaved=   8.
 NSaved= 8 IEnMin= 8 EnMin= -39.8295571524502     IErMin= 8 ErrMin= 3.02D-07
 ErrMax= 3.02D-07  0.00D+00 EMaxC= 1.00D-01 BMatC= 1.22D-11 BMatP= 1.20D-09
 IDIUse=1 WtCom= 1.00D+00 WtEn= 0.00D+00
 Coeff-Com: -0.480D-05 0.578D-05 0.265D-05 0.165D-03-0.185D-02 0.177D-01
 Coeff-Com: -0.144D+00 0.113D+01
 Coeff:     -0.480D-05 0.578D-05 0.265D-05 0.165D-03-0.185D-02 0.177D-01
 Coeff:     -0.144D+00 0.113D+01
 Gap=     0.302 Goal=   None    Shift=    0.000
 Gap=     0.437 Goal=   None    Shift=    0.000
 RMSDP=1.23D-07 MaxDP=5.78D-06 DE=-3.77D-10 OVMax= 1.10D-06

 Cycle   9  Pass 1  IDiag  1:
 RMSU=  4.83D-08    CP:  7.19D-01  2.08D+00  1.10D+00  1.24D+00  1.29D+00
                    CP:  1.03D+00  1.17D+00  8.67D-01
 CoulSu:  requested number of processors reduced to:  20 ShMem   1 Linda.
 E= -39.8295571524538     Delta-E=       -0.000000000004 Rises=F Damp=F
 DIIS: error= 3.61D-08 at cycle   9 NSaved=   9.
 NSaved= 9 IEnMin= 9 EnMin= -39.8295571524538     IErMin= 9 ErrMin= 3.61D-08
 ErrMax= 3.61D-08  0.00D+00 EMaxC= 1.00D-01 BMatC= 1.38D-13 BMatP= 1.22D-11
 IDIUse=1 WtCom= 1.00D+00 WtEn= 0.00D+00
 Coeff-Com: -0.184D-05 0.440D-05 0.789D-05-0.134D-03 0.365D-03 0.627D-03
 Coeff-Com: -0.798D-02-0.856D-01 0.109D+01
 Coeff:     -0.184D-05 0.440D-05 0.789D-05-0.134D-03 0.365D-03 0.627D-03
 Coeff:     -0.798D-02-0.856D-01 0.109D+01
 Gap=     0.302 Goal=   None    Shift=    0.000
 DSYEVD-2 returned Info=         325 IAlg= 4 N=   162 NDim=   162 NE2=      646498 trying  DSYEV.
 Gap=     0.437 Goal=   None    Shift=    0.000
 RMSDP=2.23D-08 MaxDP=1.30D-06 DE=-3.58D-12 OVMax= 1.35D-07

 Cycle  10  Pass 1  IDiag  1:
 RMSU=  2.75D-09    CP:  7.19D-01  2.08D+00  1.10D+00  1.24D+00  1.29D+00
                    CP:  1.03D+00  1.17D+00  8.44D-01  1.12D+00
 CoulSu:  requested number of processors reduced to:  20 ShMem   1 Linda.
 E= -39.8295571524541     Delta-E=       -0.000000000000 Rises=F Damp=F
 DIIS: error= 4.17D-09 at cycle  10 NSaved=  10.
 NSaved=10 IEnMin=10 EnMin= -39.8295571524541     IErMin=10 ErrMin= 4.17D-09
 ErrMax= 4.17D-09  0.00D+00 EMaxC= 1.00D-01 BMatC= 3.05D-15 BMatP= 1.38D-13
 IDIUse=1 WtCom= 1.00D+00 WtEn= 0.00D+00
 Coeff-Com: -0.798D-08 0.355D-07 0.986D-06-0.476D-05 0.213D-04-0.300D-03
 Coeff-Com:  0.211D-02-0.784D-03-0.149D+00 0.115D+01
 Coeff:     -0.798D-08 0.355D-07 0.986D-06-0.476D-05 0.213D-04-0.300D-03
 Coeff:      0.211D-02-0.784D-03-0.149D+00 0.115D+01
 Gap=     0.302 Goal=   None    Shift=    0.000
 Gap=     0.437 Goal=   None    Shift=    0.000
 RMSDP=2.73D-09 MaxDP=1.59D-07 DE=-2.98D-13 OVMax= 1.96D-08

 SCF Done:  E(UM062X) =  -39.8295571525     A.U. after   10 cycles
            NFock= 10  Conv=0.27D-08     -V/T= 2.0047
 <Sx>= 0.0000 <Sy>= 0.0000 <Sz>= 0.5000 <S**2>= 0.7547 S= 0.5024
 <L.S>= 0.000000000000E+00
 KE= 3.964462631504D+01 PE=-1.112980929286D+02 EE= 2.213498711526D+01
 Annihilation of the first spin contaminant:
 S**2 before annihilation     0.7547,   after     0.7500
 Leave Link  502 at Sat Apr 17 11:25:06 2021, MaxMem=   104857600 cpu:           20522.8 elap:             439.6
 (Enter /s/ls4/users/knvvv/bin/g16sse/l601.exe)
 Copying SCF densities to generalized density rwf, IOpCl= 1 IROHF=0.

 **********************************************************************

            Population analysis using the SCF density.

 **********************************************************************

 Orbital symmetries:
 Alpha Orbitals:
       Occupied  (A1') (A1') (E') (E') (A2")
       Virtual   (A1') (E') (E') (E') (E') (A1') (A2") (E") (E")
                 (A1') (A2') (A1') (E') (E') (E") (E") (A2") (E')
                 (E') (E') (E') (A1') (E') (E') (E") (E") (A1')
                 (E') (E') (A2") (A1') (A2') (E') (E') (A2") (E")
                 (E") (E') (E') (A1') (A1') (E') (E') (E') (E')
                 (E") (E") (A1') (E') (E') (E") (E") (A2') (A2")
                 (A1') (A1") (E') (E') (E") (E") (A2") (E') (E')
                 (A1') (E') (E') (A2") (A2') (A1') (E') (E') (E")
                 (E") (A1') (E') (E') (E") (E") (A2") (A1') (E')
                 (E') (E') (E') (A2') (A1') (E') (E') (A1") (E")
                 (E") (E") (E") (A2") (A2') (E') (E') (A2") (A2')
                 (E") (E") (A1') (E') (E') (A1') (E') (E') (A2")
                 (E") (E") (E') (E') (A1') (E') (E') (E") (E")
                 (E') (E') (A1") (A2") (E") (E") (E') (E') (A1')
                 (A1') (A2') (E") (E") (E') (E') (A1') (E') (E')
                 (A1') (E") (E") (A2") (A1") (A2') (E') (E') (E')
                 (E') (E") (E") (A1') (A2") (A2') (E') (E') (E')
                 (E') (A1') (A1') (A1')
 Beta  Orbitals:
       Occupied  (A1') (A1') (E') (E')
       Virtual   (A2") (A1') (E') (E') (A1') (E') (E') (E") (E")
                 (A2") (A1') (A1') (A2') (E') (E') (E") (E") (A2")
                 (E') (E') (E') (E') (A1') (E') (E') (A1') (E")
                 (E") (E') (E') (A1') (A2') (A2") (E') (E') (A2")
                 (E") (E") (A1') (E') (E') (A1') (E') (E') (E')
                 (E') (A1') (E") (E") (E") (E") (E') (E') (A2')
                 (A2") (A1') (A1") (E') (E') (E") (E") (A2") (E')
                 (E') (A1') (E') (E') (A2") (A2') (A1') (E') (E')
                 (E") (E") (A1') (E') (E') (E") (E") (A2") (A1')
                 (E') (E') (E') (E') (A2') (A1') (E') (E') (A1")
                 (E") (E") (E") (E") (A2") (A2') (E') (E') (A2")
                 (A2') (E") (E") (A1') (E') (E') (A2") (A1') (E')
                 (E') (E') (E') (E") (E") (A1') (E') (E') (E")
                 (E") (E') (E') (A1") (A2") (E") (E") (E') (E')
                 (A1') (A1') (A2') (E") (E") (A1') (E') (E') (E')
                 (E') (A1') (E") (E") (A2") (A1") (A2') (E') (E')
                 (E') (E') (E") (E") (A1') (A2") (A2') (E') (E')
                 (E') (E') (A1') (A1') (A1')
 The electronic state is 2-A2".
 Alpha  occ. eigenvalues --  -10.54819  -0.77880  -0.49138  -0.49138  -0.28787
 Alpha virt. eigenvalues --    0.01453   0.09440   0.09440   0.14631   0.14631
 Alpha virt. eigenvalues --    0.14765   0.18474   0.19065   0.19065   0.21412
 Alpha virt. eigenvalues --    0.25675   0.25950   0.27952   0.27952   0.28647
 Alpha virt. eigenvalues --    0.28647   0.29836   0.33746   0.33746   0.36726
 Alpha virt. eigenvalues --    0.36726   0.40562   0.45187   0.45187   0.61039
 Alpha virt. eigenvalues --    0.61039   0.62029   0.72910   0.72910   0.77460
 Alpha virt. eigenvalues --    0.80336   0.80628   0.87596   0.87596   0.95430
 Alpha virt. eigenvalues --    0.95745   0.95745   1.09834   1.09834   1.13722
 Alpha virt. eigenvalues --    1.25970   1.33550   1.33550   1.38189   1.38189
 Alpha virt. eigenvalues --    1.84838   1.84838   1.85601   1.91779   1.91779
 Alpha virt. eigenvalues --    1.93341   1.93341   1.93992   1.97868   2.00341
 Alpha virt. eigenvalues --    2.03401   2.14866   2.14866   2.41938   2.41938
 Alpha virt. eigenvalues --    2.44347   2.46115   2.46115   2.59117   2.62463
 Alpha virt. eigenvalues --    2.62463   2.67117   2.74760   2.79720   2.82400
 Alpha virt. eigenvalues --    2.82400   2.82429   2.82429   3.17931   3.30848
 Alpha virt. eigenvalues --    3.30848   3.38977   3.38977   3.50191   3.62970
 Alpha virt. eigenvalues --    3.76573   3.76573   3.91486   3.91486   4.09959
 Alpha virt. eigenvalues --    5.01614   5.04945   5.04945   5.06677   5.19433
 Alpha virt. eigenvalues --    5.19433   5.43268   5.43268   5.45048   5.46989
 Alpha virt. eigenvalues --    5.68275   5.68275   5.69934   5.82805   5.83415
 Alpha virt. eigenvalues --    5.83415   5.86451   5.90896   5.90896   6.25361
 Alpha virt. eigenvalues --    6.27030   6.27030   6.28611   6.55861   6.55861
 Alpha virt. eigenvalues --    6.58014   6.58014   6.76024   6.91397   6.91397
 Alpha virt. eigenvalues --    7.02015   7.02015   7.26329   7.26329   7.29504
 Alpha virt. eigenvalues --    7.32515   7.40628   7.40628   7.44566   7.44566
 Alpha virt. eigenvalues --    7.52410   7.82094   7.92945   7.99689   7.99689
 Alpha virt. eigenvalues --    7.99897   7.99897   8.00285   8.10788   8.10788
 Alpha virt. eigenvalues --    8.19707   8.24389   8.24389   8.51420   8.58628
 Alpha virt. eigenvalues --    8.84776   8.95467   8.95467   9.33156   9.33156
 Alpha virt. eigenvalues --    9.58578   9.58578   9.61270   9.64243  10.10416
 Alpha virt. eigenvalues --   10.80898  10.80898  11.25255  11.25255  13.04162
 Alpha virt. eigenvalues --   28.67565 146.20197
  Beta  occ. eigenvalues --  -10.54080  -0.73053  -0.47868  -0.47868
  Beta virt. eigenvalues --   -0.04149   0.01801   0.09326   0.09326   0.12767
  Beta virt. eigenvalues --    0.13682   0.13682   0.15638   0.15638   0.18248
  Beta virt. eigenvalues --    0.19838   0.25236   0.25392   0.25832   0.25832
  Beta virt. eigenvalues --    0.26700   0.26700   0.26761   0.34283   0.34283
  Beta virt. eigenvalues --    0.36902   0.36902   0.42073   0.44177   0.44177
  Beta virt. eigenvalues --    0.58974   0.61695   0.61695   0.71991   0.71991
  Beta virt. eigenvalues --    0.77847   0.80393   0.80470   0.84668   0.84668
  Beta virt. eigenvalues --    0.89092   0.92719   0.92719   1.07782   1.08879
  Beta virt. eigenvalues --    1.08879   1.24975   1.29963   1.29963   1.37551
  Beta virt. eigenvalues --    1.37551   1.83783   1.85919   1.85919   1.91421
  Beta virt. eigenvalues --    1.91421   1.93314   1.93314   1.94794   1.95589
  Beta virt. eigenvalues --    2.01033   2.03794   2.14945   2.14945   2.41853
  Beta virt. eigenvalues --    2.41853   2.44435   2.45865   2.45865   2.59706
  Beta virt. eigenvalues --    2.62082   2.62082   2.67144   2.76310   2.80322
  Beta virt. eigenvalues --    2.81415   2.81415   2.81589   2.81589   3.19946
  Beta virt. eigenvalues --    3.31054   3.31054   3.40700   3.40700   3.52953
  Beta virt. eigenvalues --    3.67096   3.79513   3.79513   3.93056   3.93056
  Beta virt. eigenvalues --    4.10605   5.06590   5.10226   5.10226   5.14113
  Beta virt. eigenvalues --    5.28277   5.28277   5.52523   5.52523   5.54419
  Beta virt. eigenvalues --    5.54841   5.77257   5.77257   5.79423   5.82668
  Beta virt. eigenvalues --    5.86697   5.86697   5.91775   5.93716   5.93716
  Beta virt. eigenvalues --    6.35530   6.35793   6.36258   6.36258   6.62814
  Beta virt. eigenvalues --    6.62814   6.72433   6.72433   6.88898   6.96639
  Beta virt. eigenvalues --    6.96639   7.06548   7.06548   7.26972   7.26972
  Beta virt. eigenvalues --    7.30149   7.36016   7.45494   7.45494   7.49283
  Beta virt. eigenvalues --    7.49283   7.57373   7.84978   7.92788   8.00519
  Beta virt. eigenvalues --    8.00519   8.01218   8.03112   8.03112   8.19984
  Beta virt. eigenvalues --    8.19984   8.29170   8.31917   8.31917   8.58035
  Beta virt. eigenvalues --    8.65875   8.92100   8.99923   8.99923   9.41358
  Beta virt. eigenvalues --    9.41358   9.72938   9.72938   9.75195   9.83977
  Beta virt. eigenvalues --   10.19301  10.95401  10.95401  11.40877  11.40877
  Beta virt. eigenvalues --   13.28583  28.84595 146.22985
          Condensed to atoms (all electrons):
               1          2          3          4
     1  C    5.820747   0.332771   0.332771   0.332771
     2  H    0.332771   0.562666  -0.084228  -0.084228
     3  H    0.332771  -0.084228   0.562666  -0.084228
     4  H    0.332771  -0.084228  -0.084228   0.562666
          Atomic-Atomic Spin Densities.
               1          2          3          4
     1  C    0.969525   0.023021   0.023021   0.023021
     2  H    0.023021  -0.090850   0.027483   0.027483
     3  H    0.023021   0.027483  -0.090850   0.027483
     4  H    0.023021   0.027483   0.027483  -0.090850
 Mulliken charges and spin densities:
               1          2
     1  C   -0.819059   1.038587
     2  H    0.273020  -0.012862
     3  H    0.273020  -0.012862
     4  H    0.273020  -0.012862
 Sum of Mulliken charges =  -0.00000   1.00000
 Mulliken charges and spin densities with hydrogens summed into heavy atoms:
               1          2
     1  C   -0.000000   1.000000
 Electronic spatial extent (au):  <R**2>=             30.0478
 Charge=             -0.0000 electrons
 Dipole moment (field-independent basis, Debye):
    X=             -0.0000    Y=             -0.0000    Z=              0.0000  Tot=              0.0000
 Quadrupole moment (field-independent basis, Debye-Ang):
   XX=             -7.2692   YY=             -7.2692   ZZ=             -9.1412
   XY=             -0.0000   XZ=             -0.0000   YZ=             -0.0000
 Traceless Quadrupole moment (field-independent basis, Debye-Ang):
   XX=              0.6240   YY=              0.6240   ZZ=             -1.2480
   XY=             -0.0000   XZ=             -0.0000   YZ=             -0.0000
 Octapole moment (field-independent basis, Debye-Ang**2):
  XXX=             -0.0000  YYY=              0.9317  ZZZ=              0.0000  XYY=              0.0000
  XXY=             -0.9317  XXZ=              0.0000  XZZ=             -0.0000  YZZ=             -0.0000
  YYZ=             -0.0000  XYZ=              0.0000
 Hexadecapole moment (field-independent basis, Debye-Ang**3):
 XXXX=            -15.0241 YYYY=            -15.0241 ZZZZ=            -11.6758 XXXY=              0.0000
 XXXZ=             -0.0000 YYYX=              0.0000 YYYZ=             -0.0000 ZZZX=             -0.0000
 ZZZY=             -0.0000 XXYY=             -5.0080 XXZZ=             -4.9011 YYZZ=             -4.9011
 XXYZ=             -0.0000 YYXZ=             -0.0000 ZZXY=              0.0000
 N-N= 9.688922345811D+00 E-N=-1.112980929299D+02  KE= 3.964462631504D+01
                          Isotropic Fermi Contact Couplings
        Atom                 a.u.       MegaHertz       Gauss      10(-4) cm-1
     1  C(13)              0.17934     201.61756      71.94216      67.25238
     2  H(1)              -0.01661     -74.23197     -26.48781     -24.76112
     3  H(1)              -0.01661     -74.23197     -26.48781     -24.76112
     4  H(1)              -0.01661     -74.23197     -26.48781     -24.76112
 PrsmSu:  requested number of processors reduced to:  21 ShMem   1 Linda.
 --------------------------------------------------------
       Center         ----  Spin Dipole Couplings  ----
                      3XX-RR        3YY-RR        3ZZ-RR
 --------------------------------------------------------
     1   Atom       -0.566870     -0.566870      1.133739
     2   Atom       -0.075472      0.079352     -0.003881
     3   Atom        0.040646     -0.036766     -0.003881
     4   Atom        0.040646     -0.036766     -0.003881
 --------------------------------------------------------
                        XY            XZ            YZ
 --------------------------------------------------------
     1   Atom        0.000000      0.000000      0.000000
     2   Atom       -0.000000      0.000000     -0.000000
     3   Atom       -0.067041     -0.000000      0.000000
     4   Atom        0.067041      0.000000      0.000000
 --------------------------------------------------------


 ---------------------------------------------------------------------------------
              Anisotropic Spin Dipole Couplings in Principal Axis System
 ---------------------------------------------------------------------------------

       Atom             a.u.   MegaHertz   Gauss  10(-4) cm-1        Axes

              Baa    -0.5669   -76.068   -27.143   -25.374  0.0000  1.0000 -0.0000
     1 C(13)  Bbb    -0.5669   -76.068   -27.143   -25.374  1.0000 -0.0000  0.0000
              Bcc     1.1337   152.137    54.286    50.747  0.0000  0.0000  1.0000
 
              Baa    -0.0755   -40.268   -14.369   -13.432  1.0000  0.0000  0.0000
     2 H(1)   Bbb    -0.0039    -2.070    -0.739    -0.691  0.0000  0.0000  1.0000
              Bcc     0.0794    42.339    15.107    14.123 -0.0000  1.0000 -0.0000
 
              Baa    -0.0755   -40.268   -14.369   -13.432  0.5000  0.8660 -0.0000
     3 H(1)   Bbb    -0.0039    -2.070    -0.739    -0.691  0.0000  0.0000  1.0000
              Bcc     0.0794    42.339    15.107    14.123  0.8660 -0.5000  0.0000
 
              Baa    -0.0755   -40.268   -14.369   -13.432 -0.5000  0.8660 -0.0000
     4 H(1)   Bbb    -0.0039    -2.070    -0.739    -0.691  0.0000  0.0000  1.0000
              Bcc     0.0794    42.339    15.107    14.123  0.8660  0.5000 -0.0000
 

 ---------------------------------------------------------------------------------

 PrsmSu:  requested number of processors reduced to:  21 ShMem   1 Linda.
 No NMR shielding tensors so no spin-rotation constants.
 Leave Link  601 at Sat Apr 17 11:25:18 2021, MaxMem=   104857600 cpu:             550.5 elap:              11.9
 (Enter /s/ls4/users/knvvv/bin/g16sse/l801.exe)
 DoSCS=F DFT=T ScalE2(SS,OS)=  1.000000  1.000000
 Range of M.O.s used for correlation:     1   162
 NBasis=   162 NAE=     5 NBE=     4 NFC=     0 NFV=     0
 NROrb=    162 NOA=     5 NOB=     4 NVA=   157 NVB=   158

 **** Warning!!: The largest alpha MO coefficient is  0.11463731D+03


 **** Warning!!: The largest beta MO coefficient is  0.10288668D+03

 Leave Link  801 at Sat Apr 17 11:25:18 2021, MaxMem=   104857600 cpu:               4.1 elap:               0.1
 (Enter /s/ls4/users/knvvv/bin/g16sse/l914.exe)
 UHF ground state
 Doing stability rather than CIS.
 Two-electron integrals replicated using symmetry.
 MDV=   104857600 DFT=T DoStab=T Mixed=T DoRPA=F DoScal=F NonHer=F
 Making orbital integer symmetry assigments:
 Orbital symmetries:
 Alpha Orbitals:
       Occupied  (A1') (A1') (E') (E') (A2")
       Virtual   (A1') (E') (E') (E') (E') (A1') (A2") (E") (E")
                 (A1') (A2') (A1') (E') (E') (E") (E") (A2") (E')
                 (E') (E') (E') (A1') (E') (E') (E") (E") (A1')
                 (E') (E') (A2") (A1') (A2') (E') (E') (A2") (E")
                 (E") (E') (E') (A1') (A1') (E') (E') (E') (E')
                 (E") (E") (A1') (E') (E') (E") (E") (A2') (A2")
                 (A1') (A1") (E') (E') (E") (E") (A2") (E') (E')
                 (A1') (E') (E') (A2") (A2') (A1') (E') (E') (E")
                 (E") (A1') (E') (E') (E") (E") (A2") (A1') (E')
                 (E') (E') (E') (A2') (A1') (E') (E') (A1") (E")
                 (E") (E") (E") (A2") (A2') (E') (E') (A2") (A2')
                 (E") (E") (A1') (E') (E') (A1') (E') (E') (A2")
                 (E") (E") (E') (E') (A1') (E') (E') (E") (E")
                 (E') (E') (A1") (A2") (E") (E") (E') (E') (A1')
                 (A1') (A2') (E") (E") (E') (E') (A1') (E') (E')
                 (A1') (E") (E") (A2") (A1") (A2') (E') (E') (E')
                 (E') (E") (E") (A1') (A2") (A2') (E') (E') (E')
                 (E') (A1') (A1') (A1')
 Beta  Orbitals:
       Occupied  (A1') (A1') (E') (E')
       Virtual   (A2") (A1') (E') (E') (A1') (E') (E') (E") (E")
                 (A2") (A1') (A1') (A2') (E') (E') (E") (E") (A2")
                 (E') (E') (E') (E') (A1') (E') (E') (A1') (E")
                 (E") (E') (E') (A1') (A2') (A2") (E') (E') (A2")
                 (E") (E") (A1') (E') (E') (A1') (E') (E') (E')
                 (E') (A1') (E") (E") (E") (E") (E') (E') (A2')
                 (A2") (A1') (A1") (E') (E') (E") (E") (A2") (E')
                 (E') (A1') (E') (E') (A2") (A2') (A1') (E') (E')
                 (E") (E") (A1') (E') (E') (E") (E") (A2") (A1')
                 (E') (E') (E') (E') (A2') (A1') (E') (E') (A1")
                 (E") (E") (E") (E") (A2") (A2') (E') (E') (A2")
                 (A2') (E") (E") (A1') (E') (E') (A2") (A1') (E')
                 (E') (E') (E') (E") (E") (A1') (E') (E') (E")
                 (E") (E') (E') (A1") (A2") (E") (E") (E') (E')
                 (A1') (A1') (A2') (E") (E") (A1') (E') (E') (E')
                 (E') (A1') (E") (E") (A2") (A1") (A2') (E') (E')
                 (E') (E') (E") (E") (A1') (A2") (A2') (E') (E')
                 (E') (E') (A1') (A1') (A1')
    12 initial guesses have been made.
 Convergence on wavefunction:    0.001000000000000
 Davidson Disk Diagonalization:  ConvIn= 1.00D-03 SkipCon=T Conv= 1.00D-03.
 Max sub-space:  2000 roots to seek:    12 dimension of matrix:         1417
 Iteration     1 Dimension    12 NMult     0 NNew     12
 Estimated number of processors is:   20
 CISAX will form     1 AO SS matrices at one time.
 NMat=     1 NSing=     1 JSym2X= 2.
 FoFJK:  IHMeth= 1 ICntrl=       0 DoSepK=F KAlg= 0 I1Cent=           0 FoldK=F
 IRaf= 990000000 NMat=       1 IRICut=       1 DoRegI=T DoRafI=F ISym2E= 2 IDoP0=0 IntGTp=1.
 FoFCou: FMM=F IPFlag=           0 FMFlag=      100000 FMFlg1=           0
         NFxFlg=           0 DoJE=F BraDBF=F KetDBF=F FulRan=T
         wScrn=  0.000000 ICntrl=         0 IOpCl=  1 I1Cent=           0 NGrid=           0
         NMat0=    1 NMatS0=      1 NMatT0=    0 NMatD0=    1 NMtDS0=    0 NMtDT0=    0
 Integrals replicated using symmetry in FoFCou.
 CoulSu:  requested number of processors reduced to:  18 ShMem   1 Linda.
 NMat=     1 NSing=     1 JSym2X= 2.
 CoulSu:  requested number of processors reduced to:  18 ShMem   1 Linda.
 NMat=     1 NSing=     1 JSym2X= 2.
 CoulSu:  requested number of processors reduced to:  18 ShMem   1 Linda.
 NMat=     1 NSing=     1 JSym2X= 2.
 CoulSu:  requested number of processors reduced to:  18 ShMem   1 Linda.
 NMat=     1 NSing=     1 JSym2X= 2.
 CoulSu:  requested number of processors reduced to:  18 ShMem   1 Linda.
 NMat=     1 NSing=     1 JSym2X= 2.
 CoulSu:  requested number of processors reduced to:  18 ShMem   1 Linda.
 NMat=     1 NSing=     1 JSym2X= 2.
 CoulSu:  requested number of processors reduced to:  18 ShMem   1 Linda.
 NMat=     1 NSing=     1 JSym2X= 2.
 CoulSu:  requested number of processors reduced to:  18 ShMem   1 Linda.
 NMat=     1 NSing=     1 JSym2X= 2.
 CoulSu:  requested number of processors reduced to:  18 ShMem   1 Linda.
 NMat=     1 NSing=     1 JSym2X= 2.
 CoulSu:  requested number of processors reduced to:  18 ShMem   1 Linda.
 NMat=     1 NSing=     1 JSym2X= 2.
 CoulSu:  requested number of processors reduced to:  18 ShMem   1 Linda.
 NMat=     1 NSing=     1 JSym2X= 2.
 CoulSu:  requested number of processors reduced to:  18 ShMem   1 Linda.
 Excitation Energies [eV] at current iteration:
 Root      1 :     5.877998900080959
 Root      2 :     7.405187317517743
 Root      3 :     7.405244255150394
 Root      4 :     7.830540019871753
 Root      5 :     7.830656443157481
 Root      6 :     8.681887012438260
 Root      7 :     8.681900372726847
 Root      8 :     9.190338715655621
 Root      9 :    10.027238972051730
 Root     10 :    10.040915431173130
 Root     11 :    10.418860865262970
 Root     12 :    10.922928479892860
 Iteration     2 Dimension    24 NMult    12 NNew     12
 Estimated number of processors is:   20
 CISAX will form     1 AO SS matrices at one time.
 NMat=     1 NSing=     1 JSym2X= 2.
 CoulSu:  requested number of processors reduced to:  18 ShMem   1 Linda.
 NMat=     1 NSing=     1 JSym2X= 2.
 CoulSu:  requested number of processors reduced to:  18 ShMem   1 Linda.
 NMat=     1 NSing=     1 JSym2X= 2.
 CoulSu:  requested number of processors reduced to:  18 ShMem   1 Linda.
 NMat=     1 NSing=     1 JSym2X= 2.
 CoulSu:  requested number of processors reduced to:  18 ShMem   1 Linda.
 NMat=     1 NSing=     1 JSym2X= 2.
 CoulSu:  requested number of processors reduced to:  18 ShMem   1 Linda.
 NMat=     1 NSing=     1 JSym2X= 2.
 CoulSu:  requested number of processors reduced to:  18 ShMem   1 Linda.
 NMat=     1 NSing=     1 JSym2X= 2.
 CoulSu:  requested number of processors reduced to:  18 ShMem   1 Linda.
 NMat=     1 NSing=     1 JSym2X= 2.
 CoulSu:  requested number of processors reduced to:  18 ShMem   1 Linda.
 NMat=     1 NSing=     1 JSym2X= 2.
 CoulSu:  requested number of processors reduced to:  18 ShMem   1 Linda.
 NMat=     1 NSing=     1 JSym2X= 2.
 CoulSu:  requested number of processors reduced to:  18 ShMem   1 Linda.
 NMat=     1 NSing=     1 JSym2X= 2.
 CoulSu:  requested number of processors reduced to:  18 ShMem   1 Linda.
 NMat=     1 NSing=     1 JSym2X= 2.
 CoulSu:  requested number of processors reduced to:  18 ShMem   1 Linda.
 Root      1 not converged, maximum delta is    0.165128954426716
 Excitation Energies [eV] at current iteration:
 Root      1 :     5.627483634160003   Change is   -0.250515265920955
 Root      2 :     6.732464561829004   Change is   -0.672722755688740
 Root      3 :     6.732550835573268   Change is   -0.672693419577125
 Root      4 :     7.586054518957333   Change is   -0.244485500914420
 Root      5 :     7.586324290213173   Change is   -0.244332152944308
 Root      6 :     8.474135766191200   Change is   -0.207751246247060
 Root      7 :     8.474149267564659   Change is   -0.207751105162189
 Root      8 :     8.583782639870982   Change is   -0.606556075784639
 Root      9 :     9.249284765600876   Change is   -1.169576099662094
 Root     10 :     9.711754151728661   Change is   -0.315484820323066
 Root     11 :     9.725741754112098   Change is   -0.315173677061029
 Root     12 :    10.677337990257520   Change is   -0.245590489635341
 Iteration     3 Dimension    27 NMult    24 NNew      3
 Estimated number of processors is:   20
 CISAX will form     1 AO SS matrices at one time.
 NMat=     1 NSing=     1 JSym2X= 2.
 CoulSu:  requested number of processors reduced to:  18 ShMem   1 Linda.
 NMat=     1 NSing=     1 JSym2X= 2.
 CoulSu:  requested number of processors reduced to:  18 ShMem   1 Linda.
 NMat=     1 NSing=     1 JSym2X= 2.
 CoulSu:  requested number of processors reduced to:  18 ShMem   1 Linda.
 Root      1 not converged, maximum delta is    0.041968040402749
 Excitation Energies [eV] at current iteration:
 Root      1 :     5.591171469897705   Change is   -0.036312164262299
 Root      2 :     6.708111520310534   Change is   -0.024353041518470
 Root      3 :     6.708199758601478   Change is   -0.024351076971791
 Iteration     4 Dimension    30 NMult    27 NNew      3
 Estimated number of processors is:   20
 CISAX will form     1 AO SS matrices at one time.
 NMat=     1 NSing=     1 JSym2X= 2.
 CoulSu:  requested number of processors reduced to:  18 ShMem   1 Linda.
 NMat=     1 NSing=     1 JSym2X= 2.
 CoulSu:  requested number of processors reduced to:  18 ShMem   1 Linda.
 NMat=     1 NSing=     1 JSym2X= 2.
 CoulSu:  requested number of processors reduced to:  18 ShMem   1 Linda.
 Root      1 not converged, maximum delta is    0.011111269541349
 Excitation Energies [eV] at current iteration:
 Root      1 :     5.588103651634681   Change is   -0.003067818263024
 Root      2 :     6.707946828262232   Change is   -0.000164692048302
 Root      3 :     6.708035116425092   Change is   -0.000164642176386
 Iteration     5 Dimension    33 NMult    30 NNew      3
 Estimated number of processors is:   20
 CISAX will form     1 AO SS matrices at one time.
 NMat=     1 NSing=     1 JSym2X= 2.
 CoulSu:  requested number of processors reduced to:  18 ShMem   1 Linda.
 NMat=     1 NSing=     1 JSym2X= 2.
 CoulSu:  requested number of processors reduced to:  18 ShMem   1 Linda.
 NMat=     1 NSing=     1 JSym2X= 2.
 CoulSu:  requested number of processors reduced to:  18 ShMem   1 Linda.
 Root      1 not converged, maximum delta is    0.001619349243173
 Excitation Energies [eV] at current iteration:
 Root      1 :     5.587964456455567   Change is   -0.000139195179115
 Root      2 :     6.707943176712799   Change is   -0.000003651549433
 Root      3 :     6.708031467070319   Change is   -0.000003649354772
 Iteration     6 Dimension    36 NMult    33 NNew      3
 Estimated number of processors is:   20
 CISAX will form     1 AO SS matrices at one time.
 NMat=     1 NSing=     1 JSym2X= 2.
 CoulSu:  requested number of processors reduced to:  18 ShMem   1 Linda.
 NMat=     1 NSing=     1 JSym2X= 2.
 CoulSu:  requested number of processors reduced to:  18 ShMem   1 Linda.
 NMat=     1 NSing=     1 JSym2X= 2.
 CoulSu:  requested number of processors reduced to:  18 ShMem   1 Linda.
 Root      1 has converged.
 Excitation Energies [eV] at current iteration:
 Root      1 :     5.587961118519104   Change is   -0.000003337936463
 Root      2 :     6.707943111666654   Change is   -0.000000065046146
 Root      3 :     6.708031402130909   Change is   -0.000000064939411
 Convergence achieved on expansion vectors.
 ***********************************************************************
 Stability analysis using <AA,BB:AA,BB> singles matrix:
 ***********************************************************************
 1PDM for each excited state written to RWF  633
 Ground to excited state transition densities written to RWF  633

 Eigenvectors of the stability matrix:
 
 Eigenvector   1:  2.008-A2"  Eigenvalue= 0.2053538  <S**2>=0.758
      5A ->  6A        0.95592
      5A -> 11A       -0.18621
      5A -> 15A       -0.18902
 The wavefunction is stable under the perturbations considered.
 Leave Link  914 at Sat Apr 17 11:26:31 2021, MaxMem=   104857600 cpu:            2733.2 elap:              72.9
 (Enter /s/ls4/users/knvvv/bin/g16sse/l508.exe)
 The wavefunction is already stable.
 Leave Link  508 at Sat Apr 17 11:26:31 2021, MaxMem=   104857600 cpu:               2.2 elap:               0.1
 (Enter /s/ls4/users/knvvv/bin/g16sse/l601.exe)
 Copying SCF densities to generalized density rwf, IOpCl= 1 IROHF=0.

 **********************************************************************

            Population analysis using the SCF density.

 **********************************************************************

 Orbital symmetries:
 Alpha Orbitals:
       Occupied  (A1') (A1') (E') (E') (A2")
       Virtual   (A1') (E') (E') (E') (E') (A1') (A2") (E") (E")
                 (A1') (A2') (A1') (E') (E') (E") (E") (A2") (E')
                 (E') (E') (E') (A1') (E') (E') (E") (E") (A1')
                 (E') (E') (A2") (A1') (A2') (E') (E') (A2") (E")
                 (E") (E') (E') (A1') (A1') (E') (E') (E') (E')
                 (E") (E") (A1') (E') (E') (E") (E") (A2') (A2")
                 (A1') (A1") (E') (E') (E") (E") (A2") (E') (E')
                 (A1') (E') (E') (A2") (A2') (A1') (E') (E') (E")
                 (E") (A1') (E') (E') (E") (E") (A2") (A1') (E')
                 (E') (E') (E') (A2') (A1') (E') (E') (A1") (E")
                 (E") (E") (E") (A2") (A2') (E') (E') (A2") (A2')
                 (E") (E") (A1') (E') (E') (A1') (E') (E') (A2")
                 (E") (E") (E') (E') (A1') (E') (E') (E") (E")
                 (E') (E') (A1") (A2") (E") (E") (E') (E') (A1')
                 (A1') (A2') (E") (E") (E') (E') (A1') (E') (E')
                 (A1') (E") (E") (A2") (A1") (A2') (E') (E') (E')
                 (E') (E") (E") (A1') (A2") (A2') (E') (E') (E')
                 (E') (A1') (A1') (A1')
 Beta  Orbitals:
       Occupied  (A1') (A1') (E') (E')
       Virtual   (A2") (A1') (E') (E') (A1') (E') (E') (E") (E")
                 (A2") (A1') (A1') (A2') (E') (E') (E") (E") (A2")
                 (E') (E') (E') (E') (A1') (E') (E') (A1') (E")
                 (E") (E') (E') (A1') (A2') (A2") (E') (E') (A2")
                 (E") (E") (A1') (E') (E') (A1') (E') (E') (E')
                 (E') (A1') (E") (E") (E") (E") (E') (E') (A2')
                 (A2") (A1') (A1") (E') (E') (E") (E") (A2") (E')
                 (E') (A1') (E') (E') (A2") (A2') (A1') (E') (E')
                 (E") (E") (A1') (E') (E') (E") (E") (A2") (A1')
                 (E') (E') (E') (E') (A2') (A1') (E') (E') (A1")
                 (E") (E") (E") (E") (A2") (A2') (E') (E') (A2")
                 (A2') (E") (E") (A1') (E') (E') (A2") (A1') (E')
                 (E') (E') (E') (E") (E") (A1') (E') (E') (E")
                 (E") (E') (E') (A1") (A2") (E") (E") (E') (E')
                 (A1') (A1') (A2') (E") (E") (A1') (E') (E') (E')
                 (E') (A1') (E") (E") (A2") (A1") (A2') (E') (E')
                 (E') (E') (E") (E") (A1') (A2") (A2') (E') (E')
                 (E') (E') (A1') (A1') (A1')
 The electronic state is 2-A2".
 Alpha  occ. eigenvalues --  -10.54819  -0.77880  -0.49138  -0.49138  -0.28787
 Alpha virt. eigenvalues --    0.01453   0.09440   0.09440   0.14631   0.14631
 Alpha virt. eigenvalues --    0.14765   0.18474   0.19065   0.19065   0.21412
 Alpha virt. eigenvalues --    0.25675   0.25950   0.27952   0.27952   0.28647
 Alpha virt. eigenvalues --    0.28647   0.29836   0.33746   0.33746   0.36726
 Alpha virt. eigenvalues --    0.36726   0.40562   0.45187   0.45187   0.61039
 Alpha virt. eigenvalues --    0.61039   0.62029   0.72910   0.72910   0.77460
 Alpha virt. eigenvalues --    0.80336   0.80628   0.87596   0.87596   0.95430
 Alpha virt. eigenvalues --    0.95745   0.95745   1.09834   1.09834   1.13722
 Alpha virt. eigenvalues --    1.25970   1.33550   1.33550   1.38189   1.38189
 Alpha virt. eigenvalues --    1.84838   1.84838   1.85601   1.91779   1.91779
 Alpha virt. eigenvalues --    1.93341   1.93341   1.93992   1.97868   2.00341
 Alpha virt. eigenvalues --    2.03401   2.14866   2.14866   2.41938   2.41938
 Alpha virt. eigenvalues --    2.44347   2.46115   2.46115   2.59117   2.62463
 Alpha virt. eigenvalues --    2.62463   2.67117   2.74760   2.79720   2.82400
 Alpha virt. eigenvalues --    2.82400   2.82429   2.82429   3.17931   3.30848
 Alpha virt. eigenvalues --    3.30848   3.38977   3.38977   3.50191   3.62970
 Alpha virt. eigenvalues --    3.76573   3.76573   3.91486   3.91486   4.09959
 Alpha virt. eigenvalues --    5.01614   5.04945   5.04945   5.06677   5.19433
 Alpha virt. eigenvalues --    5.19433   5.43268   5.43268   5.45048   5.46989
 Alpha virt. eigenvalues --    5.68275   5.68275   5.69934   5.82805   5.83415
 Alpha virt. eigenvalues --    5.83415   5.86451   5.90896   5.90896   6.25361
 Alpha virt. eigenvalues --    6.27030   6.27030   6.28611   6.55861   6.55861
 Alpha virt. eigenvalues --    6.58014   6.58014   6.76024   6.91397   6.91397
 Alpha virt. eigenvalues --    7.02015   7.02015   7.26329   7.26329   7.29504
 Alpha virt. eigenvalues --    7.32515   7.40628   7.40628   7.44566   7.44566
 Alpha virt. eigenvalues --    7.52410   7.82094   7.92945   7.99689   7.99689
 Alpha virt. eigenvalues --    7.99897   7.99897   8.00285   8.10788   8.10788
 Alpha virt. eigenvalues --    8.19707   8.24389   8.24389   8.51420   8.58628
 Alpha virt. eigenvalues --    8.84776   8.95467   8.95467   9.33156   9.33156
 Alpha virt. eigenvalues --    9.58578   9.58578   9.61270   9.64243  10.10416
 Alpha virt. eigenvalues --   10.80898  10.80898  11.25255  11.25255  13.04162
 Alpha virt. eigenvalues --   28.67565 146.20197
  Beta  occ. eigenvalues --  -10.54080  -0.73053  -0.47868  -0.47868
  Beta virt. eigenvalues --   -0.04149   0.01801   0.09326   0.09326   0.12767
  Beta virt. eigenvalues --    0.13682   0.13682   0.15638   0.15638   0.18248
  Beta virt. eigenvalues --    0.19838   0.25236   0.25392   0.25832   0.25832
  Beta virt. eigenvalues --    0.26700   0.26700   0.26761   0.34283   0.34283
  Beta virt. eigenvalues --    0.36902   0.36902   0.42073   0.44177   0.44177
  Beta virt. eigenvalues --    0.58974   0.61695   0.61695   0.71991   0.71991
  Beta virt. eigenvalues --    0.77847   0.80393   0.80470   0.84668   0.84668
  Beta virt. eigenvalues --    0.89092   0.92719   0.92719   1.07782   1.08879
  Beta virt. eigenvalues --    1.08879   1.24975   1.29963   1.29963   1.37551
  Beta virt. eigenvalues --    1.37551   1.83783   1.85919   1.85919   1.91421
  Beta virt. eigenvalues --    1.91421   1.93314   1.93314   1.94794   1.95589
  Beta virt. eigenvalues --    2.01033   2.03794   2.14945   2.14945   2.41853
  Beta virt. eigenvalues --    2.41853   2.44435   2.45865   2.45865   2.59706
  Beta virt. eigenvalues --    2.62082   2.62082   2.67144   2.76310   2.80322
  Beta virt. eigenvalues --    2.81415   2.81415   2.81589   2.81589   3.19946
  Beta virt. eigenvalues --    3.31054   3.31054   3.40700   3.40700   3.52953
  Beta virt. eigenvalues --    3.67096   3.79513   3.79513   3.93056   3.93056
  Beta virt. eigenvalues --    4.10605   5.06590   5.10226   5.10226   5.14113
  Beta virt. eigenvalues --    5.28277   5.28277   5.52523   5.52523   5.54419
  Beta virt. eigenvalues --    5.54841   5.77257   5.77257   5.79423   5.82668
  Beta virt. eigenvalues --    5.86697   5.86697   5.91775   5.93716   5.93716
  Beta virt. eigenvalues --    6.35530   6.35793   6.36258   6.36258   6.62814
  Beta virt. eigenvalues --    6.62814   6.72433   6.72433   6.88898   6.96639
  Beta virt. eigenvalues --    6.96639   7.06548   7.06548   7.26972   7.26972
  Beta virt. eigenvalues --    7.30149   7.36016   7.45494   7.45494   7.49283
  Beta virt. eigenvalues --    7.49283   7.57373   7.84978   7.92788   8.00519
  Beta virt. eigenvalues --    8.00519   8.01218   8.03112   8.03112   8.19984
  Beta virt. eigenvalues --    8.19984   8.29170   8.31917   8.31917   8.58035
  Beta virt. eigenvalues --    8.65875   8.92100   8.99923   8.99923   9.41358
  Beta virt. eigenvalues --    9.41358   9.72938   9.72938   9.75195   9.83977
  Beta virt. eigenvalues --   10.19301  10.95401  10.95401  11.40877  11.40877
  Beta virt. eigenvalues --   13.28583  28.84595 146.22985
          Condensed to atoms (all electrons):
               1          2          3          4
     1  C    5.820747   0.332771   0.332771   0.332771
     2  H    0.332771   0.562666  -0.084228  -0.084228
     3  H    0.332771  -0.084228   0.562666  -0.084228
     4  H    0.332771  -0.084228  -0.084228   0.562666
          Atomic-Atomic Spin Densities.
               1          2          3          4
     1  C    0.969525   0.023021   0.023021   0.023021
     2  H    0.023021  -0.090850   0.027483   0.027483
     3  H    0.023021   0.027483  -0.090850   0.027483
     4  H    0.023021   0.027483   0.027483  -0.090850
 Mulliken charges and spin densities:
               1          2
     1  C   -0.819059   1.038587
     2  H    0.273020  -0.012862
     3  H    0.273020  -0.012862
     4  H    0.273020  -0.012862
 Sum of Mulliken charges =  -0.00000   1.00000
 Mulliken charges and spin densities with hydrogens summed into heavy atoms:
               1          2
     1  C   -0.000000   1.000000
 Electronic spatial extent (au):  <R**2>=             30.0478
 Charge=             -0.0000 electrons
 Dipole moment (field-independent basis, Debye):
    X=             -0.0000    Y=             -0.0000    Z=              0.0000  Tot=              0.0000
 Quadrupole moment (field-independent basis, Debye-Ang):
   XX=             -7.2692   YY=             -7.2692   ZZ=             -9.1412
   XY=             -0.0000   XZ=             -0.0000   YZ=             -0.0000
 Traceless Quadrupole moment (field-independent basis, Debye-Ang):
   XX=              0.6240   YY=              0.6240   ZZ=             -1.2480
   XY=             -0.0000   XZ=             -0.0000   YZ=             -0.0000
 Octapole moment (field-independent basis, Debye-Ang**2):
  XXX=             -0.0000  YYY=              0.9317  ZZZ=              0.0000  XYY=              0.0000
  XXY=             -0.9317  XXZ=              0.0000  XZZ=             -0.0000  YZZ=             -0.0000
  YYZ=             -0.0000  XYZ=              0.0000
 Hexadecapole moment (field-independent basis, Debye-Ang**3):
 XXXX=            -15.0241 YYYY=            -15.0241 ZZZZ=            -11.6758 XXXY=              0.0000
 XXXZ=             -0.0000 YYYX=              0.0000 YYYZ=             -0.0000 ZZZX=             -0.0000
 ZZZY=             -0.0000 XXYY=             -5.0080 XXZZ=             -4.9011 YYZZ=             -4.9011
 XXYZ=             -0.0000 YYXZ=             -0.0000 ZZXY=              0.0000
 N-N= 9.688922345811D+00 E-N=-1.112980929299D+02  KE= 3.964462631504D+01
                          Isotropic Fermi Contact Couplings
        Atom                 a.u.       MegaHertz       Gauss      10(-4) cm-1
     1  C(13)              0.17934     201.61756      71.94216      67.25238
     2  H(1)              -0.01661     -74.23197     -26.48781     -24.76112
     3  H(1)              -0.01661     -74.23197     -26.48781     -24.76112
     4  H(1)              -0.01661     -74.23197     -26.48781     -24.76112
 PrsmSu:  requested number of processors reduced to:  21 ShMem   1 Linda.
 --------------------------------------------------------
       Center         ----  Spin Dipole Couplings  ----
                      3XX-RR        3YY-RR        3ZZ-RR
 --------------------------------------------------------
     1   Atom       -0.566870     -0.566870      1.133739
     2   Atom       -0.075472      0.079352     -0.003881
     3   Atom        0.040646     -0.036766     -0.003881
     4   Atom        0.040646     -0.036766     -0.003881
 --------------------------------------------------------
                        XY            XZ            YZ
 --------------------------------------------------------
     1   Atom        0.000000      0.000000      0.000000
     2   Atom       -0.000000      0.000000     -0.000000
     3   Atom       -0.067041     -0.000000      0.000000
     4   Atom        0.067041      0.000000      0.000000
 --------------------------------------------------------


 ---------------------------------------------------------------------------------
              Anisotropic Spin Dipole Couplings in Principal Axis System
 ---------------------------------------------------------------------------------

       Atom             a.u.   MegaHertz   Gauss  10(-4) cm-1        Axes

              Baa    -0.5669   -76.068   -27.143   -25.374  0.0000  1.0000 -0.0000
     1 C(13)  Bbb    -0.5669   -76.068   -27.143   -25.374  1.0000 -0.0000  0.0000
              Bcc     1.1337   152.137    54.286    50.747  0.0000  0.0000  1.0000
 
              Baa    -0.0755   -40.268   -14.369   -13.432  1.0000  0.0000  0.0000
     2 H(1)   Bbb    -0.0039    -2.070    -0.739    -0.691  0.0000  0.0000  1.0000
              Bcc     0.0794    42.339    15.107    14.123 -0.0000  1.0000 -0.0000
 
              Baa    -0.0755   -40.268   -14.369   -13.432  0.5000  0.8660 -0.0000
     3 H(1)   Bbb    -0.0039    -2.070    -0.739    -0.691  0.0000  0.0000  1.0000
              Bcc     0.0794    42.339    15.107    14.123  0.8660 -0.5000  0.0000
 
              Baa    -0.0755   -40.268   -14.369   -13.432 -0.5000  0.8660 -0.0000
     4 H(1)   Bbb    -0.0039    -2.070    -0.739    -0.691  0.0000  0.0000  1.0000
              Bcc     0.0794    42.339    15.107    14.123  0.8660  0.5000 -0.0000
 

 ---------------------------------------------------------------------------------

 PrsmSu:  requested number of processors reduced to:  21 ShMem   1 Linda.
 No NMR shielding tensors so no spin-rotation constants.
 Leave Link  601 at Sat Apr 17 11:26:43 2021, MaxMem=   104857600 cpu:             536.1 elap:              11.6
 (Enter /s/ls4/users/knvvv/bin/g16sse/l9999.exe)

 Test job not archived.
 1\1\GINC-N146\Stability\UM062X\Gen\C1H3(2)\KNVVV\17-Apr-2021\0\\#P M06
 2X/GEN Integral=UltraFineGrid SCF=NoSymm Stable=(RExt, Opt) IOp(1/33=1
 )\\Database calculations.\\0,2\C,0,0.,0.,0.\H,0,0.,0.,1.0777\H,0,0.933
 3155777,0.,-0.53885\H,0,-0.9333155777,0.,-0.53885\\Version=ES64L-G16Re
 vA.03\State=2-A2"\HF=-39.8295572\S2=0.75473\S2-1=0.\S2A=0.750015\RMSD=
 2.726e-09\Dipole=0.,0.,0.\Quadrupole=0.46393,-0.9278601,0.46393,0.,0.,
 0.\PG=D03H [O(C1),3C2(H1)]\\@


 TO BEHOLD HARMS OF OUR OWN HANDS DOING,
 WHERE NONE BESIDE US WROUGHT,
 CAUSES SHARP RUING...

                                         SOPHOCLES
 Job cpu time:       0 days  7 hours  8 minutes 44.8 seconds.
 Elapsed time:       0 days  0 hours  9 minutes 25.8 seconds.
 File lengths (MBytes):  RWF=     73 Int=      0 D2E=      0 Chk=      4 Scr=      1
 Normal termination of Gaussian 16 at Sat Apr 17 11:26:43 2021.
