 Entering Gaussian System, Link 0=/s/ls4/users/knvvv/bin/g16sse/g16
 Input=data/database/M062X--def2-QZVPPD--23_Al_AE18.gjf
 Output=data/database/M062X--def2-QZVPPD--23_Al_AE18.log
 Initial command:
 /s/ls4/users/knvvv/bin/g16sse/l1.exe "/s/ls4/users/knvvv/bin/scratch/Gau-27169.inp" -scrdir="/s/ls4/users/knvvv/bin/scratch/"
 Entering Link 1 = /s/ls4/users/knvvv/bin/g16sse/l1.exe PID=     27170.
  
 Copyright (c) 1988,1990,1992,1993,1995,1998,2003,2009,2016,
            Gaussian, Inc.  All Rights Reserved.
  
 This is part of the Gaussian(R) 16 program.  It is based on
 the Gaussian(R) 09 system (copyright 2009, Gaussian, Inc.),
 the Gaussian(R) 03 system (copyright 2003, Gaussian, Inc.),
 the Gaussian(R) 98 system (copyright 1998, Gaussian, Inc.),
 the Gaussian(R) 94 system (copyright 1995, Gaussian, Inc.),
 the Gaussian 92(TM) system (copyright 1992, Gaussian, Inc.),
 the Gaussian 90(TM) system (copyright 1990, Gaussian, Inc.),
 the Gaussian 88(TM) system (copyright 1988, Gaussian, Inc.),
 the Gaussian 86(TM) system (copyright 1986, Carnegie Mellon
 University), and the Gaussian 82(TM) system (copyright 1983,
 Carnegie Mellon University). Gaussian is a federally registered
 trademark of Gaussian, Inc.
  
 This software contains proprietary and confidential information,
 including trade secrets, belonging to Gaussian, Inc.
  
 This software is provided under written license and may be
 used, copied, transmitted, or stored only in accord with that
 written license.
  
 The following legend is applicable only to US Government
 contracts under FAR:
  
                    RESTRICTED RIGHTS LEGEND
  
 Use, reproduction and disclosure by the US Government is
 subject to restrictions as set forth in subparagraphs (a)
 and (c) of the Commercial Computer Software - Restricted
 Rights clause in FAR 52.227-19.
  
 Gaussian, Inc.
 340 Quinnipiac St., Bldg. 40, Wallingford CT 06492
  
  
 ---------------------------------------------------------------
 Warning -- This program may not be used in any manner that
 competes with the business of Gaussian, Inc. or will provide
 assistance to any competitor of Gaussian, Inc.  The licensee
 of this program is prohibited from giving any competitor of
 Gaussian, Inc. access to this program.  By using this program,
 the user acknowledges that Gaussian, Inc. is engaged in the
 business of creating and licensing software in the field of
 computational chemistry and represents and warrants to the
 licensee that it is not a competitor of Gaussian, Inc. and that
 it will not use this program in any manner prohibited above.
 ---------------------------------------------------------------
  

 Cite this work as:
 Gaussian 16, Revision A.03,
 M. J. Frisch, G. W. Trucks, H. B. Schlegel, G. E. Scuseria, 
 M. A. Robb, J. R. Cheeseman, G. Scalmani, V. Barone, 
 G. A. Petersson, H. Nakatsuji, X. Li, M. Caricato, A. V. Marenich, 
 J. Bloino, B. G. Janesko, R. Gomperts, B. Mennucci, H. P. Hratchian, 
 J. V. Ortiz, A. F. Izmaylov, J. L. Sonnenberg, D. Williams-Young, 
 F. Ding, F. Lipparini, F. Egidi, J. Goings, B. Peng, A. Petrone, 
 T. Henderson, D. Ranasinghe, V. G. Zakrzewski, J. Gao, N. Rega, 
 G. Zheng, W. Liang, M. Hada, M. Ehara, K. Toyota, R. Fukuda, 
 J. Hasegawa, M. Ishida, T. Nakajima, Y. Honda, O. Kitao, H. Nakai, 
 T. Vreven, K. Throssell, J. A. Montgomery, Jr., J. E. Peralta, 
 F. Ogliaro, M. J. Bearpark, J. J. Heyd, E. N. Brothers, K. N. Kudin, 
 V. N. Staroverov, T. A. Keith, R. Kobayashi, J. Normand, 
 K. Raghavachari, A. P. Rendell, J. C. Burant, S. S. Iyengar, 
 J. Tomasi, M. Cossi, J. M. Millam, M. Klene, C. Adamo, R. Cammi, 
 J. W. Ochterski, R. L. Martin, K. Morokuma, O. Farkas, 
 J. B. Foresman, and D. J. Fox, Gaussian, Inc., Wallingford CT, 2016.
 
 ******************************************
 Gaussian 16:  ES64L-G16RevA.03 25-Dec-2016
                17-Apr-2021 
 ******************************************
 %RWF=temp5_38919,70GB
 %nprocshared=48
 Will use up to   48 processors via shared memory.
 Default route: MaxDisk=80GB
 ----------------------------------------------------------------------
 #P M062X/GEN Integral=UltraFineGrid SCF=NoSymm Stable=(RExt, Opt) IOp(
 1/33=1)
 ----------------------------------------------------------------------
 1/33=1,38=1,172=1/1;
 2/12=2,17=6,18=5,40=1/2;
 3/5=7,11=2,25=1,30=1,74=-55,75=-5/1,2,3;
 4/9=2/1;
 5/5=2,38=5/2;
 6/7=2,8=2,9=2,10=2,28=1/1;
 8/6=1,10=90,11=11/1;
 9/8=-3,42=1,46=1/14;
 5/5=2,8=3,17=40,38=5/8(-2);
 6/7=2,8=2,9=2,10=2,28=1/1;
 99/5=1,9=1/99;
 Leave Link    1 at Sat Apr 17 20:50:15 2021, MaxMem=           0 cpu:              10.8 elap:               0.2
 (Enter /s/ls4/users/knvvv/bin/g16sse/l101.exe)
 ONIOM data not found on unit 2.
 ----------------------
 Database calculations.
 ----------------------
 TstMul:  ICh=     0
 TstMul:  Mul=     2
 TstMul:  ICh=     0
 TstMul:  Mul=     2
 Symbolic Z-matrix:
 Charge =  0 Multiplicity = 2
 Al                    0.        0.        0. 
 
 RdStrC is calling ZToCFu for IStruc=1 NZ=     1.
 PrtBox:  NBox=     1 Levels=  0 BoxLen=    8.00 SMaxX=        0.00
          Shift=            0.000000            0.000000            0.000000
 Box      1 Number                   0 centers from      1 to      1:
 After GenITR:
 ITRead=  0
 MicOpt= -1
 ITRead=  0
 MicOpt= -1
 NAtoms=      1 NQM=        1 NQMF=       0 NMMI=      0 NMMIF=      0
                NMic=       0 NMicF=      0.
                    Isotopes and Nuclear Properties:
 (Nuclear quadrupole moments (NQMom) in fm**2, nuclear magnetic moments (NMagM)
  in nuclear magnetons)

  Atom         1
 IAtWgt=          27
 AtmWgt=  26.9815413
 NucSpn=           5
 AtZEff=  -0.0000000
 NQMom=   14.6600000
 NMagM=    3.6415040
 AtZNuc=  13.0000000
 No MM parameters found.
 Leave Link  101 at Sat Apr 17 20:50:15 2021, MaxMem=   104857600 cpu:               8.1 elap:               0.2
 (Enter /s/ls4/users/knvvv/bin/g16sse/l202.exe)
                          Input orientation:                          
 ---------------------------------------------------------------------
 Center     Atomic      Atomic             Coordinates (Angstroms)
 Number     Number       Type             X           Y           Z
 ---------------------------------------------------------------------
      1         13           0        0.000000    0.000000    0.000000
 ---------------------------------------------------------------------
 Stoichiometry    Al(2)
 Framework group  OH[O(Al)]
 Deg. of freedom     0
 Full point group                 OH      NOp  48
 Largest Abelian subgroup         D2H     NOp   8
 Largest concise Abelian subgroup C1      NOp   1
                         Standard orientation:                         
 ---------------------------------------------------------------------
 Center     Atomic      Atomic             Coordinates (Angstroms)
 Number     Number       Type             X           Y           Z
 ---------------------------------------------------------------------
      1         13           0        0.000000    0.000000    0.000000
 ---------------------------------------------------------------------
 Leave Link  202 at Sat Apr 17 20:50:16 2021, MaxMem=   104857600 cpu:              30.3 elap:               0.7
 (Enter /s/ls4/users/knvvv/bin/g16sse/l301.exe)
 General basis read from cards:  (5D, 7F)
 Centers:       1
 S 10 1.00
     Exponent=  7.5455078265D+05 Coefficients=  1.3421335886D-05
     Exponent=  1.1299938922D+05 Coefficients=  1.0433210786D-04
     Exponent=  2.5715831759D+04 Coefficients=  5.4841772080D-04
     Exponent=  7.2836030283D+03 Coefficients=  2.3089081391D-03
     Exponent=  2.3760008796D+03 Coefficients=  8.3309974593D-03
     Exponent=  8.5765468087D+02 Coefficients=  2.6417963653D-02
     Exponent=  3.3438922598D+02 Coefficients=  7.3443646426D-02
     Exponent=  1.3848504731D+02 Coefficients=  1.7184039139D-01
     Exponent=  6.0150368808D+01 Coefficients=  3.1041980030D-01
     Exponent=  2.7127610860D+01 Coefficients=  3.5669190596D-01
 S 3 1.00
     Exponent=  2.2536500065D+02 Coefficients=  2.1522039783D-02
     Exponent=  6.9341968124D+01 Coefficients=  1.8531780493D-01
     Exponent=  2.6619335712D+01 Coefficients=  6.3533181245D-01
 S 1 1.00
     Exponent=  1.2349420671D+01 Coefficients=  1.0000000000D+00
 S 1 1.00
     Exponent=  4.5878785994D+00 Coefficients=  1.0000000000D+00
 S 1 1.00
     Exponent=  2.0571338103D+00 Coefficients=  1.0000000000D+00
 S 1 1.00
     Exponent=  9.0864549395D-01 Coefficients=  1.0000000000D+00
 S 1 1.00
     Exponent=  2.4226988038D-01 Coefficients=  1.0000000000D+00
 S 1 1.00
     Exponent=  1.1248136869D-01 Coefficients=  1.0000000000D+00
 S 1 1.00
     Exponent=  4.8156492817D-02 Coefficients=  1.0000000000D+00
 S 1 1.00
     Exponent=  2.1134849794D-02 Coefficients=  1.0000000000D+00
 P 8 1.00
     Exponent=  1.4896119522D+03 Coefficients=  2.0177122443D-04
     Exponent=  3.5301399267D+02 Coefficients=  1.7508109203D-03
     Exponent=  1.1440764069D+02 Coefficients=  9.4424704664D-03
     Exponent=  4.3312186111D+01 Coefficients=  3.6868004006D-02
     Exponent=  1.8027322216D+01 Coefficients=  1.0892874007D-01
     Exponent=  7.9675432403D+00 Coefficients=  2.3265901004D-01
     Exponent=  3.6090399541D+00 Coefficients=  3.4643587076D-01
     Exponent=  1.6456081630D+00 Coefficients=  3.3440809866D-01
 P 2 1.00
     Exponent=  3.4731187489D+01 Coefficients=  1.7823073020D-02
     Exponent=  1.2553083630D+00 Coefficients= -5.9991263926D-01
 P 1 1.00
     Exponent=  7.3635534282D-01 Coefficients=  1.0000000000D+00
 P 1 1.00
     Exponent=  2.4686465559D-01 Coefficients=  1.0000000000D+00
 P 1 1.00
     Exponent=  9.4821971828D-02 Coefficients=  1.0000000000D+00
 P 1 1.00
     Exponent=  3.6214165654D-02 Coefficients=  1.0000000000D+00
 D 1 1.00
     Exponent=  1.9700000000D+00 Coefficients=  1.0000000000D+00
 D 1 1.00
     Exponent=  4.3700000000D-01 Coefficients=  1.0000000000D+00
 D 1 1.00
     Exponent=  1.9500000000D-01 Coefficients=  1.0000000000D+00
 D 1 1.00
     Exponent=  8.0000000000D-02 Coefficients=  1.0000000000D+00
 D 1 1.00
     Exponent=  3.0664004967D-02 Coefficients=  1.0000000000D+00
 F 1 1.00
     Exponent=  4.0100000000D-01 Coefficients=  1.0000000000D+00
 F 1 1.00
     Exponent=  1.5400000000D-01 Coefficients=  1.0000000000D+00
 G 1 1.00
     Exponent=  3.5700000000D-01 Coefficients=  1.0000000000D+00
 ****
 Ernie: Thresh=  0.10000D-02 Tol=  0.10000D-05 Strict=F.
 There are    31 symmetry adapted cartesian basis functions of AG  symmetry.
 There are     8 symmetry adapted cartesian basis functions of B1G symmetry.
 There are     8 symmetry adapted cartesian basis functions of B2G symmetry.
 There are     8 symmetry adapted cartesian basis functions of B3G symmetry.
 There are     2 symmetry adapted cartesian basis functions of AU  symmetry.
 There are    12 symmetry adapted cartesian basis functions of B1U symmetry.
 There are    12 symmetry adapted cartesian basis functions of B2U symmetry.
 There are    12 symmetry adapted cartesian basis functions of B3U symmetry.
 There are    23 symmetry adapted basis functions of AG  symmetry.
 There are     7 symmetry adapted basis functions of B1G symmetry.
 There are     7 symmetry adapted basis functions of B2G symmetry.
 There are     7 symmetry adapted basis functions of B3G symmetry.
 There are     2 symmetry adapted basis functions of AU  symmetry.
 There are    10 symmetry adapted basis functions of B1U symmetry.
 There are    10 symmetry adapted basis functions of B2U symmetry.
 There are    10 symmetry adapted basis functions of B3U symmetry.
    76 basis functions,   128 primitive gaussians,    93 cartesian basis functions
     7 alpha electrons        6 beta electrons
       nuclear repulsion energy         0.0000000000 Hartrees.
 IExCor= 4336 DFT=T Ex+Corr=M062X ExCW=0 ScaHFX=  0.540000
 ScaDFX=  1.000000  1.000000  1.000000  1.000000 ScalE2=  1.000000  1.000000
 IRadAn=      5 IRanWt=     -1 IRanGd=            0 ICorTp=0 IEmpDi=  4
 NAtoms=    1 NActive=    1 NUniq=    1 SFac= 1.00D+00 NAtFMM=   60 NAOKFM=F Big=F
 Integral buffers will be    131072 words long.
 Raffenetti 2 integral format.
 Two-electron integral symmetry is turned on.
 Leave Link  301 at Sat Apr 17 20:50:16 2021, MaxMem=   104857600 cpu:               7.9 elap:               0.2
 (Enter /s/ls4/users/knvvv/bin/g16sse/l302.exe)
 NPDir=0 NMtPBC=     1 NCelOv=     1 NCel=       1 NClECP=     1 NCelD=      1
         NCelK=      1 NCelE2=     1 NClLst=     1 CellRange=     0.0.
 One-electron integrals computed using PRISM.
 One-electron integral symmetry used in STVInt
 PrsmSu:  requested number of processors reduced to:   4 ShMem   1 Linda.
 PrsmSu:  requested number of processors reduced to:  21 ShMem   1 Linda.
 NBasis=    76 RedAO= T EigKep=  2.88D-03  NBF=    23     7     7     7     2    10    10    10
 NBsUse=    76 1.00D-06 EigRej= -1.00D+00 NBFU=    23     7     7     7     2    10    10    10
 Precomputing XC quadrature grid using
 IXCGrd= 4 IRadAn=           5 IRanWt=          -1 IRanGd=           0 AccXCQ= 0.00D+00.
 Generated NRdTot=       0 NPtTot=           0 NUsed=           0 NTot=          32
 NSgBfM=    93    93    93    93    93 MxSgAt=     1 MxSgA2=     1.
 Leave Link  302 at Sat Apr 17 20:50:32 2021, MaxMem=   104857600 cpu:             761.8 elap:              16.3
 (Enter /s/ls4/users/knvvv/bin/g16sse/l303.exe)
 DipDrv:  MaxL=1.
 Leave Link  303 at Sat Apr 17 20:50:32 2021, MaxMem=   104857600 cpu:              18.2 elap:               0.4
 (Enter /s/ls4/users/knvvv/bin/g16sse/l401.exe)
 SCF N**3 symmetry information disabled.
 ExpMin= 2.11D-02 ExpMax= 7.55D+05 ExpMxC= 8.58D+02 IAcc=3 IRadAn=         5 AccDes= 0.00D+00
 Harris functional with IExCor= 1009 and IRadAn=       5 diagonalized for initial guess.
 HarFok:  IExCor= 1009 AccDes= 0.00D+00 IRadAn=         5 IDoV= 1 UseB2=F ITyADJ=14
 ICtDFT=  3500011 ScaDFX=  1.000000  1.000000  1.000000  1.000000
 FoFCou: FMM=F IPFlag=           0 FMFlag=      100000 FMFlg1=           0
         NFxFlg=           0 DoJE=T BraDBF=F KetDBF=T FulRan=T
         wScrn=  0.000000 ICntrl=       500 IOpCl=  0 I1Cent=   200000004 NGrid=           0
         NMat0=    1 NMatS0=      1 NMatT0=    0 NMatD0=    1 NMtDS0=    0 NMtDT0=    0
 Petite list used in FoFCou.
 CoulSu:  requested number of processors reduced to:  21 ShMem   1 Linda.
 CoulSu:  requested number of processors reduced to:  21 ShMem   1 Linda.
 CoulSu:  requested number of processors reduced to:  21 ShMem   1 Linda.
 CoulSu:  requested number of processors reduced to:  21 ShMem   1 Linda.
 Harris En= -242.189056645602    
 JPrj=0 DoOrth=F DoCkMO=F.
 Initial guess orbital symmetries:
 Alpha Orbitals:
       Occupied  (A1G) (A1G) (T1U) (T1U) (T1U) (A1G) (T1U)
       Virtual   (T1U) (T1U) (A1G) (T2G) (T2G) (T2G) (EG) (EG)
                 (T1U) (T1U) (T1U) (A1G) (T2G) (T2G) (T2G) (EG)
                 (EG) (T2U) (T2U) (T2U) (A2U) (T1U) (T1U) (T1U)
                 (T1U) (T1U) (T1U) (T2G) (T2G) (T2G) (EG) (EG)
                 (A1G) (T2G) (T2G) (T2G) (EG) (EG) (T2U) (T2U)
                 (T2U) (A2U) (T1U) (T1U) (T1U) (T1G) (T1G) (T1G)
                 (T2G) (T2G) (T2G) (EG) (EG) (A1G) (T1U) (T1U)
                 (T1U) (A1G) (T2G) (T2G) (T2G) (EG) (EG) (T1U)
                 (T1U) (T1U) (A1G) (A1G) (A1G)
 Beta  Orbitals:
       Occupied  (A1G) (A1G) (T1U) (T1U) (T1U) (A1G)
       Virtual   (T1U) (T1U) (T1U) (A1G) (T2G) (T2G) (T2G) (EG)
                 (EG) (T1U) (T1U) (T1U) (A1G) (T2G) (T2G) (T2G)
                 (EG) (EG) (T2U) (T2U) (T2U) (A2U) (T1U) (T1U)
                 (T1U) (T1U) (T1U) (T1U) (T2G) (T2G) (T2G) (EG)
                 (EG) (A1G) (T2G) (T2G) (T2G) (EG) (EG) (T2U) (T2U)
                 (T2U) (A2U) (T1U) (T1U) (T1U) (T1G) (T1G) (T1G)
                 (T2G) (T2G) (T2G) (EG) (EG) (A1G) (T1U) (T1U)
                 (T1U) (A1G) (T2G) (T2G) (T2G) (EG) (EG) (T1U)
                 (T1U) (T1U) (A1G) (A1G) (A1G)
 Initial guess <Sx>= 0.0000 <Sy>= 0.0000 <Sz>= 0.5000 <S**2>= 0.7500 S= 0.5000
 Leave Link  401 at Sat Apr 17 20:50:43 2021, MaxMem=   104857600 cpu:             477.6 elap:              10.3
 (Enter /s/ls4/users/knvvv/bin/g16sse/l502.exe)
 Keep R1 and R2 ints in memory in symmetry-blocked form, NReq=58495504.
 FoFCou: FMM=F IPFlag=           0 FMFlag=           0 FMFlg1=           0
         NFxFlg=           0 DoJE=F BraDBF=F KetDBF=F FulRan=T
         wScrn=  0.000000 ICntrl=       600 IOpCl=  0 I1Cent=           0 NGrid=           0
         NMat0=    1 NMatS0=   2926 NMatT0=    0 NMatD0=    1 NMtDS0=    0 NMtDT0=    0
 Petite list used in FoFCou.
 CoulSu:  requested number of processors reduced to:  22 ShMem   1 Linda.
 UHF open shell SCF:
 Using DIIS extrapolation, IDIIS=  1040.
 NGot=   104857600 LenX=   103702678 LenY=   103693588
 Requested convergence on RMS density matrix=1.00D-08 within 128 cycles.
 Requested convergence on MAX density matrix=1.00D-06.
 Requested convergence on             energy=1.00D-06.
 No special actions if energy rises.

 Cycle   1  Pass 1  IDiag  1:
 Density matrix breaks symmetry, PCut= 1.00D-04
 Density has only Abelian symmetry.
 E= -242.344377316491    
 DIIS: error= 3.36D-02 at cycle   1 NSaved=   1.
 NSaved= 1 IEnMin= 1 EnMin= -242.344377316491     IErMin= 1 ErrMin= 3.36D-02
 ErrMax= 3.36D-02  0.00D+00 EMaxC= 1.00D-01 BMatC= 1.30D-01 BMatP= 1.30D-01
 IDIUse=3 WtCom= 6.64D-01 WtEn= 3.36D-01
 Coeff-Com:  0.100D+01
 Coeff-En:   0.100D+01
 Coeff:      0.100D+01
 Gap=     0.112 Goal=   None    Shift=    0.000
 Gap=     0.313 Goal=   None    Shift=    0.000
 GapD=    0.112 DampG=1.000 DampE=0.500 DampFc=0.5000 IDamp=-1.
 Damping current iteration by 5.00D-01
 RMSDP=2.73D-03 MaxDP=1.51D-01              OVMax= 4.43D-02

 Cycle   2  Pass 1  IDiag  1:
 Density matrix breaks symmetry, PCut= 1.00D-04
 Density has only Abelian symmetry.
 E= -242.347673180940     Delta-E=       -0.003295864449 Rises=F Damp=T
 DIIS: error= 1.62D-02 at cycle   2 NSaved=   2.
 NSaved= 2 IEnMin= 2 EnMin= -242.347673180940     IErMin= 2 ErrMin= 1.62D-02
 ErrMax= 1.62D-02  0.00D+00 EMaxC= 1.00D-01 BMatC= 2.25D-02 BMatP= 1.30D-01
 IDIUse=3 WtCom= 8.38D-01 WtEn= 1.62D-01
 Coeff-Com: -0.594D+00 0.159D+01
 Coeff-En:   0.000D+00 0.100D+01
 Coeff:     -0.498D+00 0.150D+01
 Gap=     0.115 Goal=   None    Shift=    0.000
 Gap=     0.290 Goal=   None    Shift=    0.000
 RMSDP=1.38D-03 MaxDP=7.52D-02 DE=-3.30D-03 OVMax= 1.01D-02

 Cycle   3  Pass 1  IDiag  1:
 Density matrix breaks symmetry, PCut= 1.00D-04
 Density has only Abelian symmetry.
 E= -242.350718240978     Delta-E=       -0.003045060038 Rises=F Damp=F
 DIIS: error= 1.46D-03 at cycle   3 NSaved=   3.
 NSaved= 3 IEnMin= 3 EnMin= -242.350718240978     IErMin= 3 ErrMin= 1.46D-03
 ErrMax= 1.46D-03  0.00D+00 EMaxC= 1.00D-01 BMatC= 1.70D-04 BMatP= 2.25D-02
 IDIUse=3 WtCom= 9.85D-01 WtEn= 1.46D-02
 Coeff-Com: -0.854D-01 0.154D+00 0.931D+00
 Coeff-En:   0.000D+00 0.000D+00 0.100D+01
 Coeff:     -0.842D-01 0.152D+00 0.932D+00
 Gap=     0.116 Goal=   None    Shift=    0.000
 Gap=     0.290 Goal=   None    Shift=    0.000
 RMSDP=1.12D-04 MaxDP=5.83D-03 DE=-3.05D-03 OVMax= 3.20D-03

 Cycle   4  Pass 1  IDiag  1:
 Density matrix breaks symmetry, PCut= 1.00D-04
 Density has only Abelian symmetry.
 E= -242.350740825738     Delta-E=       -0.000022584760 Rises=F Damp=F
 DIIS: error= 1.76D-04 at cycle   4 NSaved=   4.
 NSaved= 4 IEnMin= 4 EnMin= -242.350740825738     IErMin= 4 ErrMin= 1.76D-04
 ErrMax= 1.76D-04  0.00D+00 EMaxC= 1.00D-01 BMatC= 2.56D-06 BMatP= 1.70D-04
 IDIUse=3 WtCom= 9.98D-01 WtEn= 1.76D-03
 Coeff-Com:  0.170D-01-0.321D-01-0.205D+00 0.122D+01
 Coeff-En:   0.000D+00 0.000D+00 0.000D+00 0.100D+01
 Coeff:      0.170D-01-0.321D-01-0.204D+00 0.122D+01
 Gap=     0.116 Goal=   None    Shift=    0.000
 Gap=     0.290 Goal=   None    Shift=    0.000
 RMSDP=4.40D-05 MaxDP=1.91D-03 DE=-2.26D-05 OVMax= 1.79D-03

 Cycle   5  Pass 1  IDiag  1:
 Density matrix breaks symmetry, PCut= 1.00D-04
 Density has only Abelian symmetry.
 E= -242.350743477342     Delta-E=       -0.000002651604 Rises=F Damp=F
 DIIS: error= 4.11D-05 at cycle   5 NSaved=   5.
 NSaved= 5 IEnMin= 5 EnMin= -242.350743477342     IErMin= 5 ErrMin= 4.11D-05
 ErrMax= 4.11D-05  0.00D+00 EMaxC= 1.00D-01 BMatC= 1.80D-07 BMatP= 2.56D-06
 IDIUse=1 WtCom= 1.00D+00 WtEn= 0.00D+00
 Coeff-Com:  0.162D-02-0.315D-02 0.515D-02-0.282D+00 0.128D+01
 Coeff:      0.162D-02-0.315D-02 0.515D-02-0.282D+00 0.128D+01
 Gap=     0.116 Goal=   None    Shift=    0.000
 Gap=     0.290 Goal=   None    Shift=    0.000
 RMSDP=1.35D-05 MaxDP=5.64D-04 DE=-2.65D-06 OVMax= 6.13D-04

 Cycle   6  Pass 1  IDiag  1:
 Density matrix breaks symmetry, PCut= 1.00D-04
 Density has only Abelian symmetry.
 E= -242.350743678916     Delta-E=       -0.000000201574 Rises=F Damp=F
 DIIS: error= 1.18D-05 at cycle   6 NSaved=   6.
 NSaved= 6 IEnMin= 6 EnMin= -242.350743678916     IErMin= 6 ErrMin= 1.18D-05
 ErrMax= 1.18D-05  0.00D+00 EMaxC= 1.00D-01 BMatC= 3.50D-09 BMatP= 1.80D-07
 IDIUse=1 WtCom= 1.00D+00 WtEn= 0.00D+00
 Coeff-Com: -0.739D-03 0.143D-02 0.593D-02-0.261D-01-0.545D-01 0.107D+01
 Coeff:     -0.739D-03 0.143D-02 0.593D-02-0.261D-01-0.545D-01 0.107D+01
 Gap=     0.116 Goal=   None    Shift=    0.000
 Gap=     0.290 Goal=   None    Shift=    0.000
 RMSDP=2.36D-06 MaxDP=9.90D-05 DE=-2.02D-07 OVMax= 1.11D-04

 Cycle   7  Pass 1  IDiag  1:
 Density matrix breaks symmetry, PCut= 1.00D-04
 Density has only Abelian symmetry.
 E= -242.350743683124     Delta-E=       -0.000000004208 Rises=F Damp=F
 DIIS: error= 1.75D-06 at cycle   7 NSaved=   7.
 NSaved= 7 IEnMin= 7 EnMin= -242.350743683124     IErMin= 7 ErrMin= 1.75D-06
 ErrMax= 1.75D-06  0.00D+00 EMaxC= 1.00D-01 BMatC= 1.55D-10 BMatP= 3.50D-09
 IDIUse=1 WtCom= 1.00D+00 WtEn= 0.00D+00
 Coeff-Com:  0.797D-04-0.150D-03-0.126D-02 0.164D-01-0.441D-01-0.163D+00
 Coeff-Com:  0.119D+01
 Coeff:      0.797D-04-0.150D-03-0.126D-02 0.164D-01-0.441D-01-0.163D+00
 Coeff:      0.119D+01
 Gap=     0.116 Goal=   None    Shift=    0.000
 Gap=     0.289 Goal=   None    Shift=    0.000
 RMSDP=4.97D-07 MaxDP=1.85D-05 DE=-4.21D-09 OVMax= 2.27D-05

 Cycle   8  Pass 1  IDiag  1:
 Density matrix breaks symmetry, PCut= 1.00D-04
 Density has only Abelian symmetry.
 E= -242.350743683343     Delta-E=       -0.000000000219 Rises=F Damp=F
 DIIS: error= 2.87D-07 at cycle   8 NSaved=   8.
 NSaved= 8 IEnMin= 8 EnMin= -242.350743683343     IErMin= 8 ErrMin= 2.87D-07
 ErrMax= 2.87D-07  0.00D+00 EMaxC= 1.00D-01 BMatC= 4.33D-12 BMatP= 1.55D-10
 IDIUse=1 WtCom= 1.00D+00 WtEn= 0.00D+00
 Coeff-Com:  0.483D-05-0.102D-04 0.837D-04-0.248D-02 0.943D-02-0.365D-02
 Coeff-Com: -0.218D+00 0.121D+01
 Coeff:      0.483D-05-0.102D-04 0.837D-04-0.248D-02 0.943D-02-0.365D-02
 Coeff:     -0.218D+00 0.121D+01
 Gap=     0.116 Goal=   None    Shift=    0.000
 Gap=     0.289 Goal=   None    Shift=    0.000
 RMSDP=1.17D-07 MaxDP=5.25D-06 DE=-2.19D-10 OVMax= 4.47D-06

 Cycle   9  Pass 1  IDiag  1:
 Density matrix breaks symmetry, PCut= 1.00D-04
 Density has only Abelian symmetry.
 E= -242.350743683349     Delta-E=       -0.000000000006 Rises=F Damp=F
 DIIS: error= 2.51D-08 at cycle   9 NSaved=   9.
 NSaved= 9 IEnMin= 9 EnMin= -242.350743683349     IErMin= 9 ErrMin= 2.51D-08
 ErrMax= 2.51D-08  0.00D+00 EMaxC= 1.00D-01 BMatC= 8.01D-14 BMatP= 4.33D-12
 IDIUse=1 WtCom= 1.00D+00 WtEn= 0.00D+00
 Coeff-Com: -0.286D-05 0.555D-05 0.314D-04-0.314D-03 0.582D-03 0.516D-02
 Coeff-Com: -0.945D-02-0.122D+00 0.113D+01
 Coeff:     -0.286D-05 0.555D-05 0.314D-04-0.314D-03 0.582D-03 0.516D-02
 Coeff:     -0.945D-02-0.122D+00 0.113D+01
 Gap=     0.116 Goal=   None    Shift=    0.000
 Gap=     0.289 Goal=   None    Shift=    0.000
 RMSDP=9.53D-09 MaxDP=3.85D-07 DE=-6.20D-12 OVMax= 2.85D-07

 Density matrix breaks symmetry, PCut= 1.00D-04
 Density has only Abelian symmetry.
 SCF Done:  E(UM062X) =  -242.350743683     A.U. after    9 cycles
            NFock=  9  Conv=0.95D-08     -V/T= 2.0021
 <Sx>= 0.0000 <Sy>= 0.0000 <Sz>= 0.5000 <S**2>= 0.7531 S= 0.5015
 <L.S>= 0.000000000000E+00
 KE= 2.418495238100D+02 PE=-5.786136475325D+02 EE= 9.441338003907D+01
 Annihilation of the first spin contaminant:
 S**2 before annihilation     0.7531,   after     0.7500
 Leave Link  502 at Sat Apr 17 20:52:49 2021, MaxMem=   104857600 cpu:            5929.7 elap:             126.5
 (Enter /s/ls4/users/knvvv/bin/g16sse/l601.exe)
 Copying SCF densities to generalized density rwf, IOpCl= 1 IROHF=0.
 SCF density gives NOpUse=  8 NOpAll= 48.
 Marking SCF density as not fully symmetric.

 **********************************************************************

            Population analysis using the SCF density.

 **********************************************************************

 Orbital symmetries:
 Alpha Orbitals:
       Occupied  (A1G) (A1G) (T1U) (T1U) (T1U) (?A) (?B)
       Virtual   (?B) (?B) (?A) (?A) (?C) (?A) (?C) (?C) (?B) (?B)
                 (?B) (?A) (?C) (?C) (?A) (?C) (?A) (A2U) (?B)
                 (?B) (?B) (?B) (?B) (?B) (?B) (?B) (?B) (?A) (?A)
                 (?D) (?D) (?D) (?A) (?A) (?D) (?D) (?A) (?D) (?B)
                 (?B) (?B) (A2U) (?B) (?D) (?D) (?A) (?B) (?B)
                 (?A) (?D) (?D) (?D) (?A) (?D) (T1U) (T1U) (T1U)
                 (?A) (?A) (T2G) (T2G) (?A) (T2G) (T1U) (T1U) (T1U)
                 (A1G) (A1G) (A1G)
 Beta  Orbitals:
       Occupied  (A1G) (A1G) (T1U) (T1U) (T1U) (?A)
       Virtual   (?B) (?B) (?B) (?A) (?A) (?C) (?A) (?C) (?C) (?B)
                 (?B) (?B) (?A) (?C) (?A) (?C) (?C) (?A) (?B) (?B)
                 (?B) (A2U) (?B) (?B) (?B) (?B) (?B) (?C) (?C)
                 (?A) (?B) (?C) (?A) (?A) (?C) (?A) (?C) (?C) (?A)
                 (?B) (?B) (?B) (A2U) (?B) (?B) (?C) (?C) (?C)
                 (?A) (?C) (?A) (?B) (?A) (?C) (?C) (?B) (?B) (?B)
                 (A1G) (T2G) (EG) (T2G) (T2G) (EG) (T1U) (T1U)
                 (T1U) (A1G) (A1G) (A1G)
 Unable to determine electronic state:  an orbital has unidentified symmetry.
 Alpha  occ. eigenvalues --  -56.88022  -4.39732  -2.89922  -2.89748  -2.89748
 Alpha  occ. eigenvalues --   -0.36323  -0.15824
 Alpha virt. eigenvalues --   -0.04196  -0.04196   0.01054   0.05433   0.05435
 Alpha virt. eigenvalues --    0.06739   0.06865   0.06865   0.10142   0.10142
 Alpha virt. eigenvalues --    0.11705   0.16765   0.19199   0.19199   0.19737
 Alpha virt. eigenvalues --    0.19737   0.20180   0.48486   0.48486   0.48593
 Alpha virt. eigenvalues --    0.48738   0.48738   0.48741   0.48741   0.48794
 Alpha virt. eigenvalues --    0.50008   0.50008   0.52904   0.52948   0.52948
 Alpha virt. eigenvalues --    0.53522   0.53522   0.67623   1.26183   1.27224
 Alpha virt. eigenvalues --    1.27224   1.28365   1.28365   1.44018   1.46153
 Alpha virt. eigenvalues --    1.46153   1.47210   1.47210   1.47282   1.47282
 Alpha virt. eigenvalues --    1.48064   1.49304   1.49304   1.49446   1.49446
 Alpha virt. eigenvalues --    1.49665   1.49665   1.51078   1.51078   1.96113
 Alpha virt. eigenvalues --    1.99390   1.99390   3.09040   4.34647   4.34943
 Alpha virt. eigenvalues --    4.34943   4.36576   4.36576   7.41616   7.47710
 Alpha virt. eigenvalues --    7.47710  12.11443  45.54841 252.68153
  Beta  occ. eigenvalues --  -56.87671  -4.39568  -2.89624  -2.89624  -2.88767
  Beta  occ. eigenvalues --   -0.33585
  Beta virt. eigenvalues --   -0.04636  -0.04636  -0.03829   0.01320   0.05199
  Beta virt. eigenvalues --    0.05840   0.05840   0.05863   0.05863   0.09274
  Beta virt. eigenvalues --    0.09274   0.09862   0.16671   0.19427   0.19427
  Beta virt. eigenvalues --    0.20022   0.20022   0.20057   0.45176   0.45342
  Beta virt. eigenvalues --    0.45342   0.46425   0.46425   0.47821   0.47821
  Beta virt. eigenvalues --    0.50451   0.50451   0.50611   0.50611   0.50684
  Beta virt. eigenvalues --    0.50755   0.52765   0.52765   0.69184   1.30627
  Beta virt. eigenvalues --    1.30627   1.31938   1.31938   1.32607   1.52052
  Beta virt. eigenvalues --    1.52052   1.52757   1.52757   1.53407   1.53407
  Beta virt. eigenvalues --    1.53622   1.53622   1.53696   1.53696   1.53712
  Beta virt. eigenvalues --    1.53712   1.53725   1.53970   1.53988   1.53988
  Beta virt. eigenvalues --    2.01236   2.01236   2.02446   3.12492   4.38365
  Beta virt. eigenvalues --    4.38365   4.40061   4.40061   4.40541   7.51222
  Beta virt. eigenvalues --    7.51222   7.55313  12.13961  45.55892 252.67867
          Condensed to atoms (all electrons):
               1
     1  Al  13.000000
          Atomic-Atomic Spin Densities.
               1
     1  Al   1.000000
 Mulliken charges and spin densities:
               1          2
     1  Al   0.000000   1.000000
 Sum of Mulliken charges =   0.00000   1.00000
 Mulliken charges and spin densities with hydrogens summed into heavy atoms:
               1          2
     1  Al   0.000000   1.000000
 Electronic spatial extent (au):  <R**2>=             32.5264
 Charge=              0.0000 electrons
 Dipole moment (field-independent basis, Debye):
    X=              0.0000    Y=              0.0000    Z=             -0.0000  Tot=              0.0000
 Quadrupole moment (field-independent basis, Debye-Ang):
   XX=            -19.2790   YY=            -12.2351   ZZ=            -12.2351
   XY=             -0.0000   XZ=              0.0000   YZ=             -0.0000
 Traceless Quadrupole moment (field-independent basis, Debye-Ang):
   XX=             -4.6959   YY=              2.3480   ZZ=              2.3480
   XY=             -0.0000   XZ=              0.0000   YZ=             -0.0000
 Octapole moment (field-independent basis, Debye-Ang**2):
  XXX=             -0.0000  YYY=             -0.0000  ZZZ=              0.0000  XYY=              0.0000
  XXY=             -0.0000  XXZ=              0.0000  XZZ=              0.0000  YZZ=              0.0000
  YYZ=              0.0000  XYZ=              0.0000
 Hexadecapole moment (field-independent basis, Debye-Ang**3):
 XXXX=            -70.8225 YYYY=            -26.8349 ZZZZ=            -26.8349 XXXY=             -0.0000
 XXXZ=              0.0000 YYYX=             -0.0000 YYYZ=              0.0000 ZZZX=              0.0000
 ZZZY=             -0.0000 XXYY=            -16.3892 XXZZ=            -16.3892 YYZZ=             -8.9450
 XXYZ=              0.0000 YYXZ=              0.0000 ZZXY=             -0.0000
 N-N= 0.000000000000D+00 E-N=-5.786136477462D+02  KE= 2.418495238100D+02
                          Isotropic Fermi Contact Couplings
        Atom                 a.u.       MegaHertz       Gauss      10(-4) cm-1
     1  Al(27)             0.07564      88.16267      31.45863      29.40790
 PrsmSu:  requested number of processors reduced to:  21 ShMem   1 Linda.
 --------------------------------------------------------
       Center         ----  Spin Dipole Couplings  ----
                      3XX-RR        3YY-RR        3ZZ-RR
 --------------------------------------------------------
     1   Atom        1.171115     -0.585558     -0.585558
 --------------------------------------------------------
                        XY            XZ            YZ
 --------------------------------------------------------
     1   Atom        0.000000      0.000000      0.000000
 --------------------------------------------------------


 ---------------------------------------------------------------------------------
              Anisotropic Spin Dipole Couplings in Principal Axis System
 ---------------------------------------------------------------------------------

       Atom             a.u.   MegaHertz   Gauss  10(-4) cm-1        Axes

              Baa    -0.5856   -81.472   -29.071   -27.176 -0.0000  1.0000  0.0000
     1 Al(27) Bbb    -0.5856   -81.472   -29.071   -27.176  0.0000  0.0000  1.0000
              Bcc     1.1711   162.945    58.143    54.353  1.0000  0.0000  0.0000
 

 ---------------------------------------------------------------------------------

 PrsmSu:  requested number of processors reduced to:  21 ShMem   1 Linda.
 No NMR shielding tensors so no spin-rotation constants.
 Leave Link  601 at Sat Apr 17 20:53:01 2021, MaxMem=   104857600 cpu:             535.5 elap:              11.6
 (Enter /s/ls4/users/knvvv/bin/g16sse/l801.exe)
 DoSCS=F DFT=T ScalE2(SS,OS)=  1.000000  1.000000
 Range of M.O.s used for correlation:     1    76
 NBasis=    76 NAE=     7 NBE=     6 NFC=     0 NFV=     0
 NROrb=     76 NOA=     7 NOB=     6 NVA=    69 NVB=    70
 Leave Link  801 at Sat Apr 17 20:53:01 2021, MaxMem=   104857600 cpu:               4.7 elap:               0.1
 (Enter /s/ls4/users/knvvv/bin/g16sse/l914.exe)
 UHF ground state
 Doing stability rather than CIS.
 Keep R1 and R2 ints in memory in symmetry-blocked form, NReq=91581137.
 FoFCou: FMM=F IPFlag=           0 FMFlag=           0 FMFlg1=           0
         NFxFlg=           0 DoJE=F BraDBF=F KetDBF=F FulRan=T
         wScrn=  0.000000 ICntrl=       600 IOpCl=  0 I1Cent=           0 NGrid=           0
         NMat0=    1 NMatS0=   2926 NMatT0=    0 NMatD0=    1 NMtDS0=    0 NMtDT0=    0
 Petite list used in FoFCou.
 CoulSu:  requested number of processors reduced to:  22 ShMem   1 Linda.
 MDV=   104857600 DFT=T DoStab=T Mixed=T DoRPA=F DoScal=F NonHer=F
 Making orbital integer symmetry assigments:
 Orbital symmetries:
 Alpha Orbitals:
       Occupied  (A1G) (A1G) (T1U) (T1U) (T1U) (?A) (?B)
       Virtual   (?B) (?B) (?A) (?A) (?C) (?A) (?C) (?C) (?B) (?B)
                 (?B) (?A) (?C) (?C) (?A) (?C) (?A) (A2U) (?B)
                 (?B) (?B) (?B) (?B) (?B) (?B) (?B) (?B) (?A) (?A)
                 (?D) (?D) (?D) (?A) (?A) (?D) (?D) (?A) (?D) (?B)
                 (?B) (?B) (A2U) (?B) (?D) (?D) (?A) (?B) (?B)
                 (?A) (?D) (?D) (?D) (?A) (?D) (T1U) (T1U) (T1U)
                 (?A) (?A) (T2G) (T2G) (?A) (T2G) (T1U) (T1U) (T1U)
                 (A1G) (A1G) (A1G)
 Beta  Orbitals:
       Occupied  (A1G) (A1G) (T1U) (T1U) (T1U) (?A)
       Virtual   (?B) (?B) (?B) (?A) (?A) (?C) (?A) (?C) (?C) (?B)
                 (?B) (?B) (?A) (?C) (?A) (?C) (?C) (?A) (?B) (?B)
                 (?B) (A2U) (?B) (?B) (?B) (?B) (?B) (?C) (?C)
                 (?A) (?B) (?C) (?A) (?A) (?C) (?A) (?C) (?C) (?A)
                 (?B) (?B) (?B) (A2U) (?B) (?B) (?C) (?C) (?C)
                 (?A) (?C) (?A) (?B) (?A) (?C) (?C) (?B) (?B) (?B)
                 (A1G) (T2G) (EG) (T2G) (T2G) (EG) (T1U) (T1U)
                 (T1U) (A1G) (A1G) (A1G)
    24 initial guesses have been made.
 Convergence on wavefunction:    0.001000000000000
 Davidson Disk Diagonalization:  ConvIn= 1.00D-03 SkipCon=T Conv= 1.00D-03.
 Max sub-space:  1806 roots to seek:    24 dimension of matrix:          903
 Iteration     1 Dimension    24 NMult     0 NNew     24
 CISAX will form    24 AO SS matrices at one time.
 NMat=    24 NSing=    24 JSym2X= 2.
 Excitation Energies [eV] at current iteration:
 Root      1 :     0.098951350929172
 Root      2 :     0.098951350930393
 Root      3 :     2.846637073230955
 Root      4 :     3.728652015928251
 Root      5 :     3.849938013564051
 Root      6 :     3.849938013588310
 Root      7 :     3.935650367117612
 Root      8 :     3.935650367126150
 Root      9 :     3.948334263501093
 Root     10 :     3.949260508819844
 Root     11 :     4.809535604933667
 Root     12 :     4.809535604946610
 Root     13 :     4.960769868351827
 Root     14 :     5.649840693062357
 Root     15 :     6.497698631124758
 Root     16 :     6.497698631129501
 Root     17 :     6.506345392627179
 Root     18 :     6.905648132136458
 Root     19 :     6.906534538025636
 Root     20 :     7.692322566337966
 Root     21 :     8.638257004749324
 Root     22 :     8.681339300504643
 Root     23 :    10.077687374184430
 Root     24 :    10.077687374200560
 Iteration     2 Dimension    48 NMult    24 NNew     24
 CISAX will form    24 AO SS matrices at one time.
 NMat=    24 NSing=    24 JSym2X= 2.
 DSYEVD-2 returned Info=          97 IAlg= 4 N=    48 NDim=    48 NE2=     2024796 trying  DSYEV.
 Root      1 not converged, maximum delta is    0.046942554957010
 Excitation Energies [eV] at current iteration:
 Root      1 :     0.001621467558763   Change is   -0.097329883370409
 Root      2 :     0.001621467560050   Change is   -0.097329883370343
 Root      3 :     2.783144068469126   Change is   -1.152506298657024
 Root      4 :     2.783144068473956   Change is   -1.152506298643656
 Root      5 :     2.784064170262300   Change is   -0.062572902968655
 Root      6 :     3.500056061319547   Change is   -0.228595954608704
 Root      7 :     3.763220751148346   Change is   -0.086717262415705
 Root      8 :     3.763220751158589   Change is   -0.086717262429721
 Root      9 :     3.938770753563171   Change is   -0.009563509937921
 Root     10 :     3.939687690525810   Change is   -0.009572818294034
 Root     11 :     4.704149524973638   Change is   -0.105386079960029
 Root     12 :     4.704149524986618   Change is   -0.105386079959992
 Root     13 :     4.744522941330543   Change is   -0.216246927021284
 Root     14 :     5.151147170895474   Change is   -0.498693522166884
 Root     15 :     6.293828152682697   Change is   -0.203870478442062
 Root     16 :     6.293828152686735   Change is   -0.203870478442767
 Root     17 :     6.431203374947703   Change is   -0.075142017679476
 Root     18 :     6.876004860147615   Change is   -0.029643271988843
 Root     19 :     6.876862195662963   Change is   -0.029672342362673
 Root     20 :     7.246538243594257   Change is   -0.445784322743709
 Root     21 :     7.712671728474356   Change is   -0.925585276274969
 Root     22 :     8.071943075255023   Change is   -2.005744298929407
 Root     23 :     8.071943075436014   Change is   -2.005744298764541
 Root     24 :     8.472525039120997   Change is   -0.208814261383645
 Iteration     3 Dimension    51 NMult    48 NNew      3
 CISAX will form     3 AO SS matrices at one time.
 NMat=     3 NSing=     3 JSym2X= 2.
 Root      1 not converged, maximum delta is    0.006163295135231
 Excitation Energies [eV] at current iteration:
 Root      1 :     0.000048105115616   Change is   -0.001573362443147
 Root      2 :     0.000048105116884   Change is   -0.001573362443166
 Root      3 :     2.773597109352230   Change is   -0.009546959116895
 Iteration     4 Dimension    54 NMult    51 NNew      3
 CISAX will form     3 AO SS matrices at one time.
 NMat=     3 NSing=     3 JSym2X= 2.
 Root      1 not converged, maximum delta is    0.023082134916116
 Excitation Energies [eV] at current iteration:
 Root      1 :     0.000040918695820   Change is   -0.000007186419795
 Root      2 :     0.000040918697065   Change is   -0.000007186419819
 Root      3 :     2.773455676948238   Change is   -0.000141432403993
 Iteration     5 Dimension    57 NMult    54 NNew      3
 CISAX will form     3 AO SS matrices at one time.
 NMat=     3 NSing=     3 JSym2X= 2.
 Root      1 not converged, maximum delta is    0.018715983784852
 Excitation Energies [eV] at current iteration:
 Root      1 :     0.000040851089281   Change is   -0.000000067606539
 Root      2 :     0.000040851090592   Change is   -0.000000067606473
 Root      3 :     2.773454481400886   Change is   -0.000001195547351
 Iteration     6 Dimension    60 NMult    57 NNew      3
 CISAX will form     3 AO SS matrices at one time.
 NMat=     3 NSing=     3 JSym2X= 2.
 Root      1 not converged, maximum delta is    0.003500099910817
 Excitation Energies [eV] at current iteration:
 Root      1 :     0.000040850514830   Change is   -0.000000000574451
 Root      2 :     0.000040850516141   Change is   -0.000000000574451
 Root      3 :     2.773454478825369   Change is   -0.000000002575517
 Convergence on energies, max DE= 2.58D-09.
 Convergence achieved on expansion vectors.
 ***********************************************************************
 Stability analysis using <AA,BB:AA,BB> singles matrix:
 ***********************************************************************
 1PDM for each excited state written to RWF  633
 Ground to excited state transition densities written to RWF  633

 Eigenvectors of the stability matrix:
 
 Excited state symmetry could not be determined.
 Eigenvector   1:  2.010-?Sym  Eigenvalue= 0.0000015  <S**2>=0.760
      7A ->  8A        0.65837
      7A ->  9A        0.73956
      7A -> 17A       -0.10573
 
 Excited state symmetry could not be determined.
 Eigenvector   2:  2.010-?Sym  Eigenvalue= 0.0000015  <S**2>=0.760
      7A ->  8A        0.73956
      7A ->  9A       -0.65837
      7A -> 16A       -0.10573
 
 Excited state symmetry could not be determined.
 Eigenvector   3:  3.451-?Sym  Eigenvalue= 0.1019226  <S**2>=2.727
      6A ->  8A       -0.40699
      6A ->  9A        0.59118
      6A -> 16A        0.19187
      6A -> 17A       -0.15553
      6B ->  7B       -0.52575
      6B ->  8B        0.27070
      6B -> 17B        0.21726
      6B -> 33B       -0.10046
 The wavefunction is stable under the perturbations considered.
 Leave Link  914 at Sat Apr 17 20:53:22 2021, MaxMem=   104857600 cpu:             968.9 elap:              21.0
 (Enter /s/ls4/users/knvvv/bin/g16sse/l508.exe)
 The wavefunction is already stable.
 Leave Link  508 at Sat Apr 17 20:53:22 2021, MaxMem=   104857600 cpu:               2.2 elap:               0.1
 (Enter /s/ls4/users/knvvv/bin/g16sse/l601.exe)
 Copying SCF densities to generalized density rwf, IOpCl= 1 IROHF=0.
 SCF density gives NOpUse=  8 NOpAll= 48.
 Marking SCF density as not fully symmetric.

 **********************************************************************

            Population analysis using the SCF density.

 **********************************************************************

 Orbital symmetries:
 Alpha Orbitals:
       Occupied  (A1G) (A1G) (T1U) (T1U) (T1U) (?A) (?B)
       Virtual   (?B) (?B) (?A) (?A) (?C) (?A) (?C) (?C) (?B) (?B)
                 (?B) (?A) (?C) (?C) (?A) (?C) (?A) (A2U) (?B)
                 (?B) (?B) (?B) (?B) (?B) (?B) (?B) (?B) (?A) (?A)
                 (?D) (?D) (?D) (?A) (?A) (?D) (?D) (?A) (?D) (?B)
                 (?B) (?B) (A2U) (?B) (?D) (?D) (?A) (?B) (?B)
                 (?A) (?D) (?D) (?D) (?A) (?D) (T1U) (T1U) (T1U)
                 (?A) (?A) (T2G) (T2G) (?A) (T2G) (T1U) (T1U) (T1U)
                 (A1G) (A1G) (A1G)
 Beta  Orbitals:
       Occupied  (A1G) (A1G) (T1U) (T1U) (T1U) (?A)
       Virtual   (?B) (?B) (?B) (?A) (?A) (?C) (?A) (?C) (?C) (?B)
                 (?B) (?B) (?A) (?C) (?A) (?C) (?C) (?A) (?B) (?B)
                 (?B) (A2U) (?B) (?B) (?B) (?B) (?B) (?C) (?C)
                 (?A) (?B) (?C) (?A) (?A) (?C) (?A) (?C) (?C) (?A)
                 (?B) (?B) (?B) (A2U) (?B) (?B) (?C) (?C) (?C)
                 (?A) (?C) (?A) (?B) (?A) (?C) (?C) (?B) (?B) (?B)
                 (A1G) (T2G) (EG) (T2G) (T2G) (EG) (T1U) (T1U)
                 (T1U) (A1G) (A1G) (A1G)
 Unable to determine electronic state:  an orbital has unidentified symmetry.
 Alpha  occ. eigenvalues --  -56.88022  -4.39732  -2.89922  -2.89748  -2.89748
 Alpha  occ. eigenvalues --   -0.36323  -0.15824
 Alpha virt. eigenvalues --   -0.04196  -0.04196   0.01054   0.05433   0.05435
 Alpha virt. eigenvalues --    0.06739   0.06865   0.06865   0.10142   0.10142
 Alpha virt. eigenvalues --    0.11705   0.16765   0.19199   0.19199   0.19737
 Alpha virt. eigenvalues --    0.19737   0.20180   0.48486   0.48486   0.48593
 Alpha virt. eigenvalues --    0.48738   0.48738   0.48741   0.48741   0.48794
 Alpha virt. eigenvalues --    0.50008   0.50008   0.52904   0.52948   0.52948
 Alpha virt. eigenvalues --    0.53522   0.53522   0.67623   1.26183   1.27224
 Alpha virt. eigenvalues --    1.27224   1.28365   1.28365   1.44018   1.46153
 Alpha virt. eigenvalues --    1.46153   1.47210   1.47210   1.47282   1.47282
 Alpha virt. eigenvalues --    1.48064   1.49304   1.49304   1.49446   1.49446
 Alpha virt. eigenvalues --    1.49665   1.49665   1.51078   1.51078   1.96113
 Alpha virt. eigenvalues --    1.99390   1.99390   3.09040   4.34647   4.34943
 Alpha virt. eigenvalues --    4.34943   4.36576   4.36576   7.41616   7.47710
 Alpha virt. eigenvalues --    7.47710  12.11443  45.54841 252.68153
  Beta  occ. eigenvalues --  -56.87671  -4.39568  -2.89624  -2.89624  -2.88767
  Beta  occ. eigenvalues --   -0.33585
  Beta virt. eigenvalues --   -0.04636  -0.04636  -0.03829   0.01320   0.05199
  Beta virt. eigenvalues --    0.05840   0.05840   0.05863   0.05863   0.09274
  Beta virt. eigenvalues --    0.09274   0.09862   0.16671   0.19427   0.19427
  Beta virt. eigenvalues --    0.20022   0.20022   0.20057   0.45176   0.45342
  Beta virt. eigenvalues --    0.45342   0.46425   0.46425   0.47821   0.47821
  Beta virt. eigenvalues --    0.50451   0.50451   0.50611   0.50611   0.50684
  Beta virt. eigenvalues --    0.50755   0.52765   0.52765   0.69184   1.30627
  Beta virt. eigenvalues --    1.30627   1.31938   1.31938   1.32607   1.52052
  Beta virt. eigenvalues --    1.52052   1.52757   1.52757   1.53407   1.53407
  Beta virt. eigenvalues --    1.53622   1.53622   1.53696   1.53696   1.53712
  Beta virt. eigenvalues --    1.53712   1.53725   1.53970   1.53988   1.53988
  Beta virt. eigenvalues --    2.01236   2.01236   2.02446   3.12492   4.38365
  Beta virt. eigenvalues --    4.38365   4.40061   4.40061   4.40541   7.51222
  Beta virt. eigenvalues --    7.51222   7.55313  12.13961  45.55892 252.67867
          Condensed to atoms (all electrons):
               1
     1  Al  13.000000
          Atomic-Atomic Spin Densities.
               1
     1  Al   1.000000
 Mulliken charges and spin densities:
               1          2
     1  Al   0.000000   1.000000
 Sum of Mulliken charges =   0.00000   1.00000
 Mulliken charges and spin densities with hydrogens summed into heavy atoms:
               1          2
     1  Al   0.000000   1.000000
 Electronic spatial extent (au):  <R**2>=             32.5264
 Charge=              0.0000 electrons
 Dipole moment (field-independent basis, Debye):
    X=              0.0000    Y=              0.0000    Z=             -0.0000  Tot=              0.0000
 Quadrupole moment (field-independent basis, Debye-Ang):
   XX=            -19.2790   YY=            -12.2351   ZZ=            -12.2351
   XY=             -0.0000   XZ=              0.0000   YZ=             -0.0000
 Traceless Quadrupole moment (field-independent basis, Debye-Ang):
   XX=             -4.6959   YY=              2.3480   ZZ=              2.3480
   XY=             -0.0000   XZ=              0.0000   YZ=             -0.0000
 Octapole moment (field-independent basis, Debye-Ang**2):
  XXX=             -0.0000  YYY=             -0.0000  ZZZ=              0.0000  XYY=              0.0000
  XXY=             -0.0000  XXZ=              0.0000  XZZ=              0.0000  YZZ=              0.0000
  YYZ=              0.0000  XYZ=              0.0000
 Hexadecapole moment (field-independent basis, Debye-Ang**3):
 XXXX=            -70.8225 YYYY=            -26.8349 ZZZZ=            -26.8349 XXXY=             -0.0000
 XXXZ=              0.0000 YYYX=             -0.0000 YYYZ=              0.0000 ZZZX=              0.0000
 ZZZY=             -0.0000 XXYY=            -16.3892 XXZZ=            -16.3892 YYZZ=             -8.9450
 XXYZ=              0.0000 YYXZ=              0.0000 ZZXY=             -0.0000
 N-N= 0.000000000000D+00 E-N=-5.786136477462D+02  KE= 2.418495238100D+02
                          Isotropic Fermi Contact Couplings
        Atom                 a.u.       MegaHertz       Gauss      10(-4) cm-1
     1  Al(27)             0.07564      88.16267      31.45863      29.40790
 PrsmSu:  requested number of processors reduced to:  21 ShMem   1 Linda.
 --------------------------------------------------------
       Center         ----  Spin Dipole Couplings  ----
                      3XX-RR        3YY-RR        3ZZ-RR
 --------------------------------------------------------
     1   Atom        1.171115     -0.585558     -0.585558
 --------------------------------------------------------
                        XY            XZ            YZ
 --------------------------------------------------------
     1   Atom        0.000000      0.000000      0.000000
 --------------------------------------------------------


 ---------------------------------------------------------------------------------
              Anisotropic Spin Dipole Couplings in Principal Axis System
 ---------------------------------------------------------------------------------

       Atom             a.u.   MegaHertz   Gauss  10(-4) cm-1        Axes

              Baa    -0.5856   -81.472   -29.071   -27.176 -0.0000  1.0000  0.0000
     1 Al(27) Bbb    -0.5856   -81.472   -29.071   -27.176  0.0000  0.0000  1.0000
              Bcc     1.1711   162.945    58.143    54.353  1.0000  0.0000  0.0000
 

 ---------------------------------------------------------------------------------

 PrsmSu:  requested number of processors reduced to:  21 ShMem   1 Linda.
 No NMR shielding tensors so no spin-rotation constants.
 Leave Link  601 at Sat Apr 17 20:53:32 2021, MaxMem=   104857600 cpu:             463.9 elap:              10.1
 (Enter /s/ls4/users/knvvv/bin/g16sse/l9999.exe)

 Test job not archived.
 1\1\GINC-N151\Stability\UM062X\Gen\Al1(2)\KNVVV\17-Apr-2021\0\\#P M062
 X/GEN Integral=UltraFineGrid SCF=NoSymm Stable=(RExt, Opt) IOp(1/33=1)
 \\Database calculations.\\0,2\Al,0,0.,0.,0.\\Version=ES64L-G16RevA.03\
 HF=-242.3507437\S2=0.753052\S2-1=0.\S2A=0.75\RMSD=9.526e-09\Dipole=0.,
 0.,0.\Quadrupole=1.7456537,1.7456537,-3.4913075,0.,0.,0.\PG=OH [O(Al1)
 ]\\@


 AS FAR AS THE LAWS OF MATHEMATICS REFER TO REALITY,
 THEY ARE NOT CERTAIN; AND AS FAR AS THEY ARE CERTAIN,
 THEY DO NOT REFER TO REALITY.

                                         -- ALBERT EINSTEIN
 Job cpu time:       0 days  2 hours 34 minutes  4.6 seconds.
 Elapsed time:       0 days  0 hours  3 minutes 18.3 seconds.
 File lengths (MBytes):  RWF=     41 Int=      0 D2E=      0 Chk=      2 Scr=      1
 Normal termination of Gaussian 16 at Sat Apr 17 20:53:33 2021.
