 Entering Gaussian System, Link 0=/s/ls4/users/knvvv/bin/g16sse/g16
 Input=data/database/M062X--def2-QZVPPD--172_BzBz_T-4p4_monA_NBC10.gjf
 Output=data/database/M062X--def2-QZVPPD--172_BzBz_T-4p4_monA_NBC10.log
 Initial command:
 /s/ls4/users/knvvv/bin/g16sse/l1.exe "/s/ls4/users/knvvv/bin/scratch/Gau-919.inp" -scrdir="/s/ls4/users/knvvv/bin/scratch/"
 Entering Link 1 = /s/ls4/users/knvvv/bin/g16sse/l1.exe PID=       920.
  
 Copyright (c) 1988,1990,1992,1993,1995,1998,2003,2009,2016,
            Gaussian, Inc.  All Rights Reserved.
  
 This is part of the Gaussian(R) 16 program.  It is based on
 the Gaussian(R) 09 system (copyright 2009, Gaussian, Inc.),
 the Gaussian(R) 03 system (copyright 2003, Gaussian, Inc.),
 the Gaussian(R) 98 system (copyright 1998, Gaussian, Inc.),
 the Gaussian(R) 94 system (copyright 1995, Gaussian, Inc.),
 the Gaussian 92(TM) system (copyright 1992, Gaussian, Inc.),
 the Gaussian 90(TM) system (copyright 1990, Gaussian, Inc.),
 the Gaussian 88(TM) system (copyright 1988, Gaussian, Inc.),
 the Gaussian 86(TM) system (copyright 1986, Carnegie Mellon
 University), and the Gaussian 82(TM) system (copyright 1983,
 Carnegie Mellon University). Gaussian is a federally registered
 trademark of Gaussian, Inc.
  
 This software contains proprietary and confidential information,
 including trade secrets, belonging to Gaussian, Inc.
  
 This software is provided under written license and may be
 used, copied, transmitted, or stored only in accord with that
 written license.
  
 The following legend is applicable only to US Government
 contracts under FAR:
  
                    RESTRICTED RIGHTS LEGEND
  
 Use, reproduction and disclosure by the US Government is
 subject to restrictions as set forth in subparagraphs (a)
 and (c) of the Commercial Computer Software - Restricted
 Rights clause in FAR 52.227-19.
  
 Gaussian, Inc.
 340 Quinnipiac St., Bldg. 40, Wallingford CT 06492
  
  
 ---------------------------------------------------------------
 Warning -- This program may not be used in any manner that
 competes with the business of Gaussian, Inc. or will provide
 assistance to any competitor of Gaussian, Inc.  The licensee
 of this program is prohibited from giving any competitor of
 Gaussian, Inc. access to this program.  By using this program,
 the user acknowledges that Gaussian, Inc. is engaged in the
 business of creating and licensing software in the field of
 computational chemistry and represents and warrants to the
 licensee that it is not a competitor of Gaussian, Inc. and that
 it will not use this program in any manner prohibited above.
 ---------------------------------------------------------------
  

 Cite this work as:
 Gaussian 16, Revision A.03,
 M. J. Frisch, G. W. Trucks, H. B. Schlegel, G. E. Scuseria, 
 M. A. Robb, J. R. Cheeseman, G. Scalmani, V. Barone, 
 G. A. Petersson, H. Nakatsuji, X. Li, M. Caricato, A. V. Marenich, 
 J. Bloino, B. G. Janesko, R. Gomperts, B. Mennucci, H. P. Hratchian, 
 J. V. Ortiz, A. F. Izmaylov, J. L. Sonnenberg, D. Williams-Young, 
 F. Ding, F. Lipparini, F. Egidi, J. Goings, B. Peng, A. Petrone, 
 T. Henderson, D. Ranasinghe, V. G. Zakrzewski, J. Gao, N. Rega, 
 G. Zheng, W. Liang, M. Hada, M. Ehara, K. Toyota, R. Fukuda, 
 J. Hasegawa, M. Ishida, T. Nakajima, Y. Honda, O. Kitao, H. Nakai, 
 T. Vreven, K. Throssell, J. A. Montgomery, Jr., J. E. Peralta, 
 F. Ogliaro, M. J. Bearpark, J. J. Heyd, E. N. Brothers, K. N. Kudin, 
 V. N. Staroverov, T. A. Keith, R. Kobayashi, J. Normand, 
 K. Raghavachari, A. P. Rendell, J. C. Burant, S. S. Iyengar, 
 J. Tomasi, M. Cossi, J. M. Millam, M. Klene, C. Adamo, R. Cammi, 
 J. W. Ochterski, R. L. Martin, K. Morokuma, O. Farkas, 
 J. B. Foresman, and D. J. Fox, Gaussian, Inc., Wallingford CT, 2016.
 
 ******************************************
 Gaussian 16:  ES64L-G16RevA.03 25-Dec-2016
                17-Apr-2021 
 ******************************************
 %RWF=temp8_84303,70GB
 %nprocshared=48
 Will use up to   48 processors via shared memory.
 Default route: MaxDisk=80GB
 ----------------------------------------------------------------------
 #P M062X/GEN Integral=UltraFineGrid SCF=NoSymm Stable=(RExt, Opt) IOp(
 1/33=1)
 ----------------------------------------------------------------------
 1/33=1,38=1,172=1/1;
 2/12=2,17=6,18=5,40=1/2;
 3/5=7,11=2,25=1,30=1,74=-55,75=-5/1,2,3;
 4/9=2/1;
 5/5=2,38=5/2;
 6/7=2,8=2,9=2,10=2,28=1/1;
 8/6=1,10=90,11=11/1;
 9/8=-3,42=1,46=1/14;
 5/5=2,8=3,17=40,38=5/8(-2);
 6/7=2,8=2,9=2,10=2,28=1/1;
 99/5=1,9=1/99;
 Leave Link    1 at Sat Apr 17 18:19:39 2021, MaxMem=           0 cpu:              11.6 elap:               0.3
 (Enter /s/ls4/users/knvvv/bin/g16sse/l101.exe)
 ONIOM data not found on unit 2.
 ----------------------
 Database calculations.
 ----------------------
 TstMul:  ICh=     0
 TstMul:  Mul=     1
 TstMul:  ICh=     0
 TstMul:  Mul=     1
 Symbolic Z-matrix:
 Charge =  0 Multiplicity = 1
 C                     1.        0.       -0.3915 
 C                     1.        1.20507   0.30425 
 C                     1.        1.20507   1.69575 
 C                     1.        0.        2.3915 
 C                     1.       -1.20507   1.69575 
 C                     1.       -1.20507   0.30425 
 H                     1.        0.       -1.4715 
 H                     1.        2.14038  -0.23575 
 H                     1.        2.14038   2.23575 
 H                     1.        0.        3.4715 
 H                     1.       -2.14038   2.23575 
 H                     1.       -2.14038  -0.23575 
 
 RdStrC is calling ZToCFu for IStruc=1 NZ=    12.
 PrtBox:  NBox=     3 Levels=  1 BoxLen=    8.00 SMaxX=        9.34
          Shift=           -1.889726            4.044736            2.780732
 Box      1 Number                   0 centers from      1 to      9:
 Box      2 Number                   1 centers from     10 to     10:
 Box      3 Number                   2 centers from     11 to     12:
 After GenITR:
 ITRead=  0  0  0  0  0  0  0  0  0  0  0  0
 MicOpt= -1 -1 -1 -1 -1 -1 -1 -1 -1 -1 -1 -1
 ITRead=  0  0  0  0  0  0  0  0  0  0  0  0
 MicOpt= -1 -1 -1 -1 -1 -1 -1 -1 -1 -1 -1 -1
 NAtoms=     12 NQM=       12 NQMF=       0 NMMI=      0 NMMIF=      0
                NMic=       0 NMicF=      0.
                    Isotopes and Nuclear Properties:
 (Nuclear quadrupole moments (NQMom) in fm**2, nuclear magnetic moments (NMagM)
  in nuclear magnetons)

  Atom         1           2           3           4           5           6           7           8           9          10
 IAtWgt=          12          12          12          12          12          12           1           1           1           1
 AtmWgt=  12.0000000  12.0000000  12.0000000  12.0000000  12.0000000  12.0000000   1.0078250   1.0078250   1.0078250   1.0078250
 NucSpn=           0           0           0           0           0           0           1           1           1           1
 AtZEff=  -0.0000000  -0.0000000  -0.0000000  -0.0000000  -0.0000000  -0.0000000  -0.0000000  -0.0000000  -0.0000000  -0.0000000
 NQMom=    0.0000000   0.0000000   0.0000000   0.0000000   0.0000000   0.0000000   0.0000000   0.0000000   0.0000000   0.0000000
 NMagM=    0.0000000   0.0000000   0.0000000   0.0000000   0.0000000   0.0000000   2.7928460   2.7928460   2.7928460   2.7928460
 AtZNuc=   6.0000000   6.0000000   6.0000000   6.0000000   6.0000000   6.0000000   1.0000000   1.0000000   1.0000000   1.0000000

  Atom        11          12
 IAtWgt=           1           1
 AtmWgt=   1.0078250   1.0078250
 NucSpn=           1           1
 AtZEff=  -0.0000000  -0.0000000
 NQMom=    0.0000000   0.0000000
 NMagM=    2.7928460   2.7928460
 AtZNuc=   1.0000000   1.0000000
 No MM parameters found.
 Leave Link  101 at Sat Apr 17 18:19:41 2021, MaxMem=   104857600 cpu:              33.7 elap:               1.2
 (Enter /s/ls4/users/knvvv/bin/g16sse/l202.exe)
                          Input orientation:                          
 ---------------------------------------------------------------------
 Center     Atomic      Atomic             Coordinates (Angstroms)
 Number     Number       Type             X           Y           Z
 ---------------------------------------------------------------------
      1          6           0        1.000000    0.000000   -0.391500
      2          6           0        1.000000    1.205074    0.304250
      3          6           0        1.000000    1.205074    1.695750
      4          6           0        1.000000    0.000000    2.391500
      5          6           0        1.000000   -1.205074    1.695750
      6          6           0        1.000000   -1.205074    0.304250
      7          1           0        1.000000    0.000000   -1.471500
      8          1           0        1.000000    2.140382   -0.235750
      9          1           0        1.000000    2.140382    2.235750
     10          1           0        1.000000    0.000000    3.471500
     11          1           0        1.000000   -2.140382    2.235750
     12          1           0        1.000000   -2.140382   -0.235750
 ---------------------------------------------------------------------
                    Distance matrix (angstroms):
                    1          2          3          4          5
     1  C    0.000000
     2  C    1.391500   0.000000
     3  C    2.410149   1.391500   0.000000
     4  C    2.783000   2.410149   1.391500   0.000000
     5  C    2.410149   2.782999   2.410148   1.391500   0.000000
     6  C    1.391500   2.410148   2.782999   2.410149   1.391500
     7  H    1.080000   2.146041   3.388757   3.863000   3.388757
     8  H    2.146041   1.080000   2.146041   3.388758   3.863000
     9  H    3.388758   2.146041   1.080000   2.146041   3.388757
    10  H    3.863000   3.388757   2.146041   1.080000   2.146041
    11  H    3.388758   3.863000   3.388757   2.146041   1.080000
    12  H    2.146041   3.388757   3.863000   3.388758   2.146041
                    6          7          8          9         10
     6  C    0.000000
     7  H    2.146041   0.000000
     8  H    3.388757   2.471500   0.000000
     9  H    3.863000   4.280764   2.471500   0.000000
    10  H    3.388757   4.943000   4.280764   2.471500   0.000000
    11  H    2.146041   4.280764   4.943000   4.280764   2.471500
    12  H    1.080000   2.471500   4.280764   4.943000   4.280764
                   11         12
    11  H    0.000000
    12  H    2.471500   0.000000
 Stoichiometry    C6H6
 Framework group  D6H[3C2'(HC.CH)]
 Deg. of freedom     2
 Full point group                 D6H     NOp  24
 Largest Abelian subgroup         D2H     NOp   8
 Largest concise Abelian subgroup D2      NOp   4
                         Standard orientation:                         
 ---------------------------------------------------------------------
 Center     Atomic      Atomic             Coordinates (Angstroms)
 Number     Number       Type             X           Y           Z
 ---------------------------------------------------------------------
      1          6           0        0.000000    1.391500   -0.000000
      2          6           0        1.205074    0.695750   -0.000000
      3          6           0        1.205074   -0.695750   -0.000000
      4          6           0       -0.000000   -1.391500   -0.000000
      5          6           0       -1.205074   -0.695750   -0.000000
      6          6           0       -1.205074    0.695750   -0.000000
      7          1           0        0.000000    2.471500   -0.000000
      8          1           0        2.140382    1.235750   -0.000000
      9          1           0        2.140382   -1.235750   -0.000000
     10          1           0       -0.000000   -2.471500   -0.000000
     11          1           0       -2.140382   -1.235750   -0.000000
     12          1           0       -2.140382    1.235750   -0.000000
 ---------------------------------------------------------------------
 Rotational constants (GHZ):           5.7316018           5.7316018           2.8658009
 Leave Link  202 at Sat Apr 17 18:19:42 2021, MaxMem=   104857600 cpu:              20.3 elap:               0.6
 (Enter /s/ls4/users/knvvv/bin/g16sse/l301.exe)
 General basis read from cards:  (5D, 7F)
 Centers:       7      8      9     10     11     12
 S 4 1.00
     Exponent=  1.9069169000D+02 Coefficients=  7.0815167000D-04
     Exponent=  2.8605532000D+01 Coefficients=  5.4678827000D-03
     Exponent=  6.5095943000D+00 Coefficients=  2.7966605000D-02
     Exponent=  1.8412455000D+00 Coefficients=  1.0764538000D-01
 S 1 1.00
     Exponent=  5.9853725000D-01 Coefficients=  1.0000000000D+00
 S 1 1.00
     Exponent=  2.1397624000D-01 Coefficients=  1.0000000000D+00
 S 1 1.00
     Exponent=  8.0316286000D-02 Coefficients=  1.0000000000D+00
 P 1 1.00
     Exponent=  2.2920000000D+00 Coefficients=  1.0000000000D+00
 P 1 1.00
     Exponent=  8.3800000000D-01 Coefficients=  1.0000000000D+00
 P 1 1.00
     Exponent=  2.9200000000D-01 Coefficients=  1.0000000000D+00
 P 1 1.00
     Exponent=  8.4063199228D-02 Coefficients=  1.0000000000D+00
 D 1 1.00
     Exponent=  2.0620000000D+00 Coefficients=  1.0000000000D+00
 D 1 1.00
     Exponent=  6.6200000000D-01 Coefficients=  1.0000000000D+00
 F 1 1.00
     Exponent=  1.3970000000D+00 Coefficients=  1.0000000000D+00
 ****
 Centers:       1      2      3      4      5      6
 S 8 1.00
     Exponent=  6.7025071029D+04 Coefficients=  3.8736308501D-05
     Exponent=  1.0039986538D+04 Coefficients=  3.0107917575D-04
     Exponent=  2.2849316911D+03 Coefficients=  1.5787918095D-03
     Exponent=  6.4714122130D+02 Coefficients=  6.6087087195D-03
     Exponent=  2.1109472335D+02 Coefficients=  2.3367123250D-02
     Exponent=  7.6177643862D+01 Coefficients=  7.0420716898D-02
     Exponent=  2.9633839163D+01 Coefficients=  1.7360344953D-01
     Exponent=  1.2187785081D+01 Coefficients=  3.2292305648D-01
 S 2 1.00
     Exponent=  5.3026006299D+01 Coefficients=  7.4897404492D-02
     Exponent=  1.5258502776D+01 Coefficients=  7.6136220983D-01
 S 1 1.00
     Exponent=  5.2403957464D+00 Coefficients=  1.0000000000D+00
 S 1 1.00
     Exponent=  2.2905022379D+00 Coefficients=  1.0000000000D+00
 S 1 1.00
     Exponent=  6.9673283006D-01 Coefficients=  1.0000000000D+00
 S 1 1.00
     Exponent=  2.7599337363D-01 Coefficients=  1.0000000000D+00
 S 1 1.00
     Exponent=  1.0739884389D-01 Coefficients=  1.0000000000D+00
 S 1 1.00
     Exponent=  4.4981404899D-02 Coefficients=  1.0000000000D+00
 P 5 1.00
     Exponent=  1.0512555082D+02 Coefficients=  8.4647553844D-04
     Exponent=  2.4884461066D+01 Coefficients=  6.6274038534D-03
     Exponent=  7.8637230826D+00 Coefficients=  3.0120390419D-02
     Exponent=  2.8407001835D+00 Coefficients=  9.9951435476D-02
     Exponent=  1.1227137335D+00 Coefficients=  2.3826299282D-01
 P 1 1.00
     Exponent=  4.6050725555D-01 Coefficients=  1.0000000000D+00
 P 1 1.00
     Exponent=  1.8937530913D-01 Coefficients=  1.0000000000D+00
 P 1 1.00
     Exponent=  7.5983791611D-02 Coefficients=  1.0000000000D+00
 D 1 1.00
     Exponent=  1.8480000000D+00 Coefficients=  1.0000000000D+00
 D 1 1.00
     Exponent=  6.4900000000D-01 Coefficients=  1.0000000000D+00
 D 1 1.00
     Exponent=  2.2800000000D-01 Coefficients=  1.0000000000D+00
 D 1 1.00
     Exponent=  7.6889830417D-02 Coefficients=  1.0000000000D+00
 F 1 1.00
     Exponent=  1.4190000000D+00 Coefficients=  1.0000000000D+00
 F 1 1.00
     Exponent=  4.8500000000D-01 Coefficients=  1.0000000000D+00
 G 1 1.00
     Exponent=  1.0110000000D+00 Coefficients=  1.0000000000D+00
 ****
 Ernie: Thresh=  0.10000D-02 Tol=  0.10000D-05 Strict=F.
 There are   132 symmetry adapted cartesian basis functions of AG  symmetry.
 There are   105 symmetry adapted cartesian basis functions of B1G symmetry.
 There are    50 symmetry adapted cartesian basis functions of B2G symmetry.
 There are    64 symmetry adapted cartesian basis functions of B3G symmetry.
 There are    50 symmetry adapted cartesian basis functions of AU  symmetry.
 There are    64 symmetry adapted cartesian basis functions of B1U symmetry.
 There are   132 symmetry adapted cartesian basis functions of B2U symmetry.
 There are   105 symmetry adapted cartesian basis functions of B3U symmetry.
 There are   104 symmetry adapted basis functions of AG  symmetry.
 There are    85 symmetry adapted basis functions of B1G symmetry.
 There are    44 symmetry adapted basis functions of B2G symmetry.
 There are    55 symmetry adapted basis functions of B3G symmetry.
 There are    44 symmetry adapted basis functions of AU  symmetry.
 There are    55 symmetry adapted basis functions of B1U symmetry.
 There are   104 symmetry adapted basis functions of B2U symmetry.
 There are    85 symmetry adapted basis functions of B3U symmetry.
   576 basis functions,   840 primitive gaussians,   702 cartesian basis functions
    21 alpha electrons       21 beta electrons
       nuclear repulsion energy       204.0199582770 Hartrees.
 IExCor= 4336 DFT=T Ex+Corr=M062X ExCW=0 ScaHFX=  0.540000
 ScaDFX=  1.000000  1.000000  1.000000  1.000000 ScalE2=  1.000000  1.000000
 IRadAn=      5 IRanWt=     -1 IRanGd=            0 ICorTp=0 IEmpDi=  4
 NAtoms=   12 NActive=   12 NUniq=    2 SFac= 4.00D+00 NAtFMM=   60 NAOKFM=F Big=F
 Integral buffers will be    131072 words long.
 Raffenetti 2 integral format.
 Two-electron integral symmetry is turned on.
 Leave Link  301 at Sat Apr 17 18:19:44 2021, MaxMem=   104857600 cpu:              49.8 elap:               1.8
 (Enter /s/ls4/users/knvvv/bin/g16sse/l302.exe)
 NPDir=0 NMtPBC=     1 NCelOv=     1 NCel=       1 NClECP=     1 NCelD=      1
         NCelK=      1 NCelE2=     1 NClLst=     1 CellRange=     0.0.
 One-electron integrals computed using PRISM.
 One-electron integral symmetry used in STVInt
 PrsmSu:  requested number of processors reduced to:   4 ShMem   1 Linda.
 PrsmSu:  requested number of processors reduced to:  19 ShMem   1 Linda.
 NBasis=   576 RedAO= T EigKep=  1.28D-06  NBF=   104    85    44    55    44    55   104    85
 NBsUse=   569 1.00D-06 EigRej=  3.53D-07 NBFU=   103    83    44    55    44    55   101    84
 Precomputing XC quadrature grid using
 IXCGrd= 4 IRadAn=           5 IRanWt=          -1 IRanGd=           0 AccXCQ= 0.00D+00.
 Generated NRdTot=       0 NPtTot=           0 NUsed=           0 NTot=          32
 NSgBfM=   699   699   699   699   699 MxSgAt=    12 MxSgA2=    12.
 Leave Link  302 at Sat Apr 17 18:21:25 2021, MaxMem=   104857600 cpu:            4693.4 elap:             101.1
 (Enter /s/ls4/users/knvvv/bin/g16sse/l303.exe)
 DipDrv:  MaxL=1.
 Leave Link  303 at Sat Apr 17 18:21:30 2021, MaxMem=   104857600 cpu:             215.7 elap:               4.9
 (Enter /s/ls4/users/knvvv/bin/g16sse/l401.exe)
 SCF N**3 symmetry information disabled.
 ExpMin= 4.50D-02 ExpMax= 6.70D+04 ExpMxC= 6.47D+02 IAcc=3 IRadAn=         5 AccDes= 0.00D+00
 Harris functional with IExCor= 1009 and IRadAn=       5 diagonalized for initial guess.
 HarFok:  IExCor= 1009 AccDes= 0.00D+00 IRadAn=         5 IDoV= 1 UseB2=F ITyADJ=14
 ICtDFT=  3500011 ScaDFX=  1.000000  1.000000  1.000000  1.000000
 FoFCou: FMM=F IPFlag=           0 FMFlag=      100000 FMFlg1=           0
         NFxFlg=           0 DoJE=T BraDBF=F KetDBF=T FulRan=T
         wScrn=  0.000000 ICntrl=       500 IOpCl=  0 I1Cent=   200000004 NGrid=           0
         NMat0=    1 NMatS0=      1 NMatT0=    0 NMatD0=    1 NMtDS0=    0 NMtDT0=    0
 Petite list used in FoFCou.
 CoulSu:  requested number of processors reduced to:  18 ShMem   1 Linda.
 CoulSu:  requested number of processors reduced to:  18 ShMem   1 Linda.
 CoulSu:  requested number of processors reduced to:  21 ShMem   1 Linda.
 CoulSu:  requested number of processors reduced to:  21 ShMem   1 Linda.
 Harris En= -232.179432237491    
 JPrj=0 DoOrth=F DoCkMO=F.
 Initial guess orbital symmetries:
       Occupied  (A1G) (E1U) (E1U) (E2G) (E2G) (B1U) (A1G) (E1U)
                 (E1U) (E2G) (E2G) (A1G) (B2U) (B1U) (E1U) (E1U)
                 (A2U) (E2G) (E2G) (E1G) (E1G)
       Virtual   (E2U) (E2U) (A1G) (B2G) (E1U) (E1U) (E2G) (E2G)
                 (A1G) (B1U) (A2U) (B2U) (E1U) (E1U) (E1G) (E1G)
                 (E2G) (E2G) (A1G) (E1U) (E1U) (A2U) (E2G) (E2G)
                 (E2U) (E2U) (B1U) (E1U) (E1U) (A1G) (E2G) (E2G)
                 (B2G) (B1G) (E2G) (E2G) (E1G) (E1G) (A1G) (E1U)
                 (E1U) (A2U) (E1U) (E1U) (B1U) (B2U) (E2G) (E2G)
                 (E2U) (E2U) (A2G) (B1U) (E2U) (E2U) (E1U) (E1U)
                 (A1G) (B2G) (B2U) (A2G) (E2G) (E2G) (A1G) (E1G)
                 (E1G) (E1U) (E1U) (E2G) (E2G) (A2U) (E1G) (E1G)
                 (E2G) (E2G) (B1U) (E1G) (E1G) (E2U) (E2U) (E1U)
                 (E1U) (A1U) (B2G) (B1G) (A1G) (E2G) (E2G) (E1U)
                 (E1U) (B1U) (A2G) (A1G) (E1U) (E1U) (E2U) (E2U)
                 (A2U) (B1U) (B2U) (E2G) (E2G) (A1G) (E1U) (E1U)
                 (E2U) (E2U) (A2U) (A1G) (B2G) (E1U) (E1U) (A2G)
                 (E2G) (E2G) (E1G) (E1G) (E2G) (E2G) (E1G) (E1G)
                 (B2U) (E1U) (E1U) (B1U) (E2U) (E2U) (E1G) (E1G)
                 (E2G) (E2G) (E2G) (E2G) (E1U) (E1U) (B2G) (E2U)
                 (E2U) (E1U) (E1U) (B1U) (A1G) (A1U) (A1G) (E1U)
                 (E1U) (E2G) (E2G) (B2U) (B1U) (E2G) (E2G) (A2G)
                 (E1U) (E1U) (B1G) (A2G) (B2G) (A2U) (E1U) (E1U)
                 (E2G) (E2G) (A2U) (A1G) (B1U) (E1G) (E1G) (B2U)
                 (A1G) (E2U) (E2U) (E1U) (E1U) (E2G) (E2G) (A1G)
                 (E1G) (E1G) (E2U) (E2U) (B1G) (A2U) (E1U) (E1U)
                 (B1U) (E1U) (E1U) (E2G) (E2G) (E1G) (E1G) (E2G)
                 (E2G) (B2U) (B2G) (E2U) (E2U) (E2G) (E2G) (E1G)
                 (E1G) (B1U) (E2U) (E2U) (E2G) (E2G) (A1U) (A1G)
                 (B1U) (A2U) (B1G) (E1U) (E1U) (B2U) (E2G) (E2G)
                 (E1G) (E1G) (E1U) (E1U) (E2U) (E2U) (B2G) (E1U)
                 (E1U) (A2U) (E1G) (E1G) (A1G) (A1U) (A2G) (E2G)
                 (E2G) (E1U) (E1U) (B1U) (B2G) (E2G) (E2G) (E1U)
                 (E1U) (E2U) (E2U) (A2G) (E2G) (E2G) (A1G) (E1G)
                 (E1G) (A2G) (B2U) (B1U) (E1U) (E1U) (B2U) (E2G)
                 (E2G) (E2U) (E2U) (B2G) (A2U) (A1G) (E1U) (E1U)
                 (E2G) (E2G) (A1G) (E1G) (E1G) (B1U) (E1U) (E1U)
                 (E2U) (E2U) (E2G) (E2G) (B1U) (A1G) (E1G) (E1G)
                 (A1U) (E2G) (E2G) (E1U) (E1U) (E2U) (E2U) (B2G)
                 (B2U) (B1U) (A2G) (E2G) (E2G) (E1U) (E1U) (B1U)
                 (B2G) (E1U) (E1U) (E2G) (E2G) (B2U) (B1G) (A2G)
                 (E2G) (E2G) (A1G) (A2U) (B1G) (E1U) (E1U) (E2U)
                 (E2U) (A1G) (E1G) (E1G) (E2G) (E2G) (E1U) (E1U)
                 (A2U) (E2U) (E2U) (B1U) (E2G) (E2G) (E1G) (E1G)
                 (E1U) (E1U) (A1G) (A2U) (A2G) (E2U) (E2U) (B2U)
                 (E1G) (E1G) (E1G) (E1G) (A1U) (B1U) (E1U) (E1U)
                 (B2G) (E1U) (E1U) (B1G) (E2G) (E2G) (E2U) (E2U)
                 (A1G) (E2U) (E2U) (E1G) (E1G) (B2U) (E2U) (E2U)
                 (A2U) (A1G) (E2G) (E2G) (E1U) (E1U) (E2G) (E2G)
                 (B2G) (B2U) (B2G) (A2G) (B1U) (A2U) (E1U) (E1U)
                 (E2G) (E2G) (E1G) (E1G) (E1U) (E1U) (E1G) (E1G)
                 (A1G) (B1G) (E1U) (E1U) (E2G) (E2G) (E2U) (E2U)
                 (A2G) (B2G) (B1U) (E1U) (E1U) (B2U) (E2G) (E2G)
                 (E2U) (E2U) (E1G) (E1G) (A2U) (E2G) (E2G) (A2G)
                 (A1U) (E1U) (E1U) (A1U) (E2U) (E2U) (A1G) (B1U)
                 (B2G) (E2G) (E2G) (E1G) (E1G) (A2G) (B1U) (B1G)
                 (E1U) (E1U) (B2U) (A1G) (E2G) (E2G) (A2U) (B1U)
                 (E2G) (E2G) (E1U) (E1U) (E1G) (E1G) (E2U) (E2U)
                 (E2G) (E2G) (E1U) (E1U) (E2U) (E2U) (A1G) (E2G)
                 (E2G) (B1U) (E1G) (E1G) (B2G) (B1U) (A1G) (B2U)
                 (B1G) (E1U) (E1U) (E2G) (E2G) (A1U) (E2U) (E2U)
                 (E1U) (E1U) (E2U) (E2U) (E1G) (E1G) (A2G) (E2G)
                 (E2G) (A2U) (A1G) (E1U) (E1U) (E1G) (E1G) (B2G)
                 (B1U) (E1G) (E1G) (A1G) (E2G) (E2G) (A2G) (A1U)
                 (B1U) (E1U) (E1U) (E2U) (E2U) (B2U) (A1U) (E1U)
                 (E1U) (B2G) (E2G) (E2G) (E2G) (E2G) (E1U) (E1U)
                 (A1G) (A2U) (E1U) (E1U) (E1G) (E1G) (B2U) (A2G)
                 (E2G) (E2G) (E2U) (E2U) (E1U) (E1U) (B1U) (A2G)
                 (E2G) (E2G) (B2G) (E2G) (E2G) (B1U) (B1U) (E1U)
                 (E1U) (A2G) (A1G) (E1U) (E1U) (E2G) (E2G) (B1U)
                 (A1G) (E1U) (E1U) (E2G) (E2G) (B1U) (A1G) (E1U)
                 (E1U) (E2G) (E2G) (B1U)
 The electronic state of the initial guess is 1-A1G.
 Leave Link  401 at Sat Apr 17 18:21:37 2021, MaxMem=   104857600 cpu:             198.5 elap:               5.7
 (Enter /s/ls4/users/knvvv/bin/g16sse/l502.exe)
 Integral symmetry usage will be decided dynamically.
 Closed shell SCF:
 Using DIIS extrapolation, IDIIS=  1040.
 NGot=   104857600 LenX=   103819722 LenY=   103326216
 Requested convergence on RMS density matrix=1.00D-08 within 128 cycles.
 Requested convergence on MAX density matrix=1.00D-06.
 Requested convergence on             energy=1.00D-06.
 No special actions if energy rises.
 Fock matrices will be formed incrementally for  20 cycles.

 Cycle   1  Pass 1  IDiag  1:
 FoFJK:  IHMeth= 1 ICntrl=       0 DoSepK=F KAlg= 0 I1Cent=           0 FoldK=F
 IRaf= 960000000 NMat=       1 IRICut=       1 DoRegI=T DoRafI=F ISym2E= 1 IDoP0=0 IntGTp=1.
 FoFCou: FMM=F IPFlag=           0 FMFlag=      100000 FMFlg1=           0
         NFxFlg=           0 DoJE=F BraDBF=F KetDBF=F FulRan=T
         wScrn=  0.000000 ICntrl=         0 IOpCl=  0 I1Cent=           0 NGrid=           0
         NMat0=    1 NMatS0=      1 NMatT0=    0 NMatD0=    1 NMtDS0=    0 NMtDT0=    0
 Petite list used in FoFCou.
 CoulSu:  requested number of processors reduced to:  19 ShMem   1 Linda.
 E= -232.061307911284    
 DIIS: error= 3.33D-02 at cycle   1 NSaved=   1.
 NSaved= 1 IEnMin= 1 EnMin= -232.061307911284     IErMin= 1 ErrMin= 3.33D-02
 ErrMax= 3.33D-02  0.00D+00 EMaxC= 1.00D-01 BMatC= 2.85D-01 BMatP= 2.85D-01
 IDIUse=3 WtCom= 6.67D-01 WtEn= 3.33D-01
 Coeff-Com:  0.100D+01
 Coeff-En:   0.100D+01
 Coeff:      0.100D+01
 Gap=     0.335 Goal=   None    Shift=    0.000
 DSYEVD-2 returned Info=        1139 IAlg= 4 N=   569 NDim=   569 NE2=      181591 trying  DSYEV.
 GapD=    0.335 DampG=1.000 DampE=0.500 DampFc=0.5000 IDamp=-1.
 Damping current iteration by 5.00D-01
 RMSDP=2.06D-03 MaxDP=7.32D-02              OVMax= 1.58D-01

 Cycle   2  Pass 1  IDiag  1:
 RMSU=  9.91D-04    CP:  9.34D-01
 CoulSu:  requested number of processors reduced to:  19 ShMem   1 Linda.
 E= -232.154744996035     Delta-E=       -0.093437084751 Rises=F Damp=T
 DIIS: error= 1.54D-02 at cycle   2 NSaved=   2.
 NSaved= 2 IEnMin= 2 EnMin= -232.154744996035     IErMin= 2 ErrMin= 1.54D-02
 ErrMax= 1.54D-02  0.00D+00 EMaxC= 1.00D-01 BMatC= 3.51D-02 BMatP= 2.85D-01
 IDIUse=3 WtCom= 8.46D-01 WtEn= 1.54D-01
 Coeff-Com: -0.247D+00 0.125D+01
 Coeff-En:   0.000D+00 0.100D+01
 Coeff:     -0.209D+00 0.121D+01
 Gap=     0.339 Goal=   None    Shift=    0.000
 DSYEVD-2 returned Info=        1139 IAlg= 4 N=   569 NDim=   569 NE2=      181591 trying  DSYEV.
 RMSDP=1.82D-03 MaxDP=6.60D-02 DE=-9.34D-02 OVMax= 8.48D-02

 Cycle   3  Pass 1  IDiag  1:
 RMSU=  1.62D-03    CP:  9.83D-01  1.82D+00
 CoulSu:  requested number of processors reduced to:  19 ShMem   1 Linda.
 E= -232.240695526543     Delta-E=       -0.085950530509 Rises=F Damp=F
 DIIS: error= 7.54D-03 at cycle   3 NSaved=   3.
 NSaved= 3 IEnMin= 3 EnMin= -232.240695526543     IErMin= 3 ErrMin= 7.54D-03
 ErrMax= 7.54D-03  0.00D+00 EMaxC= 1.00D-01 BMatC= 5.36D-03 BMatP= 3.51D-02
 IDIUse=3 WtCom= 9.25D-01 WtEn= 7.54D-02
 Coeff-Com: -0.151D+00 0.381D+00 0.770D+00
 Coeff-En:   0.000D+00 0.000D+00 0.100D+01
 Coeff:     -0.140D+00 0.352D+00 0.787D+00
 Gap=     0.328 Goal=   None    Shift=    0.000
 DSYEVD-2 returned Info=      284429 IAlg= 4 N=   569 NDim=   569 NE2=      181591 trying  DSYEV.
 RMSDP=2.73D-04 MaxDP=1.88D-02 DE=-8.60D-02 OVMax= 1.60D-02

 Cycle   4  Pass 1  IDiag  1:
 RMSU=  1.82D-04    CP:  9.57D-01  1.99D+00  9.86D-01
 CoulSu:  requested number of processors reduced to:  19 ShMem   1 Linda.
 E= -232.245689954253     Delta-E=       -0.004994427710 Rises=F Damp=F
 DIIS: error= 9.58D-04 at cycle   4 NSaved=   4.
 NSaved= 4 IEnMin= 4 EnMin= -232.245689954253     IErMin= 4 ErrMin= 9.58D-04
 ErrMax= 9.58D-04  0.00D+00 EMaxC= 1.00D-01 BMatC= 1.09D-04 BMatP= 5.36D-03
 IDIUse=3 WtCom= 9.90D-01 WtEn= 9.58D-03
 Coeff-Com: -0.244D-01 0.529D-01 0.191D+00 0.781D+00
 Coeff-En:   0.000D+00 0.000D+00 0.000D+00 0.100D+01
 Coeff:     -0.241D-01 0.524D-01 0.189D+00 0.783D+00
 Gap=     0.323 Goal=   None    Shift=    0.000
 DSYEVD-2 returned Info=        1139 IAlg= 4 N=   569 NDim=   569 NE2=      181591 trying  DSYEV.
 RMSDP=1.17D-04 MaxDP=7.18D-03 DE=-4.99D-03 OVMax= 1.74D-03

 Cycle   5  Pass 1  IDiag  1:
 RMSU=  5.29D-05    CP:  9.50D-01  2.06D+00  9.88D-01  1.38D+00
 CoulSu:  requested number of processors reduced to:  19 ShMem   1 Linda.
 E= -232.245779183011     Delta-E=       -0.000089228758 Rises=F Damp=F
 DIIS: error= 7.74D-05 at cycle   5 NSaved=   5.
 NSaved= 5 IEnMin= 5 EnMin= -232.245779183011     IErMin= 5 ErrMin= 7.74D-05
 ErrMax= 7.74D-05  0.00D+00 EMaxC= 1.00D-01 BMatC= 7.31D-07 BMatP= 1.09D-04
 IDIUse=1 WtCom= 1.00D+00 WtEn= 0.00D+00
 Coeff-Com:  0.497D-02-0.108D-01-0.290D-01-0.348D-01 0.107D+01
 Coeff:      0.497D-02-0.108D-01-0.290D-01-0.348D-01 0.107D+01
 Gap=     0.323 Goal=   None    Shift=    0.000
 DSYEVD-2 returned Info=      163019 IAlg= 4 N=   569 NDim=   569 NE2=      181591 trying  DSYEV.
 RMSDP=3.80D-05 MaxDP=1.87D-03 DE=-8.92D-05 OVMax= 2.10D-04

 Cycle   6  Pass 1  IDiag  1:
 RMSU=  6.15D-06    CP:  9.48D-01  2.08D+00  9.91D-01  1.51D+00  1.23D+00
 CoulSu:  requested number of processors reduced to:  19 ShMem   1 Linda.
 E= -232.245779831151     Delta-E=       -0.000000648140 Rises=F Damp=F
 DIIS: error= 5.47D-06 at cycle   6 NSaved=   6.
 NSaved= 6 IEnMin= 6 EnMin= -232.245779831151     IErMin= 6 ErrMin= 5.47D-06
 ErrMax= 5.47D-06  0.00D+00 EMaxC= 1.00D-01 BMatC= 5.93D-09 BMatP= 7.31D-07
 IDIUse=1 WtCom= 1.00D+00 WtEn= 0.00D+00
 Coeff-Com: -0.141D-03 0.181D-03 0.241D-03-0.176D-02-0.431D-01 0.104D+01
 Coeff:     -0.141D-03 0.181D-03 0.241D-03-0.176D-02-0.431D-01 0.104D+01
 Gap=     0.323 Goal=   None    Shift=    0.000
 RMSDP=3.65D-06 MaxDP=2.79D-04 DE=-6.48D-07 OVMax= 2.36D-05

 Cycle   7  Pass 1  IDiag  1:
 RMSU=  9.14D-07    CP:  9.48D-01  2.08D+00  9.91D-01  1.50D+00  1.20D+00
                    CP:  1.07D+00
 CoulSu:  requested number of processors reduced to:  19 ShMem   1 Linda.
 E= -232.245779837856     Delta-E=       -0.000000006705 Rises=F Damp=F
 DIIS: error= 8.91D-07 at cycle   7 NSaved=   7.
 NSaved= 7 IEnMin= 7 EnMin= -232.245779837856     IErMin= 7 ErrMin= 8.91D-07
 ErrMax= 8.91D-07  0.00D+00 EMaxC= 1.00D-01 BMatC= 9.14D-11 BMatP= 5.93D-09
 IDIUse=1 WtCom= 1.00D+00 WtEn= 0.00D+00
 Coeff-Com: -0.354D-04 0.792D-04 0.123D-03-0.394D-03-0.104D-01-0.463D-01
 Coeff-Com:  0.106D+01
 Coeff:     -0.354D-04 0.792D-04 0.123D-03-0.394D-03-0.104D-01-0.463D-01
 Coeff:      0.106D+01
 Gap=     0.323 Goal=   None    Shift=    0.000
 DSYEVD-2 returned Info=        1139 IAlg= 4 N=   569 NDim=   569 NE2=      181591 trying  DSYEV.
 RMSDP=2.47D-07 MaxDP=1.72D-05 DE=-6.70D-09 OVMax= 3.98D-06

 Cycle   8  Pass 1  IDiag  1:
 RMSU=  8.73D-08    CP:  9.48D-01  2.08D+00  9.91D-01  1.50D+00  1.20D+00
                    CP:  1.08D+00  1.03D+00
 CoulSu:  requested number of processors reduced to:  19 ShMem   1 Linda.
 E= -232.245779837999     Delta-E=       -0.000000000143 Rises=F Damp=F
 DIIS: error= 6.93D-08 at cycle   8 NSaved=   8.
 NSaved= 8 IEnMin= 8 EnMin= -232.245779837999     IErMin= 8 ErrMin= 6.93D-08
 ErrMax= 6.93D-08  0.00D+00 EMaxC= 1.00D-01 BMatC= 5.83D-13 BMatP= 9.14D-11
 IDIUse=1 WtCom= 1.00D+00 WtEn= 0.00D+00
 Coeff-Com:  0.214D-05-0.337D-05-0.105D-04-0.271D-04 0.485D-03-0.604D-03
 Coeff-Com: -0.764D-01 0.108D+01
 Coeff:      0.214D-05-0.337D-05-0.105D-04-0.271D-04 0.485D-03-0.604D-03
 Coeff:     -0.764D-01 0.108D+01
 Gap=     0.323 Goal=   None    Shift=    0.000
 RMSDP=2.38D-08 MaxDP=1.00D-06 DE=-1.43D-10 OVMax= 3.88D-07

 Cycle   9  Pass 1  IDiag  1:
 RMSU=  1.31D-08    CP:  9.48D-01  2.08D+00  9.91D-01  1.50D+00  1.20D+00
                    CP:  1.09D+00  1.03D+00  1.05D+00
 CoulSu:  requested number of processors reduced to:  19 ShMem   1 Linda.
 E= -232.245779838000     Delta-E=       -0.000000000001 Rises=F Damp=F
 DIIS: error= 9.35D-09 at cycle   9 NSaved=   9.
 NSaved= 9 IEnMin= 9 EnMin= -232.245779838000     IErMin= 9 ErrMin= 9.35D-09
 ErrMax= 9.35D-09  0.00D+00 EMaxC= 1.00D-01 BMatC= 9.83D-15 BMatP= 5.83D-13
 IDIUse=1 WtCom= 1.00D+00 WtEn= 0.00D+00
 Coeff-Com:  0.366D-06-0.794D-06-0.183D-06 0.593D-05 0.980D-04 0.242D-03
 Coeff-Com: -0.413D-02-0.780D-01 0.108D+01
 Coeff:      0.366D-06-0.794D-06-0.183D-06 0.593D-05 0.980D-04 0.242D-03
 Coeff:     -0.413D-02-0.780D-01 0.108D+01
 Gap=     0.323 Goal=   None    Shift=    0.000
 DSYEVD-2 returned Info=      163019 IAlg= 4 N=   569 NDim=   569 NE2=      181591 trying  DSYEV.
 RMSDP=4.56D-09 MaxDP=2.08D-07 DE=-6.82D-13 OVMax= 2.84D-08

 SCF Done:  E(RM062X) =  -232.245779838     A.U. after    9 cycles
            NFock=  9  Conv=0.46D-08     -V/T= 2.0045
 KE= 2.312038934075D+02 PE=-9.463341841899D+02 EE= 2.788645526674D+02
 Leave Link  502 at Sat Apr 17 18:42:01 2021, MaxMem=   104857600 cpu:           56903.1 elap:            1224.4
 (Enter /s/ls4/users/knvvv/bin/g16sse/l601.exe)
 Copying SCF densities to generalized density rwf, IOpCl= 0 IROHF=0.

 **********************************************************************

            Population analysis using the SCF density.

 **********************************************************************

 Orbital symmetries:
       Occupied  (A1G) (E1U) (E1U) (E2G) (E2G) (B1U) (A1G) (E1U)
                 (E1U) (E2G) (E2G) (A1G) (B1U) (B2U) (E1U) (E1U)
                 (A2U) (E2G) (E2G) (E1G) (E1G)
       Virtual   (A1G) (E2U) (E2U) (E1U) (E1U) (E2G) (E2G) (A1G)
                 (B1U) (A2U) (B2U) (E1U) (E1U) (E1G) (E1G) (E2G)
                 (E2G) (B2G) (A1G) (E2G) (E2G) (A2U) (E2U) (E2U)
                 (E1U) (E1U) (B1U) (E2G) (E2G) (A1G) (E1U) (E1U)
                 (E1G) (E1G) (B2G) (B1G) (B1U) (E1U) (E1U) (E2U)
                 (E2U) (B2U) (A1G) (A2G) (A2U) (E2G) (E2G) (E1U)
                 (E1U) (E2G) (E2G) (E2U) (E2U) (B2G) (A1G) (E2G)
                 (E2G) (E1G) (E1G) (B1U) (E1U) (E1U) (B2U) (E1U)
                 (E1U) (A1G) (E1G) (E1G) (A1U) (E2G) (E2G) (E1U)
                 (E1U) (A2U) (E2U) (E2U) (E2G) (E2G) (A2G) (B2G)
                 (E1G) (E1G) (A1G) (B1U) (E1U) (E1U) (B1U) (E2G)
                 (E2G) (B1G) (A2G) (E1U) (E1U) (E2U) (E2U) (B2U)
                 (A1G) (E2G) (E2G) (B1U) (A2U) (A1G) (E1U) (E1U)
                 (E2U) (E2U) (A2U) (B2G) (A1G) (E1U) (E1U) (A2G)
                 (E2G) (E2G) (E1G) (E1G) (E2G) (E2G) (E1G) (E1G)
                 (E1U) (E1U) (B2U) (B1U) (E2U) (E2U) (E1G) (E1G)
                 (E2G) (E2G) (E2G) (E2G) (E1U) (E1U) (B2G) (E1U)
                 (E1U) (E2U) (E2U) (B1U) (A1U) (A1G) (E1U) (E1U)
                 (A1G) (E2G) (E2G) (B2U) (B1U) (E2G) (E2G) (A2G)
                 (E1U) (E1U) (A2G) (B2G) (B1G) (A2U) (E2G) (E2G)
                 (B1U) (A1G) (E1U) (E1U) (A2U) (E1G) (E1G) (B2U)
                 (A1G) (E2U) (E2U) (E1U) (E1U) (E2G) (E2G) (A1G)
                 (B1U) (E2U) (E2U) (E1G) (E1G) (B1G) (E1U) (E1U)
                 (A2U) (E1U) (E1U) (E2G) (E2G) (E1G) (E1G) (E2G)
                 (E2G) (B2G) (E2U) (E2U) (B2U) (E2G) (E2G) (E1G)
                 (E1G) (B1U) (E2U) (E2U) (E2G) (E2G) (A1U) (A1G)
                 (B1U) (A2U) (E1U) (E1U) (B1G) (B2U) (E1U) (E1U)
                 (E1G) (E1G) (E2G) (E2G) (E2U) (E2U) (B2G) (E1U)
                 (E1U) (A1U) (A1G) (A2U) (E1G) (E1G) (A2G) (E2G)
                 (E2G) (B1U) (E1U) (E1U) (B2G) (A2G) (E2G) (E2G)
                 (E2U) (E2U) (E1U) (E1U) (E2G) (E2G) (A1G) (A2G)
                 (E1G) (E1G) (B2U) (B1U) (E1U) (E1U) (E2G) (E2G)
                 (E2U) (E2U) (B2G) (B2U) (A2U) (A1G) (E2G) (E2G)
                 (E1U) (E1U) (E1G) (E1G) (B1U) (A1G) (E1U) (E1U)
                 (B1U) (E2G) (E2G) (E2U) (E2U) (A1G) (E1G) (E1G)
                 (A1U) (E2G) (E2G) (E2U) (E2U) (E1U) (E1U) (B2G)
                 (B2U) (B1U) (A2G) (E2G) (E2G) (E1U) (E1U) (B1U)
                 (B2G) (E1U) (E1U) (E2G) (E2G) (B2U) (B1G) (A2G)
                 (A1G) (E2G) (E2G) (A2U) (B1G) (E1U) (E1U) (E2U)
                 (E2U) (E1G) (E1G) (A1G) (E2G) (E2G) (A2U) (E1U)
                 (E1U) (E2U) (E2U) (B1U) (E1G) (E1G) (E2G) (E2G)
                 (E1U) (E1U) (A1G) (A2U) (A2G) (E2U) (E2U) (B2U)
                 (E1G) (E1G) (E1G) (E1G) (A1U) (E1U) (E1U) (B1U)
                 (B2G) (E1U) (E1U) (E2G) (E2G) (E2U) (E2U) (B1G)
                 (E1G) (E1G) (A2U) (A1G) (E2U) (E2U) (B2U) (E2U)
                 (E2U) (E2G) (E2G) (E1U) (E1U) (A1G) (E2G) (E2G)
                 (B2G) (B2U) (B2G) (A2G) (A2U) (E1G) (E1G) (E2G)
                 (E2G) (B1U) (E1U) (E1U) (E1U) (E1U) (E1G) (E1G)
                 (A1G) (E2G) (E2G) (B1G) (E1U) (E1U) (B2G) (A2G)
                 (B2U) (E2U) (E2U) (B1U) (E1U) (E1U) (E2G) (E2G)
                 (E2U) (E2U) (E2G) (E2G) (E1G) (E1G) (A2G) (A2U)
                 (A1U) (A1U) (E1U) (E1U) (E2U) (E2U) (A1G) (B1U)
                 (B2G) (E2G) (E2G) (E1G) (E1G) (A2G) (B1G) (B1U)
                 (A1G) (E1U) (E1U) (E2G) (E2G) (B2U) (A2U) (E1G)
                 (E1G) (E2U) (E2U) (E1U) (E1U) (B1U) (E2G) (E2G)
                 (E2G) (E2G) (E2U) (E2U) (E1U) (E1U) (A1G) (E1G)
                 (E1G) (B1U) (E2G) (E2G) (B2G) (B1G) (B2U) (B1U)
                 (A1G) (A1U) (E2G) (E2G) (E2U) (E2U) (E1U) (E1U)
                 (E1U) (E1U) (A2G) (E2U) (E2U) (A2U) (E1G) (E1G)
                 (E2G) (E2G) (E1U) (E1U) (E1G) (E1G) (B2G) (A1G)
                 (E1G) (E1G) (B1U) (A1G) (A2G) (E2G) (E2G) (B1U)
                 (A1U) (E2U) (E2U) (E1U) (E1U) (B2U) (A1U) (B2G)
                 (E1U) (E1U) (E2G) (E2G) (E2G) (E2G) (E1U) (E1U)
                 (A1G) (A2U) (E1G) (E1G) (B2U) (E1U) (E1U) (A2G)
                 (E2G) (E2G) (E2U) (E2U) (E1U) (E1U) (B1U) (A2G)
                 (B2G) (E2G) (E2G) (E2G) (E2G) (B1U) (E1U) (E1U)
                 (B1U) (A2G) (A1G) (E1U) (E1U) (E2G) (E2G) (B1U)
                 (A1G) (E1U) (E1U) (E2G) (E2G) (B1U) (A1G) (E1U)
                 (E1U) (E2G) (E2G) (B1U)
 The electronic state is 1-A1G.
 Alpha  occ. eigenvalues --  -10.54677 -10.54639 -10.54639 -10.54557 -10.54557
 Alpha  occ. eigenvalues --  -10.54516  -0.96085  -0.84407  -0.84407  -0.68732
 Alpha  occ. eigenvalues --   -0.68732  -0.60265  -0.53531  -0.51417  -0.48972
 Alpha  occ. eigenvalues --   -0.48972  -0.44133  -0.40383  -0.40383  -0.30975
 Alpha  occ. eigenvalues --   -0.30975
 Alpha virt. eigenvalues --    0.01297   0.01873   0.01873   0.02844   0.02844
 Alpha virt. eigenvalues --    0.04860   0.04860   0.08233   0.08420   0.12090
 Alpha virt. eigenvalues --    0.13755   0.14809   0.14809   0.15053   0.15053
 Alpha virt. eigenvalues --    0.17192   0.17192   0.17342   0.18937   0.19558
 Alpha virt. eigenvalues --    0.19558   0.19612   0.20882   0.20882   0.20952
 Alpha virt. eigenvalues --    0.20952   0.23827   0.24420   0.24420   0.24711
 Alpha virt. eigenvalues --    0.25788   0.25788   0.26432   0.26432   0.27146
 Alpha virt. eigenvalues --    0.27873   0.29618   0.30852   0.30852   0.31495
 Alpha virt. eigenvalues --    0.31495   0.31681   0.33275   0.34484   0.34704
 Alpha virt. eigenvalues --    0.34924   0.34924   0.36488   0.36488   0.37051
 Alpha virt. eigenvalues --    0.37051   0.38353   0.38353   0.39126   0.40732
 Alpha virt. eigenvalues --    0.40876   0.40876   0.43249   0.43249   0.43813
 Alpha virt. eigenvalues --    0.45180   0.45180   0.46190   0.47071   0.47071
 Alpha virt. eigenvalues --    0.48323   0.49952   0.49952   0.51754   0.52866
 Alpha virt. eigenvalues --    0.52866   0.54357   0.54357   0.54531   0.54997
 Alpha virt. eigenvalues --    0.54997   0.55737   0.55737   0.56922   0.59785
 Alpha virt. eigenvalues --    0.61222   0.61222   0.62016   0.62412   0.64088
 Alpha virt. eigenvalues --    0.64088   0.64843   0.64997   0.64997   0.67280
 Alpha virt. eigenvalues --    0.68032   0.68379   0.68379   0.73770   0.73770
 Alpha virt. eigenvalues --    0.75625   0.76230   0.77492   0.77492   0.78480
 Alpha virt. eigenvalues --    0.79618   0.85889   0.86385   0.86385   0.88274
 Alpha virt. eigenvalues --    0.88274   0.89203   0.90293   0.91860   0.92656
 Alpha virt. eigenvalues --    0.92656   0.94852   0.95908   0.95908   0.97341
 Alpha virt. eigenvalues --    0.97341   0.99627   0.99627   1.03505   1.03505
 Alpha virt. eigenvalues --    1.06922   1.06922   1.07121   1.10051   1.11246
 Alpha virt. eigenvalues --    1.11246   1.15130   1.15130   1.15996   1.15996
 Alpha virt. eigenvalues --    1.20705   1.20705   1.21441   1.21441   1.22005
 Alpha virt. eigenvalues --    1.25341   1.25341   1.25588   1.25588   1.28981
 Alpha virt. eigenvalues --    1.30814   1.30825   1.34107   1.34107   1.35421
 Alpha virt. eigenvalues --    1.41392   1.41392   1.44622   1.46178   1.47938
 Alpha virt. eigenvalues --    1.47938   1.49405   1.60480   1.60480   1.61650
 Alpha virt. eigenvalues --    1.62482   1.67810   1.69551   1.74343   1.74343
 Alpha virt. eigenvalues --    1.75112   1.78329   1.78968   1.78968   1.81476
 Alpha virt. eigenvalues --    1.81896   1.81896   1.85295   1.85560   1.90204
 Alpha virt. eigenvalues --    1.90204   1.92364   1.92364   1.93252   1.93252
 Alpha virt. eigenvalues --    1.94121   2.00000   2.02062   2.02062   2.02424
 Alpha virt. eigenvalues --    2.02424   2.02807   2.06452   2.06452   2.07280
 Alpha virt. eigenvalues --    2.08657   2.08657   2.09208   2.09208   2.11245
 Alpha virt. eigenvalues --    2.11245   2.18750   2.18750   2.20781   2.20945
 Alpha virt. eigenvalues --    2.20945   2.22515   2.24055   2.24055   2.27555
 Alpha virt. eigenvalues --    2.27555   2.30041   2.32603   2.32603   2.34486
 Alpha virt. eigenvalues --    2.34486   2.36949   2.39115   2.41289   2.51076
 Alpha virt. eigenvalues --    2.52830   2.52830   2.53881   2.54926   2.56993
 Alpha virt. eigenvalues --    2.56993   2.57499   2.57499   2.57859   2.57859
 Alpha virt. eigenvalues --    2.60308   2.60308   2.61433   2.66522   2.66522
 Alpha virt. eigenvalues --    2.69511   2.70128   2.73032   2.73211   2.73211
 Alpha virt. eigenvalues --    2.76516   2.76720   2.76720   2.77616   2.77742
 Alpha virt. eigenvalues --    2.77742   2.79637   2.82057   2.83252   2.83252
 Alpha virt. eigenvalues --    2.83663   2.83663   2.85604   2.85604   2.87255
 Alpha virt. eigenvalues --    2.87255   2.91513   2.97688   2.97978   2.97978
 Alpha virt. eigenvalues --    3.00177   3.03250   3.07707   3.07707   3.14066
 Alpha virt. eigenvalues --    3.14066   3.19588   3.19588   3.24218   3.26191
 Alpha virt. eigenvalues --    3.28460   3.36306   3.39613   3.39613   3.40401
 Alpha virt. eigenvalues --    3.40401   3.47235   3.47235   3.48029   3.48846
 Alpha virt. eigenvalues --    3.49870   3.49870   3.56658   3.57487   3.57487
 Alpha virt. eigenvalues --    3.60757   3.60757   3.62909   3.63084   3.63084
 Alpha virt. eigenvalues --    3.75602   3.86996   3.86996   3.87139   3.87139
 Alpha virt. eigenvalues --    3.90149   3.90149   4.01789   4.04374   4.05469
 Alpha virt. eigenvalues --    4.10154   4.13804   4.13804   4.19551   4.19551
 Alpha virt. eigenvalues --    4.26723   4.33121   4.50355   4.50355   4.52496
 Alpha virt. eigenvalues --    4.52496   4.55306   4.65908   4.69970   4.77740
 Alpha virt. eigenvalues --    4.78639   4.78639   4.82705   4.85131   4.97077
 Alpha virt. eigenvalues --    4.97077   5.01662   5.01662   5.04102   5.04102
 Alpha virt. eigenvalues --    5.04418   5.06992   5.06992   5.18427   5.21407
 Alpha virt. eigenvalues --    5.21407   5.22912   5.22912   5.29522   5.32117
 Alpha virt. eigenvalues --    5.32117   5.32727   5.32727   5.33720   5.33720
 Alpha virt. eigenvalues --    5.37201   5.41330   5.41590   5.43074   5.43074
 Alpha virt. eigenvalues --    5.44074   5.50686   5.50686   5.60281   5.60281
 Alpha virt. eigenvalues --    5.62996   5.70604   5.70604   5.71910   5.72413
 Alpha virt. eigenvalues --    5.77087   5.77087   5.82738   5.82738   5.84710
 Alpha virt. eigenvalues --    5.84710   5.86468   5.90948   5.90948   5.90948
 Alpha virt. eigenvalues --    5.91844   5.95778   5.95778   5.96814   5.98301
 Alpha virt. eigenvalues --    5.98301   6.01294   6.01294   6.06602   6.06602
 Alpha virt. eigenvalues --    6.07196   6.08098   6.08098   6.08539   6.15192
 Alpha virt. eigenvalues --    6.16428   6.16961   6.21254   6.21617   6.21617
 Alpha virt. eigenvalues --    6.21784   6.21784   6.22266   6.24525   6.24525
 Alpha virt. eigenvalues --    6.25423   6.25423   6.28720   6.28720   6.29900
 Alpha virt. eigenvalues --    6.40599   6.40599   6.41498   6.42065   6.42065
 Alpha virt. eigenvalues --    6.47731   6.50123   6.51590   6.51683   6.51683
 Alpha virt. eigenvalues --    6.56148   6.57384   6.57384   6.59094   6.59094
 Alpha virt. eigenvalues --    6.61351   6.61351   6.64976   6.64976   6.65690
 Alpha virt. eigenvalues --    6.65690   6.66541   6.68667   6.81408   6.86024
 Alpha virt. eigenvalues --    6.86139   6.86139   6.86541   6.86541   6.98127
 Alpha virt. eigenvalues --    6.99544   7.02252   7.04753   7.04753   7.04952
 Alpha virt. eigenvalues --    7.04952   7.15318   7.16238   7.23267   7.28460
 Alpha virt. eigenvalues --    7.33018   7.33018   7.34400   7.34400   7.34886
 Alpha virt. eigenvalues --    7.35046   7.41727   7.41727   7.43075   7.43075
 Alpha virt. eigenvalues --    7.45150   7.45150   7.45314   7.51977   7.51977
 Alpha virt. eigenvalues --    7.63116   7.63116   7.63194   7.63194   7.64238
 Alpha virt. eigenvalues --    7.64238   7.69223   7.76337   7.76337   7.78913
 Alpha virt. eigenvalues --    7.80120   7.80120   7.84961   7.89197   7.92420
 Alpha virt. eigenvalues --    7.94397   7.94996   7.95949   7.99464   7.99464
 Alpha virt. eigenvalues --    8.00249   8.00249   8.02154   8.02154   8.08972
 Alpha virt. eigenvalues --    8.08972   8.12042   8.14700   8.14700   8.16990
 Alpha virt. eigenvalues --    8.18109   8.18109   8.18496   8.18496   8.28629
 Alpha virt. eigenvalues --    8.28629   8.29722   8.29722   8.31576   8.32375
 Alpha virt. eigenvalues --    8.34232   8.34232   8.40067   8.45370   8.49039
 Alpha virt. eigenvalues --    8.51094   8.51094   8.55404   8.57339   8.60492
 Alpha virt. eigenvalues --    8.60492   8.62777   8.62777   8.66507   8.82718
 Alpha virt. eigenvalues --    8.84827   8.90186   8.90186   8.94737   8.94737
 Alpha virt. eigenvalues --    9.31907   9.31907   9.36656   9.36656   9.46972
 Alpha virt. eigenvalues --    9.50258   9.56253   9.56253   9.59107   9.59141
 Alpha virt. eigenvalues --    9.59141   9.66937   9.77504   9.77504   9.81170
 Alpha virt. eigenvalues --    9.81170   9.95248   9.95248   9.97331  10.12442
 Alpha virt. eigenvalues --   10.13493  10.20821  10.20821  10.41799  10.41799
 Alpha virt. eigenvalues --   10.56803  10.69012  10.69012  10.73222  11.67610
 Alpha virt. eigenvalues --   11.84228  12.46922  12.46922  12.79661  12.79661
 Alpha virt. eigenvalues --   13.20136  28.02390  28.59510  28.59510  29.05671
 Alpha virt. eigenvalues --   29.05671  29.39826 145.53189 146.08105 146.08105
 Alpha virt. eigenvalues --  146.51652 146.51652 146.88656
          Condensed to atoms (all electrons):
               1          2          3          4          5          6
     1  C    6.039253   0.087977  -0.052489   0.195989  -0.052489   0.087977
     2  C    0.087977   6.039253   0.087977  -0.052489   0.195989  -0.052489
     3  C   -0.052489   0.087977   6.039253   0.087977  -0.052489   0.195989
     4  C    0.195989  -0.052489   0.087977   6.039253   0.087977  -0.052489
     5  C   -0.052489   0.195989  -0.052489   0.087977   6.039253   0.087977
     6  C    0.087977  -0.052489   0.195989  -0.052489   0.087977   6.039253
     7  H    0.236477  -0.021188   0.016536  -0.027205   0.016536  -0.021188
     8  H   -0.021188   0.236477  -0.021188   0.016536  -0.027205   0.016536
     9  H    0.016536  -0.021188   0.236477  -0.021188   0.016536  -0.027205
    10  H   -0.027205   0.016536  -0.021188   0.236477  -0.021188   0.016536
    11  H    0.016536  -0.027205   0.016536  -0.021188   0.236477  -0.021188
    12  H   -0.021188   0.016536  -0.027205   0.016536  -0.021188   0.236477
               7          8          9         10         11         12
     1  C    0.236477  -0.021188   0.016536  -0.027205   0.016536  -0.021188
     2  C   -0.021188   0.236477  -0.021188   0.016536  -0.027205   0.016536
     3  C    0.016536  -0.021188   0.236477  -0.021188   0.016536  -0.027205
     4  C   -0.027205   0.016536  -0.021188   0.236477  -0.021188   0.016536
     5  C    0.016536  -0.027205   0.016536  -0.021188   0.236477  -0.021188
     6  C   -0.021188   0.016536  -0.027205   0.016536  -0.021188   0.236477
     7  H    0.299764  -0.001268  -0.002083   0.000783  -0.002083  -0.001268
     8  H   -0.001268   0.299764  -0.001268  -0.002083   0.000783  -0.002083
     9  H   -0.002083  -0.001268   0.299764  -0.001268  -0.002083   0.000783
    10  H    0.000783  -0.002083  -0.001268   0.299764  -0.001268  -0.002083
    11  H   -0.002083   0.000783  -0.002083  -0.001268   0.299764  -0.001268
    12  H   -0.001268  -0.002083   0.000783  -0.002083  -0.001268   0.299764
 Mulliken charges:
               1
     1  C   -0.506186
     2  C   -0.506186
     3  C   -0.506186
     4  C   -0.506186
     5  C   -0.506186
     6  C   -0.506186
     7  H    0.506186
     8  H    0.506186
     9  H    0.506186
    10  H    0.506186
    11  H    0.506186
    12  H    0.506186
 Sum of Mulliken charges =  -0.00000
 Mulliken charges with hydrogens summed into heavy atoms:
               1
     1  C   -0.000000
     2  C   -0.000000
     3  C   -0.000000
     4  C   -0.000000
     5  C   -0.000000
     6  C   -0.000000
 Electronic spatial extent (au):  <R**2>=            457.0514
 Charge=             -0.0000 electrons
 Dipole moment (field-independent basis, Debye):
    X=              0.0000    Y=              0.0000    Z=             -0.0000  Tot=              0.0000
 Quadrupole moment (field-independent basis, Debye-Ang):
   XX=            -31.9689   YY=            -31.9689   ZZ=            -39.9639
   XY=              0.0000   XZ=              0.0000   YZ=              0.0000
 Traceless Quadrupole moment (field-independent basis, Debye-Ang):
   XX=              2.6650   YY=              2.6650   ZZ=             -5.3300
   XY=              0.0000   XZ=              0.0000   YZ=              0.0000
 Octapole moment (field-independent basis, Debye-Ang**2):
  XXX=             -0.0000  YYY=              0.0000  ZZZ=              0.0000  XYY=             -0.0000
  XXY=             -0.0000  XXZ=              0.0000  XZZ=             -0.0000  YZZ=              0.0000
  YYZ=              0.0000  XYZ=             -0.0000
 Hexadecapole moment (field-independent basis, Debye-Ang**3):
 XXXX=           -272.6493 YYYY=           -272.6493 ZZZZ=            -47.5126 XXXY=              0.0000
 XXXZ=              0.0000 YYYX=              0.0000 YYYZ=              0.0000 ZZZX=              0.0000
 ZZZY=              0.0000 XXYY=            -90.8831 XXZZ=            -64.1377 YYZZ=            -64.1377
 XXYZ=              0.0000 YYXZ=              0.0000 ZZXY=              0.0000
 N-N= 2.040199582770D+02 E-N=-9.463341849463D+02  KE= 2.312038934075D+02
 PrsmSu:  requested number of processors reduced to:  20 ShMem   1 Linda.
 No NMR shielding tensors so no spin-rotation constants.
 Leave Link  601 at Sat Apr 17 18:42:37 2021, MaxMem=   104857600 cpu:            1658.3 elap:              35.5
 (Enter /s/ls4/users/knvvv/bin/g16sse/l801.exe)
 DoSCS=F DFT=T ScalE2(SS,OS)=  1.000000  1.000000
 Range of M.O.s used for correlation:     1   569
 NBasis=   576 NAE=    21 NBE=    21 NFC=     0 NFV=     0
 NROrb=    569 NOA=    21 NOB=    21 NVA=   548 NVB=   548

 **** Warning!!: The largest alpha MO coefficient is  0.15522441D+03

 Leave Link  801 at Sat Apr 17 18:42:38 2021, MaxMem=   104857600 cpu:               7.5 elap:               0.3
 (Enter /s/ls4/users/knvvv/bin/g16sse/l914.exe)
 RHF ground state
 Doing stability rather than CIS.
 Two-electron integrals replicated using symmetry.
 MDV=   104857600 DFT=T DoStab=T Mixed=T DoRPA=F DoScal=F NonHer=F
 Making orbital integer symmetry assigments:
 Orbital symmetries:
       Occupied  (A1G) (E1U) (E1U) (E2G) (E2G) (B1U) (A1G) (E1U)
                 (E1U) (E2G) (E2G) (A1G) (B1U) (B2U) (E1U) (E1U)
                 (A2U) (E2G) (E2G) (E1G) (E1G)
       Virtual   (A1G) (E2U) (E2U) (E1U) (E1U) (E2G) (E2G) (A1G)
                 (B1U) (A2U) (B2U) (E1U) (E1U) (E1G) (E1G) (E2G)
                 (E2G) (B2G) (A1G) (E2G) (E2G) (A2U) (E2U) (E2U)
                 (E1U) (E1U) (B1U) (E2G) (E2G) (A1G) (E1U) (E1U)
                 (E1G) (E1G) (B2G) (B1G) (B1U) (E1U) (E1U) (E2U)
                 (E2U) (B2U) (A1G) (A2G) (A2U) (E2G) (E2G) (E1U)
                 (E1U) (E2G) (E2G) (E2U) (E2U) (B2G) (A1G) (E2G)
                 (E2G) (E1G) (E1G) (B1U) (E1U) (E1U) (B2U) (E1U)
                 (E1U) (A1G) (E1G) (E1G) (A1U) (E2G) (E2G) (E1U)
                 (E1U) (A2U) (E2U) (E2U) (E2G) (E2G) (A2G) (B2G)
                 (E1G) (E1G) (A1G) (B1U) (E1U) (E1U) (B1U) (E2G)
                 (E2G) (B1G) (A2G) (E1U) (E1U) (E2U) (E2U) (B2U)
                 (A1G) (E2G) (E2G) (B1U) (A2U) (A1G) (E1U) (E1U)
                 (E2U) (E2U) (A2U) (B2G) (A1G) (E1U) (E1U) (A2G)
                 (E2G) (E2G) (E1G) (E1G) (E2G) (E2G) (E1G) (E1G)
                 (E1U) (E1U) (B2U) (B1U) (E2U) (E2U) (E1G) (E1G)
                 (E2G) (E2G) (E2G) (E2G) (E1U) (E1U) (B2G) (E1U)
                 (E1U) (E2U) (E2U) (B1U) (A1U) (A1G) (E1U) (E1U)
                 (A1G) (E2G) (E2G) (B2U) (B1U) (E2G) (E2G) (A2G)
                 (E1U) (E1U) (A2G) (B2G) (B1G) (A2U) (E2G) (E2G)
                 (B1U) (A1G) (E1U) (E1U) (A2U) (E1G) (E1G) (B2U)
                 (A1G) (E2U) (E2U) (E1U) (E1U) (E2G) (E2G) (A1G)
                 (B1U) (E2U) (E2U) (E1G) (E1G) (B1G) (E1U) (E1U)
                 (A2U) (E1U) (E1U) (E2G) (E2G) (E1G) (E1G) (E2G)
                 (E2G) (B2G) (E2U) (E2U) (B2U) (E2G) (E2G) (E1G)
                 (E1G) (B1U) (E2U) (E2U) (E2G) (E2G) (A1U) (A1G)
                 (B1U) (A2U) (E1U) (E1U) (B1G) (B2U) (E1U) (E1U)
                 (E1G) (E1G) (E2G) (E2G) (E2U) (E2U) (B2G) (E1U)
                 (E1U) (A1U) (A1G) (A2U) (E1G) (E1G) (A2G) (E2G)
                 (E2G) (B1U) (E1U) (E1U) (B2G) (A2G) (E2G) (E2G)
                 (E2U) (E2U) (E1U) (E1U) (E2G) (E2G) (A1G) (A2G)
                 (E1G) (E1G) (B2U) (B1U) (E1U) (E1U) (E2G) (E2G)
                 (E2U) (E2U) (B2G) (B2U) (A2U) (A1G) (E2G) (E2G)
                 (E1U) (E1U) (E1G) (E1G) (B1U) (A1G) (E1U) (E1U)
                 (B1U) (E2G) (E2G) (E2U) (E2U) (A1G) (E1G) (E1G)
                 (A1U) (E2G) (E2G) (E2U) (E2U) (E1U) (E1U) (B2G)
                 (B2U) (B1U) (A2G) (E2G) (E2G) (E1U) (E1U) (B1U)
                 (B2G) (E1U) (E1U) (E2G) (E2G) (B2U) (B1G) (A2G)
                 (A1G) (E2G) (E2G) (A2U) (B1G) (E1U) (E1U) (E2U)
                 (E2U) (E1G) (E1G) (A1G) (E2G) (E2G) (A2U) (E1U)
                 (E1U) (E2U) (E2U) (B1U) (E1G) (E1G) (E2G) (E2G)
                 (E1U) (E1U) (A1G) (A2U) (A2G) (E2U) (E2U) (B2U)
                 (E1G) (E1G) (E1G) (E1G) (A1U) (E1U) (E1U) (B1U)
                 (B2G) (E1U) (E1U) (E2G) (E2G) (E2U) (E2U) (B1G)
                 (E1G) (E1G) (A2U) (A1G) (E2U) (E2U) (B2U) (E2U)
                 (E2U) (E2G) (E2G) (E1U) (E1U) (A1G) (E2G) (E2G)
                 (B2G) (B2U) (B2G) (A2G) (A2U) (E1G) (E1G) (E2G)
                 (E2G) (B1U) (E1U) (E1U) (E1U) (E1U) (E1G) (E1G)
                 (A1G) (E2G) (E2G) (B1G) (E1U) (E1U) (B2G) (A2G)
                 (B2U) (E2U) (E2U) (B1U) (E1U) (E1U) (E2G) (E2G)
                 (E2U) (E2U) (E2G) (E2G) (E1G) (E1G) (A2G) (A2U)
                 (A1U) (A1U) (E1U) (E1U) (E2U) (E2U) (A1G) (B1U)
                 (B2G) (E2G) (E2G) (E1G) (E1G) (A2G) (B1G) (B1U)
                 (A1G) (E1U) (E1U) (E2G) (E2G) (B2U) (A2U) (E1G)
                 (E1G) (E2U) (E2U) (E1U) (E1U) (B1U) (E2G) (E2G)
                 (E2G) (E2G) (E2U) (E2U) (E1U) (E1U) (A1G) (E1G)
                 (E1G) (B1U) (E2G) (E2G) (B2G) (B1G) (B2U) (B1U)
                 (A1G) (A1U) (E2G) (E2G) (E2U) (E2U) (E1U) (E1U)
                 (E1U) (E1U) (A2G) (E2U) (E2U) (A2U) (E1G) (E1G)
                 (E2G) (E2G) (E1U) (E1U) (E1G) (E1G) (B2G) (A1G)
                 (E1G) (E1G) (B1U) (A1G) (A2G) (E2G) (E2G) (B1U)
                 (A1U) (E2U) (E2U) (E1U) (E1U) (B2U) (A1U) (B2G)
                 (E1U) (E1U) (E2G) (E2G) (E2G) (E2G) (E1U) (E1U)
                 (A1G) (A2U) (E1G) (E1G) (B2U) (E1U) (E1U) (A2G)
                 (E2G) (E2G) (E2U) (E2U) (E1U) (E1U) (B1U) (A2G)
                 (B2G) (E2G) (E2G) (E2G) (E2G) (B1U) (E1U) (E1U)
                 (B1U) (A2G) (A1G) (E1U) (E1U) (E2G) (E2G) (B1U)
                 (A1G) (E1U) (E1U) (E2G) (E2G) (B1U) (A1G) (E1U)
                 (E1U) (E2G) (E2G) (B1U)
    48 initial guesses have been made.
 Convergence on wavefunction:    0.001000000000000
 Davidson Disk Diagonalization:  ConvIn= 1.00D-03 SkipCon=T Conv= 1.00D-03.
 Max sub-space:  2000 roots to seek:    48 dimension of matrix:        23016
 Iteration     1 Dimension    48 NMult     0 NNew     48
 Estimated number of processors is:   14
 CISAX will form     1 AO SS matrices at one time.
 NMat=     1 NSing=     1 JSym2X= 2.
 FoFJK:  IHMeth= 1 ICntrl=       0 DoSepK=F KAlg= 0 I1Cent=           0 FoldK=F
 IRaf= 960000000 NMat=       1 IRICut=       1 DoRegI=T DoRafI=F ISym2E= 2 IDoP0=0 IntGTp=1.
 FoFCou: FMM=F IPFlag=           0 FMFlag=      100000 FMFlg1=           0
         NFxFlg=           0 DoJE=F BraDBF=F KetDBF=F FulRan=T
         wScrn=  0.000000 ICntrl=         0 IOpCl=  0 I1Cent=           0 NGrid=           0
         NMat0=    1 NMatS0=      1 NMatT0=    0 NMatD0=    1 NMtDS0=    0 NMtDT0=    0
 Integrals replicated using symmetry in FoFCou.
 CoulSu:  requested number of processors reduced to:  16 ShMem   1 Linda.
 CalDSu:  requested number of processors reduced to:  42 ShMem   1 Linda.
 NMat=     1 NSing=     1 JSym2X= 2.
 CoulSu:  requested number of processors reduced to:  16 ShMem   1 Linda.
 CalDSu:  requested number of processors reduced to:  42 ShMem   1 Linda.
 NMat=     1 NSing=     1 JSym2X= 2.
 CoulSu:  requested number of processors reduced to:  16 ShMem   1 Linda.
 CalDSu:  requested number of processors reduced to:  42 ShMem   1 Linda.
 NMat=     1 NSing=     1 JSym2X= 2.
 CoulSu:  requested number of processors reduced to:  16 ShMem   1 Linda.
 CalDSu:  requested number of processors reduced to:  42 ShMem   1 Linda.
 NMat=     1 NSing=     1 JSym2X= 2.
 CoulSu:  requested number of processors reduced to:  16 ShMem   1 Linda.
 CalDSu:  requested number of processors reduced to:  42 ShMem   1 Linda.
 NMat=     1 NSing=     1 JSym2X= 2.
 CoulSu:  requested number of processors reduced to:  16 ShMem   1 Linda.
 CalDSu:  requested number of processors reduced to:  42 ShMem   1 Linda.
 NMat=     1 NSing=     1 JSym2X= 2.
 CoulSu:  requested number of processors reduced to:  16 ShMem   1 Linda.
 CalDSu:  requested number of processors reduced to:  42 ShMem   1 Linda.
 NMat=     1 NSing=     1 JSym2X= 2.
 CoulSu:  requested number of processors reduced to:  16 ShMem   1 Linda.
 CalDSu:  requested number of processors reduced to:  42 ShMem   1 Linda.
 NMat=     1 NSing=     1 JSym2X= 2.
 CoulSu:  requested number of processors reduced to:  16 ShMem   1 Linda.
 CalDSu:  requested number of processors reduced to:  42 ShMem   1 Linda.
 NMat=     1 NSing=     1 JSym2X= 2.
 CoulSu:  requested number of processors reduced to:  16 ShMem   1 Linda.
 CalDSu:  requested number of processors reduced to:  42 ShMem   1 Linda.
 NMat=     1 NSing=     1 JSym2X= 2.
 CoulSu:  requested number of processors reduced to:  16 ShMem   1 Linda.
 CalDSu:  requested number of processors reduced to:  42 ShMem   1 Linda.
 NMat=     1 NSing=     1 JSym2X= 2.
 CoulSu:  requested number of processors reduced to:  16 ShMem   1 Linda.
 CalDSu:  requested number of processors reduced to:  42 ShMem   1 Linda.
 NMat=     1 NSing=     1 JSym2X= 2.
 CoulSu:  requested number of processors reduced to:  16 ShMem   1 Linda.
 CalDSu:  requested number of processors reduced to:  42 ShMem   1 Linda.
 NMat=     1 NSing=     1 JSym2X= 2.
 CoulSu:  requested number of processors reduced to:  16 ShMem   1 Linda.
 CalDSu:  requested number of processors reduced to:  42 ShMem   1 Linda.
 NMat=     1 NSing=     1 JSym2X= 2.
 CoulSu:  requested number of processors reduced to:  16 ShMem   1 Linda.
 CalDSu:  requested number of processors reduced to:  42 ShMem   1 Linda.
 NMat=     1 NSing=     1 JSym2X= 2.
 CoulSu:  requested number of processors reduced to:  16 ShMem   1 Linda.
 CalDSu:  requested number of processors reduced to:  42 ShMem   1 Linda.
 NMat=     1 NSing=     1 JSym2X= 2.
 CoulSu:  requested number of processors reduced to:  16 ShMem   1 Linda.
 CalDSu:  requested number of processors reduced to:  42 ShMem   1 Linda.
 NMat=     1 NSing=     1 JSym2X= 2.
 CoulSu:  requested number of processors reduced to:  16 ShMem   1 Linda.
 CalDSu:  requested number of processors reduced to:  42 ShMem   1 Linda.
 NMat=     1 NSing=     1 JSym2X= 2.
 CoulSu:  requested number of processors reduced to:  16 ShMem   1 Linda.
 CalDSu:  requested number of processors reduced to:  42 ShMem   1 Linda.
 NMat=     1 NSing=     1 JSym2X= 2.
 CoulSu:  requested number of processors reduced to:  16 ShMem   1 Linda.
 CalDSu:  requested number of processors reduced to:  42 ShMem   1 Linda.
 NMat=     1 NSing=     1 JSym2X= 2.
 CoulSu:  requested number of processors reduced to:  16 ShMem   1 Linda.
 CalDSu:  requested number of processors reduced to:  42 ShMem   1 Linda.
 NMat=     1 NSing=     1 JSym2X= 2.
 CoulSu:  requested number of processors reduced to:  16 ShMem   1 Linda.
 CalDSu:  requested number of processors reduced to:  42 ShMem   1 Linda.
 NMat=     1 NSing=     1 JSym2X= 2.
 CoulSu:  requested number of processors reduced to:  16 ShMem   1 Linda.
 CalDSu:  requested number of processors reduced to:  42 ShMem   1 Linda.
 NMat=     1 NSing=     1 JSym2X= 2.
 CoulSu:  requested number of processors reduced to:  16 ShMem   1 Linda.
 CalDSu:  requested number of processors reduced to:  42 ShMem   1 Linda.
 NMat=     1 NSing=     0 JSym2X= 2.
 CoulSu:  requested number of processors reduced to:  16 ShMem   1 Linda.
 CalDSu:  requested number of processors reduced to:  42 ShMem   1 Linda.
 NMat=     1 NSing=     0 JSym2X= 2.
 CoulSu:  requested number of processors reduced to:  16 ShMem   1 Linda.
 CalDSu:  requested number of processors reduced to:  42 ShMem   1 Linda.
 NMat=     1 NSing=     0 JSym2X= 2.
 CoulSu:  requested number of processors reduced to:  16 ShMem   1 Linda.
 CalDSu:  requested number of processors reduced to:  42 ShMem   1 Linda.
 NMat=     1 NSing=     0 JSym2X= 2.
 CoulSu:  requested number of processors reduced to:  16 ShMem   1 Linda.
 CalDSu:  requested number of processors reduced to:  42 ShMem   1 Linda.
 NMat=     1 NSing=     0 JSym2X= 2.
 CoulSu:  requested number of processors reduced to:  16 ShMem   1 Linda.
 CalDSu:  requested number of processors reduced to:  42 ShMem   1 Linda.
 NMat=     1 NSing=     0 JSym2X= 2.
 CoulSu:  requested number of processors reduced to:  16 ShMem   1 Linda.
 CalDSu:  requested number of processors reduced to:  42 ShMem   1 Linda.
 NMat=     1 NSing=     0 JSym2X= 2.
 CoulSu:  requested number of processors reduced to:  16 ShMem   1 Linda.
 CalDSu:  requested number of processors reduced to:  42 ShMem   1 Linda.
 NMat=     1 NSing=     0 JSym2X= 2.
 CoulSu:  requested number of processors reduced to:  16 ShMem   1 Linda.
 CalDSu:  requested number of processors reduced to:  42 ShMem   1 Linda.
 NMat=     1 NSing=     0 JSym2X= 2.
 CoulSu:  requested number of processors reduced to:  16 ShMem   1 Linda.
 CalDSu:  requested number of processors reduced to:  42 ShMem   1 Linda.
 NMat=     1 NSing=     0 JSym2X= 2.
 CoulSu:  requested number of processors reduced to:  16 ShMem   1 Linda.
 CalDSu:  requested number of processors reduced to:  42 ShMem   1 Linda.
 NMat=     1 NSing=     0 JSym2X= 2.
 CoulSu:  requested number of processors reduced to:  16 ShMem   1 Linda.
 CalDSu:  requested number of processors reduced to:  42 ShMem   1 Linda.
 NMat=     1 NSing=     0 JSym2X= 2.
 CoulSu:  requested number of processors reduced to:  16 ShMem   1 Linda.
 CalDSu:  requested number of processors reduced to:  42 ShMem   1 Linda.
 NMat=     1 NSing=     0 JSym2X= 2.
 CoulSu:  requested number of processors reduced to:  16 ShMem   1 Linda.
 CalDSu:  requested number of processors reduced to:  42 ShMem   1 Linda.
 NMat=     1 NSing=     0 JSym2X= 2.
 CoulSu:  requested number of processors reduced to:  16 ShMem   1 Linda.
 CalDSu:  requested number of processors reduced to:  42 ShMem   1 Linda.
 NMat=     1 NSing=     0 JSym2X= 2.
 CoulSu:  requested number of processors reduced to:  16 ShMem   1 Linda.
 CalDSu:  requested number of processors reduced to:  42 ShMem   1 Linda.
 NMat=     1 NSing=     0 JSym2X= 2.
 CoulSu:  requested number of processors reduced to:  16 ShMem   1 Linda.
 CalDSu:  requested number of processors reduced to:  42 ShMem   1 Linda.
 NMat=     1 NSing=     0 JSym2X= 2.
 CoulSu:  requested number of processors reduced to:  16 ShMem   1 Linda.
 CalDSu:  requested number of processors reduced to:  42 ShMem   1 Linda.
 NMat=     1 NSing=     0 JSym2X= 2.
 CoulSu:  requested number of processors reduced to:  16 ShMem   1 Linda.
 CalDSu:  requested number of processors reduced to:  42 ShMem   1 Linda.
 NMat=     1 NSing=     0 JSym2X= 2.
 CoulSu:  requested number of processors reduced to:  16 ShMem   1 Linda.
 CalDSu:  requested number of processors reduced to:  42 ShMem   1 Linda.
 NMat=     1 NSing=     0 JSym2X= 2.
 CoulSu:  requested number of processors reduced to:  16 ShMem   1 Linda.
 CalDSu:  requested number of processors reduced to:  42 ShMem   1 Linda.
 NMat=     1 NSing=     0 JSym2X= 2.
 CoulSu:  requested number of processors reduced to:  16 ShMem   1 Linda.
 CalDSu:  requested number of processors reduced to:  42 ShMem   1 Linda.
 NMat=     1 NSing=     0 JSym2X= 2.
 CoulSu:  requested number of processors reduced to:  16 ShMem   1 Linda.
 CalDSu:  requested number of processors reduced to:  42 ShMem   1 Linda.
 NMat=     1 NSing=     0 JSym2X= 2.
 CoulSu:  requested number of processors reduced to:  16 ShMem   1 Linda.
 CalDSu:  requested number of processors reduced to:  42 ShMem   1 Linda.
 NMat=     1 NSing=     0 JSym2X= 2.
 CoulSu:  requested number of processors reduced to:  16 ShMem   1 Linda.
 CalDSu:  requested number of processors reduced to:  42 ShMem   1 Linda.
 New state      1 was old state      6
 Excitation Energies [eV] at current iteration:
 Root      1 :     3.898010278166409
 Root      2 :     4.673031770850401
 Root      3 :     4.979247050453887
 Root      4 :     4.979277942988422
 Root      5 :     5.262947474738749
 Root      6 :     6.830770847355267
 Root      7 :     6.830782152509191
 Root      8 :     6.884959183475710
 Root      9 :     6.885083875034655
 Root     10 :     7.386935274088318
 Root     11 :     7.386945280994428
 Root     12 :     7.387596084583668
 Root     13 :     7.387862187415485
 Root     14 :     7.404562192569552
 Root     15 :     7.408599674114084
 Root     16 :     7.408966903065366
 Root     17 :     7.408996786236219
 Root     18 :     7.869661391487079
 Root     19 :     7.918955081935791
 Root     20 :     7.918958461677328
 Root     21 :     7.958687469802419
 Root     22 :     7.968678368010296
 Root     23 :     7.968692374019800
 Root     24 :     7.992856467507325
 Root     25 :     7.992856878229295
 Root     26 :     7.997832404365081
 Root     27 :     8.021146752029967
 Root     28 :     8.022849823354406
 Root     29 :     8.023752428593561
 Root     30 :     8.143754407979221
 Root     31 :     8.298246146778396
 Root     32 :     8.317434464217012
 Root     33 :     8.317438097487745
 Root     34 :     8.392762757815843
 Root     35 :     8.439001736573454
 Root     36 :     8.439082383949620
 Root     37 :     8.467363169827113
 Root     38 :     8.467421711585846
 Root     39 :     9.019080364514044
 Root     40 :     9.019099213405024
 Root     41 :     9.062909049138899
 Root     42 :     9.062914641227424
 Root     43 :     9.305866649046891
 Root     44 :     9.305868467683332
 Root     45 :     9.385844046068614
 Root     46 :     9.385849068899937
 Root     47 :    13.219045970367380
 Root     48 :    13.219078918414990
 Iteration     2 Dimension    96 NMult    48 NNew     48
 Estimated number of processors is:   14
 CISAX will form     1 AO SS matrices at one time.
 NMat=     1 NSing=     1 JSym2X= 2.
 CoulSu:  requested number of processors reduced to:  16 ShMem   1 Linda.
 CalDSu:  requested number of processors reduced to:  42 ShMem   1 Linda.
 NMat=     1 NSing=     1 JSym2X= 2.
 CoulSu:  requested number of processors reduced to:  16 ShMem   1 Linda.
 CalDSu:  requested number of processors reduced to:  42 ShMem   1 Linda.
 NMat=     1 NSing=     1 JSym2X= 2.
 CoulSu:  requested number of processors reduced to:  16 ShMem   1 Linda.
 CalDSu:  requested number of processors reduced to:  42 ShMem   1 Linda.
 NMat=     1 NSing=     1 JSym2X= 2.
 CoulSu:  requested number of processors reduced to:  16 ShMem   1 Linda.
 CalDSu:  requested number of processors reduced to:  42 ShMem   1 Linda.
 NMat=     1 NSing=     1 JSym2X= 2.
 CoulSu:  requested number of processors reduced to:  16 ShMem   1 Linda.
 CalDSu:  requested number of processors reduced to:  42 ShMem   1 Linda.
 NMat=     1 NSing=     1 JSym2X= 2.
 CoulSu:  requested number of processors reduced to:  16 ShMem   1 Linda.
 CalDSu:  requested number of processors reduced to:  42 ShMem   1 Linda.
 NMat=     1 NSing=     1 JSym2X= 2.
 CoulSu:  requested number of processors reduced to:  16 ShMem   1 Linda.
 CalDSu:  requested number of processors reduced to:  42 ShMem   1 Linda.
 NMat=     1 NSing=     1 JSym2X= 2.
 CoulSu:  requested number of processors reduced to:  16 ShMem   1 Linda.
 CalDSu:  requested number of processors reduced to:  42 ShMem   1 Linda.
 NMat=     1 NSing=     1 JSym2X= 2.
 CoulSu:  requested number of processors reduced to:  16 ShMem   1 Linda.
 CalDSu:  requested number of processors reduced to:  42 ShMem   1 Linda.
 NMat=     1 NSing=     1 JSym2X= 2.
 CoulSu:  requested number of processors reduced to:  16 ShMem   1 Linda.
 CalDSu:  requested number of processors reduced to:  42 ShMem   1 Linda.
 NMat=     1 NSing=     1 JSym2X= 2.
 CoulSu:  requested number of processors reduced to:  16 ShMem   1 Linda.
 CalDSu:  requested number of processors reduced to:  42 ShMem   1 Linda.
 NMat=     1 NSing=     1 JSym2X= 2.
 CoulSu:  requested number of processors reduced to:  16 ShMem   1 Linda.
 CalDSu:  requested number of processors reduced to:  42 ShMem   1 Linda.
 NMat=     1 NSing=     1 JSym2X= 2.
 CoulSu:  requested number of processors reduced to:  16 ShMem   1 Linda.
 CalDSu:  requested number of processors reduced to:  42 ShMem   1 Linda.
 NMat=     1 NSing=     1 JSym2X= 2.
 CoulSu:  requested number of processors reduced to:  16 ShMem   1 Linda.
 CalDSu:  requested number of processors reduced to:  42 ShMem   1 Linda.
 NMat=     1 NSing=     1 JSym2X= 2.
 CoulSu:  requested number of processors reduced to:  16 ShMem   1 Linda.
 CalDSu:  requested number of processors reduced to:  42 ShMem   1 Linda.
 NMat=     1 NSing=     1 JSym2X= 2.
 CoulSu:  requested number of processors reduced to:  16 ShMem   1 Linda.
 CalDSu:  requested number of processors reduced to:  42 ShMem   1 Linda.
 NMat=     1 NSing=     1 JSym2X= 2.
 CoulSu:  requested number of processors reduced to:  16 ShMem   1 Linda.
 CalDSu:  requested number of processors reduced to:  42 ShMem   1 Linda.
 NMat=     1 NSing=     1 JSym2X= 2.
 CoulSu:  requested number of processors reduced to:  16 ShMem   1 Linda.
 CalDSu:  requested number of processors reduced to:  42 ShMem   1 Linda.
 NMat=     1 NSing=     1 JSym2X= 2.
 CoulSu:  requested number of processors reduced to:  16 ShMem   1 Linda.
 CalDSu:  requested number of processors reduced to:  42 ShMem   1 Linda.
 NMat=     1 NSing=     1 JSym2X= 2.
 CoulSu:  requested number of processors reduced to:  16 ShMem   1 Linda.
 CalDSu:  requested number of processors reduced to:  42 ShMem   1 Linda.
 NMat=     1 NSing=     1 JSym2X= 2.
 CoulSu:  requested number of processors reduced to:  16 ShMem   1 Linda.
 CalDSu:  requested number of processors reduced to:  42 ShMem   1 Linda.
 NMat=     1 NSing=     1 JSym2X= 2.
 CoulSu:  requested number of processors reduced to:  16 ShMem   1 Linda.
 CalDSu:  requested number of processors reduced to:  42 ShMem   1 Linda.
 NMat=     1 NSing=     1 JSym2X= 2.
 CoulSu:  requested number of processors reduced to:  16 ShMem   1 Linda.
 CalDSu:  requested number of processors reduced to:  42 ShMem   1 Linda.
 NMat=     1 NSing=     1 JSym2X= 2.
 CoulSu:  requested number of processors reduced to:  16 ShMem   1 Linda.
 CalDSu:  requested number of processors reduced to:  42 ShMem   1 Linda.
 NMat=     1 NSing=     0 JSym2X= 2.
 CoulSu:  requested number of processors reduced to:  16 ShMem   1 Linda.
 CalDSu:  requested number of processors reduced to:  42 ShMem   1 Linda.
 NMat=     1 NSing=     0 JSym2X= 2.
 CoulSu:  requested number of processors reduced to:  16 ShMem   1 Linda.
 CalDSu:  requested number of processors reduced to:  42 ShMem   1 Linda.
 NMat=     1 NSing=     0 JSym2X= 2.
 CoulSu:  requested number of processors reduced to:  16 ShMem   1 Linda.
 CalDSu:  requested number of processors reduced to:  42 ShMem   1 Linda.
 NMat=     1 NSing=     0 JSym2X= 2.
 CoulSu:  requested number of processors reduced to:  16 ShMem   1 Linda.
 CalDSu:  requested number of processors reduced to:  42 ShMem   1 Linda.
 NMat=     1 NSing=     0 JSym2X= 2.
 CoulSu:  requested number of processors reduced to:  16 ShMem   1 Linda.
 CalDSu:  requested number of processors reduced to:  42 ShMem   1 Linda.
 NMat=     1 NSing=     0 JSym2X= 2.
 CoulSu:  requested number of processors reduced to:  16 ShMem   1 Linda.
 CalDSu:  requested number of processors reduced to:  42 ShMem   1 Linda.
 NMat=     1 NSing=     0 JSym2X= 2.
 CoulSu:  requested number of processors reduced to:  16 ShMem   1 Linda.
 CalDSu:  requested number of processors reduced to:  42 ShMem   1 Linda.
 NMat=     1 NSing=     0 JSym2X= 2.
 CoulSu:  requested number of processors reduced to:  16 ShMem   1 Linda.
 CalDSu:  requested number of processors reduced to:  42 ShMem   1 Linda.
 NMat=     1 NSing=     0 JSym2X= 2.
 CoulSu:  requested number of processors reduced to:  16 ShMem   1 Linda.
 CalDSu:  requested number of processors reduced to:  42 ShMem   1 Linda.
 NMat=     1 NSing=     0 JSym2X= 2.
 CoulSu:  requested number of processors reduced to:  16 ShMem   1 Linda.
 CalDSu:  requested number of processors reduced to:  42 ShMem   1 Linda.
 NMat=     1 NSing=     0 JSym2X= 2.
 CoulSu:  requested number of processors reduced to:  16 ShMem   1 Linda.
 CalDSu:  requested number of processors reduced to:  42 ShMem   1 Linda.
 NMat=     1 NSing=     0 JSym2X= 2.
 CoulSu:  requested number of processors reduced to:  16 ShMem   1 Linda.
 CalDSu:  requested number of processors reduced to:  42 ShMem   1 Linda.
 NMat=     1 NSing=     0 JSym2X= 2.
 CoulSu:  requested number of processors reduced to:  16 ShMem   1 Linda.
 CalDSu:  requested number of processors reduced to:  42 ShMem   1 Linda.
 NMat=     1 NSing=     0 JSym2X= 2.
 CoulSu:  requested number of processors reduced to:  16 ShMem   1 Linda.
 CalDSu:  requested number of processors reduced to:  42 ShMem   1 Linda.
 NMat=     1 NSing=     0 JSym2X= 2.
 CoulSu:  requested number of processors reduced to:  16 ShMem   1 Linda.
 CalDSu:  requested number of processors reduced to:  42 ShMem   1 Linda.
 NMat=     1 NSing=     0 JSym2X= 2.
 CoulSu:  requested number of processors reduced to:  16 ShMem   1 Linda.
 CalDSu:  requested number of processors reduced to:  42 ShMem   1 Linda.
 NMat=     1 NSing=     0 JSym2X= 2.
 CoulSu:  requested number of processors reduced to:  16 ShMem   1 Linda.
 CalDSu:  requested number of processors reduced to:  42 ShMem   1 Linda.
 NMat=     1 NSing=     0 JSym2X= 2.
 CoulSu:  requested number of processors reduced to:  16 ShMem   1 Linda.
 CalDSu:  requested number of processors reduced to:  42 ShMem   1 Linda.
 NMat=     1 NSing=     0 JSym2X= 2.
 CoulSu:  requested number of processors reduced to:  16 ShMem   1 Linda.
 CalDSu:  requested number of processors reduced to:  42 ShMem   1 Linda.
 NMat=     1 NSing=     0 JSym2X= 2.
 CoulSu:  requested number of processors reduced to:  16 ShMem   1 Linda.
 CalDSu:  requested number of processors reduced to:  42 ShMem   1 Linda.
 NMat=     1 NSing=     0 JSym2X= 2.
 CoulSu:  requested number of processors reduced to:  16 ShMem   1 Linda.
 CalDSu:  requested number of processors reduced to:  42 ShMem   1 Linda.
 NMat=     1 NSing=     0 JSym2X= 2.
 CoulSu:  requested number of processors reduced to:  16 ShMem   1 Linda.
 CalDSu:  requested number of processors reduced to:  42 ShMem   1 Linda.
 NMat=     1 NSing=     0 JSym2X= 2.
 CoulSu:  requested number of processors reduced to:  16 ShMem   1 Linda.
 CalDSu:  requested number of processors reduced to:  42 ShMem   1 Linda.
 NMat=     1 NSing=     0 JSym2X= 2.
 CoulSu:  requested number of processors reduced to:  16 ShMem   1 Linda.
 CalDSu:  requested number of processors reduced to:  42 ShMem   1 Linda.
 Root      1 not converged, maximum delta is    0.103132699536078
 Excitation Energies [eV] at current iteration:
 Root      1 :     3.142875390847204   Change is   -0.755134887319205
 Root      2 :     4.469658618127502   Change is   -0.203373152722899
 Root      3 :     4.735648316917461   Change is   -0.243598733536426
 Root      4 :     4.735705640230269   Change is   -0.243572302758154
 Root      5 :     5.026976375408475   Change is   -0.235971099330274
 Root      6 :     6.572849924303792   Change is   -1.819912833512051
 Root      7 :     6.726894114068529   Change is   -0.103888038440661
 Root      8 :     6.726918693453840   Change is   -0.103852153901427
 Root      9 :     6.749769252994419   Change is   -0.135189930481291
 Root     10 :     6.749851243711418   Change is   -0.135232631323238
 Root     11 :     7.273403441984132   Change is   -0.131158750585420
 Root     12 :     7.304439309078822   Change is   -0.104160365035263
 Root     13 :     7.307368427536998   Change is   -0.079566846551319
 Root     14 :     7.307376323883235   Change is   -0.079568957111193
 Root     15 :     7.326842041451516   Change is   -0.082124861613850
 Root     16 :     7.326862754059818   Change is   -0.082134032176402
 Root     17 :     7.348985384444375   Change is   -0.038610700139294
 Root     18 :     7.349626421730408   Change is   -0.038235765685078
 Root     19 :     7.616746834577205   Change is   -0.252914556909875
 Root     20 :     7.699268702421969   Change is   -0.219689759255359
 Root     21 :     7.699270620531863   Change is   -0.219684461403929
 Root     22 :     7.758926131731971   Change is   -0.262220620297997
 Root     23 :     7.858492014564211   Change is   -0.110200359455589
 Root     24 :     7.858496033827946   Change is   -0.110182334182349
 Root     25 :     7.862954964004348   Change is   -0.095732505798070
 Root     26 :     7.914673731326823   Change is   -0.078182736180502
[...]
      17 -> 39        -0.10677
      20 -> 23        -0.29593
      20 -> 24         0.37892
      21 -> 23         0.37893
      21 -> 24         0.29589
 The wavefunction is stable under the perturbations considered.
 Leave Link  914 at Sat Apr 17 20:12:49 2021, MaxMem=   104857600 cpu:          177697.3 elap:            5411.6
 (Enter /s/ls4/users/knvvv/bin/g16sse/l508.exe)
 The wavefunction is already stable.
 Leave Link  508 at Sat Apr 17 20:12:49 2021, MaxMem=   104857600 cpu:               2.4 elap:               0.1
 (Enter /s/ls4/users/knvvv/bin/g16sse/l601.exe)
 Copying SCF densities to generalized density rwf, IOpCl= 0 IROHF=0.

 **********************************************************************

            Population analysis using the SCF density.

 **********************************************************************

 Orbital symmetries:
       Occupied  (A1G) (E1U) (E1U) (E2G) (E2G) (B1U) (A1G) (E1U)
                 (E1U) (E2G) (E2G) (A1G) (B1U) (B2U) (E1U) (E1U)
                 (A2U) (E2G) (E2G) (E1G) (E1G)
       Virtual   (A1G) (E2U) (E2U) (E1U) (E1U) (E2G) (E2G) (A1G)
                 (B1U) (A2U) (B2U) (E1U) (E1U) (E1G) (E1G) (E2G)
                 (E2G) (B2G) (A1G) (E2G) (E2G) (A2U) (E2U) (E2U)
                 (E1U) (E1U) (B1U) (E2G) (E2G) (A1G) (E1U) (E1U)
                 (E1G) (E1G) (B2G) (B1G) (B1U) (E1U) (E1U) (E2U)
                 (E2U) (B2U) (A1G) (A2G) (A2U) (E2G) (E2G) (E1U)
                 (E1U) (E2G) (E2G) (E2U) (E2U) (B2G) (A1G) (E2G)
                 (E2G) (E1G) (E1G) (B1U) (E1U) (E1U) (B2U) (E1U)
                 (E1U) (A1G) (E1G) (E1G) (A1U) (E2G) (E2G) (E1U)
                 (E1U) (A2U) (E2U) (E2U) (E2G) (E2G) (A2G) (B2G)
                 (E1G) (E1G) (A1G) (B1U) (E1U) (E1U) (B1U) (E2G)
                 (E2G) (B1G) (A2G) (E1U) (E1U) (E2U) (E2U) (B2U)
                 (A1G) (E2G) (E2G) (B1U) (A2U) (A1G) (E1U) (E1U)
                 (E2U) (E2U) (A2U) (B2G) (A1G) (E1U) (E1U) (A2G)
                 (E2G) (E2G) (E1G) (E1G) (E2G) (E2G) (E1G) (E1G)
                 (E1U) (E1U) (B2U) (B1U) (E2U) (E2U) (E1G) (E1G)
                 (E2G) (E2G) (E2G) (E2G) (E1U) (E1U) (B2G) (E1U)
                 (E1U) (E2U) (E2U) (B1U) (A1U) (A1G) (E1U) (E1U)
                 (A1G) (E2G) (E2G) (B2U) (B1U) (E2G) (E2G) (A2G)
                 (E1U) (E1U) (A2G) (B2G) (B1G) (A2U) (E2G) (E2G)
                 (B1U) (A1G) (E1U) (E1U) (A2U) (E1G) (E1G) (B2U)
                 (A1G) (E2U) (E2U) (E1U) (E1U) (E2G) (E2G) (A1G)
                 (B1U) (E2U) (E2U) (E1G) (E1G) (B1G) (E1U) (E1U)
                 (A2U) (E1U) (E1U) (E2G) (E2G) (E1G) (E1G) (E2G)
                 (E2G) (B2G) (E2U) (E2U) (B2U) (E2G) (E2G) (E1G)
                 (E1G) (B1U) (E2U) (E2U) (E2G) (E2G) (A1U) (A1G)
                 (B1U) (A2U) (E1U) (E1U) (B1G) (B2U) (E1U) (E1U)
                 (E1G) (E1G) (E2G) (E2G) (E2U) (E2U) (B2G) (E1U)
                 (E1U) (A1U) (A1G) (A2U) (E1G) (E1G) (A2G) (E2G)
                 (E2G) (B1U) (E1U) (E1U) (B2G) (A2G) (E2G) (E2G)
                 (E2U) (E2U) (E1U) (E1U) (E2G) (E2G) (A1G) (A2G)
                 (E1G) (E1G) (B2U) (B1U) (E1U) (E1U) (E2G) (E2G)
                 (E2U) (E2U) (B2G) (B2U) (A2U) (A1G) (E2G) (E2G)
                 (E1U) (E1U) (E1G) (E1G) (B1U) (A1G) (E1U) (E1U)
                 (B1U) (E2G) (E2G) (E2U) (E2U) (A1G) (E1G) (E1G)
                 (A1U) (E2G) (E2G) (E2U) (E2U) (E1U) (E1U) (B2G)
                 (B2U) (B1U) (A2G) (E2G) (E2G) (E1U) (E1U) (B1U)
                 (B2G) (E1U) (E1U) (E2G) (E2G) (B2U) (B1G) (A2G)
                 (A1G) (E2G) (E2G) (A2U) (B1G) (E1U) (E1U) (E2U)
                 (E2U) (E1G) (E1G) (A1G) (E2G) (E2G) (A2U) (E1U)
                 (E1U) (E2U) (E2U) (B1U) (E1G) (E1G) (E2G) (E2G)
                 (E1U) (E1U) (A1G) (A2U) (A2G) (E2U) (E2U) (B2U)
                 (E1G) (E1G) (E1G) (E1G) (A1U) (E1U) (E1U) (B1U)
                 (B2G) (E1U) (E1U) (E2G) (E2G) (E2U) (E2U) (B1G)
                 (E1G) (E1G) (A2U) (A1G) (E2U) (E2U) (B2U) (E2U)
                 (E2U) (E2G) (E2G) (E1U) (E1U) (A1G) (E2G) (E2G)
                 (B2G) (B2U) (B2G) (A2G) (A2U) (E1G) (E1G) (E2G)
                 (E2G) (B1U) (E1U) (E1U) (E1U) (E1U) (E1G) (E1G)
                 (A1G) (E2G) (E2G) (B1G) (E1U) (E1U) (B2G) (A2G)
                 (B2U) (E2U) (E2U) (B1U) (E1U) (E1U) (E2G) (E2G)
                 (E2U) (E2U) (E2G) (E2G) (E1G) (E1G) (A2G) (A2U)
                 (A1U) (A1U) (E1U) (E1U) (E2U) (E2U) (A1G) (B1U)
                 (B2G) (E2G) (E2G) (E1G) (E1G) (A2G) (B1G) (B1U)
                 (A1G) (E1U) (E1U) (E2G) (E2G) (B2U) (A2U) (E1G)
                 (E1G) (E2U) (E2U) (E1U) (E1U) (B1U) (E2G) (E2G)
                 (E2G) (E2G) (E2U) (E2U) (E1U) (E1U) (A1G) (E1G)
                 (E1G) (B1U) (E2G) (E2G) (B2G) (B1G) (B2U) (B1U)
                 (A1G) (A1U) (E2G) (E2G) (E2U) (E2U) (E1U) (E1U)
                 (E1U) (E1U) (A2G) (E2U) (E2U) (A2U) (E1G) (E1G)
                 (E2G) (E2G) (E1U) (E1U) (E1G) (E1G) (B2G) (A1G)
                 (E1G) (E1G) (B1U) (A1G) (A2G) (E2G) (E2G) (B1U)
                 (A1U) (E2U) (E2U) (E1U) (E1U) (B2U) (A1U) (B2G)
                 (E1U) (E1U) (E2G) (E2G) (E2G) (E2G) (E1U) (E1U)
                 (A1G) (A2U) (E1G) (E1G) (B2U) (E1U) (E1U) (A2G)
                 (E2G) (E2G) (E2U) (E2U) (E1U) (E1U) (B1U) (A2G)
                 (B2G) (E2G) (E2G) (E2G) (E2G) (B1U) (E1U) (E1U)
                 (B1U) (A2G) (A1G) (E1U) (E1U) (E2G) (E2G) (B1U)
                 (A1G) (E1U) (E1U) (E2G) (E2G) (B1U) (A1G) (E1U)
                 (E1U) (E2G) (E2G) (B1U)
 The electronic state is 1-A1G.
 Alpha  occ. eigenvalues --  -10.54677 -10.54639 -10.54639 -10.54557 -10.54557
 Alpha  occ. eigenvalues --  -10.54516  -0.96085  -0.84407  -0.84407  -0.68732
 Alpha  occ. eigenvalues --   -0.68732  -0.60265  -0.53531  -0.51417  -0.48972
 Alpha  occ. eigenvalues --   -0.48972  -0.44133  -0.40383  -0.40383  -0.30975
 Alpha  occ. eigenvalues --   -0.30975
 Alpha virt. eigenvalues --    0.01297   0.01873   0.01873   0.02844   0.02844
 Alpha virt. eigenvalues --    0.04860   0.04860   0.08233   0.08420   0.12090
 Alpha virt. eigenvalues --    0.13755   0.14809   0.14809   0.15053   0.15053
 Alpha virt. eigenvalues --    0.17192   0.17192   0.17342   0.18937   0.19558
 Alpha virt. eigenvalues --    0.19558   0.19612   0.20882   0.20882   0.20952
 Alpha virt. eigenvalues --    0.20952   0.23827   0.24420   0.24420   0.24711
 Alpha virt. eigenvalues --    0.25788   0.25788   0.26432   0.26432   0.27146
 Alpha virt. eigenvalues --    0.27873   0.29618   0.30852   0.30852   0.31495
 Alpha virt. eigenvalues --    0.31495   0.31681   0.33275   0.34484   0.34704
 Alpha virt. eigenvalues --    0.34924   0.34924   0.36488   0.36488   0.37051
 Alpha virt. eigenvalues --    0.37051   0.38353   0.38353   0.39126   0.40732
 Alpha virt. eigenvalues --    0.40876   0.40876   0.43249   0.43249   0.43813
 Alpha virt. eigenvalues --    0.45180   0.45180   0.46190   0.47071   0.47071
 Alpha virt. eigenvalues --    0.48323   0.49952   0.49952   0.51754   0.52866
 Alpha virt. eigenvalues --    0.52866   0.54357   0.54357   0.54531   0.54997
 Alpha virt. eigenvalues --    0.54997   0.55737   0.55737   0.56922   0.59785
 Alpha virt. eigenvalues --    0.61222   0.61222   0.62016   0.62412   0.64088
 Alpha virt. eigenvalues --    0.64088   0.64843   0.64997   0.64997   0.67280
 Alpha virt. eigenvalues --    0.68032   0.68379   0.68379   0.73770   0.73770
 Alpha virt. eigenvalues --    0.75625   0.76230   0.77492   0.77492   0.78480
 Alpha virt. eigenvalues --    0.79618   0.85889   0.86385   0.86385   0.88274
 Alpha virt. eigenvalues --    0.88274   0.89203   0.90293   0.91860   0.92656
 Alpha virt. eigenvalues --    0.92656   0.94852   0.95908   0.95908   0.97341
 Alpha virt. eigenvalues --    0.97341   0.99627   0.99627   1.03505   1.03505
 Alpha virt. eigenvalues --    1.06922   1.06922   1.07121   1.10051   1.11246
 Alpha virt. eigenvalues --    1.11246   1.15130   1.15130   1.15996   1.15996
 Alpha virt. eigenvalues --    1.20705   1.20705   1.21441   1.21441   1.22005
 Alpha virt. eigenvalues --    1.25341   1.25341   1.25588   1.25588   1.28981
 Alpha virt. eigenvalues --    1.30814   1.30825   1.34107   1.34107   1.35421
 Alpha virt. eigenvalues --    1.41392   1.41392   1.44622   1.46178   1.47938
 Alpha virt. eigenvalues --    1.47938   1.49405   1.60480   1.60480   1.61650
 Alpha virt. eigenvalues --    1.62482   1.67810   1.69551   1.74343   1.74343
 Alpha virt. eigenvalues --    1.75112   1.78329   1.78968   1.78968   1.81476
 Alpha virt. eigenvalues --    1.81896   1.81896   1.85295   1.85560   1.90204
 Alpha virt. eigenvalues --    1.90204   1.92364   1.92364   1.93252   1.93252
 Alpha virt. eigenvalues --    1.94121   2.00000   2.02062   2.02062   2.02424
 Alpha virt. eigenvalues --    2.02424   2.02807   2.06452   2.06452   2.07280
 Alpha virt. eigenvalues --    2.08657   2.08657   2.09208   2.09208   2.11245
 Alpha virt. eigenvalues --    2.11245   2.18750   2.18750   2.20781   2.20945
 Alpha virt. eigenvalues --    2.20945   2.22515   2.24055   2.24055   2.27555
 Alpha virt. eigenvalues --    2.27555   2.30041   2.32603   2.32603   2.34486
 Alpha virt. eigenvalues --    2.34486   2.36949   2.39115   2.41289   2.51076
 Alpha virt. eigenvalues --    2.52830   2.52830   2.53881   2.54926   2.56993
 Alpha virt. eigenvalues --    2.56993   2.57499   2.57499   2.57859   2.57859
 Alpha virt. eigenvalues --    2.60308   2.60308   2.61433   2.66522   2.66522
 Alpha virt. eigenvalues --    2.69511   2.70128   2.73032   2.73211   2.73211
 Alpha virt. eigenvalues --    2.76516   2.76720   2.76720   2.77616   2.77742
 Alpha virt. eigenvalues --    2.77742   2.79637   2.82057   2.83252   2.83252
 Alpha virt. eigenvalues --    2.83663   2.83663   2.85604   2.85604   2.87255
 Alpha virt. eigenvalues --    2.87255   2.91513   2.97688   2.97978   2.97978
 Alpha virt. eigenvalues --    3.00177   3.03250   3.07707   3.07707   3.14066
 Alpha virt. eigenvalues --    3.14066   3.19588   3.19588   3.24218   3.26191
 Alpha virt. eigenvalues --    3.28460   3.36306   3.39613   3.39613   3.40401
 Alpha virt. eigenvalues --    3.40401   3.47235   3.47235   3.48029   3.48846
 Alpha virt. eigenvalues --    3.49870   3.49870   3.56658   3.57487   3.57487
 Alpha virt. eigenvalues --    3.60757   3.60757   3.62909   3.63084   3.63084
 Alpha virt. eigenvalues --    3.75602   3.86996   3.86996   3.87139   3.87139
 Alpha virt. eigenvalues --    3.90149   3.90149   4.01789   4.04374   4.05469
 Alpha virt. eigenvalues --    4.10154   4.13804   4.13804   4.19551   4.19551
 Alpha virt. eigenvalues --    4.26723   4.33121   4.50355   4.50355   4.52496
 Alpha virt. eigenvalues --    4.52496   4.55306   4.65908   4.69970   4.77740
 Alpha virt. eigenvalues --    4.78639   4.78639   4.82705   4.85131   4.97077
 Alpha virt. eigenvalues --    4.97077   5.01662   5.01662   5.04102   5.04102
 Alpha virt. eigenvalues --    5.04418   5.06992   5.06992   5.18427   5.21407
 Alpha virt. eigenvalues --    5.21407   5.22912   5.22912   5.29522   5.32117
 Alpha virt. eigenvalues --    5.32117   5.32727   5.32727   5.33720   5.33720
 Alpha virt. eigenvalues --    5.37201   5.41330   5.41590   5.43074   5.43074
 Alpha virt. eigenvalues --    5.44074   5.50686   5.50686   5.60281   5.60281
 Alpha virt. eigenvalues --    5.62996   5.70604   5.70604   5.71910   5.72413
 Alpha virt. eigenvalues --    5.77087   5.77087   5.82738   5.82738   5.84710
 Alpha virt. eigenvalues --    5.84710   5.86468   5.90948   5.90948   5.90948
 Alpha virt. eigenvalues --    5.91844   5.95778   5.95778   5.96814   5.98301
 Alpha virt. eigenvalues --    5.98301   6.01294   6.01294   6.06602   6.06602
 Alpha virt. eigenvalues --    6.07196   6.08098   6.08098   6.08539   6.15192
 Alpha virt. eigenvalues --    6.16428   6.16961   6.21254   6.21617   6.21617
 Alpha virt. eigenvalues --    6.21784   6.21784   6.22266   6.24525   6.24525
 Alpha virt. eigenvalues --    6.25423   6.25423   6.28720   6.28720   6.29900
 Alpha virt. eigenvalues --    6.40599   6.40599   6.41498   6.42065   6.42065
 Alpha virt. eigenvalues --    6.47731   6.50123   6.51590   6.51683   6.51683
 Alpha virt. eigenvalues --    6.56148   6.57384   6.57384   6.59094   6.59094
 Alpha virt. eigenvalues --    6.61351   6.61351   6.64976   6.64976   6.65690
 Alpha virt. eigenvalues --    6.65690   6.66541   6.68667   6.81408   6.86024
 Alpha virt. eigenvalues --    6.86139   6.86139   6.86541   6.86541   6.98127
 Alpha virt. eigenvalues --    6.99544   7.02252   7.04753   7.04753   7.04952
 Alpha virt. eigenvalues --    7.04952   7.15318   7.16238   7.23267   7.28460
 Alpha virt. eigenvalues --    7.33018   7.33018   7.34400   7.34400   7.34886
 Alpha virt. eigenvalues --    7.35046   7.41727   7.41727   7.43075   7.43075
 Alpha virt. eigenvalues --    7.45150   7.45150   7.45314   7.51977   7.51977
 Alpha virt. eigenvalues --    7.63116   7.63116   7.63194   7.63194   7.64238
 Alpha virt. eigenvalues --    7.64238   7.69223   7.76337   7.76337   7.78913
 Alpha virt. eigenvalues --    7.80120   7.80120   7.84961   7.89197   7.92420
 Alpha virt. eigenvalues --    7.94397   7.94996   7.95949   7.99464   7.99464
 Alpha virt. eigenvalues --    8.00249   8.00249   8.02154   8.02154   8.08972
 Alpha virt. eigenvalues --    8.08972   8.12042   8.14700   8.14700   8.16990
 Alpha virt. eigenvalues --    8.18109   8.18109   8.18496   8.18496   8.28629
 Alpha virt. eigenvalues --    8.28629   8.29722   8.29722   8.31576   8.32375
 Alpha virt. eigenvalues --    8.34232   8.34232   8.40067   8.45370   8.49039
 Alpha virt. eigenvalues --    8.51094   8.51094   8.55404   8.57339   8.60492
 Alpha virt. eigenvalues --    8.60492   8.62777   8.62777   8.66507   8.82718
 Alpha virt. eigenvalues --    8.84827   8.90186   8.90186   8.94737   8.94737
 Alpha virt. eigenvalues --    9.31907   9.31907   9.36656   9.36656   9.46972
 Alpha virt. eigenvalues --    9.50258   9.56253   9.56253   9.59107   9.59141
 Alpha virt. eigenvalues --    9.59141   9.66937   9.77504   9.77504   9.81170
 Alpha virt. eigenvalues --    9.81170   9.95248   9.95248   9.97331  10.12442
 Alpha virt. eigenvalues --   10.13493  10.20821  10.20821  10.41799  10.41799
 Alpha virt. eigenvalues --   10.56803  10.69012  10.69012  10.73222  11.67610
 Alpha virt. eigenvalues --   11.84228  12.46922  12.46922  12.79661  12.79661
 Alpha virt. eigenvalues --   13.20136  28.02390  28.59510  28.59510  29.05671
 Alpha virt. eigenvalues --   29.05671  29.39826 145.53189 146.08105 146.08105
 Alpha virt. eigenvalues --  146.51652 146.51652 146.88656
          Condensed to atoms (all electrons):
               1          2          3          4          5          6
     1  C    6.039253   0.087977  -0.052489   0.195989  -0.052489   0.087977
     2  C    0.087977   6.039253   0.087977  -0.052489   0.195989  -0.052489
     3  C   -0.052489   0.087977   6.039253   0.087977  -0.052489   0.195989
     4  C    0.195989  -0.052489   0.087977   6.039253   0.087977  -0.052489
     5  C   -0.052489   0.195989  -0.052489   0.087977   6.039253   0.087977
     6  C    0.087977  -0.052489   0.195989  -0.052489   0.087977   6.039253
     7  H    0.236477  -0.021188   0.016536  -0.027205   0.016536  -0.021188
     8  H   -0.021188   0.236477  -0.021188   0.016536  -0.027205   0.016536
     9  H    0.016536  -0.021188   0.236477  -0.021188   0.016536  -0.027205
    10  H   -0.027205   0.016536  -0.021188   0.236477  -0.021188   0.016536
    11  H    0.016536  -0.027205   0.016536  -0.021188   0.236477  -0.021188
    12  H   -0.021188   0.016536  -0.027205   0.016536  -0.021188   0.236477
               7          8          9         10         11         12
     1  C    0.236477  -0.021188   0.016536  -0.027205   0.016536  -0.021188
     2  C   -0.021188   0.236477  -0.021188   0.016536  -0.027205   0.016536
     3  C    0.016536  -0.021188   0.236477  -0.021188   0.016536  -0.027205
     4  C   -0.027205   0.016536  -0.021188   0.236477  -0.021188   0.016536
     5  C    0.016536  -0.027205   0.016536  -0.021188   0.236477  -0.021188
     6  C   -0.021188   0.016536  -0.027205   0.016536  -0.021188   0.236477
     7  H    0.299764  -0.001268  -0.002083   0.000783  -0.002083  -0.001268
     8  H   -0.001268   0.299764  -0.001268  -0.002083   0.000783  -0.002083
     9  H   -0.002083  -0.001268   0.299764  -0.001268  -0.002083   0.000783
    10  H    0.000783  -0.002083  -0.001268   0.299764  -0.001268  -0.002083
    11  H   -0.002083   0.000783  -0.002083  -0.001268   0.299764  -0.001268
    12  H   -0.001268  -0.002083   0.000783  -0.002083  -0.001268   0.299764
 Mulliken charges:
               1
     1  C   -0.506186
     2  C   -0.506186
     3  C   -0.506186
     4  C   -0.506186
     5  C   -0.506186
     6  C   -0.506186
     7  H    0.506186
     8  H    0.506186
     9  H    0.506186
    10  H    0.506186
    11  H    0.506186
    12  H    0.506186
 Sum of Mulliken charges =  -0.00000
 Mulliken charges with hydrogens summed into heavy atoms:
               1
     1  C   -0.000000
     2  C   -0.000000
     3  C   -0.000000
     4  C   -0.000000
     5  C   -0.000000
     6  C   -0.000000
 Electronic spatial extent (au):  <R**2>=            457.0514
 Charge=             -0.0000 electrons
 Dipole moment (field-independent basis, Debye):
    X=              0.0000    Y=              0.0000    Z=             -0.0000  Tot=              0.0000
 Quadrupole moment (field-independent basis, Debye-Ang):
   XX=            -31.9689   YY=            -31.9689   ZZ=            -39.9639
   XY=              0.0000   XZ=              0.0000   YZ=              0.0000
 Traceless Quadrupole moment (field-independent basis, Debye-Ang):
   XX=              2.6650   YY=              2.6650   ZZ=             -5.3300
   XY=              0.0000   XZ=              0.0000   YZ=              0.0000
 Octapole moment (field-independent basis, Debye-Ang**2):
  XXX=             -0.0000  YYY=              0.0000  ZZZ=              0.0000  XYY=             -0.0000
  XXY=             -0.0000  XXZ=              0.0000  XZZ=             -0.0000  YZZ=              0.0000
  YYZ=              0.0000  XYZ=             -0.0000
 Hexadecapole moment (field-independent basis, Debye-Ang**3):
 XXXX=           -272.6493 YYYY=           -272.6493 ZZZZ=            -47.5126 XXXY=              0.0000
 XXXZ=              0.0000 YYYX=              0.0000 YYYZ=              0.0000 ZZZX=              0.0000
 ZZZY=              0.0000 XXYY=            -90.8831 XXZZ=            -64.1377 YYZZ=            -64.1377
 XXYZ=              0.0000 YYXZ=              0.0000 ZZXY=              0.0000
 N-N= 2.040199582770D+02 E-N=-9.463341849463D+02  KE= 2.312038934075D+02
 PrsmSu:  requested number of processors reduced to:  20 ShMem   1 Linda.
 No NMR shielding tensors so no spin-rotation constants.
 Leave Link  601 at Sat Apr 17 20:13:24 2021, MaxMem=   104857600 cpu:            1618.0 elap:              34.7
 (Enter /s/ls4/users/knvvv/bin/g16sse/l9999.exe)

 Test job not archived.
 1\1\GINC-N154\Stability\RM062X\Gen\C6H6\KNVVV\17-Apr-2021\0\\#P M062X/
 GEN Integral=UltraFineGrid SCF=NoSymm Stable=(RExt, Opt) IOp(1/33=1)\\
 Database calculations.\\0,1\C,0,1.,0.,-0.3915\C,0,1.,1.205074,0.30425\
 C,0,1.,1.205074,1.69575\C,0,1.,0.,2.3915\C,0,1.,-1.205074,1.69575\C,0,
 1.,-1.205074,0.30425\H,0,1.,0.,-1.4715\H,0,1.,2.140382,-0.23575\H,0,1.
 ,2.140382,2.23575\H,0,1.,0.,3.4715\H,0,1.,-2.140382,2.23575\H,0,1.,-2.
 140382,-0.23575\\Version=ES64L-G16RevA.03\State=1-A1G\HF=-232.2457798\
 RMSD=4.564e-09\Dipole=0.,0.,0.\Quadrupole=-3.9627466,1.9813733,1.98137
 33,0.,0.,0.\PG=D06H [3C2'(H1C1.C1H1)]\\@


 YOU ARE IN A MAZE OF TWISTY LITTLE PASSAGES.
 Job cpu time:       2 days 19 hours 37 minutes 13.4 seconds.
 Elapsed time:       0 days  1 hours 53 minutes 53.4 seconds.
 File lengths (MBytes):  RWF=    729 Int=      0 D2E=      0 Chk=     46 Scr=      1
 Normal termination of Gaussian 16 at Sat Apr 17 20:13:39 2021.
