 Entering Gaussian System, Link 0=/s/ls4/users/knvvv/bin/g16sse/g16
 Input=data/database/M062X--def2-QZVPPD--92_Pyrazinedimer_monB_S22.gjf
 Output=data/database/M062X--def2-QZVPPD--92_Pyrazinedimer_monB_S22.log
 Initial command:
 /s/ls4/users/knvvv/bin/g16sse/l1.exe "/s/ls4/users/knvvv/bin/scratch/Gau-33923.inp" -scrdir="/s/ls4/users/knvvv/bin/scratch/"
 Entering Link 1 = /s/ls4/users/knvvv/bin/g16sse/l1.exe PID=     33924.
  
 Copyright (c) 1988,1990,1992,1993,1995,1998,2003,2009,2016,
            Gaussian, Inc.  All Rights Reserved.
  
 This is part of the Gaussian(R) 16 program.  It is based on
 the Gaussian(R) 09 system (copyright 2009, Gaussian, Inc.),
 the Gaussian(R) 03 system (copyright 2003, Gaussian, Inc.),
 the Gaussian(R) 98 system (copyright 1998, Gaussian, Inc.),
 the Gaussian(R) 94 system (copyright 1995, Gaussian, Inc.),
 the Gaussian 92(TM) system (copyright 1992, Gaussian, Inc.),
 the Gaussian 90(TM) system (copyright 1990, Gaussian, Inc.),
 the Gaussian 88(TM) system (copyright 1988, Gaussian, Inc.),
 the Gaussian 86(TM) system (copyright 1986, Carnegie Mellon
 University), and the Gaussian 82(TM) system (copyright 1983,
 Carnegie Mellon University). Gaussian is a federally registered
 trademark of Gaussian, Inc.
  
 This software contains proprietary and confidential information,
 including trade secrets, belonging to Gaussian, Inc.
  
 This software is provided under written license and may be
 used, copied, transmitted, or stored only in accord with that
 written license.
  
 The following legend is applicable only to US Government
 contracts under FAR:
  
                    RESTRICTED RIGHTS LEGEND
  
 Use, reproduction and disclosure by the US Government is
 subject to restrictions as set forth in subparagraphs (a)
 and (c) of the Commercial Computer Software - Restricted
 Rights clause in FAR 52.227-19.
  
 Gaussian, Inc.
 340 Quinnipiac St., Bldg. 40, Wallingford CT 06492
  
  
 ---------------------------------------------------------------
 Warning -- This program may not be used in any manner that
 competes with the business of Gaussian, Inc. or will provide
 assistance to any competitor of Gaussian, Inc.  The licensee
 of this program is prohibited from giving any competitor of
 Gaussian, Inc. access to this program.  By using this program,
 the user acknowledges that Gaussian, Inc. is engaged in the
 business of creating and licensing software in the field of
 computational chemistry and represents and warrants to the
 licensee that it is not a competitor of Gaussian, Inc. and that
 it will not use this program in any manner prohibited above.
 ---------------------------------------------------------------
  

 Cite this work as:
 Gaussian 16, Revision A.03,
 M. J. Frisch, G. W. Trucks, H. B. Schlegel, G. E. Scuseria, 
 M. A. Robb, J. R. Cheeseman, G. Scalmani, V. Barone, 
 G. A. Petersson, H. Nakatsuji, X. Li, M. Caricato, A. V. Marenich, 
 J. Bloino, B. G. Janesko, R. Gomperts, B. Mennucci, H. P. Hratchian, 
 J. V. Ortiz, A. F. Izmaylov, J. L. Sonnenberg, D. Williams-Young, 
 F. Ding, F. Lipparini, F. Egidi, J. Goings, B. Peng, A. Petrone, 
 T. Henderson, D. Ranasinghe, V. G. Zakrzewski, J. Gao, N. Rega, 
 G. Zheng, W. Liang, M. Hada, M. Ehara, K. Toyota, R. Fukuda, 
 J. Hasegawa, M. Ishida, T. Nakajima, Y. Honda, O. Kitao, H. Nakai, 
 T. Vreven, K. Throssell, J. A. Montgomery, Jr., J. E. Peralta, 
 F. Ogliaro, M. J. Bearpark, J. J. Heyd, E. N. Brothers, K. N. Kudin, 
 V. N. Staroverov, T. A. Keith, R. Kobayashi, J. Normand, 
 K. Raghavachari, A. P. Rendell, J. C. Burant, S. S. Iyengar, 
 J. Tomasi, M. Cossi, J. M. Millam, M. Klene, C. Adamo, R. Cammi, 
 J. W. Ochterski, R. L. Martin, K. Morokuma, O. Farkas, 
 J. B. Foresman, and D. J. Fox, Gaussian, Inc., Wallingford CT, 2016.
 
 ******************************************
 Gaussian 16:  ES64L-G16RevA.03 25-Dec-2016
                18-Apr-2021 
 ******************************************
 %RWF=temp12_57305,70GB
 %nprocshared=48
 Will use up to   48 processors via shared memory.
 Default route: MaxDisk=80GB
 ----------------------------------------------------------------------
 #P M062X/GEN Integral=UltraFineGrid SCF=NoSymm Stable=(RExt, Opt) IOp(
 1/33=1)
 ----------------------------------------------------------------------
 1/33=1,38=1,172=1/1;
 2/12=2,17=6,18=5,40=1/2;
 3/5=7,11=2,25=1,30=1,74=-55,75=-5/1,2,3;
 4/9=2/1;
 5/5=2,38=5/2;
 6/7=2,8=2,9=2,10=2,28=1/1;
 8/6=1,10=90,11=11/1;
 9/8=-3,42=1,46=1/14;
 5/5=2,8=3,17=40,38=5/8(-2);
 6/7=2,8=2,9=2,10=2,28=1/1;
 99/5=1,9=1/99;
 Leave Link    1 at Sun Apr 18 03:19:38 2021, MaxMem=           0 cpu:               8.3 elap:               0.2
 (Enter /s/ls4/users/knvvv/bin/g16sse/l101.exe)
 ONIOM data not found on unit 2.
 ----------------------
 Database calculations.
 ----------------------
 TstMul:  ICh=     0
 TstMul:  Mul=     1
 TstMul:  ICh=     0
 TstMul:  Mul=     1
 Symbolic Z-matrix:
 Charge =  0 Multiplicity = 1
 C                    -0.338     2.08006   1.13005 
 C                     0.85403   1.35935   1.13063 
 N                     1.47018   0.99076   0. 
 C                     0.85403   1.35935  -1.13063 
 C                    -0.338     2.08006  -1.13005 
 N                    -0.95231   2.45288   0. 
 H                    -0.81038   2.3643    2.06186 
 H                     1.32086   1.06706   2.0624 
 H                     1.32086   1.06706  -2.0624 
 H                    -0.81038   2.3643   -2.06186 
 
 RdStrC is calling ZToCFu for IStruc=1 NZ=    10.
 PrtBox:  NBox=     1 Levels=  1 BoxLen=    8.00 SMaxX=        7.79
          Shift=            1.799597           -1.872265            3.897369
 Box      1 Number                   0 centers from      1 to     10:
 After GenITR:
 ITRead=  0  0  0  0  0  0  0  0  0  0
 MicOpt= -1 -1 -1 -1 -1 -1 -1 -1 -1 -1
 ITRead=  0  0  0  0  0  0  0  0  0  0
 MicOpt= -1 -1 -1 -1 -1 -1 -1 -1 -1 -1
 NAtoms=     10 NQM=       10 NQMF=       0 NMMI=      0 NMMIF=      0
                NMic=       0 NMicF=      0.
                    Isotopes and Nuclear Properties:
 (Nuclear quadrupole moments (NQMom) in fm**2, nuclear magnetic moments (NMagM)
  in nuclear magnetons)

  Atom         1           2           3           4           5           6           7           8           9          10
 IAtWgt=          12          12          14          12          12          14           1           1           1           1
 AtmWgt=  12.0000000  12.0000000  14.0030740  12.0000000  12.0000000  14.0030740   1.0078250   1.0078250   1.0078250   1.0078250
 NucSpn=           0           0           2           0           0           2           1           1           1           1
 AtZEff=  -0.0000000  -0.0000000  -0.0000000  -0.0000000  -0.0000000  -0.0000000  -0.0000000  -0.0000000  -0.0000000  -0.0000000
 NQMom=    0.0000000   0.0000000   2.0440000   0.0000000   0.0000000   2.0440000   0.0000000   0.0000000   0.0000000   0.0000000
 NMagM=    0.0000000   0.0000000   0.4037610   0.0000000   0.0000000   0.4037610   2.7928460   2.7928460   2.7928460   2.7928460
 AtZNuc=   6.0000000   6.0000000   7.0000000   6.0000000   6.0000000   7.0000000   1.0000000   1.0000000   1.0000000   1.0000000
 No MM parameters found.
 Leave Link  101 at Sun Apr 18 03:19:38 2021, MaxMem=   104857600 cpu:               7.1 elap:               0.2
 (Enter /s/ls4/users/knvvv/bin/g16sse/l202.exe)
                          Input orientation:                          
 ---------------------------------------------------------------------
 Center     Atomic      Atomic             Coordinates (Angstroms)
 Number     Number       Type             X           Y           Z
 ---------------------------------------------------------------------
      1          6           0       -0.338003    2.080061    1.130045
      2          6           0        0.854025    1.359347    1.130631
      3          7           0        1.470179    0.990760    0.000000
      4          6           0        0.854025    1.359347   -1.130631
      5          6           0       -0.338003    2.080061   -1.130045
      6          7           0       -0.952306    2.452884    0.000000
      7          1           0       -0.810376    2.364303    2.061864
      8          1           0        1.320858    1.067061    2.062399
      9          1           0        1.320858    1.067061   -2.062399
     10          1           0       -0.810376    2.364303   -2.061864
 ---------------------------------------------------------------------
                    Distance matrix (angstroms):
                    1          2          3          4          5
     1  C    0.000000
     2  C    1.392968   0.000000
     3  N    2.394389   1.339338   0.000000
     4  C    2.655375   2.261262   1.339338   0.000000
     5  C    2.260090   2.655375   2.394389   1.392968   0.000000
     6  N    1.339167   2.395200   2.829530   2.395200   1.339167
     7  H    1.082690   2.155775   3.367319   3.737940   3.239169
     8  H    2.155753   1.082384   2.069204   3.240185   3.737604
     9  H    3.737604   3.240185   2.069204   1.082384   2.155753
    10  H    3.239169   3.737940   3.367319   2.155775   1.082690
                    6          7          8          9         10
     6  N    0.000000
     7  H    2.068641   0.000000
     8  H    3.367680   2.494994   0.000000
     9  H    3.367680   4.820222   4.124797   0.000000
    10  H    2.068641   4.123729   4.820222   2.494994   0.000000
 Stoichiometry    C4H4N2
 Framework group  CS[SG(N2),X(C4H4)]
 Deg. of freedom    13
 Full point group                 CS      NOp   2
 Largest Abelian subgroup         CS      NOp   2
 Largest concise Abelian subgroup CS      NOp   2
                         Standard orientation:                         
 ---------------------------------------------------------------------
 Center     Atomic      Atomic             Coordinates (Angstroms)
 Number     Number       Type             X           Y           Z
 ---------------------------------------------------------------------
      1          6           0       -0.000299    0.696355    1.130045
      2          6           0       -0.000299   -0.696613    1.130631
      3          7           0        0.003077   -1.414589    0.000000
      4          6           0       -0.000299   -0.696613   -1.130631
      5          6           0       -0.000299    0.696355   -1.130045
      6          7           0        0.000906    1.414939   -0.000000
      7          1           0       -0.001463    1.247652    2.061864
      8          1           0       -0.008886   -1.247331    2.062399
      9          1           0       -0.008886   -1.247331   -2.062399
     10          1           0       -0.001463    1.247652   -2.061864
 ---------------------------------------------------------------------
 Rotational constants (GHZ):           6.4403431           5.9029799           3.0799935
 Leave Link  202 at Sun Apr 18 03:19:38 2021, MaxMem=   104857600 cpu:               6.3 elap:               0.2
 (Enter /s/ls4/users/knvvv/bin/g16sse/l301.exe)
 General basis read from cards:  (5D, 7F)
 Centers:       7      8      9     10
 S 4 1.00
     Exponent=  1.9069169000D+02 Coefficients=  7.0815167000D-04
     Exponent=  2.8605532000D+01 Coefficients=  5.4678827000D-03
     Exponent=  6.5095943000D+00 Coefficients=  2.7966605000D-02
     Exponent=  1.8412455000D+00 Coefficients=  1.0764538000D-01
 S 1 1.00
     Exponent=  5.9853725000D-01 Coefficients=  1.0000000000D+00
 S 1 1.00
     Exponent=  2.1397624000D-01 Coefficients=  1.0000000000D+00
 S 1 1.00
     Exponent=  8.0316286000D-02 Coefficients=  1.0000000000D+00
 P 1 1.00
     Exponent=  2.2920000000D+00 Coefficients=  1.0000000000D+00
 P 1 1.00
     Exponent=  8.3800000000D-01 Coefficients=  1.0000000000D+00
 P 1 1.00
     Exponent=  2.9200000000D-01 Coefficients=  1.0000000000D+00
 P 1 1.00
     Exponent=  8.4063199228D-02 Coefficients=  1.0000000000D+00
 D 1 1.00
     Exponent=  2.0620000000D+00 Coefficients=  1.0000000000D+00
 D 1 1.00
     Exponent=  6.6200000000D-01 Coefficients=  1.0000000000D+00
 F 1 1.00
     Exponent=  1.3970000000D+00 Coefficients=  1.0000000000D+00
 ****
 Centers:       1      2      4      5
 S 8 1.00
     Exponent=  6.7025071029D+04 Coefficients=  3.8736308501D-05
     Exponent=  1.0039986538D+04 Coefficients=  3.0107917575D-04
     Exponent=  2.2849316911D+03 Coefficients=  1.5787918095D-03
     Exponent=  6.4714122130D+02 Coefficients=  6.6087087195D-03
     Exponent=  2.1109472335D+02 Coefficients=  2.3367123250D-02
     Exponent=  7.6177643862D+01 Coefficients=  7.0420716898D-02
     Exponent=  2.9633839163D+01 Coefficients=  1.7360344953D-01
     Exponent=  1.2187785081D+01 Coefficients=  3.2292305648D-01
 S 2 1.00
     Exponent=  5.3026006299D+01 Coefficients=  7.4897404492D-02
     Exponent=  1.5258502776D+01 Coefficients=  7.6136220983D-01
 S 1 1.00
     Exponent=  5.2403957464D+00 Coefficients=  1.0000000000D+00
 S 1 1.00
     Exponent=  2.2905022379D+00 Coefficients=  1.0000000000D+00
 S 1 1.00
     Exponent=  6.9673283006D-01 Coefficients=  1.0000000000D+00
 S 1 1.00
     Exponent=  2.7599337363D-01 Coefficients=  1.0000000000D+00
 S 1 1.00
     Exponent=  1.0739884389D-01 Coefficients=  1.0000000000D+00
 S 1 1.00
     Exponent=  4.4981404899D-02 Coefficients=  1.0000000000D+00
 P 5 1.00
     Exponent=  1.0512555082D+02 Coefficients=  8.4647553844D-04
     Exponent=  2.4884461066D+01 Coefficients=  6.6274038534D-03
     Exponent=  7.8637230826D+00 Coefficients=  3.0120390419D-02
     Exponent=  2.8407001835D+00 Coefficients=  9.9951435476D-02
     Exponent=  1.1227137335D+00 Coefficients=  2.3826299282D-01
 P 1 1.00
     Exponent=  4.6050725555D-01 Coefficients=  1.0000000000D+00
 P 1 1.00
     Exponent=  1.8937530913D-01 Coefficients=  1.0000000000D+00
 P 1 1.00
     Exponent=  7.5983791611D-02 Coefficients=  1.0000000000D+00
 D 1 1.00
     Exponent=  1.8480000000D+00 Coefficients=  1.0000000000D+00
 D 1 1.00
     Exponent=  6.4900000000D-01 Coefficients=  1.0000000000D+00
 D 1 1.00
     Exponent=  2.2800000000D-01 Coefficients=  1.0000000000D+00
 D 1 1.00
     Exponent=  7.6889830417D-02 Coefficients=  1.0000000000D+00
 F 1 1.00
     Exponent=  1.4190000000D+00 Coefficients=  1.0000000000D+00
 F 1 1.00
     Exponent=  4.8500000000D-01 Coefficients=  1.0000000000D+00
 G 1 1.00
     Exponent=  1.0110000000D+00 Coefficients=  1.0000000000D+00
 ****
 Centers:       3      6
 S 8 1.00
     Exponent=  9.0726889210D+04 Coefficients=  3.9257887368D-05
     Exponent=  1.3590528801D+04 Coefficients=  3.0513316455D-04
     Exponent=  3.0929883781D+03 Coefficients=  1.6000560446D-03
     Exponent=  8.7599876362D+02 Coefficients=  6.6982937306D-03
     Exponent=  2.8574469982D+02 Coefficients=  2.3690078765D-02
     Exponent=  1.0311913417D+02 Coefficients=  7.1455405268D-02
     Exponent=  4.0128556777D+01 Coefficients=  1.7632774876D-01
     Exponent=  1.6528095704D+01 Coefficients=  3.2677592815D-01
 S 2 1.00
     Exponent=  6.9390960983D+01 Coefficients=  8.0052094386D-02
     Exponent=  2.0428200596D+01 Coefficients=  7.8268063538D-01
 S 1 1.00
     Exponent=  7.1292587972D+00 Coefficients=  1.0000000000D+00
 S 1 1.00
     Exponent=  3.1324304893D+00 Coefficients=  1.0000000000D+00
 S 1 1.00
     Exponent=  9.8755778723D-01 Coefficients=  1.0000000000D+00
 S 1 1.00
     Exponent=  3.8765721307D-01 Coefficients=  1.0000000000D+00
 S 1 1.00
     Exponent=  1.4909883075D-01 Coefficients=  1.0000000000D+00
 S 1 1.00
     Exponent=  6.2151630318D-02 Coefficients=  1.0000000000D+00
 P 5 1.00
     Exponent=  1.5005742670D+02 Coefficients= -8.6216165986D-04
     Exponent=  3.5491599483D+01 Coefficients= -6.8571273236D-03
     Exponent=  1.1247864223D+01 Coefficients= -3.1795688855D-02
     Exponent=  4.0900305195D+00 Coefficients= -1.0537396822D-01
     Exponent=  1.6220573146D+00 Coefficients= -2.4519708041D-01
 P 1 1.00
     Exponent=  6.6442261530D-01 Coefficients=  1.0000000000D+00
 P 1 1.00
     Exponent=  2.7099770070D-01 Coefficients=  1.0000000000D+00
 P 1 1.00
     Exponent=  1.0688749984D-01 Coefficients=  1.0000000000D+00
 D 1 1.00
     Exponent=  2.8370000000D+00 Coefficients=  1.0000000000D+00
 D 1 1.00
     Exponent=  9.6800000000D-01 Coefficients=  1.0000000000D+00
 D 1 1.00
     Exponent=  3.3500000000D-01 Coefficients=  1.0000000000D+00
 D 1 1.00
     Exponent=  1.0825280010D-01 Coefficients=  1.0000000000D+00
 F 1 1.00
     Exponent=  2.0270000000D+00 Coefficients=  1.0000000000D+00
 F 1 1.00
     Exponent=  6.8500000000D-01 Coefficients=  1.0000000000D+00
 G 1 1.00
     Exponent=  1.4270000000D+00 Coefficients=  1.0000000000D+00
 ****
 Ernie: Thresh=  0.10000D-02 Tol=  0.10000D-05 Strict=F.
 There are   340 symmetry adapted cartesian basis functions of A'  symmetry.
 There are   286 symmetry adapted cartesian basis functions of A"  symmetry.
 There are   274 symmetry adapted basis functions of A'  symmetry.
 There are   236 symmetry adapted basis functions of A"  symmetry.
   510 basis functions,   758 primitive gaussians,   626 cartesian basis functions
    21 alpha electrons       21 beta electrons
       nuclear repulsion energy       208.6262876293 Hartrees.
 IExCor= 4336 DFT=T Ex+Corr=M062X ExCW=0 ScaHFX=  0.540000
 ScaDFX=  1.000000  1.000000  1.000000  1.000000 ScalE2=  1.000000  1.000000
 IRadAn=      5 IRanWt=     -1 IRanGd=            0 ICorTp=0 IEmpDi=  4
 NAtoms=   10 NActive=   10 NUniq=    6 SFac= 2.78D+00 NAtFMM=   60 NAOKFM=F Big=F
 Integral buffers will be    131072 words long.
 Raffenetti 2 integral format.
 Two-electron integral symmetry is turned on.
 Leave Link  301 at Sun Apr 18 03:19:39 2021, MaxMem=   104857600 cpu:               8.2 elap:               0.2
 (Enter /s/ls4/users/knvvv/bin/g16sse/l302.exe)
 NPDir=0 NMtPBC=     1 NCelOv=     1 NCel=       1 NClECP=     1 NCelD=      1
         NCelK=      1 NCelE2=     1 NClLst=     1 CellRange=     0.0.
 One-electron integrals computed using PRISM.
 One-electron integral symmetry used in STVInt
 PrsmSu:  requested number of processors reduced to:   4 ShMem   1 Linda.
 PrsmSu:  requested number of processors reduced to:  20 ShMem   1 Linda.
 NBasis=   510 RedAO= T EigKep=  2.87D-06  NBF=   274   236
 NBsUse=   507 1.00D-06 EigRej=  6.15D-07 NBFU=   273   234
 Precomputing XC quadrature grid using
 IXCGrd= 4 IRadAn=           5 IRanWt=          -1 IRanGd=           0 AccXCQ= 0.00D+00.
 Generated NRdTot=       0 NPtTot=           0 NUsed=           0 NTot=          32
 NSgBfM=   623   623   623   623   623 MxSgAt=    10 MxSgA2=    10.
 Leave Link  302 at Sun Apr 18 03:19:51 2021, MaxMem=   104857600 cpu:             577.6 elap:              12.4
 (Enter /s/ls4/users/knvvv/bin/g16sse/l303.exe)
 DipDrv:  MaxL=1.
 Leave Link  303 at Sun Apr 18 03:19:55 2021, MaxMem=   104857600 cpu:             182.6 elap:               3.9
 (Enter /s/ls4/users/knvvv/bin/g16sse/l401.exe)
 SCF N**3 symmetry information disabled.
 ExpMin= 4.50D-02 ExpMax= 9.07D+04 ExpMxC= 8.76D+02 IAcc=3 IRadAn=         5 AccDes= 0.00D+00
 Harris functional with IExCor= 1009 and IRadAn=       5 diagonalized for initial guess.
 HarFok:  IExCor= 1009 AccDes= 0.00D+00 IRadAn=         5 IDoV= 1 UseB2=F ITyADJ=14
 ICtDFT=  3500011 ScaDFX=  1.000000  1.000000  1.000000  1.000000
 FoFCou: FMM=F IPFlag=           0 FMFlag=      100000 FMFlg1=           0
         NFxFlg=           0 DoJE=T BraDBF=F KetDBF=T FulRan=T
         wScrn=  0.000000 ICntrl=       500 IOpCl=  0 I1Cent=   200000004 NGrid=           0
         NMat0=    1 NMatS0=      1 NMatT0=    0 NMatD0=    1 NMtDS0=    0 NMtDT0=    0
 Petite list used in FoFCou.
 CoulSu:  requested number of processors reduced to:  18 ShMem   1 Linda.
 CoulSu:  requested number of processors reduced to:  19 ShMem   1 Linda.
 CoulSu:  requested number of processors reduced to:  21 ShMem   1 Linda.
 CoulSu:  requested number of processors reduced to:  21 ShMem   1 Linda.
 Harris En= -264.160966502217    
 JPrj=0 DoOrth=F DoCkMO=F.
 Initial guess orbital symmetries:
       Occupied  (A') (A') (A') (A") (A') (A") (A') (A') (A") (A')
                 (A") (A") (A') (A') (A") (A') (A") (A') (A') (A")
                 (A')
       Virtual   (A') (A") (A') (A') (A") (A') (A') (A") (A') (A')
                 (A') (A") (A") (A') (A") (A') (A') (A') (A") (A')
                 (A") (A") (A") (A') (A') (A") (A') (A') (A") (A')
                 (A') (A") (A') (A") (A") (A') (A") (A") (A') (A')
                 (A') (A") (A') (A") (A") (A') (A') (A') (A') (A")
                 (A") (A') (A") (A') (A") (A") (A") (A') (A') (A')
                 (A') (A") (A') (A') (A') (A") (A") (A") (A') (A")
                 (A') (A") (A") (A") (A') (A') (A') (A") (A") (A")
                 (A') (A') (A') (A') (A") (A') (A') (A') (A") (A")
                 (A') (A') (A") (A") (A') (A') (A') (A") (A') (A")
                 (A') (A') (A') (A") (A") (A') (A") (A") (A") (A')
                 (A") (A') (A') (A") (A") (A') (A") (A') (A') (A')
                 (A") (A") (A") (A") (A') (A') (A') (A') (A") (A')
                 (A") (A') (A') (A") (A") (A') (A") (A") (A") (A')
                 (A') (A") (A') (A') (A') (A') (A') (A") (A") (A')
                 (A') (A') (A') (A") (A") (A') (A") (A") (A') (A')
                 (A") (A") (A') (A") (A") (A') (A") (A') (A') (A')
                 (A') (A") (A") (A") (A') (A") (A") (A") (A') (A")
                 (A') (A") (A') (A') (A') (A") (A') (A") (A") (A')
                 (A') (A') (A") (A') (A") (A") (A') (A") (A') (A')
                 (A") (A') (A') (A") (A') (A") (A") (A') (A") (A')
                 (A") (A") (A') (A") (A') (A") (A') (A') (A") (A")
                 (A") (A') (A") (A') (A') (A") (A') (A') (A") (A')
                 (A') (A') (A') (A') (A") (A') (A') (A") (A') (A')
                 (A") (A") (A") (A") (A') (A') (A') (A") (A") (A')
                 (A") (A") (A") (A') (A') (A") (A') (A") (A') (A")
                 (A') (A') (A') (A") (A") (A') (A') (A") (A") (A')
                 (A") (A") (A') (A') (A') (A") (A') (A") (A") (A")
                 (A') (A') (A") (A') (A") (A') (A') (A") (A") (A')
                 (A') (A") (A') (A") (A') (A") (A') (A') (A") (A')
                 (A") (A") (A') (A") (A') (A") (A') (A") (A') (A")
                 (A") (A") (A') (A') (A') (A') (A") (A') (A") (A")
                 (A") (A') (A') (A") (A") (A') (A') (A") (A') (A")
                 (A') (A") (A") (A') (A') (A') (A") (A") (A') (A")
                 (A') (A') (A") (A') (A") (A") (A') (A') (A") (A")
                 (A') (A") (A') (A") (A') (A') (A") (A') (A') (A")
                 (A') (A") (A') (A') (A") (A") (A') (A") (A') (A")
                 (A') (A") (A') (A") (A") (A') (A') (A") (A') (A")
                 (A") (A') (A') (A') (A") (A') (A") (A") (A") (A')
                 (A") (A') (A') (A") (A') (A') (A') (A') (A") (A')
                 (A") (A") (A") (A') (A') (A') (A") (A") (A') (A')
                 (A") (A") (A") (A') (A") (A') (A') (A") (A') (A")
                 (A') (A") (A') (A') (A") (A') (A") (A") (A') (A')
                 (A') (A') (A') (A") (A") (A") (A") (A') (A') (A")
                 (A") (A') (A") (A') (A") (A') (A') (A') (A") (A")
                 (A') (A") (A') (A') (A") (A") (A') (A") (A") (A")
                 (A') (A') (A') (A') (A") (A') (A") (A') (A") (A')
                 (A') (A") (A') (A") (A') (A") (A') (A") (A') (A')
                 (A') (A") (A') (A") (A') (A')
 The electronic state of the initial guess is 1-A'.
 Leave Link  401 at Sun Apr 18 03:19:57 2021, MaxMem=   104857600 cpu:              82.3 elap:               2.0
 (Enter /s/ls4/users/knvvv/bin/g16sse/l502.exe)
 Integral symmetry usage will be decided dynamically.
 Closed shell SCF:
 Using DIIS extrapolation, IDIIS=  1040.
 NGot=   104857600 LenX=   104037620 LenY=   103645118
 Requested convergence on RMS density matrix=1.00D-08 within 128 cycles.
 Requested convergence on MAX density matrix=1.00D-06.
 Requested convergence on             energy=1.00D-06.
 No special actions if energy rises.
 Fock matrices will be formed incrementally for  20 cycles.

 Cycle   1  Pass 1  IDiag  1:
 FoFJK:  IHMeth= 1 ICntrl=       0 DoSepK=F KAlg= 0 I1Cent=           0 FoldK=F
 IRaf= 970000000 NMat=       1 IRICut=       1 DoRegI=T DoRafI=F ISym2E= 1 IDoP0=0 IntGTp=1.
 FoFCou: FMM=F IPFlag=           0 FMFlag=      100000 FMFlg1=           0
         NFxFlg=           0 DoJE=F BraDBF=F KetDBF=F FulRan=T
         wScrn=  0.000000 ICntrl=         0 IOpCl=  0 I1Cent=           0 NGrid=           0
         NMat0=    1 NMatS0=      1 NMatT0=    0 NMatD0=    1 NMtDS0=    0 NMtDT0=    0
 Petite list used in FoFCou.
 CoulSu:  requested number of processors reduced to:  20 ShMem   1 Linda.
 E= -264.233609352430    
 DIIS: error= 2.90D-02 at cycle   1 NSaved=   1.
 NSaved= 1 IEnMin= 1 EnMin= -264.233609352430     IErMin= 1 ErrMin= 2.90D-02
 ErrMax= 2.90D-02  0.00D+00 EMaxC= 1.00D-01 BMatC= 2.24D-01 BMatP= 2.24D-01
 IDIUse=3 WtCom= 7.10D-01 WtEn= 2.90D-01
 Coeff-Com:  0.100D+01
 Coeff-En:   0.100D+01
 Coeff:      0.100D+01
 Gap=     0.300 Goal=   None    Shift=    0.000
 GapD=    0.300 DampG=1.000 DampE=0.500 DampFc=0.5000 IDamp=-1.
 Damping current iteration by 5.00D-01
 RMSDP=1.48D-03 MaxDP=8.41D-02              OVMax= 9.86D-02

 Cycle   2  Pass 1  IDiag  1:
 RMSU=  7.32D-04    CP:  9.70D-01
 CoulSu:  requested number of processors reduced to:  20 ShMem   1 Linda.
 E= -264.281930051772     Delta-E=       -0.048320699342 Rises=F Damp=T
 DIIS: error= 1.42D-02 at cycle   2 NSaved=   2.
 NSaved= 2 IEnMin= 2 EnMin= -264.281930051772     IErMin= 2 ErrMin= 1.42D-02
 ErrMax= 1.42D-02  0.00D+00 EMaxC= 1.00D-01 BMatC= 3.99D-02 BMatP= 2.24D-01
 IDIUse=3 WtCom= 8.58D-01 WtEn= 1.42D-01
 Coeff-Com: -0.531D+00 0.153D+01
 Coeff-En:   0.000D+00 0.100D+01
 Coeff:     -0.456D+00 0.146D+01
 Gap=     0.352 Goal=   None    Shift=    0.000
 RMSDP=1.00D-03 MaxDP=5.94D-02 DE=-4.83D-02 OVMax= 4.82D-02

 Cycle   3  Pass 1  IDiag  1:
 RMSU=  9.52D-04    CP:  9.40D-01  1.39D+00
 CoulSu:  requested number of processors reduced to:  20 ShMem   1 Linda.
 E= -264.320924363082     Delta-E=       -0.038994311310 Rises=F Damp=F
 DIIS: error= 5.95D-03 at cycle   3 NSaved=   3.
 NSaved= 3 IEnMin= 3 EnMin= -264.320924363082     IErMin= 3 ErrMin= 5.95D-03
 ErrMax= 5.95D-03  0.00D+00 EMaxC= 1.00D-01 BMatC= 3.95D-03 BMatP= 3.99D-02
 IDIUse=3 WtCom= 9.40D-01 WtEn= 5.95D-02
 Coeff-Com: -0.231D+00 0.521D+00 0.710D+00
 Coeff-En:   0.000D+00 0.000D+00 0.100D+01
 Coeff:     -0.218D+00 0.490D+00 0.727D+00
 Gap=     0.296 Goal=   None    Shift=    0.000
 RMSDP=1.67D-04 MaxDP=9.68D-03 DE=-3.90D-02 OVMax= 1.53D-02

 Cycle   4  Pass 1  IDiag  1:
 RMSU=  9.23D-05    CP:  9.38D-01  1.49D+00  8.78D-01
 CoulSu:  requested number of processors reduced to:  20 ShMem   1 Linda.
 E= -264.324127099086     Delta-E=       -0.003202736004 Rises=F Damp=F
 DIIS: error= 1.49D-03 at cycle   4 NSaved=   4.
 NSaved= 4 IEnMin= 4 EnMin= -264.324127099086     IErMin= 4 ErrMin= 1.49D-03
 ErrMax= 1.49D-03  0.00D+00 EMaxC= 1.00D-01 BMatC= 3.60D-04 BMatP= 3.95D-03
 IDIUse=3 WtCom= 9.85D-01 WtEn= 1.49D-02
 Coeff-Com: -0.768D-01 0.165D+00 0.321D+00 0.591D+00
 Coeff-En:   0.000D+00 0.000D+00 0.000D+00 0.100D+01
 Coeff:     -0.757D-01 0.163D+00 0.316D+00 0.597D+00
 Gap=     0.296 Goal=   None    Shift=    0.000
 RMSDP=5.18D-05 MaxDP=4.51D-03 DE=-3.20D-03 OVMax= 5.67D-03

 Cycle   5  Pass 1  IDiag  1:
 RMSU=  4.22D-05    CP:  9.36D-01  1.46D+00  8.64D-01  8.80D-01
 CoulSu:  requested number of processors reduced to:  20 ShMem   1 Linda.
 E= -264.324382540019     Delta-E=       -0.000255440933 Rises=F Damp=F
 DIIS: error= 5.32D-04 at cycle   5 NSaved=   5.
 NSaved= 5 IEnMin= 5 EnMin= -264.324382540019     IErMin= 5 ErrMin= 5.32D-04
 ErrMax= 5.32D-04  0.00D+00 EMaxC= 1.00D-01 BMatC= 3.43D-05 BMatP= 3.60D-04
 IDIUse=3 WtCom= 9.95D-01 WtEn= 5.32D-03
 Coeff-Com: -0.213D-01 0.449D-01 0.107D+00 0.302D+00 0.568D+00
 Coeff-En:   0.000D+00 0.000D+00 0.000D+00 0.000D+00 0.100D+01
 Coeff:     -0.212D-01 0.447D-01 0.106D+00 0.300D+00 0.570D+00
 Gap=     0.296 Goal=   None    Shift=    0.000
 RMSDP=1.07D-05 MaxDP=3.90D-04 DE=-2.55D-04 OVMax= 1.49D-03

 Cycle   6  Pass 1  IDiag  1:
 RMSU=  8.64D-06    CP:  9.36D-01  1.45D+00  8.62D-01  9.04D-01  1.08D+00
 CoulSu:  requested number of processors reduced to:  20 ShMem   1 Linda.
 E= -264.324409403938     Delta-E=       -0.000026863920 Rises=F Damp=F
 DIIS: error= 3.27D-05 at cycle   6 NSaved=   6.
 NSaved= 6 IEnMin= 6 EnMin= -264.324409403938     IErMin= 6 ErrMin= 3.27D-05
 ErrMax= 3.27D-05  0.00D+00 EMaxC= 1.00D-01 BMatC= 1.91D-07 BMatP= 3.43D-05
 IDIUse=1 WtCom= 1.00D+00 WtEn= 0.00D+00
 Coeff-Com:  0.483D-02-0.101D-01-0.174D-01-0.282D-01 0.898D-02 0.104D+01
 Coeff:      0.483D-02-0.101D-01-0.174D-01-0.282D-01 0.898D-02 0.104D+01
 Gap=     0.296 Goal=   None    Shift=    0.000
 RMSDP=6.33D-06 MaxDP=4.28D-04 DE=-2.69D-05 OVMax= 1.51D-04

 Cycle   7  Pass 1  IDiag  1:
 RMSU=  2.38D-06    CP:  9.36D-01  1.45D+00  8.63D-01  9.13D-01  1.16D+00
                    CP:  1.23D+00
 CoulSu:  requested number of processors reduced to:  20 ShMem   1 Linda.
 E= -264.324409620011     Delta-E=       -0.000000216072 Rises=F Damp=F
 DIIS: error= 3.85D-06 at cycle   7 NSaved=   7.
 NSaved= 7 IEnMin= 7 EnMin= -264.324409620011     IErMin= 7 ErrMin= 3.85D-06
 ErrMax= 3.85D-06  0.00D+00 EMaxC= 1.00D-01 BMatC= 2.72D-09 BMatP= 1.91D-07
 IDIUse=1 WtCom= 1.00D+00 WtEn= 0.00D+00
 Coeff-Com: -0.176D-04-0.182D-04-0.453D-03-0.346D-02-0.677D-02-0.425D-01
 Coeff-Com:  0.105D+01
 Coeff:     -0.176D-04-0.182D-04-0.453D-03-0.346D-02-0.677D-02-0.425D-01
 Coeff:      0.105D+01
 Gap=     0.296 Goal=   None    Shift=    0.000
 RMSDP=1.83D-06 MaxDP=1.57D-04 DE=-2.16D-07 OVMax= 2.70D-05

 Cycle   8  Pass 1  IDiag  1:
 RMSU=  1.00D-06    CP:  9.36D-01  1.45D+00  8.64D-01  9.15D-01  1.14D+00
                    CP:  1.25D+00  1.23D+00
 CoulSu:  requested number of processors reduced to:  20 ShMem   1 Linda.
 E= -264.324409624512     Delta-E=       -0.000000004502 Rises=F Damp=F
 DIIS: error= 9.88D-07 at cycle   8 NSaved=   8.
 NSaved= 8 IEnMin= 8 EnMin= -264.324409624512     IErMin= 8 ErrMin= 9.88D-07
 ErrMax= 9.88D-07  0.00D+00 EMaxC= 1.00D-01 BMatC= 2.13D-10 BMatP= 2.72D-09
 IDIUse=1 WtCom= 1.00D+00 WtEn= 0.00D+00
 Coeff-Com: -0.886D-04 0.177D-03 0.187D-03-0.198D-03-0.963D-03-0.252D-01
 Coeff-Com:  0.956D-01 0.930D+00
 Coeff:     -0.886D-04 0.177D-03 0.187D-03-0.198D-03-0.963D-03-0.252D-01
 Coeff:      0.956D-01 0.930D+00
 Gap=     0.296 Goal=   None    Shift=    0.000
 RMSDP=1.66D-07 MaxDP=1.33D-05 DE=-4.50D-09 OVMax= 1.06D-05

 Cycle   9  Pass 1  IDiag  1:
 RMSU=  5.79D-08    CP:  9.36D-01  1.45D+00  8.64D-01  9.16D-01  1.14D+00
                    CP:  1.25D+00  1.26D+00  1.10D+00
 CoulSu:  requested number of processors reduced to:  20 ShMem   1 Linda.
 E= -264.324409624606     Delta-E=       -0.000000000094 Rises=F Damp=F
 DIIS: error= 1.37D-06 at cycle   9 NSaved=   9.
 NSaved= 9 IEnMin= 9 EnMin= -264.324409624606     IErMin= 8 ErrMin= 9.88D-07
 ErrMax= 1.37D-06  0.00D+00 EMaxC= 1.00D-01 BMatC= 2.21D-10 BMatP= 2.13D-10
 IDIUse=1 WtCom= 1.00D+00 WtEn= 0.00D+00
 Coeff-Com: -0.478D-04 0.100D-03 0.130D-03 0.100D-03 0.256D-04-0.112D-01
 Coeff-Com: -0.351D-01 0.564D+00 0.482D+00
 Coeff:     -0.478D-04 0.100D-03 0.130D-03 0.100D-03 0.256D-04-0.112D-01
 Coeff:     -0.351D-01 0.564D+00 0.482D+00
 Gap=     0.296 Goal=   None    Shift=    0.000
 RMSDP=3.20D-08 MaxDP=2.76D-06 DE=-9.40D-11 OVMax= 6.01D-06

 Cycle  10  Pass 1  IDiag  1:
 RMSU=  2.15D-08    CP:  9.36D-01  1.45D+00  8.64D-01  9.16D-01  1.14D+00
                    CP:  1.25D+00  1.27D+00  1.11D+00  8.51D-01
 CoulSu:  requested number of processors reduced to:  20 ShMem   1 Linda.
 E= -264.324409624800     Delta-E=       -0.000000000194 Rises=F Damp=F
 DIIS: error= 1.48D-07 at cycle  10 NSaved=  10.
 NSaved=10 IEnMin=10 EnMin= -264.324409624800     IErMin=10 ErrMin= 1.48D-07
 ErrMax= 1.48D-07  0.00D+00 EMaxC= 1.00D-01 BMatC= 4.43D-12 BMatP= 2.13D-10
 IDIUse=1 WtCom= 1.00D+00 WtEn= 0.00D+00
 Coeff-Com: -0.241D-05 0.613D-05 0.846D-05-0.576D-05 0.128D-03-0.669D-03
 Coeff-Com: -0.150D-01 0.435D-01 0.113D+00 0.859D+00
 Coeff:     -0.241D-05 0.613D-05 0.846D-05-0.576D-05 0.128D-03-0.669D-03
 Coeff:     -0.150D-01 0.435D-01 0.113D+00 0.859D+00
 Gap=     0.296 Goal=   None    Shift=    0.000
 RMSDP=9.86D-09 MaxDP=4.88D-07 DE=-1.94D-10 OVMax= 9.24D-07

 SCF Done:  E(RM062X) =  -264.324409625     A.U. after   10 cycles
            NFock= 10  Conv=0.99D-08     -V/T= 2.0045
 KE= 2.631458823227D+02 PE=-1.032016191566D+03 EE= 2.959196119889D+02
 Leave Link  502 at Sun Apr 18 03:21:58 2021, MaxMem=   104857600 cpu:            3508.9 elap:             120.9
 (Enter /s/ls4/users/knvvv/bin/g16sse/l601.exe)
 Copying SCF densities to generalized density rwf, IOpCl= 0 IROHF=0.

 **********************************************************************

            Population analysis using the SCF density.

 **********************************************************************

 Orbital symmetries:
       Occupied  (A') (A') (A") (A') (A') (A") (A') (A') (A") (A')
                 (A") (A') (A") (A') (A") (A') (A") (A') (A') (A")
                 (A')
       Virtual   (A') (A") (A') (A") (A') (A") (A') (A') (A') (A')
                 (A') (A") (A") (A") (A') (A') (A') (A') (A') (A")
                 (A") (A') (A") (A") (A") (A") (A') (A') (A') (A")
                 (A') (A") (A') (A') (A") (A") (A') (A') (A") (A')
                 (A') (A") (A') (A") (A") (A') (A') (A') (A") (A")
                 (A') (A") (A') (A') (A") (A') (A') (A") (A') (A')
                 (A') (A") (A") (A') (A") (A") (A") (A') (A') (A')
                 (A") (A") (A") (A') (A') (A") (A') (A") (A') (A")
                 (A") (A') (A') (A') (A') (A") (A") (A") (A') (A')
                 (A") (A') (A') (A") (A') (A') (A') (A") (A') (A")
                 (A') (A') (A') (A") (A") (A') (A") (A") (A") (A')
                 (A") (A') (A') (A") (A") (A') (A") (A') (A') (A')
                 (A") (A") (A") (A') (A") (A") (A') (A') (A") (A')
                 (A') (A') (A') (A") (A") (A') (A") (A") (A") (A')
                 (A') (A') (A') (A') (A") (A') (A') (A") (A") (A')
                 (A') (A') (A') (A") (A") (A') (A") (A") (A') (A")
                 (A') (A") (A') (A") (A') (A") (A") (A') (A') (A')
                 (A") (A') (A") (A") (A') (A") (A") (A") (A') (A')
                 (A") (A") (A') (A') (A') (A") (A") (A') (A") (A')
                 (A') (A') (A") (A') (A") (A') (A") (A") (A") (A')
                 (A') (A") (A') (A") (A') (A") (A') (A") (A') (A')
                 (A") (A") (A') (A") (A') (A') (A") (A") (A') (A")
                 (A") (A") (A') (A') (A') (A") (A') (A') (A') (A")
                 (A') (A') (A') (A') (A") (A') (A') (A") (A") (A')
                 (A') (A") (A") (A") (A') (A') (A') (A") (A") (A")
                 (A') (A") (A") (A') (A') (A") (A') (A") (A') (A")
                 (A') (A') (A') (A") (A") (A') (A') (A") (A") (A')
                 (A") (A") (A') (A') (A") (A') (A") (A') (A") (A")
                 (A') (A') (A") (A') (A") (A') (A') (A") (A') (A")
                 (A') (A") (A') (A") (A") (A') (A") (A') (A') (A")
                 (A') (A") (A") (A') (A') (A") (A') (A') (A") (A")
                 (A") (A") (A') (A') (A") (A') (A") (A") (A') (A')
                 (A') (A") (A') (A") (A') (A') (A") (A') (A") (A')
                 (A") (A") (A") (A') (A') (A") (A') (A") (A') (A")
                 (A') (A') (A") (A') (A") (A') (A") (A') (A") (A")
                 (A') (A') (A") (A") (A') (A') (A") (A') (A') (A')
                 (A") (A") (A") (A') (A") (A') (A') (A') (A") (A')
                 (A") (A") (A') (A") (A") (A') (A') (A") (A') (A")
                 (A') (A") (A') (A') (A") (A") (A') (A") (A') (A")
                 (A') (A") (A') (A") (A') (A') (A') (A') (A') (A")
                 (A") (A") (A") (A") (A') (A') (A') (A") (A') (A')
                 (A") (A') (A") (A") (A") (A') (A') (A") (A") (A')
                 (A") (A') (A') (A') (A") (A") (A') (A") (A') (A')
                 (A') (A') (A') (A") (A") (A") (A") (A') (A') (A")
                 (A") (A') (A") (A') (A") (A') (A") (A') (A') (A")
                 (A") (A') (A") (A') (A') (A") (A') (A") (A") (A")
                 (A') (A') (A') (A") (A') (A') (A") (A') (A") (A')
                 (A') (A") (A') (A") (A') (A") (A') (A") (A') (A')
                 (A') (A") (A') (A") (A') (A')
 The electronic state is 1-A'.
 Alpha  occ. eigenvalues --  -14.77887 -14.77886 -10.59664 -10.59662 -10.59583
 Alpha  occ. eigenvalues --  -10.59582  -1.10043  -1.02259  -0.88347  -0.75598
 Alpha  occ. eigenvalues --   -0.74895  -0.61511  -0.59310  -0.56936  -0.51155
 Alpha  occ. eigenvalues --   -0.50877  -0.45642  -0.39923  -0.39849  -0.33657
 Alpha  occ. eigenvalues --   -0.32546
 Alpha virt. eigenvalues --   -0.02928  -0.00122   0.00836   0.02430   0.03483
 Alpha virt. eigenvalues --    0.05358   0.07191   0.08817   0.10401   0.11185
 Alpha virt. eigenvalues --    0.12756   0.13189   0.13225   0.14157   0.16498
 Alpha virt. eigenvalues --    0.16539   0.17222   0.17385   0.18331   0.18790
 Alpha virt. eigenvalues --    0.19093   0.20322   0.20991   0.21399   0.23491
 Alpha virt. eigenvalues --    0.24906   0.25156   0.25437   0.25897   0.26776
 Alpha virt. eigenvalues --    0.26827   0.27279   0.27766   0.30378   0.30901
 Alpha virt. eigenvalues --    0.31081   0.32153   0.33407   0.33627   0.33838
 Alpha virt. eigenvalues --    0.36024   0.36437   0.36596   0.36863   0.37758
 Alpha virt. eigenvalues --    0.39519   0.39571   0.39744   0.40208   0.40506
 Alpha virt. eigenvalues --    0.42848   0.43014   0.44010   0.44191   0.45256
 Alpha virt. eigenvalues --    0.45615   0.47278   0.47633   0.47923   0.48407
 Alpha virt. eigenvalues --    0.48939   0.49516   0.49670   0.50782   0.53335
 Alpha virt. eigenvalues --    0.53429   0.54419   0.55797   0.56605   0.56738
 Alpha virt. eigenvalues --    0.57252   0.59915   0.60174   0.61440   0.61884
 Alpha virt. eigenvalues --    0.63080   0.63237   0.64097   0.64296   0.66254
 Alpha virt. eigenvalues --    0.68108   0.68887   0.72556   0.75228   0.75665
 Alpha virt. eigenvalues --    0.75683   0.76234   0.77865   0.77920   0.78776
 Alpha virt. eigenvalues --    0.79166   0.81616   0.82415   0.88775   0.90833
 Alpha virt. eigenvalues --    0.91941   0.92001   0.92435   0.94677   0.95746
 Alpha virt. eigenvalues --    0.96409   0.96925   0.97917   0.98810   1.00241
 Alpha virt. eigenvalues --    1.01105   1.02286   1.06379   1.07781   1.10570
 Alpha virt. eigenvalues --    1.11304   1.12920   1.13864   1.14490   1.15342
 Alpha virt. eigenvalues --    1.18598   1.19339   1.20321   1.22180   1.22319
 Alpha virt. eigenvalues --    1.24100   1.29291   1.31765   1.32240   1.32647
 Alpha virt. eigenvalues --    1.35301   1.36114   1.37212   1.37788   1.38466
 Alpha virt. eigenvalues --    1.41241   1.41279   1.42133   1.45053   1.46931
 Alpha virt. eigenvalues --    1.52631   1.53155   1.60463   1.61955   1.64034
 Alpha virt. eigenvalues --    1.67197   1.70930   1.71891   1.72388   1.73748
 Alpha virt. eigenvalues --    1.76887   1.77858   1.83426   1.83873   1.84354
 Alpha virt. eigenvalues --    1.89120   1.89833   1.91234   1.91999   1.93520
 Alpha virt. eigenvalues --    1.96981   1.99753   2.01548   2.01707   2.02476
 Alpha virt. eigenvalues --    2.03028   2.04539   2.06477   2.08300   2.10063
 Alpha virt. eigenvalues --    2.10815   2.11348   2.12359   2.13340   2.15516
 Alpha virt. eigenvalues --    2.16182   2.17426   2.18359   2.18776   2.19571
 Alpha virt. eigenvalues --    2.23386   2.29511   2.30549   2.31827   2.33253
 Alpha virt. eigenvalues --    2.34863   2.36887   2.37089   2.39053   2.41580
 Alpha virt. eigenvalues --    2.45602   2.46872   2.47306   2.53257   2.55707
 Alpha virt. eigenvalues --    2.56474   2.56757   2.62228   2.63075   2.63932
 Alpha virt. eigenvalues --    2.64443   2.67719   2.69372   2.70111   2.70711
 Alpha virt. eigenvalues --    2.70948   2.75088   2.75844   2.76206   2.77445
 Alpha virt. eigenvalues --    2.79369   2.79952   2.84465   2.86129   2.87115
 Alpha virt. eigenvalues --    2.89504   2.92519   2.94442   2.96267   3.01862
 Alpha virt. eigenvalues --    3.02650   3.04431   3.10774   3.12599   3.13810
 Alpha virt. eigenvalues --    3.15317   3.16435   3.18346   3.18376   3.20696
 Alpha virt. eigenvalues --    3.24605   3.26408   3.28285   3.28492   3.30175
 Alpha virt. eigenvalues --    3.33802   3.35894   3.43354   3.46309   3.49030
 Alpha virt. eigenvalues --    3.52983   3.55393   3.55930   3.57284   3.57648
 Alpha virt. eigenvalues --    3.59493   3.60211   3.65323   3.71092   3.76044
 Alpha virt. eigenvalues --    3.79513   3.84058   3.86872   3.92549   3.93068
 Alpha virt. eigenvalues --    3.93413   3.94076   3.94953   3.98043   4.00213
 Alpha virt. eigenvalues --    4.01372   4.09236   4.09398   4.09965   4.11583
 Alpha virt. eigenvalues --    4.22579   4.27109   4.33231   4.33566   4.34547
 Alpha virt. eigenvalues --    4.50907   4.56969   4.61022   4.63292   4.77877
 Alpha virt. eigenvalues --    4.79500   4.79569   4.84534   4.85204   4.86705
 Alpha virt. eigenvalues --    4.91270   4.95597   5.00287   5.03600   5.04496
 Alpha virt. eigenvalues --    5.07834   5.11052   5.15663   5.18177   5.19149
 Alpha virt. eigenvalues --    5.24428   5.36337   5.37736   5.40025   5.41412
 Alpha virt. eigenvalues --    5.44755   5.46956   5.49332   5.50949   5.51745
 Alpha virt. eigenvalues --    5.53171   5.54676   5.55811   5.58086   5.63972
 Alpha virt. eigenvalues --    5.64186   5.66361   5.70606   5.72946   5.75590
 Alpha virt. eigenvalues --    5.80595   5.81372   5.85840   5.87008   5.91411
 Alpha virt. eigenvalues --    5.91825   5.96599   5.97377   5.98982   5.99223
 Alpha virt. eigenvalues --    6.00284   6.05008   6.05565   6.06661   6.08686
 Alpha virt. eigenvalues --    6.08905   6.10532   6.11132   6.12261   6.14138
 Alpha virt. eigenvalues --    6.17842   6.19014   6.23242   6.24095   6.25061
 Alpha virt. eigenvalues --    6.26157   6.28544   6.29135   6.32135   6.32477
 Alpha virt. eigenvalues --    6.33012   6.34025   6.36116   6.43289   6.50118
 Alpha virt. eigenvalues --    6.50806   6.53125   6.54603   6.56321   6.59316
 Alpha virt. eigenvalues --    6.60203   6.61608   6.62978   6.65036   6.65915
 Alpha virt. eigenvalues --    6.73938   6.75777   6.76427   6.82237   6.97325
 Alpha virt. eigenvalues --    6.97793   6.98816   7.05916   7.06851   7.19915
 Alpha virt. eigenvalues --    7.19953   7.25589   7.27030   7.31554   7.34310
 Alpha virt. eigenvalues --    7.34680   7.35205   7.37159   7.37344   7.39592
 Alpha virt. eigenvalues --    7.41539   7.42174   7.46311   7.55222   7.56493
 Alpha virt. eigenvalues --    7.57897   7.59548   7.62690   7.64833   7.66314
 Alpha virt. eigenvalues --    7.66886   7.67014   7.70342   7.76873   7.77191
 Alpha virt. eigenvalues --    7.82462   7.82745   7.85661   7.86351   7.87238
 Alpha virt. eigenvalues --    7.91309   7.94601   7.95521   7.96791   7.98878
 Alpha virt. eigenvalues --    8.01344   8.06311   8.13930   8.15995   8.16710
 Alpha virt. eigenvalues --    8.17097   8.19294   8.19407   8.20376   8.20408
 Alpha virt. eigenvalues --    8.21462   8.24485   8.27795   8.30689   8.31262
 Alpha virt. eigenvalues --    8.33683   8.37564   8.39078   8.41625   8.45429
 Alpha virt. eigenvalues --    8.47739   8.48763   8.56877   8.57342   8.64659
 Alpha virt. eigenvalues --    8.75803   8.78620   8.81886   8.85044   8.88144
 Alpha virt. eigenvalues --    8.95111   9.00497   9.03284   9.04362   9.06907
 Alpha virt. eigenvalues --    9.15622   9.18116   9.18332   9.20935   9.25903
 Alpha virt. eigenvalues --    9.31273   9.44336   9.46584   9.50491   9.51165
 Alpha virt. eigenvalues --    9.53486   9.55791   9.64854   9.69208   9.74437
 Alpha virt. eigenvalues --    9.79290   9.82615   9.85939   9.87166   9.95939
 Alpha virt. eigenvalues --    9.99591  10.06915  10.08072  10.08118  10.09759
 Alpha virt. eigenvalues --   10.13066  10.15187  10.32194  10.34055  10.55083
 Alpha virt. eigenvalues --   10.57070  10.89735  10.93517  11.23548  11.35913
 Alpha virt. eigenvalues --   11.53693  11.63933  11.72528  11.94805  12.02807
 Alpha virt. eigenvalues --   12.22938  12.59203  12.76256  12.81755  28.26337
 Alpha virt. eigenvalues --   28.54589  28.92422  29.05124  37.54844  37.85944
 Alpha virt. eigenvalues --  145.73166 146.00445 146.37471 146.50599 195.08130
 Alpha virt. eigenvalues --  195.43480
          Condensed to atoms (all electrons):
               1          2          3          4          5          6
     1  C    5.552936   0.302267  -0.077574  -0.081797  -0.129694   0.260662
     2  C    0.302267   5.553430   0.261333  -0.129608  -0.081797  -0.077114
     3  N   -0.077574   0.261333   7.151633   0.261333  -0.077574  -0.003143
     4  C   -0.081797  -0.129608   0.261333   5.553430   0.302267  -0.077114
     5  C   -0.129694  -0.081797  -0.077574   0.302267   5.552936   0.260662
     6  N    0.260662  -0.077114  -0.003143  -0.077114   0.260662   7.152784
     7  H    0.405752  -0.055412  -0.002571  -0.008421  -0.005175  -0.117381
     8  H   -0.055220   0.405092  -0.117097  -0.005147  -0.008381  -0.002624
     9  H   -0.008381  -0.005147  -0.117097   0.405092  -0.055220  -0.002624
    10  H   -0.005175  -0.008421  -0.002571  -0.055412   0.405752  -0.117381
               7          8          9         10
     1  C    0.405752  -0.055220  -0.008381  -0.005175
     2  C   -0.055412   0.405092  -0.005147  -0.008421
     3  N   -0.002571  -0.117097  -0.117097  -0.002571
     4  C   -0.008421  -0.005147   0.405092  -0.055412
     5  C   -0.005175  -0.008381  -0.055220   0.405752
     6  N   -0.117381  -0.002624  -0.002624  -0.117381
     7  H    0.456504   0.023923   0.000411   0.000125
     8  H    0.023923   0.456059   0.000131   0.000411
     9  H    0.000411   0.000131   0.456059   0.023923
    10  H    0.000125   0.000411   0.023923   0.456504
 Mulliken charges:
               1
     1  C   -0.163775
     2  C   -0.164624
     3  N   -0.276672
     4  C   -0.164624
     5  C   -0.163775
     6  N   -0.276725
     7  H    0.302244
     8  H    0.302853
     9  H    0.302853
    10  H    0.302244
 Sum of Mulliken charges =  -0.00000
 Mulliken charges with hydrogens summed into heavy atoms:
               1
     1  C    0.138469
     2  C    0.138230
     3  N   -0.276672
     4  C    0.138230
     5  C    0.138469
     6  N   -0.276725
 Electronic spatial extent (au):  <R**2>=            411.7011
 Charge=             -0.0000 electrons
 Dipole moment (field-independent basis, Debye):
    X=             -0.0164    Y=             -0.0009    Z=             -0.0000  Tot=              0.0164
 Quadrupole moment (field-independent basis, Debye-Ang):
   XX=            -36.2650   YY=            -41.3514   ZZ=            -26.7352
   XY=              0.0208   XZ=              0.0000   YZ=             -0.0000
 Traceless Quadrupole moment (field-independent basis, Debye-Ang):
   XX=             -1.4811   YY=             -6.5675   ZZ=              8.0487
   XY=              0.0208   XZ=              0.0000   YZ=             -0.0000
 Octapole moment (field-independent basis, Debye-Ang**2):
  XXX=             -0.0076  YYY=              0.0035  ZZZ=             -0.0000  XYY=             -0.0486
  XXY=              0.0006  XXZ=              0.0000  XZZ=             -0.0848  YZZ=             -0.0164
  YYZ=              0.0000  XYZ=             -0.0000
 Hexadecapole moment (field-independent basis, Debye-Ang**3):
 XXXX=            -38.6905 YYYY=           -305.3633 ZZZZ=           -231.2223 XXXY=              0.0204
 XXXZ=             -0.0000 YYYX=              0.0687 YYYZ=              0.0000 ZZZX=             -0.0000
 ZZZY=              0.0000 XXYY=            -52.2819 XXZZ=            -54.3166 YYZZ=            -70.3476
 XXYZ=              0.0000 YYXZ=             -0.0000 ZZXY=              0.0998
 N-N= 2.086262876293D+02 E-N=-1.032016194579D+03  KE= 2.631458823227D+02
 PrsmSu:  requested number of processors reduced to:  20 ShMem   1 Linda.
 No NMR shielding tensors so no spin-rotation constants.
 Leave Link  601 at Sun Apr 18 03:22:06 2021, MaxMem=   104857600 cpu:             354.3 elap:               7.7
 (Enter /s/ls4/users/knvvv/bin/g16sse/l801.exe)
 DoSCS=F DFT=T ScalE2(SS,OS)=  1.000000  1.000000
 Range of M.O.s used for correlation:     1   507
 NBasis=   510 NAE=    21 NBE=    21 NFC=     0 NFV=     0
 NROrb=    507 NOA=    21 NOB=    21 NVA=   486 NVB=   486

 **** Warning!!: The largest alpha MO coefficient is  0.14770052D+03

 Leave Link  801 at Sun Apr 18 03:22:06 2021, MaxMem=   104857600 cpu:               5.2 elap:               0.1
 (Enter /s/ls4/users/knvvv/bin/g16sse/l914.exe)
 RHF ground state
 Doing stability rather than CIS.
 Two-electron integrals replicated using symmetry.
 MDV=   104857600 DFT=T DoStab=T Mixed=T DoRPA=F DoScal=F NonHer=F
 Making orbital integer symmetry assigments:
 Orbital symmetries:
       Occupied  (A') (A') (A") (A') (A') (A") (A') (A') (A") (A')
                 (A") (A') (A") (A') (A") (A') (A") (A') (A') (A")
                 (A')
       Virtual   (A') (A") (A') (A") (A') (A") (A') (A') (A') (A')
                 (A') (A") (A") (A") (A') (A') (A') (A') (A') (A")
                 (A") (A') (A") (A") (A") (A") (A') (A') (A') (A")
                 (A') (A") (A') (A') (A") (A") (A') (A') (A") (A')
                 (A') (A") (A') (A") (A") (A') (A') (A') (A") (A")
                 (A') (A") (A') (A') (A") (A') (A') (A") (A') (A')
                 (A') (A") (A") (A') (A") (A") (A") (A') (A') (A')
                 (A") (A") (A") (A') (A') (A") (A') (A") (A') (A")
                 (A") (A') (A') (A') (A') (A") (A") (A") (A') (A')
                 (A") (A') (A') (A") (A') (A') (A') (A") (A') (A")
                 (A') (A') (A') (A") (A") (A') (A") (A") (A") (A')
                 (A") (A') (A') (A") (A") (A') (A") (A') (A') (A')
                 (A") (A") (A") (A') (A") (A") (A') (A') (A") (A')
                 (A') (A') (A') (A") (A") (A') (A") (A") (A") (A')
                 (A') (A') (A') (A') (A") (A') (A') (A") (A") (A')
                 (A') (A') (A') (A") (A") (A') (A") (A") (A') (A")
                 (A') (A") (A') (A") (A') (A") (A") (A') (A') (A')
                 (A") (A') (A") (A") (A') (A") (A") (A") (A') (A')
                 (A") (A") (A') (A') (A') (A") (A") (A') (A") (A')
                 (A') (A') (A") (A') (A") (A') (A") (A") (A") (A')
                 (A') (A") (A') (A") (A') (A") (A') (A") (A') (A')
                 (A") (A") (A') (A") (A') (A') (A") (A") (A') (A")
                 (A") (A") (A') (A') (A') (A") (A') (A') (A') (A")
                 (A') (A') (A') (A') (A") (A') (A') (A") (A") (A')
                 (A') (A") (A") (A") (A') (A') (A') (A") (A") (A")
                 (A') (A") (A") (A') (A') (A") (A') (A") (A') (A")
                 (A') (A') (A') (A") (A") (A') (A') (A") (A") (A')
                 (A") (A") (A') (A') (A") (A') (A") (A') (A") (A")
                 (A') (A') (A") (A') (A") (A') (A') (A") (A') (A")
                 (A') (A") (A') (A") (A") (A') (A") (A') (A') (A")
                 (A') (A") (A") (A') (A') (A") (A') (A') (A") (A")
                 (A") (A") (A') (A') (A") (A') (A") (A") (A') (A')
                 (A') (A") (A') (A") (A') (A') (A") (A') (A") (A')
                 (A") (A") (A") (A') (A') (A") (A') (A") (A') (A")
                 (A') (A') (A") (A') (A") (A') (A") (A') (A") (A")
                 (A') (A') (A") (A") (A') (A') (A") (A') (A') (A')
                 (A") (A") (A") (A') (A") (A') (A') (A') (A") (A')
                 (A") (A") (A') (A") (A") (A') (A') (A") (A') (A")
                 (A') (A") (A') (A') (A") (A") (A') (A") (A') (A")
                 (A') (A") (A') (A") (A') (A') (A') (A') (A') (A")
                 (A") (A") (A") (A") (A') (A') (A') (A") (A') (A')
                 (A") (A') (A") (A") (A") (A') (A') (A") (A") (A')
                 (A") (A') (A') (A') (A") (A") (A') (A") (A') (A')
                 (A') (A') (A') (A") (A") (A") (A") (A') (A') (A")
                 (A") (A') (A") (A') (A") (A') (A") (A') (A') (A")
                 (A") (A') (A") (A') (A') (A") (A') (A") (A") (A")
                 (A') (A') (A') (A") (A') (A') (A") (A') (A") (A')
                 (A') (A") (A') (A") (A') (A") (A') (A") (A') (A')
                 (A') (A") (A') (A") (A') (A')
    24 initial guesses have been made.
 Convergence on wavefunction:    0.001000000000000
 Davidson Disk Diagonalization:  ConvIn= 1.00D-03 SkipCon=T Conv= 1.00D-03.
 Max sub-space:  2000 roots to seek:    24 dimension of matrix:        20412
 Iteration     1 Dimension    24 NMult     0 NNew     24
 Estimated number of processors is:   15
 CISAX will form     1 AO SS matrices at one time.
 NMat=     1 NSing=     1 JSym2X= 2.
 FoFJK:  IHMeth= 1 ICntrl=       0 DoSepK=F KAlg= 0 I1Cent=           0 FoldK=F
 IRaf= 970000000 NMat=       1 IRICut=       1 DoRegI=T DoRafI=F ISym2E= 2 IDoP0=0 IntGTp=1.
 FoFCou: FMM=F IPFlag=           0 FMFlag=      100000 FMFlg1=           0
         NFxFlg=           0 DoJE=F BraDBF=F KetDBF=F FulRan=T
         wScrn=  0.000000 ICntrl=         0 IOpCl=  0 I1Cent=           0 NGrid=           0
         NMat0=    1 NMatS0=      1 NMatT0=    0 NMatD0=    1 NMtDS0=    0 NMtDT0=    0
 Integrals replicated using symmetry in FoFCou.
 CoulSu:  requested number of processors reduced to:  18 ShMem   1 Linda.
 CalDSu:  requested number of processors reduced to:  45 ShMem   1 Linda.
 NMat=     1 NSing=     1 JSym2X= 2.
 CoulSu:  requested number of processors reduced to:  18 ShMem   1 Linda.
 CalDSu:  requested number of processors reduced to:  45 ShMem   1 Linda.
 NMat=     1 NSing=     1 JSym2X= 2.
 CoulSu:  requested number of processors reduced to:  18 ShMem   1 Linda.
 CalDSu:  requested number of processors reduced to:  45 ShMem   1 Linda.
 NMat=     1 NSing=     1 JSym2X= 2.
 CoulSu:  requested number of processors reduced to:  18 ShMem   1 Linda.
 CalDSu:  requested number of processors reduced to:  45 ShMem   1 Linda.
 NMat=     1 NSing=     1 JSym2X= 2.
 CoulSu:  requested number of processors reduced to:  18 ShMem   1 Linda.
 CalDSu:  requested number of processors reduced to:  45 ShMem   1 Linda.
 NMat=     1 NSing=     1 JSym2X= 2.
 CoulSu:  requested number of processors reduced to:  18 ShMem   1 Linda.
 CalDSu:  requested number of processors reduced to:  45 ShMem   1 Linda.
 NMat=     1 NSing=     1 JSym2X= 2.
 CoulSu:  requested number of processors reduced to:  18 ShMem   1 Linda.
 CalDSu:  requested number of processors reduced to:  45 ShMem   1 Linda.
 NMat=     1 NSing=     1 JSym2X= 2.
 CoulSu:  requested number of processors reduced to:  18 ShMem   1 Linda.
 CalDSu:  requested number of processors reduced to:  45 ShMem   1 Linda.
 NMat=     1 NSing=     1 JSym2X= 2.
 CoulSu:  requested number of processors reduced to:  18 ShMem   1 Linda.
 CalDSu:  requested number of processors reduced to:  45 ShMem   1 Linda.
 NMat=     1 NSing=     1 JSym2X= 2.
 CoulSu:  requested number of processors reduced to:  18 ShMem   1 Linda.
 CalDSu:  requested number of processors reduced to:  45 ShMem   1 Linda.
 NMat=     1 NSing=     1 JSym2X= 2.
 CoulSu:  requested number of processors reduced to:  18 ShMem   1 Linda.
 CalDSu:  requested number of processors reduced to:  45 ShMem   1 Linda.
 NMat=     1 NSing=     1 JSym2X= 2.
 CoulSu:  requested number of processors reduced to:  18 ShMem   1 Linda.
 CalDSu:  requested number of processors reduced to:  45 ShMem   1 Linda.
 NMat=     1 NSing=     0 JSym2X= 2.
 CoulSu:  requested number of processors reduced to:  18 ShMem   1 Linda.
 CalDSu:  requested number of processors reduced to:  45 ShMem   1 Linda.
 NMat=     1 NSing=     0 JSym2X= 2.
 CoulSu:  requested number of processors reduced to:  18 ShMem   1 Linda.
 CalDSu:  requested number of processors reduced to:  45 ShMem   1 Linda.
 NMat=     1 NSing=     0 JSym2X= 2.
 CoulSu:  requested number of processors reduced to:  18 ShMem   1 Linda.
 CalDSu:  requested number of processors reduced to:  45 ShMem   1 Linda.
 NMat=     1 NSing=     0 JSym2X= 2.
 CoulSu:  requested number of processors reduced to:  18 ShMem   1 Linda.
 CalDSu:  requested number of processors reduced to:  45 ShMem   1 Linda.
 NMat=     1 NSing=     0 JSym2X= 2.
 CoulSu:  requested number of processors reduced to:  18 ShMem   1 Linda.
 CalDSu:  requested number of processors reduced to:  45 ShMem   1 Linda.
 NMat=     1 NSing=     0 JSym2X= 2.
 CoulSu:  requested number of processors reduced to:  18 ShMem   1 Linda.
 CalDSu:  requested number of processors reduced to:  45 ShMem   1 Linda.
 NMat=     1 NSing=     0 JSym2X= 2.
 CoulSu:  requested number of processors reduced to:  18 ShMem   1 Linda.
 CalDSu:  requested number of processors reduced to:  45 ShMem   1 Linda.
 NMat=     1 NSing=     0 JSym2X= 2.
 CoulSu:  requested number of processors reduced to:  18 ShMem   1 Linda.
 CalDSu:  requested number of processors reduced to:  45 ShMem   1 Linda.
 NMat=     1 NSing=     0 JSym2X= 2.
 CoulSu:  requested number of processors reduced to:  18 ShMem   1 Linda.
 CalDSu:  requested number of processors reduced to:  45 ShMem   1 Linda.
 NMat=     1 NSing=     0 JSym2X= 2.
 CoulSu:  requested number of processors reduced to:  18 ShMem   1 Linda.
 CalDSu:  requested number of processors reduced to:  45 ShMem   1 Linda.
 NMat=     1 NSing=     0 JSym2X= 2.
 CoulSu:  requested number of processors reduced to:  18 ShMem   1 Linda.
 CalDSu:  requested number of processors reduced to:  45 ShMem   1 Linda.
 NMat=     1 NSing=     0 JSym2X= 2.
 CoulSu:  requested number of processors reduced to:  18 ShMem   1 Linda.
 CalDSu:  requested number of processors reduced to:  45 ShMem   1 Linda.
 New state      1 was old state      2
 Excitation Energies [eV] at current iteration:
 Root      1 :     3.815466243621377
 Root      2 :     3.847161336386930
 Root      3 :     3.987873325389138
 Root      4 :     4.810641162909641
 Root      5 :     5.175575981439343
 Root      6 :     5.189554543369133
 Root      7 :     5.313647535306028
 Root      8 :     5.562789044496252
 Root      9 :     6.870461031075824
 Root     10 :     7.063369716298733
 Root     11 :     7.111625569574278
 Root     12 :     7.403195998786904
 Root     13 :     7.448920495043081
 Root     14 :     7.635174988333156
 Root     15 :     7.688283117002366
 Root     16 :     7.920525086239139
 Root     17 :     7.927711439562905
 Root     18 :     7.953647134764368
 Root     19 :     7.960814957037631
 Root     20 :     8.275666319798512
 Root     21 :     8.290875363715292
 Root     22 :     9.178364385410497
 Root     23 :     9.391908882923014
 Root     24 :    15.173929296759170
 Iteration     2 Dimension    48 NMult    24 NNew     24
 Estimated number of processors is:   15
 CISAX will form     1 AO SS matrices at one time.
 NMat=     1 NSing=     1 JSym2X= 2.
 CoulSu:  requested number of processors reduced to:  18 ShMem   1 Linda.
 CalDSu:  requested number of processors reduced to:  45 ShMem   1 Linda.
 NMat=     1 NSing=     1 JSym2X= 2.
 CoulSu:  requested number of processors reduced to:  18 ShMem   1 Linda.
 CalDSu:  requested number of processors reduced to:  45 ShMem   1 Linda.
 NMat=     1 NSing=     1 JSym2X= 2.
 CoulSu:  requested number of processors reduced to:  18 ShMem   1 Linda.
 CalDSu:  requested number of processors reduced to:  45 ShMem   1 Linda.
 NMat=     1 NSing=     1 JSym2X= 2.
 CoulSu:  requested number of processors reduced to:  18 ShMem   1 Linda.
 CalDSu:  requested number of processors reduced to:  45 ShMem   1 Linda.
 NMat=     1 NSing=     1 JSym2X= 2.
 CoulSu:  requested number of processors reduced to:  18 ShMem   1 Linda.
 CalDSu:  requested number of processors reduced to:  45 ShMem   1 Linda.
 NMat=     1 NSing=     1 JSym2X= 2.
 CoulSu:  requested number of processors reduced to:  18 ShMem   1 Linda.
 CalDSu:  requested number of processors reduced to:  45 ShMem   1 Linda.
 NMat=     1 NSing=     1 JSym2X= 2.
 CoulSu:  requested number of processors reduced to:  18 ShMem   1 Linda.
 CalDSu:  requested number of processors reduced to:  45 ShMem   1 Linda.
 NMat=     1 NSing=     1 JSym2X= 2.
 CoulSu:  requested number of processors reduced to:  18 ShMem   1 Linda.
 CalDSu:  requested number of processors reduced to:  45 ShMem   1 Linda.
 NMat=     1 NSing=     1 JSym2X= 2.
 CoulSu:  requested number of processors reduced to:  18 ShMem   1 Linda.
 CalDSu:  requested number of processors reduced to:  45 ShMem   1 Linda.
 NMat=     1 NSing=     1 JSym2X= 2.
 CoulSu:  requested number of processors reduced to:  18 ShMem   1 Linda.
 CalDSu:  requested number of processors reduced to:  45 ShMem   1 Linda.
 NMat=     1 NSing=     1 JSym2X= 2.
 CoulSu:  requested number of processors reduced to:  18 ShMem   1 Linda.
 CalDSu:  requested number of processors reduced to:  45 ShMem   1 Linda.
 NMat=     1 NSing=     1 JSym2X= 2.
 CoulSu:  requested number of processors reduced to:  18 ShMem   1 Linda.
 CalDSu:  requested number of processors reduced to:  45 ShMem   1 Linda.
 NMat=     1 NSing=     0 JSym2X= 2.
 CoulSu:  requested number of processors reduced to:  18 ShMem   1 Linda.
 CalDSu:  requested number of processors reduced to:  45 ShMem   1 Linda.
 NMat=     1 NSing=     0 JSym2X= 2.
 CoulSu:  requested number of processors reduced to:  18 ShMem   1 Linda.
 CalDSu:  requested number of processors reduced to:  45 ShMem   1 Linda.
 NMat=     1 NSing=     0 JSym2X= 2.
 CoulSu:  requested number of processors reduced to:  18 ShMem   1 Linda.
 CalDSu:  requested number of processors reduced to:  45 ShMem   1 Linda.
 NMat=     1 NSing=     0 JSym2X= 2.
 CoulSu:  requested number of processors reduced to:  18 ShMem   1 Linda.
 CalDSu:  requested number of processors reduced to:  45 ShMem   1 Linda.
 NMat=     1 NSing=     0 JSym2X= 2.
 CoulSu:  requested number of processors reduced to:  18 ShMem   1 Linda.
 CalDSu:  requested number of processors reduced to:  45 ShMem   1 Linda.
 NMat=     1 NSing=     0 JSym2X= 2.
 CoulSu:  requested number of processors reduced to:  18 ShMem   1 Linda.
 CalDSu:  requested number of processors reduced to:  45 ShMem   1 Linda.
 NMat=     1 NSing=     0 JSym2X= 2.
 CoulSu:  requested number of processors reduced to:  18 ShMem   1 Linda.
 CalDSu:  requested number of processors reduced to:  45 ShMem   1 Linda.
 NMat=     1 NSing=     0 JSym2X= 2.
 CoulSu:  requested number of processors reduced to:  18 ShMem   1 Linda.
 CalDSu:  requested number of processors reduced to:  45 ShMem   1 Linda.
 NMat=     1 NSing=     0 JSym2X= 2.
 CoulSu:  requested number of processors reduced to:  18 ShMem   1 Linda.
 CalDSu:  requested number of processors reduced to:  45 ShMem   1 Linda.
 NMat=     1 NSing=     0 JSym2X= 2.
 CoulSu:  requested number of processors reduced to:  18 ShMem   1 Linda.
 CalDSu:  requested number of processors reduced to:  45 ShMem   1 Linda.
 NMat=     1 NSing=     0 JSym2X= 2.
 CoulSu:  requested number of processors reduced to:  18 ShMem   1 Linda.
 CalDSu:  requested number of processors reduced to:  45 ShMem   1 Linda.
 NMat=     1 NSing=     0 JSym2X= 2.
 CoulSu:  requested number of processors reduced to:  18 ShMem   1 Linda.
 CalDSu:  requested number of processors reduced to:  45 ShMem   1 Linda.
 New state      1 was old state      3
 Root      1 not converged, maximum delta is    0.104524418896639
 Excitation Energies [eV] at current iteration:
 Root      1 :     3.192073276857181   Change is   -0.795800048531957
 Root      2 :     3.345814944091377   Change is   -0.469651299530000
 Root      3 :     3.636620720984894   Change is   -0.210540615402036
 Root      4 :     4.531598288718500   Change is   -0.279042874191141
 Root      5 :     4.798268986035862   Change is   -0.764520058460390
 Root      6 :     4.943536775490947   Change is   -0.246017767878186
 Root      7 :     5.020016484286754   Change is   -0.155559497152590
 Root      8 :     5.194933235225757   Change is   -0.118714300080271
 Root      9 :     5.411529683365575   Change is   -3.766834702044922
 Root     10 :     6.452661850301420   Change is   -0.417799180774404
 Root     11 :     6.902186881783718   Change is   -0.161182834515015
 Root     12 :     7.000007584806387   Change is   -0.111617984767892
 Root     13 :     7.027652212205315   Change is   -2.364256670717698
 Root     14 :     7.288520872370729   Change is   -0.114675126416176
 Root     15 :     7.306406141762536   Change is   -0.142514353280544
 Root     16 :     7.534348811833262   Change is   -0.100826176499894
 Root     17 :     7.609080689716738   Change is   -0.079202427285627
 Root     18 :     7.728188283696815   Change is   -0.192336802542324
 Root     19 :     7.855828456386583   Change is   -0.104986500651048
 Root     20 :     7.868392883539505   Change is   -0.085254251224863
 Root     21 :     7.885373554078837   Change is   -0.042337885484068
 Root     22 :     8.214901556097328   Change is   -0.060764763701184
 Root     23 :     8.230655450095753   Change is   -0.060219913619540
 Root     24 :    10.616490795419100   Change is   -4.557438501340073
 Iteration     3 Dimension    54 NMult    48 NNew      6
 Estimated number of processors is:   15
 CISAX will form     1 AO SS matrices at one time.
 NMat=     1 NSing=     1 JSym2X= 2.
 CoulSu:  requested number of processors reduced to:  18 ShMem   1 Linda.
 CalDSu:  requested number of processors reduced to:  45 ShMem   1 Linda.
 NMat=     1 NSing=     1 JSym2X= 2.
 CoulSu:  requested number of processors reduced to:  18 ShMem   1 Linda.
 CalDSu:  requested number of processors reduced to:  45 ShMem   1 Linda.
 NMat=     1 NSing=     1 JSym2X= 2.
 CoulSu:  requested number of processors reduced to:  18 ShMem   1 Linda.
 CalDSu:  requested number of processors reduced to:  45 ShMem   1 Linda.
 NMat=     1 NSing=     0 JSym2X= 2.
 CoulSu:  requested number of processors reduced to:  18 ShMem   1 Linda.
 CalDSu:  requested number of processors reduced to:  45 ShMem   1 Linda.
 NMat=     1 NSing=     0 JSym2X= 2.
 CoulSu:  requested number of processors reduced to:  18 ShMem   1 Linda.
 CalDSu:  requested number of processors reduced to:  45 ShMem   1 Linda.
 NMat=     1 NSing=     0 JSym2X= 2.
 CoulSu:  requested number of processors reduced to:  18 ShMem   1 Linda.
 CalDSu:  requested number of processors reduced to:  45 ShMem   1 Linda.
 Root      1 not converged, maximum delta is    0.004923515985158
 Excitation Energies [eV] at current iteration:
 Root      1 :     3.163468241494589   Change is   -0.028605035362592
 Root      2 :     3.332788152147475   Change is   -0.013026791943903
 Root      3 :     3.626447225295693   Change is   -0.010173495689201
 Root      4 :     4.499503567236624   Change is   -0.032094721481876
 Root      5 :     5.188758765983968   Change is   -0.006174469241789
 Root      6 :     5.243839837490045   Change is   -0.167689845875531
 Iteration     4 Dimension    60 NMult    54 NNew      6
 Estimated number of processors is:   15
 CISAX will form     1 AO SS matrices at one time.
 NMat=     1 NSing=     1 JSym2X= 2.
 CoulSu:  requested number of processors reduced to:  18 ShMem   1 Linda.
 CalDSu:  requested number of processors reduced to:  45 ShMem   1 Linda.
 NMat=     1 NSing=     1 JSym2X= 2.
 CoulSu:  requested number of processors reduced to:  18 ShMem   1 Linda.
 CalDSu:  requested number of processors reduced to:  45 ShMem   1 Linda.
 NMat=     1 NSing=     1 JSym2X= 2.
 CoulSu:  requested number of processors reduced to:  18 ShMem   1 Linda.
 CalDSu:  requested number of processors reduced to:  45 ShMem   1 Linda.
 NMat=     1 NSing=     0 JSym2X= 2.
 CoulSu:  requested number of processors reduced to:  18 ShMem   1 Linda.
 CalDSu:  requested number of processors reduced to:  45 ShMem   1 Linda.
 NMat=     1 NSing=     0 JSym2X= 2.
 CoulSu:  requested number of processors reduced to:  18 ShMem   1 Linda.
 CalDSu:  requested number of processors reduced to:  45 ShMem   1 Linda.
 NMat=     1 NSing=     0 JSym2X= 2.
 CoulSu:  requested number of processors reduced to:  18 ShMem   1 Linda.
 CalDSu:  requested number of processors reduced to:  45 ShMem   1 Linda.
 Root      1 not converged, maximum delta is    0.002182639711639
 Excitation Energies [eV] at current iteration:
 Root      1 :     3.161564313903811   Change is   -0.001903927590777
 Root      2 :     3.332297140793045   Change is   -0.000491011354430
 Root      3 :     3.625861811573293   Change is   -0.000585413722400
 Root      4 :     4.496457018549517   Change is   -0.003046548687107
 Root      5 :     5.188521307199562   Change is   -0.000237458784406
 Root      6 :     5.225533350685506   Change is   -0.018306486804539
 Iteration     5 Dimension    66 NMult    60 NNew      6
 Estimated number of processors is:   15
 CISAX will form     1 AO SS matrices at one time.
 NMat=     1 NSing=     1 JSym2X= 2.
 CoulSu:  requested number of processors reduced to:  18 ShMem   1 Linda.
 CalDSu:  requested number of processors reduced to:  45 ShMem   1 Linda.
 NMat=     1 NSing=     1 JSym2X= 2.
 CoulSu:  requested number of processors reduced to:  18 ShMem   1 Linda.
 CalDSu:  requested number of processors reduced to:  45 ShMem   1 Linda.
 NMat=     1 NSing=     1 JSym2X= 2.
 CoulSu:  requested number of processors reduced to:  18 ShMem   1 Linda.
 CalDSu:  requested number of processors reduced to:  45 ShMem   1 Linda.
 NMat=     1 NSing=     0 JSym2X= 2.
 CoulSu:  requested number of processors reduced to:  18 ShMem   1 Linda.
 CalDSu:  requested number of processors reduced to:  45 ShMem   1 Linda.
 NMat=     1 NSing=     0 JSym2X= 2.
 CoulSu:  requested number of processors reduced to:  18 ShMem   1 Linda.
 CalDSu:  requested number of processors reduced to:  45 ShMem   1 Linda.
 NMat=     1 NSing=     0 JSym2X= 2.
 CoulSu:  requested number of processors reduced to:  18 ShMem   1 Linda.
 CalDSu:  requested number of processors reduced to:  45 ShMem   1 Linda.
 Root      1 has converged.
 Excitation Energies [eV] at current iteration:
 Root      1 :     3.161519277177615   Change is   -0.000045036726197
 Root      2 :     3.332287736902901   Change is   -0.000009403890143
 Root      3 :     3.625824228051035   Change is   -0.000037583522259
 Root      4 :     4.496330288843200   Change is   -0.000126729706317
 Root      5 :     5.188471574385717   Change is   -0.000049732813844
 Root      6 :     5.224425589800412   Change is   -0.001107760885093
 Convergence achieved on expansion vectors.
 ***********************************************************************
 Stability analysis using <AA,BB:AA,BB> singles matrix:
 ***********************************************************************
 1PDM for each excited state written to RWF  633
 Ground to excited state transition densities written to RWF  633

 Eigenvectors of the stability matrix:
 
 Eigenvector   1:      Triplet-A'   Eigenvalue= 0.1161837  <S**2>=2.000
      16 -> 39         0.10642
      18 -> 22        -0.12901
      19 -> 22         0.42300
      20 -> 23         0.51736
 The wavefunction is stable under the perturbations considered.
 Leave Link  914 at Sun Apr 18 04:01:43 2021, MaxMem=   104857600 cpu:           84098.8 elap:            2377.1
 (Enter /s/ls4/users/knvvv/bin/g16sse/l508.exe)
 The wavefunction is already stable.
 Leave Link  508 at Sun Apr 18 04:01:43 2021, MaxMem=   104857600 cpu:               2.2 elap:               0.1
 (Enter /s/ls4/users/knvvv/bin/g16sse/l601.exe)
 Copying SCF densities to generalized density rwf, IOpCl= 0 IROHF=0.

 **********************************************************************

            Population analysis using the SCF density.

 **********************************************************************

 Orbital symmetries:
       Occupied  (A') (A') (A") (A') (A') (A") (A') (A') (A") (A')
                 (A") (A') (A") (A') (A") (A') (A") (A') (A') (A")
                 (A')
       Virtual   (A') (A") (A') (A") (A') (A") (A') (A') (A') (A')
                 (A') (A") (A") (A") (A') (A') (A') (A') (A') (A")
                 (A") (A') (A") (A") (A") (A") (A') (A') (A') (A")
                 (A') (A") (A') (A') (A") (A") (A') (A') (A") (A')
                 (A') (A") (A') (A") (A") (A') (A') (A') (A") (A")
                 (A') (A") (A') (A') (A") (A') (A') (A") (A') (A')
                 (A') (A") (A") (A') (A") (A") (A") (A') (A') (A')
                 (A") (A") (A") (A') (A') (A") (A') (A") (A') (A")
                 (A") (A') (A') (A') (A') (A") (A") (A") (A') (A')
                 (A") (A') (A') (A") (A') (A') (A') (A") (A') (A")
                 (A') (A') (A') (A") (A") (A') (A") (A") (A") (A')
                 (A") (A') (A') (A") (A") (A') (A") (A') (A') (A')
                 (A") (A") (A") (A') (A") (A") (A') (A') (A") (A')
                 (A') (A') (A') (A") (A") (A') (A") (A") (A") (A')
                 (A') (A') (A') (A') (A") (A') (A') (A") (A") (A')
                 (A') (A') (A') (A") (A") (A') (A") (A") (A') (A")
                 (A') (A") (A') (A") (A') (A") (A") (A') (A') (A')
                 (A") (A') (A") (A") (A') (A") (A") (A") (A') (A')
                 (A") (A") (A') (A') (A') (A") (A") (A') (A") (A')
                 (A') (A') (A") (A') (A") (A') (A") (A") (A") (A')
                 (A') (A") (A') (A") (A') (A") (A') (A") (A') (A')
                 (A") (A") (A') (A") (A') (A') (A") (A") (A') (A")
                 (A") (A") (A') (A') (A') (A") (A') (A') (A') (A")
                 (A') (A') (A') (A') (A") (A') (A') (A") (A") (A')
                 (A') (A") (A") (A") (A') (A') (A') (A") (A") (A")
                 (A') (A") (A") (A') (A') (A") (A') (A") (A') (A")
                 (A') (A') (A') (A") (A") (A') (A') (A") (A") (A')
                 (A") (A") (A') (A') (A") (A') (A") (A') (A") (A")
                 (A') (A') (A") (A') (A") (A') (A') (A") (A') (A")
                 (A') (A") (A') (A") (A") (A') (A") (A') (A') (A")
                 (A') (A") (A") (A') (A') (A") (A') (A') (A") (A")
                 (A") (A") (A') (A') (A") (A') (A") (A") (A') (A')
                 (A') (A") (A') (A") (A') (A') (A") (A') (A") (A')
                 (A") (A") (A") (A') (A') (A") (A') (A") (A') (A")
                 (A') (A') (A") (A') (A") (A') (A") (A') (A") (A")
                 (A') (A') (A") (A") (A') (A') (A") (A') (A') (A')
                 (A") (A") (A") (A') (A") (A') (A') (A') (A") (A')
                 (A") (A") (A') (A") (A") (A') (A') (A") (A') (A")
                 (A') (A") (A') (A') (A") (A") (A') (A") (A') (A")
                 (A') (A") (A') (A") (A') (A') (A') (A') (A') (A")
                 (A") (A") (A") (A") (A') (A') (A') (A") (A') (A')
                 (A") (A') (A") (A") (A") (A') (A') (A") (A") (A')
                 (A") (A') (A') (A') (A") (A") (A') (A") (A') (A')
                 (A') (A') (A') (A") (A") (A") (A") (A') (A') (A")
                 (A") (A') (A") (A') (A") (A') (A") (A') (A') (A")
                 (A") (A') (A") (A') (A') (A") (A') (A") (A") (A")
                 (A') (A') (A') (A") (A') (A') (A") (A') (A") (A')
                 (A') (A") (A') (A") (A') (A") (A') (A") (A') (A')
                 (A') (A") (A') (A") (A') (A')
 The electronic state is 1-A'.
 Alpha  occ. eigenvalues --  -14.77887 -14.77886 -10.59664 -10.59662 -10.59583
 Alpha  occ. eigenvalues --  -10.59582  -1.10043  -1.02259  -0.88347  -0.75598
 Alpha  occ. eigenvalues --   -0.74895  -0.61511  -0.59310  -0.56936  -0.51155
 Alpha  occ. eigenvalues --   -0.50877  -0.45642  -0.39923  -0.39849  -0.33657
 Alpha  occ. eigenvalues --   -0.32546
 Alpha virt. eigenvalues --   -0.02928  -0.00122   0.00836   0.02430   0.03483
 Alpha virt. eigenvalues --    0.05358   0.07191   0.08817   0.10401   0.11185
 Alpha virt. eigenvalues --    0.12756   0.13189   0.13225   0.14157   0.16498
 Alpha virt. eigenvalues --    0.16539   0.17222   0.17385   0.18331   0.18790
 Alpha virt. eigenvalues --    0.19093   0.20322   0.20991   0.21399   0.23491
 Alpha virt. eigenvalues --    0.24906   0.25156   0.25437   0.25897   0.26776
 Alpha virt. eigenvalues --    0.26827   0.27279   0.27766   0.30378   0.30901
 Alpha virt. eigenvalues --    0.31081   0.32153   0.33407   0.33627   0.33838
 Alpha virt. eigenvalues --    0.36024   0.36437   0.36596   0.36863   0.37758
 Alpha virt. eigenvalues --    0.39519   0.39571   0.39744   0.40208   0.40506
 Alpha virt. eigenvalues --    0.42848   0.43014   0.44010   0.44191   0.45256
 Alpha virt. eigenvalues --    0.45615   0.47278   0.47633   0.47923   0.48407
 Alpha virt. eigenvalues --    0.48939   0.49516   0.49670   0.50782   0.53335
 Alpha virt. eigenvalues --    0.53429   0.54419   0.55797   0.56605   0.56738
 Alpha virt. eigenvalues --    0.57252   0.59915   0.60174   0.61440   0.61884
 Alpha virt. eigenvalues --    0.63080   0.63237   0.64097   0.64296   0.66254
 Alpha virt. eigenvalues --    0.68108   0.68887   0.72556   0.75228   0.75665
 Alpha virt. eigenvalues --    0.75683   0.76234   0.77865   0.77920   0.78776
 Alpha virt. eigenvalues --    0.79166   0.81616   0.82415   0.88775   0.90833
 Alpha virt. eigenvalues --    0.91941   0.92001   0.92435   0.94677   0.95746
 Alpha virt. eigenvalues --    0.96409   0.96925   0.97917   0.98810   1.00241
 Alpha virt. eigenvalues --    1.01105   1.02286   1.06379   1.07781   1.10570
 Alpha virt. eigenvalues --    1.11304   1.12920   1.13864   1.14490   1.15342
 Alpha virt. eigenvalues --    1.18598   1.19339   1.20321   1.22180   1.22319
 Alpha virt. eigenvalues --    1.24100   1.29291   1.31765   1.32240   1.32647
 Alpha virt. eigenvalues --    1.35301   1.36114   1.37212   1.37788   1.38466
 Alpha virt. eigenvalues --    1.41241   1.41279   1.42133   1.45053   1.46931
 Alpha virt. eigenvalues --    1.52631   1.53155   1.60463   1.61955   1.64034
 Alpha virt. eigenvalues --    1.67197   1.70930   1.71891   1.72388   1.73748
 Alpha virt. eigenvalues --    1.76887   1.77858   1.83426   1.83873   1.84354
 Alpha virt. eigenvalues --    1.89120   1.89833   1.91234   1.91999   1.93520
 Alpha virt. eigenvalues --    1.96981   1.99753   2.01548   2.01707   2.02476
 Alpha virt. eigenvalues --    2.03028   2.04539   2.06477   2.08300   2.10063
 Alpha virt. eigenvalues --    2.10815   2.11348   2.12359   2.13340   2.15516
 Alpha virt. eigenvalues --    2.16182   2.17426   2.18359   2.18776   2.19571
 Alpha virt. eigenvalues --    2.23386   2.29511   2.30549   2.31827   2.33253
 Alpha virt. eigenvalues --    2.34863   2.36887   2.37089   2.39053   2.41580
 Alpha virt. eigenvalues --    2.45602   2.46872   2.47306   2.53257   2.55707
 Alpha virt. eigenvalues --    2.56474   2.56757   2.62228   2.63075   2.63932
 Alpha virt. eigenvalues --    2.64443   2.67719   2.69372   2.70111   2.70711
 Alpha virt. eigenvalues --    2.70948   2.75088   2.75844   2.76206   2.77445
 Alpha virt. eigenvalues --    2.79369   2.79952   2.84465   2.86129   2.87115
 Alpha virt. eigenvalues --    2.89504   2.92519   2.94442   2.96267   3.01862
 Alpha virt. eigenvalues --    3.02650   3.04431   3.10774   3.12599   3.13810
 Alpha virt. eigenvalues --    3.15317   3.16435   3.18346   3.18376   3.20696
 Alpha virt. eigenvalues --    3.24605   3.26408   3.28285   3.28492   3.30175
 Alpha virt. eigenvalues --    3.33802   3.35894   3.43354   3.46309   3.49030
 Alpha virt. eigenvalues --    3.52983   3.55393   3.55930   3.57284   3.57648
 Alpha virt. eigenvalues --    3.59493   3.60211   3.65323   3.71092   3.76044
 Alpha virt. eigenvalues --    3.79513   3.84058   3.86872   3.92549   3.93068
 Alpha virt. eigenvalues --    3.93413   3.94076   3.94953   3.98043   4.00213
 Alpha virt. eigenvalues --    4.01372   4.09236   4.09398   4.09965   4.11583
 Alpha virt. eigenvalues --    4.22579   4.27109   4.33231   4.33566   4.34547
 Alpha virt. eigenvalues --    4.50907   4.56969   4.61022   4.63292   4.77877
 Alpha virt. eigenvalues --    4.79500   4.79569   4.84534   4.85204   4.86705
 Alpha virt. eigenvalues --    4.91270   4.95597   5.00287   5.03600   5.04496
 Alpha virt. eigenvalues --    5.07834   5.11052   5.15663   5.18177   5.19149
 Alpha virt. eigenvalues --    5.24428   5.36337   5.37736   5.40025   5.41412
 Alpha virt. eigenvalues --    5.44755   5.46956   5.49332   5.50949   5.51745
 Alpha virt. eigenvalues --    5.53171   5.54676   5.55811   5.58086   5.63972
 Alpha virt. eigenvalues --    5.64186   5.66361   5.70606   5.72946   5.75590
 Alpha virt. eigenvalues --    5.80595   5.81372   5.85840   5.87008   5.91411
 Alpha virt. eigenvalues --    5.91825   5.96599   5.97377   5.98982   5.99223
 Alpha virt. eigenvalues --    6.00284   6.05008   6.05565   6.06661   6.08686
 Alpha virt. eigenvalues --    6.08905   6.10532   6.11132   6.12261   6.14138
 Alpha virt. eigenvalues --    6.17842   6.19014   6.23242   6.24095   6.25061
 Alpha virt. eigenvalues --    6.26157   6.28544   6.29135   6.32135   6.32477
 Alpha virt. eigenvalues --    6.33012   6.34025   6.36116   6.43289   6.50118
 Alpha virt. eigenvalues --    6.50806   6.53125   6.54603   6.56321   6.59316
 Alpha virt. eigenvalues --    6.60203   6.61608   6.62978   6.65036   6.65915
 Alpha virt. eigenvalues --    6.73938   6.75777   6.76427   6.82237   6.97325
 Alpha virt. eigenvalues --    6.97793   6.98816   7.05916   7.06851   7.19915
 Alpha virt. eigenvalues --    7.19953   7.25589   7.27030   7.31554   7.34310
 Alpha virt. eigenvalues --    7.34680   7.35205   7.37159   7.37344   7.39592
 Alpha virt. eigenvalues --    7.41539   7.42174   7.46311   7.55222   7.56493
 Alpha virt. eigenvalues --    7.57897   7.59548   7.62690   7.64833   7.66314
 Alpha virt. eigenvalues --    7.66886   7.67014   7.70342   7.76873   7.77191
 Alpha virt. eigenvalues --    7.82462   7.82745   7.85661   7.86351   7.87238
 Alpha virt. eigenvalues --    7.91309   7.94601   7.95521   7.96791   7.98878
 Alpha virt. eigenvalues --    8.01344   8.06311   8.13930   8.15995   8.16710
 Alpha virt. eigenvalues --    8.17097   8.19294   8.19407   8.20376   8.20408
 Alpha virt. eigenvalues --    8.21462   8.24485   8.27795   8.30689   8.31262
 Alpha virt. eigenvalues --    8.33683   8.37564   8.39078   8.41625   8.45429
 Alpha virt. eigenvalues --    8.47739   8.48763   8.56877   8.57342   8.64659
 Alpha virt. eigenvalues --    8.75803   8.78620   8.81886   8.85044   8.88144
 Alpha virt. eigenvalues --    8.95111   9.00497   9.03284   9.04362   9.06907
 Alpha virt. eigenvalues --    9.15622   9.18116   9.18332   9.20935   9.25903
 Alpha virt. eigenvalues --    9.31273   9.44336   9.46584   9.50491   9.51165
 Alpha virt. eigenvalues --    9.53486   9.55791   9.64854   9.69208   9.74437
 Alpha virt. eigenvalues --    9.79290   9.82615   9.85939   9.87166   9.95939
 Alpha virt. eigenvalues --    9.99591  10.06915  10.08072  10.08118  10.09759
 Alpha virt. eigenvalues --   10.13066  10.15187  10.32194  10.34055  10.55083
 Alpha virt. eigenvalues --   10.57070  10.89735  10.93517  11.23548  11.35913
 Alpha virt. eigenvalues --   11.53693  11.63933  11.72528  11.94805  12.02807
 Alpha virt. eigenvalues --   12.22938  12.59203  12.76256  12.81755  28.26337
 Alpha virt. eigenvalues --   28.54589  28.92422  29.05124  37.54844  37.85944
 Alpha virt. eigenvalues --  145.73166 146.00445 146.37471 146.50599 195.08130
 Alpha virt. eigenvalues --  195.43480
          Condensed to atoms (all electrons):
               1          2          3          4          5          6
     1  C    5.552936   0.302267  -0.077574  -0.081797  -0.129694   0.260662
     2  C    0.302267   5.553430   0.261333  -0.129608  -0.081797  -0.077114
     3  N   -0.077574   0.261333   7.151633   0.261333  -0.077574  -0.003143
     4  C   -0.081797  -0.129608   0.261333   5.553430   0.302267  -0.077114
     5  C   -0.129694  -0.081797  -0.077574   0.302267   5.552936   0.260662
     6  N    0.260662  -0.077114  -0.003143  -0.077114   0.260662   7.152784
     7  H    0.405752  -0.055412  -0.002571  -0.008421  -0.005175  -0.117381
     8  H   -0.055220   0.405092  -0.117097  -0.005147  -0.008381  -0.002624
     9  H   -0.008381  -0.005147  -0.117097   0.405092  -0.055220  -0.002624
    10  H   -0.005175  -0.008421  -0.002571  -0.055412   0.405752  -0.117381
               7          8          9         10
     1  C    0.405752  -0.055220  -0.008381  -0.005175
     2  C   -0.055412   0.405092  -0.005147  -0.008421
     3  N   -0.002571  -0.117097  -0.117097  -0.002571
     4  C   -0.008421  -0.005147   0.405092  -0.055412
     5  C   -0.005175  -0.008381  -0.055220   0.405752
     6  N   -0.117381  -0.002624  -0.002624  -0.117381
     7  H    0.456504   0.023923   0.000411   0.000125
     8  H    0.023923   0.456059   0.000131   0.000411
     9  H    0.000411   0.000131   0.456059   0.023923
    10  H    0.000125   0.000411   0.023923   0.456504
 Mulliken charges:
               1
     1  C   -0.163775
     2  C   -0.164624
     3  N   -0.276672
     4  C   -0.164624
     5  C   -0.163775
     6  N   -0.276725
     7  H    0.302244
     8  H    0.302853
     9  H    0.302853
    10  H    0.302244
 Sum of Mulliken charges =  -0.00000
 Mulliken charges with hydrogens summed into heavy atoms:
               1
     1  C    0.138469
     2  C    0.138230
     3  N   -0.276672
     4  C    0.138230
     5  C    0.138469
     6  N   -0.276725
 Electronic spatial extent (au):  <R**2>=            411.7011
 Charge=             -0.0000 electrons
 Dipole moment (field-independent basis, Debye):
    X=             -0.0164    Y=             -0.0009    Z=             -0.0000  Tot=              0.0164
 Quadrupole moment (field-independent basis, Debye-Ang):
   XX=            -36.2650   YY=            -41.3514   ZZ=            -26.7352
   XY=              0.0208   XZ=              0.0000   YZ=             -0.0000
 Traceless Quadrupole moment (field-independent basis, Debye-Ang):
   XX=             -1.4811   YY=             -6.5675   ZZ=              8.0487
   XY=              0.0208   XZ=              0.0000   YZ=             -0.0000
 Octapole moment (field-independent basis, Debye-Ang**2):
  XXX=             -0.0076  YYY=              0.0035  ZZZ=             -0.0000  XYY=             -0.0486
  XXY=              0.0006  XXZ=              0.0000  XZZ=             -0.0848  YZZ=             -0.0164
  YYZ=              0.0000  XYZ=             -0.0000
 Hexadecapole moment (field-independent basis, Debye-Ang**3):
 XXXX=            -38.6905 YYYY=           -305.3633 ZZZZ=           -231.2223 XXXY=              0.0204
 XXXZ=             -0.0000 YYYX=              0.0687 YYYZ=              0.0000 ZZZX=             -0.0000
 ZZZY=              0.0000 XXYY=            -52.2819 XXZZ=            -54.3166 YYZZ=            -70.3476
 XXYZ=              0.0000 YYXZ=             -0.0000 ZZXY=              0.0998
 N-N= 2.086262876293D+02 E-N=-1.032016194579D+03  KE= 2.631458823227D+02
 PrsmSu:  requested number of processors reduced to:  20 ShMem   1 Linda.
 No NMR shielding tensors so no spin-rotation constants.
 Leave Link  601 at Sun Apr 18 04:01:50 2021, MaxMem=   104857600 cpu:             336.1 elap:               7.4
 (Enter /s/ls4/users/knvvv/bin/g16sse/l9999.exe)

 Test job not archived.
 1\1\GINC-N178\Stability\RM062X\Gen\C4H4N2\KNVVV\18-Apr-2021\0\\#P M062
 X/GEN Integral=UltraFineGrid SCF=NoSymm Stable=(RExt, Opt) IOp(1/33=1)
 \\Database calculations.\\0,1\C,0,-0.3380031,2.0800608,1.1300452\C,0,0
 .8540254,1.3593471,1.1306308\N,0,1.4701787,0.9907598,0.\C,0,0.8540254,
 1.3593471,-1.1306308\C,0,-0.3380031,2.0800608,-1.1300452\N,0,-0.952305
 9,2.4528836,0.\H,0,-0.8103758,2.3643033,2.0618643\H,0,1.3208583,1.0670
 61,2.0623986\H,0,1.3208583,1.067061,-2.0623986\H,0,-0.8103758,2.364303
 3,-2.0618643\\Version=ES64L-G16RevA.03\State=1-A'\HF=-264.3244096\RMSD
 =9.865e-09\Dipole=-0.0030186,-0.0057017,0.\Quadrupole=-3.8841352,-2.09
 98426,5.9839778,1.6671549,0.,0.\PG=CS [SG(N2),X(C4H4)]\\@


 IT'S WHAT A FELLER THINKS HE KNOWS THAT HURTS HIM...
                    ------
           KIN HUBBARD
 Job cpu time:       1 days  0 hours 46 minutes 26.9 seconds.
 Elapsed time:       0 days  0 hours 42 minutes 12.4 seconds.
 File lengths (MBytes):  RWF=    514 Int=      0 D2E=      0 Chk=     30 Scr=      1
 Normal termination of Gaussian 16 at Sun Apr 18 04:01:50 2021.
