 Entering Gaussian System, Link 0=/s/ls4/users/knvvv/bin/g16sse/g16
 Input=data/database/M062X--def2-QZVPPD--190_hf_W4-11.gjf
 Output=data/database/M062X--def2-QZVPPD--190_hf_W4-11.log
 Initial command:
 /s/ls4/users/knvvv/bin/g16sse/l1.exe "/s/ls4/users/knvvv/bin/scratch/Gau-26548.inp" -scrdir="/s/ls4/users/knvvv/bin/scratch/"
 Entering Link 1 = /s/ls4/users/knvvv/bin/g16sse/l1.exe PID=     26549.
  
 Copyright (c) 1988,1990,1992,1993,1995,1998,2003,2009,2016,
            Gaussian, Inc.  All Rights Reserved.
  
 This is part of the Gaussian(R) 16 program.  It is based on
 the Gaussian(R) 09 system (copyright 2009, Gaussian, Inc.),
 the Gaussian(R) 03 system (copyright 2003, Gaussian, Inc.),
 the Gaussian(R) 98 system (copyright 1998, Gaussian, Inc.),
 the Gaussian(R) 94 system (copyright 1995, Gaussian, Inc.),
 the Gaussian 92(TM) system (copyright 1992, Gaussian, Inc.),
 the Gaussian 90(TM) system (copyright 1990, Gaussian, Inc.),
 the Gaussian 88(TM) system (copyright 1988, Gaussian, Inc.),
 the Gaussian 86(TM) system (copyright 1986, Carnegie Mellon
 University), and the Gaussian 82(TM) system (copyright 1983,
 Carnegie Mellon University). Gaussian is a federally registered
 trademark of Gaussian, Inc.
  
 This software contains proprietary and confidential information,
 including trade secrets, belonging to Gaussian, Inc.
  
 This software is provided under written license and may be
 used, copied, transmitted, or stored only in accord with that
 written license.
  
 The following legend is applicable only to US Government
 contracts under FAR:
  
                    RESTRICTED RIGHTS LEGEND
  
 Use, reproduction and disclosure by the US Government is
 subject to restrictions as set forth in subparagraphs (a)
 and (c) of the Commercial Computer Software - Restricted
 Rights clause in FAR 52.227-19.
  
 Gaussian, Inc.
 340 Quinnipiac St., Bldg. 40, Wallingford CT 06492
  
  
 ---------------------------------------------------------------
 Warning -- This program may not be used in any manner that
 competes with the business of Gaussian, Inc. or will provide
 assistance to any competitor of Gaussian, Inc.  The licensee
 of this program is prohibited from giving any competitor of
 Gaussian, Inc. access to this program.  By using this program,
 the user acknowledges that Gaussian, Inc. is engaged in the
 business of creating and licensing software in the field of
 computational chemistry and represents and warrants to the
 licensee that it is not a competitor of Gaussian, Inc. and that
 it will not use this program in any manner prohibited above.
 ---------------------------------------------------------------
  

 Cite this work as:
 Gaussian 16, Revision A.03,
 M. J. Frisch, G. W. Trucks, H. B. Schlegel, G. E. Scuseria, 
 M. A. Robb, J. R. Cheeseman, G. Scalmani, V. Barone, 
 G. A. Petersson, H. Nakatsuji, X. Li, M. Caricato, A. V. Marenich, 
 J. Bloino, B. G. Janesko, R. Gomperts, B. Mennucci, H. P. Hratchian, 
 J. V. Ortiz, A. F. Izmaylov, J. L. Sonnenberg, D. Williams-Young, 
 F. Ding, F. Lipparini, F. Egidi, J. Goings, B. Peng, A. Petrone, 
 T. Henderson, D. Ranasinghe, V. G. Zakrzewski, J. Gao, N. Rega, 
 G. Zheng, W. Liang, M. Hada, M. Ehara, K. Toyota, R. Fukuda, 
 J. Hasegawa, M. Ishida, T. Nakajima, Y. Honda, O. Kitao, H. Nakai, 
 T. Vreven, K. Throssell, J. A. Montgomery, Jr., J. E. Peralta, 
 F. Ogliaro, M. J. Bearpark, J. J. Heyd, E. N. Brothers, K. N. Kudin, 
 V. N. Staroverov, T. A. Keith, R. Kobayashi, J. Normand, 
 K. Raghavachari, A. P. Rendell, J. C. Burant, S. S. Iyengar, 
 J. Tomasi, M. Cossi, J. M. Millam, M. Klene, C. Adamo, R. Cammi, 
 J. W. Ochterski, R. L. Martin, K. Morokuma, O. Farkas, 
 J. B. Foresman, and D. J. Fox, Gaussian, Inc., Wallingford CT, 2016.
 
 ******************************************
 Gaussian 16:  ES64L-G16RevA.03 25-Dec-2016
                17-Apr-2021 
 ******************************************
 %RWF=temp23_90542,70GB
 %nprocshared=48
 Will use up to   48 processors via shared memory.
 Default route: MaxDisk=80GB
 ----------------------------------------------------------------------
 #P M062X/GEN Integral=UltraFineGrid SCF=NoSymm Stable=(RExt, Opt) IOp(
 1/33=1)
 ----------------------------------------------------------------------
 1/33=1,38=1,172=1/1;
 2/12=2,17=6,18=5,40=1/2;
 3/5=7,11=2,25=1,30=1,74=-55,75=-5/1,2,3;
 4/9=2/1;
 5/5=2,38=5/2;
 6/7=2,8=2,9=2,10=2,28=1/1;
 8/6=1,10=90,11=11/1;
 9/8=-3,42=1,46=1/14;
 5/5=2,8=3,17=40,38=5/8(-2);
 6/7=2,8=2,9=2,10=2,28=1/1;
 99/5=1,9=1/99;
 Leave Link    1 at Sat Apr 17 19:08:54 2021, MaxMem=           0 cpu:              12.4 elap:               0.3
 (Enter /s/ls4/users/knvvv/bin/g16sse/l101.exe)
 ONIOM data not found on unit 2.
 ----------------------
 Database calculations.
 ----------------------
 TstMul:  ICh=     0
 TstMul:  Mul=     1
 TstMul:  ICh=     0
 TstMul:  Mul=     1
 Symbolic Z-matrix:
 Charge =  0 Multiplicity = 1
 F                     0.        0.        0. 
 H                     0.        0.        0.91577 
 
 RdStrC is calling ZToCFu for IStruc=1 NZ=     2.
 PrtBox:  NBox=     1 Levels=  0 BoxLen=    8.00 SMaxX=        1.73
          Shift=            0.000000            0.000000            0.000000
 Box      1 Number                   0 centers from      1 to      2:
 After GenITR:
 ITRead=  0  0
 MicOpt= -1 -1
 ITRead=  0  0
 MicOpt= -1 -1
 NAtoms=      2 NQM=        2 NQMF=       0 NMMI=      0 NMMIF=      0
                NMic=       0 NMicF=      0.
                    Isotopes and Nuclear Properties:
 (Nuclear quadrupole moments (NQMom) in fm**2, nuclear magnetic moments (NMagM)
  in nuclear magnetons)

  Atom         1           2
 IAtWgt=          19           1
 AtmWgt=  18.9984033   1.0078250
 NucSpn=           1           1
 AtZEff=  -0.0000000  -0.0000000
 NQMom=    0.0000000   0.0000000
 NMagM=    2.6288670   2.7928460
 AtZNuc=   9.0000000   1.0000000
 No MM parameters found.
 Leave Link  101 at Sat Apr 17 19:08:55 2021, MaxMem=   104857600 cpu:              11.3 elap:               0.4
 (Enter /s/ls4/users/knvvv/bin/g16sse/l202.exe)
                          Input orientation:                          
 ---------------------------------------------------------------------
 Center     Atomic      Atomic             Coordinates (Angstroms)
 Number     Number       Type             X           Y           Z
 ---------------------------------------------------------------------
      1          9           0        0.000000    0.000000    0.000000
      2          1           0        0.000000    0.000000    0.915769
 ---------------------------------------------------------------------
 Stoichiometry    FH
 Framework group  C*V[C*(HF)]
 Deg. of freedom     1
 Full point group                 C*V     NOp   4
 Largest Abelian subgroup         C2V     NOp   4
 Largest concise Abelian subgroup C1      NOp   1
                         Standard orientation:                         
 ---------------------------------------------------------------------
 Center     Atomic      Atomic             Coordinates (Angstroms)
 Number     Number       Type             X           Y           Z
 ---------------------------------------------------------------------
      1          9           0        0.000000    0.000000    0.091577
      2          1           0        0.000000    0.000000   -0.824192
 ---------------------------------------------------------------------
 Rotational constants (GHZ):           0.0000000         629.6631811         629.6631811
 Leave Link  202 at Sat Apr 17 19:08:56 2021, MaxMem=   104857600 cpu:              13.8 elap:               0.7
 (Enter /s/ls4/users/knvvv/bin/g16sse/l301.exe)
 General basis read from cards:  (5D, 7F)
 Centers:       2
 S 4 1.00
     Exponent=  1.9069169000D+02 Coefficients=  7.0815167000D-04
     Exponent=  2.8605532000D+01 Coefficients=  5.4678827000D-03
     Exponent=  6.5095943000D+00 Coefficients=  2.7966605000D-02
     Exponent=  1.8412455000D+00 Coefficients=  1.0764538000D-01
 S 1 1.00
     Exponent=  5.9853725000D-01 Coefficients=  1.0000000000D+00
 S 1 1.00
     Exponent=  2.1397624000D-01 Coefficients=  1.0000000000D+00
 S 1 1.00
     Exponent=  8.0316286000D-02 Coefficients=  1.0000000000D+00
 P 1 1.00
     Exponent=  2.2920000000D+00 Coefficients=  1.0000000000D+00
 P 1 1.00
     Exponent=  8.3800000000D-01 Coefficients=  1.0000000000D+00
 P 1 1.00
     Exponent=  2.9200000000D-01 Coefficients=  1.0000000000D+00
 P 1 1.00
     Exponent=  8.4063199228D-02 Coefficients=  1.0000000000D+00
 D 1 1.00
     Exponent=  2.0620000000D+00 Coefficients=  1.0000000000D+00
 D 1 1.00
     Exponent=  6.6200000000D-01 Coefficients=  1.0000000000D+00
 F 1 1.00
     Exponent=  1.3970000000D+00 Coefficients=  1.0000000000D+00
 ****
 Centers:       1
 S 8 1.00
     Exponent=  1.3253597345D+05 Coefficients=  4.7387482743D-05
     Exponent=  1.9758112588D+04 Coefficients=  3.7070120897D-04
     Exponent=  4.4851996947D+03 Coefficients=  1.9450784713D-03
     Exponent=  1.2738151020D+03 Coefficients=  8.0573291994D-03
     Exponent=  4.1893831236D+02 Coefficients=  2.7992880781D-02
     Exponent=  1.5255721985D+02 Coefficients=  8.2735120175D-02
     Exponent=  5.9821524823D+01 Coefficients=  1.9854169012D-01
     Exponent=  2.4819076932D+01 Coefficients=  3.4860632233D-01
 S 2 1.00
     Exponent=  1.0074446673D+02 Coefficients=  1.0505068816D-01
     Exponent=  3.0103728290D+01 Coefficients=  9.4068472434D-01
 S 1 1.00
     Exponent=  1.0814283272D+01 Coefficients=  1.0000000000D+00
 S 1 1.00
     Exponent=  4.8172886770D+00 Coefficients=  1.0000000000D+00
 S 1 1.00
     Exponent=  1.6559334213D+00 Coefficients=  1.0000000000D+00
 S 1 1.00
     Exponent=  6.4893519582D-01 Coefficients=  1.0000000000D+00
 S 1 1.00
     Exponent=  2.4778104545D-01 Coefficients=  1.0000000000D+00
 S 1 1.00
     Exponent=  8.7626236800D-02 Coefficients=  1.0000000000D+00
 P 5 1.00
     Exponent=  2.4096654114D+02 Coefficients=  3.0389933451D-03
     Exponent=  5.7020699781D+01 Coefficients=  2.4357738582D-02
     Exponent=  1.8126952120D+01 Coefficients=  1.1442925768D-01
     Exponent=  6.6457404621D+00 Coefficients=  3.7064659853D-01
     Exponent=  2.6375722892D+00 Coefficients=  7.9791551766D-01
 P 1 1.00
     Exponent=  1.0638217200D+00 Coefficients=  1.0000000000D+00
 P 1 1.00
     Exponent=  4.1932562750D-01 Coefficients=  1.0000000000D+00
 P 1 1.00
     Exponent=  1.5747588299D-01 Coefficients=  1.0000000000D+00
 P 1 1.00
     Exponent=  4.6772400332D-02 Coefficients=  1.0000000000D+00
 D 1 1.00
     Exponent=  5.0140000000D+00 Coefficients=  1.0000000000D+00
 D 1 1.00
     Exponent=  1.7250000000D+00 Coefficients=  1.0000000000D+00
 D 1 1.00
     Exponent=  5.8600000000D-01 Coefficients=  1.0000000000D+00
 D 1 1.00
     Exponent=  1.5967986245D-01 Coefficients=  1.0000000000D+00
 F 1 1.00
     Exponent=  3.5620000000D+00 Coefficients=  1.0000000000D+00
 F 1 1.00
     Exponent=  1.1480000000D+00 Coefficients=  1.0000000000D+00
 G 1 1.00
     Exponent=  2.3760000000D+00 Coefficients=  1.0000000000D+00
 ****
 Ernie: Thresh=  0.10000D-02 Tol=  0.10000D-05 Strict=F.
 There are    54 symmetry adapted cartesian basis functions of A1  symmetry.
 There are    12 symmetry adapted cartesian basis functions of A2  symmetry.
 There are    27 symmetry adapted cartesian basis functions of B1  symmetry.
 There are    27 symmetry adapted cartesian basis functions of B2  symmetry.
 There are    42 symmetry adapted basis functions of A1  symmetry.
 There are    11 symmetry adapted basis functions of A2  symmetry.
 There are    23 symmetry adapted basis functions of B1  symmetry.
 There are    23 symmetry adapted basis functions of B2  symmetry.
    99 basis functions,   143 primitive gaussians,   120 cartesian basis functions
     5 alpha electrons        5 beta electrons
       nuclear repulsion energy         5.2006509265 Hartrees.
 IExCor= 4336 DFT=T Ex+Corr=M062X ExCW=0 ScaHFX=  0.540000
 ScaDFX=  1.000000  1.000000  1.000000  1.000000 ScalE2=  1.000000  1.000000
 IRadAn=      5 IRanWt=     -1 IRanGd=            0 ICorTp=0 IEmpDi=  4
 NAtoms=    2 NActive=    2 NUniq=    2 SFac= 1.00D+00 NAtFMM=   60 NAOKFM=F Big=F
 Integral buffers will be    131072 words long.
 Raffenetti 2 integral format.
 Two-electron integral symmetry is turned on.
 Leave Link  301 at Sat Apr 17 19:08:57 2021, MaxMem=   104857600 cpu:              14.3 elap:               0.4
 (Enter /s/ls4/users/knvvv/bin/g16sse/l302.exe)
 NPDir=0 NMtPBC=     1 NCelOv=     1 NCel=       1 NClECP=     1 NCelD=      1
         NCelK=      1 NCelE2=     1 NClLst=     1 CellRange=     0.0.
 One-electron integrals computed using PRISM.
 One-electron integral symmetry used in STVInt
 PrsmSu:  requested number of processors reduced to:   4 ShMem   1 Linda.
 PrsmSu:  requested number of processors reduced to:  21 ShMem   1 Linda.
 NBasis=    99 RedAO= T EigKep=  1.43D-04  NBF=    42    11    23    23
 NBsUse=    99 1.00D-06 EigRej= -1.00D+00 NBFU=    42    11    23    23
 Precomputing XC quadrature grid using
 IXCGrd= 4 IRadAn=           5 IRanWt=          -1 IRanGd=           0 AccXCQ= 0.00D+00.
 Generated NRdTot=       0 NPtTot=           0 NUsed=           0 NTot=          32
 NSgBfM=   120   120   120   120   120 MxSgAt=     2 MxSgA2=     2.
 Leave Link  302 at Sat Apr 17 19:09:00 2021, MaxMem=   104857600 cpu:             128.5 elap:               3.1
 (Enter /s/ls4/users/knvvv/bin/g16sse/l303.exe)
 DipDrv:  MaxL=1.
 Leave Link  303 at Sat Apr 17 19:09:02 2021, MaxMem=   104857600 cpu:              34.5 elap:               1.0
 (Enter /s/ls4/users/knvvv/bin/g16sse/l401.exe)
 SCF N**3 symmetry information disabled.
 ExpMin= 4.68D-02 ExpMax= 1.33D+05 ExpMxC= 1.27D+03 IAcc=3 IRadAn=         5 AccDes= 0.00D+00
 Harris functional with IExCor= 1009 and IRadAn=       5 diagonalized for initial guess.
 HarFok:  IExCor= 1009 AccDes= 0.00D+00 IRadAn=         5 IDoV= 1 UseB2=F ITyADJ=14
 ICtDFT=  3500011 ScaDFX=  1.000000  1.000000  1.000000  1.000000
 FoFCou: FMM=F IPFlag=           0 FMFlag=      100000 FMFlg1=           0
         NFxFlg=           0 DoJE=T BraDBF=F KetDBF=T FulRan=T
         wScrn=  0.000000 ICntrl=       500 IOpCl=  0 I1Cent=   200000004 NGrid=           0
         NMat0=    1 NMatS0=      1 NMatT0=    0 NMatD0=    1 NMtDS0=    0 NMtDT0=    0
 Petite list used in FoFCou.
 CoulSu:  requested number of processors reduced to:  21 ShMem   1 Linda.
 CoulSu:  requested number of processors reduced to:  21 ShMem   1 Linda.
 CoulSu:  requested number of processors reduced to:  21 ShMem   1 Linda.
 CoulSu:  requested number of processors reduced to:  21 ShMem   1 Linda.
 Harris En= -100.413356545937    
 JPrj=0 DoOrth=F DoCkMO=F.
 Initial guess orbital symmetries:
       Occupied  (SG) (SG) (SG) (PI) (PI)
       Virtual   (SG) (SG) (PI) (PI) (SG) (PI) (PI) (SG) (SG) (DLTA)
                 (DLTA) (PI) (PI) (SG) (PI) (PI) (SG) (PI) (PI)
                 (SG) (SG) (SG) (DLTA) (DLTA) (PI) (PI) (PI) (PI)
                 (SG) (DLTA) (DLTA) (SG) (PI) (PI) (SG) (PI) (PI)
                 (SG) (PHI) (PHI) (SG) (DLTA) (DLTA) (PI) (PI)
                 (DLTA) (DLTA) (SG) (PI) (PI) (SG) (PHI) (PHI)
                 (SG) (PI) (PI) (DLTA) (DLTA) (SG) (PI) (PI) (SG)
                 (PI) (PI) (DLTA) (DLTA) (SG) (PI) (PI) (?A) (?A)
                 (PHI) (PHI) (DLTA) (DLTA) (SG) (SG) (PI) (PI)
                 (PHI) (PHI) (DLTA) (DLTA) (SG) (PI) (PI) (DLTA)
                 (DLTA) (SG) (PI) (PI) (SG) (SG) (SG)
 The electronic state of the initial guess is 1-SG.
 Leave Link  401 at Sat Apr 17 19:09:04 2021, MaxMem=   104857600 cpu:              81.9 elap:               2.3
 (Enter /s/ls4/users/knvvv/bin/g16sse/l502.exe)
 Keep R1 ints in memory in symmetry-blocked form, NReq=66468098.
 FoFCou: FMM=F IPFlag=           0 FMFlag=           0 FMFlg1=           0
         NFxFlg=           0 DoJE=F BraDBF=F KetDBF=F FulRan=T
         wScrn=  0.000000 ICntrl=       600 IOpCl=  0 I1Cent=           0 NGrid=           0
         NMat0=    1 NMatS0=   4950 NMatT0=    0 NMatD0=    1 NMtDS0=    0 NMtDT0=    0
 Petite list used in FoFCou.
 CoulSu:  requested number of processors reduced to:  20 ShMem   1 Linda.
 Closed shell SCF:
 Using DIIS extrapolation, IDIIS=  1040.
 NGot=   104857600 LenX=   101671656 LenY=   101656815
 Requested convergence on RMS density matrix=1.00D-08 within 128 cycles.
 Requested convergence on MAX density matrix=1.00D-06.
 Requested convergence on             energy=1.00D-06.
 No special actions if energy rises.

 Cycle   1  Pass 1  IDiag  1:
 E= -100.433779744943    
 DIIS: error= 4.51D-02 at cycle   1 NSaved=   1.
 NSaved= 1 IEnMin= 1 EnMin= -100.433779744943     IErMin= 1 ErrMin= 4.51D-02
 ErrMax= 4.51D-02  0.00D+00 EMaxC= 1.00D-01 BMatC= 7.13D-02 BMatP= 7.13D-02
 IDIUse=3 WtCom= 5.49D-01 WtEn= 4.51D-01
 Coeff-Com:  0.100D+01
 Coeff-En:   0.100D+01
 Coeff:      0.100D+01
 Gap=     0.454 Goal=   None    Shift=    0.000
 GapD=    0.454 DampG=2.000 DampE=0.500 DampFc=1.0000 IDamp=-1.
 RMSDP=1.56D-03 MaxDP=3.43D-02              OVMax= 9.58D-02

 Cycle   2  Pass 1  IDiag  1:
 E= -100.429023912968     Delta-E=        0.004755831975 Rises=F Damp=F
 DIIS: error= 3.16D-02 at cycle   2 NSaved=   2.
 NSaved= 2 IEnMin= 1 EnMin= -100.433779744943     IErMin= 2 ErrMin= 3.16D-02
 ErrMax= 3.16D-02  0.00D+00 EMaxC= 1.00D-01 BMatC= 6.31D-02 BMatP= 7.13D-02
 IDIUse=3 WtCom= 6.84D-01 WtEn= 3.16D-01
 Coeff-Com:  0.482D+00 0.518D+00
 Coeff-En:   0.540D+00 0.460D+00
 Coeff:      0.500D+00 0.500D+00
 Gap=     0.546 Goal=   None    Shift=    0.000
 RMSDP=9.12D-04 MaxDP=1.78D-02 DE= 4.76D-03 OVMax= 5.10D-02

 Cycle   3  Pass 1  IDiag  1:
 E= -100.461302321801     Delta-E=       -0.032278408834 Rises=F Damp=F
 DIIS: error= 2.88D-03 at cycle   3 NSaved=   3.
 NSaved= 3 IEnMin= 3 EnMin= -100.461302321801     IErMin= 3 ErrMin= 2.88D-03
 ErrMax= 2.88D-03  0.00D+00 EMaxC= 1.00D-01 BMatC= 4.96D-04 BMatP= 6.31D-02
 IDIUse=3 WtCom= 9.71D-01 WtEn= 2.88D-02
 Coeff-Com: -0.537D-02 0.755D-01 0.930D+00
 Coeff-En:   0.000D+00 0.000D+00 0.100D+01
 Coeff:     -0.521D-02 0.733D-01 0.932D+00
 Gap=     0.542 Goal=   None    Shift=    0.000
 RMSDP=8.22D-05 MaxDP=1.93D-03 DE=-3.23D-02 OVMax= 4.26D-03

 Cycle   4  Pass 1  IDiag  1:
 E= -100.461537825578     Delta-E=       -0.000235503777 Rises=F Damp=F
 DIIS: error= 2.21D-04 at cycle   4 NSaved=   4.
 NSaved= 4 IEnMin= 4 EnMin= -100.461537825578     IErMin= 4 ErrMin= 2.21D-04
 ErrMax= 2.21D-04  0.00D+00 EMaxC= 1.00D-01 BMatC= 2.03D-06 BMatP= 4.96D-04
 IDIUse=3 WtCom= 9.98D-01 WtEn= 2.21D-03
 Coeff-Com: -0.273D-02 0.793D-02 0.107D+00 0.888D+00
 Coeff-En:   0.000D+00 0.000D+00 0.000D+00 0.100D+01
 Coeff:     -0.273D-02 0.792D-02 0.106D+00 0.888D+00
 Gap=     0.541 Goal=   None    Shift=    0.000
 RMSDP=1.37D-05 MaxDP=3.33D-04 DE=-2.36D-04 OVMax= 4.46D-04

 Cycle   5  Pass 1  IDiag  1:
 E= -100.461538942222     Delta-E=       -0.000001116644 Rises=F Damp=F
 DIIS: error= 3.86D-05 at cycle   5 NSaved=   5.
 NSaved= 5 IEnMin= 5 EnMin= -100.461538942222     IErMin= 5 ErrMin= 3.86D-05
 ErrMax= 3.86D-05  0.00D+00 EMaxC= 1.00D-01 BMatC= 5.87D-08 BMatP= 2.03D-06
 IDIUse=1 WtCom= 1.00D+00 WtEn= 0.00D+00
 Coeff-Com:  0.647D-05-0.119D-02-0.183D-01 0.539D-01 0.966D+00
 Coeff:      0.647D-05-0.119D-02-0.183D-01 0.539D-01 0.966D+00
 Gap=     0.541 Goal=   None    Shift=    0.000
 RMSDP=2.83D-06 MaxDP=6.58D-05 DE=-1.12D-06 OVMax= 1.20D-04

 Cycle   6  Pass 1  IDiag  1:
 E= -100.461539005321     Delta-E=       -0.000000063099 Rises=F Damp=F
 DIIS: error= 7.11D-06 at cycle   6 NSaved=   6.
 NSaved= 6 IEnMin= 6 EnMin= -100.461539005321     IErMin= 6 ErrMin= 7.11D-06
 ErrMax= 7.11D-06  0.00D+00 EMaxC= 1.00D-01 BMatC= 1.97D-09 BMatP= 5.87D-08
 IDIUse=1 WtCom= 1.00D+00 WtEn= 0.00D+00
 Coeff-Com:  0.705D-04-0.702D-04 0.564D-03-0.319D-01-0.145D+00 0.118D+01
 Coeff:      0.705D-04-0.702D-04 0.564D-03-0.319D-01-0.145D+00 0.118D+01
 Gap=     0.541 Goal=   None    Shift=    0.000
 RMSDP=6.70D-07 MaxDP=1.68D-05 DE=-6.31D-08 OVMax= 3.10D-05

 Cycle   7  Pass 1  IDiag  1:
 E= -100.461539008490     Delta-E=       -0.000000003169 Rises=F Damp=F
 DIIS: error= 9.72D-07 at cycle   7 NSaved=   7.
 NSaved= 7 IEnMin= 7 EnMin= -100.461539008490     IErMin= 7 ErrMin= 9.72D-07
 ErrMax= 9.72D-07  0.00D+00 EMaxC= 1.00D-01 BMatC= 2.08D-11 BMatP= 1.97D-09
 IDIUse=1 WtCom= 1.00D+00 WtEn= 0.00D+00
 Coeff-Com: -0.921D-05 0.341D-04 0.187D-03 0.360D-02 0.695D-03-0.124D+00
 Coeff-Com:  0.112D+01
 Coeff:     -0.921D-05 0.341D-04 0.187D-03 0.360D-02 0.695D-03-0.124D+00
 Coeff:      0.112D+01
 Gap=     0.541 Goal=   None    Shift=    0.000
 RMSDP=4.91D-08 MaxDP=9.48D-07 DE=-3.17D-09 OVMax= 3.61D-06

 Cycle   8  Pass 1  IDiag  1:
 E= -100.461539008516     Delta-E=       -0.000000000027 Rises=F Damp=F
 DIIS: error= 6.58D-08 at cycle   8 NSaved=   8.
 NSaved= 8 IEnMin= 8 EnMin= -100.461539008516     IErMin= 8 ErrMin= 6.58D-08
 ErrMax= 6.58D-08  0.00D+00 EMaxC= 1.00D-01 BMatC= 2.18D-13 BMatP= 2.08D-11
 IDIUse=1 WtCom= 1.00D+00 WtEn= 0.00D+00
 Coeff-Com:  0.341D-06-0.393D-05-0.231D-04 0.285D-04 0.322D-03 0.130D-02
 Coeff-Com: -0.926D-01 0.109D+01
 Coeff:      0.341D-06-0.393D-05-0.231D-04 0.285D-04 0.322D-03 0.130D-02
 Coeff:     -0.926D-01 0.109D+01
 Gap=     0.541 Goal=   None    Shift=    0.000
 RMSDP=7.12D-09 MaxDP=1.37D-07 DE=-2.67D-11 OVMax= 1.73D-07

 SCF Done:  E(RM062X) =  -100.461539009     A.U. after    8 cycles
            NFock=  8  Conv=0.71D-08     -V/T= 2.0026
 KE= 1.002015124281D+02 PE=-2.507078851557D+02 EE= 4.484418279263D+01
 Leave Link  502 at Sat Apr 17 19:09:08 2021, MaxMem=   104857600 cpu:             129.8 elap:               3.3
 (Enter /s/ls4/users/knvvv/bin/g16sse/l601.exe)
 Copying SCF densities to generalized density rwf, IOpCl= 0 IROHF=0.

 **********************************************************************

            Population analysis using the SCF density.

 **********************************************************************

 Orbital symmetries:
       Occupied  (SG) (SG) (SG) (PI) (PI)
       Virtual   (SG) (SG) (PI) (PI) (PI) (PI) (SG) (SG) (SG) (DLTA)
                 (DLTA) (PI) (PI) (SG) (PI) (PI) (SG) (PI) (PI)
                 (SG) (SG) (SG) (DLTA) (DLTA) (PI) (PI) (PI) (PI)
                 (SG) (DLTA) (DLTA) (SG) (PI) (PI) (SG) (PI) (PI)
                 (SG) (SG) (PHI) (PHI) (DLTA) (DLTA) (PI) (PI)
                 (SG) (DLTA) (DLTA) (PI) (PI) (SG) (PHI) (PHI)
                 (SG) (PI) (PI) (DLTA) (DLTA) (SG) (PI) (PI) (DLTA)
                 (DLTA) (PI) (PI) (SG) (SG) (PI) (PI) (?A) (?A)
                 (PHI) (PHI) (DLTA) (DLTA) (SG) (SG) (PI) (PI)
                 (PHI) (PHI) (DLTA) (DLTA) (SG) (PI) (PI) (DLTA)
                 (DLTA) (SG) (PI) (PI) (SG) (SG) (SG)
 The electronic state is 1-SG.
 Alpha  occ. eigenvalues --  -25.23761  -1.34727  -0.64417  -0.51886  -0.51886
 Alpha virt. eigenvalues --    0.02254   0.06530   0.07122   0.07122   0.18403
 Alpha virt. eigenvalues --    0.18403   0.19066   0.27143   0.33372   0.44043
 Alpha virt. eigenvalues --    0.44043   0.49845   0.49845   0.54286   0.56999
 Alpha virt. eigenvalues --    0.56999   0.74228   0.83625   0.83625   0.92299
 Alpha virt. eigenvalues --    1.09177   1.39736   1.66137   1.66137   1.76073
 Alpha virt. eigenvalues --    1.76073   1.86873   1.86873   1.93435   2.07987
 Alpha virt. eigenvalues --    2.07987   2.33778   2.47229   2.47229   2.69701
 Alpha virt. eigenvalues --    2.80955   2.80955   3.23531   4.13618   4.15561
 Alpha virt. eigenvalues --    4.15561   4.43483   4.43483   5.04555   5.04555
 Alpha virt. eigenvalues --    5.19054   5.24782   5.24782   5.47272   5.47272
 Alpha virt. eigenvalues --    5.56797   5.77661   5.77661   5.93418   6.26458
 Alpha virt. eigenvalues --    6.26458   6.75493   6.75493   7.31670   7.37272
 Alpha virt. eigenvalues --    7.37272   7.61350   7.61350   7.68214   7.68214
 Alpha virt. eigenvalues --    7.68309   9.03449   9.27214   9.27214  11.35262
 Alpha virt. eigenvalues --   11.35263  11.46465  11.46465  12.31242  12.31242
 Alpha virt. eigenvalues --   12.33947  12.99218  13.32479  13.32479  14.45529
 Alpha virt. eigenvalues --   14.45529  14.71933  14.71933  14.95323  15.21481
 Alpha virt. eigenvalues --   15.21481  15.85891  15.85892  16.50327  16.97698
 Alpha virt. eigenvalues --   16.97698  18.96504  54.72161 283.68533
          Condensed to atoms (all electrons):
               1          2
     1  F    9.230581   0.204196
     2  H    0.204196   0.361027
 Mulliken charges:
               1
     1  F   -0.434777
     2  H    0.434777
 Sum of Mulliken charges =  -0.00000
 Mulliken charges with hydrogens summed into heavy atoms:
               1
     1  F   -0.000000
 Electronic spatial extent (au):  <R**2>=             14.0913
 Charge=             -0.0000 electrons
 Dipole moment (field-independent basis, Debye):
    X=              0.0000    Y=             -0.0000    Z=             -1.8375  Tot=              1.8375
 Quadrupole moment (field-independent basis, Debye-Ang):
   XX=             -5.8125   YY=             -5.8125   ZZ=             -3.7030
   XY=             -0.0000   XZ=              0.0000   YZ=             -0.0000
 Traceless Quadrupole moment (field-independent basis, Debye-Ang):
   XX=             -0.7032   YY=             -0.7032   ZZ=              1.4064
   XY=             -0.0000   XZ=              0.0000   YZ=             -0.0000
 Octapole moment (field-independent basis, Debye-Ang**2):
  XXX=              0.0000  YYY=             -0.0000  ZZZ=             -1.8245  XYY=              0.0000
  XXY=             -0.0000  XXZ=             -0.1175  XZZ=              0.0000  YZZ=             -0.0000
  YYZ=             -0.1175  XYZ=             -0.0000
 Hexadecapole moment (field-independent basis, Debye-Ang**3):
 XXXX=             -4.1060 YYYY=             -4.1060 ZZZZ=             -3.5758 XXXY=              0.0000
 XXXZ=              0.0000 YYYX=              0.0000 YYYZ=              0.0000 ZZZX=              0.0000
 ZZZY=             -0.0000 XXYY=             -1.3687 XXZZ=             -1.5327 YYZZ=             -1.5327
 XXYZ=              0.0000 YYXZ=              0.0000 ZZXY=              0.0000
 N-N= 5.200650926467D+00 E-N=-2.507078863671D+02  KE= 1.002015124281D+02
 PrsmSu:  requested number of processors reduced to:  21 ShMem   1 Linda.
 No NMR shielding tensors so no spin-rotation constants.
 Leave Link  601 at Sat Apr 17 19:09:09 2021, MaxMem=   104857600 cpu:              55.7 elap:               1.3
 (Enter /s/ls4/users/knvvv/bin/g16sse/l801.exe)
 DoSCS=F DFT=T ScalE2(SS,OS)=  1.000000  1.000000
 Range of M.O.s used for correlation:     1    99
 NBasis=    99 NAE=     5 NBE=     5 NFC=     0 NFV=     0
 NROrb=     99 NOA=     5 NOB=     5 NVA=    94 NVB=    94

 **** Warning!!: The largest alpha MO coefficient is  0.29886085D+02

 Leave Link  801 at Sat Apr 17 19:09:10 2021, MaxMem=   104857600 cpu:               6.1 elap:               0.4
 (Enter /s/ls4/users/knvvv/bin/g16sse/l914.exe)
 RHF ground state
 Doing stability rather than CIS.
 Two-electron integrals replicated using symmetry.
 MDV=   104857600 DFT=T DoStab=T Mixed=T DoRPA=F DoScal=F NonHer=F
 Making orbital integer symmetry assigments:
 Orbital symmetries:
       Occupied  (SG) (SG) (SG) (PI) (PI)
       Virtual   (SG) (SG) (PI) (PI) (PI) (PI) (SG) (SG) (SG) (DLTA)
                 (DLTA) (PI) (PI) (SG) (PI) (PI) (SG) (PI) (PI)
                 (SG) (SG) (SG) (DLTA) (DLTA) (PI) (PI) (PI) (PI)
                 (SG) (DLTA) (DLTA) (SG) (PI) (PI) (SG) (PI) (PI)
                 (SG) (SG) (PHI) (PHI) (DLTA) (DLTA) (PI) (PI)
                 (SG) (DLTA) (DLTA) (PI) (PI) (SG) (PHI) (PHI)
                 (SG) (PI) (PI) (DLTA) (DLTA) (SG) (PI) (PI) (DLTA)
                 (DLTA) (PI) (PI) (SG) (SG) (PI) (PI) (?A) (?A)
                 (PHI) (PHI) (DLTA) (DLTA) (SG) (SG) (PI) (PI)
                 (PHI) (PHI) (DLTA) (DLTA) (SG) (PI) (PI) (DLTA)
                 (DLTA) (SG) (PI) (PI) (SG) (SG) (SG)
    24 initial guesses have been made.
 Convergence on wavefunction:    0.001000000000000
 Davidson Disk Diagonalization:  ConvIn= 1.00D-03 SkipCon=T Conv= 1.00D-03.
 Max sub-space:  1880 roots to seek:    24 dimension of matrix:          940
 Iteration     1 Dimension    24 NMult     0 NNew     24
 Estimated number of processors is:   20
 CISAX will form     1 AO SS matrices at one time.
 NMat=     1 NSing=     1 JSym2X= 2.
 FoFJK:  IHMeth= 1 ICntrl=       0 DoSepK=F KAlg= 0 I1Cent=           0 FoldK=F
 IRaf= 990000000 NMat=       1 IRICut=       1 DoRegI=T DoRafI=F ISym2E= 2 IDoP0=0 IntGTp=1.
 FoFCou: FMM=F IPFlag=           0 FMFlag=      100000 FMFlg1=           0
         NFxFlg=           0 DoJE=F BraDBF=F KetDBF=F FulRan=T
         wScrn=  0.000000 ICntrl=         0 IOpCl=  0 I1Cent=           0 NGrid=           0
         NMat0=    1 NMatS0=      1 NMatT0=    0 NMatD0=    1 NMtDS0=    0 NMtDT0=    0
 Integrals replicated using symmetry in FoFCou.
 CoulSu:  requested number of processors reduced to:  21 ShMem   1 Linda.
 NMat=     1 NSing=     1 JSym2X= 2.
 CoulSu:  requested number of processors reduced to:  21 ShMem   1 Linda.
 NMat=     1 NSing=     1 JSym2X= 2.
 CoulSu:  requested number of processors reduced to:  21 ShMem   1 Linda.
 NMat=     1 NSing=     1 JSym2X= 2.
 CoulSu:  requested number of processors reduced to:  21 ShMem   1 Linda.
 NMat=     1 NSing=     1 JSym2X= 2.
 CoulSu:  requested number of processors reduced to:  21 ShMem   1 Linda.
 NMat=     1 NSing=     1 JSym2X= 2.
 CoulSu:  requested number of processors reduced to:  21 ShMem   1 Linda.
 NMat=     1 NSing=     1 JSym2X= 2.
 CoulSu:  requested number of processors reduced to:  21 ShMem   1 Linda.
 NMat=     1 NSing=     1 JSym2X= 2.
 CoulSu:  requested number of processors reduced to:  21 ShMem   1 Linda.
 NMat=     1 NSing=     1 JSym2X= 2.
 CoulSu:  requested number of processors reduced to:  21 ShMem   1 Linda.
 NMat=     1 NSing=     1 JSym2X= 2.
 CoulSu:  requested number of processors reduced to:  21 ShMem   1 Linda.
 NMat=     1 NSing=     1 JSym2X= 2.
 CoulSu:  requested number of processors reduced to:  21 ShMem   1 Linda.
 NMat=     1 NSing=     1 JSym2X= 2.
 CoulSu:  requested number of processors reduced to:  21 ShMem   1 Linda.
 NMat=     1 NSing=     0 JSym2X= 2.
 CoulSu:  requested number of processors reduced to:  21 ShMem   1 Linda.
 NMat=     1 NSing=     0 JSym2X= 2.
 CoulSu:  requested number of processors reduced to:  21 ShMem   1 Linda.
 NMat=     1 NSing=     0 JSym2X= 2.
 CoulSu:  requested number of processors reduced to:  21 ShMem   1 Linda.
 NMat=     1 NSing=     0 JSym2X= 2.
 CoulSu:  requested number of processors reduced to:  21 ShMem   1 Linda.
 NMat=     1 NSing=     0 JSym2X= 2.
 CoulSu:  requested number of processors reduced to:  21 ShMem   1 Linda.
 NMat=     1 NSing=     0 JSym2X= 2.
 CoulSu:  requested number of processors reduced to:  21 ShMem   1 Linda.
 NMat=     1 NSing=     0 JSym2X= 2.
 CoulSu:  requested number of processors reduced to:  21 ShMem   1 Linda.
 NMat=     1 NSing=     0 JSym2X= 2.
 CoulSu:  requested number of processors reduced to:  21 ShMem   1 Linda.
 NMat=     1 NSing=     0 JSym2X= 2.
 CoulSu:  requested number of processors reduced to:  21 ShMem   1 Linda.
 NMat=     1 NSing=     0 JSym2X= 2.
 CoulSu:  requested number of processors reduced to:  21 ShMem   1 Linda.
 NMat=     1 NSing=     0 JSym2X= 2.
 CoulSu:  requested number of processors reduced to:  21 ShMem   1 Linda.
 NMat=     1 NSing=     0 JSym2X= 2.
 CoulSu:  requested number of processors reduced to:  21 ShMem   1 Linda.
 New state      1 was old state      4
 Excitation Energies [eV] at current iteration:
 Root      1 :    10.759832954013430
 Root      2 :    10.759832954024410
 Root      3 :    11.058101599470010
 Root      4 :    11.058101599476500
 Root      5 :    13.093134915489830
 Root      6 :    13.099199951312180
 Root      7 :    13.099199951386580
 Root      8 :    13.103739079794540
 Root      9 :    13.128436992816500
 Root     10 :    13.202967174681140
 Root     11 :    13.203334825616190
 Root     12 :    13.269977809368510
 Root     13 :    13.273902196235950
 Root     14 :    13.273902196264550
 Root     15 :    13.293464437638500
 Root     16 :    14.014178592860420
 Root     17 :    14.086126109500240
 Root     18 :    15.823359107376530
 Root     19 :    16.076941776362760
 Root     20 :    16.078763278069530
 Root     21 :    16.213217241814900
 Root     22 :    16.234273405193460
 Root     23 :    16.430628446891700
 Root     24 :    18.203787232625580
 Iteration     2 Dimension    48 NMult    24 NNew     24
 Estimated number of processors is:   20
 CISAX will form     1 AO SS matrices at one time.
 NMat=     1 NSing=     1 JSym2X= 2.
 CoulSu:  requested number of processors reduced to:  21 ShMem   1 Linda.
 NMat=     1 NSing=     1 JSym2X= 2.
 CoulSu:  requested number of processors reduced to:  21 ShMem   1 Linda.
 NMat=     1 NSing=     1 JSym2X= 2.
 CoulSu:  requested number of processors reduced to:  21 ShMem   1 Linda.
 NMat=     1 NSing=     1 JSym2X= 2.
 CoulSu:  requested number of processors reduced to:  21 ShMem   1 Linda.
 NMat=     1 NSing=     1 JSym2X= 2.
 CoulSu:  requested number of processors reduced to:  21 ShMem   1 Linda.
 NMat=     1 NSing=     1 JSym2X= 2.
 CoulSu:  requested number of processors reduced to:  21 ShMem   1 Linda.
 NMat=     1 NSing=     1 JSym2X= 2.
 CoulSu:  requested number of processors reduced to:  21 ShMem   1 Linda.
 NMat=     1 NSing=     1 JSym2X= 2.
 CoulSu:  requested number of processors reduced to:  21 ShMem   1 Linda.
 NMat=     1 NSing=     1 JSym2X= 2.
 CoulSu:  requested number of processors reduced to:  21 ShMem   1 Linda.
 NMat=     1 NSing=     1 JSym2X= 2.
 CoulSu:  requested number of processors reduced to:  21 ShMem   1 Linda.
 NMat=     1 NSing=     1 JSym2X= 2.
 CoulSu:  requested number of processors reduced to:  21 ShMem   1 Linda.
 NMat=     1 NSing=     1 JSym2X= 2.
 CoulSu:  requested number of processors reduced to:  21 ShMem   1 Linda.
 NMat=     1 NSing=     0 JSym2X= 2.
 CoulSu:  requested number of processors reduced to:  21 ShMem   1 Linda.
 NMat=     1 NSing=     0 JSym2X= 2.
 CoulSu:  requested number of processors reduced to:  21 ShMem   1 Linda.
 NMat=     1 NSing=     0 JSym2X= 2.
 CoulSu:  requested number of processors reduced to:  21 ShMem   1 Linda.
 NMat=     1 NSing=     0 JSym2X= 2.
 CoulSu:  requested number of processors reduced to:  21 ShMem   1 Linda.
 NMat=     1 NSing=     0 JSym2X= 2.
 CoulSu:  requested number of processors reduced to:  21 ShMem   1 Linda.
 NMat=     1 NSing=     0 JSym2X= 2.
 CoulSu:  requested number of processors reduced to:  21 ShMem   1 Linda.
 NMat=     1 NSing=     0 JSym2X= 2.
 CoulSu:  requested number of processors reduced to:  21 ShMem   1 Linda.
 NMat=     1 NSing=     0 JSym2X= 2.
 CoulSu:  requested number of processors reduced to:  21 ShMem   1 Linda.
 NMat=     1 NSing=     0 JSym2X= 2.
 CoulSu:  requested number of processors reduced to:  21 ShMem   1 Linda.
 NMat=     1 NSing=     0 JSym2X= 2.
 CoulSu:  requested number of processors reduced to:  21 ShMem   1 Linda.
 NMat=     1 NSing=     0 JSym2X= 2.
 CoulSu:  requested number of processors reduced to:  21 ShMem   1 Linda.
 NMat=     1 NSing=     0 JSym2X= 2.
 CoulSu:  requested number of processors reduced to:  21 ShMem   1 Linda.
 DSYEVD-2 returned Info=          97 IAlg= 4 N=    48 NDim=    48 NE2=     2036993 trying  DSYEV.
 Root      1 not converged, maximum delta is    0.159544669460341
 Excitation Energies [eV] at current iteration:
 Root      1 :     9.900596424493299   Change is   -0.859236529520136
 Root      2 :     9.900596424500604   Change is   -0.859236529523803
 Root      3 :    10.723884377987210   Change is   -0.334217221482794
 Root      4 :    10.723884377991640   Change is   -0.334217221484865
 Root      5 :    12.333705523775130   Change is   -1.752420585725110
 Root      6 :    12.790504043519630   Change is   -0.302630871970204
 Root      7 :    12.792115444992860   Change is   -0.311623634801679
 Root      8 :    12.812103161024340   Change is   -0.316333831792160
 Root      9 :    12.903661705690850   Change is   -0.195538245621330
 Root     10 :    12.903661705740770   Change is   -0.195538245645812
 Root     11 :    13.060199275687300   Change is   -0.209778533681213
 Root     12 :    13.062103628972260   Change is   -0.231360808666236
 Root     13 :    13.129088678783670   Change is   -0.144813517452274
 Root     14 :    13.129088678802800   Change is   -0.144813517461746
 Root     15 :    13.145945765192400   Change is   -0.057021409488733
 Root     16 :    13.145949779803520   Change is   -0.057385045812671
 Root     17 :    13.695330459094080   Change is   -0.318848133766338
 Root     18 :    15.105624294734510   Change is   -0.717734812642025
 Root     19 :    16.003858362688220   Change is   -0.073083413674540
 Root     20 :    16.005346822265760   Change is   -0.073416455803773
 Root     21 :    16.027791132813580   Change is   -0.206482272379873
 Root     22 :    16.073021391492540   Change is   -0.140195850322361
 Root     23 :    16.093018202630210   Change is   -0.337610244261490
 Root     24 :    16.213249130335630   Change is   -1.990538102289959
 Iteration     3 Dimension    54 NMult    48 NNew      6
 Estimated number of processors is:   20
 CISAX will form     1 AO SS matrices at one time.
 NMat=     1 NSing=     1 JSym2X= 2.
 CoulSu:  requested number of processors reduced to:  21 ShMem   1 Linda.
 NMat=     1 NSing=     1 JSym2X= 2.
 CoulSu:  requested number of processors reduced to:  21 ShMem   1 Linda.
 NMat=     1 NSing=     1 JSym2X= 2.
 CoulSu:  requested number of processors reduced to:  21 ShMem   1 Linda.
 NMat=     1 NSing=     0 JSym2X= 2.
 CoulSu:  requested number of processors reduced to:  21 ShMem   1 Linda.
 NMat=     1 NSing=     0 JSym2X= 2.
 CoulSu:  requested number of processors reduced to:  21 ShMem   1 Linda.
 NMat=     1 NSing=     0 JSym2X= 2.
 CoulSu:  requested number of processors reduced to:  21 ShMem   1 Linda.
 DSYEVD-2 returned Info=         109 IAlg= 4 N=    54 NDim=    54 NE2=     1810660 trying  DSYEV.
 Root      1 not converged, maximum delta is    0.055557402512363
 Excitation Energies [eV] at current iteration:
 Root      1 :     9.872050556203758   Change is   -0.028545868289541
 Root      2 :     9.872050556208045   Change is   -0.028545868292559
 Root      3 :    10.708837585193940   Change is   -0.015046792793272
 Root      4 :    10.708837585197820   Change is   -0.015046792793818
 Root      5 :    12.211418217605010   Change is   -0.122287306170124
 Root      6 :    13.058872058177260   Change is   -0.001327217510037
 Iteration     4 Dimension    60 NMult    54 NNew      6
 Estimated number of processors is:   20
 CISAX will form     1 AO SS matrices at one time.
 NMat=     1 NSing=     1 JSym2X= 2.
 CoulSu:  requested number of processors reduced to:  21 ShMem   1 Linda.
 NMat=     1 NSing=     1 JSym2X= 2.
 CoulSu:  requested number of processors reduced to:  21 ShMem   1 Linda.
 NMat=     1 NSing=     1 JSym2X= 2.
 CoulSu:  requested number of processors reduced to:  21 ShMem   1 Linda.
 NMat=     1 NSing=     0 JSym2X= 2.
 CoulSu:  requested number of processors reduced to:  21 ShMem   1 Linda.
 NMat=     1 NSing=     0 JSym2X= 2.
 CoulSu:  requested number of processors reduced to:  21 ShMem   1 Linda.
 NMat=     1 NSing=     0 JSym2X= 2.
 CoulSu:  requested number of processors reduced to:  21 ShMem   1 Linda.
 Root      1 not converged, maximum delta is    0.002891113859971
 Excitation Energies [eV] at current iteration:
 Root      1 :     9.871578710627638   Change is   -0.000471845576121
 Root      2 :     9.871578710631827   Change is   -0.000471845576217
 Root      3 :    10.707931010023060   Change is   -0.000906575170882
 Root      4 :    10.707931010026890   Change is   -0.000906575170933
 Root      5 :    12.204557439252720   Change is   -0.006860778352286
 Root      6 :    13.058867538199220   Change is   -0.000004519978040
 Iteration     5 Dimension    66 NMult    60 NNew      6
 Estimated number of processors is:   20
 CISAX will form     1 AO SS matrices at one time.
 NMat=     1 NSing=     1 JSym2X= 2.
 CoulSu:  requested number of processors reduced to:  21 ShMem   1 Linda.
 NMat=     1 NSing=     1 JSym2X= 2.
 CoulSu:  requested number of processors reduced to:  21 ShMem   1 Linda.
 NMat=     1 NSing=     1 JSym2X= 2.
 CoulSu:  requested number of processors reduced to:  21 ShMem   1 Linda.
 NMat=     1 NSing=     0 JSym2X= 2.
 CoulSu:  requested number of processors reduced to:  21 ShMem   1 Linda.
 NMat=     1 NSing=     0 JSym2X= 2.
 CoulSu:  requested number of processors reduced to:  21 ShMem   1 Linda.
 NMat=     1 NSing=     0 JSym2X= 2.
 CoulSu:  requested number of processors reduced to:  21 ShMem   1 Linda.
 Root      1 not converged, maximum delta is    0.001037440965200
 Excitation Energies [eV] at current iteration:
 Root      1 :     9.871567115569301   Change is   -0.000011595058336
 Root      2 :     9.871567115573452   Change is   -0.000011595058376
 Root      3 :    10.707893282633540   Change is   -0.000037727389522
 Root      4 :    10.707893282637380   Change is   -0.000037727389509
 Root      5 :    12.204162169164300   Change is   -0.000395270088423
 Root      6 :    13.058866126068990   Change is   -0.000001412130236
 Iteration     6 Dimension    72 NMult    66 NNew      6
 Estimated number of processors is:   20
 CISAX will form     1 AO SS matrices at one time.
 NMat=     1 NSing=     1 JSym2X= 2.
 CoulSu:  requested number of processors reduced to:  21 ShMem   1 Linda.
 NMat=     1 NSing=     1 JSym2X= 2.
 CoulSu:  requested number of processors reduced to:  21 ShMem   1 Linda.
 NMat=     1 NSing=     1 JSym2X= 2.
 CoulSu:  requested number of processors reduced to:  21 ShMem   1 Linda.
 NMat=     1 NSing=     0 JSym2X= 2.
 CoulSu:  requested number of processors reduced to:  21 ShMem   1 Linda.
 NMat=     1 NSing=     0 JSym2X= 2.
 CoulSu:  requested number of processors reduced to:  21 ShMem   1 Linda.
 NMat=     1 NSing=     0 JSym2X= 2.
 CoulSu:  requested number of processors reduced to:  21 ShMem   1 Linda.
 Root      1 not converged, maximum delta is    0.001607140918722
 Excitation Energies [eV] at current iteration:
 Root      1 :     9.871567016264036   Change is   -0.000000099305265
 Root      2 :     9.871567016268248   Change is   -0.000000099305204
 Root      3 :    10.707892360150130   Change is   -0.000000922483408
 Root      4 :    10.707892360153970   Change is   -0.000000922483408
 Root      5 :    12.204140698060770   Change is   -0.000021471103530
 Root      6 :    13.058852579834250   Change is   -0.000013546234737
 Iteration     7 Dimension    78 NMult    72 NNew      6
 Estimated number of processors is:   20
 CISAX will form     1 AO SS matrices at one time.
 NMat=     1 NSing=     1 JSym2X= 2.
 CoulSu:  requested number of processors reduced to:  21 ShMem   1 Linda.
 NMat=     1 NSing=     1 JSym2X= 2.
 CoulSu:  requested number of processors reduced to:  21 ShMem   1 Linda.
 NMat=     1 NSing=     1 JSym2X= 2.
 CoulSu:  requested number of processors reduced to:  21 ShMem   1 Linda.
 NMat=     1 NSing=     0 JSym2X= 2.
 CoulSu:  requested number of processors reduced to:  21 ShMem   1 Linda.
 NMat=     1 NSing=     0 JSym2X= 2.
 CoulSu:  requested number of processors reduced to:  21 ShMem   1 Linda.
 NMat=     1 NSing=     0 JSym2X= 2.
 CoulSu:  requested number of processors reduced to:  21 ShMem   1 Linda.
 Root      1 not converged, maximum delta is    0.001451107032888
 Excitation Energies [eV] at current iteration:
 Root      1 :     9.871567014484674   Change is   -0.000000001779362
 Root      2 :     9.871567014488852   Change is   -0.000000001779395
 Root      3 :    10.707892353863000   Change is   -0.000000006287132
 Root      4 :    10.707892353866820   Change is   -0.000000006287144
 Root      5 :    12.204139929089520   Change is   -0.000000768971243
 Root      6 :    13.058847419348710   Change is   -0.000005160485548
 Convergence on energies, max DE= 5.16D-06.
 Convergence on expansion vectors.
 ***********************************************************************
 Stability analysis using <AA,BB:AA,BB> singles matrix:
 ***********************************************************************
 1PDM for each excited state written to RWF  633
 Ground to excited state transition densities written to RWF  633

 Eigenvectors of the stability matrix:
 
 Excited state symmetry could not be determined.
 Eigenvector   1:      Triplet-?Sym  Eigenvalue= 0.3627734  <S**2>=2.000
       4 ->  6         0.54537
       4 ->  7         0.10202
       4 -> 14        -0.15990
       5 ->  6         0.36433
       5 -> 14        -0.10682
 
 Excited state symmetry could not be determined.
 Eigenvector   2:      Triplet-?Sym  Eigenvalue= 0.3627734  <S**2>=2.000
       4 ->  6        -0.36433
       4 -> 14         0.10682
       5 ->  6         0.54537
       5 ->  7         0.10202
       5 -> 14        -0.15990
 
 Excited state symmetry could not be determined.
 Eigenvector   3:      Singlet-?Sym  Eigenvalue= 0.3935078  <S**2>=0.000
       4 ->  6         0.67204
       4 -> 14        -0.11362
       5 ->  6         0.12829
 
 Excited state symmetry could not be determined.
 Eigenvector   4:      Singlet-?Sym  Eigenvalue= 0.3935078  <S**2>=0.000
       4 ->  6        -0.12829
       5 ->  6         0.67204
       5 -> 14        -0.11362
 
 Eigenvector   5:      Triplet-SG   Eigenvalue= 0.4484939  <S**2>=2.000
       3 ->  6         0.61000
       3 -> 13        -0.17610
       3 -> 14        -0.26967
 
 Excited state symmetry could not be determined.
 Eigenvector   6:      Singlet-?Sym  Eigenvalue= 0.4799038  <S**2>=0.000
       4 ->  8         0.48887
       5 ->  9         0.48886
 The wavefunction is stable under the perturbations considered.
 Leave Link  914 at Sat Apr 17 19:10:30 2021, MaxMem=   104857600 cpu:            2722.6 elap:              80.1
 (Enter /s/ls4/users/knvvv/bin/g16sse/l508.exe)
 The wavefunction is already stable.
 Leave Link  508 at Sat Apr 17 19:10:30 2021, MaxMem=   104857600 cpu:               2.2 elap:               0.1
 (Enter /s/ls4/users/knvvv/bin/g16sse/l601.exe)
 Copying SCF densities to generalized density rwf, IOpCl= 0 IROHF=0.

 **********************************************************************

            Population analysis using the SCF density.

 **********************************************************************

 Orbital symmetries:
       Occupied  (SG) (SG) (SG) (PI) (PI)
       Virtual   (SG) (SG) (PI) (PI) (PI) (PI) (SG) (SG) (SG) (DLTA)
                 (DLTA) (PI) (PI) (SG) (PI) (PI) (SG) (PI) (PI)
                 (SG) (SG) (SG) (DLTA) (DLTA) (PI) (PI) (PI) (PI)
                 (SG) (DLTA) (DLTA) (SG) (PI) (PI) (SG) (PI) (PI)
                 (SG) (SG) (PHI) (PHI) (DLTA) (DLTA) (PI) (PI)
                 (SG) (DLTA) (DLTA) (PI) (PI) (SG) (PHI) (PHI)
                 (SG) (PI) (PI) (DLTA) (DLTA) (SG) (PI) (PI) (DLTA)
                 (DLTA) (PI) (PI) (SG) (SG) (PI) (PI) (?A) (?A)
                 (PHI) (PHI) (DLTA) (DLTA) (SG) (SG) (PI) (PI)
                 (PHI) (PHI) (DLTA) (DLTA) (SG) (PI) (PI) (DLTA)
                 (DLTA) (SG) (PI) (PI) (SG) (SG) (SG)
 The electronic state is 1-SG.
 Alpha  occ. eigenvalues --  -25.23761  -1.34727  -0.64417  -0.51886  -0.51886
 Alpha virt. eigenvalues --    0.02254   0.06530   0.07122   0.07122   0.18403
 Alpha virt. eigenvalues --    0.18403   0.19066   0.27143   0.33372   0.44043
 Alpha virt. eigenvalues --    0.44043   0.49845   0.49845   0.54286   0.56999
 Alpha virt. eigenvalues --    0.56999   0.74228   0.83625   0.83625   0.92299
 Alpha virt. eigenvalues --    1.09177   1.39736   1.66137   1.66137   1.76073
 Alpha virt. eigenvalues --    1.76073   1.86873   1.86873   1.93435   2.07987
 Alpha virt. eigenvalues --    2.07987   2.33778   2.47229   2.47229   2.69701
 Alpha virt. eigenvalues --    2.80955   2.80955   3.23531   4.13618   4.15561
 Alpha virt. eigenvalues --    4.15561   4.43483   4.43483   5.04555   5.04555
 Alpha virt. eigenvalues --    5.19054   5.24782   5.24782   5.47272   5.47272
 Alpha virt. eigenvalues --    5.56797   5.77661   5.77661   5.93418   6.26458
 Alpha virt. eigenvalues --    6.26458   6.75493   6.75493   7.31670   7.37272
 Alpha virt. eigenvalues --    7.37272   7.61350   7.61350   7.68214   7.68214
 Alpha virt. eigenvalues --    7.68309   9.03449   9.27214   9.27214  11.35262
 Alpha virt. eigenvalues --   11.35263  11.46465  11.46465  12.31242  12.31242
 Alpha virt. eigenvalues --   12.33947  12.99218  13.32479  13.32479  14.45529
 Alpha virt. eigenvalues --   14.45529  14.71933  14.71933  14.95323  15.21481
 Alpha virt. eigenvalues --   15.21481  15.85891  15.85892  16.50327  16.97698
 Alpha virt. eigenvalues --   16.97698  18.96504  54.72161 283.68533
          Condensed to atoms (all electrons):
               1          2
     1  F    9.230581   0.204196
     2  H    0.204196   0.361027
 Mulliken charges:
               1
     1  F   -0.434777
     2  H    0.434777
 Sum of Mulliken charges =  -0.00000
 Mulliken charges with hydrogens summed into heavy atoms:
               1
     1  F   -0.000000
 Electronic spatial extent (au):  <R**2>=             14.0913
 Charge=             -0.0000 electrons
 Dipole moment (field-independent basis, Debye):
    X=              0.0000    Y=             -0.0000    Z=             -1.8375  Tot=              1.8375
 Quadrupole moment (field-independent basis, Debye-Ang):
   XX=             -5.8125   YY=             -5.8125   ZZ=             -3.7030
   XY=             -0.0000   XZ=              0.0000   YZ=             -0.0000
 Traceless Quadrupole moment (field-independent basis, Debye-Ang):
   XX=             -0.7032   YY=             -0.7032   ZZ=              1.4064
   XY=             -0.0000   XZ=              0.0000   YZ=             -0.0000
 Octapole moment (field-independent basis, Debye-Ang**2):
  XXX=              0.0000  YYY=             -0.0000  ZZZ=             -1.8245  XYY=              0.0000
  XXY=             -0.0000  XXZ=             -0.1175  XZZ=              0.0000  YZZ=             -0.0000
  YYZ=             -0.1175  XYZ=             -0.0000
 Hexadecapole moment (field-independent basis, Debye-Ang**3):
 XXXX=             -4.1060 YYYY=             -4.1060 ZZZZ=             -3.5758 XXXY=              0.0000
 XXXZ=              0.0000 YYYX=              0.0000 YYYZ=              0.0000 ZZZX=              0.0000
 ZZZY=             -0.0000 XXYY=             -1.3687 XXZZ=             -1.5327 YYZZ=             -1.5327
 XXYZ=              0.0000 YYXZ=              0.0000 ZZXY=              0.0000
 N-N= 5.200650926467D+00 E-N=-2.507078863671D+02  KE= 1.002015124281D+02
 PrsmSu:  requested number of processors reduced to:  21 ShMem   1 Linda.
 No NMR shielding tensors so no spin-rotation constants.
 Leave Link  601 at Sat Apr 17 19:10:31 2021, MaxMem=   104857600 cpu:              44.0 elap:               1.1
 (Enter /s/ls4/users/knvvv/bin/g16sse/l9999.exe)

 Test job not archived.
 1\1\GINC-N305\Stability\RM062X\Gen\F1H1\KNVVV\17-Apr-2021\0\\#P M062X/
 GEN Integral=UltraFineGrid SCF=NoSymm Stable=(RExt, Opt) IOp(1/33=1)\\
 Database calculations.\\0,1\F,0,0.,0.,0.\H,0,0.,0.,0.915769\\Version=E
 S64L-G16RevA.03\State=1-SG\HF=-100.461539\RMSD=7.119e-09\Dipole=0.,0.,
 0.7229393\Quadrupole=-0.5227948,-0.5227948,1.0455895,0.,0.,0.\PG=C*V [
 C*(H1F1)]\\@


 THE NUMBERS ARE MEANINGLESS, BUT THE TRENDS ARE IMPORTANT.
     -- LARRY BURGGRAF
 Job cpu time:       0 days  0 hours 54 minutes 35.9 seconds.
 Elapsed time:       0 days  0 hours  1 minutes 35.0 seconds.
 File lengths (MBytes):  RWF=     44 Int=      0 D2E=      0 Chk=      3 Scr=      1
 Normal termination of Gaussian 16 at Sat Apr 17 19:10:31 2021.
