 Entering Gaussian System, Link 0=/s/ls4/users/knvvv/bin/g16sse/g16
 Input=data/database/M062X--MG3S--MN_55_hf_lower_BH76.gjf
 Output=data/database/M062X--MG3S--MN_55_hf_lower_BH76.log
 Initial command:
 /s/ls4/users/knvvv/bin/g16sse/l1.exe "/s/ls4/users/knvvv/bin/scratch/Gau-27362.inp" -scrdir="/s/ls4/users/knvvv/bin/scratch/"
 Entering Link 1 = /s/ls4/users/knvvv/bin/g16sse/l1.exe PID=     27363.
  
 Copyright (c) 1988,1990,1992,1993,1995,1998,2003,2009,2016,
            Gaussian, Inc.  All Rights Reserved.
  
 This is part of the Gaussian(R) 16 program.  It is based on
 the Gaussian(R) 09 system (copyright 2009, Gaussian, Inc.),
 the Gaussian(R) 03 system (copyright 2003, Gaussian, Inc.),
 the Gaussian(R) 98 system (copyright 1998, Gaussian, Inc.),
 the Gaussian(R) 94 system (copyright 1995, Gaussian, Inc.),
 the Gaussian 92(TM) system (copyright 1992, Gaussian, Inc.),
 the Gaussian 90(TM) system (copyright 1990, Gaussian, Inc.),
 the Gaussian 88(TM) system (copyright 1988, Gaussian, Inc.),
 the Gaussian 86(TM) system (copyright 1986, Carnegie Mellon
 University), and the Gaussian 82(TM) system (copyright 1983,
 Carnegie Mellon University). Gaussian is a federally registered
 trademark of Gaussian, Inc.
  
 This software contains proprietary and confidential information,
 including trade secrets, belonging to Gaussian, Inc.
  
 This software is provided under written license and may be
 used, copied, transmitted, or stored only in accord with that
 written license.
  
 The following legend is applicable only to US Government
 contracts under FAR:
  
                    RESTRICTED RIGHTS LEGEND
  
 Use, reproduction and disclosure by the US Government is
 subject to restrictions as set forth in subparagraphs (a)
 and (c) of the Commercial Computer Software - Restricted
 Rights clause in FAR 52.227-19.
  
 Gaussian, Inc.
 340 Quinnipiac St., Bldg. 40, Wallingford CT 06492
  
  
 ---------------------------------------------------------------
 Warning -- This program may not be used in any manner that
 competes with the business of Gaussian, Inc. or will provide
 assistance to any competitor of Gaussian, Inc.  The licensee
 of this program is prohibited from giving any competitor of
 Gaussian, Inc. access to this program.  By using this program,
 the user acknowledges that Gaussian, Inc. is engaged in the
 business of creating and licensing software in the field of
 computational chemistry and represents and warrants to the
 licensee that it is not a competitor of Gaussian, Inc. and that
 it will not use this program in any manner prohibited above.
 ---------------------------------------------------------------
  

 Cite this work as:
 Gaussian 16, Revision A.03,
 M. J. Frisch, G. W. Trucks, H. B. Schlegel, G. E. Scuseria, 
 M. A. Robb, J. R. Cheeseman, G. Scalmani, V. Barone, 
 G. A. Petersson, H. Nakatsuji, X. Li, M. Caricato, A. V. Marenich, 
 J. Bloino, B. G. Janesko, R. Gomperts, B. Mennucci, H. P. Hratchian, 
 J. V. Ortiz, A. F. Izmaylov, J. L. Sonnenberg, D. Williams-Young, 
 F. Ding, F. Lipparini, F. Egidi, J. Goings, B. Peng, A. Petrone, 
 T. Henderson, D. Ranasinghe, V. G. Zakrzewski, J. Gao, N. Rega, 
 G. Zheng, W. Liang, M. Hada, M. Ehara, K. Toyota, R. Fukuda, 
 J. Hasegawa, M. Ishida, T. Nakajima, Y. Honda, O. Kitao, H. Nakai, 
 T. Vreven, K. Throssell, J. A. Montgomery, Jr., J. E. Peralta, 
 F. Ogliaro, M. J. Bearpark, J. J. Heyd, E. N. Brothers, K. N. Kudin, 
 V. N. Staroverov, T. A. Keith, R. Kobayashi, J. Normand, 
 K. Raghavachari, A. P. Rendell, J. C. Burant, S. S. Iyengar, 
 J. Tomasi, M. Cossi, J. M. Millam, M. Klene, C. Adamo, R. Cammi, 
 J. W. Ochterski, R. L. Martin, K. Morokuma, O. Farkas, 
 J. B. Foresman, and D. J. Fox, Gaussian, Inc., Wallingford CT, 2016.
 
 ******************************************
 Gaussian 16:  ES64L-G16RevA.03 25-Dec-2016
                18-Apr-2021 
 ******************************************
 %RWF=temp12_24026,70GB
 %nprocshared=48
 Will use up to   48 processors via shared memory.
 Default route: MaxDisk=80GB
 ----------------------------------------------------------------------
 #P M062X/GEN Integral=UltraFineGrid SCF=NoSymm Stable=(RExt, Opt) IOp(
 1/33=1)
 ----------------------------------------------------------------------
 1/33=1,38=1,172=1/1;
 2/12=2,17=6,18=5,40=1/2;
 3/5=7,11=2,25=1,30=1,74=-55,75=-5/1,2,3;
 4/9=2/1;
 5/5=2,38=5/2;
 6/7=2,8=2,9=2,10=2,28=1/1;
 8/6=1,10=90,11=11/1;
 9/8=-3,42=1,46=1/14;
 5/5=2,8=3,17=40,38=5/8(-2);
 6/7=2,8=2,9=2,10=2,28=1/1;
 99/5=1,9=1/99;
 Leave Link    1 at Sun Apr 18 10:06:19 2021, MaxMem=           0 cpu:              11.0 elap:               0.2
 (Enter /s/ls4/users/knvvv/bin/g16sse/l101.exe)
 ONIOM data not found on unit 2.
 ----------------------
 Database calculations.
 ----------------------
 TstMul:  ICh=     0
 TstMul:  Mul=     1
 TstMul:  ICh=     0
 TstMul:  Mul=     1
 Symbolic Z-matrix:
 Charge =  0 Multiplicity = 1
 F                     0.        0.        0.09154 
 H                     0.        0.       -0.82384 
 
 RdStrC is calling ZToCFu for IStruc=1 NZ=     2.
 PrtBox:  NBox=     1 Levels=  0 BoxLen=    8.00 SMaxX=        1.73
          Shift=            0.000000            0.000000            1.556840
 Box      1 Number                   0 centers from      1 to      2:
 After GenITR:
 ITRead=  0  0
 MicOpt= -1 -1
 ITRead=  0  0
 MicOpt= -1 -1
 NAtoms=      2 NQM=        2 NQMF=       0 NMMI=      0 NMMIF=      0
                NMic=       0 NMicF=      0.
                    Isotopes and Nuclear Properties:
 (Nuclear quadrupole moments (NQMom) in fm**2, nuclear magnetic moments (NMagM)
  in nuclear magnetons)

  Atom         1           2
 IAtWgt=          19           1
 AtmWgt=  18.9984033   1.0078250
 NucSpn=           1           1
 AtZEff=  -0.0000000  -0.0000000
 NQMom=    0.0000000   0.0000000
 NMagM=    2.6288670   2.7928460
 AtZNuc=   9.0000000   1.0000000
 No MM parameters found.
 Leave Link  101 at Sun Apr 18 10:06:19 2021, MaxMem=   104857600 cpu:               6.9 elap:               0.2
 (Enter /s/ls4/users/knvvv/bin/g16sse/l202.exe)
                          Input orientation:                          
 ---------------------------------------------------------------------
 Center     Atomic      Atomic             Coordinates (Angstroms)
 Number     Number       Type             X           Y           Z
 ---------------------------------------------------------------------
      1          9           0        0.000000    0.000000    0.091538
      2          1           0        0.000000    0.000000   -0.823844
 ---------------------------------------------------------------------
 Stoichiometry    FH
 Framework group  C*V[C*(HF)]
 Deg. of freedom     1
 Full point group                 C*V     NOp   4
 Largest Abelian subgroup         C2V     NOp   4
 Largest concise Abelian subgroup C1      NOp   1
                         Standard orientation:                         
 ---------------------------------------------------------------------
 Center     Atomic      Atomic             Coordinates (Angstroms)
 Number     Number       Type             X           Y           Z
 ---------------------------------------------------------------------
      1          9           0        0.000000    0.000000    0.091538
      2          1           0        0.000000    0.000000   -0.823844
 ---------------------------------------------------------------------
 Rotational constants (GHZ):           0.0000000         630.1951796         630.1951796
 Leave Link  202 at Sun Apr 18 10:06:19 2021, MaxMem=   104857600 cpu:               5.9 elap:               0.1
 (Enter /s/ls4/users/knvvv/bin/g16sse/l301.exe)
 General basis read from cards:  (5D, 7F)
 Centers:       2
 S 3 1.00
     Exponent=  3.3865000000D+01 Coefficients=  2.5493800000D-02
     Exponent=  5.0947900000D+00 Coefficients=  1.9037300000D-01
     Exponent=  1.1587900000D+00 Coefficients=  8.5216100000D-01
 S 1 1.00
     Exponent=  3.2584000000D-01 Coefficients=  1.0000000000D+00
 S 1 1.00
     Exponent=  1.0274100000D-01 Coefficients=  1.0000000000D+00
 P 1 1.00
     Exponent=  1.5000000000D+00 Coefficients=  1.0000000000D+00
 P 1 1.00
     Exponent=  3.7500000000D-01 Coefficients=  1.0000000000D+00
 ****
 Centers:       1
 S 6 1.00
     Exponent=  1.1427100000D+04 Coefficients=  1.8009300000D-03
     Exponent=  1.7223500000D+03 Coefficients=  1.3741900000D-02
     Exponent=  3.9574600000D+02 Coefficients=  6.8133400000D-02
     Exponent=  1.1513900000D+02 Coefficients=  2.3332500000D-01
     Exponent=  3.3602600000D+01 Coefficients=  5.8908600000D-01
     Exponent=  4.9190100000D+00 Coefficients=  2.9950500000D-01
 S 3 1.00
     Exponent=  5.5444100000D+01 Coefficients=  1.1453600000D-01
     Exponent=  1.2632300000D+01 Coefficients=  9.2051200000D-01
     Exponent=  3.7175600000D+00 Coefficients= -3.3780400000D-03
 S 1 1.00
     Exponent=  1.1654500000D+00 Coefficients=  1.0000000000D+00
 S 1 1.00
     Exponent=  3.2189200000D-01 Coefficients=  1.0000000000D+00
 S 1 1.00
     Exponent=  1.0760000000D-01 Coefficients=  1.0000000000D+00
 P 3 1.00
     Exponent=  5.5444100000D+01 Coefficients=  3.5460900000D-02
     Exponent=  1.2632300000D+01 Coefficients=  2.3745100000D-01
     Exponent=  3.7175600000D+00 Coefficients=  8.2045800000D-01
 P 1 1.00
     Exponent=  1.1654500000D+00 Coefficients=  1.0000000000D+00
 P 1 1.00
     Exponent=  3.2189200000D-01 Coefficients=  1.0000000000D+00
 P 1 1.00
     Exponent=  1.0760000000D-01 Coefficients=  1.0000000000D+00
 D 1 1.00
     Exponent=  3.5000000000D+00 Coefficients=  1.0000000000D+00
 D 1 1.00
     Exponent=  8.7500000000D-01 Coefficients=  1.0000000000D+00
 F 1 1.00
     Exponent=  1.8500000000D+00 Coefficients=  1.0000000000D+00
 ****
 Ernie: Thresh=  0.10000D-02 Tol=  0.10000D-05 Strict=F.
 There are    23 symmetry adapted cartesian basis functions of A1  symmetry.
 There are     3 symmetry adapted cartesian basis functions of A2  symmetry.
 There are    11 symmetry adapted cartesian basis functions of B1  symmetry.
 There are    11 symmetry adapted cartesian basis functions of B2  symmetry.
 There are    20 symmetry adapted basis functions of A1  symmetry.
 There are     3 symmetry adapted basis functions of A2  symmetry.
 There are    10 symmetry adapted basis functions of B1  symmetry.
 There are    10 symmetry adapted basis functions of B2  symmetry.
    43 basis functions,    63 primitive gaussians,    48 cartesian basis functions
     5 alpha electrons        5 beta electrons
       nuclear repulsion energy         5.2028474614 Hartrees.
 IExCor= 4336 DFT=T Ex+Corr=M062X ExCW=0 ScaHFX=  0.540000
 ScaDFX=  1.000000  1.000000  1.000000  1.000000 ScalE2=  1.000000  1.000000
 IRadAn=      5 IRanWt=     -1 IRanGd=            0 ICorTp=0 IEmpDi=  4
 NAtoms=    2 NActive=    2 NUniq=    2 SFac= 1.00D+00 NAtFMM=   60 NAOKFM=F Big=F
 Integral buffers will be    131072 words long.
 Raffenetti 2 integral format.
 Two-electron integral symmetry is turned on.
 Leave Link  301 at Sun Apr 18 10:06:19 2021, MaxMem=   104857600 cpu:               5.5 elap:               0.1
 (Enter /s/ls4/users/knvvv/bin/g16sse/l302.exe)
 NPDir=0 NMtPBC=     1 NCelOv=     1 NCel=       1 NClECP=     1 NCelD=      1
         NCelK=      1 NCelE2=     1 NClLst=     1 CellRange=     0.0.
 One-electron integrals computed using PRISM.
 One-electron integral symmetry used in STVInt
 PrsmSu:  requested number of processors reduced to:  13 ShMem   1 Linda.
 NBasis=    43 RedAO= T EigKep=  5.13D-03  NBF=    20     3    10    10
 NBsUse=    43 1.00D-06 EigRej= -1.00D+00 NBFU=    20     3    10    10
 Precomputing XC quadrature grid using
 IXCGrd= 4 IRadAn=           5 IRanWt=          -1 IRanGd=           0 AccXCQ= 0.00D+00.
 Generated NRdTot=       0 NPtTot=           0 NUsed=           0 NTot=          32
 NSgBfM=    48    48    48    48    48 MxSgAt=     2 MxSgA2=     2.
 Leave Link  302 at Sun Apr 18 10:06:20 2021, MaxMem=   104857600 cpu:              42.6 elap:               0.9
 (Enter /s/ls4/users/knvvv/bin/g16sse/l303.exe)
 DipDrv:  MaxL=1.
 Leave Link  303 at Sun Apr 18 10:06:20 2021, MaxMem=   104857600 cpu:              10.3 elap:               0.2
 (Enter /s/ls4/users/knvvv/bin/g16sse/l401.exe)
 SCF N**3 symmetry information disabled.
 ExpMin= 1.03D-01 ExpMax= 1.14D+04 ExpMxC= 1.72D+03 IAcc=3 IRadAn=         5 AccDes= 0.00D+00
 Harris functional with IExCor= 1009 and IRadAn=       5 diagonalized for initial guess.
 HarFok:  IExCor= 1009 AccDes= 0.00D+00 IRadAn=         5 IDoV= 1 UseB2=F ITyADJ=14
 ICtDFT=  3500011 ScaDFX=  1.000000  1.000000  1.000000  1.000000
 FoFCou: FMM=F IPFlag=           0 FMFlag=      100000 FMFlg1=           0
         NFxFlg=           0 DoJE=T BraDBF=F KetDBF=T FulRan=T
         wScrn=  0.000000 ICntrl=       500 IOpCl=  0 I1Cent=   200000004 NGrid=           0
         NMat0=    1 NMatS0=      1 NMatT0=    0 NMatD0=    1 NMtDS0=    0 NMtDT0=    0
 Petite list used in FoFCou.
 Harris En= -100.398010245601    
 JPrj=0 DoOrth=F DoCkMO=F.
 Initial guess orbital symmetries:
       Occupied  (SG) (SG) (SG) (PI) (PI)
       Virtual   (SG) (SG) (PI) (PI) (SG) (SG) (PI) (PI) (SG) (PI)
                 (PI) (SG) (SG) (DLTA) (DLTA) (SG) (PI) (PI) (SG)
                 (PI) (PI) (SG) (PI) (PI) (SG) (DLTA) (DLTA) (PHI)
                 (PHI) (PI) (PI) (SG) (DLTA) (DLTA) (PI) (PI) (SG)
                 (SG)
 The electronic state of the initial guess is 1-SG.
 Leave Link  401 at Sun Apr 18 10:06:22 2021, MaxMem=   104857600 cpu:              64.3 elap:               1.4
 (Enter /s/ls4/users/knvvv/bin/g16sse/l502.exe)
 Keep R1 ints in memory in symmetry-blocked form, NReq=42307952.
 FoFCou: FMM=F IPFlag=           0 FMFlag=           0 FMFlg1=           0
         NFxFlg=           0 DoJE=F BraDBF=F KetDBF=F FulRan=T
         wScrn=  0.000000 ICntrl=       600 IOpCl=  0 I1Cent=           0 NGrid=           0
         NMat0=    1 NMatS0=    946 NMatT0=    0 NMatD0=    1 NMtDS0=    0 NMtDT0=    0
 Petite list used in FoFCou.
 Closed shell SCF:
 Using DIIS extrapolation, IDIIS=  1040.
 NGot=   104857600 LenX=   104727086 LenY=   104724341
 Requested convergence on RMS density matrix=1.00D-08 within 128 cycles.
 Requested convergence on MAX density matrix=1.00D-06.
 Requested convergence on             energy=1.00D-06.
 No special actions if energy rises.
 Integral accuracy reduced to 1.0D-05 until final iterations.

 Cycle   1  Pass 0  IDiag  1:
 E= -100.420722288020    
 DIIS: error= 3.23D-02 at cycle   1 NSaved=   1.
 NSaved= 1 IEnMin= 1 EnMin= -100.420722288020     IErMin= 1 ErrMin= 3.23D-02
 ErrMax= 3.23D-02  0.00D+00 EMaxC= 1.00D-01 BMatC= 5.10D-02 BMatP= 5.10D-02
 IDIUse=3 WtCom= 6.77D-01 WtEn= 3.23D-01
 Coeff-Com:  0.100D+01
 Coeff-En:   0.100D+01
 Coeff:      0.100D+01
 Gap=     0.472 Goal=   None    Shift=    0.000
 GapD=    0.472 DampG=2.000 DampE=0.500 DampFc=1.0000 IDamp=-1.
 RMSDP=3.88D-03 MaxDP=5.18D-02              OVMax= 9.46D-02

 Cycle   2  Pass 0  IDiag  1:
 E= -100.414968116198     Delta-E=        0.005754171822 Rises=F Damp=F
 DIIS: error= 4.23D-02 at cycle   2 NSaved=   2.
 NSaved= 2 IEnMin= 1 EnMin= -100.420722288020     IErMin= 1 ErrMin= 3.23D-02
 ErrMax= 4.23D-02  0.00D+00 EMaxC= 1.00D-01 BMatC= 5.70D-02 BMatP= 5.10D-02
 IDIUse=2 WtCom= 0.00D+00 WtEn= 1.00D+00
 Coeff-En:   0.550D+00 0.450D+00
 Coeff:      0.550D+00 0.450D+00
 Gap=     0.553 Goal=   None    Shift=    0.000
 RMSDP=1.94D-03 MaxDP=3.07D-02 DE= 5.75D-03 OVMax= 4.47D-02

 Cycle   3  Pass 0  IDiag  1:
 E= -100.445930374319     Delta-E=       -0.030962258122 Rises=F Damp=F
 DIIS: error= 1.34D-03 at cycle   3 NSaved=   3.
 NSaved= 3 IEnMin= 3 EnMin= -100.445930374319     IErMin= 3 ErrMin= 1.34D-03
 ErrMax= 1.34D-03  0.00D+00 EMaxC= 1.00D-01 BMatC= 6.03D-05 BMatP= 5.10D-02
 IDIUse=3 WtCom= 9.87D-01 WtEn= 1.34D-02
 Coeff-Com:  0.356D-03-0.272D-01 0.103D+01
 Coeff-En:   0.000D+00 0.000D+00 0.100D+01
 Coeff:      0.351D-03-0.268D-01 0.103D+01
 Gap=     0.558 Goal=   None    Shift=    0.000
 RMSDP=1.01D-04 MaxDP=1.34D-03 DE=-3.10D-02 OVMax= 1.96D-03

 Cycle   4  Pass 0  IDiag  1:
 E= -100.445969397259     Delta-E=       -0.000039022939 Rises=F Damp=F
 DIIS: error= 2.72D-04 at cycle   4 NSaved=   4.
 NSaved= 4 IEnMin= 4 EnMin= -100.445969397259     IErMin= 4 ErrMin= 2.72D-04
 ErrMax= 2.72D-04  0.00D+00 EMaxC= 1.00D-01 BMatC= 1.83D-06 BMatP= 6.03D-05
 IDIUse=3 WtCom= 9.97D-01 WtEn= 2.72D-03
 Coeff-Com: -0.317D-02-0.656D-02 0.171D+00 0.838D+00
 Coeff-En:   0.000D+00 0.000D+00 0.000D+00 0.100D+01
 Coeff:     -0.316D-02-0.655D-02 0.171D+00 0.839D+00
 Gap=     0.558 Goal=   None    Shift=    0.000
 RMSDP=1.40D-05 MaxDP=1.54D-04 DE=-3.90D-05 OVMax= 4.32D-04

 Cycle   5  Pass 0  IDiag  1:
 E= -100.445970415688     Delta-E=       -0.000001018429 Rises=F Damp=F
 DIIS: error= 4.22D-05 at cycle   5 NSaved=   5.
 NSaved= 5 IEnMin= 5 EnMin= -100.445970415688     IErMin= 5 ErrMin= 4.22D-05
 ErrMax= 4.22D-05  0.00D+00 EMaxC= 1.00D-01 BMatC= 3.64D-08 BMatP= 1.83D-06
 IDIUse=1 WtCom= 1.00D+00 WtEn= 0.00D+00
 Coeff-Com:  0.326D-03 0.152D-02-0.461D-01-0.829D-01 0.113D+01
 Coeff:      0.326D-03 0.152D-02-0.461D-01-0.829D-01 0.113D+01
 Gap=     0.558 Goal=   None    Shift=    0.000
 RMSDP=4.21D-06 MaxDP=4.63D-05 DE=-1.02D-06 OVMax= 1.60D-04

 Initial convergence to 1.0D-05 achieved.  Increase integral accuracy.
 Cycle   6  Pass 1  IDiag  1:
 E= -100.445986224200     Delta-E=       -0.000015808512 Rises=F Damp=F
 DIIS: error= 5.87D-05 at cycle   1 NSaved=   1.
 NSaved= 1 IEnMin= 1 EnMin= -100.445986224200     IErMin= 1 ErrMin= 5.87D-05
 ErrMax= 5.87D-05  0.00D+00 EMaxC= 1.00D-01 BMatC= 1.16D-07 BMatP= 1.16D-07
 IDIUse=1 WtCom= 1.00D+00 WtEn= 0.00D+00
 Coeff-Com:  0.100D+01
 Coeff:      0.100D+01
 Gap=     0.558 Goal=   None    Shift=    0.000
 RMSDP=4.21D-06 MaxDP=4.63D-05 DE=-1.58D-05 OVMax= 4.62D-05

 Cycle   7  Pass 1  IDiag  1:
 E= -100.445986278907     Delta-E=       -0.000000054707 Rises=F Damp=F
 DIIS: error= 5.70D-06 at cycle   2 NSaved=   2.
 NSaved= 2 IEnMin= 2 EnMin= -100.445986278907     IErMin= 2 ErrMin= 5.70D-06
 ErrMax= 5.70D-06  0.00D+00 EMaxC= 1.00D-01 BMatC= 1.66D-09 BMatP= 1.16D-07
 IDIUse=1 WtCom= 1.00D+00 WtEn= 0.00D+00
 Coeff-Com: -0.795D-01 0.108D+01
 Coeff:     -0.795D-01 0.108D+01
 Gap=     0.558 Goal=   None    Shift=    0.000
 RMSDP=7.29D-07 MaxDP=9.35D-06 DE=-5.47D-08 OVMax= 1.44D-05

 Cycle   8  Pass 1  IDiag  1:
 E= -100.445986279301     Delta-E=       -0.000000000393 Rises=F Damp=F
 DIIS: error= 5.73D-06 at cycle   3 NSaved=   3.
 NSaved= 3 IEnMin= 3 EnMin= -100.445986279301     IErMin= 2 ErrMin= 5.70D-06
 ErrMax= 5.73D-06  0.00D+00 EMaxC= 1.00D-01 BMatC= 1.07D-09 BMatP= 1.66D-09
 IDIUse=1 WtCom= 1.00D+00 WtEn= 0.00D+00
 Coeff-Com: -0.472D-01 0.548D+00 0.499D+00
 Coeff:     -0.472D-01 0.548D+00 0.499D+00
 Gap=     0.558 Goal=   None    Shift=    0.000
 RMSDP=2.62D-07 MaxDP=4.49D-06 DE=-3.93D-10 OVMax= 6.24D-06

 Cycle   9  Pass 1  IDiag  1:
 E= -100.445986279863     Delta-E=       -0.000000000562 Rises=F Damp=F
 DIIS: error= 2.46D-07 at cycle   4 NSaved=   4.
 NSaved= 4 IEnMin= 4 EnMin= -100.445986279863     IErMin= 4 ErrMin= 2.46D-07
 ErrMax= 2.46D-07  0.00D+00 EMaxC= 1.00D-01 BMatC= 2.93D-12 BMatP= 1.07D-09
 IDIUse=1 WtCom= 1.00D+00 WtEn= 0.00D+00
 Coeff-Com:  0.141D-02-0.282D-01 0.191D-01 0.101D+01
 Coeff:      0.141D-02-0.282D-01 0.191D-01 0.101D+01
 Gap=     0.558 Goal=   None    Shift=    0.000
 RMSDP=3.46D-08 MaxDP=3.98D-07 DE=-5.62D-10 OVMax= 5.21D-07

 Cycle  10  Pass 1  IDiag  1:
 E= -100.445986279865     Delta-E=       -0.000000000002 Rises=F Damp=F
 DIIS: error= 6.07D-08 at cycle   5 NSaved=   5.
 NSaved= 5 IEnMin= 5 EnMin= -100.445986279865     IErMin= 5 ErrMin= 6.07D-08
 ErrMax= 6.07D-08  0.00D+00 EMaxC= 1.00D-01 BMatC= 6.17D-14 BMatP= 2.93D-12
 IDIUse=1 WtCom= 1.00D+00 WtEn= 0.00D+00
 Coeff-Com:  0.112D-02-0.147D-01-0.730D-02 0.994D-01 0.921D+00
 Coeff:      0.112D-02-0.147D-01-0.730D-02 0.994D-01 0.921D+00
 Gap=     0.558 Goal=   None    Shift=    0.000
 RMSDP=6.32D-09 MaxDP=6.47D-08 DE=-2.29D-12 OVMax= 1.14D-07

 SCF Done:  E(RM062X) =  -100.445986280     A.U. after   10 cycles
            NFock= 10  Conv=0.63D-08     -V/T= 2.0022
 KE= 1.002295100432D+02 PE=-2.507220303502D+02 EE= 4.484368656571D+01
 Leave Link  502 at Sun Apr 18 10:06:29 2021, MaxMem=   104857600 cpu:             354.0 elap:               7.6
 (Enter /s/ls4/users/knvvv/bin/g16sse/l601.exe)
 Copying SCF densities to generalized density rwf, IOpCl= 0 IROHF=0.

 **********************************************************************

            Population analysis using the SCF density.

 **********************************************************************

 Orbital symmetries:
       Occupied  (SG) (SG) (SG) (PI) (PI)
       Virtual   (SG) (SG) (PI) (PI) (SG) (SG) (PI) (PI) (SG) (PI)
                 (PI) (SG) (SG) (DLTA) (DLTA) (SG) (PI) (PI) (SG)
                 (PI) (PI) (SG) (PI) (PI) (DLTA) (DLTA) (SG) (PHI)
                 (PHI) (PI) (PI) (SG) (DLTA) (DLTA) (PI) (PI) (SG)
                 (SG)
 The electronic state is 1-SG.
 Alpha  occ. eigenvalues --  -25.23489  -1.34621  -0.64326  -0.51734  -0.51734
 Alpha virt. eigenvalues --    0.04114   0.21596   0.22152   0.22152   0.32229
 Alpha virt. eigenvalues --    0.42925   0.73892   0.73892   1.15760   1.33843
 Alpha virt. eigenvalues --    1.33843   1.40310   1.76369   2.05831   2.05831
 Alpha virt. eigenvalues --    2.11161   2.30792   2.30792   3.22016   3.72720
 Alpha virt. eigenvalues --    3.72720   4.42684   6.40637   6.40637   6.64782
 Alpha virt. eigenvalues --    6.64783   6.65680   6.68881   6.68881   7.02703
 Alpha virt. eigenvalues --    7.02703   8.34608   9.05748   9.05749   9.23553
 Alpha virt. eigenvalues --    9.23553   9.88888  66.90385
          Condensed to atoms (all electrons):
               1          2
     1  F    9.110318   0.238624
     2  H    0.238624   0.412434
 Mulliken charges:
               1
     1  F   -0.348942
     2  H    0.348942
 Sum of Mulliken charges =  -0.00000
 Mulliken charges with hydrogens summed into heavy atoms:
               1
     1  F   -0.000000
 Electronic spatial extent (au):  <R**2>=             14.0727
 Charge=             -0.0000 electrons
 Dipole moment (field-independent basis, Debye):
    X=              0.0000    Y=             -0.0000    Z=             -1.8947  Tot=              1.8947
 Quadrupole moment (field-independent basis, Debye-Ang):
   XX=             -5.7977   YY=             -5.7977   ZZ=             -3.7107
   XY=             -0.0000   XZ=              0.0000   YZ=              0.0000
 Traceless Quadrupole moment (field-independent basis, Debye-Ang):
   XX=             -0.6957   YY=             -0.6957   ZZ=              1.3914
   XY=             -0.0000   XZ=              0.0000   YZ=              0.0000
 Octapole moment (field-independent basis, Debye-Ang**2):
  XXX=              0.0000  YYY=              0.0000  ZZZ=             -1.8772  XYY=              0.0000
  XXY=             -0.0000  XXZ=             -0.1670  XZZ=              0.0000  YZZ=              0.0000
  YYZ=             -0.1670  XYZ=              0.0000
 Hexadecapole moment (field-independent basis, Debye-Ang**3):
 XXXX=             -3.9236 YYYY=             -3.9236 ZZZZ=             -3.5238 XXXY=             -0.0000
 XXXZ=              0.0000 YYYX=             -0.0000 YYYZ=              0.0000 ZZZX=              0.0000
 ZZZY=              0.0000 XXYY=             -1.3079 XXZZ=             -1.4943 YYZZ=             -1.4943
 XXYZ=             -0.0000 YYXZ=              0.0000 ZZXY=             -0.0000
 N-N= 5.202847461447D+00 E-N=-2.507220303380D+02  KE= 1.002295100432D+02
 No NMR shielding tensors so no spin-rotation constants.
 Leave Link  601 at Sun Apr 18 10:06:30 2021, MaxMem=   104857600 cpu:              34.2 elap:               0.8
 (Enter /s/ls4/users/knvvv/bin/g16sse/l801.exe)
 DoSCS=F DFT=T ScalE2(SS,OS)=  1.000000  1.000000
 Range of M.O.s used for correlation:     1    43
 NBasis=    43 NAE=     5 NBE=     5 NFC=     0 NFV=     0
 NROrb=     43 NOA=     5 NOB=     5 NVA=    38 NVB=    38
 Leave Link  801 at Sun Apr 18 10:06:30 2021, MaxMem=   104857600 cpu:               3.1 elap:               0.1
 (Enter /s/ls4/users/knvvv/bin/g16sse/l914.exe)
 RHF ground state
 Doing stability rather than CIS.
 Keep R1 and R2 ints in memory in symmetry-blocked form, NReq=57339540.
 FoFCou: FMM=F IPFlag=           0 FMFlag=           0 FMFlg1=           0
         NFxFlg=           0 DoJE=F BraDBF=F KetDBF=F FulRan=T
         wScrn=  0.000000 ICntrl=       600 IOpCl=  0 I1Cent=           0 NGrid=           0
         NMat0=    1 NMatS0=    946 NMatT0=    0 NMatD0=    1 NMtDS0=    0 NMtDT0=    0
 Petite list used in FoFCou.
 MDV=   104857600 DFT=T DoStab=T Mixed=T DoRPA=F DoScal=F NonHer=F
 Making orbital integer symmetry assigments:
 Orbital symmetries:
       Occupied  (SG) (SG) (SG) (PI) (PI)
       Virtual   (SG) (SG) (PI) (PI) (SG) (SG) (PI) (PI) (SG) (PI)
                 (PI) (SG) (SG) (DLTA) (DLTA) (SG) (PI) (PI) (SG)
                 (PI) (PI) (SG) (PI) (PI) (DLTA) (DLTA) (SG) (PHI)
                 (PHI) (PI) (PI) (SG) (DLTA) (DLTA) (PI) (PI) (SG)
                 (SG)
    24 initial guesses have been made.
 Convergence on wavefunction:    0.001000000000000
 Davidson Disk Diagonalization:  ConvIn= 1.00D-03 SkipCon=T Conv= 1.00D-03.
 Max sub-space:   760 roots to seek:    24 dimension of matrix:          380
 Iteration     1 Dimension    24 NMult     0 NNew     24
 CISAX will form    24 AO SS matrices at one time.
 NMat=    24 NSing=    12 JSym2X= 2.
 New state      1 was old state      2
 Excitation Energies [eV] at current iteration:
 Root      1 :    10.589048568947280
 Root      2 :    10.589048568947940
 Root      3 :    11.127459876655390
 Root      4 :    11.127459876655870
 Root      5 :    14.009601454952150
 Root      6 :    15.203699753861580
 Root      7 :    15.511263093234470
 Root      8 :    15.511350387799850
 Root      9 :    15.620423565470960
 Root     10 :    15.620423565471430
 Root     11 :    15.662495821137800
 Root     12 :    15.662583599328520
 Root     13 :    15.867661160936730
 Root     14 :    15.867661160937370
 Root     15 :    15.962232256403850
 Root     16 :    15.962232256403920
 Root     17 :    16.116180425779910
 Root     18 :    18.353818451614700
 Root     19 :    18.815326184239080
 Root     20 :    18.815326184241480
 Root     21 :    18.989071627351170
 Root     22 :    19.087133454303730
 Root     23 :    19.087133454305600
 Root     24 :    27.129773928632760
 Iteration     2 Dimension    48 NMult    24 NNew     24
 CISAX will form    24 AO SS matrices at one time.
 NMat=    24 NSing=    12 JSym2X= 2.
 Vector  38 SDiff=8.26D-01 TDiff=9.73D-03 assumed to be triplet.
 Vector  39 SDiff=9.73D-03 TDiff=8.26D-01 assumed to be singlet.
 Root      1 not converged, maximum delta is    0.138789241528179
 Excitation Energies [eV] at current iteration:
 Root      1 :     9.899345619693140   Change is   -0.689702949254139
 Root      2 :     9.899345619693715   Change is   -0.689702949254225
 Root      3 :    10.872473646208620   Change is   -0.254986230446775
 Root      4 :    10.872473646209090   Change is   -0.254986230446782
 Root      5 :    12.273631775215300   Change is   -1.735969679736849
 Root      6 :    14.904855098655570   Change is   -0.298844655206011
 Root      7 :    15.008782812148880   Change is   -0.502480281085583
 Root      8 :    15.008943675294650   Change is   -0.502406712505200
 Root      9 :    15.149864300665700   Change is   -0.966316125114205
 Root     10 :    15.262181473988580   Change is   -0.358242091482380
 Root     11 :    15.262181473989040   Change is   -0.358242091482392
 Root     12 :    15.496885372397460   Change is   -0.165610448740334
 Root     13 :    15.497006525521020   Change is   -0.165577073807502
 Root     14 :    15.742920907574610   Change is   -0.124740253362117
 Root     15 :    15.742920907575180   Change is   -0.124740253362192
 Root     16 :    15.922436027706300   Change is   -0.039796228697546
 Root     17 :    15.922436027706340   Change is   -0.039796228697579
 Root     18 :    17.899078120172600   Change is   -0.454740331442098
 Root     19 :    18.321577303151840   Change is   -0.667494324199330
 Root     20 :    18.638406458782460   Change is   -0.176919725456625
 Root     21 :    18.638406458784680   Change is   -0.176919725456807
 Root     22 :    19.025947589445900   Change is   -0.061185864857824
 Root     23 :    19.025947589447720   Change is   -0.061185864857884
 Root     24 :    22.369406336305490   Change is   -4.760367592327269
 Iteration     3 Dimension    54 NMult    48 NNew      6
 CISAX will form     6 AO SS matrices at one time.
 NMat=     6 NSing=     3 JSym2X= 2.
 Vector  16 SDiff=9.29D-01 TDiff=2.40D-04 assumed to be triplet.
 Vector  17 SDiff=2.40D-04 TDiff=9.29D-01 assumed to be singlet.
 Root      1 not converged, maximum delta is    0.007770587648557
 Excitation Energies [eV] at current iteration:
 Root      1 :     9.894408496119746   Change is   -0.004937123573392
 Root      2 :     9.894408496120295   Change is   -0.004937123573421
 Root      3 :    10.864141014386200   Change is   -0.008332631822414
 Root      4 :    10.864141014386670   Change is   -0.008332631822421
 Root      5 :    12.233142317398980   Change is   -0.040489457816324
 Root      6 :    14.880107120709200   Change is   -0.024747977946367
 Iteration     4 Dimension    60 NMult    54 NNew      6
 CISAX will form     6 AO SS matrices at one time.
 NMat=     6 NSing=     3 JSym2X= 2.
 Root      1 not converged, maximum delta is    0.006178109121561
 Excitation Energies [eV] at current iteration:
 Root      1 :     9.894334307262797   Change is   -0.000074188856950
 Root      2 :     9.894334307263351   Change is   -0.000074188856944
 Root      3 :    10.864084920295870   Change is   -0.000056094090337
 Root      4 :    10.864084920296350   Change is   -0.000056094090321
 Root      5 :    12.232703355484290   Change is   -0.000438961914683
 Root      6 :    14.879575940139840   Change is   -0.000531180569360
 Iteration     5 Dimension    66 NMult    60 NNew      6
 CISAX will form     6 AO SS matrices at one time.
 NMat=     6 NSing=     3 JSym2X= 2.
 DSYEVD-2 returned Info=        2344 IAlg= 4 N=    66 NDim=    66 NE2=     1567495 trying  DSYEV.
 Root      1 has converged.
 Excitation Energies [eV] at current iteration:
 Root      1 :     9.894333855332700   Change is   -0.000000451930097
 Root      2 :     9.894333855333228   Change is   -0.000000451930123
 Root      3 :    10.864083986432730   Change is   -0.000000933863134
 Root      4 :    10.864083986433190   Change is   -0.000000933863152
 Root      5 :    12.232698182113490   Change is   -0.000005173370802
 Root      6 :    14.879568425943870   Change is   -0.000007514195973
 Convergence achieved on expansion vectors.
 ***********************************************************************
 Stability analysis using <AA,BB:AA,BB> singles matrix:
 ***********************************************************************
 1PDM for each excited state written to RWF  633
 Ground to excited state transition densities written to RWF  633

 Eigenvectors of the stability matrix:
 
 Excited state symmetry could not be determined.
 Eigenvector   1:      Triplet-?Sym  Eigenvalue= 0.3636101  <S**2>=2.000
       4 ->  6        -0.39270
       5 ->  6         0.55546
       5 -> 11        -0.13653
 The wavefunction is stable under the perturbations considered.
 Leave Link  914 at Sun Apr 18 10:06:38 2021, MaxMem=   104857600 cpu:             353.0 elap:               7.5
 (Enter /s/ls4/users/knvvv/bin/g16sse/l508.exe)
 The wavefunction is already stable.
 Leave Link  508 at Sun Apr 18 10:06:38 2021, MaxMem=   104857600 cpu:               2.2 elap:               0.1
 (Enter /s/ls4/users/knvvv/bin/g16sse/l601.exe)
 Copying SCF densities to generalized density rwf, IOpCl= 0 IROHF=0.

 **********************************************************************

            Population analysis using the SCF density.

 **********************************************************************

 Orbital symmetries:
       Occupied  (SG) (SG) (SG) (PI) (PI)
       Virtual   (SG) (SG) (PI) (PI) (SG) (SG) (PI) (PI) (SG) (PI)
                 (PI) (SG) (SG) (DLTA) (DLTA) (SG) (PI) (PI) (SG)
                 (PI) (PI) (SG) (PI) (PI) (DLTA) (DLTA) (SG) (PHI)
                 (PHI) (PI) (PI) (SG) (DLTA) (DLTA) (PI) (PI) (SG)
                 (SG)
 The electronic state is 1-SG.
 Alpha  occ. eigenvalues --  -25.23489  -1.34621  -0.64326  -0.51734  -0.51734
 Alpha virt. eigenvalues --    0.04114   0.21596   0.22152   0.22152   0.32229
 Alpha virt. eigenvalues --    0.42925   0.73892   0.73892   1.15760   1.33843
 Alpha virt. eigenvalues --    1.33843   1.40310   1.76369   2.05831   2.05831
 Alpha virt. eigenvalues --    2.11161   2.30792   2.30792   3.22016   3.72720
 Alpha virt. eigenvalues --    3.72720   4.42684   6.40637   6.40637   6.64782
 Alpha virt. eigenvalues --    6.64783   6.65680   6.68881   6.68881   7.02703
 Alpha virt. eigenvalues --    7.02703   8.34608   9.05748   9.05749   9.23553
 Alpha virt. eigenvalues --    9.23553   9.88888  66.90385
          Condensed to atoms (all electrons):
               1          2
     1  F    9.110318   0.238624
     2  H    0.238624   0.412434
 Mulliken charges:
               1
     1  F   -0.348942
     2  H    0.348942
 Sum of Mulliken charges =  -0.00000
 Mulliken charges with hydrogens summed into heavy atoms:
               1
     1  F   -0.000000
 Electronic spatial extent (au):  <R**2>=             14.0727
 Charge=             -0.0000 electrons
 Dipole moment (field-independent basis, Debye):
    X=              0.0000    Y=             -0.0000    Z=             -1.8947  Tot=              1.8947
 Quadrupole moment (field-independent basis, Debye-Ang):
   XX=             -5.7977   YY=             -5.7977   ZZ=             -3.7107
   XY=             -0.0000   XZ=              0.0000   YZ=              0.0000
 Traceless Quadrupole moment (field-independent basis, Debye-Ang):
   XX=             -0.6957   YY=             -0.6957   ZZ=              1.3914
   XY=             -0.0000   XZ=              0.0000   YZ=              0.0000
 Octapole moment (field-independent basis, Debye-Ang**2):
  XXX=              0.0000  YYY=              0.0000  ZZZ=             -1.8772  XYY=              0.0000
  XXY=             -0.0000  XXZ=             -0.1670  XZZ=              0.0000  YZZ=              0.0000
  YYZ=             -0.1670  XYZ=              0.0000
 Hexadecapole moment (field-independent basis, Debye-Ang**3):
 XXXX=             -3.9236 YYYY=             -3.9236 ZZZZ=             -3.5238 XXXY=             -0.0000
 XXXZ=              0.0000 YYYX=             -0.0000 YYYZ=              0.0000 ZZZX=              0.0000
 ZZZY=              0.0000 XXYY=             -1.3079 XXZZ=             -1.4943 YYZZ=             -1.4943
 XXYZ=             -0.0000 YYXZ=              0.0000 ZZXY=             -0.0000
 N-N= 5.202847461447D+00 E-N=-2.507220303380D+02  KE= 1.002295100432D+02
 No NMR shielding tensors so no spin-rotation constants.
 Leave Link  601 at Sun Apr 18 10:06:38 2021, MaxMem=   104857600 cpu:              35.5 elap:               0.8
 (Enter /s/ls4/users/knvvv/bin/g16sse/l9999.exe)

 Test job not archived.
 1\1\GINC-N178\Stability\RM062X\Gen\F1H1\KNVVV\18-Apr-2021\0\\#P M062X/
 GEN Integral=UltraFineGrid SCF=NoSymm Stable=(RExt, Opt) IOp(1/33=1)\\
 Database calculations.\\0,1\F,0,0.,0.,0.0915381323\H,0,0.,0.,-0.823844
 2489\\Version=ES64L-G16RevA.03\State=1-SG\HF=-100.4459863\RMSD=6.315e-
 09\Dipole=0.,0.,-0.7454486\Quadrupole=-0.5172251,-0.5172251,1.0344503,
 0.,0.,0.\PG=C*V [C*(H1F1)]\\@


 WE STILL HAVE JUDGEMENT HERE,
 THAT WE TEACH BUT BLOODY INSTRUCTIONS,
 WHICH, BEING TAUGHT,
 RETURN TO PLAGUE THE INVENTOR.
           MACBETH ACT I, SCENE VII
 Job cpu time:       0 days  0 hours 15 minutes 32.5 seconds.
 Elapsed time:       0 days  0 hours  0 minutes 20.2 seconds.
 File lengths (MBytes):  RWF=     11 Int=      0 D2E=      0 Chk=      1 Scr=      1
 Normal termination of Gaussian 16 at Sun Apr 18 10:06:39 2021.
