 Entering Gaussian System, Link 0=/s/ls4/users/knvvv/bin/g16sse/g16
 Input=data/database/M062X--def2-QZVPPD--24_H2O-F_TA13.gjf
 Output=data/database/M062X--def2-QZVPPD--24_H2O-F_TA13.log
 Initial command:
 /s/ls4/users/knvvv/bin/g16sse/l1.exe "/s/ls4/users/knvvv/bin/scratch/Gau-41349.inp" -scrdir="/s/ls4/users/knvvv/bin/scratch/"
 Entering Link 1 = /s/ls4/users/knvvv/bin/g16sse/l1.exe PID=     41350.
  
 Copyright (c) 1988,1990,1992,1993,1995,1998,2003,2009,2016,
            Gaussian, Inc.  All Rights Reserved.
  
 This is part of the Gaussian(R) 16 program.  It is based on
 the Gaussian(R) 09 system (copyright 2009, Gaussian, Inc.),
 the Gaussian(R) 03 system (copyright 2003, Gaussian, Inc.),
 the Gaussian(R) 98 system (copyright 1998, Gaussian, Inc.),
 the Gaussian(R) 94 system (copyright 1995, Gaussian, Inc.),
 the Gaussian 92(TM) system (copyright 1992, Gaussian, Inc.),
 the Gaussian 90(TM) system (copyright 1990, Gaussian, Inc.),
 the Gaussian 88(TM) system (copyright 1988, Gaussian, Inc.),
 the Gaussian 86(TM) system (copyright 1986, Carnegie Mellon
 University), and the Gaussian 82(TM) system (copyright 1983,
 Carnegie Mellon University). Gaussian is a federally registered
 trademark of Gaussian, Inc.
  
 This software contains proprietary and confidential information,
 including trade secrets, belonging to Gaussian, Inc.
  
 This software is provided under written license and may be
 used, copied, transmitted, or stored only in accord with that
 written license.
  
 The following legend is applicable only to US Government
 contracts under FAR:
  
                    RESTRICTED RIGHTS LEGEND
  
 Use, reproduction and disclosure by the US Government is
 subject to restrictions as set forth in subparagraphs (a)
 and (c) of the Commercial Computer Software - Restricted
 Rights clause in FAR 52.227-19.
  
 Gaussian, Inc.
 340 Quinnipiac St., Bldg. 40, Wallingford CT 06492
  
  
 ---------------------------------------------------------------
 Warning -- This program may not be used in any manner that
 competes with the business of Gaussian, Inc. or will provide
 assistance to any competitor of Gaussian, Inc.  The licensee
 of this program is prohibited from giving any competitor of
 Gaussian, Inc. access to this program.  By using this program,
 the user acknowledges that Gaussian, Inc. is engaged in the
 business of creating and licensing software in the field of
 computational chemistry and represents and warrants to the
 licensee that it is not a competitor of Gaussian, Inc. and that
 it will not use this program in any manner prohibited above.
 ---------------------------------------------------------------
  

 Cite this work as:
 Gaussian 16, Revision A.03,
 M. J. Frisch, G. W. Trucks, H. B. Schlegel, G. E. Scuseria, 
 M. A. Robb, J. R. Cheeseman, G. Scalmani, V. Barone, 
 G. A. Petersson, H. Nakatsuji, X. Li, M. Caricato, A. V. Marenich, 
 J. Bloino, B. G. Janesko, R. Gomperts, B. Mennucci, H. P. Hratchian, 
 J. V. Ortiz, A. F. Izmaylov, J. L. Sonnenberg, D. Williams-Young, 
 F. Ding, F. Lipparini, F. Egidi, J. Goings, B. Peng, A. Petrone, 
 T. Henderson, D. Ranasinghe, V. G. Zakrzewski, J. Gao, N. Rega, 
 G. Zheng, W. Liang, M. Hada, M. Ehara, K. Toyota, R. Fukuda, 
 J. Hasegawa, M. Ishida, T. Nakajima, Y. Honda, O. Kitao, H. Nakai, 
 T. Vreven, K. Throssell, J. A. Montgomery, Jr., J. E. Peralta, 
 F. Ogliaro, M. J. Bearpark, J. J. Heyd, E. N. Brothers, K. N. Kudin, 
 V. N. Staroverov, T. A. Keith, R. Kobayashi, J. Normand, 
 K. Raghavachari, A. P. Rendell, J. C. Burant, S. S. Iyengar, 
 J. Tomasi, M. Cossi, J. M. Millam, M. Klene, C. Adamo, R. Cammi, 
 J. W. Ochterski, R. L. Martin, K. Morokuma, O. Farkas, 
 J. B. Foresman, and D. J. Fox, Gaussian, Inc., Wallingford CT, 2016.
 
 ******************************************
 Gaussian 16:  ES64L-G16RevA.03 25-Dec-2016
                17-Apr-2021 
 ******************************************
 %RWF=temp23_6889,70GB
 %nprocshared=48
 Will use up to   48 processors via shared memory.
 Default route: MaxDisk=80GB
 ----------------------------------------------------------------------
 #P M062X/GEN Integral=UltraFineGrid SCF=NoSymm Stable=(RExt, Opt) IOp(
 1/33=1)
 ----------------------------------------------------------------------
 1/33=1,38=1,172=1/1;
 2/12=2,17=6,18=5,40=1/2;
 3/5=7,11=2,25=1,30=1,74=-55,75=-5/1,2,3;
 4/9=2/1;
 5/5=2,38=5/2;
 6/7=2,8=2,9=2,10=2,28=1/1;
 8/6=1,10=90,11=11/1;
 9/8=-3,42=1,46=1/14;
 5/5=2,8=3,17=40,38=5/8(-2);
 6/7=2,8=2,9=2,10=2,28=1/1;
 99/5=1,9=1/99;
 Leave Link    1 at Sat Apr 17 20:28:54 2021, MaxMem=           0 cpu:              10.9 elap:               0.2
 (Enter /s/ls4/users/knvvv/bin/g16sse/l101.exe)
 ONIOM data not found on unit 2.
 ----------------------
 Database calculations.
 ----------------------
 TstMul:  ICh=     0
 TstMul:  Mul=     2
 TstMul:  ICh=     0
 TstMul:  Mul=     2
 Symbolic Z-matrix:
 Charge =  0 Multiplicity = 2
 F                     0.        0.        0. 
 O                     0.        0.        2.1183 
 H                     0.96256   0.        2.05199 
 H                    -0.24649   0.93046   2.05199 
 
 RdStrC is calling ZToCFu for IStruc=1 NZ=     4.
 PrtBox:  NBox=     1 Levels=  1 BoxLen=    8.00 SMaxX=        4.00
          Shift=            0.465802            0.000000            0.000000
 Box      1 Number                   0 centers from      1 to      4:
 After GenITR:
 ITRead=  0  0  0  0
 MicOpt= -1 -1 -1 -1
 ITRead=  0  0  0  0
 MicOpt= -1 -1 -1 -1
 NAtoms=      4 NQM=        4 NQMF=       0 NMMI=      0 NMMIF=      0
                NMic=       0 NMicF=      0.
                    Isotopes and Nuclear Properties:
 (Nuclear quadrupole moments (NQMom) in fm**2, nuclear magnetic moments (NMagM)
  in nuclear magnetons)

  Atom         1           2           3           4
 IAtWgt=          19          16           1           1
 AtmWgt=  18.9984033  15.9949146   1.0078250   1.0078250
 NucSpn=           1           0           1           1
 AtZEff=  -0.0000000  -0.0000000  -0.0000000  -0.0000000
 NQMom=    0.0000000   0.0000000   0.0000000   0.0000000
 NMagM=    2.6288670   0.0000000   2.7928460   2.7928460
 AtZNuc=   9.0000000   8.0000000   1.0000000   1.0000000
 No MM parameters found.
 Leave Link  101 at Sat Apr 17 20:28:55 2021, MaxMem=   104857600 cpu:               8.2 elap:               0.2
 (Enter /s/ls4/users/knvvv/bin/g16sse/l202.exe)
                          Input orientation:                          
 ---------------------------------------------------------------------
 Center     Atomic      Atomic             Coordinates (Angstroms)
 Number     Number       Type             X           Y           Z
 ---------------------------------------------------------------------
      1          9           0        0.000000    0.000000    0.000000
      2          8           0        0.000000    0.000000    2.118299
      3          1           0        0.962557    0.000000    2.051986
      4          1           0       -0.246492    0.930461    2.051986
 ---------------------------------------------------------------------
                    Distance matrix (angstroms):
                    1          2          3          4
     1  F    0.000000
     2  O    2.118299   0.000000
     3  H    2.266531   0.964839   0.000000
     4  H    2.266531   0.964839   1.525634   0.000000
 Stoichiometry    FH2O(2)
 Framework group  CS[SG(FO),X(H2)]
 Deg. of freedom     4
 Full point group                 CS      NOp   2
 Largest Abelian subgroup         CS      NOp   2
 Largest concise Abelian subgroup CS      NOp   2
                         Standard orientation:                         
 ---------------------------------------------------------------------
 Center     Atomic      Atomic             Coordinates (Angstroms)
 Number     Number       Type             X           Y           Z
 ---------------------------------------------------------------------
      1          9           0        0.061795    1.107914   -0.000000
      2          8           0        0.061795   -1.010385    0.000000
      3          1           0       -0.525255   -0.944072    0.762817
      4          1           0       -0.525255   -0.944072   -0.762817
 ---------------------------------------------------------------------
 Rotational constants (GHZ):         281.7878356          12.0726516          11.9154454
 Leave Link  202 at Sat Apr 17 20:28:55 2021, MaxMem=   104857600 cpu:               6.3 elap:               0.2
 (Enter /s/ls4/users/knvvv/bin/g16sse/l301.exe)
 General basis read from cards:  (5D, 7F)
 Centers:       3      4
 S 4 1.00
     Exponent=  1.9069169000D+02 Coefficients=  7.0815167000D-04
     Exponent=  2.8605532000D+01 Coefficients=  5.4678827000D-03
     Exponent=  6.5095943000D+00 Coefficients=  2.7966605000D-02
     Exponent=  1.8412455000D+00 Coefficients=  1.0764538000D-01
 S 1 1.00
     Exponent=  5.9853725000D-01 Coefficients=  1.0000000000D+00
 S 1 1.00
     Exponent=  2.1397624000D-01 Coefficients=  1.0000000000D+00
 S 1 1.00
     Exponent=  8.0316286000D-02 Coefficients=  1.0000000000D+00
 P 1 1.00
     Exponent=  2.2920000000D+00 Coefficients=  1.0000000000D+00
 P 1 1.00
     Exponent=  8.3800000000D-01 Coefficients=  1.0000000000D+00
 P 1 1.00
     Exponent=  2.9200000000D-01 Coefficients=  1.0000000000D+00
 P 1 1.00
     Exponent=  8.4063199228D-02 Coefficients=  1.0000000000D+00
 D 1 1.00
     Exponent=  2.0620000000D+00 Coefficients=  1.0000000000D+00
 D 1 1.00
     Exponent=  6.6200000000D-01 Coefficients=  1.0000000000D+00
 F 1 1.00
     Exponent=  1.3970000000D+00 Coefficients=  1.0000000000D+00
 ****
 Centers:       2
 S 8 1.00
     Exponent=  1.1650646908D+05 Coefficients=  4.0383857939D-05
     Exponent=  1.7504349724D+04 Coefficients=  3.1255139004D-04
     Exponent=  3.9934513230D+03 Coefficients=  1.6341473495D-03
     Exponent=  1.1330063186D+03 Coefficients=  6.8283224757D-03
     Exponent=  3.6999569594D+02 Coefficients=  2.4124410221D-02
     Exponent=  1.3362074349D+02 Coefficients=  7.2730206154D-02
     Exponent=  5.2035643649D+01 Coefficients=  1.7934429892D-01
     Exponent=  2.1461939313D+01 Coefficients=  3.3059588895D-01
 S 2 1.00
     Exponent=  8.9835051252D+01 Coefficients=  9.6468652996D-02
     Exponent=  2.6428010844D+01 Coefficients=  9.4117481120D-01
 S 1 1.00
     Exponent=  9.2822824649D+00 Coefficients=  1.0000000000D+00
 S 1 1.00
     Exponent=  4.0947728533D+00 Coefficients=  1.0000000000D+00
 S 1 1.00
     Exponent=  1.3255349078D+00 Coefficients=  1.0000000000D+00
 S 1 1.00
     Exponent=  5.1877230787D-01 Coefficients=  1.0000000000D+00
 S 1 1.00
     Exponent=  1.9772676454D-01 Coefficients=  1.0000000000D+00
 S 1 1.00
     Exponent=  6.9638535104D-02 Coefficients=  1.0000000000D+00
 P 5 1.00
     Exponent=  1.9115255810D+02 Coefficients=  2.5115697705D-03
     Exponent=  4.5233356739D+01 Coefficients=  2.0039240864D-02
     Exponent=  1.4353465922D+01 Coefficients=  9.3609064762D-02
     Exponent=  5.2422371832D+00 Coefficients=  3.0618127124D-01
     Exponent=  2.0792418599D+00 Coefficients=  6.7810501439D-01
 P 1 1.00
     Exponent=  8.4282371424D-01 Coefficients=  1.0000000000D+00
 P 1 1.00
     Exponent=  3.3617694891D-01 Coefficients=  1.0000000000D+00
 P 1 1.00
     Exponent=  1.2863997974D-01 Coefficients=  1.0000000000D+00
 P 1 1.00
     Exponent=  4.3598162776D-02 Coefficients=  1.0000000000D+00
 D 1 1.00
     Exponent=  3.7750000000D+00 Coefficients=  1.0000000000D+00
 D 1 1.00
     Exponent=  1.3000000000D+00 Coefficients=  1.0000000000D+00
 D 1 1.00
     Exponent=  4.4400000000D-01 Coefficients=  1.0000000000D+00
 D 1 1.00
     Exponent=  1.2546378695D-01 Coefficients=  1.0000000000D+00
 F 1 1.00
     Exponent=  2.6660000000D+00 Coefficients=  1.0000000000D+00
 F 1 1.00
     Exponent=  8.5900000000D-01 Coefficients=  1.0000000000D+00
 G 1 1.00
     Exponent=  1.8460000000D+00 Coefficients=  1.0000000000D+00
 ****
 Centers:       1
 S 8 1.00
     Exponent=  1.3253597345D+05 Coefficients=  4.7387482743D-05
     Exponent=  1.9758112588D+04 Coefficients=  3.7070120897D-04
     Exponent=  4.4851996947D+03 Coefficients=  1.9450784713D-03
     Exponent=  1.2738151020D+03 Coefficients=  8.0573291994D-03
     Exponent=  4.1893831236D+02 Coefficients=  2.7992880781D-02
     Exponent=  1.5255721985D+02 Coefficients=  8.2735120175D-02
     Exponent=  5.9821524823D+01 Coefficients=  1.9854169012D-01
     Exponent=  2.4819076932D+01 Coefficients=  3.4860632233D-01
 S 2 1.00
     Exponent=  1.0074446673D+02 Coefficients=  1.0505068816D-01
     Exponent=  3.0103728290D+01 Coefficients=  9.4068472434D-01
 S 1 1.00
     Exponent=  1.0814283272D+01 Coefficients=  1.0000000000D+00
 S 1 1.00
     Exponent=  4.8172886770D+00 Coefficients=  1.0000000000D+00
 S 1 1.00
     Exponent=  1.6559334213D+00 Coefficients=  1.0000000000D+00
 S 1 1.00
     Exponent=  6.4893519582D-01 Coefficients=  1.0000000000D+00
 S 1 1.00
     Exponent=  2.4778104545D-01 Coefficients=  1.0000000000D+00
 S 1 1.00
     Exponent=  8.7626236800D-02 Coefficients=  1.0000000000D+00
 P 5 1.00
     Exponent=  2.4096654114D+02 Coefficients=  3.0389933451D-03
     Exponent=  5.7020699781D+01 Coefficients=  2.4357738582D-02
     Exponent=  1.8126952120D+01 Coefficients=  1.1442925768D-01
     Exponent=  6.6457404621D+00 Coefficients=  3.7064659853D-01
     Exponent=  2.6375722892D+00 Coefficients=  7.9791551766D-01
 P 1 1.00
     Exponent=  1.0638217200D+00 Coefficients=  1.0000000000D+00
 P 1 1.00
     Exponent=  4.1932562750D-01 Coefficients=  1.0000000000D+00
 P 1 1.00
     Exponent=  1.5747588299D-01 Coefficients=  1.0000000000D+00
 P 1 1.00
     Exponent=  4.6772400332D-02 Coefficients=  1.0000000000D+00
 D 1 1.00
     Exponent=  5.0140000000D+00 Coefficients=  1.0000000000D+00
 D 1 1.00
     Exponent=  1.7250000000D+00 Coefficients=  1.0000000000D+00
 D 1 1.00
     Exponent=  5.8600000000D-01 Coefficients=  1.0000000000D+00
 D 1 1.00
     Exponent=  1.5967986245D-01 Coefficients=  1.0000000000D+00
 F 1 1.00
     Exponent=  3.5620000000D+00 Coefficients=  1.0000000000D+00
 F 1 1.00
     Exponent=  1.1480000000D+00 Coefficients=  1.0000000000D+00
 G 1 1.00
     Exponent=  2.3760000000D+00 Coefficients=  1.0000000000D+00
 ****
 Ernie: Thresh=  0.10000D-02 Tol=  0.10000D-05 Strict=F.
 There are   148 symmetry adapted cartesian basis functions of A'  symmetry.
 There are    92 symmetry adapted cartesian basis functions of A"  symmetry.
 There are   119 symmetry adapted basis functions of A'  symmetry.
 There are    79 symmetry adapted basis functions of A"  symmetry.
   198 basis functions,   286 primitive gaussians,   240 cartesian basis functions
    10 alpha electrons        9 beta electrons
       nuclear repulsion energy        31.3112775358 Hartrees.
 IExCor= 4336 DFT=T Ex+Corr=M062X ExCW=0 ScaHFX=  0.540000
 ScaDFX=  1.000000  1.000000  1.000000  1.000000 ScalE2=  1.000000  1.000000
 IRadAn=      5 IRanWt=     -1 IRanGd=            0 ICorTp=0 IEmpDi=  4
 NAtoms=    4 NActive=    4 NUniq=    3 SFac= 1.78D+00 NAtFMM=   60 NAOKFM=F Big=F
 Integral buffers will be    131072 words long.
 Raffenetti 2 integral format.
 Two-electron integral symmetry is turned on.
 Leave Link  301 at Sat Apr 17 20:28:55 2021, MaxMem=   104857600 cpu:               7.8 elap:               0.2
 (Enter /s/ls4/users/knvvv/bin/g16sse/l302.exe)
 NPDir=0 NMtPBC=     1 NCelOv=     1 NCel=       1 NClECP=     1 NCelD=      1
         NCelK=      1 NCelE2=     1 NClLst=     1 CellRange=     0.0.
 One-electron integrals computed using PRISM.
 One-electron integral symmetry used in STVInt
 PrsmSu:  requested number of processors reduced to:   4 ShMem   1 Linda.
 PrsmSu:  requested number of processors reduced to:  21 ShMem   1 Linda.
 NBasis=   198 RedAO= T EigKep=  1.08D-04  NBF=   119    79
 NBsUse=   198 1.00D-06 EigRej= -1.00D+00 NBFU=   119    79
 Precomputing XC quadrature grid using
 IXCGrd= 4 IRadAn=           5 IRanWt=          -1 IRanGd=           0 AccXCQ= 0.00D+00.
 Generated NRdTot=       0 NPtTot=           0 NUsed=           0 NTot=          32
 NSgBfM=   240   240   240   240   240 MxSgAt=     4 MxSgA2=     4.
 Leave Link  302 at Sat Apr 17 20:28:59 2021, MaxMem=   104857600 cpu:             211.3 elap:               4.6
 (Enter /s/ls4/users/knvvv/bin/g16sse/l303.exe)
 DipDrv:  MaxL=1.
 Leave Link  303 at Sat Apr 17 20:29:00 2021, MaxMem=   104857600 cpu:              40.1 elap:               0.9
 (Enter /s/ls4/users/knvvv/bin/g16sse/l401.exe)
 SCF N**3 symmetry information disabled.
 ExpMin= 4.36D-02 ExpMax= 1.33D+05 ExpMxC= 1.27D+03 IAcc=3 IRadAn=         5 AccDes= 0.00D+00
 Harris functional with IExCor= 1009 and IRadAn=       5 diagonalized for initial guess.
 HarFok:  IExCor= 1009 AccDes= 0.00D+00 IRadAn=         5 IDoV= 1 UseB2=F ITyADJ=14
 ICtDFT=  3500011 ScaDFX=  1.000000  1.000000  1.000000  1.000000
 FoFCou: FMM=F IPFlag=           0 FMFlag=      100000 FMFlg1=           0
         NFxFlg=           0 DoJE=T BraDBF=F KetDBF=T FulRan=T
         wScrn=  0.000000 ICntrl=       500 IOpCl=  0 I1Cent=   200000004 NGrid=           0
         NMat0=    1 NMatS0=      1 NMatT0=    0 NMatD0=    1 NMtDS0=    0 NMtDT0=    0
 Petite list used in FoFCou.
 CoulSu:  requested number of processors reduced to:  21 ShMem   1 Linda.
 CoulSu:  requested number of processors reduced to:  21 ShMem   1 Linda.
 CoulSu:  requested number of processors reduced to:  21 ShMem   1 Linda.
 CoulSu:  requested number of processors reduced to:  21 ShMem   1 Linda.
 Harris En= -176.094794967935    
 JPrj=0 DoOrth=F DoCkMO=F.
 Initial guess orbital symmetries:
 Alpha Orbitals:
       Occupied  (A') (A') (A') (A') (A") (A') (A') (A") (A') (A')
       Virtual   (A') (A") (A') (A') (A') (A") (A") (A') (A') (A')
                 (A") (A') (A") (A') (A') (A") (A") (A') (A') (A")
                 (A') (A') (A') (A") (A') (A') (A") (A') (A") (A')
                 (A") (A') (A") (A') (A") (A') (A') (A") (A') (A')
                 (A") (A') (A') (A") (A") (A') (A') (A') (A') (A")
                 (A') (A") (A') (A") (A') (A') (A") (A') (A") (A')
                 (A') (A') (A") (A") (A") (A") (A") (A') (A') (A")
                 (A') (A') (A') (A") (A') (A") (A') (A') (A") (A')
                 (A') (A') (A") (A') (A') (A") (A') (A') (A") (A")
                 (A') (A') (A") (A") (A') (A") (A') (A') (A') (A")
                 (A') (A") (A') (A") (A') (A') (A") (A') (A") (A')
                 (A") (A") (A') (A') (A") (A') (A") (A') (A") (A")
                 (A') (A") (A') (A') (A') (A") (A") (A') (A') (A")
                 (A') (A") (A') (A") (A") (A') (A') (A") (A') (A')
                 (A') (A") (A") (A') (A") (A") (A') (A') (A') (A")
                 (A') (A') (A") (A') (A") (A") (A') (A') (A') (A')
                 (A") (A") (A') (A") (A") (A') (A') (A") (A') (A")
                 (A') (A') (A") (A') (A") (A') (A') (A') (A") (A')
                 (A") (A') (A') (A") (A') (A') (A') (A')
 Beta  Orbitals:
       Occupied  (A') (A') (A') (A') (A") (A') (A') (A") (A')
       Virtual   (A') (A') (A") (A') (A') (A') (A") (A") (A') (A')
                 (A') (A") (A') (A") (A') (A') (A") (A") (A') (A')
                 (A") (A') (A') (A') (A") (A') (A') (A") (A') (A")
                 (A') (A") (A') (A") (A') (A") (A') (A') (A") (A')
                 (A') (A") (A') (A') (A") (A") (A') (A') (A') (A')
                 (A") (A') (A") (A') (A") (A') (A') (A") (A') (A")
                 (A') (A') (A') (A") (A") (A") (A") (A") (A') (A')
                 (A") (A') (A') (A') (A") (A') (A") (A') (A') (A")
                 (A') (A') (A') (A") (A') (A') (A") (A') (A') (A")
                 (A") (A') (A') (A") (A") (A') (A") (A') (A') (A')
                 (A") (A') (A") (A') (A") (A') (A') (A") (A') (A")
                 (A') (A") (A") (A') (A') (A") (A') (A") (A') (A")
                 (A") (A') (A") (A') (A') (A') (A") (A") (A') (A')
                 (A") (A') (A") (A') (A") (A") (A') (A') (A") (A')
                 (A') (A') (A") (A") (A') (A") (A") (A') (A') (A')
                 (A") (A') (A') (A") (A') (A") (A") (A') (A') (A')
                 (A') (A") (A") (A') (A") (A") (A') (A') (A") (A')
                 (A") (A') (A') (A") (A') (A") (A') (A') (A') (A")
                 (A') (A") (A') (A') (A") (A') (A') (A') (A')
 The electronic state of the initial guess is 2-A'.
 Initial guess <Sx>= 0.0000 <Sy>= 0.0000 <Sz>= 0.5000 <S**2>= 0.7500 S= 0.5000
 Leave Link  401 at Sat Apr 17 20:29:03 2021, MaxMem=   104857600 cpu:             119.3 elap:               2.8
 (Enter /s/ls4/users/knvvv/bin/g16sse/l502.exe)
 Integral symmetry usage will be decided dynamically.
 UHF open shell SCF:
 Using DIIS extrapolation, IDIIS=  1040.
 NGot=   104857600 LenX=   104728400 LenY=   104670359
 Requested convergence on RMS density matrix=1.00D-08 within 128 cycles.
 Requested convergence on MAX density matrix=1.00D-06.
 Requested convergence on             energy=1.00D-06.
 No special actions if energy rises.
 Fock matrices will be formed incrementally for  20 cycles.

 Cycle   1  Pass 1  IDiag  1:
 FoFJK:  IHMeth= 1 ICntrl=       0 DoSepK=F KAlg= 0 I1Cent=           0 FoldK=F
 IRaf= 990000000 NMat=       1 IRICut=       1 DoRegI=T DoRafI=F ISym2E= 1 IDoP0=0 IntGTp=1.
 FoFCou: FMM=F IPFlag=           0 FMFlag=      100000 FMFlg1=           0
         NFxFlg=           0 DoJE=F BraDBF=F KetDBF=F FulRan=T
         wScrn=  0.000000 ICntrl=         0 IOpCl=  1 I1Cent=           0 NGrid=           0
         NMat0=    1 NMatS0=      1 NMatT0=    0 NMatD0=    1 NMtDS0=    0 NMtDT0=    0
 Petite list used in FoFCou.
 CoulSu:  requested number of processors reduced to:  20 ShMem   1 Linda.
 E= -176.123508352863    
 DIIS: error= 2.67D-02 at cycle   1 NSaved=   1.
 NSaved= 1 IEnMin= 1 EnMin= -176.123508352863     IErMin= 1 ErrMin= 2.67D-02
 ErrMax= 2.67D-02  0.00D+00 EMaxC= 1.00D-01 BMatC= 4.87D-01 BMatP= 4.87D-01
 IDIUse=3 WtCom= 7.33D-01 WtEn= 2.67D-01
 Coeff-Com:  0.100D+01
 Coeff-En:   0.100D+01
 Coeff:      0.100D+01
 Gap=     0.361 Goal=   None    Shift=    0.000
 Gap=     0.260 Goal=   None    Shift=    0.000
 GapD=    0.260 DampG=1.000 DampE=0.500 DampFc=0.5000 IDamp=-1.
 Damping current iteration by 5.00D-01
 RMSDP=1.06D-03 MaxDP=4.06D-02              OVMax= 2.41D-01

 Cycle   2  Pass 1  IDiag  1:
 RMSU=  5.24D-04    CP:  9.89D-01
 CoulSu:  requested number of processors reduced to:  20 ShMem   1 Linda.
 E= -176.149476507061     Delta-E=       -0.025968154197 Rises=F Damp=T
 DIIS: error= 1.36D-02 at cycle   2 NSaved=   2.
 NSaved= 2 IEnMin= 2 EnMin= -176.149476507061     IErMin= 2 ErrMin= 1.36D-02
 ErrMax= 1.36D-02  0.00D+00 EMaxC= 1.00D-01 BMatC= 9.69D-02 BMatP= 4.87D-01
 IDIUse=3 WtCom= 8.64D-01 WtEn= 1.36D-01
 Coeff-Com: -0.152D+00 0.115D+01
 Coeff-En:   0.000D+00 0.100D+01
 Coeff:     -0.131D+00 0.113D+01
 Gap=     0.488 Goal=   None    Shift=    0.000
 Gap=     0.317 Goal=   None    Shift=    0.000
 RMSDP=4.56D-04 MaxDP=1.29D-02 DE=-2.60D-02 OVMax= 6.62D-02

 Cycle   3  Pass 1  IDiag  1:
 RMSU=  4.30D-04    CP:  9.92D-01  1.28D+00
 CoulSu:  requested number of processors reduced to:  20 ShMem   1 Linda.
 E= -176.179198900349     Delta-E=       -0.029722393288 Rises=F Damp=F
 DIIS: error= 6.04D-03 at cycle   3 NSaved=   3.
 NSaved= 3 IEnMin= 3 EnMin= -176.179198900349     IErMin= 3 ErrMin= 6.04D-03
 ErrMax= 6.04D-03  0.00D+00 EMaxC= 1.00D-01 BMatC= 1.56D-02 BMatP= 9.69D-02
 IDIUse=3 WtCom= 9.40D-01 WtEn= 6.04D-02
 Coeff-Com: -0.140D+00 0.344D+00 0.795D+00
 Coeff-En:   0.000D+00 0.000D+00 0.100D+01
 Coeff:     -0.131D+00 0.323D+00 0.808D+00
 Gap=     0.458 Goal=   None    Shift=    0.000
 Gap=     0.291 Goal=   None    Shift=    0.000
 RMSDP=2.22D-04 MaxDP=1.14D-02 DE=-2.97D-02 OVMax= 8.94D-02

 Cycle   4  Pass 1  IDiag  1:
 RMSU=  1.94D-04    CP:  9.88D-01  1.48D+00  1.04D+00
 CoulSu:  requested number of processors reduced to:  20 ShMem   1 Linda.
 E= -176.182391775842     Delta-E=       -0.003192875493 Rises=F Damp=F
 DIIS: error= 3.68D-03 at cycle   4 NSaved=   4.
 NSaved= 4 IEnMin= 4 EnMin= -176.182391775842     IErMin= 4 ErrMin= 3.68D-03
 ErrMax= 3.68D-03  0.00D+00 EMaxC= 1.00D-01 BMatC= 1.02D-02 BMatP= 1.56D-02
 IDIUse=3 WtCom= 9.63D-01 WtEn= 3.68D-02
 Coeff-Com: -0.767D-01 0.157D+00 0.537D+00 0.382D+00
 Coeff-En:   0.000D+00 0.000D+00 0.000D+00 0.100D+01
 Coeff:     -0.739D-01 0.151D+00 0.517D+00 0.405D+00
 Gap=     0.453 Goal=   None    Shift=    0.000
 Gap=     0.290 Goal=   None    Shift=    0.000
 RMSDP=7.89D-05 MaxDP=4.03D-03 DE=-3.19D-03 OVMax= 8.38D-03

 Cycle   5  Pass 1  IDiag  1:
 RMSU=  7.48D-05    CP:  9.88D-01  1.48D+00  1.09D+00  9.32D-01
 CoulSu:  requested number of processors reduced to:  20 ShMem   1 Linda.
 E= -176.184054174446     Delta-E=       -0.001662398604 Rises=F Damp=F
 DIIS: error= 1.53D-03 at cycle   5 NSaved=   5.
 NSaved= 5 IEnMin= 5 EnMin= -176.184054174446     IErMin= 5 ErrMin= 1.53D-03
 ErrMax= 1.53D-03  0.00D+00 EMaxC= 1.00D-01 BMatC= 1.04D-03 BMatP= 1.02D-02
 IDIUse=3 WtCom= 9.85D-01 WtEn= 1.53D-02
 Coeff-Com:  0.808D-01-0.156D+00-0.357D+00-0.488D+00 0.192D+01
 Coeff-En:   0.000D+00 0.000D+00 0.000D+00 0.000D+00 0.100D+01
 Coeff:      0.796D-01-0.154D+00-0.352D+00-0.481D+00 0.191D+01
 Gap=     0.448 Goal=   None    Shift=    0.000
 Gap=     0.299 Goal=   None    Shift=    0.000
 RMSDP=1.67D-04 MaxDP=7.95D-03 DE=-1.66D-03 OVMax= 5.73D-02

 Cycle   6  Pass 1  IDiag  1:
 RMSU=  4.02D-05    CP:  9.86D-01  1.53D+00  1.24D+00  1.54D+00  2.10D+00
 CoulSu:  requested number of processors reduced to:  20 ShMem   1 Linda.
 E= -176.185278103645     Delta-E=       -0.001223929199 Rises=F Damp=F
 DIIS: error= 7.14D-04 at cycle   6 NSaved=   6.
 NSaved= 6 IEnMin= 6 EnMin= -176.185278103645     IErMin= 6 ErrMin= 7.14D-04
 ErrMax= 7.14D-04  0.00D+00 EMaxC= 1.00D-01 BMatC= 3.57D-04 BMatP= 1.04D-03
 IDIUse=3 WtCom= 9.93D-01 WtEn= 7.14D-03
 Coeff-Com:  0.502D-02-0.670D-02-0.134D-01-0.184D+00-0.116D+00 0.131D+01
 Coeff-En:   0.000D+00 0.000D+00 0.000D+00 0.000D+00 0.000D+00 0.100D+01
 Coeff:      0.499D-02-0.666D-02-0.133D-01-0.182D+00-0.115D+00 0.131D+01
 Gap=     0.441 Goal=   None    Shift=    0.000
 Gap=     0.302 Goal=   None    Shift=    0.000
 RMSDP=7.07D-05 MaxDP=3.17D-03 DE=-1.22D-03 OVMax= 2.54D-02

 Cycle   7  Pass 1  IDiag  1:
 RMSU=  2.48D-05    CP:  9.85D-01  1.55D+00  1.30D+00  1.74D+00  2.63D+00
                    CP:  1.60D+00
 CoulSu:  requested number of processors reduced to:  20 ShMem   1 Linda.
 E= -176.185524670652     Delta-E=       -0.000246567006 Rises=F Damp=F
 DIIS: error= 2.38D-04 at cycle   7 NSaved=   7.
 NSaved= 7 IEnMin= 7 EnMin= -176.185524670652     IErMin= 7 ErrMin= 2.38D-04
 ErrMax= 2.38D-04  0.00D+00 EMaxC= 1.00D-01 BMatC= 2.76D-05 BMatP= 3.57D-04
 IDIUse=3 WtCom= 9.98D-01 WtEn= 2.38D-03
 Coeff-Com: -0.123D-01 0.241D-01 0.572D-01 0.547D-01-0.212D+00-0.239D+00
 Coeff-Com:  0.133D+01
 Coeff-En:   0.000D+00 0.000D+00 0.000D+00 0.000D+00 0.000D+00 0.000D+00
 Coeff-En:   0.100D+01
 Coeff:     -0.123D-01 0.240D-01 0.571D-01 0.546D-01-0.211D+00-0.239D+00
 Coeff:      0.133D+01
 Gap=     0.438 Goal=   None    Shift=    0.000
 Gap=     0.303 Goal=   None    Shift=    0.000
 RMSDP=2.51D-05 MaxDP=1.21D-03 DE=-2.47D-04 OVMax= 9.10D-03

 Cycle   8  Pass 1  IDiag  1:
 RMSU=  6.55D-06    CP:  9.85D-01  1.56D+00  1.32D+00  1.79D+00  2.76D+00
                    CP:  1.89D+00  1.52D+00
 CoulSu:  requested number of processors reduced to:  20 ShMem   1 Linda.
 E= -176.185550815536     Delta-E=       -0.000026144884 Rises=F Damp=F
 DIIS: error= 7.10D-05 at cycle   8 NSaved=   8.
 NSaved= 8 IEnMin= 8 EnMin= -176.185550815536     IErMin= 8 ErrMin= 7.10D-05
 ErrMax= 7.10D-05  0.00D+00 EMaxC= 1.00D-01 BMatC= 2.03D-06 BMatP= 2.76D-05
 IDIUse=1 WtCom= 1.00D+00 WtEn= 0.00D+00
 Coeff-Com:  0.136D-02-0.239D-02-0.856D-02-0.548D-02 0.331D-01-0.547D-01
 Coeff-Com: -0.756D-01 0.111D+01
 Coeff:      0.136D-02-0.239D-02-0.856D-02-0.548D-02 0.331D-01-0.547D-01
 Coeff:     -0.756D-01 0.111D+01
 Gap=     0.438 Goal=   None    Shift=    0.000
 Gap=     0.303 Goal=   None    Shift=    0.000
 RMSDP=6.49D-06 MaxDP=2.57D-04 DE=-2.61D-05 OVMax= 1.73D-03

 Cycle   9  Pass 1  IDiag  1:
 RMSU=  2.87D-06    CP:  9.85D-01  1.56D+00  1.32D+00  1.80D+00  2.79D+00
                    CP:  1.95D+00  1.58D+00  1.48D+00
 CoulSu:  requested number of processors reduced to:  20 ShMem   1 Linda.
 E= -176.185553391306     Delta-E=       -0.000002575770 Rises=F Damp=F
 DIIS: error= 6.93D-05 at cycle   9 NSaved=   9.
 NSaved= 9 IEnMin= 9 EnMin= -176.185553391306     IErMin= 9 ErrMin= 6.93D-05
 ErrMax= 6.93D-05  0.00D+00 EMaxC= 1.00D-01 BMatC= 7.16D-07 BMatP= 2.03D-06
 IDIUse=1 WtCom= 1.00D+00 WtEn= 0.00D+00
 Coeff-Com:  0.105D-03-0.290D-03 0.732D-03 0.269D-02 0.249D-02 0.212D-01
 Coeff-Com: -0.776D-01-0.339D+00 0.139D+01
 Coeff:      0.105D-03-0.290D-03 0.732D-03 0.269D-02 0.249D-02 0.212D-01
 Coeff:     -0.776D-01-0.339D+00 0.139D+01
 Gap=     0.438 Goal=   None    Shift=    0.000
 Gap=     0.303 Goal=   None    Shift=    0.000
 RMSDP=4.39D-06 MaxDP=2.74D-04 DE=-2.58D-06 OVMax= 1.63D-03

 Cycle  10  Pass 1  IDiag  1:
 RMSU=  1.76D-06    CP:  9.85D-01  1.56D+00  1.32D+00  1.80D+00  2.79D+00
                    CP:  1.97D+00  1.63D+00  1.82D+00  2.05D+00
 CoulSu:  requested number of processors reduced to:  20 ShMem   1 Linda.
 E= -176.185555091625     Delta-E=       -0.000001700319 Rises=F Damp=F
 DIIS: error= 6.72D-05 at cycle  10 NSaved=  10.
 NSaved=10 IEnMin=10 EnMin= -176.185555091625     IErMin=10 ErrMin= 6.72D-05
 ErrMax= 6.72D-05  0.00D+00 EMaxC= 1.00D-01 BMatC= 5.04D-07 BMatP= 7.16D-07
 IDIUse=1 WtCom= 1.00D+00 WtEn= 0.00D+00
 Coeff-Com: -0.547D-03 0.120D-02 0.123D-02-0.584D-02-0.143D-01-0.419D-01
 Coeff-Com:  0.225D+00 0.229D+00-0.274D+01 0.335D+01
 Coeff:     -0.547D-03 0.120D-02 0.123D-02-0.584D-02-0.143D-01-0.419D-01
 Coeff:      0.225D+00 0.229D+00-0.274D+01 0.335D+01
 Gap=     0.438 Goal=   None    Shift=    0.000
 Gap=     0.303 Goal=   None    Shift=    0.000
 RMSDP=9.85D-06 MaxDP=6.33D-04 DE=-1.70D-06 OVMax= 3.84D-03

 Cycle  11  Pass 1  IDiag  1:
 RMSU=  4.88D-06    CP:  9.85D-01  1.56D+00  1.33D+00  1.81D+00  2.80D+00
                    CP:  1.99D+00  1.70D+00  2.34D+00  3.00D+00  3.00D+00
 CoulSu:  requested number of processors reduced to:  20 ShMem   1 Linda.
 E= -176.185558039474     Delta-E=       -0.000002947849 Rises=F Damp=F
 DIIS: error= 4.42D-05 at cycle  11 NSaved=  11.
 NSaved=11 IEnMin=11 EnMin= -176.185558039474     IErMin=11 ErrMin= 4.42D-05
 ErrMax= 4.42D-05  0.00D+00 EMaxC= 1.00D-01 BMatC= 2.97D-07 BMatP= 5.04D-07
 IDIUse=1 WtCom= 1.00D+00 WtEn= 0.00D+00
 Coeff-Com:  0.813D-03-0.160D-02-0.437D-02 0.208D-02 0.201D-01 0.147D-01
 Coeff-Com: -0.106D+00 0.190D+00 0.181D+00-0.161D+01 0.231D+01
 Coeff:      0.813D-03-0.160D-02-0.437D-02 0.208D-02 0.201D-01 0.147D-01
 Coeff:     -0.106D+00 0.190D+00 0.181D+00-0.161D+01 0.231D+01
 Gap=     0.438 Goal=   None    Shift=    0.000
 Gap=     0.303 Goal=   None    Shift=    0.000
 RMSDP=1.20D-05 MaxDP=7.70D-04 DE=-2.95D-06 OVMax= 4.80D-03

 Cycle  12  Pass 1  IDiag  1:
 RMSU=  3.45D-06    CP:  9.85D-01  1.56D+00  1.33D+00  1.81D+00  2.79D+00
                    CP:  2.01D+00  1.78D+00  3.00D+00  3.00D+00  3.00D+00
                    CP:  3.00D+00
 CoulSu:  requested number of processors reduced to:  20 ShMem   1 Linda.
 E= -176.185560077323     Delta-E=       -0.000002037849 Rises=F Damp=F
 DIIS: error= 1.90D-05 at cycle  12 NSaved=  12.
 NSaved=12 IEnMin=12 EnMin= -176.185560077323     IErMin=12 ErrMin= 1.90D-05
 ErrMax= 1.90D-05  0.00D+00 EMaxC= 1.00D-01 BMatC= 6.61D-08 BMatP= 2.97D-07
 IDIUse=1 WtCom= 1.00D+00 WtEn= 0.00D+00
 Coeff-Com:  0.462D-04-0.947D-04 0.110D-03 0.537D-04 0.473D-03 0.393D-02
 Coeff-Com: -0.379D-01 0.104D-01 0.587D+00-0.960D+00-0.357D-01 0.143D+01
 Coeff:      0.462D-04-0.947D-04 0.110D-03 0.537D-04 0.473D-03 0.393D-02
 Coeff:     -0.379D-01 0.104D-01 0.587D+00-0.960D+00-0.357D-01 0.143D+01
 Gap=     0.438 Goal=   None    Shift=    0.000
 Gap=     0.303 Goal=   None    Shift=    0.000
 RMSDP=6.97D-06 MaxDP=4.49D-04 DE=-2.04D-06 OVMax= 2.77D-03

 Cycle  13  Pass 1  IDiag  1:
 RMSU=  6.02D-06    CP:  9.85D-01  1.56D+00  1.33D+00  1.81D+00  2.79D+00
                    CP:  2.02D+00  1.83D+00  3.00D+00  3.00D+00  3.00D+00
                    CP:  3.00D+00  1.91D+00
 CoulSu:  requested number of processors reduced to:  20 ShMem   1 Linda.
 E= -176.185560444894     Delta-E=       -0.000000367570 Rises=F Damp=F
 DIIS: error= 2.44D-06 at cycle  13 NSaved=  13.
 NSaved=13 IEnMin=13 EnMin= -176.185560444894     IErMin=13 ErrMin= 2.44D-06
 ErrMax= 2.44D-06  0.00D+00 EMaxC= 1.00D-01 BMatC= 1.67D-09 BMatP= 6.61D-08
 IDIUse=1 WtCom= 1.00D+00 WtEn= 0.00D+00
 Coeff-Com: -0.529D-04 0.114D-03 0.238D-03-0.915D-04-0.944D-03-0.119D-02
 Coeff-Com:  0.924D-02-0.207D-01-0.567D-01 0.216D+00-0.123D+00-0.303D+00
 Coeff-Com:  0.128D+01
 Coeff:     -0.529D-04 0.114D-03 0.238D-03-0.915D-04-0.944D-03-0.119D-02
 Coeff:      0.924D-02-0.207D-01-0.567D-01 0.216D+00-0.123D+00-0.303D+00
 Coeff:      0.128D+01
 Gap=     0.438 Goal=   None    Shift=    0.000
 Gap=     0.303 Goal=   None    Shift=    0.000
 RMSDP=5.94D-07 MaxDP=3.75D-05 DE=-3.68D-07 OVMax= 2.31D-04

 Cycle  14  Pass 1  IDiag  1:
 RMSU=  1.17D-07    CP:  9.85D-01  1.56D+00  1.33D+00  1.81D+00  2.79D+00
                    CP:  2.02D+00  1.84D+00  3.00D+00  3.00D+00  3.00D+00
                    CP:  3.00D+00  1.98D+00  1.08D+00
 CoulSu:  requested number of processors reduced to:  20 ShMem   1 Linda.
 E= -176.185560448104     Delta-E=       -0.000000003210 Rises=F Damp=F
 DIIS: error= 5.18D-07 at cycle  14 NSaved=  14.
 NSaved=14 IEnMin=14 EnMin= -176.185560448104     IErMin=14 ErrMin= 5.18D-07
 ErrMax= 5.18D-07  0.00D+00 EMaxC= 1.00D-01 BMatC= 1.62D-10 BMatP= 1.67D-09
 IDIUse=1 WtCom= 1.00D+00 WtEn= 0.00D+00
 Coeff-Com: -0.727D-05 0.131D-04 0.249D-04 0.129D-03-0.929D-04 0.161D-03
 Coeff-Com:  0.158D-02-0.721D-02-0.225D-01 0.589D-01-0.178D-02-0.114D+00
 Coeff-Com:  0.128D+00 0.956D+00
 Coeff:     -0.727D-05 0.131D-04 0.249D-04 0.129D-03-0.929D-04 0.161D-03
 Coeff:      0.158D-02-0.721D-02-0.225D-01 0.589D-01-0.178D-02-0.114D+00
 Coeff:      0.128D+00 0.956D+00
 Gap=     0.438 Goal=   None    Shift=    0.000
 Gap=     0.303 Goal=   None    Shift=    0.000
 RMSDP=5.40D-08 MaxDP=3.00D-06 DE=-3.21D-09 OVMax= 1.51D-05

 Cycle  15  Pass 1  IDiag  1:
 RMSU=  1.38D-08    CP:  9.85D-01  1.56D+00  1.33D+00  1.81D+00  2.79D+00
                    CP:  2.02D+00  1.84D+00  3.00D+00  3.00D+00  3.00D+00
                    CP:  3.00D+00  1.98D+00  1.09D+00  1.22D+00
 CoulSu:  requested number of processors reduced to:  20 ShMem   1 Linda.
 E= -176.185560448163     Delta-E=       -0.000000000059 Rises=F Damp=F
 DIIS: error= 1.54D-07 at cycle  15 NSaved=  15.
 NSaved=15 IEnMin=15 EnMin= -176.185560448163     IErMin=15 ErrMin= 1.54D-07
 ErrMax= 1.54D-07  0.00D+00 EMaxC= 1.00D-01 BMatC= 1.27D-11 BMatP= 1.62D-10
 IDIUse=1 WtCom= 1.00D+00 WtEn= 0.00D+00
 Coeff-Com:  0.142D-05-0.346D-05-0.367D-05-0.225D-04-0.470D-05-0.552D-05
 Coeff-Com: -0.199D-03 0.132D-02 0.391D-02-0.144D-01 0.746D-02 0.188D-01
 Coeff-Com: -0.621D-01-0.146D+00 0.119D+01
 Coeff:      0.142D-05-0.346D-05-0.367D-05-0.225D-04-0.470D-05-0.552D-05
 Coeff:     -0.199D-03 0.132D-02 0.391D-02-0.144D-01 0.746D-02 0.188D-01
 Coeff:     -0.621D-01-0.146D+00 0.119D+01
 Gap=     0.438 Goal=   None    Shift=    0.000
 Gap=     0.303 Goal=   None    Shift=    0.000
 RMSDP=1.53D-08 MaxDP=6.47D-07 DE=-5.88D-11 OVMax= 3.57D-06

 Cycle  16  Pass 1  IDiag  1:
 RMSU=  5.45D-09    CP:  9.85D-01  1.56D+00  1.33D+00  1.81D+00  2.79D+00
                    CP:  2.02D+00  1.84D+00  3.00D+00  3.00D+00  3.00D+00
                    CP:  3.00D+00  1.98D+00  1.09D+00  1.27D+00  1.17D+00
 CoulSu:  requested number of processors reduced to:  20 ShMem   1 Linda.
 E= -176.185560448167     Delta-E=       -0.000000000004 Rises=F Damp=F
 DIIS: error= 2.86D-08 at cycle  16 NSaved=  16.
 NSaved=16 IEnMin=16 EnMin= -176.185560448167     IErMin=16 ErrMin= 2.86D-08
 ErrMax= 2.86D-08  0.00D+00 EMaxC= 1.00D-01 BMatC= 6.03D-13 BMatP= 1.27D-11
 IDIUse=1 WtCom= 1.00D+00 WtEn= 0.00D+00
 Coeff-Com:  0.129D-05-0.238D-05-0.604D-05-0.119D-04 0.397D-04-0.358D-04
 Coeff-Com: -0.968D-04 0.313D-03 0.777D-03-0.136D-02-0.645D-03 0.332D-02
 Coeff-Com: -0.123D-02-0.668D-01 0.444D-01 0.102D+01
 Coeff:      0.129D-05-0.238D-05-0.604D-05-0.119D-04 0.397D-04-0.358D-04
 Coeff:     -0.968D-04 0.313D-03 0.777D-03-0.136D-02-0.645D-03 0.332D-02
 Coeff:     -0.123D-02-0.668D-01 0.444D-01 0.102D+01
 Gap=     0.438 Goal=   None    Shift=    0.000
 Gap=     0.303 Goal=   None    Shift=    0.000
 RMSDP=3.34D-09 MaxDP=1.36D-07 DE=-4.15D-12 OVMax= 8.78D-07

 SCF Done:  E(UM062X) =  -176.185560448     A.U. after   16 cycles
            NFock= 16  Conv=0.33D-08     -V/T= 2.0028
 <Sx>= 0.0000 <Sy>= 0.0000 <Sz>= 0.5000 <S**2>= 0.7553 S= 0.5027
 <L.S>= 0.000000000000E+00
 KE= 1.756927487580D+02 PE=-4.823010742033D+02 EE= 9.911148746135D+01
 Annihilation of the first spin contaminant:
 S**2 before annihilation     0.7553,   after     0.7500
 Leave Link  502 at Sat Apr 17 20:31:49 2021, MaxMem=   104857600 cpu:            7461.9 elap:             165.5
 (Enter /s/ls4/users/knvvv/bin/g16sse/l601.exe)
 Copying SCF densities to generalized density rwf, IOpCl= 1 IROHF=0.

 **********************************************************************

            Population analysis using the SCF density.

 **********************************************************************

 Orbital symmetries:
 Alpha Orbitals:
       Occupied  (A') (A') (A') (A') (A") (A') (A') (A") (A') (A')
       Virtual   (A') (A") (A') (A') (A') (A") (A') (A") (A') (A')
                 (A") (A') (A") (A') (A") (A') (A") (A') (A') (A")
                 (A') (A') (A') (A") (A') (A') (A") (A') (A") (A')
                 (A") (A') (A") (A') (A") (A') (A") (A') (A') (A')
                 (A") (A') (A') (A") (A") (A') (A') (A') (A') (A")
                 (A') (A") (A') (A") (A') (A') (A") (A') (A") (A')
                 (A') (A') (A") (A") (A") (A") (A') (A") (A') (A")
                 (A') (A') (A') (A") (A') (A") (A') (A') (A") (A')
                 (A') (A') (A") (A') (A') (A') (A") (A') (A") (A")
                 (A') (A') (A") (A") (A') (A") (A') (A') (A') (A')
                 (A") (A") (A') (A") (A') (A') (A") (A") (A') (A")
                 (A') (A") (A') (A") (A') (A') (A") (A') (A") (A")
                 (A') (A") (A') (A') (A') (A") (A") (A') (A') (A")
                 (A') (A") (A') (A") (A") (A') (A') (A") (A') (A')
                 (A') (A") (A") (A') (A") (A") (A') (A') (A') (A')
                 (A") (A') (A") (A") (A') (A') (A") (A') (A') (A')
                 (A") (A") (A') (A") (A") (A') (A') (A") (A') (A')
                 (A") (A") (A') (A') (A") (A') (A') (A') (A") (A')
                 (A") (A') (A') (A") (A') (A') (A') (A')
 Beta  Orbitals:
       Occupied  (A') (A') (A') (A') (A") (A') (A") (A') (A')
       Virtual   (A') (A') (A") (A') (A') (A') (A") (A') (A") (A')
                 (A') (A") (A') (A") (A') (A") (A') (A") (A') (A')
                 (A") (A') (A') (A') (A") (A') (A') (A") (A') (A")
                 (A') (A") (A') (A") (A') (A") (A') (A") (A') (A')
                 (A') (A") (A') (A') (A") (A") (A') (A') (A') (A')
                 (A") (A') (A") (A') (A") (A') (A') (A") (A') (A")
                 (A') (A') (A') (A") (A") (A") (A") (A') (A") (A')
                 (A") (A') (A') (A') (A") (A') (A") (A') (A') (A")
                 (A') (A') (A') (A") (A') (A') (A') (A") (A') (A")
                 (A") (A') (A') (A") (A") (A') (A") (A') (A') (A')
                 (A') (A") (A") (A') (A") (A') (A') (A") (A") (A')
                 (A") (A') (A") (A') (A") (A') (A') (A") (A') (A")
                 (A") (A') (A") (A') (A') (A') (A") (A") (A') (A')
                 (A") (A') (A") (A') (A") (A") (A') (A') (A") (A')
                 (A') (A') (A") (A") (A') (A") (A") (A') (A') (A')
                 (A") (A') (A') (A") (A") (A') (A") (A') (A') (A')
                 (A') (A") (A") (A') (A") (A") (A') (A') (A") (A')
                 (A") (A') (A') (A") (A') (A") (A') (A') (A') (A")
                 (A') (A") (A') (A') (A") (A') (A') (A') (A')
 The electronic state is 2-A'.
 Alpha  occ. eigenvalues --  -25.27570 -19.67720  -1.32127  -1.17878  -0.64771
 Alpha  occ. eigenvalues --   -0.60771  -0.53654  -0.52560  -0.50672  -0.43482
 Alpha virt. eigenvalues --    0.00303   0.03689   0.04425   0.05498   0.08708
 Alpha virt. eigenvalues --    0.09809   0.10220   0.12196   0.14090   0.20123
 Alpha virt. eigenvalues --    0.21202   0.21949   0.22788   0.25734   0.27824
 Alpha virt. eigenvalues --    0.29007   0.33438   0.37571   0.42078   0.42775
 Alpha virt. eigenvalues --    0.43197   0.44926   0.47829   0.49645   0.52246
 Alpha virt. eigenvalues --    0.53171   0.54190   0.56117   0.58003   0.62517
 Alpha virt. eigenvalues --    0.63240   0.64246   0.70782   0.79973   0.82509
 Alpha virt. eigenvalues --    0.89815   0.94222   0.95186   1.02623   1.05484
 Alpha virt. eigenvalues --    1.08037   1.10501   1.32406   1.34838   1.41554
 Alpha virt. eigenvalues --    1.42311   1.46839   1.49914   1.55194   1.60696
 Alpha virt. eigenvalues --    1.72295   1.72596   1.74362   1.76373   1.84702
 Alpha virt. eigenvalues --    1.86684   1.90163   1.94818   2.04519   2.05700
 Alpha virt. eigenvalues --    2.09713   2.17580   2.23832   2.27760   2.42525
 Alpha virt. eigenvalues --    2.52070   2.57228   2.59541   2.61893   2.67227
 Alpha virt. eigenvalues --    2.70272   2.81344   3.01605   3.09985   3.28948
 Alpha virt. eigenvalues --    3.30966   3.47702   3.66641   3.81056   3.84362
 Alpha virt. eigenvalues --    3.87216   3.98572   4.02267   4.10796   4.17630
 Alpha virt. eigenvalues --    4.20037   4.20841   4.22923   4.24419   4.29762
 Alpha virt. eigenvalues --    4.32989   4.41979   4.50775   4.60360   4.66939
 Alpha virt. eigenvalues --    4.76313   4.80441   5.25172   5.25405   5.26382
 Alpha virt. eigenvalues --    5.26859   5.30564   5.34473   5.46448   5.58690
 Alpha virt. eigenvalues --    5.63674   5.83905   5.92335   5.94416   6.27438
 Alpha virt. eigenvalues --    6.34238   6.40088   6.43882   6.62666   6.68986
 Alpha virt. eigenvalues --    6.93251   7.01555   7.10672   7.19590   7.24626
 Alpha virt. eigenvalues --    7.30536   7.33158   7.46926   7.52588   7.60748
 Alpha virt. eigenvalues --    7.69487   7.72946   7.77564   7.81850   7.83185
 Alpha virt. eigenvalues --    8.04326   8.15523   8.35935   8.42256   8.56035
 Alpha virt. eigenvalues --    8.63500   8.81838   8.94350   9.66754   9.68390
 Alpha virt. eigenvalues --   10.10035  10.12122  10.50274  10.59652  10.74521
 Alpha virt. eigenvalues --   10.88711  10.97297  11.11041  11.24667  11.31030
 Alpha virt. eigenvalues --   11.31511  11.32675  11.32752  11.33262  11.33651
 Alpha virt. eigenvalues --   11.36546  11.36555  11.37373  11.53096  11.56121
 Alpha virt. eigenvalues --   11.63386  11.65958  12.14422  12.60436  13.20265
 Alpha virt. eigenvalues --   13.40278  13.41696  13.78699  14.17749  14.38964
 Alpha virt. eigenvalues --   14.41849  14.43617  14.43657  14.44455  14.46973
 Alpha virt. eigenvalues --   14.56111  14.93809  15.80463  15.80513  15.81143
 Alpha virt. eigenvalues --   15.85325  15.96977  16.39648  16.41051  48.31159
 Alpha virt. eigenvalues --   54.13084 251.39619 282.95236
  Beta  occ. eigenvalues --  -25.25418 -19.67183  -1.23764  -1.16048  -0.64205
  Beta  occ. eigenvalues --   -0.51712  -0.48968  -0.48277  -0.42627
  Beta virt. eigenvalues --   -0.12329   0.00527   0.03691   0.04765   0.05563
  Beta virt. eigenvalues --    0.09066   0.09837   0.10265   0.12292   0.14214
  Beta virt. eigenvalues --    0.20440   0.21494   0.22311   0.22884   0.25945
  Beta virt. eigenvalues --    0.28062   0.28978   0.33525   0.37731   0.42050
  Beta virt. eigenvalues --    0.43251   0.43289   0.45261   0.48097   0.49739
  Beta virt. eigenvalues --    0.51625   0.52356   0.53952   0.56304   0.58144
  Beta virt. eigenvalues --    0.62735   0.63115   0.64273   0.71065   0.81668
  Beta virt. eigenvalues --    0.82847   0.90033   0.94371   0.95748   1.03104
  Beta virt. eigenvalues --    1.06020   1.08267   1.10813   1.32893   1.35008
  Beta virt. eigenvalues --    1.41752   1.42730   1.47380   1.50172   1.56454
  Beta virt. eigenvalues --    1.61054   1.73050   1.73999   1.75912   1.77120
  Beta virt. eigenvalues --    1.86838   1.88784   1.91623   1.95377   2.04631
  Beta virt. eigenvalues --    2.05960   2.10528   2.20241   2.23835   2.27818
  Beta virt. eigenvalues --    2.42616   2.52178   2.57479   2.59660   2.62781
  Beta virt. eigenvalues --    2.67590   2.70685   2.81737   3.02034   3.10159
  Beta virt. eigenvalues --    3.29225   3.31105   3.47849   3.66732   3.81776
  Beta virt. eigenvalues --    3.85342   3.88382   4.01175   4.02311   4.11892
  Beta virt. eigenvalues --    4.17962   4.20122   4.20443   4.23195   4.24891
  Beta virt. eigenvalues --    4.30376   4.34859   4.43501   4.51202   4.60746
  Beta virt. eigenvalues --    4.68084   4.76493   4.81184   5.26949   5.27946
  Beta virt. eigenvalues --    5.28502   5.28622   5.32788   5.35767   5.47940
  Beta virt. eigenvalues --    5.60878   5.64064   5.83730   5.92218   5.95431
  Beta virt. eigenvalues --    6.27519   6.36585   6.42879   6.44875   6.62820
  Beta virt. eigenvalues --    6.75067   6.93380   7.01682   7.10764   7.19836
  Beta virt. eigenvalues --    7.24876   7.30849   7.33166   7.47292   7.52626
  Beta virt. eigenvalues --    7.60912   7.69589   7.73133   7.77730   7.82171
  Beta virt. eigenvalues --    7.83184   8.04572   8.15610   8.36108   8.42718
  Beta virt. eigenvalues --    8.56262   8.64025   8.82134   8.94559   9.66840
  Beta virt. eigenvalues --    9.68527  10.10057  10.12088  10.50459  10.59976
  Beta virt. eigenvalues --   10.74723  10.89922  10.98078  11.11746  11.27682
  Beta virt. eigenvalues --   11.35021  11.35029  11.36051  11.36538  11.37051
  Beta virt. eigenvalues --   11.37063  11.38451  11.38671  11.43493  11.54067
  Beta virt. eigenvalues --   11.57343  11.63514  11.66559  12.14741  12.60209
  Beta virt. eigenvalues --   13.19874  13.41999  13.43857  13.80182  14.19455
  Beta virt. eigenvalues --   14.45137  14.45616  14.54122  14.57298  14.61240
  Beta virt. eigenvalues --   14.63903  14.78245  15.06780  15.86272  15.87478
  Beta virt. eigenvalues --   15.99042  16.01697  16.20318  16.40456  16.41151
  Beta virt. eigenvalues --   48.30817  54.17482 251.38193 282.93302
          Condensed to atoms (all electrons):
               1          2          3          4
     1  F    9.167515  -0.021811  -0.002186  -0.002186
     2  O   -0.021811   8.160881   0.259894   0.259894
     3  H   -0.002186   0.259894   0.361448  -0.019251
     4  H   -0.002186   0.259894  -0.019251   0.361448
          Atomic-Atomic Spin Densities.
               1          2          3          4
     1  F    0.911265  -0.063713  -0.003773  -0.003773
     2  O   -0.063713   0.222195   0.005793   0.005793
     3  H   -0.003773   0.005793  -0.005613  -0.001444
     4  H   -0.003773   0.005793  -0.001444  -0.005613
 Mulliken charges and spin densities:
               1          2
     1  F   -0.141331   0.840005
     2  O   -0.658859   0.170069
     3  H    0.400095  -0.005037
     4  H    0.400095  -0.005037
 Sum of Mulliken charges =  -0.00000   1.00000
 Mulliken charges and spin densities with hydrogens summed into heavy atoms:
               1          2
     1  F   -0.141331   0.840005
     2  O    0.141331   0.159995
 Electronic spatial extent (au):  <R**2>=            105.7356
 Charge=             -0.0000 electrons
 Dipole moment (field-independent basis, Debye):
    X=             -1.9421    Y=             -1.1567    Z=             -0.0000  Tot=              2.2604
 Quadrupole moment (field-independent basis, Debye-Ang):
   XX=            -11.0493   YY=            -12.5128   ZZ=             -9.2519
   XY=              1.8286   XZ=             -0.0000   YZ=              0.0000
 Traceless Quadrupole moment (field-independent basis, Debye-Ang):
   XX=             -0.1113   YY=             -1.5748   ZZ=              1.6861
   XY=              1.8286   XZ=             -0.0000   YZ=              0.0000
 Octapole moment (field-independent basis, Debye-Ang**2):
  XXX=             -0.9705  YYY=              6.0420  ZZZ=             -0.0000  XYY=             -1.8256
  XXY=              0.1118  XXZ=             -0.0000  XZZ=             -1.5062  YZZ=             -1.6323
  YYZ=             -0.0000  XYZ=             -0.0000
 Hexadecapole moment (field-independent basis, Debye-Ang**3):
 XXXX=            -10.6682 YYYY=            -87.5222 ZZZZ=             -9.4335 XXXY=             -0.9048
 XXXZ=             -0.0000 YYYX=              0.0850 YYYZ=              0.0000 ZZZX=             -0.0000
 ZZZY=              0.0000 XXYY=            -15.8786 XXZZ=             -2.8776 YYZZ=            -14.2848
 XXYZ=              0.0000 YYXZ=             -0.0000 ZZXY=              0.7931
 N-N= 3.131127753580D+01 E-N=-4.823010738499D+02  KE= 1.756927487580D+02
                          Isotropic Fermi Contact Couplings
        Atom                 a.u.       MegaHertz       Gauss      10(-4) cm-1
     1  F(19)              0.05418     227.95231      81.33905      76.03670
     2  O(17)              0.09754     -59.12800     -21.09834     -19.72298
     3  H(1)              -0.00339     -15.17445      -5.41462      -5.06165
     4  H(1)              -0.00339     -15.17445      -5.41462      -5.06165
 PrsmSu:  requested number of processors reduced to:  21 ShMem   1 Linda.
 --------------------------------------------------------
       Center         ----  Spin Dipole Couplings  ----
                      3XX-RR        3YY-RR        3ZZ-RR
 --------------------------------------------------------
     1   Atom       -2.815753      5.653846     -2.838093
     2   Atom       -0.452513      0.921563     -0.469049
     3   Atom       -0.008773     -0.000408      0.009181
     4   Atom       -0.008773     -0.000408      0.009181
 --------------------------------------------------------
                        XY            XZ            YZ
 --------------------------------------------------------
     1   Atom       -0.448760     -0.000000      0.000000
     2   Atom        0.177007      0.000000      0.000000
     3   Atom        0.011514     -0.036764     -0.012029
     4   Atom        0.011514      0.036764      0.012029
 --------------------------------------------------------


 ---------------------------------------------------------------------------------
              Anisotropic Spin Dipole Couplings in Principal Axis System
 ---------------------------------------------------------------------------------

       Atom             a.u.   MegaHertz   Gauss  10(-4) cm-1        Axes

              Baa    -2.8395 -1426.052  -508.851  -475.680  0.9986  0.0528  0.0000
     1 F(19)  Bbb    -2.8381 -1425.363  -508.605  -475.450  0.0000  0.0000  1.0000
              Bcc     5.6776  2851.415  1017.456   951.130 -0.0528  0.9986 -0.0000
 
              Baa    -0.4749    34.367    12.263    11.464  0.9921 -0.1257 -0.0000
     2 O(17)  Bbb    -0.4690    33.940    12.111    11.321  0.0000  0.0000  1.0000
              Bcc     0.9440   -68.307   -24.374   -22.785  0.1257  0.9921 -0.0000
 
              Baa    -0.0377   -20.125    -7.181    -6.713  0.7921 -0.0483  0.6085
     3 H(1)   Bbb    -0.0065    -3.462    -1.235    -1.155 -0.1766  0.9361  0.3042
              Bcc     0.0442    23.587     8.417     7.868 -0.5843 -0.3484  0.7329
 
              Baa    -0.0377   -20.125    -7.181    -6.713  0.7921 -0.0483 -0.6085
     4 H(1)   Bbb    -0.0065    -3.462    -1.235    -1.155 -0.1766  0.9361 -0.3042
              Bcc     0.0442    23.587     8.417     7.868  0.5843  0.3484  0.7329
 

 ---------------------------------------------------------------------------------

 PrsmSu:  requested number of processors reduced to:  21 ShMem   1 Linda.
 No NMR shielding tensors so no spin-rotation constants.
 Leave Link  601 at Sat Apr 17 20:31:53 2021, MaxMem=   104857600 cpu:             170.9 elap:               3.8
 (Enter /s/ls4/users/knvvv/bin/g16sse/l801.exe)
 DoSCS=F DFT=T ScalE2(SS,OS)=  1.000000  1.000000
 Range of M.O.s used for correlation:     1   198
 NBasis=   198 NAE=    10 NBE=     9 NFC=     0 NFV=     0
 NROrb=    198 NOA=    10 NOB=     9 NVA=   188 NVB=   189

 **** Warning!!: The largest alpha MO coefficient is  0.28008283D+02


 **** Warning!!: The largest beta MO coefficient is  0.27837697D+02

 Leave Link  801 at Sat Apr 17 20:31:53 2021, MaxMem=   104857600 cpu:               3.7 elap:               0.1
 (Enter /s/ls4/users/knvvv/bin/g16sse/l914.exe)
 UHF ground state
 Doing stability rather than CIS.
 Two-electron integrals replicated using symmetry.
 MDV=   104857600 DFT=T DoStab=T Mixed=T DoRPA=F DoScal=F NonHer=F
 Making orbital integer symmetry assigments:
 Orbital symmetries:
 Alpha Orbitals:
       Occupied  (A') (A') (A') (A') (A") (A') (A') (A") (A') (A')
       Virtual   (A') (A") (A') (A') (A') (A") (A') (A") (A') (A')
                 (A") (A') (A") (A') (A") (A') (A") (A') (A') (A")
                 (A') (A') (A') (A") (A') (A') (A") (A') (A") (A')
                 (A") (A') (A") (A') (A") (A') (A") (A') (A') (A')
                 (A") (A') (A') (A") (A") (A') (A') (A') (A') (A")
                 (A') (A") (A') (A") (A') (A') (A") (A') (A") (A')
                 (A') (A') (A") (A") (A") (A") (A') (A") (A') (A")
                 (A') (A') (A') (A") (A') (A") (A') (A') (A") (A')
                 (A') (A') (A") (A') (A') (A') (A") (A') (A") (A")
                 (A') (A') (A") (A") (A') (A") (A') (A') (A') (A')
                 (A") (A") (A') (A") (A') (A') (A") (A") (A') (A")
                 (A') (A") (A') (A") (A') (A') (A") (A') (A") (A")
                 (A') (A") (A') (A') (A') (A") (A") (A') (A') (A")
                 (A') (A") (A') (A") (A") (A') (A') (A") (A') (A')
                 (A') (A") (A") (A') (A") (A") (A') (A') (A') (A')
                 (A") (A') (A") (A") (A') (A') (A") (A') (A') (A')
                 (A") (A") (A') (A") (A") (A') (A') (A") (A') (A')
                 (A") (A") (A') (A') (A") (A') (A') (A') (A") (A')
                 (A") (A') (A') (A") (A') (A') (A') (A')
 Beta  Orbitals:
       Occupied  (A') (A') (A') (A') (A") (A') (A") (A') (A')
       Virtual   (A') (A') (A") (A') (A') (A') (A") (A') (A") (A')
                 (A') (A") (A') (A") (A') (A") (A') (A") (A') (A')
                 (A") (A') (A') (A') (A") (A') (A') (A") (A') (A")
                 (A') (A") (A') (A") (A') (A") (A') (A") (A') (A')
                 (A') (A") (A') (A') (A") (A") (A') (A') (A') (A')
                 (A") (A') (A") (A') (A") (A') (A') (A") (A') (A")
                 (A') (A') (A') (A") (A") (A") (A") (A') (A") (A')
                 (A") (A') (A') (A') (A") (A') (A") (A') (A') (A")
                 (A') (A') (A') (A") (A') (A') (A') (A") (A') (A")
                 (A") (A') (A') (A") (A") (A') (A") (A') (A') (A')
                 (A') (A") (A") (A') (A") (A') (A') (A") (A") (A')
                 (A") (A') (A") (A') (A") (A') (A') (A") (A') (A")
                 (A") (A') (A") (A') (A') (A') (A") (A") (A') (A')
                 (A") (A') (A") (A') (A") (A") (A') (A') (A") (A')
                 (A') (A') (A") (A") (A') (A") (A") (A') (A') (A')
                 (A") (A') (A') (A") (A") (A') (A") (A') (A') (A')
                 (A') (A") (A") (A') (A") (A") (A') (A') (A") (A')
                 (A") (A') (A') (A") (A') (A") (A') (A') (A') (A")
                 (A') (A") (A') (A') (A") (A') (A') (A') (A')
    12 initial guesses have been made.
 Convergence on wavefunction:    0.001000000000000
 Davidson Disk Diagonalization:  ConvIn= 1.00D-03 SkipCon=T Conv= 1.00D-03.
 Max sub-space:  2000 roots to seek:    12 dimension of matrix:         3581
 Iteration     1 Dimension    12 NMult     0 NNew     12
 Estimated number of processors is:   19
 CISAX will form     1 AO SS matrices at one time.
 NMat=     1 NSing=     1 JSym2X= 2.
 FoFJK:  IHMeth= 1 ICntrl=       0 DoSepK=F KAlg= 0 I1Cent=           0 FoldK=F
 IRaf= 990000000 NMat=       1 IRICut=       1 DoRegI=T DoRafI=F ISym2E= 2 IDoP0=0 IntGTp=1.
 FoFCou: FMM=F IPFlag=           0 FMFlag=      100000 FMFlg1=           0
         NFxFlg=           0 DoJE=F BraDBF=F KetDBF=F FulRan=T
         wScrn=  0.000000 ICntrl=         0 IOpCl=  1 I1Cent=           0 NGrid=           0
         NMat0=    1 NMatS0=      1 NMatT0=    0 NMatD0=    1 NMtDS0=    0 NMtDT0=    0
 Integrals replicated using symmetry in FoFCou.
 CoulSu:  requested number of processors reduced to:  18 ShMem   1 Linda.
 NMat=     1 NSing=     1 JSym2X= 2.
 CoulSu:  requested number of processors reduced to:  18 ShMem   1 Linda.
 NMat=     1 NSing=     1 JSym2X= 2.
 CoulSu:  requested number of processors reduced to:  18 ShMem   1 Linda.
 NMat=     1 NSing=     1 JSym2X= 2.
 CoulSu:  requested number of processors reduced to:  18 ShMem   1 Linda.
 NMat=     1 NSing=     1 JSym2X= 2.
 CoulSu:  requested number of processors reduced to:  18 ShMem   1 Linda.
 NMat=     1 NSing=     1 JSym2X= 2.
 CoulSu:  requested number of processors reduced to:  18 ShMem   1 Linda.
 NMat=     1 NSing=     1 JSym2X= 2.
 CoulSu:  requested number of processors reduced to:  18 ShMem   1 Linda.
 NMat=     1 NSing=     1 JSym2X= 2.
 CoulSu:  requested number of processors reduced to:  18 ShMem   1 Linda.
 NMat=     1 NSing=     1 JSym2X= 2.
 CoulSu:  requested number of processors reduced to:  18 ShMem   1 Linda.
 NMat=     1 NSing=     1 JSym2X= 2.
 CoulSu:  requested number of processors reduced to:  18 ShMem   1 Linda.
 NMat=     1 NSing=     1 JSym2X= 2.
 CoulSu:  requested number of processors reduced to:  18 ShMem   1 Linda.
 NMat=     1 NSing=     1 JSym2X= 2.
 CoulSu:  requested number of processors reduced to:  18 ShMem   1 Linda.
 New state      1 was old state      2
 Excitation Energies [eV] at current iteration:
 Root      1 :     1.471053620913054
 Root      2 :     1.539993862554250
 Root      3 :     6.303833438414953
 Root      4 :     6.900033138770074
 Root      5 :     8.532080077396023
 Root      6 :     8.871274535345377
 Root      7 :    10.046273500210850
 Root      8 :    10.202697440726070
 Root      9 :    10.591163613175840
 Root     10 :    10.673333327470340
 Root     11 :    10.810031951851710
 Root     12 :    11.442139408214310
 Iteration     2 Dimension    24 NMult    12 NNew     12
 Estimated number of processors is:   19
 CISAX will form     1 AO SS matrices at one time.
 NMat=     1 NSing=     1 JSym2X= 2.
 CoulSu:  requested number of processors reduced to:  18 ShMem   1 Linda.
 NMat=     1 NSing=     1 JSym2X= 2.
 CoulSu:  requested number of processors reduced to:  18 ShMem   1 Linda.
 NMat=     1 NSing=     1 JSym2X= 2.
 CoulSu:  requested number of processors reduced to:  18 ShMem   1 Linda.
 NMat=     1 NSing=     1 JSym2X= 2.
 CoulSu:  requested number of processors reduced to:  18 ShMem   1 Linda.
 NMat=     1 NSing=     1 JSym2X= 2.
 CoulSu:  requested number of processors reduced to:  18 ShMem   1 Linda.
 NMat=     1 NSing=     1 JSym2X= 2.
 CoulSu:  requested number of processors reduced to:  18 ShMem   1 Linda.
 NMat=     1 NSing=     1 JSym2X= 2.
 CoulSu:  requested number of processors reduced to:  18 ShMem   1 Linda.
 NMat=     1 NSing=     1 JSym2X= 2.
 CoulSu:  requested number of processors reduced to:  18 ShMem   1 Linda.
 NMat=     1 NSing=     1 JSym2X= 2.
 CoulSu:  requested number of processors reduced to:  18 ShMem   1 Linda.
 NMat=     1 NSing=     1 JSym2X= 2.
 CoulSu:  requested number of processors reduced to:  18 ShMem   1 Linda.
 NMat=     1 NSing=     1 JSym2X= 2.
 CoulSu:  requested number of processors reduced to:  18 ShMem   1 Linda.
 NMat=     1 NSing=     1 JSym2X= 2.
 CoulSu:  requested number of processors reduced to:  18 ShMem   1 Linda.
 Root      1 not converged, maximum delta is    0.073560535208828
 Excitation Energies [eV] at current iteration:
 Root      1 :     0.885103687276129   Change is   -0.585949933636925
 Root      2 :     0.923857810493104   Change is   -0.616136052061146
 Root      3 :     3.967585127307330   Change is   -2.932448011462744
 Root      4 :     6.067539195173354   Change is   -0.236294243241599
 Root      5 :     7.830069921149723   Change is   -0.702010156246299
 Root      6 :     8.543121480978266   Change is   -0.328153054367110
 Root      7 :     9.473444524494143   Change is   -0.572828975716705
 Root      8 :     9.843252675799546   Change is   -0.359444764926520
 Root      9 :    10.130182381520040   Change is   -0.543150945950301
 Root     10 :    10.419568297008000   Change is   -0.171595316167839
 Root     11 :    10.621396188438270   Change is   -0.188635763413440
 Root     12 :    10.883723580445040   Change is   -0.558415827769277
 Iteration     3 Dimension    27 NMult    24 NNew      3
 Estimated number of processors is:   19
 CISAX will form     1 AO SS matrices at one time.
 NMat=     1 NSing=     1 JSym2X= 2.
 CoulSu:  requested number of processors reduced to:  18 ShMem   1 Linda.
 NMat=     1 NSing=     1 JSym2X= 2.
 CoulSu:  requested number of processors reduced to:  18 ShMem   1 Linda.
 NMat=     1 NSing=     1 JSym2X= 2.
 CoulSu:  requested number of processors reduced to:  18 ShMem   1 Linda.
 Root      1 not converged, maximum delta is    0.006012167608968
 Excitation Energies [eV] at current iteration:
 Root      1 :     0.873926836982492   Change is   -0.011176850293636
 Root      2 :     0.911019535071867   Change is   -0.012838275421236
 Root      3 :     3.743777069681586   Change is   -0.223808057625745
 Iteration     4 Dimension    30 NMult    27 NNew      3
 Estimated number of processors is:   19
 CISAX will form     1 AO SS matrices at one time.
 NMat=     1 NSing=     1 JSym2X= 2.
 CoulSu:  requested number of processors reduced to:  18 ShMem   1 Linda.
 NMat=     1 NSing=     1 JSym2X= 2.
 CoulSu:  requested number of processors reduced to:  18 ShMem   1 Linda.
 NMat=     1 NSing=     1 JSym2X= 2.
 CoulSu:  requested number of processors reduced to:  18 ShMem   1 Linda.
 Root      1 has converged.
 Excitation Energies [eV] at current iteration:
 Root      1 :     0.873543359812077   Change is   -0.000383477170415
 Root      2 :     0.910382296214400   Change is   -0.000637238857467
 Root      3 :     3.733034065214435   Change is   -0.010743004467151
 Convergence achieved on expansion vectors.
 ***********************************************************************
 Stability analysis using <AA,BB:AA,BB> singles matrix:
 ***********************************************************************
 1PDM for each excited state written to RWF  633
 Ground to excited state transition densities written to RWF  633

 Eigenvectors of the stability matrix:
 
 Eigenvector   1:  2.010-A'   Eigenvalue= 0.0321021  <S**2>=0.760
      6B -> 10B        0.39931
      8B -> 10B        0.89508
 The wavefunction is stable under the perturbations considered.
 Leave Link  914 at Sat Apr 17 20:33:52 2021, MaxMem=   104857600 cpu:            4641.7 elap:             118.9
 (Enter /s/ls4/users/knvvv/bin/g16sse/l508.exe)
 The wavefunction is already stable.
 Leave Link  508 at Sat Apr 17 20:33:52 2021, MaxMem=   104857600 cpu:               2.2 elap:               0.1
 (Enter /s/ls4/users/knvvv/bin/g16sse/l601.exe)
 Copying SCF densities to generalized density rwf, IOpCl= 1 IROHF=0.

 **********************************************************************

            Population analysis using the SCF density.

 **********************************************************************

 Orbital symmetries:
 Alpha Orbitals:
       Occupied  (A') (A') (A') (A') (A") (A') (A') (A") (A') (A')
       Virtual   (A') (A") (A') (A') (A') (A") (A') (A") (A') (A')
                 (A") (A') (A") (A') (A") (A') (A") (A') (A') (A")
                 (A') (A') (A') (A") (A') (A') (A") (A') (A") (A')
                 (A") (A') (A") (A') (A") (A') (A") (A') (A') (A')
                 (A") (A') (A') (A") (A") (A') (A') (A') (A') (A")
                 (A') (A") (A') (A") (A') (A') (A") (A') (A") (A')
                 (A') (A') (A") (A") (A") (A") (A') (A") (A') (A")
                 (A') (A') (A') (A") (A') (A") (A') (A') (A") (A')
                 (A') (A') (A") (A') (A') (A') (A") (A') (A") (A")
                 (A') (A') (A") (A") (A') (A") (A') (A') (A') (A')
                 (A") (A") (A') (A") (A') (A') (A") (A") (A') (A")
                 (A') (A") (A') (A") (A') (A') (A") (A') (A") (A")
                 (A') (A") (A') (A') (A') (A") (A") (A') (A') (A")
                 (A') (A") (A') (A") (A") (A') (A') (A") (A') (A')
                 (A') (A") (A") (A') (A") (A") (A') (A') (A') (A')
                 (A") (A') (A") (A") (A') (A') (A") (A') (A') (A')
                 (A") (A") (A') (A") (A") (A') (A') (A") (A') (A')
                 (A") (A") (A') (A') (A") (A') (A') (A') (A") (A')
                 (A") (A') (A') (A") (A') (A') (A') (A')
 Beta  Orbitals:
       Occupied  (A') (A') (A') (A') (A") (A') (A") (A') (A')
       Virtual   (A') (A') (A") (A') (A') (A') (A") (A') (A") (A')
                 (A') (A") (A') (A") (A') (A") (A') (A") (A') (A')
                 (A") (A') (A') (A') (A") (A') (A') (A") (A') (A")
                 (A') (A") (A') (A") (A') (A") (A') (A") (A') (A')
                 (A') (A") (A') (A') (A") (A") (A') (A') (A') (A')
                 (A") (A') (A") (A') (A") (A') (A') (A") (A') (A")
                 (A') (A') (A') (A") (A") (A") (A") (A') (A") (A')
                 (A") (A') (A') (A') (A") (A') (A") (A') (A') (A")
                 (A') (A') (A') (A") (A') (A') (A') (A") (A') (A")
                 (A") (A') (A') (A") (A") (A') (A") (A') (A') (A')
                 (A') (A") (A") (A') (A") (A') (A') (A") (A") (A')
                 (A") (A') (A") (A') (A") (A') (A') (A") (A') (A")
                 (A") (A') (A") (A') (A') (A') (A") (A") (A') (A')
                 (A") (A') (A") (A') (A") (A") (A') (A') (A") (A')
                 (A') (A') (A") (A") (A') (A") (A") (A') (A') (A')
                 (A") (A') (A') (A") (A") (A') (A") (A') (A') (A')
                 (A') (A") (A") (A') (A") (A") (A') (A') (A") (A')
                 (A") (A') (A') (A") (A') (A") (A') (A') (A') (A")
                 (A') (A") (A') (A') (A") (A') (A') (A') (A')
 The electronic state is 2-A'.
 Alpha  occ. eigenvalues --  -25.27570 -19.67720  -1.32127  -1.17878  -0.64771
 Alpha  occ. eigenvalues --   -0.60771  -0.53654  -0.52560  -0.50672  -0.43482
 Alpha virt. eigenvalues --    0.00303   0.03689   0.04425   0.05498   0.08708
 Alpha virt. eigenvalues --    0.09809   0.10220   0.12196   0.14090   0.20123
 Alpha virt. eigenvalues --    0.21202   0.21949   0.22788   0.25734   0.27824
 Alpha virt. eigenvalues --    0.29007   0.33438   0.37571   0.42078   0.42775
 Alpha virt. eigenvalues --    0.43197   0.44926   0.47829   0.49645   0.52246
 Alpha virt. eigenvalues --    0.53171   0.54190   0.56117   0.58003   0.62517
 Alpha virt. eigenvalues --    0.63240   0.64246   0.70782   0.79973   0.82509
 Alpha virt. eigenvalues --    0.89815   0.94222   0.95186   1.02623   1.05484
 Alpha virt. eigenvalues --    1.08037   1.10501   1.32406   1.34838   1.41554
 Alpha virt. eigenvalues --    1.42311   1.46839   1.49914   1.55194   1.60696
 Alpha virt. eigenvalues --    1.72295   1.72596   1.74362   1.76373   1.84702
 Alpha virt. eigenvalues --    1.86684   1.90163   1.94818   2.04519   2.05700
 Alpha virt. eigenvalues --    2.09713   2.17580   2.23832   2.27760   2.42525
 Alpha virt. eigenvalues --    2.52070   2.57228   2.59541   2.61893   2.67227
 Alpha virt. eigenvalues --    2.70272   2.81344   3.01605   3.09985   3.28948
 Alpha virt. eigenvalues --    3.30966   3.47702   3.66641   3.81056   3.84362
 Alpha virt. eigenvalues --    3.87216   3.98572   4.02267   4.10796   4.17630
 Alpha virt. eigenvalues --    4.20037   4.20841   4.22923   4.24419   4.29762
 Alpha virt. eigenvalues --    4.32989   4.41979   4.50775   4.60360   4.66939
 Alpha virt. eigenvalues --    4.76313   4.80441   5.25172   5.25405   5.26382
 Alpha virt. eigenvalues --    5.26859   5.30564   5.34473   5.46448   5.58690
 Alpha virt. eigenvalues --    5.63674   5.83905   5.92335   5.94416   6.27438
 Alpha virt. eigenvalues --    6.34238   6.40088   6.43882   6.62666   6.68986
 Alpha virt. eigenvalues --    6.93251   7.01555   7.10672   7.19590   7.24626
 Alpha virt. eigenvalues --    7.30536   7.33158   7.46926   7.52588   7.60748
 Alpha virt. eigenvalues --    7.69487   7.72946   7.77564   7.81850   7.83185
 Alpha virt. eigenvalues --    8.04326   8.15523   8.35935   8.42256   8.56035
 Alpha virt. eigenvalues --    8.63500   8.81838   8.94350   9.66754   9.68390
 Alpha virt. eigenvalues --   10.10035  10.12122  10.50274  10.59652  10.74521
 Alpha virt. eigenvalues --   10.88711  10.97297  11.11041  11.24667  11.31030
 Alpha virt. eigenvalues --   11.31511  11.32675  11.32752  11.33262  11.33651
 Alpha virt. eigenvalues --   11.36546  11.36555  11.37373  11.53096  11.56121
 Alpha virt. eigenvalues --   11.63386  11.65958  12.14422  12.60436  13.20265
 Alpha virt. eigenvalues --   13.40278  13.41696  13.78699  14.17749  14.38964
 Alpha virt. eigenvalues --   14.41849  14.43617  14.43657  14.44455  14.46973
 Alpha virt. eigenvalues --   14.56111  14.93809  15.80463  15.80513  15.81143
 Alpha virt. eigenvalues --   15.85325  15.96977  16.39648  16.41051  48.31159
 Alpha virt. eigenvalues --   54.13084 251.39619 282.95236
  Beta  occ. eigenvalues --  -25.25418 -19.67183  -1.23764  -1.16048  -0.64205
  Beta  occ. eigenvalues --   -0.51712  -0.48968  -0.48277  -0.42627
  Beta virt. eigenvalues --   -0.12329   0.00527   0.03691   0.04765   0.05563
  Beta virt. eigenvalues --    0.09066   0.09837   0.10265   0.12292   0.14214
  Beta virt. eigenvalues --    0.20440   0.21494   0.22311   0.22884   0.25945
  Beta virt. eigenvalues --    0.28062   0.28978   0.33525   0.37731   0.42050
  Beta virt. eigenvalues --    0.43251   0.43289   0.45261   0.48097   0.49739
  Beta virt. eigenvalues --    0.51625   0.52356   0.53952   0.56304   0.58144
  Beta virt. eigenvalues --    0.62735   0.63115   0.64273   0.71065   0.81668
  Beta virt. eigenvalues --    0.82847   0.90033   0.94371   0.95748   1.03104
  Beta virt. eigenvalues --    1.06020   1.08267   1.10813   1.32893   1.35008
  Beta virt. eigenvalues --    1.41752   1.42730   1.47380   1.50172   1.56454
  Beta virt. eigenvalues --    1.61054   1.73050   1.73999   1.75912   1.77120
  Beta virt. eigenvalues --    1.86838   1.88784   1.91623   1.95377   2.04631
  Beta virt. eigenvalues --    2.05960   2.10528   2.20241   2.23835   2.27818
  Beta virt. eigenvalues --    2.42616   2.52178   2.57479   2.59660   2.62781
  Beta virt. eigenvalues --    2.67590   2.70685   2.81737   3.02034   3.10159
  Beta virt. eigenvalues --    3.29225   3.31105   3.47849   3.66732   3.81776
  Beta virt. eigenvalues --    3.85342   3.88382   4.01175   4.02311   4.11892
  Beta virt. eigenvalues --    4.17962   4.20122   4.20443   4.23195   4.24891
  Beta virt. eigenvalues --    4.30376   4.34859   4.43501   4.51202   4.60746
  Beta virt. eigenvalues --    4.68084   4.76493   4.81184   5.26949   5.27946
  Beta virt. eigenvalues --    5.28502   5.28622   5.32788   5.35767   5.47940
  Beta virt. eigenvalues --    5.60878   5.64064   5.83730   5.92218   5.95431
  Beta virt. eigenvalues --    6.27519   6.36585   6.42879   6.44875   6.62820
  Beta virt. eigenvalues --    6.75067   6.93380   7.01682   7.10764   7.19836
  Beta virt. eigenvalues --    7.24876   7.30849   7.33166   7.47292   7.52626
  Beta virt. eigenvalues --    7.60912   7.69589   7.73133   7.77730   7.82171
  Beta virt. eigenvalues --    7.83184   8.04572   8.15610   8.36108   8.42718
  Beta virt. eigenvalues --    8.56262   8.64025   8.82134   8.94559   9.66840
  Beta virt. eigenvalues --    9.68527  10.10057  10.12088  10.50459  10.59976
  Beta virt. eigenvalues --   10.74723  10.89922  10.98078  11.11746  11.27682
  Beta virt. eigenvalues --   11.35021  11.35029  11.36051  11.36538  11.37051
  Beta virt. eigenvalues --   11.37063  11.38451  11.38671  11.43493  11.54067
  Beta virt. eigenvalues --   11.57343  11.63514  11.66559  12.14741  12.60209
  Beta virt. eigenvalues --   13.19874  13.41999  13.43857  13.80182  14.19455
  Beta virt. eigenvalues --   14.45137  14.45616  14.54122  14.57298  14.61240
  Beta virt. eigenvalues --   14.63903  14.78245  15.06780  15.86272  15.87478
  Beta virt. eigenvalues --   15.99042  16.01697  16.20318  16.40456  16.41151
  Beta virt. eigenvalues --   48.30817  54.17482 251.38193 282.93302
          Condensed to atoms (all electrons):
               1          2          3          4
     1  F    9.167515  -0.021811  -0.002186  -0.002186
     2  O   -0.021811   8.160881   0.259894   0.259894
     3  H   -0.002186   0.259894   0.361448  -0.019251
     4  H   -0.002186   0.259894  -0.019251   0.361448
          Atomic-Atomic Spin Densities.
               1          2          3          4
     1  F    0.911265  -0.063713  -0.003773  -0.003773
     2  O   -0.063713   0.222195   0.005793   0.005793
     3  H   -0.003773   0.005793  -0.005613  -0.001444
     4  H   -0.003773   0.005793  -0.001444  -0.005613
 Mulliken charges and spin densities:
               1          2
     1  F   -0.141331   0.840005
     2  O   -0.658859   0.170069
     3  H    0.400095  -0.005037
     4  H    0.400095  -0.005037
 Sum of Mulliken charges =  -0.00000   1.00000
 Mulliken charges and spin densities with hydrogens summed into heavy atoms:
               1          2
     1  F   -0.141331   0.840005
     2  O    0.141331   0.159995
 Electronic spatial extent (au):  <R**2>=            105.7356
 Charge=             -0.0000 electrons
 Dipole moment (field-independent basis, Debye):
    X=             -1.9421    Y=             -1.1567    Z=             -0.0000  Tot=              2.2604
 Quadrupole moment (field-independent basis, Debye-Ang):
   XX=            -11.0493   YY=            -12.5128   ZZ=             -9.2519
   XY=              1.8286   XZ=             -0.0000   YZ=              0.0000
 Traceless Quadrupole moment (field-independent basis, Debye-Ang):
   XX=             -0.1113   YY=             -1.5748   ZZ=              1.6861
   XY=              1.8286   XZ=             -0.0000   YZ=              0.0000
 Octapole moment (field-independent basis, Debye-Ang**2):
  XXX=             -0.9705  YYY=              6.0420  ZZZ=             -0.0000  XYY=             -1.8256
  XXY=              0.1118  XXZ=             -0.0000  XZZ=             -1.5062  YZZ=             -1.6323
  YYZ=             -0.0000  XYZ=             -0.0000
 Hexadecapole moment (field-independent basis, Debye-Ang**3):
 XXXX=            -10.6682 YYYY=            -87.5222 ZZZZ=             -9.4335 XXXY=             -0.9048
 XXXZ=             -0.0000 YYYX=              0.0850 YYYZ=              0.0000 ZZZX=             -0.0000
 ZZZY=              0.0000 XXYY=            -15.8786 XXZZ=             -2.8776 YYZZ=            -14.2848
 XXYZ=              0.0000 YYXZ=             -0.0000 ZZXY=              0.7931
 N-N= 3.131127753580D+01 E-N=-4.823010738499D+02  KE= 1.756927487580D+02
                          Isotropic Fermi Contact Couplings
        Atom                 a.u.       MegaHertz       Gauss      10(-4) cm-1
     1  F(19)              0.05418     227.95231      81.33905      76.03670
     2  O(17)              0.09754     -59.12800     -21.09834     -19.72298
     3  H(1)              -0.00339     -15.17445      -5.41462      -5.06165
     4  H(1)              -0.00339     -15.17445      -5.41462      -5.06165
 PrsmSu:  requested number of processors reduced to:  21 ShMem   1 Linda.
 --------------------------------------------------------
       Center         ----  Spin Dipole Couplings  ----
                      3XX-RR        3YY-RR        3ZZ-RR
 --------------------------------------------------------
     1   Atom       -2.815753      5.653846     -2.838093
     2   Atom       -0.452513      0.921563     -0.469049
     3   Atom       -0.008773     -0.000408      0.009181
     4   Atom       -0.008773     -0.000408      0.009181
 --------------------------------------------------------
                        XY            XZ            YZ
 --------------------------------------------------------
     1   Atom       -0.448760     -0.000000      0.000000
     2   Atom        0.177007      0.000000      0.000000
     3   Atom        0.011514     -0.036764     -0.012029
     4   Atom        0.011514      0.036764      0.012029
 --------------------------------------------------------


 ---------------------------------------------------------------------------------
              Anisotropic Spin Dipole Couplings in Principal Axis System
 ---------------------------------------------------------------------------------

       Atom             a.u.   MegaHertz   Gauss  10(-4) cm-1        Axes

              Baa    -2.8395 -1426.052  -508.851  -475.680  0.9986  0.0528  0.0000
     1 F(19)  Bbb    -2.8381 -1425.363  -508.605  -475.450  0.0000  0.0000  1.0000
              Bcc     5.6776  2851.415  1017.456   951.130 -0.0528  0.9986 -0.0000
 
              Baa    -0.4749    34.367    12.263    11.464  0.9921 -0.1257 -0.0000
     2 O(17)  Bbb    -0.4690    33.940    12.111    11.321  0.0000  0.0000  1.0000
              Bcc     0.9440   -68.307   -24.374   -22.785  0.1257  0.9921 -0.0000
 
              Baa    -0.0377   -20.125    -7.181    -6.713  0.7921 -0.0483  0.6085
     3 H(1)   Bbb    -0.0065    -3.462    -1.235    -1.155 -0.1766  0.9361  0.3042
              Bcc     0.0442    23.587     8.417     7.868 -0.5843 -0.3484  0.7329
 
              Baa    -0.0377   -20.125    -7.181    -6.713  0.7921 -0.0483 -0.6085
     4 H(1)   Bbb    -0.0065    -3.462    -1.235    -1.155 -0.1766  0.9361 -0.3042
              Bcc     0.0442    23.587     8.417     7.868  0.5843  0.3484  0.7329
 

 ---------------------------------------------------------------------------------

 PrsmSu:  requested number of processors reduced to:  21 ShMem   1 Linda.
 No NMR shielding tensors so no spin-rotation constants.
 Leave Link  601 at Sat Apr 17 20:33:56 2021, MaxMem=   104857600 cpu:             191.4 elap:               4.3
 (Enter /s/ls4/users/knvvv/bin/g16sse/l9999.exe)

 Test job not archived.
 1\1\GINC-N305\Stability\UM062X\Gen\F1H2O1(2)\KNVVV\17-Apr-2021\0\\#P M
 062X/GEN Integral=UltraFineGrid SCF=NoSymm Stable=(RExt, Opt) IOp(1/33
 =1)\\Database calculations.\\0,2\F,0,0.,0.,0.\O,0,0.,0.,2.1182985275\H
 ,0,0.9625574465,0.,2.0519857278\H,0,-0.2464919733,0.9304614688,2.05198
 57278\\Version=ES64L-G16RevA.03\State=2-A'\HF=-176.1855604\S2=0.755323
 \S2-1=0.\S2A=0.750015\RMSD=3.340e-09\Dipole=0.4659918,0.6055136,0.4550
 926\Quadrupole=0.7565309,0.4143291,-1.17086,-0.6458743,0.8291526,1.077
 4079\PG=CS [SG(F1O1),X(H2)]\\@


 IF YOU BELIEVE CERTAIN WORDS, YOU BELIEVE THEIR HIDDEN ARGUMENTS.
 WHEN YOU BELIEVE SOMETHING IS RIGHT OR WRONG, TRUE OR FALSE, 
 YOU BELIEVE THE ASSUMPTIONS IN THE WORDS WHICH EXPRESS THE ARGUMENTS.
 SUCH ASSUMPTIONS ARE OFTEN FULL OF HOLES, BUT REMAIN MOST PRECIOUS 
 TO THE CONVINCED.

                 -- THE OPEN-ENDED PROOF FROM THE PANOPLIA PROPHETICA
                    CHILDREN OF DUNE BY FRANK HERBERT
 Job cpu time:       0 days  3 hours 34 minutes 44.0 seconds.
 Elapsed time:       0 days  0 hours  5 minutes  2.0 seconds.
 File lengths (MBytes):  RWF=    124 Int=      0 D2E=      0 Chk=      6 Scr=      1
 Normal termination of Gaussian 16 at Sat Apr 17 20:33:56 2021.
