 Entering Gaussian System, Link 0=/s/ls4/users/knvvv/bin/g16sse/g16
 Input=data/database/M062X--def2-QZVPPD--13_Cl2+_IP13.gjf
 Output=data/database/M062X--def2-QZVPPD--13_Cl2+_IP13.log
 Initial command:
 /s/ls4/users/knvvv/bin/g16sse/l1.exe "/s/ls4/users/knvvv/bin/scratch/Gau-8639.inp" -scrdir="/s/ls4/users/knvvv/bin/scratch/"
 Entering Link 1 = /s/ls4/users/knvvv/bin/g16sse/l1.exe PID=      8640.
  
 Copyright (c) 1988,1990,1992,1993,1995,1998,2003,2009,2016,
            Gaussian, Inc.  All Rights Reserved.
  
 This is part of the Gaussian(R) 16 program.  It is based on
 the Gaussian(R) 09 system (copyright 2009, Gaussian, Inc.),
 the Gaussian(R) 03 system (copyright 2003, Gaussian, Inc.),
 the Gaussian(R) 98 system (copyright 1998, Gaussian, Inc.),
 the Gaussian(R) 94 system (copyright 1995, Gaussian, Inc.),
 the Gaussian 92(TM) system (copyright 1992, Gaussian, Inc.),
 the Gaussian 90(TM) system (copyright 1990, Gaussian, Inc.),
 the Gaussian 88(TM) system (copyright 1988, Gaussian, Inc.),
 the Gaussian 86(TM) system (copyright 1986, Carnegie Mellon
 University), and the Gaussian 82(TM) system (copyright 1983,
 Carnegie Mellon University). Gaussian is a federally registered
 trademark of Gaussian, Inc.
  
 This software contains proprietary and confidential information,
 including trade secrets, belonging to Gaussian, Inc.
  
 This software is provided under written license and may be
 used, copied, transmitted, or stored only in accord with that
 written license.
  
 The following legend is applicable only to US Government
 contracts under FAR:
  
                    RESTRICTED RIGHTS LEGEND
  
 Use, reproduction and disclosure by the US Government is
 subject to restrictions as set forth in subparagraphs (a)
 and (c) of the Commercial Computer Software - Restricted
 Rights clause in FAR 52.227-19.
  
 Gaussian, Inc.
 340 Quinnipiac St., Bldg. 40, Wallingford CT 06492
  
  
 ---------------------------------------------------------------
 Warning -- This program may not be used in any manner that
 competes with the business of Gaussian, Inc. or will provide
 assistance to any competitor of Gaussian, Inc.  The licensee
 of this program is prohibited from giving any competitor of
 Gaussian, Inc. access to this program.  By using this program,
 the user acknowledges that Gaussian, Inc. is engaged in the
 business of creating and licensing software in the field of
 computational chemistry and represents and warrants to the
 licensee that it is not a competitor of Gaussian, Inc. and that
 it will not use this program in any manner prohibited above.
 ---------------------------------------------------------------
  

 Cite this work as:
 Gaussian 16, Revision A.03,
 M. J. Frisch, G. W. Trucks, H. B. Schlegel, G. E. Scuseria, 
 M. A. Robb, J. R. Cheeseman, G. Scalmani, V. Barone, 
 G. A. Petersson, H. Nakatsuji, X. Li, M. Caricato, A. V. Marenich, 
 J. Bloino, B. G. Janesko, R. Gomperts, B. Mennucci, H. P. Hratchian, 
 J. V. Ortiz, A. F. Izmaylov, J. L. Sonnenberg, D. Williams-Young, 
 F. Ding, F. Lipparini, F. Egidi, J. Goings, B. Peng, A. Petrone, 
 T. Henderson, D. Ranasinghe, V. G. Zakrzewski, J. Gao, N. Rega, 
 G. Zheng, W. Liang, M. Hada, M. Ehara, K. Toyota, R. Fukuda, 
 J. Hasegawa, M. Ishida, T. Nakajima, Y. Honda, O. Kitao, H. Nakai, 
 T. Vreven, K. Throssell, J. A. Montgomery, Jr., J. E. Peralta, 
 F. Ogliaro, M. J. Bearpark, J. J. Heyd, E. N. Brothers, K. N. Kudin, 
 V. N. Staroverov, T. A. Keith, R. Kobayashi, J. Normand, 
 K. Raghavachari, A. P. Rendell, J. C. Burant, S. S. Iyengar, 
 J. Tomasi, M. Cossi, J. M. Millam, M. Klene, C. Adamo, R. Cammi, 
 J. W. Ochterski, R. L. Martin, K. Morokuma, O. Farkas, 
 J. B. Foresman, and D. J. Fox, Gaussian, Inc., Wallingford CT, 2016.
 
 ******************************************
 Gaussian 16:  ES64L-G16RevA.03 25-Dec-2016
                17-Apr-2021 
 ******************************************
 %RWF=temp15_54121,70GB
 %nprocshared=48
 Will use up to   48 processors via shared memory.
 Default route: MaxDisk=80GB
 ----------------------------------------------------------------------
 #P M062X/GEN Integral=UltraFineGrid SCF=NoSymm Stable=(RExt, Opt) IOp(
 1/33=1)
 ----------------------------------------------------------------------
 1/33=1,38=1,172=1/1;
 2/12=2,17=6,18=5,40=1/2;
 3/5=7,11=2,25=1,30=1,74=-55,75=-5/1,2,3;
 4/9=2/1;
 5/5=2,38=5/2;
 6/7=2,8=2,9=2,10=2,28=1/1;
 8/6=1,10=90,11=11/1;
 9/8=-3,42=1,46=1/14;
 5/5=2,8=3,17=40,38=5/8(-2);
 6/7=2,8=2,9=2,10=2,28=1/1;
 99/5=1,9=1/99;
 Leave Link    1 at Sat Apr 17 06:27:07 2021, MaxMem=           0 cpu:              11.0 elap:               0.3
 (Enter /s/ls4/users/knvvv/bin/g16sse/l101.exe)
 ONIOM data not found on unit 2.
 ----------------------
 Database calculations.
 ----------------------
 TstMul:  ICh=     1
 TstMul:  Mul=     2
 TstMul:  ICh=     1
 TstMul:  Mul=     2
 Symbolic Z-matrix:
 Charge =  1 Multiplicity = 2
 Cl                    0.        0.        0. 
 Cl                    0.        0.        1.90094 
 
 RdStrC is calling ZToCFu for IStruc=1 NZ=     2.
 PrtBox:  NBox=     1 Levels=  1 BoxLen=    8.00 SMaxX=        3.59
          Shift=            0.000000            0.000000            0.000000
 Box      1 Number                   0 centers from      1 to      2:
 After GenITR:
 ITRead=  0  0
 MicOpt= -1 -1
 ITRead=  0  0
 MicOpt= -1 -1
 NAtoms=      2 NQM=        2 NQMF=       0 NMMI=      0 NMMIF=      0
                NMic=       0 NMicF=      0.
                    Isotopes and Nuclear Properties:
 (Nuclear quadrupole moments (NQMom) in fm**2, nuclear magnetic moments (NMagM)
  in nuclear magnetons)

  Atom         1           2
 IAtWgt=          35          35
 AtmWgt=  34.9688527  34.9688527
 NucSpn=           3           3
 AtZEff=  -0.0000000  -0.0000000
 NQMom=   -8.1650000  -8.1650000
 NMagM=    0.8218740   0.8218740
 AtZNuc=  17.0000000  17.0000000
 No MM parameters found.
 Leave Link  101 at Sat Apr 17 06:27:07 2021, MaxMem=   104857600 cpu:               8.1 elap:               0.2
 (Enter /s/ls4/users/knvvv/bin/g16sse/l202.exe)
                          Input orientation:                          
 ---------------------------------------------------------------------
 Center     Atomic      Atomic             Coordinates (Angstroms)
 Number     Number       Type             X           Y           Z
 ---------------------------------------------------------------------
      1         17           0        0.000000    0.000000    0.000000
      2         17           0        0.000000    0.000000    1.900942
 ---------------------------------------------------------------------
 Stoichiometry    Cl2(1+,2)
 Framework group  D*H[C*(Cl.Cl)]
 Deg. of freedom     1
 Full point group                 D*H     NOp   8
 Largest Abelian subgroup         D2H     NOp   8
 Largest concise Abelian subgroup C2      NOp   2
                         Standard orientation:                         
 ---------------------------------------------------------------------
 Center     Atomic      Atomic             Coordinates (Angstroms)
 Number     Number       Type             X           Y           Z
 ---------------------------------------------------------------------
      1         17           0        0.000000    0.000000    0.950471
      2         17           0        0.000000    0.000000   -0.950471
 ---------------------------------------------------------------------
 Rotational constants (GHZ):           0.0000000           7.9988619           7.9988619
 Leave Link  202 at Sat Apr 17 06:27:07 2021, MaxMem=   104857600 cpu:               8.7 elap:               0.2
 (Enter /s/ls4/users/knvvv/bin/g16sse/l301.exe)
 General basis read from cards:  (5D, 7F)
 Centers:       1      2
 S 10 1.00
     Exponent=  1.4674590095D+06 Coefficients=  1.1478257194D-05
     Exponent=  2.1975616433D+05 Coefficients=  8.9234299775D-05
     Exponent=  5.0010770301D+04 Coefficients=  4.6911086186D-04
     Exponent=  1.4164823918D+04 Coefficients=  1.9762446133D-03
     Exponent=  4.6207465525D+03 Coefficients=  7.1419937783D-03
     Exponent=  1.6678991635D+03 Coefficients=  2.2753219445D-02
     Exponent=  6.5029199265D+02 Coefficients=  6.3959782953D-02
     Exponent=  2.6938037376D+02 Coefficients=  1.5331059238D-01
     Exponent=  1.1706752106D+02 Coefficients=  2.8986952417D-01
     Exponent=  5.2811766843D+01 Coefficients=  3.6348071452D-01
 S 3 1.00
     Exponent=  4.6142769988D+02 Coefficients=  1.8019457578D-02
     Exponent=  1.4212665355D+02 Coefficients=  1.6489442314D-01
     Exponent=  5.4437838768D+01 Coefficients=  6.3891587584D-01
 S 1 1.00
     Exponent=  2.4160770219D+01 Coefficients=  1.0000000000D+00
 S 1 1.00
     Exponent=  9.7083540306D+00 Coefficients=  1.0000000000D+00
 S 1 1.00
     Exponent=  4.5640696733D+00 Coefficients=  1.0000000000D+00
 S 1 1.00
     Exponent=  2.1194744832D+00 Coefficients=  1.0000000000D+00
 S 1 1.00
     Exponent=  7.5722365394D-01 Coefficients=  1.0000000000D+00
 S 1 1.00
     Exponent=  3.3747224597D-01 Coefficients=  1.0000000000D+00
 S 1 1.00
     Exponent=  1.3860775149D-01 Coefficients=  1.0000000000D+00
 S 1 1.00
     Exponent=  5.4234565513D-02 Coefficients=  1.0000000000D+00
 P 8 1.00
     Exponent=  2.5019457890D+03 Coefficients=  2.4242618410D-04
     Exponent=  5.9288059285D+02 Coefficients=  2.1079961749D-03
     Exponent=  1.9218089186D+02 Coefficients=  1.1432693869D-02
     Exponent=  7.2875710488D+01 Coefficients=  4.4956698060D-02
     Exponent=  3.0436358370D+01 Coefficients=  1.3197476145D-01
     Exponent=  1.3490178902D+01 Coefficients=  2.7493639225D-01
     Exponent=  6.1478071413D+00 Coefficients=  3.8347236372D-01
     Exponent=  2.8450944820D+00 Coefficients=  2.8871943885D-01
 P 2 1.00
     Exponent=  1.0539397936D+02 Coefficients= -3.4311760144D-02
     Exponent=  6.7369738513D+00 Coefficients=  6.4060818902D-01
 P 1 1.00
     Exponent=  1.2421095772D+00 Coefficients=  1.0000000000D+00
 P 1 1.00
     Exponent=  5.5669714254D-01 Coefficients=  1.0000000000D+00
 P 1 1.00
     Exponent=  2.3387801464D-01 Coefficients=  1.0000000000D+00
 P 1 1.00
     Exponent=  9.3164490890D-02 Coefficients=  1.0000000000D+00
 P 1 1.00
     Exponent=  2.7256146018D-02 Coefficients=  1.0000000000D+00
 D 1 1.00
     Exponent=  5.1910000000D+00 Coefficients=  1.0000000000D+00
 D 1 1.00
     Exponent=  1.2760000000D+00 Coefficients=  1.0000000000D+00
 D 1 1.00
     Exponent=  5.8300000000D-01 Coefficients=  1.0000000000D+00
 D 1 1.00
     Exponent=  2.4300000000D-01 Coefficients=  1.0000000000D+00
 D 1 1.00
     Exponent=  8.3456538402D-02 Coefficients=  1.0000000000D+00
 F 1 1.00
     Exponent=  1.0890000000D+00 Coefficients=  1.0000000000D+00
 F 1 1.00
     Exponent=  4.2300000000D-01 Coefficients=  1.0000000000D+00
 G 1 1.00
     Exponent=  8.2700000000D-01 Coefficients=  1.0000000000D+00
 ****
 Ernie: Thresh=  0.10000D-02 Tol=  0.10000D-05 Strict=F.
 There are    44 symmetry adapted cartesian basis functions of AG  symmetry.
 There are    10 symmetry adapted cartesian basis functions of B1G symmetry.
 There are    21 symmetry adapted cartesian basis functions of B2G symmetry.
 There are    21 symmetry adapted cartesian basis functions of B3G symmetry.
 There are    10 symmetry adapted cartesian basis functions of AU  symmetry.
 There are    44 symmetry adapted cartesian basis functions of B1U symmetry.
 There are    21 symmetry adapted cartesian basis functions of B2U symmetry.
 There are    21 symmetry adapted cartesian basis functions of B3U symmetry.
 There are    34 symmetry adapted basis functions of AG  symmetry.
 There are     9 symmetry adapted basis functions of B1G symmetry.
 There are    18 symmetry adapted basis functions of B2G symmetry.
 There are    18 symmetry adapted basis functions of B3G symmetry.
 There are     9 symmetry adapted basis functions of AU  symmetry.
 There are    34 symmetry adapted basis functions of B1U symmetry.
 There are    18 symmetry adapted basis functions of B2U symmetry.
 There are    18 symmetry adapted basis functions of B3U symmetry.
   158 basis functions,   262 primitive gaussians,   192 cartesian basis functions
    17 alpha electrons       16 beta electrons
       nuclear repulsion energy        80.4507632916 Hartrees.
 IExCor= 4336 DFT=T Ex+Corr=M062X ExCW=0 ScaHFX=  0.540000
 ScaDFX=  1.000000  1.000000  1.000000  1.000000 ScalE2=  1.000000  1.000000
 IRadAn=      5 IRanWt=     -1 IRanGd=            0 ICorTp=0 IEmpDi=  4
 NAtoms=    2 NActive=    2 NUniq=    1 SFac= 4.00D+00 NAtFMM=   60 NAOKFM=F Big=F
 Integral buffers will be    131072 words long.
 Raffenetti 2 integral format.
 Two-electron integral symmetry is turned on.
 Leave Link  301 at Sat Apr 17 06:27:07 2021, MaxMem=   104857600 cpu:               8.9 elap:               0.2
 (Enter /s/ls4/users/knvvv/bin/g16sse/l302.exe)
 NPDir=0 NMtPBC=     1 NCelOv=     1 NCel=       1 NClECP=     1 NCelD=      1
         NCelK=      1 NCelE2=     1 NClLst=     1 CellRange=     0.0.
 One-electron integrals computed using PRISM.
 One-electron integral symmetry used in STVInt
 PrsmSu:  requested number of processors reduced to:   4 ShMem   1 Linda.
 PrsmSu:  requested number of processors reduced to:  21 ShMem   1 Linda.
 NBasis=   158 RedAO= T EigKep=  2.18D-04  NBF=    34     9    18    18     9    34    18    18
 NBsUse=   158 1.00D-06 EigRej= -1.00D+00 NBFU=    34     9    18    18     9    34    18    18
 Precomputing XC quadrature grid using
 IXCGrd= 4 IRadAn=           5 IRanWt=          -1 IRanGd=           0 AccXCQ= 0.00D+00.
 Generated NRdTot=       0 NPtTot=           0 NUsed=           0 NTot=          32
 NSgBfM=   188   187   187   188   188 MxSgAt=     2 MxSgA2=     2.
 Leave Link  302 at Sat Apr 17 06:27:15 2021, MaxMem=   104857600 cpu:             368.8 elap:               7.9
 (Enter /s/ls4/users/knvvv/bin/g16sse/l303.exe)
 DipDrv:  MaxL=1.
 Leave Link  303 at Sat Apr 17 06:27:16 2021, MaxMem=   104857600 cpu:              33.9 elap:               0.7
 (Enter /s/ls4/users/knvvv/bin/g16sse/l401.exe)
 SCF N**3 symmetry information disabled.
 ExpMin= 2.73D-02 ExpMax= 1.47D+06 ExpMxC= 1.67D+03 IAcc=3 IRadAn=         5 AccDes= 0.00D+00
 Harris functional with IExCor= 1009 and IRadAn=       5 diagonalized for initial guess.
 HarFok:  IExCor= 1009 AccDes= 0.00D+00 IRadAn=         5 IDoV= 1 UseB2=F ITyADJ=14
 ICtDFT=  3500011 ScaDFX=  1.000000  1.000000  1.000000  1.000000
 FoFCou: FMM=F IPFlag=           0 FMFlag=      100000 FMFlg1=           0
         NFxFlg=           0 DoJE=T BraDBF=F KetDBF=T FulRan=T
         wScrn=  0.000000 ICntrl=       500 IOpCl=  0 I1Cent=   200000004 NGrid=           0
         NMat0=    1 NMatS0=      1 NMatT0=    0 NMatD0=    1 NMtDS0=    0 NMtDT0=    0
 Petite list used in FoFCou.
 CoulSu:  requested number of processors reduced to:  21 ShMem   1 Linda.
 CoulSu:  requested number of processors reduced to:  21 ShMem   1 Linda.
 CoulSu:  requested number of processors reduced to:  21 ShMem   1 Linda.
 CoulSu:  requested number of processors reduced to:  21 ShMem   1 Linda.
 Harris En= -919.695574812452    
 JPrj=0 DoOrth=F DoCkMO=F.
 Initial guess orbital symmetries:
 Alpha Orbitals:
       Occupied  (SGU) (SGG) (SGG) (SGU) (SGG) (SGU) (PIU) (PIU)
                 (PIG) (PIG) (SGG) (SGU) (SGG) (PIU) (PIU) (PIG)
                 (PIG)
       Virtual   (SGU) (SGG) (SGU) (PIU) (PIU) (SGG) (PIG) (PIG)
                 (DLTG) (DLTG) (SGU) (PIU) (PIU) (SGG) (DLTU) (DLTU)
                 (SGU) (PIG) (PIG) (PIU) (PIU) (SGG) (PIU) (PIU)
                 (DLTG) (DLTG) (PIG) (PIG) (SGU) (SGG) (DLTU) (DLTU)
                 (SGG) (PIG) (PIG) (SGU) (SGU) (PIU) (PIU) (DLTG)
                 (DLTG) (SGG) (SGG) (PHIU) (PHIU) (PIG) (PIG) (PIU)
                 (PIU) (DLTG) (DLTG) (DLTU) (DLTU) (SGU) (PIG)
                 (PIG) (PHIG) (PHIG) (SGU) (PIU) (PIU) (DLTU) (DLTU)
                 (SGU) (SGG) (PIG) (PIG) (SGG) (SGU) (PIU) (PIU)
                 (DLTG) (DLTG) (SGG) (DLTU) (DLTU) (DLTG) (DLTG)
                 (PIG) (PIG) (PHIU) (PHIU) (SGG) (PIU) (PIU) (?A)
                 (?A) (?B) (?B) (PHIG) (PHIG) (SGU) (PHIU) (PHIU)
                 (PIU) (PIU) (DLTU) (DLTU) (DLTG) (DLTG) (SGU)
                 (?C) (?C) (?C) (?C) (SGG) (PIG) (PIG) (PIU) (PIU)
                 (DLTU) (DLTU) (SGU) (PIG) (PIG) (SGG) (SGU) (SGG)
                 (SGU) (DLTG) (DLTG) (PIU) (PIU) (DLTU) (DLTU)
                 (PIG) (PIG) (SGG) (SGU) (SGG) (SGU) (PIU) (PIU)
                 (PIG) (PIG) (SGG) (SGU) (SGG) (SGU) (SGG) (SGU)
 Beta  Orbitals:
       Occupied  (SGU) (SGG) (SGG) (SGU) (SGG) (SGU) (PIU) (PIU)
                 (PIG) (PIG) (SGG) (SGU) (SGG) (PIU) (PIU) (PIG)
       Virtual   (PIG) (SGU) (SGG) (SGU) (PIU) (PIU) (SGG) (PIG)
                 (PIG) (DLTG) (DLTG) (SGU) (PIU) (PIU) (SGG) (DLTU)
                 (DLTU) (SGU) (PIG) (PIG) (PIU) (PIU) (SGG) (PIU)
                 (PIU) (DLTG) (DLTG) (PIG) (PIG) (SGU) (SGG) (DLTU)
                 (DLTU) (SGG) (PIG) (PIG) (SGU) (SGU) (PIU) (PIU)
                 (DLTG) (DLTG) (SGG) (SGG) (PHIU) (PHIU) (PIG)
                 (PIG) (PIU) (PIU) (DLTG) (DLTG) (DLTU) (DLTU)
                 (SGU) (PIG) (PIG) (PHIG) (PHIG) (SGU) (PIU) (PIU)
                 (DLTU) (DLTU) (SGU) (SGG) (PIG) (PIG) (SGG) (SGU)
                 (PIU) (PIU) (DLTG) (DLTG) (SGG) (DLTU) (DLTU)
                 (DLTG) (DLTG) (PIG) (PIG) (PHIU) (PHIU) (SGG)
                 (PIU) (PIU) (?A) (?A) (?B) (?B) (PHIG) (PHIG)
                 (SGU) (PHIU) (PHIU) (PIU) (PIU) (DLTU) (DLTU)
                 (DLTG) (DLTG) (SGU) (?C) (?C) (?C) (?C) (SGG)
                 (PIG) (PIG) (PIU) (PIU) (DLTU) (DLTU) (SGU) (PIG)
                 (PIG) (SGG) (SGU) (SGG) (SGU) (DLTG) (DLTG) (PIU)
                 (PIU) (DLTU) (DLTU) (PIG) (PIG) (SGG) (SGU) (SGG)
                 (SGU) (PIU) (PIU) (PIG) (PIG) (SGG) (SGU) (SGG)
                 (SGU) (SGG) (SGU)
 Initial guess <Sx>= 0.0000 <Sy>= 0.0000 <Sz>= 0.5000 <S**2>= 0.7500 S= 0.5000
 Leave Link  401 at Sat Apr 17 06:27:20 2021, MaxMem=   104857600 cpu:             182.9 elap:               4.1
 (Enter /s/ls4/users/knvvv/bin/g16sse/l502.exe)
 Integral symmetry usage will be decided dynamically.
 UHF open shell SCF:
 Using DIIS extrapolation, IDIIS=  1040.
 NGot=   104857600 LenX=   104770274 LenY=   104732969
 Requested convergence on RMS density matrix=1.00D-08 within 128 cycles.
 Requested convergence on MAX density matrix=1.00D-06.
 Requested convergence on             energy=1.00D-06.
 No special actions if energy rises.
 Fock matrices will be formed incrementally for  20 cycles.

 Cycle   1  Pass 1  IDiag  1:
 FoFJK:  IHMeth= 1 ICntrl=       0 DoSepK=F KAlg= 0 I1Cent=           0 FoldK=F
 IRaf= 970000000 NMat=       1 IRICut=       1 DoRegI=T DoRafI=F ISym2E= 1 IDoP0=0 IntGTp=1.
 FoFCou: FMM=F IPFlag=           0 FMFlag=      100000 FMFlg1=           0
         NFxFlg=           0 DoJE=F BraDBF=F KetDBF=F FulRan=T
         wScrn=  0.000000 ICntrl=         0 IOpCl=  1 I1Cent=           0 NGrid=           0
         NMat0=    1 NMatS0=      1 NMatT0=    0 NMatD0=    1 NMtDS0=    0 NMtDT0=    0
 Petite list used in FoFCou.
 CoulSu:  requested number of processors reduced to:  20 ShMem   1 Linda.
 E= -919.863467077596    
 DIIS: error= 4.47D-02 at cycle   1 NSaved=   1.
 NSaved= 1 IEnMin= 1 EnMin= -919.863467077596     IErMin= 1 ErrMin= 4.47D-02
 ErrMax= 4.47D-02  0.00D+00 EMaxC= 1.00D-01 BMatC= 8.66D-01 BMatP= 8.66D-01
 IDIUse=3 WtCom= 5.53D-01 WtEn= 4.47D-01
 Coeff-Com:  0.100D+01
 Coeff-En:   0.100D+01
 Coeff:      0.100D+01
 Gap=     0.353 Goal=   None    Shift=    0.000
 Gap=     0.159 Goal=   None    Shift=    0.000
 GapD=    0.159 DampG=1.000 DampE=0.500 DampFc=0.5000 IDamp=-1.
 Damping current iteration by 5.00D-01
 RMSDP=2.57D-03 MaxDP=8.59D-02              OVMax= 1.32D-01

 Cycle   2  Pass 1  IDiag  1:
 RMSU=  1.25D-03    CP:  1.01D+00
 CoulSu:  requested number of processors reduced to:  20 ShMem   1 Linda.
 E= -919.919835478590     Delta-E=       -0.056368400994 Rises=F Damp=T
 DIIS: error= 2.21D-02 at cycle   2 NSaved=   2.
 NSaved= 2 IEnMin= 2 EnMin= -919.919835478590     IErMin= 2 ErrMin= 2.21D-02
 ErrMax= 2.21D-02  0.00D+00 EMaxC= 1.00D-01 BMatC= 1.17D-01 BMatP= 8.66D-01
 IDIUse=3 WtCom= 7.79D-01 WtEn= 2.21D-01
 Coeff-Com: -0.373D+00 0.137D+01
 Coeff-En:   0.000D+00 0.100D+01
 Coeff:     -0.291D+00 0.129D+01
 Gap=     0.329 Goal=   None    Shift=    0.000
 Gap=     0.172 Goal=   None    Shift=    0.000
 RMSDP=7.91D-04 MaxDP=1.78D-02 DE=-5.64D-02 OVMax= 4.76D-02

 Cycle   3  Pass 1  IDiag  1:
 RMSU=  5.05D-04    CP:  1.02D+00  1.47D+00
 CoulSu:  requested number of processors reduced to:  20 ShMem   1 Linda.
 E= -919.967881143181     Delta-E=       -0.048045664591 Rises=F Damp=F
 DIIS: error= 4.96D-03 at cycle   3 NSaved=   3.
 NSaved= 3 IEnMin= 3 EnMin= -919.967881143181     IErMin= 3 ErrMin= 4.96D-03
 ErrMax= 4.96D-03  0.00D+00 EMaxC= 1.00D-01 BMatC= 5.50D-03 BMatP= 1.17D-01
 IDIUse=3 WtCom= 9.50D-01 WtEn= 4.96D-02
 Coeff-Com: -0.761D-01 0.224D+00 0.852D+00
 Coeff-En:   0.000D+00 0.000D+00 0.100D+01
 Coeff:     -0.723D-01 0.213D+00 0.859D+00
 Gap=     0.328 Goal=   None    Shift=    0.000
 Gap=     0.173 Goal=   None    Shift=    0.000
 RMSDP=1.49D-04 MaxDP=3.54D-03 DE=-4.80D-02 OVMax= 1.18D-02

 Cycle   4  Pass 1  IDiag  1:
 RMSU=  1.48D-04    CP:  1.02D+00  1.48D+00  1.01D+00
 CoulSu:  requested number of processors reduced to:  20 ShMem   1 Linda.
 E= -919.968505333425     Delta-E=       -0.000624190245 Rises=F Damp=F
 DIIS: error= 1.56D-03 at cycle   4 NSaved=   4.
 NSaved= 4 IEnMin= 4 EnMin= -919.968505333425     IErMin= 4 ErrMin= 1.56D-03
 ErrMax= 1.56D-03  0.00D+00 EMaxC= 1.00D-01 BMatC= 7.00D-04 BMatP= 5.50D-03
 IDIUse=3 WtCom= 9.84D-01 WtEn= 1.56D-02
 Coeff-Com: -0.346D-02 0.185D-02 0.259D+00 0.743D+00
 Coeff-En:   0.000D+00 0.000D+00 0.000D+00 0.100D+01
 Coeff:     -0.341D-02 0.182D-02 0.255D+00 0.747D+00
 Gap=     0.329 Goal=   None    Shift=    0.000
 Gap=     0.174 Goal=   None    Shift=    0.000
 RMSDP=4.68D-05 MaxDP=1.80D-03 DE=-6.24D-04 OVMax= 3.47D-03

 Cycle   5  Pass 1  IDiag  1:
 RMSU=  3.49D-05    CP:  1.02D+00  1.49D+00  1.06D+00  9.16D-01
 CoulSu:  requested number of processors reduced to:  20 ShMem   1 Linda.
 E= -919.968602009400     Delta-E=       -0.000096675974 Rises=F Damp=F
 DIIS: error= 2.65D-04 at cycle   5 NSaved=   5.
 NSaved= 5 IEnMin= 5 EnMin= -919.968602009400     IErMin= 5 ErrMin= 2.65D-04
 ErrMax= 2.65D-04  0.00D+00 EMaxC= 1.00D-01 BMatC= 7.61D-06 BMatP= 7.00D-04
 IDIUse=3 WtCom= 9.97D-01 WtEn= 2.65D-03
 Coeff-Com: -0.128D-02 0.225D-02-0.527D-01-0.649D-01 0.112D+01
 Coeff-En:   0.000D+00 0.000D+00 0.000D+00 0.000D+00 0.100D+01
 Coeff:     -0.128D-02 0.225D-02-0.526D-01-0.647D-01 0.112D+01
 Gap=     0.329 Goal=   None    Shift=    0.000
 Gap=     0.174 Goal=   None    Shift=    0.000
 RMSDP=8.43D-06 MaxDP=3.05D-04 DE=-9.67D-05 OVMax= 7.73D-04

 Cycle   6  Pass 1  IDiag  1:
 RMSU=  5.14D-06    CP:  1.02D+00  1.49D+00  1.06D+00  9.50D-01  1.09D+00
 CoulSu:  requested number of processors reduced to:  20 ShMem   1 Linda.
 E= -919.968603934035     Delta-E=       -0.000001924635 Rises=F Damp=F
 DIIS: error= 2.57D-05 at cycle   6 NSaved=   6.
 NSaved= 6 IEnMin= 6 EnMin= -919.968603934035     IErMin= 6 ErrMin= 2.57D-05
 ErrMax= 2.57D-05  0.00D+00 EMaxC= 1.00D-01 BMatC= 1.15D-07 BMatP= 7.61D-06
 IDIUse=1 WtCom= 1.00D+00 WtEn= 0.00D+00
 Coeff-Com:  0.658D-03-0.124D-02-0.467D-02-0.169D-01-0.530D-01 0.108D+01
 Coeff:      0.658D-03-0.124D-02-0.467D-02-0.169D-01-0.530D-01 0.108D+01
 Gap=     0.329 Goal=   None    Shift=    0.000
 Gap=     0.174 Goal=   None    Shift=    0.000
 RMSDP=1.62D-06 MaxDP=7.86D-05 DE=-1.92D-06 OVMax= 1.08D-04

 Cycle   7  Pass 1  IDiag  1:
 RMSU=  4.31D-07    CP:  1.02D+00  1.49D+00  1.06D+00  9.52D-01  1.10D+00
                    CP:  1.24D+00
 CoulSu:  requested number of processors reduced to:  20 ShMem   1 Linda.
 E= -919.968603974892     Delta-E=       -0.000000040857 Rises=F Damp=F
 DIIS: error= 2.01D-06 at cycle   7 NSaved=   7.
 NSaved= 7 IEnMin= 7 EnMin= -919.968603974892     IErMin= 7 ErrMin= 2.01D-06
 ErrMax= 2.01D-06  0.00D+00 EMaxC= 1.00D-01 BMatC= 1.59D-09 BMatP= 1.15D-07
 IDIUse=1 WtCom= 1.00D+00 WtEn= 0.00D+00
 Coeff-Com: -0.648D-04 0.129D-03 0.141D-02 0.202D-02-0.169D-01-0.480D-01
 Coeff-Com:  0.106D+01
 Coeff:     -0.648D-04 0.129D-03 0.141D-02 0.202D-02-0.169D-01-0.480D-01
 Coeff:      0.106D+01
 Gap=     0.329 Goal=   None    Shift=    0.000
 Gap=     0.174 Goal=   None    Shift=    0.000
 RMSDP=2.28D-07 MaxDP=6.94D-06 DE=-4.09D-08 OVMax= 1.03D-05

 Cycle   8  Pass 1  IDiag  1:
 RMSU=  9.79D-08    CP:  1.02D+00  1.49D+00  1.06D+00  9.51D-01  1.10D+00
                    CP:  1.27D+00  1.13D+00
 CoulSu:  requested number of processors reduced to:  20 ShMem   1 Linda.
 E= -919.968603975368     Delta-E=       -0.000000000476 Rises=F Damp=F
 DIIS: error= 2.98D-07 at cycle   8 NSaved=   8.
 NSaved= 8 IEnMin= 8 EnMin= -919.968603975368     IErMin= 8 ErrMin= 2.98D-07
 ErrMax= 2.98D-07  0.00D+00 EMaxC= 1.00D-01 BMatC= 2.42D-11 BMatP= 1.59D-09
 IDIUse=1 WtCom= 1.00D+00 WtEn= 0.00D+00
 Coeff-Com:  0.399D-05-0.870D-05-0.109D-03-0.391D-04 0.262D-02-0.829D-02
 Coeff-Com: -0.151D+00 0.116D+01
 Coeff:      0.399D-05-0.870D-05-0.109D-03-0.391D-04 0.262D-02-0.829D-02
 Coeff:     -0.151D+00 0.116D+01
 Gap=     0.329 Goal=   None    Shift=    0.000
 Gap=     0.174 Goal=   None    Shift=    0.000
 RMSDP=2.63D-08 MaxDP=1.43D-06 DE=-4.76D-10 OVMax= 2.25D-06

 Cycle   9  Pass 1  IDiag  1:
 RMSU=  1.37D-08    CP:  1.02D+00  1.49D+00  1.06D+00  9.51D-01  1.10D+00
                    CP:  1.27D+00  1.16D+00  1.10D+00
 CoulSu:  requested number of processors reduced to:  20 ShMem   1 Linda.
 E= -919.968603975378     Delta-E=       -0.000000000010 Rises=F Damp=F
 DIIS: error= 6.25D-08 at cycle   9 NSaved=   9.
 NSaved= 9 IEnMin= 9 EnMin= -919.968603975378     IErMin= 9 ErrMin= 6.25D-08
 ErrMax= 6.25D-08  0.00D+00 EMaxC= 1.00D-01 BMatC= 6.66D-13 BMatP= 2.42D-11
 IDIUse=1 WtCom= 1.00D+00 WtEn= 0.00D+00
 Coeff-Com:  0.465D-07-0.269D-07-0.248D-05-0.269D-04-0.600D-04 0.128D-02
 Coeff-Com:  0.732D-02-0.185D+00 0.118D+01
 Coeff:      0.465D-07-0.269D-07-0.248D-05-0.269D-04-0.600D-04 0.128D-02
 Coeff:      0.732D-02-0.185D+00 0.118D+01
 Gap=     0.329 Goal=   None    Shift=    0.000
 Gap=     0.174 Goal=   None    Shift=    0.000
 RMSDP=4.13D-09 MaxDP=1.24D-07 DE=-9.55D-12 OVMax= 3.31D-07

 SCF Done:  E(UM062X) =  -919.968603975     A.U. after    9 cycles
            NFock=  9  Conv=0.41D-08     -V/T= 2.0014
 <Sx>= 0.0000 <Sy>= 0.0000 <Sz>= 0.5000 <S**2>= 0.7549 S= 0.5025
 <L.S>= 0.000000000000E+00
 KE= 9.186764779520D+02 PE=-2.337986622752D+03 EE= 4.188907775333D+02
 Annihilation of the first spin contaminant:
 S**2 before annihilation     0.7549,   after     0.7500
 Leave Link  502 at Sat Apr 17 06:30:51 2021, MaxMem=   104857600 cpu:            9734.6 elap:             210.3
 (Enter /s/ls4/users/knvvv/bin/g16sse/l601.exe)
 Copying SCF densities to generalized density rwf, IOpCl= 1 IROHF=0.

 **********************************************************************

            Population analysis using the SCF density.

 **********************************************************************

 Orbital symmetries:
 Alpha Orbitals:
       Occupied  (SGG) (SGU) (SGG) (SGU) (PIU) (PIG) (SGG) (SGU)
                 (PIU) (PIG) (SGG) (SGU) (SGG) (PIU) (PIU) (PIG)
                 (PIG)
       Virtual   (SGU) (?A) (PIU) (PIU) (SGU) (?A) (?A) (?A) (PIG)
                 (PIG) (PIU) (PIU) (?B) (?A) (?B) (?B) (?B) (PIG)
                 (PIG) (PIU) (PIU) (PIU) (?C) (PIU) (?C) (?C) (PIG)
                 (PIG) (?B) (?B) (?C) (?B) (SGG) (PIG) (PIG) (?B)
                 (SGU) (PIU) (PIU) (?D) (?D) (?D) (?D) (?E) (PIG)
                 (?E) (?E) (?E) (PIG) (?D) (?D) (?F) (?F) (?F)
                 (?G) (?G) (?G) (?G) (SGU) (PIU) (PIU) (DLTU) (DLTU)
                 (SGU) (SGG) (PIG) (PIG) (SGG) (SGU) (PIU) (PIU)
                 (?H) (?H) (?H) (?H) (DLTU) (?H) (DLTU) (?E) (?E)
                 (PIG) (?H) (PIG) (?E) (?E) (?H) (?H) (?H) (?H)
                 (PHIG) (PHIG) (?B) (PHIU) (PHIU) (?B) (?B) (?H)
                 (?H) (PIU) (?G) (?G) (PIU) (?B) (?G) (?G) (?H)
                 (PIG) (PIG) (PIU) (?H) (?H) (PIU) (?H) (PIG) (PIG)
                 (SGG) (SGU) (SGG) (SGU) (PIU) (?H) (?H) (PIU)
                 (DLTU) (DLTU) (PIG) (?H) (PIG) (SGU) (SGG) (SGU)
                 (PIU) (PIG) (PIU) (PIG) (SGG) (SGU) (SGG) (SGU)
                 (SGG) (SGU)
 Beta  Orbitals:
       Occupied  (SGG) (SGU) (SGG) (SGU) (SGG) (SGU) (PIU) (PIG)
                 (PIU) (PIG) (SGG) (SGU) (SGG) (PIU) (PIU) (PIG)
       Virtual   (PIG) (SGU) (?A) (PIU) (PIU) (SGU) (SGG) (?A)
                 (?A) (PIG) (PIG) (PIU) (PIU) (?B) (SGG) (?B) (?B)
                 (?B) (PIG) (PIG) (PIU) (PIU) (?C) (PIU) (PIU)
                 (?C) (?C) (PIG) (PIG) (SGG) (?D) (?D) (?D) (SGG)
                 (PIG) (PIG) (SGU) (SGU) (?E) (?E) (?F) (?F) (?F)
                 (?F) (?E) (?E) (?E) (?E) (PIG) (PIG) (?F) (?F)
                 (?G) (?G) (?G) (?H) (?H) (?H) (?H) (SGU) (PIU)
                 (PIU) (DLTU) (DLTU) (SGU) (SGG) (PIG) (PIG) (SGG)
                 (SGU) (PIU) (PIU) (?H) (?H) (?H) (?H) (?H) (?H)
                 (?H) (?H) (?H) (PIG) (PIG) (?H) (?H) (?H) (?H)
                 (?H) (?H) (?H) (PHIG) (PHIG) (SGU) (?H) (?H) (?H)
                 (?H) (DLTG) (DLTG) (?H) (?H) (?H) (?H) (?H) (?H)
                 (?H) (SGG) (?H) (?H) (?H) (PIU) (?H) (PIU) (?H)
                 (PIG) (PIG) (SGG) (SGU) (SGG) (SGU) (PIU) (?H)
                 (PIU) (?H) (DLTU) (DLTU) (PIG) (?H) (PIG) (SGU)
                 (SGG) (SGU) (PIU) (PIG) (PIU) (PIG) (SGG) (SGU)
                 (SGG) (SGU) (SGG) (SGU)
 Unable to determine electronic state:  partially filled degenerate orbitals.
 Alpha  occ. eigenvalues -- -103.05865-103.05864 -10.20450 -10.20436  -7.93344
 Alpha  occ. eigenvalues --   -7.93343  -7.92921  -7.92890  -7.92058  -7.92056
 Alpha  occ. eigenvalues --   -1.38863  -1.18091  -0.85552  -0.82638  -0.80197
 Alpha  occ. eigenvalues --   -0.69794  -0.67066
 Alpha virt. eigenvalues --   -0.34199  -0.16121  -0.11851  -0.11479  -0.11337
 Alpha virt. eigenvalues --   -0.10025  -0.08419  -0.08380  -0.07458  -0.07140
 Alpha virt. eigenvalues --   -0.06006  -0.04879   0.00315   0.01164   0.02908
 Alpha virt. eigenvalues --    0.02919   0.05817   0.07950   0.08180   0.08348
 Alpha virt. eigenvalues --    0.08876   0.16202   0.16361   0.16960   0.17870
 Alpha virt. eigenvalues --    0.17956   0.22959   0.23268   0.25699   0.25825
 Alpha virt. eigenvalues --    0.26048   0.26324   0.31644   0.35567   0.37057
 Alpha virt. eigenvalues --    0.41703   0.68111   0.85752   0.87523   0.89789
 Alpha virt. eigenvalues --    0.89877   0.95356   0.97032   0.97113   0.97169
 Alpha virt. eigenvalues --    0.97607   0.97743   0.98339   0.98951   1.02715
 Alpha virt. eigenvalues --    1.02788   1.06892   1.07516   1.08561   1.10556
 Alpha virt. eigenvalues --    1.11326   1.11563   1.12008   1.16907   1.20865
 Alpha virt. eigenvalues --    1.22452   1.37133   1.37143   1.73320   1.76229
 Alpha virt. eigenvalues --    1.83371   1.84487   1.85462   2.48396   2.73573
 Alpha virt. eigenvalues --    2.75308   2.87677   2.87729   2.98030   3.05035
 Alpha virt. eigenvalues --    3.05214   3.05261   3.05263   3.07066   3.07073
 Alpha virt. eigenvalues --    3.07754   3.09426   3.09501   3.15187   3.17018
 Alpha virt. eigenvalues --    3.20362   3.20370   3.24106   3.24114   3.34614
 Alpha virt. eigenvalues --    3.34615   3.38720   3.50120   3.50125   3.52024
 Alpha virt. eigenvalues --    3.52036   3.53201   3.53214   3.57249   3.58471
 Alpha virt. eigenvalues --    3.58479   3.59902   3.62055   3.62942   3.65427
 Alpha virt. eigenvalues --    3.68052   3.83233   3.85800   3.94038   3.94962
 Alpha virt. eigenvalues --    3.95110   3.96513   4.05178   4.65685   4.67493
 Alpha virt. eigenvalues --    4.72453   5.52565   8.01553   8.53602  10.34342
 Alpha virt. eigenvalues --   10.34363  10.34422  10.36159  10.39159  10.39173
 Alpha virt. eigenvalues --   10.52792  10.54716  10.54759  11.14908  28.08437
 Alpha virt. eigenvalues --   28.61527  41.62073  41.63140  41.63616  41.64688
 Alpha virt. eigenvalues --   41.68231  41.75183  97.86670  98.37512 523.64464
 Alpha virt. eigenvalues --  524.50956
  Beta  occ. eigenvalues -- -103.05189-103.05189 -10.20232 -10.20213  -7.92731
  Beta  occ. eigenvalues --   -7.92700  -7.91843  -7.91842  -7.91501  -7.91498
  Beta  occ. eigenvalues --   -1.36555  -1.14198  -0.83889  -0.79119  -0.75509
  Beta  occ. eigenvalues --   -0.65685
  Beta virt. eigenvalues --   -0.48280  -0.32942  -0.16154  -0.11715  -0.11460
  Beta virt. eigenvalues --   -0.11235  -0.09939  -0.08131  -0.08053  -0.07112
  Beta virt. eigenvalues --   -0.07058  -0.04700  -0.04550   0.00141   0.01300
  Beta virt. eigenvalues --    0.03007   0.03092   0.05764   0.07593   0.08092
  Beta virt. eigenvalues --    0.08534   0.09060   0.16441   0.16957   0.17259
  Beta virt. eigenvalues --    0.18938   0.19031   0.22223   0.23167   0.26055
  Beta virt. eigenvalues --    0.26096   0.27337   0.27436   0.32120   0.37403
  Beta virt. eigenvalues --    0.37469   0.42159   0.68049   0.87968   0.88120
  Beta virt. eigenvalues --    0.90148   0.90172   0.94990   0.97492   0.97716
  Beta virt. eigenvalues --    0.97924   0.98019   0.98360   0.99172   0.99255
  Beta virt. eigenvalues --    1.03240   1.03711   1.07525   1.08503   1.08802
  Beta virt. eigenvalues --    1.11221   1.11795   1.11950   1.12106   1.17099
  Beta virt. eigenvalues --    1.21664   1.22487   1.37468   1.37486   1.73738
  Beta virt. eigenvalues --    1.77133   1.83337   1.84432   1.86291   2.49580
  Beta virt. eigenvalues --    2.75291   2.75717   2.89125   2.89481   2.98205
  Beta virt. eigenvalues --    3.06158   3.06362   3.06789   3.07228   3.08275
  Beta virt. eigenvalues --    3.08384   3.09409   3.09624   3.10210   3.16426
  Beta virt. eigenvalues --    3.16965   3.22232   3.22277   3.26039   3.26086
  Beta virt. eigenvalues --    3.36008   3.36044   3.39021   3.53891   3.53981
  Beta virt. eigenvalues --    3.53988   3.55091   3.55725   3.56141   3.60251
  Beta virt. eigenvalues --    3.60899   3.62064   3.62111   3.63437   3.65662
  Beta virt. eigenvalues --    3.65898   3.68457   3.86110   3.87614   3.96587
  Beta virt. eigenvalues --    3.96639   3.96984   3.97614   4.07943   4.66912
  Beta virt. eigenvalues --    4.67044   4.74476   5.52274   8.04252   8.56711
  Beta virt. eigenvalues --   10.36635  10.37313  10.37760  10.38067  10.42123
  Beta virt. eigenvalues --   10.42924  10.55348  10.56082  10.56688  11.16230
  Beta virt. eigenvalues --   28.12933  28.66411  41.64270  41.65343  41.66540
  Beta virt. eigenvalues --   41.67615  41.68821  41.75785  97.88406  98.39373
  Beta virt. eigenvalues --  523.63909 524.50428
          Condensed to atoms (all electrons):
               1          2
     1  Cl  16.295926   0.204074
     2  Cl   0.204074  16.295926
          Atomic-Atomic Spin Densities.
               1          2
     1  Cl   0.606884  -0.106884
     2  Cl  -0.106884   0.606884
 Mulliken charges and spin densities:
               1          2
     1  Cl   0.500000   0.500000
     2  Cl   0.500000   0.500000
 Sum of Mulliken charges =   1.00000   1.00000
 Mulliken charges and spin densities with hydrogens summed into heavy atoms:
               1          2
     1  Cl   0.500000   0.500000
     2  Cl   0.500000   0.500000
 Electronic spatial extent (au):  <R**2>=            151.4805
 Charge=              1.0000 electrons
 Dipole moment (field-independent basis, Debye):
    X=              0.0000    Y=              0.0000    Z=              0.0000  Tot=              0.0000
 Quadrupole moment (field-independent basis, Debye-Ang):
   XX=            -22.2855   YY=            -20.6776   ZZ=            -13.2509
   XY=              0.0000   XZ=             -0.0000   YZ=              0.0000
 Traceless Quadrupole moment (field-independent basis, Debye-Ang):
   XX=             -3.5475   YY=             -1.9396   ZZ=              5.4871
   XY=              0.0000   XZ=             -0.0000   YZ=              0.0000
 Octapole moment (field-independent basis, Debye-Ang**2):
  XXX=             -0.0000  YYY=              0.0000  ZZZ=             -0.0000  XYY=             -0.0000
  XXY=              0.0000  XXZ=              0.0000  XZZ=             -0.0000  YZZ=              0.0000
  YYZ=              0.0000  XYZ=              0.0000
 Hexadecapole moment (field-independent basis, Debye-Ang**3):
 XXXX=            -21.7736 YYYY=            -19.2461 ZZZZ=           -110.3233 XXXY=              0.0000
 XXXZ=              0.0000 YYYX=              0.0000 YYYZ=              0.0000 ZZZX=              0.0000
 ZZZY=              0.0000 XXYY=             -6.8390 XXZZ=            -26.5692 YYZZ=            -23.9939
 XXYZ=              0.0000 YYXZ=              0.0000 ZZXY=              0.0000
 N-N= 8.045076329161D+01 E-N=-2.337986622339D+03  KE= 9.186764779520D+02
                          Isotropic Fermi Contact Couplings
        Atom                 a.u.       MegaHertz       Gauss      10(-4) cm-1
     1  Cl(35)             0.02556      11.20696       3.99892       3.73824
     2  Cl(35)             0.02556      11.20696       3.99892       3.73824
 PrsmSu:  requested number of processors reduced to:  21 ShMem   1 Linda.
 --------------------------------------------------------
       Center         ----  Spin Dipole Couplings  ----
                      3XX-RR        3YY-RR        3ZZ-RR
 --------------------------------------------------------
     1   Atom       -1.883317      3.874007     -1.990690
     2   Atom       -1.883317      3.874007     -1.990690
 --------------------------------------------------------
                        XY            XZ            YZ
 --------------------------------------------------------
     1   Atom        0.000000      0.000000      0.000000
     2   Atom        0.000000      0.000000      0.000000
 --------------------------------------------------------


 ---------------------------------------------------------------------------------
              Anisotropic Spin Dipole Couplings in Principal Axis System
 ---------------------------------------------------------------------------------

       Atom             a.u.   MegaHertz   Gauss  10(-4) cm-1        Axes

              Baa    -1.9907  -104.188   -37.177   -34.753  0.0000  0.0000  1.0000
     1 Cl(35) Bbb    -1.8833   -98.568   -35.172   -32.879  1.0000 -0.0000 -0.0000
              Bcc     3.8740   202.756    72.349    67.632 -0.0000  1.0000 -0.0000
 
              Baa    -1.9907  -104.188   -37.177   -34.753  0.0000  0.0000  1.0000
     2 Cl(35) Bbb    -1.8833   -98.568   -35.172   -32.879  1.0000 -0.0000 -0.0000
              Bcc     3.8740   202.756    72.349    67.632 -0.0000  1.0000 -0.0000
 

 ---------------------------------------------------------------------------------

 PrsmSu:  requested number of processors reduced to:  21 ShMem   1 Linda.
 No NMR shielding tensors so no spin-rotation constants.
 Leave Link  601 at Sat Apr 17 06:30:58 2021, MaxMem=   104857600 cpu:             343.8 elap:               7.5
 (Enter /s/ls4/users/knvvv/bin/g16sse/l801.exe)
 DoSCS=F DFT=T ScalE2(SS,OS)=  1.000000  1.000000
 Range of M.O.s used for correlation:     1   158
 NBasis=   158 NAE=    17 NBE=    16 NFC=     0 NFV=     0
 NROrb=    158 NOA=    17 NOB=    16 NVA=   141 NVB=   142

 **** Warning!!: The largest alpha MO coefficient is  0.21085722D+02


 **** Warning!!: The largest beta MO coefficient is  0.21143597D+02

 Leave Link  801 at Sat Apr 17 06:30:58 2021, MaxMem=   104857600 cpu:               3.8 elap:               0.1
 (Enter /s/ls4/users/knvvv/bin/g16sse/l914.exe)
 UHF ground state
 Doing stability rather than CIS.
 Two-electron integrals replicated using symmetry.
 MDV=   104857600 DFT=T DoStab=T Mixed=T DoRPA=F DoScal=F NonHer=F
 Making orbital integer symmetry assigments:
 Orbital symmetries:
 Alpha Orbitals:
       Occupied  (SGG) (SGU) (SGG) (SGU) (PIU) (PIG) (SGG) (SGU)
                 (PIU) (PIG) (SGG) (SGU) (SGG) (PIU) (PIU) (PIG)
                 (PIG)
       Virtual   (SGU) (?A) (PIU) (PIU) (SGU) (?A) (?A) (?A) (PIG)
                 (PIG) (PIU) (PIU) (?B) (?A) (?B) (?B) (?B) (PIG)
                 (PIG) (PIU) (PIU) (PIU) (?C) (PIU) (?C) (?C) (PIG)
                 (PIG) (?B) (?B) (?C) (?B) (SGG) (PIG) (PIG) (?B)
                 (SGU) (PIU) (PIU) (?D) (?D) (?D) (?D) (?E) (PIG)
                 (?E) (?E) (?E) (PIG) (?D) (?D) (?F) (?F) (?F)
                 (?G) (?G) (?G) (?G) (SGU) (PIU) (PIU) (DLTU) (DLTU)
                 (SGU) (SGG) (PIG) (PIG) (SGG) (SGU) (PIU) (PIU)
                 (?H) (?H) (?H) (?H) (DLTU) (?H) (DLTU) (?E) (?E)
                 (PIG) (?H) (PIG) (?E) (?E) (?H) (?H) (?H) (?H)
                 (PHIG) (PHIG) (?B) (PHIU) (PHIU) (?B) (?B) (?H)
                 (?H) (PIU) (?G) (?G) (PIU) (?B) (?G) (?G) (?H)
                 (PIG) (PIG) (PIU) (?H) (?H) (PIU) (?H) (PIG) (PIG)
                 (SGG) (SGU) (SGG) (SGU) (PIU) (?H) (?H) (PIU)
                 (DLTU) (DLTU) (PIG) (?H) (PIG) (SGU) (SGG) (SGU)
                 (PIU) (PIG) (PIU) (PIG) (SGG) (SGU) (SGG) (SGU)
                 (SGG) (SGU)
 Beta  Orbitals:
       Occupied  (SGG) (SGU) (SGG) (SGU) (SGG) (SGU) (PIU) (PIG)
                 (PIU) (PIG) (SGG) (SGU) (SGG) (PIU) (PIU) (PIG)
       Virtual   (PIG) (SGU) (?A) (PIU) (PIU) (SGU) (SGG) (?A)
                 (?A) (PIG) (PIG) (PIU) (PIU) (?B) (SGG) (?B) (?B)
                 (?B) (PIG) (PIG) (PIU) (PIU) (?C) (PIU) (PIU)
                 (?C) (?C) (PIG) (PIG) (SGG) (?D) (?D) (?D) (SGG)
                 (PIG) (PIG) (SGU) (SGU) (?E) (?E) (?F) (?F) (?F)
                 (?F) (?E) (?E) (?E) (?E) (PIG) (PIG) (?F) (?F)
                 (?G) (?G) (?G) (?H) (?H) (?H) (?H) (SGU) (PIU)
                 (PIU) (DLTU) (DLTU) (SGU) (SGG) (PIG) (PIG) (SGG)
                 (SGU) (PIU) (PIU) (?H) (?H) (?H) (?H) (?H) (?H)
                 (?H) (?H) (?H) (PIG) (PIG) (?H) (?H) (?H) (?H)
                 (?H) (?H) (?H) (PHIG) (PHIG) (SGU) (?H) (?H) (?H)
                 (?H) (DLTG) (DLTG) (?H) (?H) (?H) (?H) (?H) (?H)
                 (?H) (SGG) (?H) (?H) (?H) (PIU) (?H) (PIU) (?H)
                 (PIG) (PIG) (SGG) (SGU) (SGG) (SGU) (PIU) (?H)
                 (PIU) (?H) (DLTU) (DLTU) (PIG) (?H) (PIG) (SGU)
                 (SGG) (SGU) (PIU) (PIG) (PIU) (PIG) (SGG) (SGU)
                 (SGG) (SGU) (SGG) (SGU)
    24 initial guesses have been made.
 Convergence on wavefunction:    0.001000000000000
 Davidson Disk Diagonalization:  ConvIn= 1.00D-03 SkipCon=T Conv= 1.00D-03.
 Max sub-space:  2000 roots to seek:    24 dimension of matrix:         4669
 Iteration     1 Dimension    24 NMult     0 NNew     24
 Estimated number of processors is:   20
 CISAX will form     1 AO SS matrices at one time.
 NMat=     1 NSing=     1 JSym2X= 2.
 FoFJK:  IHMeth= 1 ICntrl=       0 DoSepK=F KAlg= 0 I1Cent=           0 FoldK=F
 IRaf= 970000000 NMat=       1 IRICut=       1 DoRegI=T DoRafI=F ISym2E= 2 IDoP0=0 IntGTp=1.
 FoFCou: FMM=F IPFlag=           0 FMFlag=      100000 FMFlg1=           0
         NFxFlg=           0 DoJE=F BraDBF=F KetDBF=F FulRan=T
         wScrn=  0.000000 ICntrl=         0 IOpCl=  1 I1Cent=           0 NGrid=           0
         NMat0=    1 NMatS0=      1 NMatT0=    0 NMatD0=    1 NMtDS0=    0 NMtDT0=    0
 Integrals replicated using symmetry in FoFCou.
 CoulSu:  requested number of processors reduced to:  18 ShMem   1 Linda.
 NMat=     1 NSing=     1 JSym2X= 2.
 CoulSu:  requested number of processors reduced to:  18 ShMem   1 Linda.
 NMat=     1 NSing=     1 JSym2X= 2.
 CoulSu:  requested number of processors reduced to:  18 ShMem   1 Linda.
 NMat=     1 NSing=     1 JSym2X= 2.
 CoulSu:  requested number of processors reduced to:  18 ShMem   1 Linda.
 NMat=     1 NSing=     1 JSym2X= 2.
 CoulSu:  requested number of processors reduced to:  18 ShMem   1 Linda.
 NMat=     1 NSing=     1 JSym2X= 2.
 CoulSu:  requested number of processors reduced to:  18 ShMem   1 Linda.
 NMat=     1 NSing=     1 JSym2X= 2.
 CoulSu:  requested number of processors reduced to:  18 ShMem   1 Linda.
 NMat=     1 NSing=     1 JSym2X= 2.
 CoulSu:  requested number of processors reduced to:  18 ShMem   1 Linda.
 NMat=     1 NSing=     1 JSym2X= 2.
 CoulSu:  requested number of processors reduced to:  18 ShMem   1 Linda.
 NMat=     1 NSing=     1 JSym2X= 2.
 CoulSu:  requested number of processors reduced to:  18 ShMem   1 Linda.
 NMat=     1 NSing=     1 JSym2X= 2.
 CoulSu:  requested number of processors reduced to:  18 ShMem   1 Linda.
 NMat=     1 NSing=     1 JSym2X= 2.
 CoulSu:  requested number of processors reduced to:  18 ShMem   1 Linda.
 NMat=     1 NSing=     1 JSym2X= 2.
 CoulSu:  requested number of processors reduced to:  18 ShMem   1 Linda.
 NMat=     1 NSing=     1 JSym2X= 2.
 CoulSu:  requested number of processors reduced to:  18 ShMem   1 Linda.
 NMat=     1 NSing=     1 JSym2X= 2.
 CoulSu:  requested number of processors reduced to:  18 ShMem   1 Linda.
 NMat=     1 NSing=     1 JSym2X= 2.
 CoulSu:  requested number of processors reduced to:  18 ShMem   1 Linda.
 NMat=     1 NSing=     1 JSym2X= 2.
 CoulSu:  requested number of processors reduced to:  18 ShMem   1 Linda.
 NMat=     1 NSing=     1 JSym2X= 2.
 CoulSu:  requested number of processors reduced to:  18 ShMem   1 Linda.
 NMat=     1 NSing=     1 JSym2X= 2.
 CoulSu:  requested number of processors reduced to:  18 ShMem   1 Linda.
 NMat=     1 NSing=     1 JSym2X= 2.
 CoulSu:  requested number of processors reduced to:  18 ShMem   1 Linda.
 NMat=     1 NSing=     1 JSym2X= 2.
 CoulSu:  requested number of processors reduced to:  18 ShMem   1 Linda.
 NMat=     1 NSing=     1 JSym2X= 2.
 CoulSu:  requested number of processors reduced to:  18 ShMem   1 Linda.
 NMat=     1 NSing=     1 JSym2X= 2.
 CoulSu:  requested number of processors reduced to:  18 ShMem   1 Linda.
 NMat=     1 NSing=     1 JSym2X= 2.
 CoulSu:  requested number of processors reduced to:  18 ShMem   1 Linda.
 Excitation Energies [eV] at current iteration:
 Root      1 :     0.236376006653462
 Root      2 :     3.526158203517451
 Root      3 :     3.732554305302405
 Root      4 :     4.331164569272789
 Root      5 :     5.013241632030005
 Root      6 :     5.177843696201909
 Root      7 :     5.344870786011878
 Root      8 :     7.052649580595913
 Root      9 :     7.199891074328031
 Root     10 :     7.227183935513630
 Root     11 :     8.776604834758000
 Root     12 :     9.029341371789549
 Root     13 :    10.294675629482740
 Root     14 :    10.656434786045180
 Root     15 :    11.413552442068580
 Root     16 :    12.313846826473260
 Root     17 :    12.482064337112890
 Root     18 :    12.573996386435400
 Root     19 :    12.658664381323010
 Root     20 :    12.819997944240010
 Root     21 :    12.905666670164390
 Root     22 :    12.959037035987350
 Root     23 :    13.162885232770660
 Root     24 :    20.579133433635700
 Iteration     2 Dimension    48 NMult    24 NNew     24
 Estimated number of processors is:   20
 CISAX will form     1 AO SS matrices at one time.
 NMat=     1 NSing=     1 JSym2X= 2.
 CoulSu:  requested number of processors reduced to:  18 ShMem   1 Linda.
 NMat=     1 NSing=     1 JSym2X= 2.
 CoulSu:  requested number of processors reduced to:  18 ShMem   1 Linda.
 NMat=     1 NSing=     1 JSym2X= 2.
 CoulSu:  requested number of processors reduced to:  18 ShMem   1 Linda.
 NMat=     1 NSing=     1 JSym2X= 2.
 CoulSu:  requested number of processors reduced to:  18 ShMem   1 Linda.
 NMat=     1 NSing=     1 JSym2X= 2.
 CoulSu:  requested number of processors reduced to:  18 ShMem   1 Linda.
 NMat=     1 NSing=     1 JSym2X= 2.
 CoulSu:  requested number of processors reduced to:  18 ShMem   1 Linda.
 NMat=     1 NSing=     1 JSym2X= 2.
 CoulSu:  requested number of processors reduced to:  18 ShMem   1 Linda.
 NMat=     1 NSing=     1 JSym2X= 2.
 CoulSu:  requested number of processors reduced to:  18 ShMem   1 Linda.
 NMat=     1 NSing=     1 JSym2X= 2.
 CoulSu:  requested number of processors reduced to:  18 ShMem   1 Linda.
 NMat=     1 NSing=     1 JSym2X= 2.
 CoulSu:  requested number of processors reduced to:  18 ShMem   1 Linda.
 NMat=     1 NSing=     1 JSym2X= 2.
 CoulSu:  requested number of processors reduced to:  18 ShMem   1 Linda.
 NMat=     1 NSing=     1 JSym2X= 2.
 CoulSu:  requested number of processors reduced to:  18 ShMem   1 Linda.
 NMat=     1 NSing=     1 JSym2X= 2.
 CoulSu:  requested number of processors reduced to:  18 ShMem   1 Linda.
 NMat=     1 NSing=     1 JSym2X= 2.
 CoulSu:  requested number of processors reduced to:  18 ShMem   1 Linda.
 NMat=     1 NSing=     1 JSym2X= 2.
 CoulSu:  requested number of processors reduced to:  18 ShMem   1 Linda.
 NMat=     1 NSing=     1 JSym2X= 2.
 CoulSu:  requested number of processors reduced to:  18 ShMem   1 Linda.
 NMat=     1 NSing=     1 JSym2X= 2.
 CoulSu:  requested number of processors reduced to:  18 ShMem   1 Linda.
 NMat=     1 NSing=     1 JSym2X= 2.
 CoulSu:  requested number of processors reduced to:  18 ShMem   1 Linda.
 NMat=     1 NSing=     1 JSym2X= 2.
 CoulSu:  requested number of processors reduced to:  18 ShMem   1 Linda.
 NMat=     1 NSing=     1 JSym2X= 2.
 CoulSu:  requested number of processors reduced to:  18 ShMem   1 Linda.
 NMat=     1 NSing=     1 JSym2X= 2.
 CoulSu:  requested number of processors reduced to:  18 ShMem   1 Linda.
 NMat=     1 NSing=     1 JSym2X= 2.
 CoulSu:  requested number of processors reduced to:  18 ShMem   1 Linda.
 NMat=     1 NSing=     1 JSym2X= 2.
 CoulSu:  requested number of processors reduced to:  18 ShMem   1 Linda.
 NMat=     1 NSing=     1 JSym2X= 2.
 CoulSu:  requested number of processors reduced to:  18 ShMem   1 Linda.
 Root      1 not converged, maximum delta is    0.031786512720052
 Excitation Energies [eV] at current iteration:
 Root      1 :     0.006358470796396   Change is   -0.230017535857066
 Root      2 :     3.253863091186487   Change is   -0.272295112330964
 Root      3 :     3.405170749360817   Change is   -0.925993819911973
 Root      4 :     3.533554448817508   Change is   -0.198999856484897
 Root      5 :     4.604161219812997   Change is   -0.409080412217009
 Root      6 :     4.785101696852915   Change is   -0.392741999348993
 Root      7 :     4.807550926437891   Change is   -0.537319859573988
 Root      8 :     6.655975829560753   Change is   -0.396673751035159
 Root      9 :     6.676377239058973   Change is   -0.523513835269058
 Root     10 :     6.876699938390753   Change is   -0.350483997122877
 Root     11 :     8.416114887893047   Change is   -0.360489946864953
 Root     12 :     8.567859602280167   Change is   -0.461481769509381
 Root     13 :    10.054490091701540   Change is   -0.240185537781200
 Root     14 :    10.470637298228080   Change is   -0.185797487817101
 Root     15 :    11.168020935829220   Change is   -0.245531506239359
 Root     16 :    12.093654004266480   Change is   -0.220192822206784
 Root     17 :    12.194358577247980   Change is   -0.287705759864913
 Root     18 :    12.379313446065210   Change is   -0.194682940370187
 Root     19 :    12.386289313373010   Change is   -0.272375067949998
 Root     20 :    12.483883288313330   Change is   -0.336114655926675
 Root     21 :    12.656546100473240   Change is   -0.249120569691150
 Root     22 :    12.769190784831710   Change is   -0.189846251155630
 Root     23 :    12.832844038072990   Change is   -0.330041194697666
 Root     24 :    13.757855965434140   Change is   -6.821277468201558
 Iteration     3 Dimension    51 NMult    48 NNew      3
 Estimated number of processors is:   20
 CISAX will form     1 AO SS matrices at one time.
 NMat=     1 NSing=     1 JSym2X= 2.
 CoulSu:  requested number of processors reduced to:  18 ShMem   1 Linda.
 NMat=     1 NSing=     1 JSym2X= 2.
 CoulSu:  requested number of processors reduced to:  18 ShMem   1 Linda.
 NMat=     1 NSing=     1 JSym2X= 2.
 CoulSu:  requested number of processors reduced to:  18 ShMem   1 Linda.
 Root      1 not converged, maximum delta is    0.005135340507759
 Excitation Energies [eV] at current iteration:
 Root      1 :    -0.000113355342179   Change is   -0.006471826138575
 Root      2 :     3.251227865824789   Change is   -0.002635225361698
 Root      3 :     3.366053988871917   Change is   -0.039116760488900
 Iteration     4 Dimension    54 NMult    51 NNew      3
 Estimated number of processors is:   20
 CISAX will form     1 AO SS matrices at one time.
 NMat=     1 NSing=     1 JSym2X= 2.
 CoulSu:  requested number of processors reduced to:  18 ShMem   1 Linda.
 NMat=     1 NSing=     1 JSym2X= 2.
 CoulSu:  requested number of processors reduced to:  18 ShMem   1 Linda.
 NMat=     1 NSing=     1 JSym2X= 2.
 CoulSu:  requested number of processors reduced to:  18 ShMem   1 Linda.
 Root      1 has converged.
 Excitation Energies [eV] at current iteration:
 Root      1 :    -0.000149077837470   Change is   -0.000035722495290
 Root      2 :     3.251150518716959   Change is   -0.000077347107831
 Root      3 :     3.364951748460609   Change is   -0.001102240411308
 Convergence achieved on expansion vectors.
 ***********************************************************************
 Stability analysis using <AA,BB:AA,BB> singles matrix:
 ***********************************************************************
 1PDM for each excited state written to RWF  633
 Ground to excited state transition densities written to RWF  633

 Eigenvectors of the stability matrix:
 
 Excited state symmetry could not be determined.
 Eigenvector   1:  2.013-?Sym  Eigenvalue=-0.0000055  <S**2>=0.763
     16B -> 17B        0.99562
 The wavefunction is stable under the perturbations considered.
 Leave Link  914 at Sat Apr 17 06:32:33 2021, MaxMem=   104857600 cpu:            3390.3 elap:              95.0
 (Enter /s/ls4/users/knvvv/bin/g16sse/l508.exe)
 The wavefunction is already stable.
 Leave Link  508 at Sat Apr 17 06:32:33 2021, MaxMem=   104857600 cpu:               2.2 elap:               0.1
 (Enter /s/ls4/users/knvvv/bin/g16sse/l601.exe)
 Copying SCF densities to generalized density rwf, IOpCl= 1 IROHF=0.

 **********************************************************************

            Population analysis using the SCF density.

 **********************************************************************

 Orbital symmetries:
 Alpha Orbitals:
       Occupied  (SGG) (SGU) (SGG) (SGU) (PIU) (PIG) (SGG) (SGU)
                 (PIU) (PIG) (SGG) (SGU) (SGG) (PIU) (PIU) (PIG)
                 (PIG)
       Virtual   (SGU) (?A) (PIU) (PIU) (SGU) (?A) (?A) (?A) (PIG)
                 (PIG) (PIU) (PIU) (?B) (?A) (?B) (?B) (?B) (PIG)
                 (PIG) (PIU) (PIU) (PIU) (?C) (PIU) (?C) (?C) (PIG)
                 (PIG) (?B) (?B) (?C) (?B) (SGG) (PIG) (PIG) (?B)
                 (SGU) (PIU) (PIU) (?D) (?D) (?D) (?D) (?E) (PIG)
                 (?E) (?E) (?E) (PIG) (?D) (?D) (?F) (?F) (?F)
                 (?G) (?G) (?G) (?G) (SGU) (PIU) (PIU) (DLTU) (DLTU)
                 (SGU) (SGG) (PIG) (PIG) (SGG) (SGU) (PIU) (PIU)
                 (?H) (?H) (?H) (?H) (DLTU) (?H) (DLTU) (?E) (?E)
                 (PIG) (?H) (PIG) (?E) (?E) (?H) (?H) (?H) (?H)
                 (PHIG) (PHIG) (?B) (PHIU) (PHIU) (?B) (?B) (?H)
                 (?H) (PIU) (?G) (?G) (PIU) (?B) (?G) (?G) (?H)
                 (PIG) (PIG) (PIU) (?H) (?H) (PIU) (?H) (PIG) (PIG)
                 (SGG) (SGU) (SGG) (SGU) (PIU) (?H) (?H) (PIU)
                 (DLTU) (DLTU) (PIG) (?H) (PIG) (SGU) (SGG) (SGU)
                 (PIU) (PIG) (PIU) (PIG) (SGG) (SGU) (SGG) (SGU)
                 (SGG) (SGU)
 Beta  Orbitals:
       Occupied  (SGG) (SGU) (SGG) (SGU) (SGG) (SGU) (PIU) (PIG)
                 (PIU) (PIG) (SGG) (SGU) (SGG) (PIU) (PIU) (PIG)
       Virtual   (PIG) (SGU) (?A) (PIU) (PIU) (SGU) (SGG) (?A)
                 (?A) (PIG) (PIG) (PIU) (PIU) (?B) (SGG) (?B) (?B)
                 (?B) (PIG) (PIG) (PIU) (PIU) (?C) (PIU) (PIU)
                 (?C) (?C) (PIG) (PIG) (SGG) (?D) (?D) (?D) (SGG)
                 (PIG) (PIG) (SGU) (SGU) (?E) (?E) (?F) (?F) (?F)
                 (?F) (?E) (?E) (?E) (?E) (PIG) (PIG) (?F) (?F)
                 (?G) (?G) (?G) (?H) (?H) (?H) (?H) (SGU) (PIU)
                 (PIU) (DLTU) (DLTU) (SGU) (SGG) (PIG) (PIG) (SGG)
                 (SGU) (PIU) (PIU) (?H) (?H) (?H) (?H) (?H) (?H)
                 (?H) (?H) (?H) (PIG) (PIG) (?H) (?H) (?H) (?H)
                 (?H) (?H) (?H) (PHIG) (PHIG) (SGU) (?H) (?H) (?H)
                 (?H) (DLTG) (DLTG) (?H) (?H) (?H) (?H) (?H) (?H)
                 (?H) (SGG) (?H) (?H) (?H) (PIU) (?H) (PIU) (?H)
                 (PIG) (PIG) (SGG) (SGU) (SGG) (SGU) (PIU) (?H)
                 (PIU) (?H) (DLTU) (DLTU) (PIG) (?H) (PIG) (SGU)
                 (SGG) (SGU) (PIU) (PIG) (PIU) (PIG) (SGG) (SGU)
                 (SGG) (SGU) (SGG) (SGU)
 Unable to determine electronic state:  partially filled degenerate orbitals.
 Alpha  occ. eigenvalues -- -103.05865-103.05864 -10.20450 -10.20436  -7.93344
 Alpha  occ. eigenvalues --   -7.93343  -7.92921  -7.92890  -7.92058  -7.92056
 Alpha  occ. eigenvalues --   -1.38863  -1.18091  -0.85552  -0.82638  -0.80197
 Alpha  occ. eigenvalues --   -0.69794  -0.67066
 Alpha virt. eigenvalues --   -0.34199  -0.16121  -0.11851  -0.11479  -0.11337
 Alpha virt. eigenvalues --   -0.10025  -0.08419  -0.08380  -0.07458  -0.07140
 Alpha virt. eigenvalues --   -0.06006  -0.04879   0.00315   0.01164   0.02908
 Alpha virt. eigenvalues --    0.02919   0.05817   0.07950   0.08180   0.08348
 Alpha virt. eigenvalues --    0.08876   0.16202   0.16361   0.16960   0.17870
 Alpha virt. eigenvalues --    0.17956   0.22959   0.23268   0.25699   0.25825
 Alpha virt. eigenvalues --    0.26048   0.26324   0.31644   0.35567   0.37057
 Alpha virt. eigenvalues --    0.41703   0.68111   0.85752   0.87523   0.89789
 Alpha virt. eigenvalues --    0.89877   0.95356   0.97032   0.97113   0.97169
 Alpha virt. eigenvalues --    0.97607   0.97743   0.98339   0.98951   1.02715
 Alpha virt. eigenvalues --    1.02788   1.06892   1.07516   1.08561   1.10556
 Alpha virt. eigenvalues --    1.11326   1.11563   1.12008   1.16907   1.20865
 Alpha virt. eigenvalues --    1.22452   1.37133   1.37143   1.73320   1.76229
 Alpha virt. eigenvalues --    1.83371   1.84487   1.85462   2.48396   2.73573
 Alpha virt. eigenvalues --    2.75308   2.87677   2.87729   2.98030   3.05035
 Alpha virt. eigenvalues --    3.05214   3.05261   3.05263   3.07066   3.07073
 Alpha virt. eigenvalues --    3.07754   3.09426   3.09501   3.15187   3.17018
 Alpha virt. eigenvalues --    3.20362   3.20370   3.24106   3.24114   3.34614
 Alpha virt. eigenvalues --    3.34615   3.38720   3.50120   3.50125   3.52024
 Alpha virt. eigenvalues --    3.52036   3.53201   3.53214   3.57249   3.58471
 Alpha virt. eigenvalues --    3.58479   3.59902   3.62055   3.62942   3.65427
 Alpha virt. eigenvalues --    3.68052   3.83233   3.85800   3.94038   3.94962
 Alpha virt. eigenvalues --    3.95110   3.96513   4.05178   4.65685   4.67493
 Alpha virt. eigenvalues --    4.72453   5.52565   8.01553   8.53602  10.34342
 Alpha virt. eigenvalues --   10.34363  10.34422  10.36159  10.39159  10.39173
 Alpha virt. eigenvalues --   10.52792  10.54716  10.54759  11.14908  28.08437
 Alpha virt. eigenvalues --   28.61527  41.62073  41.63140  41.63616  41.64688
 Alpha virt. eigenvalues --   41.68231  41.75183  97.86670  98.37512 523.64464
 Alpha virt. eigenvalues --  524.50956
  Beta  occ. eigenvalues -- -103.05189-103.05189 -10.20232 -10.20213  -7.92731
  Beta  occ. eigenvalues --   -7.92700  -7.91843  -7.91842  -7.91501  -7.91498
  Beta  occ. eigenvalues --   -1.36555  -1.14198  -0.83889  -0.79119  -0.75509
  Beta  occ. eigenvalues --   -0.65685
  Beta virt. eigenvalues --   -0.48280  -0.32942  -0.16154  -0.11715  -0.11460
  Beta virt. eigenvalues --   -0.11235  -0.09939  -0.08131  -0.08053  -0.07112
  Beta virt. eigenvalues --   -0.07058  -0.04700  -0.04550   0.00141   0.01300
  Beta virt. eigenvalues --    0.03007   0.03092   0.05764   0.07593   0.08092
  Beta virt. eigenvalues --    0.08534   0.09060   0.16441   0.16957   0.17259
  Beta virt. eigenvalues --    0.18938   0.19031   0.22223   0.23167   0.26055
  Beta virt. eigenvalues --    0.26096   0.27337   0.27436   0.32120   0.37403
  Beta virt. eigenvalues --    0.37469   0.42159   0.68049   0.87968   0.88120
  Beta virt. eigenvalues --    0.90148   0.90172   0.94990   0.97492   0.97716
  Beta virt. eigenvalues --    0.97924   0.98019   0.98360   0.99172   0.99255
  Beta virt. eigenvalues --    1.03240   1.03711   1.07525   1.08503   1.08802
  Beta virt. eigenvalues --    1.11221   1.11795   1.11950   1.12106   1.17099
  Beta virt. eigenvalues --    1.21664   1.22487   1.37468   1.37486   1.73738
  Beta virt. eigenvalues --    1.77133   1.83337   1.84432   1.86291   2.49580
  Beta virt. eigenvalues --    2.75291   2.75717   2.89125   2.89481   2.98205
  Beta virt. eigenvalues --    3.06158   3.06362   3.06789   3.07228   3.08275
  Beta virt. eigenvalues --    3.08384   3.09409   3.09624   3.10210   3.16426
  Beta virt. eigenvalues --    3.16965   3.22232   3.22277   3.26039   3.26086
  Beta virt. eigenvalues --    3.36008   3.36044   3.39021   3.53891   3.53981
  Beta virt. eigenvalues --    3.53988   3.55091   3.55725   3.56141   3.60251
  Beta virt. eigenvalues --    3.60899   3.62064   3.62111   3.63437   3.65662
  Beta virt. eigenvalues --    3.65898   3.68457   3.86110   3.87614   3.96587
  Beta virt. eigenvalues --    3.96639   3.96984   3.97614   4.07943   4.66912
  Beta virt. eigenvalues --    4.67044   4.74476   5.52274   8.04252   8.56711
  Beta virt. eigenvalues --   10.36635  10.37313  10.37760  10.38067  10.42123
  Beta virt. eigenvalues --   10.42924  10.55348  10.56082  10.56688  11.16230
  Beta virt. eigenvalues --   28.12933  28.66411  41.64270  41.65343  41.66540
  Beta virt. eigenvalues --   41.67615  41.68821  41.75785  97.88406  98.39373
  Beta virt. eigenvalues --  523.63909 524.50428
          Condensed to atoms (all electrons):
               1          2
     1  Cl  16.295926   0.204074
     2  Cl   0.204074  16.295926
          Atomic-Atomic Spin Densities.
               1          2
     1  Cl   0.606884  -0.106884
     2  Cl  -0.106884   0.606884
 Mulliken charges and spin densities:
               1          2
     1  Cl   0.500000   0.500000
     2  Cl   0.500000   0.500000
 Sum of Mulliken charges =   1.00000   1.00000
 Mulliken charges and spin densities with hydrogens summed into heavy atoms:
               1          2
     1  Cl   0.500000   0.500000
     2  Cl   0.500000   0.500000
 Electronic spatial extent (au):  <R**2>=            151.4805
 Charge=              1.0000 electrons
 Dipole moment (field-independent basis, Debye):
    X=              0.0000    Y=              0.0000    Z=              0.0000  Tot=              0.0000
 Quadrupole moment (field-independent basis, Debye-Ang):
   XX=            -22.2855   YY=            -20.6776   ZZ=            -13.2509
   XY=              0.0000   XZ=             -0.0000   YZ=              0.0000
 Traceless Quadrupole moment (field-independent basis, Debye-Ang):
   XX=             -3.5475   YY=             -1.9396   ZZ=              5.4871
   XY=              0.0000   XZ=             -0.0000   YZ=              0.0000
 Octapole moment (field-independent basis, Debye-Ang**2):
  XXX=             -0.0000  YYY=              0.0000  ZZZ=             -0.0000  XYY=             -0.0000
  XXY=              0.0000  XXZ=              0.0000  XZZ=             -0.0000  YZZ=              0.0000
  YYZ=              0.0000  XYZ=              0.0000
 Hexadecapole moment (field-independent basis, Debye-Ang**3):
 XXXX=            -21.7736 YYYY=            -19.2461 ZZZZ=           -110.3233 XXXY=              0.0000
 XXXZ=              0.0000 YYYX=              0.0000 YYYZ=              0.0000 ZZZX=              0.0000
 ZZZY=              0.0000 XXYY=             -6.8390 XXZZ=            -26.5692 YYZZ=            -23.9939
 XXYZ=              0.0000 YYXZ=              0.0000 ZZXY=              0.0000
 N-N= 8.045076329161D+01 E-N=-2.337986622339D+03  KE= 9.186764779520D+02
                          Isotropic Fermi Contact Couplings
        Atom                 a.u.       MegaHertz       Gauss      10(-4) cm-1
     1  Cl(35)             0.02556      11.20696       3.99892       3.73824
     2  Cl(35)             0.02556      11.20696       3.99892       3.73824
 PrsmSu:  requested number of processors reduced to:  21 ShMem   1 Linda.
 --------------------------------------------------------
       Center         ----  Spin Dipole Couplings  ----
                      3XX-RR        3YY-RR        3ZZ-RR
 --------------------------------------------------------
     1   Atom       -1.883317      3.874007     -1.990690
     2   Atom       -1.883317      3.874007     -1.990690
 --------------------------------------------------------
                        XY            XZ            YZ
 --------------------------------------------------------
     1   Atom        0.000000      0.000000      0.000000
     2   Atom        0.000000      0.000000      0.000000
 --------------------------------------------------------


 ---------------------------------------------------------------------------------
              Anisotropic Spin Dipole Couplings in Principal Axis System
 ---------------------------------------------------------------------------------

       Atom             a.u.   MegaHertz   Gauss  10(-4) cm-1        Axes

              Baa    -1.9907  -104.188   -37.177   -34.753  0.0000  0.0000  1.0000
     1 Cl(35) Bbb    -1.8833   -98.568   -35.172   -32.879  1.0000 -0.0000 -0.0000
              Bcc     3.8740   202.756    72.349    67.632 -0.0000  1.0000 -0.0000
 
              Baa    -1.9907  -104.188   -37.177   -34.753  0.0000  0.0000  1.0000
     2 Cl(35) Bbb    -1.8833   -98.568   -35.172   -32.879  1.0000 -0.0000 -0.0000
              Bcc     3.8740   202.756    72.349    67.632 -0.0000  1.0000 -0.0000
 

 ---------------------------------------------------------------------------------

 PrsmSu:  requested number of processors reduced to:  21 ShMem   1 Linda.
 No NMR shielding tensors so no spin-rotation constants.
 Leave Link  601 at Sat Apr 17 06:32:40 2021, MaxMem=   104857600 cpu:             296.6 elap:               6.5
 (Enter /s/ls4/users/knvvv/bin/g16sse/l9999.exe)

 Test job not archived.
 1\1\GINC-N181\Stability\UM062X\Gen\Cl2(1+,2)\KNVVV\17-Apr-2021\0\\#P M
 062X/GEN Integral=UltraFineGrid SCF=NoSymm Stable=(RExt, Opt) IOp(1/33
 =1)\\Database calculations.\\1,2\Cl,0,0.,0.,0.\Cl,0,0.,0.,1.90094174\\
 Version=ES64L-G16RevA.03\HF=-919.968604\S2=0.754935\S2-1=0.\S2A=0.7500
 11\RMSD=4.126e-09\Dipole=0.,0.,0.\Quadrupole=-2.6374661,-1.4420526,4.0
 795187,0.,0.,0.\PG=D*H [C*(Cl1.Cl1)]\\@


 DO NOT LET SELFISH MEN OR GREEDY INTERESTS SKIN YOUR COUNTRY OF ITS
 BEAUTY, ITS RICHES, OR ITS ROMANCE. -- THEODORE ROOSEVELT
 Job cpu time:       0 days  4 hours  0 minutes  0.0 seconds.
 Elapsed time:       0 days  0 hours  5 minutes 33.4 seconds.
 File lengths (MBytes):  RWF=    139 Int=      0 D2E=      0 Chk=      6 Scr=      1
 Normal termination of Gaussian 16 at Sat Apr 17 06:32:40 2021.
