 Entering Gaussian System, Link 0=/s/ls4/groups/g0130/bin/g16/g16
 Input=M062X--def2-QZVPPD--81_Arginine_xci_YMPJ519.gjf
 Output=M062X--def2-QZVPPD--81_Arginine_xci_YMPJ519.log
 Initial command:
 /s/ls4/groups/g0130/bin/g16/l1.exe "/dev/shm/scratch_knvvv/Gau-15601.inp" -scrdir="/dev/shm/scratch_knvvv/"
 Entering Link 1 = /s/ls4/groups/g0130/bin/g16/l1.exe PID=     15602.
  
 Copyright (c) 1988,1990,1992,1993,1995,1998,2003,2009,2016,
            Gaussian, Inc.  All Rights Reserved.
  
 This is part of the Gaussian(R) 16 program.  It is based on
 the Gaussian(R) 09 system (copyright 2009, Gaussian, Inc.),
 the Gaussian(R) 03 system (copyright 2003, Gaussian, Inc.),
 the Gaussian(R) 98 system (copyright 1998, Gaussian, Inc.),
 the Gaussian(R) 94 system (copyright 1995, Gaussian, Inc.),
 the Gaussian 92(TM) system (copyright 1992, Gaussian, Inc.),
 the Gaussian 90(TM) system (copyright 1990, Gaussian, Inc.),
 the Gaussian 88(TM) system (copyright 1988, Gaussian, Inc.),
 the Gaussian 86(TM) system (copyright 1986, Carnegie Mellon
 University), and the Gaussian 82(TM) system (copyright 1983,
 Carnegie Mellon University). Gaussian is a federally registered
 trademark of Gaussian, Inc.
  
 This software contains proprietary and confidential information,
 including trade secrets, belonging to Gaussian, Inc.
  
 This software is provided under written license and may be
 used, copied, transmitted, or stored only in accord with that
 written license.
  
 The following legend is applicable only to US Government
 contracts under FAR:
  
                    RESTRICTED RIGHTS LEGEND
  
 Use, reproduction and disclosure by the US Government is
 subject to restrictions as set forth in subparagraphs (a)
 and (c) of the Commercial Computer Software - Restricted
 Rights clause in FAR 52.227-19.
  
 Gaussian, Inc.
 340 Quinnipiac St., Bldg. 40, Wallingford CT 06492
  
  
 ---------------------------------------------------------------
 Warning -- This program may not be used in any manner that
 competes with the business of Gaussian, Inc. or will provide
 assistance to any competitor of Gaussian, Inc.  The licensee
 of this program is prohibited from giving any competitor of
 Gaussian, Inc. access to this program.  By using this program,
 the user acknowledges that Gaussian, Inc. is engaged in the
 business of creating and licensing software in the field of
 computational chemistry and represents and warrants to the
 licensee that it is not a competitor of Gaussian, Inc. and that
 it will not use this program in any manner prohibited above.
 ---------------------------------------------------------------
  

 Cite this work as:
 Gaussian 16, Revision A.03,
 M. J. Frisch, G. W. Trucks, H. B. Schlegel, G. E. Scuseria, 
 M. A. Robb, J. R. Cheeseman, G. Scalmani, V. Barone, 
 G. A. Petersson, H. Nakatsuji, X. Li, M. Caricato, A. V. Marenich, 
 J. Bloino, B. G. Janesko, R. Gomperts, B. Mennucci, H. P. Hratchian, 
 J. V. Ortiz, A. F. Izmaylov, J. L. Sonnenberg, D. Williams-Young, 
 F. Ding, F. Lipparini, F. Egidi, J. Goings, B. Peng, A. Petrone, 
 T. Henderson, D. Ranasinghe, V. G. Zakrzewski, J. Gao, N. Rega, 
 G. Zheng, W. Liang, M. Hada, M. Ehara, K. Toyota, R. Fukuda, 
 J. Hasegawa, M. Ishida, T. Nakajima, Y. Honda, O. Kitao, H. Nakai, 
 T. Vreven, K. Throssell, J. A. Montgomery, Jr., J. E. Peralta, 
 F. Ogliaro, M. J. Bearpark, J. J. Heyd, E. N. Brothers, K. N. Kudin, 
 V. N. Staroverov, T. A. Keith, R. Kobayashi, J. Normand, 
 K. Raghavachari, A. P. Rendell, J. C. Burant, S. S. Iyengar, 
 J. Tomasi, M. Cossi, J. M. Millam, M. Klene, C. Adamo, R. Cammi, 
 J. W. Ochterski, R. L. Martin, K. Morokuma, O. Farkas, 
 J. B. Foresman, and D. J. Fox, Gaussian, Inc., Wallingford CT, 2016.
 
 ******************************************
 Gaussian 16:  ES64L-G16RevA.03 25-Dec-2016
                20-Apr-2021 
 ******************************************
 %nprocshared=48
 Will use up to   48 processors via shared memory.
 %mem=90GB
 ----------------------------------------------------------------------
 #P M062X/GEN Integral=UltraFineGrid SCF=NoSymm Stable=(RExt, Opt) IOp(
 1/33=1)
 ----------------------------------------------------------------------
 1/33=1,38=1,172=1/1;
 2/12=2,17=6,18=5,40=1/2;
 3/5=7,11=2,25=1,30=1,74=-55,75=-5/1,2,3;
 4/9=2/1;
 5/5=2,38=5/2;
 6/7=2,8=2,9=2,10=2,28=1/1;
 8/6=1,10=90,11=11/1;
 9/8=-3,42=1,46=1/14;
 5/5=2,8=3,17=40,38=5/8(-2);
 6/7=2,8=2,9=2,10=2,28=1/1;
 99/5=1,9=1/99;
 Leave Link    1 at Tue Apr 20 10:36:13 2021, MaxMem= 12079595520 cpu:               6.5 elap:               0.2
 (Enter /s/ls4/groups/g0130/bin/g16/l101.exe)
 ONIOM data not found on unit 2.
 ----------------------
 Database calculations.
 ----------------------
 TstMul:  ICh=     0
 TstMul:  Mul=     1
 TstMul:  ICh=     0
 TstMul:  Mul=     1
 Symbolic Z-matrix:
 Charge =  0 Multiplicity = 1
 N                     1.93147  -0.11403   0.10889 
 H                     2.66426   0.29832   0.66723 
 C                     0.58628   0.20788   0.52723 
 H                    -0.03394   0.19587  -0.3648 
 C                     0.05986  -0.81042   1.55166 
 C                     0.5895    1.59924   1.13347 
 H                     0.88986  -1.06815   2.20944 
 H                    -0.69651  -0.33403   2.18152 
 C                    -0.52711  -2.05582   0.87814 
 O                     1.5352    2.00054   1.81318 
 H                    -0.26358  -2.95873   1.43191 
 H                    -0.11062  -2.15797  -0.12498 
 C                    -2.05543  -2.00074   0.80334 
 H                    -2.47047  -2.11206   1.80543 
 H                    -2.431    -2.84398   0.22337 
 N                    -2.61832  -0.76044   0.27772 
 H                    -2.64469   0.00665   0.93269 
 C                    -2.32848  -0.29813  -0.98592 
 N                    -2.18226   0.97422  -1.16951 
 N                    -2.18377  -1.28441  -1.92741 
 H                    -2.09519   1.18411  -2.15923 
 H                    -2.74346  -2.11297  -1.83337 
 H                    -1.98833  -0.99128  -2.86723 
 N                    -0.54329   2.29283   0.91118 
 C                    -0.69712   3.62791   1.44869 
 H                    -1.18494   1.94958   0.19009 
 H                    -0.41929   3.63464   2.49961 
 H                    -1.73551   3.92941   1.3462 
 H                    -0.06293   4.34767   0.93085 
 C                     2.20825  -0.58591  -1.13468 
 C                     3.67741  -0.66281  -1.4764 
 O                     1.33839  -0.93339  -1.92895 
 H                     4.32347  -0.50033  -0.61736 
 H                     3.88301  -1.63802  -1.90886 
 H                     3.89542   0.0885   -2.23305 
 
 RdStrC is calling ZToCFu for IStruc=1 NZ=    35.
 PrtBox:  NBox=     6 Levels=  2 BoxLen=    8.00 SMaxX=       13.81
          Shift=            5.184395            5.591185            5.418283
 Box      1 Number                   0 centers from      1 to     15:
 Box      2 Number                   1 centers from     16 to     20:
 Box      3 Number                   2 centers from     21 to     25:
 Box      4 Number                   3 centers from     26 to     27:
 Box      5 Number                   4 centers from     28 to     34:
 Box      6 Number                   7 centers from     35 to     35:
 After GenITR:
 ITRead=  0  0  0  0  0  0  0  0  0  0  0  0  0  0  0  0  0  0  0  0
 ITRead=  0  0  0  0  0  0  0  0  0  0  0  0  0  0  0
 MicOpt= -1 -1 -1 -1 -1 -1 -1 -1 -1 -1 -1 -1 -1 -1 -1 -1 -1 -1 -1 -1
 MicOpt= -1 -1 -1 -1 -1 -1 -1 -1 -1 -1 -1 -1 -1 -1 -1
 ITRead=  0  0  0  0  0  0  0  0  0  0  0  0  0  0  0  0  0  0  0  0
 ITRead=  0  0  0  0  0  0  0  0  0  0  0  0  0  0  0
 MicOpt= -1 -1 -1 -1 -1 -1 -1 -1 -1 -1 -1 -1 -1 -1 -1 -1 -1 -1 -1 -1
 MicOpt= -1 -1 -1 -1 -1 -1 -1 -1 -1 -1 -1 -1 -1 -1 -1
 NAtoms=     35 NQM=       35 NQMF=       0 NMMI=      0 NMMIF=      0
                NMic=       0 NMicF=      0.
                    Isotopes and Nuclear Properties:
 (Nuclear quadrupole moments (NQMom) in fm**2, nuclear magnetic moments (NMagM)
  in nuclear magnetons)

  Atom         1           2           3           4           5           6           7           8           9          10
 IAtWgt=          14           1          12           1          12          12           1           1          12          16
 AtmWgt=  14.0030740   1.0078250  12.0000000   1.0078250  12.0000000  12.0000000   1.0078250   1.0078250  12.0000000  15.9949146
 NucSpn=           2           1           0           1           0           0           1           1           0           0
 AtZEff=  -0.0000000  -0.0000000  -0.0000000  -0.0000000  -0.0000000  -0.0000000  -0.0000000  -0.0000000  -0.0000000  -0.0000000
 NQMom=    2.0440000   0.0000000   0.0000000   0.0000000   0.0000000   0.0000000   0.0000000   0.0000000   0.0000000   0.0000000
 NMagM=    0.4037610   2.7928460   0.0000000   2.7928460   0.0000000   0.0000000   2.7928460   2.7928460   0.0000000   0.0000000
 AtZNuc=   7.0000000   1.0000000   6.0000000   1.0000000   6.0000000   6.0000000   1.0000000   1.0000000   6.0000000   8.0000000

  Atom        11          12          13          14          15          16          17          18          19          20
 IAtWgt=           1           1          12           1           1          14           1          12          14          14
 AtmWgt=   1.0078250   1.0078250  12.0000000   1.0078250   1.0078250  14.0030740   1.0078250  12.0000000  14.0030740  14.0030740
 NucSpn=           1           1           0           1           1           2           1           0           2           2
 AtZEff=  -0.0000000  -0.0000000  -0.0000000  -0.0000000  -0.0000000  -0.0000000  -0.0000000  -0.0000000  -0.0000000  -0.0000000
 NQMom=    0.0000000   0.0000000   0.0000000   0.0000000   0.0000000   2.0440000   0.0000000   0.0000000   2.0440000   2.0440000
 NMagM=    2.7928460   2.7928460   0.0000000   2.7928460   2.7928460   0.4037610   2.7928460   0.0000000   0.4037610   0.4037610
 AtZNuc=   1.0000000   1.0000000   6.0000000   1.0000000   1.0000000   7.0000000   1.0000000   6.0000000   7.0000000   7.0000000

  Atom        21          22          23          24          25          26          27          28          29          30
 IAtWgt=           1           1           1          14          12           1           1           1           1          12
 AtmWgt=   1.0078250   1.0078250   1.0078250  14.0030740  12.0000000   1.0078250   1.0078250   1.0078250   1.0078250  12.0000000
 NucSpn=           1           1           1           2           0           1           1           1           1           0
 AtZEff=  -0.0000000  -0.0000000  -0.0000000  -0.0000000  -0.0000000  -0.0000000  -0.0000000  -0.0000000  -0.0000000  -0.0000000
 NQMom=    0.0000000   0.0000000   0.0000000   2.0440000   0.0000000   0.0000000   0.0000000   0.0000000   0.0000000   0.0000000
 NMagM=    2.7928460   2.7928460   2.7928460   0.4037610   0.0000000   2.7928460   2.7928460   2.7928460   2.7928460   0.0000000
 AtZNuc=   1.0000000   1.0000000   1.0000000   7.0000000   6.0000000   1.0000000   1.0000000   1.0000000   1.0000000   6.0000000

  Atom        31          32          33          34          35
 IAtWgt=          12          16           1           1           1
 AtmWgt=  12.0000000  15.9949146   1.0078250   1.0078250   1.0078250
 NucSpn=           0           0           1           1           1
 AtZEff=  -0.0000000  -0.0000000  -0.0000000  -0.0000000  -0.0000000
 NQMom=    0.0000000   0.0000000   0.0000000   0.0000000   0.0000000
 NMagM=    0.0000000   0.0000000   2.7928460   2.7928460   2.7928460
 AtZNuc=   6.0000000   8.0000000   1.0000000   1.0000000   1.0000000
 No MM parameters found.
 Leave Link  101 at Tue Apr 20 10:36:14 2021, MaxMem= 12079595520 cpu:               8.0 elap:               0.2
 (Enter /s/ls4/groups/g0130/bin/g16/l202.exe)
                          Input orientation:                          
 ---------------------------------------------------------------------
 Center     Atomic      Atomic             Coordinates (Angstroms)
 Number     Number       Type             X           Y           Z
 ---------------------------------------------------------------------
      1          7           0        1.931472   -0.114029    0.108893
      2          1           0        2.664262    0.298315    0.667228
      3          6           0        0.586281    0.207881    0.527227
      4          1           0       -0.033938    0.195872   -0.364795
      5          6           0        0.059863   -0.810423    1.551658
      6          6           0        0.589503    1.599237    1.133475
      7          1           0        0.889863   -1.068146    2.209436
      8          1           0       -0.696512   -0.334033    2.181518
      9          6           0       -0.527107   -2.055818    0.878143
     10          8           0        1.535201    2.000541    1.813182
     11          1           0       -0.263577   -2.958728    1.431912
     12          1           0       -0.110625   -2.157973   -0.124976
     13          6           0       -2.055433   -2.000742    0.803336
     14          1           0       -2.470466   -2.112062    1.805429
     15          1           0       -2.430997   -2.843976    0.223370
     16          7           0       -2.618324   -0.760438    0.277723
     17          1           0       -2.644691    0.006648    0.932686
     18          6           0       -2.328480   -0.298134   -0.985921
     19          7           0       -2.182261    0.974220   -1.169507
     20          7           0       -2.183765   -1.284409   -1.927407
     21          1           0       -2.095186    1.184109   -2.159225
     22          1           0       -2.743464   -2.112974   -1.833368
     23          1           0       -1.988330   -0.991283   -2.867232
     24          7           0       -0.543289    2.292833    0.911179
     25          6           0       -0.697124    3.627905    1.448689
     26          1           0       -1.184936    1.949576    0.190093
     27          1           0       -0.419286    3.634641    2.499610
     28          1           0       -1.735509    3.929410    1.346202
     29          1           0       -0.062927    4.347670    0.930855
     30          6           0        2.208246   -0.585912   -1.134681
     31          6           0        3.677411   -0.662811   -1.476398
     32          8           0        1.338386   -0.933390   -1.928954
     33          1           0        4.323471   -0.500332   -0.617358
     34          1           0        3.883014   -1.638018   -1.908862
     35          1           0        3.895422    0.088495   -2.233049
 ---------------------------------------------------------------------
                    Distance matrix (angstroms):
                    1          2          3          4          5
     1  N    0.000000
     2  H    1.009330   0.000000
     3  C    1.445049   2.084654   0.000000
     4  H    2.045301   2.890649   1.086518   0.000000
     5  C    2.463626   2.965537   1.537374   2.166616   0.000000
     6  C    2.405396   2.492872   1.517702   2.145443   2.502371
     7  H    2.531318   2.719212   2.133128   3.012942   1.089951
     8  H    3.354172   3.740018   2.162384   2.683936   1.093515
     9  C    3.225972   3.971305   2.546980   2.618820   1.532698
    10  O    2.744638   2.342128   2.401616   3.234596   3.185363
    11  H    3.828959   4.445819   3.401194   3.637636   2.175813
    12  H    2.898717   3.789582   2.551139   2.367273   2.157790
    13  C    4.465125   5.251638   3.454403   3.205633   2.539944
    14  H    5.123224   5.785400   4.044705   3.996636   2.856786
    15  H    5.147509   6.002722   4.302340   3.915675   3.479090
    16  N    4.598586   5.401702   3.356991   2.829560   2.966158
    17  H    4.651286   5.323581   3.262525   2.921522   2.892290
    18  C    4.402238   5.293026   3.322875   2.427913   3.522205
    19  N    4.443128   5.226780   3.336316   2.422535   3.951811
    20  N    4.738299   5.721933   3.990653   3.042161   4.166824
    21  H    4.800365   5.605874   3.919224   2.906086   4.732130
    22  H    5.442718   6.427347   4.695314   3.850845   4.584068
    23  H    4.999173   5.983484   4.425942   3.389863   4.873847
    24  N    3.544162   3.784969   2.402159   2.506949   3.225555
    25  C    4.765149   4.795390   3.767332   3.937942   4.503598
    26  H    3.738590   4.215524   2.506865   2.169832   3.319786
    27  H    5.029325   4.898669   4.079723   4.492041   4.570207
    28  H    5.597060   5.744897   4.462197   4.445465   5.072632
    29  H    4.955806   4.889206   4.209779   4.349365   5.196769
    30  C    1.358585   2.058321   2.454143   2.496257   3.447082
    31  C    2.421283   2.558392   3.785195   3.968263   4.719912
    32  O    2.275066   3.164681   2.810870   2.367509   3.710041
    33  H    2.529492   2.245212   3.972182   4.419899   4.793656
    34  H    3.194119   3.445429   4.495589   4.592365   5.222700
    35  H    3.063138   3.157751   4.310893   4.352215   5.462928
                    6          7          8          9         10
     6  C    0.000000
     7  H    2.891858   0.000000
     8  H    2.547500   1.748224   0.000000
     9  C    3.830331   2.180743   2.166109   0.000000
    10  O    1.231825   3.160747   3.250607   4.645585   0.000000
    11  H    4.646703   2.347183   2.763760   1.091492   5.289170
    12  H    4.023743   2.763725   2.998322   1.090935   4.874263
    13  C    4.479344   3.394351   2.554207   1.531146   5.470165
    14  H    4.856817   3.541863   2.539635   2.153989   5.740987
    15  H    5.449207   4.257481   3.625273   2.162110   6.459689
    16  N    4.073147   4.016662   2.738543   2.532134   5.218468
    17  H    3.610632   3.908752   2.339027   2.956502   4.714061
    18  C    4.075105   4.600104   3.563324   3.131953   5.295934
    19  N    3.657465   5.002646   3.892088   4.014167   4.875376
    20  N    5.037403   5.158239   4.471957   3.348238   6.213985
    21  H    4.268696   5.750511   4.806568   4.709735   5.443004
    22  H    5.804423   5.535069   4.844993   3.502541   6.966011
    23  H    5.418641   5.836305   5.252680   4.158874   6.578187
    24  N    1.346739   3.877573   2.921927   4.348806   2.284548
    25  C    2.422863   5.014994   4.029143   5.714817   2.786476
    26  H    2.039937   4.182007   3.069072   4.116956   3.167990
    27  H    2.650820   4.890222   3.991040   5.917947   2.638462
    28  H    3.298581   5.710807   4.467013   6.123909   3.825722
    29  H    2.832067   5.645675   4.887119   6.420506   2.973471
    30  C    3.541149   3.626817   4.415681   3.700573   3.979023
    31  C    4.632869   4.638975   5.711361   5.016204   4.743822
    32  O    4.043946   4.164805   4.625583   3.552422   4.759230
    33  H    4.627756   4.483619   5.749921   5.308876   4.465013
    34  H    5.530177   5.122898   6.277232   5.233652   5.710074
    35  H    4.954284   5.486974   6.383791   5.816903   5.059501
                   11         12         13         14         15
    11  H    0.000000
    12  H    1.757413   0.000000
    13  C    2.126874   2.160732   0.000000
    14  H    2.393057   3.049167   1.090337   0.000000
    15  H    2.484241   2.444601   1.090162   1.743608   0.000000
    16  N    3.421910   2.898936   1.459956   2.045149   2.092649
    17  H    3.835673   3.496531   2.096085   2.298036   2.945311
    18  C    4.145901   3.019786   2.484928   3.331986   2.820320
    19  N    5.090856   3.897866   3.571918   4.296329   4.071928
    20  N    4.216099   2.882670   2.826050   3.834224   2.668186
    21  H    5.780498   4.387046   4.349899   5.169532   4.692014
    22  H    4.186549   3.138864   2.727305   3.649024   2.205033
    23  H    5.032718   3.522345   3.807437   4.829323   3.630460
    24  N    5.284722   4.590260   4.553350   4.890480   5.515735
    25  C    6.600908   6.024682   5.826075   6.018241   6.811239
    26  H    5.146112   4.257390   4.091313   4.556183   4.952970
    27  H    6.681073   6.366953   6.108343   6.141157   7.155468
    28  H    7.044173   6.469996   5.963535   6.103313   6.900958
    29  H    7.326307   6.590937   6.654974   6.949048   7.604477
    30  C    4.281070   2.977926   4.892505   5.732689   5.335328
    31  C    5.409333   4.290812   6.312903   7.118083   6.705172
    32  O    4.238360   2.617933   4.485828   5.462805   4.742476
    33  H    5.593230   4.759350   6.705223   7.390883   7.198772
    34  H    5.486279   4.404742   6.538557   7.374780   6.772553
    35  H    6.325724   5.053613   6.999801   7.853426   7.393035
                   16         17         18         19         20
    16  N    0.000000
    17  H    1.009006   0.000000
    18  C    1.376420   1.968232   0.000000
    19  N    2.300797   2.359927   1.293820   0.000000
    20  N    2.307810   3.171658   1.371158   2.382398   0.000000
    21  H    3.161274   3.353846   1.904761   1.015469   2.480961
    22  H    2.510323   3.486203   2.045488   3.207246   1.004304
    23  H    3.215731   3.983221   2.033589   2.604434   1.003687
    24  N    3.745597   3.105317   3.674100   2.958754   4.852360
    25  C    4.931503   4.144005   4.899228   4.012808   6.143204
    26  H    3.066994   2.541121   2.782607   1.947944   3.992508
    27  H    5.393446   4.535416   5.591124   4.862955   6.849008
    28  H    4.890366   4.047921   4.864416   3.906601   6.172630
    29  H    5.748861   5.050741   5.512736   4.503695   6.662427
    30  C    5.032010   5.308119   4.548277   4.659590   4.517308
    31  C    6.536264   6.798590   6.036910   6.091782   5.911276
    32  O    4.533750   4.993752   3.839110   4.075622   3.539600
    33  H    7.004095   7.156462   6.665221   6.693558   6.683945
    34  H    6.915107   7.306863   6.421040   6.645148   6.077104
    35  H    7.032322   7.266475   6.359384   6.233287   6.239776
                   21         22         23         24         25
    21  H    0.000000
    22  H    3.375974   0.000000
    23  H    2.290201   1.702143   0.000000
    24  N    3.614560   5.637769   5.210561   0.000000
    25  C    4.576436   6.922218   6.452231   1.447412   0.000000
    26  H    2.633209   4.798720   4.317560   1.024453   2.153791
    27  H    5.524354   7.563833   7.257000   2.083011   1.087048
    28  H    4.466998   6.901887   6.483067   2.070995   1.086117
    29  H    4.866908   7.521046   6.829133   2.110330   1.090147
    30  C    4.764682   5.228719   4.558213   4.477014   5.733344
    31  C    6.099201   6.592270   5.843195   5.678967   6.789915
    32  O    4.040575   4.249947   3.456986   4.692075   6.029692
    33  H    6.812772   7.349888   6.718764   5.815801   6.820357
    34  H    6.615585   6.643906   5.984097   6.557162   7.744725
    35  H    6.090420   7.005784   6.015534   5.869194   6.868341
                   26         27         28         29         30
    26  H    0.000000
    27  H    2.959651   0.000000
    28  H    2.357851   1.774734   0.000000
    29  H    2.749271   1.759658   1.773411   0.000000
    30  C    4.438176   6.158332   6.488152   5.810757   0.000000
    31  C    5.765776   7.145604   7.639062   6.699994   1.510341
    32  O    4.378242   6.600643   6.619842   6.166992   1.228115
    33  H    6.082481   7.021911   7.758184   6.718674   2.179248
    34  H    6.554431   8.108350   8.553333   7.711220   2.123942
    35  H    5.928346   7.320513   7.698770   6.619622   2.123159
                   31         32         33         34         35
    31  C    0.000000
    32  O    2.397719   0.000000
    33  H    1.087080   3.289157   0.000000
    34  H    1.086428   2.640461   1.776602   0.000000
    35  H    1.088353   2.770408   1.772118   1.756730   0.000000
 Stoichiometry    C9H19N5O2
 Framework group  C1[X(C9H19N5O2)]
 Deg. of freedom    99
 Full point group                 C1      NOp   1
 Largest Abelian subgroup         C1      NOp   1
 Largest concise Abelian subgroup C1      NOp   1
                         Standard orientation:                         
 ---------------------------------------------------------------------
 Center     Atomic      Atomic             Coordinates (Angstroms)
 Number     Number       Type             X           Y           Z
 ---------------------------------------------------------------------
      1          7           0        1.886329   -0.649910    0.344927
      2          1           0        2.734298   -0.218517    0.681968
      3          6           0        0.706525    0.181899    0.410699
      4          1           0        0.057447   -0.124484   -0.404989
      5          6           0       -0.019979    0.017555    1.755578
      6          6           0        1.124813    1.628364    0.220454
      7          1           0        0.743442   -0.071937    2.528348
      8          1           0       -0.580216    0.929563    1.979520
      9          6           0       -0.962559   -1.191038    1.758404
     10          8           0        2.181021    2.057316    0.687161
     11          1           0       -0.925559   -1.711469    2.717121
     12          1           0       -0.647228   -1.900760    0.992243
     13          6           0       -2.419073   -0.782847    1.521014
     14          1           0       -2.791528   -0.248164    2.395215
     15          1           0       -3.043276   -1.670777    1.419017
     16          7           0       -2.649516    0.106008    0.385979
     17          1           0       -2.427839    1.076142    0.552687
     18          6           0       -2.315896   -0.244241   -0.902646
     19          7           0       -1.837442    0.660566   -1.694085
     20          7           0       -2.500125   -1.571923   -1.191429
     21          1           0       -1.752178    0.298886   -2.639122
     22          1           0       -3.259092   -2.052169   -0.742032
     23          1           0       -2.285214   -1.868486   -2.125909
     24          7           0        0.214593    2.377401   -0.430813
     25          6           0        0.462797    3.783828   -0.666097
     26          1           0       -0.536128    1.894537   -0.933569
     27          1           0        0.790665    4.257804    0.255599
     28          1           0       -0.457394    4.249956   -1.006133
     29          1           0        1.239600    3.937363   -1.415380
     30          6           0        1.952717   -1.748389   -0.451747
     31          6           0        3.322965   -2.373458   -0.565057
     32          8           0        0.977602   -2.212409   -1.036642
     33          1           0        4.036198   -1.968127    0.148208
     34          1           0        3.228932   -3.445826   -0.418395
     35          1           0        3.695348   -2.207835   -1.574221
 ---------------------------------------------------------------------
 Rotational constants (GHZ):           0.5242023           0.4672903           0.3326077
 Leave Link  202 at Tue Apr 20 10:36:14 2021, MaxMem= 12079595520 cpu:               7.6 elap:               0.2
 (Enter /s/ls4/groups/g0130/bin/g16/l301.exe)
 General basis read from cards:  (5D, 7F)
 Centers:       2      4      7      8     11     12     14     15     17     21
 Centers:      22     23     26     27     28     29     33     34     35
 S 4 1.00
     Exponent=  1.9069169000D+02 Coefficients=  7.0815167000D-04
     Exponent=  2.8605532000D+01 Coefficients=  5.4678827000D-03
     Exponent=  6.5095943000D+00 Coefficients=  2.7966605000D-02
     Exponent=  1.8412455000D+00 Coefficients=  1.0764538000D-01
 S 1 1.00
     Exponent=  5.9853725000D-01 Coefficients=  1.0000000000D+00
 S 1 1.00
     Exponent=  2.1397624000D-01 Coefficients=  1.0000000000D+00
 S 1 1.00
     Exponent=  8.0316286000D-02 Coefficients=  1.0000000000D+00
 P 1 1.00
     Exponent=  2.2920000000D+00 Coefficients=  1.0000000000D+00
 P 1 1.00
     Exponent=  8.3800000000D-01 Coefficients=  1.0000000000D+00
 P 1 1.00
     Exponent=  2.9200000000D-01 Coefficients=  1.0000000000D+00
 P 1 1.00
     Exponent=  8.4063199228D-02 Coefficients=  1.0000000000D+00
 D 1 1.00
     Exponent=  2.0620000000D+00 Coefficients=  1.0000000000D+00
 D 1 1.00
     Exponent=  6.6200000000D-01 Coefficients=  1.0000000000D+00
 F 1 1.00
     Exponent=  1.3970000000D+00 Coefficients=  1.0000000000D+00
 ****
 Centers:       3      5      6      9     13     18     25     30     31
 S 8 1.00
     Exponent=  6.7025071029D+04 Coefficients=  3.8736308501D-05
     Exponent=  1.0039986538D+04 Coefficients=  3.0107917575D-04
     Exponent=  2.2849316911D+03 Coefficients=  1.5787918095D-03
     Exponent=  6.4714122130D+02 Coefficients=  6.6087087195D-03
     Exponent=  2.1109472335D+02 Coefficients=  2.3367123250D-02
     Exponent=  7.6177643862D+01 Coefficients=  7.0420716898D-02
     Exponent=  2.9633839163D+01 Coefficients=  1.7360344953D-01
     Exponent=  1.2187785081D+01 Coefficients=  3.2292305648D-01
 S 2 1.00
     Exponent=  5.3026006299D+01 Coefficients=  7.4897404492D-02
     Exponent=  1.5258502776D+01 Coefficients=  7.6136220983D-01
 S 1 1.00
     Exponent=  5.2403957464D+00 Coefficients=  1.0000000000D+00
 S 1 1.00
     Exponent=  2.2905022379D+00 Coefficients=  1.0000000000D+00
 S 1 1.00
     Exponent=  6.9673283006D-01 Coefficients=  1.0000000000D+00
 S 1 1.00
     Exponent=  2.7599337363D-01 Coefficients=  1.0000000000D+00
 S 1 1.00
     Exponent=  1.0739884389D-01 Coefficients=  1.0000000000D+00
 S 1 1.00
     Exponent=  4.4981404899D-02 Coefficients=  1.0000000000D+00
 P 5 1.00
     Exponent=  1.0512555082D+02 Coefficients=  8.4647553844D-04
     Exponent=  2.4884461066D+01 Coefficients=  6.6274038534D-03
     Exponent=  7.8637230826D+00 Coefficients=  3.0120390419D-02
     Exponent=  2.8407001835D+00 Coefficients=  9.9951435476D-02
     Exponent=  1.1227137335D+00 Coefficients=  2.3826299282D-01
 P 1 1.00
     Exponent=  4.6050725555D-01 Coefficients=  1.0000000000D+00
 P 1 1.00
     Exponent=  1.8937530913D-01 Coefficients=  1.0000000000D+00
 P 1 1.00
     Exponent=  7.5983791611D-02 Coefficients=  1.0000000000D+00
 D 1 1.00
     Exponent=  1.8480000000D+00 Coefficients=  1.0000000000D+00
 D 1 1.00
     Exponent=  6.4900000000D-01 Coefficients=  1.0000000000D+00
 D 1 1.00
     Exponent=  2.2800000000D-01 Coefficients=  1.0000000000D+00
 D 1 1.00
     Exponent=  7.6889830417D-02 Coefficients=  1.0000000000D+00
 F 1 1.00
     Exponent=  1.4190000000D+00 Coefficients=  1.0000000000D+00
 F 1 1.00
     Exponent=  4.8500000000D-01 Coefficients=  1.0000000000D+00
 G 1 1.00
     Exponent=  1.0110000000D+00 Coefficients=  1.0000000000D+00
 ****
 Centers:       1     16     19     20     24
 S 8 1.00
     Exponent=  9.0726889210D+04 Coefficients=  3.9257887368D-05
     Exponent=  1.3590528801D+04 Coefficients=  3.0513316455D-04
     Exponent=  3.0929883781D+03 Coefficients=  1.6000560446D-03
     Exponent=  8.7599876362D+02 Coefficients=  6.6982937306D-03
     Exponent=  2.8574469982D+02 Coefficients=  2.3690078765D-02
     Exponent=  1.0311913417D+02 Coefficients=  7.1455405268D-02
     Exponent=  4.0128556777D+01 Coefficients=  1.7632774876D-01
     Exponent=  1.6528095704D+01 Coefficients=  3.2677592815D-01
 S 2 1.00
     Exponent=  6.9390960983D+01 Coefficients=  8.0052094386D-02
     Exponent=  2.0428200596D+01 Coefficients=  7.8268063538D-01
 S 1 1.00
     Exponent=  7.1292587972D+00 Coefficients=  1.0000000000D+00
 S 1 1.00
     Exponent=  3.1324304893D+00 Coefficients=  1.0000000000D+00
 S 1 1.00
     Exponent=  9.8755778723D-01 Coefficients=  1.0000000000D+00
 S 1 1.00
     Exponent=  3.8765721307D-01 Coefficients=  1.0000000000D+00
 S 1 1.00
     Exponent=  1.4909883075D-01 Coefficients=  1.0000000000D+00
 S 1 1.00
     Exponent=  6.2151630318D-02 Coefficients=  1.0000000000D+00
 P 5 1.00
     Exponent=  1.5005742670D+02 Coefficients= -8.6216165986D-04
     Exponent=  3.5491599483D+01 Coefficients= -6.8571273236D-03
     Exponent=  1.1247864223D+01 Coefficients= -3.1795688855D-02
     Exponent=  4.0900305195D+00 Coefficients= -1.0537396822D-01
     Exponent=  1.6220573146D+00 Coefficients= -2.4519708041D-01
 P 1 1.00
     Exponent=  6.6442261530D-01 Coefficients=  1.0000000000D+00
 P 1 1.00
     Exponent=  2.7099770070D-01 Coefficients=  1.0000000000D+00
 P 1 1.00
     Exponent=  1.0688749984D-01 Coefficients=  1.0000000000D+00
 D 1 1.00
     Exponent=  2.8370000000D+00 Coefficients=  1.0000000000D+00
 D 1 1.00
     Exponent=  9.6800000000D-01 Coefficients=  1.0000000000D+00
 D 1 1.00
     Exponent=  3.3500000000D-01 Coefficients=  1.0000000000D+00
 D 1 1.00
     Exponent=  1.0825280010D-01 Coefficients=  1.0000000000D+00
 F 1 1.00
     Exponent=  2.0270000000D+00 Coefficients=  1.0000000000D+00
 F 1 1.00
     Exponent=  6.8500000000D-01 Coefficients=  1.0000000000D+00
 G 1 1.00
     Exponent=  1.4270000000D+00 Coefficients=  1.0000000000D+00
 ****
 Centers:      10     32
 S 8 1.00
     Exponent=  1.1650646908D+05 Coefficients=  4.0383857939D-05
     Exponent=  1.7504349724D+04 Coefficients=  3.1255139004D-04
     Exponent=  3.9934513230D+03 Coefficients=  1.6341473495D-03
     Exponent=  1.1330063186D+03 Coefficients=  6.8283224757D-03
     Exponent=  3.6999569594D+02 Coefficients=  2.4124410221D-02
     Exponent=  1.3362074349D+02 Coefficients=  7.2730206154D-02
     Exponent=  5.2035643649D+01 Coefficients=  1.7934429892D-01
     Exponent=  2.1461939313D+01 Coefficients=  3.3059588895D-01
 S 2 1.00
     Exponent=  8.9835051252D+01 Coefficients=  9.6468652996D-02
     Exponent=  2.6428010844D+01 Coefficients=  9.4117481120D-01
 S 1 1.00
     Exponent=  9.2822824649D+00 Coefficients=  1.0000000000D+00
 S 1 1.00
     Exponent=  4.0947728533D+00 Coefficients=  1.0000000000D+00
 S 1 1.00
     Exponent=  1.3255349078D+00 Coefficients=  1.0000000000D+00
 S 1 1.00
     Exponent=  5.1877230787D-01 Coefficients=  1.0000000000D+00
 S 1 1.00
     Exponent=  1.9772676454D-01 Coefficients=  1.0000000000D+00
 S 1 1.00
     Exponent=  6.9638535104D-02 Coefficients=  1.0000000000D+00
 P 5 1.00
     Exponent=  1.9115255810D+02 Coefficients=  2.5115697705D-03
     Exponent=  4.5233356739D+01 Coefficients=  2.0039240864D-02
     Exponent=  1.4353465922D+01 Coefficients=  9.3609064762D-02
     Exponent=  5.2422371832D+00 Coefficients=  3.0618127124D-01
     Exponent=  2.0792418599D+00 Coefficients=  6.7810501439D-01
 P 1 1.00
     Exponent=  8.4282371424D-01 Coefficients=  1.0000000000D+00
 P 1 1.00
     Exponent=  3.3617694891D-01 Coefficients=  1.0000000000D+00
 P 1 1.00
     Exponent=  1.2863997974D-01 Coefficients=  1.0000000000D+00
 P 1 1.00
     Exponent=  4.3598162776D-02 Coefficients=  1.0000000000D+00
 D 1 1.00
     Exponent=  3.7750000000D+00 Coefficients=  1.0000000000D+00
 D 1 1.00
     Exponent=  1.3000000000D+00 Coefficients=  1.0000000000D+00
 D 1 1.00
     Exponent=  4.4400000000D-01 Coefficients=  1.0000000000D+00
 D 1 1.00
     Exponent=  1.2546378695D-01 Coefficients=  1.0000000000D+00
 F 1 1.00
     Exponent=  2.6660000000D+00 Coefficients=  1.0000000000D+00
 F 1 1.00
     Exponent=  8.5900000000D-01 Coefficients=  1.0000000000D+00
 G 1 1.00
     Exponent=  1.8460000000D+00 Coefficients=  1.0000000000D+00
 ****
 Ernie: Thresh=  0.10000D-02 Tol=  0.10000D-05 Strict=F.
 There are  1992 symmetry adapted cartesian basis functions of A   symmetry.
 There are  1641 symmetry adapted basis functions of A   symmetry.
  1641 basis functions,  2369 primitive gaussians,  1992 cartesian basis functions
    62 alpha electrons       62 beta electrons
       nuclear repulsion energy      1228.0937451344 Hartrees.
 IExCor= 4336 DFT=T Ex+Corr=M062X ExCW=0 ScaHFX=  0.540000
 ScaDFX=  1.000000  1.000000  1.000000  1.000000 ScalE2=  1.000000  1.000000
 IRadAn=      5 IRanWt=     -1 IRanGd=            0 ICorTp=0 IEmpDi=  4
 NAtoms=   35 NActive=   35 NUniq=   35 SFac= 1.00D+00 NAtFMM=   60 NAOKFM=F Big=F
 Integral buffers will be    131072 words long.
 Raffenetti 2 integral format.
 Two-electron integral symmetry is turned on.
 Leave Link  301 at Tue Apr 20 10:36:14 2021, MaxMem= 12079595520 cpu:              13.5 elap:               0.3
 (Enter /s/ls4/groups/g0130/bin/g16/l302.exe)
 NPDir=0 NMtPBC=     1 NCelOv=     1 NCel=       1 NClECP=     1 NCelD=      1
         NCelK=      1 NCelE2=     1 NClLst=     1 CellRange=     0.0.
 One-electron integrals computed using PRISM.
 One-electron integral symmetry used in STVInt
 NBasis=  1641 RedAO= T EigKep=  1.05D-06  NBF=  1641
 NBsUse=  1625 1.00D-06 EigRej=  8.62D-07 NBFU=  1625
 Precomputing XC quadrature grid using
 IXCGrd= 4 IRadAn=           5 IRanWt=          -1 IRanGd=           0 AccXCQ= 0.00D+00.
 Generated NRdTot=       0 NPtTot=           0 NUsed=           0 NTot=          32
 NSgBfM=  1984  1984  1984  1984  1984 MxSgAt=    35 MxSgA2=    35.
 Leave Link  302 at Tue Apr 20 10:36:22 2021, MaxMem= 12079595520 cpu:             348.9 elap:               7.3
 (Enter /s/ls4/groups/g0130/bin/g16/l303.exe)
 DipDrv:  MaxL=1.
 Leave Link  303 at Tue Apr 20 10:36:54 2021, MaxMem= 12079595520 cpu:            1488.2 elap:              31.8
 (Enter /s/ls4/groups/g0130/bin/g16/l401.exe)
 SCF N**3 symmetry information disabled.
 ExpMin= 4.36D-02 ExpMax= 1.17D+05 ExpMxC= 1.13D+03 IAcc=3 IRadAn=         5 AccDes= 0.00D+00
 Harris functional with IExCor= 1009 and IRadAn=       5 diagonalized for initial guess.
 HarFok:  IExCor= 1009 AccDes= 0.00D+00 IRadAn=         5 IDoV= 1 UseB2=F ITyADJ=14
 ICtDFT=  3500011 ScaDFX=  1.000000  1.000000  1.000000  1.000000
 FoFCou: FMM=F IPFlag=           0 FMFlag=      100000 FMFlg1=           0
         NFxFlg=           0 DoJE=T BraDBF=F KetDBF=T FulRan=T
         wScrn=  0.000000 ICntrl=       500 IOpCl=  0 I1Cent=   200000004 NGrid=           0
         NMat0=    1 NMatS0=      1 NMatT0=    0 NMatD0=    1 NMtDS0=    0 NMtDT0=    0
 Petite list used in FoFCou.
 Harris En= -778.356239345064    
 JPrj=0 DoOrth=F DoCkMO=F.
 Leave Link  401 at Tue Apr 20 10:37:06 2021, MaxMem= 12079595520 cpu:             583.5 elap:              12.3
 (Enter /s/ls4/groups/g0130/bin/g16/l502.exe)
 Integral symmetry usage will be decided dynamically.
 Closed shell SCF:
 Using DIIS extrapolation, IDIIS=  1040.
 NGot= 12079595520 LenX= 12071548411 LenY= 12067578355
 Requested convergence on RMS density matrix=1.00D-08 within 128 cycles.
 Requested convergence on MAX density matrix=1.00D-06.
 Requested convergence on             energy=1.00D-06.
 No special actions if energy rises.
 Fock matrices will be formed incrementally for  20 cycles.

 Cycle   1  Pass 1  IDiag  1:
 FoFJK:  IHMeth= 1 ICntrl=       0 DoSepK=F KAlg= 0 I1Cent=           0 FoldK=F
 IRaf= 820000000 NMat=       1 IRICut=       1 DoRegI=T DoRafI=F ISym2E= 0 IDoP0=0 IntGTp=1.
 FoFCou: FMM=F IPFlag=           0 FMFlag=      100000 FMFlg1=           0
         NFxFlg=           0 DoJE=F BraDBF=F KetDBF=F FulRan=T
         wScrn=  0.000000 ICntrl=         0 IOpCl=  0 I1Cent=           0 NGrid=           0
         NMat0=    1 NMatS0=      1 NMatT0=    0 NMatD0=    1 NMtDS0=    0 NMtDT0=    0
 Symmetry not used in FoFCou.
 E= -778.177365606254    
 DIIS: error= 1.40D-02 at cycle   1 NSaved=   1.
 NSaved= 1 IEnMin= 1 EnMin= -778.177365606254     IErMin= 1 ErrMin= 1.40D-02
 ErrMax= 1.40D-02  0.00D+00 EMaxC= 1.00D-01 BMatC= 1.01D+00 BMatP= 1.01D+00
 IDIUse=3 WtCom= 8.60D-01 WtEn= 1.40D-01
 Coeff-Com:  0.100D+01
 Coeff-En:   0.100D+01
 Coeff:      0.100D+01
 Gap=     0.330 Goal=   None    Shift=    0.000
 GapD=    0.330 DampG=1.000 DampE=0.500 DampFc=0.5000 IDamp=-1.
 Damping current iteration by 5.00D-01
 RMSDP=2.22D-03 MaxDP=2.97D-01              OVMax= 1.93D-01

 Cycle   2  Pass 1  IDiag  1:
 RMSU=  9.92D-04    CP:  8.36D-01
 E= -778.429329003622     Delta-E=       -0.251963397367 Rises=F Damp=T
 DIIS: error= 7.79D-03 at cycle   2 NSaved=   2.
 NSaved= 2 IEnMin= 2 EnMin= -778.429329003622     IErMin= 2 ErrMin= 7.79D-03
 ErrMax= 7.79D-03  0.00D+00 EMaxC= 1.00D-01 BMatC= 1.35D-01 BMatP= 1.01D+00
 IDIUse=3 WtCom= 9.22D-01 WtEn= 7.79D-02
 Coeff-Com: -0.117D+00 0.112D+01
 Coeff-En:   0.000D+00 0.100D+01
 Coeff:     -0.108D+00 0.111D+01
 Gap=     0.352 Goal=   None    Shift=    0.000
 RMSDP=1.31D-03 MaxDP=1.65D-01 DE=-2.52D-01 OVMax= 1.05D-01

 Cycle   3  Pass 1  IDiag  1:
 RMSU=  1.05D-03    CP:  6.23D-01  1.43D+00
 E= -778.664740901920     Delta-E=       -0.235411898298 Rises=F Damp=F
 DIIS: error= 3.94D-03 at cycle   3 NSaved=   3.
 NSaved= 3 IEnMin= 3 EnMin= -778.664740901920     IErMin= 3 ErrMin= 3.94D-03
 ErrMax= 3.94D-03  0.00D+00 EMaxC= 1.00D-01 BMatC= 6.13D-02 BMatP= 1.35D-01
 IDIUse=3 WtCom= 9.61D-01 WtEn= 3.94D-02
 Coeff-Com: -0.160D+00 0.487D+00 0.672D+00
 Coeff-En:   0.000D+00 0.000D+00 0.100D+01
 Coeff:     -0.154D+00 0.468D+00 0.685D+00
 Gap=     0.319 Goal=   None    Shift=    0.000
 RMSDP=2.30D-04 MaxDP=2.02D-02 DE=-2.35D-01 OVMax= 5.66D-02

 Cycle   4  Pass 1  IDiag  1:
 RMSU=  2.27D-04    CP:  6.23D-01  1.46D+00  9.75D-01
 E= -778.697206228709     Delta-E=       -0.032465326789 Rises=F Damp=F
 DIIS: error= 1.84D-03 at cycle   4 NSaved=   4.
 NSaved= 4 IEnMin= 4 EnMin= -778.697206228709     IErMin= 4 ErrMin= 1.84D-03
 ErrMax= 1.84D-03  0.00D+00 EMaxC= 1.00D-01 BMatC= 1.27D-02 BMatP= 6.13D-02
 IDIUse=3 WtCom= 9.82D-01 WtEn= 1.84D-02
 Coeff-Com: -0.697D-01 0.154D+00 0.382D+00 0.534D+00
 Coeff-En:   0.000D+00 0.000D+00 0.171D+00 0.829D+00
 Coeff:     -0.685D-01 0.151D+00 0.378D+00 0.539D+00
 Gap=     0.298 Goal=   None    Shift=    0.000
 RMSDP=9.82D-05 MaxDP=2.03D-02 DE=-3.25D-02 OVMax= 1.89D-02

 Cycle   5  Pass 1  IDiag  1:
 RMSU=  6.83D-05    CP:  6.20D-01  1.47D+00  9.45D-01  7.28D-01
 E= -778.706651473185     Delta-E=       -0.009445244476 Rises=F Damp=F
 DIIS: error= 1.77D-04 at cycle   5 NSaved=   5.
 NSaved= 5 IEnMin= 5 EnMin= -778.706651473185     IErMin= 5 ErrMin= 1.77D-04
 ErrMax= 1.77D-04  0.00D+00 EMaxC= 1.00D-01 BMatC= 2.06D-04 BMatP= 1.27D-02
 IDIUse=3 WtCom= 9.98D-01 WtEn= 1.77D-03
 Coeff-Com: -0.199D-01 0.417D-01 0.118D+00 0.211D+00 0.649D+00
 Coeff-En:   0.000D+00 0.000D+00 0.000D+00 0.000D+00 0.100D+01
 Coeff:     -0.198D-01 0.417D-01 0.118D+00 0.211D+00 0.650D+00
 Gap=     0.300 Goal=   None    Shift=    0.000
 RMSDP=3.09D-05 MaxDP=6.54D-03 DE=-9.45D-03 OVMax= 3.30D-03

 Cycle   6  Pass 1  IDiag  1:
 RMSU=  2.83D-05    CP:  6.20D-01  1.47D+00  9.39D-01  7.61D-01  1.09D+00
 E= -778.706809449881     Delta-E=       -0.000157976696 Rises=F Damp=F
 DIIS: error= 6.22D-05 at cycle   6 NSaved=   6.
 NSaved= 6 IEnMin= 6 EnMin= -778.706809449881     IErMin= 6 ErrMin= 6.22D-05
 ErrMax= 6.22D-05  0.00D+00 EMaxC= 1.00D-01 BMatC= 2.13D-05 BMatP= 2.06D-04
 IDIUse=1 WtCom= 1.00D+00 WtEn= 0.00D+00
 Coeff-Com: -0.581D-04-0.164D-03 0.461D-02 0.249D-01 0.261D+00 0.710D+00
 Coeff:     -0.581D-04-0.164D-03 0.461D-02 0.249D-01 0.261D+00 0.710D+00
 Gap=     0.299 Goal=   None    Shift=    0.000
 RMSDP=1.04D-05 MaxDP=2.53D-03 DE=-1.58D-04 OVMax= 1.73D-03

 Cycle   7  Pass 1  IDiag  1:
 RMSU=  6.62D-06    CP:  6.20D-01  1.46D+00  9.37D-01  7.72D-01  1.16D+00
                    CP:  1.16D+00
 E= -778.706826840546     Delta-E=       -0.000017390665 Rises=F Damp=F
 DIIS: error= 3.20D-05 at cycle   7 NSaved=   7.
 NSaved= 7 IEnMin= 7 EnMin= -778.706826840546     IErMin= 7 ErrMin= 3.20D-05
 ErrMax= 3.20D-05  0.00D+00 EMaxC= 1.00D-01 BMatC= 3.20D-06 BMatP= 2.13D-05
 IDIUse=1 WtCom= 1.00D+00 WtEn= 0.00D+00
 Coeff-Com:  0.261D-02-0.558D-02-0.127D-01-0.171D-01 0.385D-01 0.304D+00
 Coeff-Com:  0.690D+00
 Coeff:      0.261D-02-0.558D-02-0.127D-01-0.171D-01 0.385D-01 0.304D+00
 Coeff:      0.690D+00
 Gap=     0.300 Goal=   None    Shift=    0.000
 RMSDP=3.64D-06 MaxDP=2.98D-04 DE=-1.74D-05 OVMax= 4.83D-04

 Cycle   8  Pass 1  IDiag  1:
 RMSU=  2.85D-06    CP:  6.20D-01  1.46D+00  9.37D-01  7.77D-01  1.19D+00
                    CP:  1.20D+00  1.05D+00
 E= -778.706829574278     Delta-E=       -0.000002733732 Rises=F Damp=F
 DIIS: error= 1.03D-05 at cycle   8 NSaved=   8.
 NSaved= 8 IEnMin= 8 EnMin= -778.706829574278     IErMin= 8 ErrMin= 1.03D-05
 ErrMax= 1.03D-05  0.00D+00 EMaxC= 1.00D-01 BMatC= 5.80D-07 BMatP= 3.20D-06
 IDIUse=1 WtCom= 1.00D+00 WtEn= 0.00D+00
 Coeff-Com:  0.113D-02-0.242D-02-0.566D-02-0.112D-01-0.137D-01 0.388D-01
 Coeff-Com:  0.320D+00 0.673D+00
 Coeff:      0.113D-02-0.242D-02-0.566D-02-0.112D-01-0.137D-01 0.388D-01
 Coeff:      0.320D+00 0.673D+00
 Gap=     0.300 Goal=   None    Shift=    0.000
 RMSDP=1.71D-06 MaxDP=3.28D-04 DE=-2.73D-06 OVMax= 3.13D-04

 Cycle   9  Pass 1  IDiag  1:
 RMSU=  1.44D-06    CP:  6.20D-01  1.46D+00  9.37D-01  7.79D-01  1.19D+00
                    CP:  1.20D+00  1.11D+00  1.18D+00
 E= -778.706830141184     Delta-E=       -0.000000566906 Rises=F Damp=F
 DIIS: error= 2.46D-06 at cycle   9 NSaved=   9.
 NSaved= 9 IEnMin= 9 EnMin= -778.706830141184     IErMin= 9 ErrMin= 2.46D-06
 ErrMax= 2.46D-06  0.00D+00 EMaxC= 1.00D-01 BMatC= 4.35D-08 BMatP= 5.80D-07
 IDIUse=1 WtCom= 1.00D+00 WtEn= 0.00D+00
 Coeff-Com: -0.176D-04 0.952D-05 0.128D-03-0.127D-02-0.719D-02-0.257D-01
 Coeff-Com: -0.710D-02 0.172D+00 0.869D+00
 Coeff:     -0.176D-04 0.952D-05 0.128D-03-0.127D-02-0.719D-02-0.257D-01
 Coeff:     -0.710D-02 0.172D+00 0.869D+00
 Gap=     0.300 Goal=   None    Shift=    0.000
 RMSDP=8.44D-07 MaxDP=2.03D-04 DE=-5.67D-07 OVMax= 6.78D-05

 Cycle  10  Pass 1  IDiag  1:
 RMSU=  3.63D-07    CP:  6.20D-01  1.46D+00  9.37D-01  7.79D-01  1.18D+00
                    CP:  1.20D+00  1.11D+00  1.31D+00  1.41D+00
 E= -778.706830193152     Delta-E=       -0.000000051967 Rises=F Damp=F
 DIIS: error= 9.30D-07 at cycle  10 NSaved=  10.
 NSaved=10 IEnMin=10 EnMin= -778.706830193152     IErMin=10 ErrMin= 9.30D-07
 ErrMax= 9.30D-07  0.00D+00 EMaxC= 1.00D-01 BMatC= 6.31D-09 BMatP= 4.35D-08
 IDIUse=1 WtCom= 1.00D+00 WtEn= 0.00D+00
 Coeff-Com: -0.144D-03 0.296D-03 0.747D-03 0.880D-03-0.486D-03-0.127D-01
 Coeff-Com: -0.441D-01-0.213D-01 0.330D+00 0.747D+00
 Coeff:     -0.144D-03 0.296D-03 0.747D-03 0.880D-03-0.486D-03-0.127D-01
 Coeff:     -0.441D-01-0.213D-01 0.330D+00 0.747D+00
 Gap=     0.300 Goal=   None    Shift=    0.000
 RMSDP=2.12D-07 MaxDP=4.03D-05 DE=-5.20D-08 OVMax= 3.45D-05

 Cycle  11  Pass 1  IDiag  1:
 RMSU=  1.32D-07    CP:  6.20D-01  1.46D+00  9.37D-01  7.79D-01  1.18D+00
                    CP:  1.20D+00  1.12D+00  1.35D+00  1.47D+00  1.09D+00
 E= -778.706830200215     Delta-E=       -0.000000007064 Rises=F Damp=F
 DIIS: error= 3.51D-07 at cycle  11 NSaved=  11.
 NSaved=11 IEnMin=11 EnMin= -778.706830200215     IErMin=11 ErrMin= 3.51D-07
 ErrMax= 3.51D-07  0.00D+00 EMaxC= 1.00D-01 BMatC= 8.13D-10 BMatP= 6.31D-09
 IDIUse=1 WtCom= 1.00D+00 WtEn= 0.00D+00
 Coeff-Com: -0.365D-04 0.796D-04 0.195D-03 0.318D-03 0.327D-03-0.185D-02
 Coeff-Com: -0.148D-01-0.244D-01 0.229D-01 0.290D+00 0.728D+00
 Coeff:     -0.365D-04 0.796D-04 0.195D-03 0.318D-03 0.327D-03-0.185D-02
 Coeff:     -0.148D-01-0.244D-01 0.229D-01 0.290D+00 0.728D+00
 Gap=     0.300 Goal=   None    Shift=    0.000
 RMSDP=6.42D-08 MaxDP=1.41D-05 DE=-7.06D-09 OVMax= 7.75D-06

 Cycle  12  Pass 1  IDiag  1:
 RMSU=  5.03D-08    CP:  6.20D-01  1.46D+00  9.37D-01  7.79D-01  1.18D+00
                    CP:  1.20D+00  1.12D+00  1.35D+00  1.48D+00  1.11D+00
                    CP:  1.12D+00
 E= -778.706830200955     Delta-E=       -0.000000000740 Rises=F Damp=F
 DIIS: error= 1.95D-07 at cycle  12 NSaved=  12.
 NSaved=12 IEnMin=12 EnMin= -778.706830200955     IErMin=12 ErrMin= 1.95D-07
 ErrMax= 1.95D-07  0.00D+00 EMaxC= 1.00D-01 BMatC= 8.47D-11 BMatP= 8.13D-10
 IDIUse=1 WtCom= 1.00D+00 WtEn= 0.00D+00
 Coeff-Com:  0.251D-06 0.195D-05 0.135D-04 0.342D-04 0.178D-03 0.408D-03
 Coeff-Com: -0.164D-02-0.668D-02-0.231D-01 0.408D-01 0.256D+00 0.734D+00
 Coeff:      0.251D-06 0.195D-05 0.135D-04 0.342D-04 0.178D-03 0.408D-03
 Coeff:     -0.164D-02-0.668D-02-0.231D-01 0.408D-01 0.256D+00 0.734D+00
 Gap=     0.300 Goal=   None    Shift=    0.000
 RMSDP=1.96D-08 MaxDP=5.76D-06 DE=-7.40D-10 OVMax= 3.21D-06

 Cycle  13  Pass 1  IDiag  1:
 RMSU=  1.24D-08    CP:  6.20D-01  1.46D+00  9.37D-01  7.79D-01  1.18D+00
                    CP:  1.20D+00  1.12D+00  1.35D+00  1.48D+00  1.12D+00
                    CP:  1.18D+00  1.18D+00
 E= -778.706830201020     Delta-E=       -0.000000000065 Rises=F Damp=F
 DIIS: error= 9.12D-08 at cycle  13 NSaved=  13.
 NSaved=13 IEnMin=13 EnMin= -778.706830201020     IErMin=13 ErrMin= 9.12D-08
 ErrMax= 9.12D-08  0.00D+00 EMaxC= 1.00D-01 BMatC= 2.58D-11 BMatP= 8.47D-11
 IDIUse=1 WtCom= 1.00D+00 WtEn= 0.00D+00
 Coeff-Com:  0.469D-05-0.889D-05-0.128D-04-0.198D-04 0.702D-04 0.458D-03
 Coeff-Com:  0.102D-02-0.337D-03-0.158D-01-0.177D-01 0.311D-01 0.403D+00
 Coeff-Com:  0.598D+00
 Coeff:      0.469D-05-0.889D-05-0.128D-04-0.198D-04 0.702D-04 0.458D-03
 Coeff:      0.102D-02-0.337D-03-0.158D-01-0.177D-01 0.311D-01 0.403D+00
 Coeff:      0.598D+00
 Gap=     0.300 Goal=   None    Shift=    0.000
 RMSDP=6.86D-09 MaxDP=1.06D-06 DE=-6.53D-11 OVMax= 1.35D-06

 Cycle  14  Pass 1  IDiag  1:
 RMSU=  4.88D-09    CP:  6.20D-01  1.46D+00  9.37D-01  7.79D-01  1.18D+00
                    CP:  1.20D+00  1.12D+00  1.35D+00  1.48D+00  1.12D+00
                    CP:  1.20D+00  1.22D+00  1.12D+00
 E= -778.706830201062     Delta-E=       -0.000000000042 Rises=F Damp=F
 DIIS: error= 2.24D-08 at cycle  14 NSaved=  14.
 NSaved=14 IEnMin=14 EnMin= -778.706830201062     IErMin=14 ErrMin= 2.24D-08
 ErrMax= 2.24D-08  0.00D+00 EMaxC= 1.00D-01 BMatC= 2.16D-12 BMatP= 2.58D-11
 IDIUse=1 WtCom= 1.00D+00 WtEn= 0.00D+00
 Coeff-Com:  0.191D-05-0.398D-05-0.559D-05-0.116D-04 0.167D-04 0.152D-03
 Coeff-Com:  0.671D-03 0.723D-03-0.408D-02-0.141D-01-0.238D-01 0.729D-01
 Coeff-Com:  0.265D+00 0.702D+00
 Coeff:      0.191D-05-0.398D-05-0.559D-05-0.116D-04 0.167D-04 0.152D-03
 Coeff:      0.671D-03 0.723D-03-0.408D-02-0.141D-01-0.238D-01 0.729D-01
 Coeff:      0.265D+00 0.702D+00
 Gap=     0.300 Goal=   None    Shift=    0.000
 RMSDP=2.59D-09 MaxDP=2.25D-07 DE=-4.21D-11 OVMax= 4.67D-07

 SCF Done:  E(RM062X) =  -778.706830201     A.U. after   14 cycles
            NFock= 14  Conv=0.26D-08     -V/T= 2.0041
 KE= 7.755398295229D+02 PE=-4.273725137781D+03 EE= 1.491384732922D+03
 Leave Link  502 at Tue Apr 20 12:33:03 2021, MaxMem= 12079595520 cpu:          333585.7 elap:            6957.1
 (Enter /s/ls4/groups/g0130/bin/g16/l601.exe)
 Copying SCF densities to generalized density rwf, IOpCl= 0 IROHF=0.

 **********************************************************************

            Population analysis using the SCF density.

 **********************************************************************

 Orbital symmetries:
       Occupied  (A) (A) (A) (A) (A) (A) (A) (A) (A) (A) (A) (A)
                 (A) (A) (A) (A) (A) (A) (A) (A) (A) (A) (A) (A)
                 (A) (A) (A) (A) (A) (A) (A) (A) (A) (A) (A) (A)
                 (A) (A) (A) (A) (A) (A) (A) (A) (A) (A) (A) (A)
                 (A) (A) (A) (A) (A) (A) (A) (A) (A) (A) (A) (A)
                 (A) (A)
       Virtual   (A) (A) (A) (A) (A) (A) (A) (A) (A) (A) (A) (A)
                 (A) (A) (A) (A) (A) (A) (A) (A) (A) (A) (A) (A)
                 (A) (A) (A) (A) (A) (A) (A) (A) (A) (A) (A) (A)
                 (A) (A) (A) (A) (A) (A) (A) (A) (A) (A) (A) (A)
                 (A) (A) (A) (A) (A) (A) (A) (A) (A) (A) (A) (A)
                 (A) (A) (A) (A) (A) (A) (A) (A) (A) (A) (A) (A)
                 (A) (A) (A) (A) (A) (A) (A) (A) (A) (A) (A) (A)
                 (A) (A) (A) (A) (A) (A) (A) (A) (A) (A) (A) (A)
                 (A) (A) (A) (A) (A) (A) (A) (A) (A) (A) (A) (A)
                 (A) (A) (A) (A) (A) (A) (A) (A) (A) (A) (A) (A)
                 (A) (A) (A) (A) (A) (A) (A) (A) (A) (A) (A) (A)
                 (A) (A) (A) (A) (A) (A) (A) (A) (A) (A) (A) (A)
                 (A) (A) (A) (A) (A) (A) (A) (A) (A) (A) (A) (A)
                 (A) (A) (A) (A) (A) (A) (A) (A) (A) (A) (A) (A)
                 (A) (A) (A) (A) (A) (A) (A) (A) (A) (A) (A) (A)
                 (A) (A) (A) (A) (A) (A) (A) (A) (A) (A) (A) (A)
                 (A) (A) (A) (A) (A) (A) (A) (A) (A) (A) (A) (A)
                 (A) (A) (A) (A) (A) (A) (A) (A) (A) (A) (A) (A)
                 (A) (A) (A) (A) (A) (A) (A) (A) (A) (A) (A) (A)
                 (A) (A) (A) (A) (A) (A) (A) (A) (A) (A) (A) (A)
                 (A) (A) (A) (A) (A) (A) (A) (A) (A) (A) (A) (A)
                 (A) (A) (A) (A) (A) (A) (A) (A) (A) (A) (A) (A)
                 (A) (A) (A) (A) (A) (A) (A) (A) (A) (A) (A) (A)
                 (A) (A) (A) (A) (A) (A) (A) (A) (A) (A) (A) (A)
                 (A) (A) (A) (A) (A) (A) (A) (A) (A) (A) (A) (A)
                 (A) (A) (A) (A) (A) (A) (A) (A) (A) (A) (A) (A)
                 (A) (A) (A) (A) (A) (A) (A) (A) (A) (A) (A) (A)
                 (A) (A) (A) (A) (A) (A) (A) (A) (A) (A) (A) (A)
                 (A) (A) (A) (A) (A) (A) (A) (A) (A) (A) (A) (A)
                 (A) (A) (A) (A) (A) (A) (A) (A) (A) (A) (A) (A)
                 (A) (A) (A) (A) (A) (A) (A) (A) (A) (A) (A) (A)
                 (A) (A) (A) (A) (A) (A) (A) (A) (A) (A) (A) (A)
                 (A) (A) (A) (A) (A) (A) (A) (A) (A) (A) (A) (A)
                 (A) (A) (A) (A) (A) (A) (A) (A) (A) (A) (A) (A)
                 (A) (A) (A) (A) (A) (A) (A) (A) (A) (A) (A) (A)
                 (A) (A) (A) (A) (A) (A) (A) (A) (A) (A) (A) (A)
                 (A) (A) (A) (A) (A) (A) (A) (A) (A) (A) (A) (A)
                 (A) (A) (A) (A) (A) (A) (A) (A) (A) (A) (A) (A)
                 (A) (A) (A) (A) (A) (A) (A) (A) (A) (A) (A) (A)
                 (A) (A) (A) (A) (A) (A) (A) (A) (A) (A) (A) (A)
                 (A) (A) (A) (A) (A) (A) (A) (A) (A) (A) (A) (A)
                 (A) (A) (A) (A) (A) (A) (A) (A) (A) (A) (A) (A)
                 (A) (A) (A) (A) (A) (A) (A) (A) (A) (A) (A) (A)
                 (A) (A) (A) (A) (A) (A) (A) (A) (A) (A) (A) (A)
                 (A) (A) (A) (A) (A) (A) (A) (A) (A) (A) (A) (A)
                 (A) (A) (A) (A) (A) (A) (A) (A) (A) (A) (A) (A)
                 (A) (A) (A) (A) (A) (A) (A) (A) (A) (A) (A) (A)
                 (A) (A) (A) (A) (A) (A) (A) (A) (A) (A) (A) (A)
                 (A) (A) (A) (A) (A) (A) (A) (A) (A) (A) (A) (A)
                 (A) (A) (A) (A) (A) (A) (A) (A) (A) (A) (A) (A)
                 (A) (A) (A) (A) (A) (A) (A) (A) (A) (A) (A) (A)
                 (A) (A) (A) (A) (A) (A) (A) (A) (A) (A) (A) (A)
                 (A) (A) (A) (A) (A) (A) (A) (A) (A) (A) (A) (A)
                 (A) (A) (A) (A) (A) (A) (A) (A) (A) (A) (A) (A)
                 (A) (A) (A) (A) (A) (A) (A) (A) (A) (A) (A) (A)
                 (A) (A) (A) (A) (A) (A) (A) (A) (A) (A) (A) (A)
                 (A) (A) (A) (A) (A) (A) (A) (A) (A) (A) (A) (A)
                 (A) (A) (A) (A) (A) (A) (A) (A) (A) (A) (A) (A)
                 (A) (A) (A) (A) (A) (A) (A) (A) (A) (A) (A) (A)
                 (A) (A) (A) (A) (A) (A) (A) (A) (A) (A) (A) (A)
                 (A) (A) (A) (A) (A) (A) (A) (A) (A) (A) (A) (A)
                 (A) (A) (A) (A) (A) (A) (A) (A) (A) (A) (A) (A)
                 (A) (A) (A) (A) (A) (A) (A) (A) (A) (A) (A) (A)
                 (A) (A) (A) (A) (A) (A) (A) (A) (A) (A) (A) (A)
                 (A) (A) (A) (A) (A) (A) (A) (A) (A) (A) (A) (A)
                 (A) (A) (A) (A) (A) (A) (A) (A) (A) (A) (A) (A)
                 (A) (A) (A) (A) (A) (A) (A) (A) (A) (A) (A) (A)
                 (A) (A) (A) (A) (A) (A) (A) (A) (A) (A) (A) (A)
                 (A) (A) (A) (A) (A) (A) (A) (A) (A) (A) (A) (A)
                 (A) (A) (A) (A) (A) (A) (A) (A) (A) (A) (A) (A)
                 (A) (A) (A) (A) (A) (A) (A) (A) (A) (A) (A) (A)
                 (A) (A) (A) (A) (A) (A) (A) (A) (A) (A) (A) (A)
                 (A) (A) (A) (A) (A) (A) (A) (A) (A) (A) (A) (A)
                 (A) (A) (A) (A) (A) (A) (A) (A) (A) (A) (A) (A)
                 (A) (A) (A) (A) (A) (A) (A) (A) (A) (A) (A) (A)
                 (A) (A) (A) (A) (A) (A) (A) (A) (A) (A) (A) (A)
                 (A) (A) (A) (A) (A) (A) (A) (A) (A) (A) (A) (A)
                 (A) (A) (A) (A) (A) (A) (A) (A) (A) (A) (A) (A)
                 (A) (A) (A) (A) (A) (A) (A) (A) (A) (A) (A) (A)
                 (A) (A) (A) (A) (A) (A) (A) (A) (A) (A) (A) (A)
                 (A) (A) (A) (A) (A) (A) (A) (A) (A) (A) (A) (A)
                 (A) (A) (A) (A) (A) (A) (A) (A) (A) (A) (A) (A)
                 (A) (A) (A) (A) (A) (A) (A) (A) (A) (A) (A) (A)
                 (A) (A) (A) (A) (A) (A) (A) (A) (A) (A) (A) (A)
                 (A) (A) (A) (A) (A) (A) (A) (A) (A) (A) (A) (A)
                 (A) (A) (A) (A) (A) (A) (A) (A) (A) (A) (A) (A)
                 (A) (A) (A) (A) (A) (A) (A) (A) (A) (A) (A) (A)
                 (A) (A) (A) (A) (A) (A) (A) (A) (A) (A) (A) (A)
                 (A) (A) (A) (A) (A) (A) (A) (A) (A) (A) (A) (A)
                 (A) (A) (A) (A) (A) (A) (A) (A) (A) (A) (A) (A)
                 (A) (A) (A) (A) (A) (A) (A) (A) (A) (A) (A) (A)
                 (A) (A) (A) (A) (A) (A) (A) (A) (A) (A) (A) (A)
                 (A) (A) (A) (A) (A) (A) (A) (A) (A) (A) (A) (A)
                 (A) (A) (A) (A) (A) (A) (A) (A) (A) (A) (A) (A)
                 (A) (A) (A) (A) (A) (A) (A) (A) (A) (A) (A) (A)
                 (A) (A) (A) (A) (A) (A) (A) (A) (A) (A) (A) (A)
                 (A) (A) (A) (A) (A) (A) (A) (A) (A) (A) (A) (A)
                 (A) (A) (A) (A) (A) (A) (A) (A) (A) (A) (A) (A)
                 (A) (A) (A) (A) (A) (A) (A) (A) (A) (A) (A) (A)
                 (A) (A) (A) (A) (A) (A) (A) (A) (A) (A) (A) (A)
                 (A) (A) (A) (A) (A) (A) (A) (A) (A) (A) (A) (A)
                 (A) (A) (A) (A) (A) (A) (A) (A) (A) (A) (A) (A)
                 (A) (A) (A) (A) (A) (A) (A) (A) (A) (A) (A) (A)
                 (A) (A) (A) (A) (A) (A) (A) (A) (A) (A) (A) (A)
                 (A) (A) (A) (A) (A) (A) (A) (A) (A) (A) (A) (A)
                 (A) (A) (A) (A) (A) (A) (A) (A) (A) (A) (A) (A)
                 (A) (A) (A) (A) (A) (A) (A) (A) (A) (A) (A) (A)
                 (A) (A) (A) (A) (A) (A) (A) (A) (A) (A) (A) (A)
                 (A) (A) (A) (A) (A) (A) (A) (A) (A) (A) (A) (A)
                 (A) (A) (A) (A) (A) (A) (A) (A) (A) (A) (A) (A)
                 (A) (A) (A) (A) (A) (A) (A) (A) (A) (A) (A) (A)
                 (A) (A) (A) (A) (A) (A) (A) (A) (A) (A) (A) (A)
                 (A) (A) (A) (A) (A) (A) (A) (A) (A) (A) (A) (A)
                 (A) (A) (A) (A) (A) (A) (A) (A) (A) (A) (A) (A)
                 (A) (A) (A) (A) (A) (A) (A) (A) (A) (A) (A) (A)
                 (A) (A) (A) (A) (A) (A) (A) (A) (A) (A) (A) (A)
                 (A) (A) (A) (A) (A) (A) (A) (A) (A) (A) (A) (A)
                 (A) (A) (A) (A) (A) (A) (A) (A) (A) (A) (A) (A)
                 (A) (A) (A) (A) (A) (A) (A) (A) (A) (A) (A) (A)
                 (A) (A) (A) (A) (A) (A) (A) (A) (A) (A) (A) (A)
                 (A) (A) (A) (A) (A) (A) (A) (A) (A) (A) (A) (A)
                 (A) (A) (A) (A) (A) (A) (A) (A) (A) (A) (A) (A)
                 (A) (A) (A) (A) (A) (A) (A) (A) (A) (A) (A) (A)
                 (A) (A) (A) (A) (A) (A) (A) (A) (A) (A) (A) (A)
                 (A) (A) (A) (A) (A) (A) (A) (A) (A) (A) (A) (A)
                 (A) (A) (A) (A) (A) (A) (A) (A) (A) (A) (A) (A)
                 (A) (A) (A) (A) (A) (A) (A) (A) (A) (A) (A) (A)
                 (A) (A) (A) (A) (A) (A) (A) (A) (A) (A) (A) (A)
                 (A) (A) (A) (A) (A) (A) (A) (A) (A) (A) (A) (A)
                 (A) (A) (A) (A) (A) (A) (A) (A) (A) (A) (A) (A)
                 (A) (A) (A)
 The electronic state is 1-A.
 Alpha  occ. eigenvalues --  -19.58530 -19.58387 -14.77374 -14.76962 -14.76728
 Alpha  occ. eigenvalues --  -14.75792 -14.71573 -10.65598 -10.64305 -10.63343
 Alpha  occ. eigenvalues --  -10.58550 -10.57624 -10.56010 -10.54391 -10.53970
 Alpha  occ. eigenvalues --  -10.53886  -1.15477  -1.14638  -1.10864  -1.03122
 Alpha  occ. eigenvalues --   -1.02060  -1.00679  -0.96185  -0.89957  -0.85217
 Alpha  occ. eigenvalues --   -0.81942  -0.79235  -0.74526  -0.70837  -0.67336
 Alpha  occ. eigenvalues --   -0.66673  -0.65282  -0.62646  -0.61046  -0.59555
 Alpha  occ. eigenvalues --   -0.56868  -0.56154  -0.54595  -0.53751  -0.53060
 Alpha  occ. eigenvalues --   -0.52177  -0.51474  -0.50817  -0.49250  -0.48496
 Alpha  occ. eigenvalues --   -0.48161  -0.47067  -0.46754  -0.45619  -0.45207
 Alpha  occ. eigenvalues --   -0.43632  -0.42629  -0.41437  -0.40516  -0.39725
 Alpha  occ. eigenvalues --   -0.36083  -0.33869  -0.33496  -0.32626  -0.31717
 Alpha  occ. eigenvalues --   -0.30574  -0.30229
 Alpha virt. eigenvalues --   -0.00274   0.01045   0.01339   0.01479   0.03096
 Alpha virt. eigenvalues --    0.03361   0.03909   0.04277   0.04558   0.05286
 Alpha virt. eigenvalues --    0.05766   0.06541   0.06635   0.06871   0.07041
 Alpha virt. eigenvalues --    0.07286   0.07372   0.08147   0.08712   0.09182
 Alpha virt. eigenvalues --    0.09927   0.10331   0.10487   0.10908   0.11133
 Alpha virt. eigenvalues --    0.11842   0.12241   0.12955   0.13129   0.13649
 Alpha virt. eigenvalues --    0.14092   0.14494   0.14860   0.15283   0.15846
 Alpha virt. eigenvalues --    0.15983   0.16485   0.17102   0.17239   0.17493
 Alpha virt. eigenvalues --    0.17561   0.17646   0.18504   0.18541   0.19353
 Alpha virt. eigenvalues --    0.19573   0.19700   0.20173   0.20657   0.20701
 Alpha virt. eigenvalues --    0.20899   0.21147   0.21458   0.21645   0.22170
 Alpha virt. eigenvalues --    0.22834   0.22903   0.23114   0.23374   0.23563
 Alpha virt. eigenvalues --    0.24240   0.24341   0.24656   0.24780   0.25074
 Alpha virt. eigenvalues --    0.25231   0.25630   0.25803   0.26269   0.26603
 Alpha virt. eigenvalues --    0.26727   0.26889   0.27122   0.27258   0.27614
 Alpha virt. eigenvalues --    0.28055   0.28546   0.28916   0.29225   0.29372
 Alpha virt. eigenvalues --    0.29721   0.29840   0.30096   0.30430   0.30663
 Alpha virt. eigenvalues --    0.30929   0.31227   0.31427   0.31798   0.31959
 Alpha virt. eigenvalues --    0.32207   0.32631   0.32728   0.32949   0.33067
 Alpha virt. eigenvalues --    0.33614   0.33997   0.34447   0.34551   0.34724
 Alpha virt. eigenvalues --    0.34938   0.35174   0.35547   0.35730   0.35976
 Alpha virt. eigenvalues --    0.36329   0.36410   0.36887   0.37160   0.37474
 Alpha virt. eigenvalues --    0.37638   0.37811   0.37980   0.38096   0.38773
 Alpha virt. eigenvalues --    0.39167   0.39238   0.39434   0.39742   0.39874
 Alpha virt. eigenvalues --    0.40044   0.40397   0.40631   0.40903   0.41618
 Alpha virt. eigenvalues --    0.41881   0.42258   0.42325   0.42482   0.42774
 Alpha virt. eigenvalues --    0.43076   0.43219   0.43630   0.44213   0.44451
 Alpha virt. eigenvalues --    0.44809   0.44893   0.45177   0.45382   0.46028
 Alpha virt. eigenvalues --    0.46295   0.46446   0.46858   0.47146   0.47328
 Alpha virt. eigenvalues --    0.47768   0.48128   0.48567   0.48965   0.49067
 Alpha virt. eigenvalues --    0.49586   0.50073   0.50208   0.50309   0.50656
 Alpha virt. eigenvalues --    0.51020   0.51302   0.51542   0.51919   0.52143
 Alpha virt. eigenvalues --    0.52283   0.52990   0.53764   0.54092   0.54254
 Alpha virt. eigenvalues --    0.54360   0.54723   0.55116   0.55456   0.55764
 Alpha virt. eigenvalues --    0.56119   0.56290   0.56579   0.57033   0.57330
 Alpha virt. eigenvalues --    0.57930   0.58007   0.58821   0.58969   0.59260
 Alpha virt. eigenvalues --    0.59571   0.60018   0.60274   0.60575   0.60761
 Alpha virt. eigenvalues --    0.61309   0.61689   0.62001   0.62475   0.62641
 Alpha virt. eigenvalues --    0.63094   0.63334   0.63614   0.63972   0.64474
 Alpha virt. eigenvalues --    0.64743   0.65074   0.65176   0.65562   0.65933
 Alpha virt. eigenvalues --    0.66689   0.66835   0.66886   0.67251   0.67470
 Alpha virt. eigenvalues --    0.68241   0.68759   0.68912   0.69049   0.69356
 Alpha virt. eigenvalues --    0.69832   0.70368   0.70583   0.71148   0.71352
 Alpha virt. eigenvalues --    0.71840   0.71865   0.72246   0.72824   0.73457
 Alpha virt. eigenvalues --    0.73904   0.74270   0.74687   0.75159   0.75508
 Alpha virt. eigenvalues --    0.75800   0.76320   0.76726   0.77149   0.77477
 Alpha virt. eigenvalues --    0.77792   0.78278   0.78594   0.78894   0.79130
 Alpha virt. eigenvalues --    0.80134   0.80490   0.80621   0.81366   0.81815
 Alpha virt. eigenvalues --    0.82409   0.82529   0.83000   0.83501   0.84040
 Alpha virt. eigenvalues --    0.84784   0.84952   0.85617   0.85820   0.86194
 Alpha virt. eigenvalues --    0.86261   0.86668   0.87488   0.88297   0.88942
 Alpha virt. eigenvalues --    0.89116   0.89315   0.89663   0.90116   0.90784
 Alpha virt. eigenvalues --    0.91254   0.91285   0.91951   0.93128   0.93422
 Alpha virt. eigenvalues --    0.93996   0.94419   0.94987   0.95243   0.95360
 Alpha virt. eigenvalues --    0.95595   0.96033   0.96829   0.97247   0.98027
 Alpha virt. eigenvalues --    0.98482   0.98665   0.99403   0.99799   1.00356
 Alpha virt. eigenvalues --    1.00885   1.01151   1.01922   1.02398   1.02724
 Alpha virt. eigenvalues --    1.03174   1.03662   1.04156   1.04949   1.05314
 Alpha virt. eigenvalues --    1.05717   1.05904   1.06582   1.06748   1.07188
 Alpha virt. eigenvalues --    1.08087   1.08518   1.09110   1.09291   1.10049
 Alpha virt. eigenvalues --    1.10155   1.10903   1.11185   1.11578   1.12126
 Alpha virt. eigenvalues --    1.12851   1.13260   1.14046   1.14983   1.15761
 Alpha virt. eigenvalues --    1.15807   1.16055   1.16544   1.16747   1.17034
 Alpha virt. eigenvalues --    1.17851   1.18006   1.18579   1.18989   1.19279
 Alpha virt. eigenvalues --    1.19447   1.19905   1.20802   1.21296   1.21829
 Alpha virt. eigenvalues --    1.22396   1.22849   1.23231   1.23346   1.23795
 Alpha virt. eigenvalues --    1.23998   1.24445   1.24814   1.25706   1.25975
 Alpha virt. eigenvalues --    1.26302   1.27148   1.27578   1.28245   1.28892
 Alpha virt. eigenvalues --    1.29309   1.29556   1.29893   1.30228   1.31347
 Alpha virt. eigenvalues --    1.31842   1.32034   1.32685   1.32721   1.33486
 Alpha virt. eigenvalues --    1.33778   1.34305   1.34374   1.35291   1.35954
 Alpha virt. eigenvalues --    1.36185   1.36632   1.37311   1.37658   1.38445
 Alpha virt. eigenvalues --    1.39358   1.39457   1.40156   1.40541   1.41287
 Alpha virt. eigenvalues --    1.41904   1.42230   1.42765   1.43854   1.44479
 Alpha virt. eigenvalues --    1.45197   1.45526   1.45992   1.46869   1.47261
 Alpha virt. eigenvalues --    1.47546   1.47789   1.47876   1.48831   1.49059
 Alpha virt. eigenvalues --    1.49728   1.50493   1.50929   1.51312   1.51660
 Alpha virt. eigenvalues --    1.51977   1.52848   1.53286   1.54033   1.54423
 Alpha virt. eigenvalues --    1.54753   1.55858   1.56306   1.56744   1.57245
 Alpha virt. eigenvalues --    1.57671   1.57909   1.58290   1.58623   1.59436
 Alpha virt. eigenvalues --    1.60439   1.61572   1.62458   1.62541   1.63853
 Alpha virt. eigenvalues --    1.64319   1.64784   1.65533   1.66083   1.66328
 Alpha virt. eigenvalues --    1.67489   1.68610   1.68969   1.69647   1.70120
 Alpha virt. eigenvalues --    1.71637   1.72041   1.72820   1.73339   1.74326
 Alpha virt. eigenvalues --    1.75117   1.75741   1.76164   1.76418   1.76914
 Alpha virt. eigenvalues --    1.77691   1.78676   1.79130   1.80130   1.81001
 Alpha virt. eigenvalues --    1.81915   1.82619   1.82787   1.84056   1.84591
 Alpha virt. eigenvalues --    1.84701   1.85307   1.86789   1.87509   1.87675
 Alpha virt. eigenvalues --    1.88839   1.89918   1.90259   1.91764   1.92459
 Alpha virt. eigenvalues --    1.92790   1.93561   1.94324   1.94777   1.95542
 Alpha virt. eigenvalues --    1.96542   1.96695   1.97714   1.98924   1.99798
 Alpha virt. eigenvalues --    2.00915   2.01229   2.01992   2.02643   2.03131
 Alpha virt. eigenvalues --    2.03633   2.04119   2.04726   2.05379   2.05882
 Alpha virt. eigenvalues --    2.06405   2.07610   2.07990   2.08444   2.09010
 Alpha virt. eigenvalues --    2.10247   2.10515   2.10975   2.11569   2.12330
 Alpha virt. eigenvalues --    2.12977   2.14007   2.14566   2.15081   2.15789
 Alpha virt. eigenvalues --    2.16236   2.16455   2.17298   2.17680   2.18311
 Alpha virt. eigenvalues --    2.19152   2.19366   2.20343   2.20419   2.21144
 Alpha virt. eigenvalues --    2.21949   2.22225   2.22324   2.22625   2.23272
 Alpha virt. eigenvalues --    2.24253   2.24608   2.25409   2.25896   2.27031
 Alpha virt. eigenvalues --    2.27234   2.27486   2.27990   2.28467   2.29008
 Alpha virt. eigenvalues --    2.29383   2.30094   2.30657   2.30912   2.31599
 Alpha virt. eigenvalues --    2.32228   2.32793   2.33201   2.34135   2.35540
 Alpha virt. eigenvalues --    2.35856   2.36291   2.36688   2.37733   2.38273
 Alpha virt. eigenvalues --    2.38506   2.39183   2.39665   2.39841   2.40216
 Alpha virt. eigenvalues --    2.40688   2.40876   2.41782   2.42217   2.43089
 Alpha virt. eigenvalues --    2.43843   2.44398   2.45180   2.45466   2.45795
 Alpha virt. eigenvalues --    2.46702   2.46978   2.47952   2.48454   2.49369
 Alpha virt. eigenvalues --    2.49882   2.50416   2.50782   2.51525   2.51619
 Alpha virt. eigenvalues --    2.52014   2.52718   2.53206   2.53803   2.54521
 Alpha virt. eigenvalues --    2.55268   2.55769   2.56758   2.57074   2.57952
 Alpha virt. eigenvalues --    2.58758   2.59108   2.59857   2.60339   2.61125
 Alpha virt. eigenvalues --    2.61619   2.62108   2.62818   2.64254   2.64517
 Alpha virt. eigenvalues --    2.65127   2.65600   2.65673   2.66856   2.67428
 Alpha virt. eigenvalues --    2.67786   2.68629   2.68788   2.69786   2.70045
 Alpha virt. eigenvalues --    2.70554   2.70713   2.72277   2.72303   2.73050
 Alpha virt. eigenvalues --    2.73161   2.73942   2.74879   2.75232   2.75503
 Alpha virt. eigenvalues --    2.76253   2.77039   2.78061   2.78689   2.79072
 Alpha virt. eigenvalues --    2.79667   2.79910   2.80447   2.80682   2.80943
 Alpha virt. eigenvalues --    2.81801   2.82385   2.82654   2.82937   2.83174
 Alpha virt. eigenvalues --    2.84770   2.85478   2.86156   2.86533   2.86959
 Alpha virt. eigenvalues --    2.87724   2.88775   2.89174   2.90218   2.90561
 Alpha virt. eigenvalues --    2.90812   2.91662   2.91953   2.92249   2.93393
 Alpha virt. eigenvalues --    2.93805   2.94510   2.95182   2.95356   2.96014
 Alpha virt. eigenvalues --    2.96636   2.96840   2.98234   2.98513   2.98864
 Alpha virt. eigenvalues --    2.99117   2.99671   2.99717   3.00381   3.00694
 Alpha virt. eigenvalues --    3.01128   3.02084   3.02754   3.03319   3.04233
 Alpha virt. eigenvalues --    3.04618   3.04972   3.05337   3.05558   3.06171
 Alpha virt. eigenvalues --    3.07271   3.08278   3.08397   3.08968   3.09245
 Alpha virt. eigenvalues --    3.09611   3.11212   3.11513   3.11820   3.11996
 Alpha virt. eigenvalues --    3.12207   3.13581   3.14303   3.14903   3.15403
 Alpha virt. eigenvalues --    3.16720   3.17492   3.17962   3.18394   3.19115
 Alpha virt. eigenvalues --    3.19727   3.19897   3.20396   3.21491   3.22189
 Alpha virt. eigenvalues --    3.22733   3.23478   3.23923   3.24942   3.25275
 Alpha virt. eigenvalues --    3.25720   3.26330   3.27283   3.27774   3.28525
 Alpha virt. eigenvalues --    3.29180   3.29542   3.29888   3.30572   3.31088
 Alpha virt. eigenvalues --    3.31911   3.33897   3.34100   3.34642   3.35360
 Alpha virt. eigenvalues --    3.35689   3.36714   3.37740   3.38423   3.38551
 Alpha virt. eigenvalues --    3.39323   3.39644   3.40488   3.40980   3.41860
 Alpha virt. eigenvalues --    3.42405   3.42547   3.43357   3.43779   3.45203
 Alpha virt. eigenvalues --    3.46254   3.46447   3.47303   3.47444   3.48003
 Alpha virt. eigenvalues --    3.49515   3.49964   3.50377   3.51175   3.52109
 Alpha virt. eigenvalues --    3.52976   3.53185   3.54422   3.55565   3.56038
 Alpha virt. eigenvalues --    3.56098   3.56505   3.58141   3.58626   3.59180
 Alpha virt. eigenvalues --    3.60013   3.60746   3.61501   3.62222   3.62487
 Alpha virt. eigenvalues --    3.63020   3.63616   3.64373   3.65734   3.66767
 Alpha virt. eigenvalues --    3.67285   3.68312   3.69522   3.69644   3.70469
 Alpha virt. eigenvalues --    3.71689   3.72943   3.73776   3.74120   3.74855
 Alpha virt. eigenvalues --    3.75358   3.75539   3.76723   3.77507   3.77711
 Alpha virt. eigenvalues --    3.79492   3.80859   3.81385   3.82011   3.83002
 Alpha virt. eigenvalues --    3.83648   3.84642   3.85338   3.85535   3.86712
 Alpha virt. eigenvalues --    3.86890   3.88658   3.89419   3.89910   3.90482
 Alpha virt. eigenvalues --    3.91193   3.91509   3.91874   3.92438   3.93329
 Alpha virt. eigenvalues --    3.94388   3.94805   3.95726   3.96578   3.97208
 Alpha virt. eigenvalues --    3.98039   3.98996   3.99608   4.01412   4.02999
 Alpha virt. eigenvalues --    4.03520   4.04080   4.04671   4.05943   4.06442
 Alpha virt. eigenvalues --    4.06772   4.08851   4.09296   4.10079   4.11301
 Alpha virt. eigenvalues --    4.11899   4.13209   4.15720   4.16373   4.17256
 Alpha virt. eigenvalues --    4.17531   4.19664   4.20963   4.21522   4.22600
 Alpha virt. eigenvalues --    4.23776   4.24689   4.27009   4.27814   4.28452
 Alpha virt. eigenvalues --    4.29903   4.30162   4.31705   4.32280   4.33045
 Alpha virt. eigenvalues --    4.34355   4.35247   4.38651   4.40637   4.40894
 Alpha virt. eigenvalues --    4.41879   4.42151   4.43589   4.47171   4.47350
 Alpha virt. eigenvalues --    4.48317   4.48684   4.50433   4.50882   4.51963
 Alpha virt. eigenvalues --    4.53594   4.56827   4.59571   4.60400   4.61685
 Alpha virt. eigenvalues --    4.62874   4.64068   4.64960   4.65414   4.67693
 Alpha virt. eigenvalues --    4.69514   4.70183   4.70878   4.71780   4.75320
 Alpha virt. eigenvalues --    4.76423   4.77492   4.80737   4.81571   4.83700
 Alpha virt. eigenvalues --    4.85237   4.87007   4.88189   4.90126   4.91129
 Alpha virt. eigenvalues --    4.92851   4.93227   4.94890   4.97721   4.98104
 Alpha virt. eigenvalues --    5.00035   5.03117   5.04999   5.08500   5.08962
 Alpha virt. eigenvalues --    5.12721   5.13251   5.15318   5.16977   5.17413
 Alpha virt. eigenvalues --    5.18790   5.19849   5.21232   5.23588   5.26734
 Alpha virt. eigenvalues --    5.27753   5.28143   5.29510   5.30861   5.32155
 Alpha virt. eigenvalues --    5.33587   5.35394   5.36228   5.37302   5.37865
 Alpha virt. eigenvalues --    5.39181   5.40266   5.40323   5.41630   5.42017
 Alpha virt. eigenvalues --    5.43037   5.45157   5.46106   5.48001   5.49939
 Alpha virt. eigenvalues --    5.50358   5.51426   5.53391   5.54461   5.55068
 Alpha virt. eigenvalues --    5.56221   5.56864   5.58158   5.58302   5.58964
 Alpha virt. eigenvalues --    5.59359   5.60912   5.61934   5.62789   5.63748
 Alpha virt. eigenvalues --    5.65010   5.66195   5.67228   5.67883   5.68537
 Alpha virt. eigenvalues --    5.69922   5.70973   5.71448   5.71756   5.71869
 Alpha virt. eigenvalues --    5.72685   5.73522   5.74459   5.75211   5.75826
 Alpha virt. eigenvalues --    5.76125   5.77215   5.77599   5.78537   5.79627
 Alpha virt. eigenvalues --    5.79922   5.80433   5.80659   5.81350   5.81540
 Alpha virt. eigenvalues --    5.82253   5.82824   5.83954   5.84289   5.84982
 Alpha virt. eigenvalues --    5.85629   5.86145   5.86859   5.87479   5.87767
 Alpha virt. eigenvalues --    5.88167   5.89182   5.89602   5.90504   5.91381
 Alpha virt. eigenvalues --    5.92057   5.93418   5.93907   5.94921   5.95328
 Alpha virt. eigenvalues --    5.95587   5.96600   5.97188   5.98802   5.99017
 Alpha virt. eigenvalues --    6.00243   6.01067   6.01420   6.03329   6.03666
 Alpha virt. eigenvalues --    6.04143   6.04713   6.05529   6.05697   6.06893
 Alpha virt. eigenvalues --    6.08547   6.09225   6.10067   6.10420   6.12227
 Alpha virt. eigenvalues --    6.12543   6.12946   6.13610   6.13917   6.14911
 Alpha virt. eigenvalues --    6.15415   6.15890   6.17162   6.17316   6.19199
 Alpha virt. eigenvalues --    6.19885   6.20289   6.20364   6.20969   6.22264
 Alpha virt. eigenvalues --    6.23239   6.23647   6.24784   6.25082   6.25930
 Alpha virt. eigenvalues --    6.26335   6.27147   6.28119   6.28948   6.29394
 Alpha virt. eigenvalues --    6.29756   6.31045   6.31784   6.31871   6.32661
 Alpha virt. eigenvalues --    6.33161   6.34697   6.35591   6.36666   6.37102
 Alpha virt. eigenvalues --    6.38459   6.39068   6.39767   6.40162   6.41561
 Alpha virt. eigenvalues --    6.41931   6.42698   6.43737   6.44041   6.44530
 Alpha virt. eigenvalues --    6.45308   6.45695   6.47023   6.47628   6.48211
 Alpha virt. eigenvalues --    6.48484   6.49575   6.51141   6.51361   6.52103
 Alpha virt. eigenvalues --    6.52511   6.53552   6.54326   6.54600   6.55462
 Alpha virt. eigenvalues --    6.56390   6.56839   6.57794   6.58406   6.58835
 Alpha virt. eigenvalues --    6.59533   6.60388   6.61764   6.62496   6.62793
 Alpha virt. eigenvalues --    6.63813   6.64173   6.66044   6.66807   6.67400
 Alpha virt. eigenvalues --    6.68297   6.68705   6.69797   6.70798   6.71186
 Alpha virt. eigenvalues --    6.72825   6.73617   6.74590   6.74743   6.76134
 Alpha virt. eigenvalues --    6.77413   6.78339   6.80077   6.80546   6.81233
 Alpha virt. eigenvalues --    6.81639   6.82982   6.83563   6.84100   6.84882
 Alpha virt. eigenvalues --    6.86099   6.88030   6.90455   6.91086   6.92468
 Alpha virt. eigenvalues --    6.93597   6.94224   6.94920   6.95441   6.96627
 Alpha virt. eigenvalues --    6.97223   6.97907   6.98572   6.99013   7.00562
 Alpha virt. eigenvalues --    7.02198   7.02306   7.03133   7.04376   7.04618
 Alpha virt. eigenvalues --    7.05501   7.06401   7.06724   7.07385   7.08373
 Alpha virt. eigenvalues --    7.09429   7.10432   7.11239   7.12431   7.13593
 Alpha virt. eigenvalues --    7.13632   7.15238   7.16218   7.17900   7.18553
 Alpha virt. eigenvalues --    7.19111   7.21070   7.21955   7.22266   7.23575
 Alpha virt. eigenvalues --    7.24844   7.25514   7.26439   7.27186   7.27555
 Alpha virt. eigenvalues --    7.28170   7.28731   7.28924   7.30278   7.30934
 Alpha virt. eigenvalues --    7.31266   7.32394   7.33297   7.34747   7.35541
 Alpha virt. eigenvalues --    7.35746   7.36503   7.36956   7.37907   7.39048
 Alpha virt. eigenvalues --    7.39821   7.40658   7.41680   7.41925   7.42353
 Alpha virt. eigenvalues --    7.43551   7.44218   7.44663   7.45313   7.45646
 Alpha virt. eigenvalues --    7.46213   7.47369   7.48527   7.48613   7.49279
 Alpha virt. eigenvalues --    7.49924   7.50741   7.51634   7.52595   7.52819
 Alpha virt. eigenvalues --    7.54477   7.54903   7.55395   7.55579   7.57258
 Alpha virt. eigenvalues --    7.57987   7.58443   7.59140   7.59270   7.59957
 Alpha virt. eigenvalues --    7.61201   7.61730   7.61929   7.62257   7.63055
 Alpha virt. eigenvalues --    7.63689   7.64420   7.65103   7.65650   7.66547
 Alpha virt. eigenvalues --    7.67019   7.68012   7.68425   7.69287   7.70346
 Alpha virt. eigenvalues --    7.72175   7.72236   7.72931   7.74233   7.74308
 Alpha virt. eigenvalues --    7.75539   7.76150   7.76241   7.76695   7.77411
 Alpha virt. eigenvalues --    7.78483   7.78831   7.80411   7.80667   7.81598
 Alpha virt. eigenvalues --    7.81988   7.83060   7.83488   7.84506   7.85584
 Alpha virt. eigenvalues --    7.86365   7.86944   7.87342   7.87567   7.88272
 Alpha virt. eigenvalues --    7.88874   7.89795   7.90912   7.92243   7.92970
 Alpha virt. eigenvalues --    7.93608   7.94306   7.94755   7.95481   7.96009
 Alpha virt. eigenvalues --    7.96168   7.97160   7.98299   7.98908   7.99046
 Alpha virt. eigenvalues --    7.99687   8.00168   8.02072   8.02166   8.02629
 Alpha virt. eigenvalues --    8.04540   8.04736   8.05713   8.06251   8.07835
 Alpha virt. eigenvalues --    8.09287   8.10315   8.10675   8.11542   8.11962
 Alpha virt. eigenvalues --    8.12993   8.14058   8.14299   8.15590   8.15695
 Alpha virt. eigenvalues --    8.16840   8.17404   8.17730   8.18078   8.18898
 Alpha virt. eigenvalues --    8.19177   8.19631   8.20210   8.20663   8.20980
[...]
    21  H   -0.000178   0.001191   0.005651   0.061965  -0.002606   0.002650
    22  H    0.000330  -0.000195  -0.006619  -0.010642   0.005352   0.000245
    23  H    0.002984  -0.000773  -0.007457  -0.024225  -0.001314  -0.002212
    24  N    0.005725  -0.006733  -0.029949  -0.034125  -0.054110   0.496201
    25  C   -0.007200   0.004405  -0.034701  -0.004659  -0.008459  -0.219114
    26  H    0.001247  -0.003749  -0.071660  -0.009766  -0.023455   0.053631
    27  H   -0.001569   0.001394  -0.001498   0.001678  -0.006061  -0.078868
    28  H   -0.001509   0.000519   0.001136  -0.001729  -0.000283  -0.031321
    29  H   -0.001450  -0.000285   0.006563  -0.004377  -0.001860  -0.039863
    30  C    0.516159  -0.043202  -0.062672  -0.000486   0.005280  -0.040248
    31  C   -0.144714   0.111956   0.035047  -0.061109   0.022910  -0.022510
    32  O   -0.135290   0.044058   0.053430   0.063235   0.011433  -0.015384
    33  H    0.034750   0.007924  -0.006768  -0.001311   0.002479  -0.001256
    34  H   -0.039165   0.009885   0.002948  -0.011188   0.003856  -0.003737
    35  H   -0.026865  -0.000772   0.009702  -0.011494   0.000174   0.001569
               7          8          9         10         11         12
     1  N    0.109286   0.035771   0.053446  -0.014003   0.003963   0.000448
     2  H   -0.025412   0.000781  -0.041206   0.040100  -0.002520  -0.012776
     3  C   -0.170485  -0.166787  -0.103024  -0.010398  -0.030615  -0.040875
     4  H    0.014768  -0.009939  -0.075442  -0.019625   0.001234  -0.055468
     5  C    0.250361   0.207360  -0.409387  -0.006691  -0.054907   0.002096
     6  C   -0.028321  -0.063419   0.012271   0.461646   0.002379   0.019346
     7  H    0.504776   0.014985  -0.004995  -0.012077   0.001748   0.005794
     8  H    0.014985   0.671235  -0.002484  -0.011811   0.006537   0.020924
     9  C   -0.004995  -0.002484   7.263495   0.001394   0.309698   0.121352
    10  O   -0.012077  -0.011811   0.001394   8.163608  -0.000154   0.000218
    11  H    0.001748   0.006537   0.309698  -0.000154   0.472206   0.015161
    12  H    0.005794   0.020924   0.121352   0.000218   0.015161   0.570960
    13  C   -0.019674  -0.052573  -0.156116  -0.001240  -0.111603  -0.050932
    14  H   -0.001324   0.010671  -0.094771  -0.000065   0.015814   0.024217
    15  H    0.003014   0.015224  -0.140910   0.000021  -0.003682   0.049842
    16  N    0.004662  -0.004193  -0.011590  -0.000864  -0.009504  -0.011862
    17  H   -0.000921   0.009860  -0.074785   0.000265   0.003703   0.013269
    18  C    0.009961   0.002097   0.098538   0.001629   0.000272  -0.001998
    19  N   -0.000404  -0.001090  -0.014265   0.000107   0.000150   0.000505
    20  N   -0.000916  -0.000463   0.002216   0.000057   0.000087  -0.011081
    21  H    0.000019  -0.000892  -0.001566   0.000021  -0.000031  -0.002320
    22  H   -0.000013   0.000904  -0.023006  -0.000029  -0.000071   0.008976
    23  H    0.000272   0.000422   0.009453  -0.000080   0.000222   0.003448
    24  N    0.008115   0.036694   0.014536  -0.064573   0.000162   0.000296
    25  C   -0.005991  -0.004015  -0.003891  -0.027128   0.000161   0.000731
    26  H    0.001360  -0.006967  -0.004769   0.055391  -0.000734  -0.000249
    27  H   -0.000970  -0.003199  -0.001061  -0.002443  -0.000012   0.000078
    28  H   -0.000358  -0.001854  -0.000963  -0.008747   0.000005  -0.000007
    29  H   -0.000324  -0.000291  -0.000058  -0.007050   0.000009   0.000039
    30  C    0.019830   0.005084  -0.033243   0.000107  -0.000838  -0.039557
    31  C   -0.006446  -0.000338  -0.019784   0.000946  -0.001260  -0.003167
    32  O   -0.001934  -0.000285  -0.037567   0.001057  -0.001316   0.000740
    33  H    0.001691   0.000099   0.000089   0.000567  -0.000024  -0.000670
    34  H   -0.001951  -0.000065  -0.002712   0.000046  -0.000055  -0.000779
    35  H   -0.000435  -0.000016  -0.001582  -0.000618  -0.000052   0.000752
              13         14         15         16         17         18
     1  N    0.009454   0.003230   0.003651  -0.001005   0.002913   0.008171
     2  H   -0.008390  -0.000663  -0.000952   0.000805  -0.002893  -0.017917
     3  C   -0.043560  -0.016694  -0.008502   0.017262   0.044601  -0.039931
     4  H   -0.018464  -0.009245  -0.013627   0.013091  -0.104251  -0.033155
     5  C   -0.103908   0.000274   0.027220  -0.034914  -0.019292  -0.059683
     6  C   -0.002254  -0.004593  -0.001417  -0.010238  -0.012414  -0.038851
     7  H   -0.019674  -0.001324   0.003014   0.004662  -0.000921   0.009961
     8  H   -0.052573   0.010671   0.015224  -0.004193   0.009860   0.002097
     9  C   -0.156116  -0.094771  -0.140910  -0.011590  -0.074785   0.098538
    10  O   -0.001240  -0.000065   0.000021  -0.000864   0.000265   0.001629
    11  H   -0.111603   0.015814  -0.003682  -0.009504   0.003703   0.000272
    12  H   -0.050932   0.024217   0.049842  -0.011862   0.013269  -0.001998
    13  C    6.522584   0.324330   0.362862   0.121765   0.050173  -0.223485
    14  H    0.324330   0.555122  -0.001170  -0.091086   0.011623  -0.026165
    15  H    0.362862  -0.001170   0.599407  -0.117940   0.029169  -0.020834
    16  N    0.121765  -0.091086  -0.117940   7.491789   0.049644   0.432587
    17  H    0.050173   0.011623   0.029169   0.049644   0.621613  -0.159340
    18  C   -0.223485  -0.026165  -0.020834   0.432587  -0.159340   5.206606
    19  N    0.047180   0.000174  -0.000025  -0.027712   0.108567   0.411714
    20  N    0.003397  -0.003712  -0.017916  -0.097618   0.010542   0.527800
    21  H   -0.021234  -0.000112  -0.002265  -0.032356  -0.042670  -0.050559
    22  H    0.007596  -0.000395  -0.002844  -0.006710   0.005303  -0.023301
    23  H   -0.001935   0.000952   0.000750  -0.045360   0.012695  -0.019421
    24  N   -0.002430   0.001344   0.000336   0.003093  -0.017059   0.012393
    25  C    0.001417  -0.000232   0.000113   0.003399  -0.002305  -0.019258
    26  H    0.004390   0.000653  -0.000454   0.016108  -0.013014  -0.017094
    27  H    0.000340   0.000008  -0.000001  -0.000179  -0.001223  -0.003755
    28  H    0.000005  -0.000083  -0.000015   0.000722  -0.000797  -0.004064
    29  H    0.000024  -0.000005   0.000001   0.000128   0.000928  -0.000019
    30  C   -0.011087  -0.000774  -0.002841   0.001223  -0.008639  -0.010113
    31  C   -0.003088  -0.000123  -0.000310   0.000172  -0.000417  -0.002327
    32  O   -0.008012  -0.000360  -0.002182  -0.002534  -0.003537  -0.005925
    33  H   -0.000080   0.000004  -0.000001  -0.000012  -0.000007   0.000034
    34  H   -0.000353  -0.000020  -0.000056   0.000027  -0.000001  -0.000368
    35  H   -0.000084  -0.000002  -0.000004   0.000021   0.000005  -0.000020
              19         20         21         22         23         24
     1  N   -0.002093   0.000112  -0.000178   0.000330   0.002984   0.005725
     2  H   -0.000760   0.000522   0.001191  -0.000195  -0.000773  -0.006733
     3  C   -0.044910  -0.022942   0.005651  -0.006619  -0.007457  -0.029949
     4  H   -0.048582  -0.059259   0.061965  -0.010642  -0.024225  -0.034125
     5  C    0.001092   0.003165  -0.002606   0.005352  -0.001314  -0.054110
     6  C    0.010681   0.001071   0.002650   0.000245  -0.002212   0.496201
     7  H   -0.000404  -0.000916   0.000019  -0.000013   0.000272   0.008115
     8  H   -0.001090  -0.000463  -0.000892   0.000904   0.000422   0.036694
     9  C   -0.014265   0.002216  -0.001566  -0.023006   0.009453   0.014536
    10  O    0.000107   0.000057   0.000021  -0.000029  -0.000080  -0.064573
    11  H    0.000150   0.000087  -0.000031  -0.000071   0.000222   0.000162
    12  H    0.000505  -0.011081  -0.002320   0.008976   0.003448   0.000296
    13  C    0.047180   0.003397  -0.021234   0.007596  -0.001935  -0.002430
    14  H    0.000174  -0.003712  -0.000112  -0.000395   0.000952   0.001344
    15  H   -0.000025  -0.017916  -0.002265  -0.002844   0.000750   0.000336
    16  N   -0.027712  -0.097618  -0.032356  -0.006710  -0.045360   0.003093
    17  H    0.108567   0.010542  -0.042670   0.005303   0.012695  -0.017059
    18  C    0.411714   0.527800  -0.050559  -0.023301  -0.019421   0.012393
    19  N    7.255325  -0.064196   0.060602  -0.001355   0.020897  -0.106134
    20  N   -0.064196   6.824490  -0.022442   0.272413   0.260720   0.000505
    21  H    0.060602  -0.022442   0.521523  -0.016389   0.012151   0.022792
    22  H   -0.001355   0.272413  -0.016389   0.381655  -0.026109   0.000229
    23  H    0.020897   0.260720   0.012151  -0.026109   0.404815   0.000942
    24  N   -0.106134   0.000505   0.022792   0.000229   0.000942   6.633986
    25  C    0.003983   0.000615  -0.006521   0.000077  -0.000464   0.137095
    26  H    0.102008   0.000768  -0.000112  -0.001566  -0.010625   0.207303
    27  H   -0.000407   0.000064  -0.000011  -0.000005  -0.000032  -0.082550
    28  H   -0.001046   0.000067  -0.001061  -0.000002  -0.000045  -0.044965
    29  H    0.000018   0.000007  -0.001054   0.000003   0.000013  -0.064710
    30  C    0.001783  -0.003621   0.003575  -0.001296  -0.000673  -0.007463
    31  C   -0.000244  -0.000080   0.000429  -0.000111  -0.000508  -0.002914
    32  O   -0.005109   0.001500   0.002081  -0.001544  -0.004212   0.001607
    33  H   -0.000009  -0.000023   0.000016   0.000001   0.000009   0.000036
    34  H   -0.000041  -0.000039   0.000023  -0.000019  -0.000046  -0.000395
    35  H   -0.000038   0.000025  -0.000017  -0.000015  -0.000043  -0.000574
              25         26         27         28         29         30
     1  N   -0.007200   0.001247  -0.001569  -0.001509  -0.001450   0.516159
     2  H    0.004405  -0.003749   0.001394   0.000519  -0.000285  -0.043202
     3  C   -0.034701  -0.071660  -0.001498   0.001136   0.006563  -0.062672
     4  H   -0.004659  -0.009766   0.001678  -0.001729  -0.004377  -0.000486
     5  C   -0.008459  -0.023455  -0.006061  -0.000283  -0.001860   0.005280
     6  C   -0.219114   0.053631  -0.078868  -0.031321  -0.039863  -0.040248
     7  H   -0.005991   0.001360  -0.000970  -0.000358  -0.000324   0.019830
     8  H   -0.004015  -0.006967  -0.003199  -0.001854  -0.000291   0.005084
     9  C   -0.003891  -0.004769  -0.001061  -0.000963  -0.000058  -0.033243
    10  O   -0.027128   0.055391  -0.002443  -0.008747  -0.007050   0.000107
    11  H    0.000161  -0.000734  -0.000012   0.000005   0.000009  -0.000838
    12  H    0.000731  -0.000249   0.000078  -0.000007   0.000039  -0.039557
    13  C    0.001417   0.004390   0.000340   0.000005   0.000024  -0.011087
    14  H   -0.000232   0.000653   0.000008  -0.000083  -0.000005  -0.000774
    15  H    0.000113  -0.000454  -0.000001  -0.000015   0.000001  -0.002841
    16  N    0.003399   0.016108  -0.000179   0.000722   0.000128   0.001223
    17  H   -0.002305  -0.013014  -0.001223  -0.000797   0.000928  -0.008639
    18  C   -0.019258  -0.017094  -0.003755  -0.004064  -0.000019  -0.010113
    19  N    0.003983   0.102008  -0.000407  -0.001046   0.000018   0.001783
    20  N    0.000615   0.000768   0.000064   0.000067   0.000007  -0.003621
    21  H   -0.006521  -0.000112  -0.000011  -0.001061  -0.001054   0.003575
    22  H    0.000077  -0.001566  -0.000005  -0.000002   0.000003  -0.001296
    23  H   -0.000464  -0.010625  -0.000032  -0.000045   0.000013  -0.000673
    24  N    0.137095   0.207303  -0.082550  -0.044965  -0.064710  -0.007463
    25  C    5.785661  -0.156175   0.445972   0.421014   0.425679  -0.000883
    26  H   -0.156175   0.702400  -0.017992  -0.060118  -0.015325   0.007713
    27  H    0.445972  -0.017992   0.557312   0.025910   0.004678   0.000534
    28  H    0.421014  -0.060118   0.025910   0.479647   0.002073  -0.000211
    29  H    0.425679  -0.015325   0.004678   0.002073   0.455100  -0.000782
    30  C   -0.000883   0.007713   0.000534  -0.000211  -0.000782   4.653384
    31  C    0.000088   0.000798   0.000061   0.000006  -0.000041   0.178154
    32  O   -0.000538   0.000746  -0.000013  -0.000000  -0.000186   0.531477
    33  H   -0.000123   0.000147  -0.000005  -0.000005  -0.000019  -0.040918
    34  H    0.000046  -0.000058   0.000003   0.000001   0.000004  -0.057121
    35  H    0.000072  -0.000036   0.000008   0.000002   0.000018  -0.072190
              31         32         33         34         35
     1  N   -0.144714  -0.135290   0.034750  -0.039165  -0.026865
     2  H    0.111956   0.044058   0.007924   0.009885  -0.000772
     3  C    0.035047   0.053430  -0.006768   0.002948   0.009702
     4  H   -0.061109   0.063235  -0.001311  -0.011188  -0.011494
     5  C    0.022910   0.011433   0.002479   0.003856   0.000174
     6  C   -0.022510  -0.015384  -0.001256  -0.003737   0.001569
     7  H   -0.006446  -0.001934   0.001691  -0.001951  -0.000435
     8  H   -0.000338  -0.000285   0.000099  -0.000065  -0.000016
     9  C   -0.019784  -0.037567   0.000089  -0.002712  -0.001582
    10  O    0.000946   0.001057   0.000567   0.000046  -0.000618
    11  H   -0.001260  -0.001316  -0.000024  -0.000055  -0.000052
    12  H   -0.003167   0.000740  -0.000670  -0.000779   0.000752
    13  C   -0.003088  -0.008012  -0.000080  -0.000353  -0.000084
    14  H   -0.000123  -0.000360   0.000004  -0.000020  -0.000002
    15  H   -0.000310  -0.002182  -0.000001  -0.000056  -0.000004
    16  N    0.000172  -0.002534  -0.000012   0.000027   0.000021
    17  H   -0.000417  -0.003537  -0.000007  -0.000001   0.000005
    18  C   -0.002327  -0.005925   0.000034  -0.000368  -0.000020
    19  N   -0.000244  -0.005109  -0.000009  -0.000041  -0.000038
    20  N   -0.000080   0.001500  -0.000023  -0.000039   0.000025
    21  H    0.000429   0.002081   0.000016   0.000023  -0.000017
    22  H   -0.000111  -0.001544   0.000001  -0.000019  -0.000015
    23  H   -0.000508  -0.004212   0.000009  -0.000046  -0.000043
    24  N   -0.002914   0.001607   0.000036  -0.000395  -0.000574
    25  C    0.000088  -0.000538  -0.000123   0.000046   0.000072
    26  H    0.000798   0.000746   0.000147  -0.000058  -0.000036
    27  H    0.000061  -0.000013  -0.000005   0.000003   0.000008
    28  H    0.000006  -0.000000  -0.000005   0.000001   0.000002
    29  H   -0.000041  -0.000186  -0.000019   0.000004   0.000018
    30  C    0.178154   0.531477  -0.040918  -0.057121  -0.072190
    31  C    6.007060  -0.031061   0.374346   0.295224   0.301655
    32  O   -0.031061   8.076105  -0.001012  -0.011822  -0.019032
    33  H    0.374346  -0.001012   0.464821  -0.043172  -0.042571
    34  H    0.295224  -0.011822  -0.043172   0.495316   0.016157
    35  H    0.301655  -0.019032  -0.042571   0.016157   0.485467
 Mulliken charges:
               1
     1  N   -0.634850
     2  H    0.327955
     3  C   -0.265523
     4  H    0.515982
     5  C   -0.587635
     6  C    0.491561
     7  H    0.332309
     8  H    0.292032
     9  C   -0.627312
    10  O   -0.539583
    11  H    0.383864
    12  H    0.372550
    13  C   -0.615013
    14  H    0.303179
    15  H    0.246340
    16  N   -0.650821
    17  H    0.488692
    18  C    0.065780
    19  N   -0.706366
    20  N   -0.605837
    21  H    0.509706
    22  H    0.439151
    23  H    0.414789
    24  N   -0.064706
    25  C   -0.728870
    26  H    0.259256
    27  H    0.163814
    28  H    0.228075
    29  H    0.242413
    30  C    0.514556
    31  C   -1.028303
    32  O   -0.498613
    33  H    0.250974
    34  H    0.349624
    35  H    0.360832
 Sum of Mulliken charges =  -0.00000
 Mulliken charges with hydrogens summed into heavy atoms:
               1
     1  N   -0.306895
     3  C    0.250460
     5  C    0.036706
     6  C    0.491561
     9  C    0.129101
    10  O   -0.539583
    13  C   -0.065494
    16  N   -0.162129
    18  C    0.065780
    19  N   -0.196660
    20  N    0.248103
    24  N    0.194551
    25  C   -0.094568
    30  C    0.514556
    31  C   -0.066874
    32  O   -0.498613
 Electronic spatial extent (au):  <R**2>=           3811.3837
 Charge=             -0.0000 electrons
 Dipole moment (field-independent basis, Debye):
    X=             -2.7752    Y=             -1.7900    Z=              0.3743  Tot=              3.3235
 Quadrupole moment (field-independent basis, Debye-Ang):
   XX=            -92.0773   YY=            -98.6801   ZZ=            -92.9683
   XY=             -1.3973   XZ=             -2.4718   YZ=             -2.9403
 Traceless Quadrupole moment (field-independent basis, Debye-Ang):
   XX=              2.4980   YY=             -4.1049   ZZ=              1.6069
   XY=             -1.3973   XZ=             -2.4718   YZ=             -2.9403
 Octapole moment (field-independent basis, Debye-Ang**2):
  XXX=              6.4272  YYY=             16.3285  ZZZ=            -15.6851  XYY=            -24.0380
  XXY=            -61.2523  XXZ=             -9.2432  XZZ=            -13.5260  YZZ=             -7.6918
  YYZ=             -6.8871  XYZ=            -19.7371
 Hexadecapole moment (field-independent basis, Debye-Ang**3):
 XXXX=          -2194.7638 YYYY=          -1885.2585 ZZZZ=           -762.2420 XXXY=             -0.1889
 XXXZ=            -15.4053 YYYX=              2.7493 YYYZ=            -28.8572 ZZZX=             24.7880
 ZZZY=             24.7544 XXYY=           -664.1710 XXZZ=           -486.3509 YYZZ=           -466.7396
 XXYZ=             25.3304 YYXZ=             -3.7992 ZZXY=             27.8896
 N-N= 1.228093745134D+03 E-N=-4.273725140798D+03  KE= 7.755398295229D+02
 No NMR shielding tensors so no spin-rotation constants.
 Leave Link  601 at Tue Apr 20 21:50:57 2021, MaxMem= 12079595520 cpu:            1891.6 elap:              40.8
 (Enter /s/ls4/groups/g0130/bin/g16/l9999.exe)

 Test job not archived.
 1\1\GINC-N060\Stability\RM062X\Gen\C9H19N5O2\ROOT\20-Apr-2021\0\\#P M0
 62X/GEN Integral=UltraFineGrid SCF=NoSymm Stable=(RExt, Opt) IOp(1/33=
 1)\\Database calculations.\\0,1\N,0,1.931471591,-0.1140293291,0.108893
 0074\H,0,2.6642617842,0.298315096,0.6672281375\C,0,0.5862808287,0.2078
 810856,0.5272271638\H,0,-0.033938368,0.195872467,-0.3647953925\C,0,0.0
 598627235,-0.810423447,1.5516577886\C,0,0.5895026089,1.5992369557,1.13
 34749687\H,0,0.8898628557,-1.068145945,2.2094361009\H,0,-0.6965116638,
 -0.3340326382,2.1815179366\C,0,-0.5271070694,-2.0558175273,0.878142733
 1\O,0,1.5352010058,2.0005411615,1.8131817641\H,0,-0.2635766905,-2.9587
 278409,1.4319116601\H,0,-0.1106247176,-2.1579731795,-0.1249758345\C,0,
 -2.0554325608,-2.0007419183,0.8033358872\H,0,-2.4704662087,-2.11206182
 31,1.8054288467\H,0,-2.430996936,-2.8439762444,0.2233695083\N,0,-2.618
 3242047,-0.7604376757,0.2777232962\H,0,-2.6446907117,0.0066484525,0.93
 26861503\C,0,-2.3284796047,-0.2981343656,-0.9859211995\N,0,-2.18226089
 72,0.9742203524,-1.16950743\N,0,-2.1837653306,-1.2844086438,-1.9274069
 987\H,0,-2.0951864725,1.1841089348,-2.1592254393\H,0,-2.7434635228,-2.
 1129738995,-1.8333683717\H,0,-1.9883299779,-0.991282623,-2.8672316357\
 N,0,-0.5432885106,2.2928326932,0.9111794736\C,0,-0.6971243789,3.627905
 4963,1.4486886557\H,0,-1.1849363234,1.949575868,0.1900925161\H,0,-0.41
 92859732,3.634640519,2.499609565\H,0,-1.7355088357,3.9294098857,1.3462
 023007\H,0,-0.062926823,4.3476704813,0.9308549116\C,0,2.208245818,-0.5
 859120926,-1.1346811661\C,0,3.6774108494,-0.6628114395,-1.4763981025\O
 ,0,1.3383858328,-0.9333902505,-1.9289540271\H,0,4.3234707772,-0.500332
 3751,-0.617358392\H,0,3.8830138505,-1.6380183134,-1.9088620004\H,0,3.8
 95422256,0.0884951227,-2.2330493821\\Version=ES64L-G16RevA.03\State=1-
 A\HF=-778.7068302\RMSD=2.593e-09\Dipole=-0.8491436,-0.948472,-0.298530
 4\Quadrupole=1.8100376,0.2849106,-2.0949482,0.7348517,-1.0217842,-3.29
 74578\PG=C01 [X(C9H19N5O2)]\\@


0EVERYBODY IS IGNORANT, ONLY ON DIFFERENT SUBJECTS.
0          WILL ROGERS
 Job cpu time:      22 days 11 hours 52 minutes  0.1 seconds.
 Elapsed time:       0 days 11 hours 14 minutes 42.2 seconds.
 File lengths (MBytes):  RWF=   4787 Int=      0 D2E=      0 Chk=    297 Scr=      1
 Normal termination of Gaussian 16 at Tue Apr 20 21:50:57 2021.
