 Entering Gaussian System, Link 0=/s/ls4/users/knvvv/bin/g16sse/g16
 Input=data/database/M062X--MG3S--MN_21_ch3fclts_BH76.gjf
 Output=data/database/M062X--MG3S--MN_21_ch3fclts_BH76.log
 Initial command:
 /s/ls4/users/knvvv/bin/g16sse/l1.exe "/s/ls4/users/knvvv/bin/scratch/Gau-25046.inp" -scrdir="/s/ls4/users/knvvv/bin/scratch/"
 Entering Link 1 = /s/ls4/users/knvvv/bin/g16sse/l1.exe PID=     25047.
  
 Copyright (c) 1988,1990,1992,1993,1995,1998,2003,2009,2016,
            Gaussian, Inc.  All Rights Reserved.
  
 This is part of the Gaussian(R) 16 program.  It is based on
 the Gaussian(R) 09 system (copyright 2009, Gaussian, Inc.),
 the Gaussian(R) 03 system (copyright 2003, Gaussian, Inc.),
 the Gaussian(R) 98 system (copyright 1998, Gaussian, Inc.),
 the Gaussian(R) 94 system (copyright 1995, Gaussian, Inc.),
 the Gaussian 92(TM) system (copyright 1992, Gaussian, Inc.),
 the Gaussian 90(TM) system (copyright 1990, Gaussian, Inc.),
 the Gaussian 88(TM) system (copyright 1988, Gaussian, Inc.),
 the Gaussian 86(TM) system (copyright 1986, Carnegie Mellon
 University), and the Gaussian 82(TM) system (copyright 1983,
 Carnegie Mellon University). Gaussian is a federally registered
 trademark of Gaussian, Inc.
  
 This software contains proprietary and confidential information,
 including trade secrets, belonging to Gaussian, Inc.
  
 This software is provided under written license and may be
 used, copied, transmitted, or stored only in accord with that
 written license.
  
 The following legend is applicable only to US Government
 contracts under FAR:
  
                    RESTRICTED RIGHTS LEGEND
  
 Use, reproduction and disclosure by the US Government is
 subject to restrictions as set forth in subparagraphs (a)
 and (c) of the Commercial Computer Software - Restricted
 Rights clause in FAR 52.227-19.
  
 Gaussian, Inc.
 340 Quinnipiac St., Bldg. 40, Wallingford CT 06492
  
  
 ---------------------------------------------------------------
 Warning -- This program may not be used in any manner that
 competes with the business of Gaussian, Inc. or will provide
 assistance to any competitor of Gaussian, Inc.  The licensee
 of this program is prohibited from giving any competitor of
 Gaussian, Inc. access to this program.  By using this program,
 the user acknowledges that Gaussian, Inc. is engaged in the
 business of creating and licensing software in the field of
 computational chemistry and represents and warrants to the
 licensee that it is not a competitor of Gaussian, Inc. and that
 it will not use this program in any manner prohibited above.
 ---------------------------------------------------------------
  

 Cite this work as:
 Gaussian 16, Revision A.03,
 M. J. Frisch, G. W. Trucks, H. B. Schlegel, G. E. Scuseria, 
 M. A. Robb, J. R. Cheeseman, G. Scalmani, V. Barone, 
 G. A. Petersson, H. Nakatsuji, X. Li, M. Caricato, A. V. Marenich, 
 J. Bloino, B. G. Janesko, R. Gomperts, B. Mennucci, H. P. Hratchian, 
 J. V. Ortiz, A. F. Izmaylov, J. L. Sonnenberg, D. Williams-Young, 
 F. Ding, F. Lipparini, F. Egidi, J. Goings, B. Peng, A. Petrone, 
 T. Henderson, D. Ranasinghe, V. G. Zakrzewski, J. Gao, N. Rega, 
 G. Zheng, W. Liang, M. Hada, M. Ehara, K. Toyota, R. Fukuda, 
 J. Hasegawa, M. Ishida, T. Nakajima, Y. Honda, O. Kitao, H. Nakai, 
 T. Vreven, K. Throssell, J. A. Montgomery, Jr., J. E. Peralta, 
 F. Ogliaro, M. J. Bearpark, J. J. Heyd, E. N. Brothers, K. N. Kudin, 
 V. N. Staroverov, T. A. Keith, R. Kobayashi, J. Normand, 
 K. Raghavachari, A. P. Rendell, J. C. Burant, S. S. Iyengar, 
 J. Tomasi, M. Cossi, J. M. Millam, M. Klene, C. Adamo, R. Cammi, 
 J. W. Ochterski, R. L. Martin, K. Morokuma, O. Farkas, 
 J. B. Foresman, and D. J. Fox, Gaussian, Inc., Wallingford CT, 2016.
 
 ******************************************
 Gaussian 16:  ES64L-G16RevA.03 25-Dec-2016
                18-Apr-2021 
 ******************************************
 %RWF=temp12_97007,70GB
 %nprocshared=48
 Will use up to   48 processors via shared memory.
 Default route: MaxDisk=80GB
 ----------------------------------------------------------------------
 #P M062X/GEN Integral=UltraFineGrid SCF=NoSymm Stable=(RExt, Opt) IOp(
 1/33=1)
 ----------------------------------------------------------------------
 1/33=1,38=1,172=1/1;
 2/12=2,17=6,18=5,40=1/2;
 3/5=7,11=2,25=1,30=1,74=-55,75=-5/1,2,3;
 4/9=2/1;
 5/5=2,38=5/2;
 6/7=2,8=2,9=2,10=2,28=1/1;
 8/6=1,10=90,11=11/1;
 9/8=-3,42=1,46=1/14;
 5/5=2,8=3,17=40,38=5/8(-2);
 6/7=2,8=2,9=2,10=2,28=1/1;
 99/5=1,9=1/99;
 Leave Link    1 at Sun Apr 18 10:03:00 2021, MaxMem=           0 cpu:               8.4 elap:               0.2
 (Enter /s/ls4/users/knvvv/bin/g16sse/l101.exe)
 ONIOM data not found on unit 2.
 ----------------------
 Database calculations.
 ----------------------
 TstMul:  ICh=     0
 TstMul:  Mul=     2
 TstMul:  ICh=     0
 TstMul:  Mul=     2
 Symbolic Z-matrix:
 Charge =  0 Multiplicity = 2
 Cl                    1.45475  -0.00124  -0.00004 
 F                    -0.32359   0.00463   0.00012 
 C                    -2.38742  -0.00215  -0.00007 
 H                    -2.49509  -0.85536  -0.64941 
 H                    -2.49731  -0.13867   1.06314 
 H                    -2.50154   0.98627  -0.41373 
 
 RdStrC is calling ZToCFu for IStruc=1 NZ=     6.
 PrtBox:  NBox=     1 Levels=  1 BoxLen=    8.00 SMaxX=        7.48
          Shift=            4.727220            1.616400            1.227200
 Box      1 Number                   0 centers from      1 to      6:
 After GenITR:
 ITRead=  0  0  0  0  0  0
 MicOpt= -1 -1 -1 -1 -1 -1
 ITRead=  0  0  0  0  0  0
 MicOpt= -1 -1 -1 -1 -1 -1
 NAtoms=      6 NQM=        6 NQMF=       0 NMMI=      0 NMMIF=      0
                NMic=       0 NMicF=      0.
                    Isotopes and Nuclear Properties:
 (Nuclear quadrupole moments (NQMom) in fm**2, nuclear magnetic moments (NMagM)
  in nuclear magnetons)

  Atom         1           2           3           4           5           6
 IAtWgt=          35          19          12           1           1           1
 AtmWgt=  34.9688527  18.9984033  12.0000000   1.0078250   1.0078250   1.0078250
 NucSpn=           3           1           0           1           1           1
 AtZEff=  -0.0000000  -0.0000000  -0.0000000  -0.0000000  -0.0000000  -0.0000000
 NQMom=   -8.1650000   0.0000000   0.0000000   0.0000000   0.0000000   0.0000000
 NMagM=    0.8218740   2.6288670   0.0000000   2.7928460   2.7928460   2.7928460
 AtZNuc=  17.0000000   9.0000000   6.0000000   1.0000000   1.0000000   1.0000000
 No MM parameters found.
 Leave Link  101 at Sun Apr 18 10:03:00 2021, MaxMem=   104857600 cpu:               8.7 elap:               0.2
 (Enter /s/ls4/users/knvvv/bin/g16sse/l202.exe)
                          Input orientation:                          
 ---------------------------------------------------------------------
 Center     Atomic      Atomic             Coordinates (Angstroms)
 Number     Number       Type             X           Y           Z
 ---------------------------------------------------------------------
      1         17           0        1.454750   -0.001237   -0.000040
      2          9           0       -0.323587    0.004631    0.000124
      3          6           0       -2.387420   -0.002147   -0.000073
      4          1           0       -2.495086   -0.855362   -0.649406
      5          1           0       -2.497314   -0.138673    1.063138
      6          1           0       -2.501537    0.986270   -0.413734
 ---------------------------------------------------------------------
                    Distance matrix (angstroms):
                    1          2          3          4          5
     1  Cl   0.000000
     2  F    1.778347   0.000000
     3  C    3.842171   2.063844   0.000000
     4  H    4.092972   2.424229   1.077591   0.000000
     5  H    4.094881   2.423969   1.077559   1.856463   0.000000
     6  H    4.098600   2.424533   1.077546   1.856661   1.856520
                    6
     6  H    0.000000
 Stoichiometry    CH3ClF(2)
 Framework group  C1[X(CH3ClF)]
 Deg. of freedom    12
 Full point group                 C1      NOp   1
 Largest Abelian subgroup         C1      NOp   1
 Largest concise Abelian subgroup C1      NOp   1
                         Standard orientation:                         
 ---------------------------------------------------------------------
 Center     Atomic      Atomic             Coordinates (Angstroms)
 Number     Number       Type             X           Y           Z
 ---------------------------------------------------------------------
      1         17           0        1.454750   -0.001237   -0.000035
      2          9           0       -0.323588    0.004631    0.000108
      3          6           0       -2.387420   -0.002147   -0.000065
      4          1           0       -2.495087   -0.857681   -0.646340
      5          1           0       -2.497315   -0.134867    1.063628
      6          1           0       -2.501538    0.984782   -0.417262
 ---------------------------------------------------------------------
 Rotational constants (GHZ):         145.4640404           3.0826808           3.0826629
 Leave Link  202 at Sun Apr 18 10:03:01 2021, MaxMem=   104857600 cpu:               5.4 elap:               0.1
 (Enter /s/ls4/users/knvvv/bin/g16sse/l301.exe)
 General basis read from cards:  (5D, 7F)
 Centers:       4      5      6
 S 3 1.00
     Exponent=  3.3865000000D+01 Coefficients=  2.5493800000D-02
     Exponent=  5.0947900000D+00 Coefficients=  1.9037300000D-01
     Exponent=  1.1587900000D+00 Coefficients=  8.5216100000D-01
 S 1 1.00
     Exponent=  3.2584000000D-01 Coefficients=  1.0000000000D+00
 S 1 1.00
     Exponent=  1.0274100000D-01 Coefficients=  1.0000000000D+00
 P 1 1.00
     Exponent=  1.5000000000D+00 Coefficients=  1.0000000000D+00
 P 1 1.00
     Exponent=  3.7500000000D-01 Coefficients=  1.0000000000D+00
 ****
 Centers:       3
 S 6 1.00
     Exponent=  4.5632400000D+03 Coefficients=  1.9666500000D-03
     Exponent=  6.8202400000D+02 Coefficients=  1.5230600000D-02
     Exponent=  1.5497300000D+02 Coefficients=  7.6126900000D-02
     Exponent=  4.4455300000D+01 Coefficients=  2.6080100000D-01
     Exponent=  1.3029000000D+01 Coefficients=  6.1646200000D-01
     Exponent=  1.8277300000D+00 Coefficients=  2.2100600000D-01
 S 3 1.00
     Exponent=  2.0964200000D+01 Coefficients=  1.1466000000D-01
     Exponent=  4.8033100000D+00 Coefficients=  9.1999900000D-01
     Exponent=  1.4593300000D+00 Coefficients= -3.0306800000D-03
 S 1 1.00
     Exponent=  4.8345600000D-01 Coefficients=  1.0000000000D+00
 S 1 1.00
     Exponent=  1.4558500000D-01 Coefficients=  1.0000000000D+00
 S 1 1.00
     Exponent=  4.3800000000D-02 Coefficients=  1.0000000000D+00
 P 3 1.00
     Exponent=  2.0964200000D+01 Coefficients=  4.0248700000D-02
     Exponent=  4.8033100000D+00 Coefficients=  2.3759400000D-01
     Exponent=  1.4593300000D+00 Coefficients=  8.1585400000D-01
 P 1 1.00
     Exponent=  4.8345600000D-01 Coefficients=  1.0000000000D+00
 P 1 1.00
     Exponent=  1.4558500000D-01 Coefficients=  1.0000000000D+00
 P 1 1.00
     Exponent=  4.3800000000D-02 Coefficients=  1.0000000000D+00
 D 1 1.00
     Exponent=  1.2520000000D+00 Coefficients=  1.0000000000D+00
 D 1 1.00
     Exponent=  3.1300000000D-01 Coefficients=  1.0000000000D+00
 F 1 1.00
     Exponent=  8.0000000000D-01 Coefficients=  1.0000000000D+00
 ****
 Centers:       2
 S 6 1.00
     Exponent=  1.1427100000D+04 Coefficients=  1.8009300000D-03
     Exponent=  1.7223500000D+03 Coefficients=  1.3741900000D-02
     Exponent=  3.9574600000D+02 Coefficients=  6.8133400000D-02
     Exponent=  1.1513900000D+02 Coefficients=  2.3332500000D-01
     Exponent=  3.3602600000D+01 Coefficients=  5.8908600000D-01
     Exponent=  4.9190100000D+00 Coefficients=  2.9950500000D-01
 S 3 1.00
     Exponent=  5.5444100000D+01 Coefficients=  1.1453600000D-01
     Exponent=  1.2632300000D+01 Coefficients=  9.2051200000D-01
     Exponent=  3.7175600000D+00 Coefficients= -3.3780400000D-03
 S 1 1.00
     Exponent=  1.1654500000D+00 Coefficients=  1.0000000000D+00
 S 1 1.00
     Exponent=  3.2189200000D-01 Coefficients=  1.0000000000D+00
 S 1 1.00
     Exponent=  1.0760000000D-01 Coefficients=  1.0000000000D+00
 P 3 1.00
     Exponent=  5.5444100000D+01 Coefficients=  3.5460900000D-02
     Exponent=  1.2632300000D+01 Coefficients=  2.3745100000D-01
     Exponent=  3.7175600000D+00 Coefficients=  8.2045800000D-01
 P 1 1.00
     Exponent=  1.1654500000D+00 Coefficients=  1.0000000000D+00
 P 1 1.00
     Exponent=  3.2189200000D-01 Coefficients=  1.0000000000D+00
 P 1 1.00
     Exponent=  1.0760000000D-01 Coefficients=  1.0000000000D+00
 D 1 1.00
     Exponent=  3.5000000000D+00 Coefficients=  1.0000000000D+00
 D 1 1.00
     Exponent=  8.7500000000D-01 Coefficients=  1.0000000000D+00
 F 1 1.00
     Exponent=  1.8500000000D+00 Coefficients=  1.0000000000D+00
 ****
 Centers:       1
 S 6 1.00
     Exponent=  1.0581900000D+05 Coefficients=  7.4236270000D-04
     Exponent=  1.5872000000D+04 Coefficients=  5.7473180000D-03
     Exponent=  3.6196500000D+03 Coefficients=  2.9648760000D-02
     Exponent=  1.0308000000D+03 Coefficients=  1.1789980000D-01
     Exponent=  3.3990000000D+02 Coefficients=  3.6485320000D-01
     Exponent=  1.2453000000D+02 Coefficients=  5.8169680000D-01
 S 3 1.00
     Exponent=  1.2453000000D+02 Coefficients=  1.3704430000D-01
     Exponent=  4.9510000000D+01 Coefficients=  6.2313800000D-01
     Exponent=  2.0800000000D+01 Coefficients=  2.9032790000D-01
 S 1 1.00
     Exponent=  6.4600000000D+00 Coefficients=  1.0000000000D+00
 S 1 1.00
     Exponent=  2.5200000000D+00 Coefficients=  1.0000000000D+00
 S 1 1.00
     Exponent=  5.3000000000D-01 Coefficients=  1.0000000000D+00
 S 1 1.00
     Exponent=  1.9000000000D-01 Coefficients=  1.0000000000D+00
 S 1 1.00
     Exponent=  4.8300000000D-02 Coefficients=  1.0000000000D+00
 P 4 1.00
     Exponent=  5.8978000000D+02 Coefficients=  7.8733320000D-03
     Exponent=  1.3985000000D+02 Coefficients=  6.1554600000D-02
     Exponent=  4.4790000000D+01 Coefficients=  2.7425140000D-01
     Exponent=  1.6610000000D+01 Coefficients=  7.4989940000D-01
 P 2 1.00
     Exponent=  6.5900000000D+00 Coefficients=  6.1476400000D-01
     Exponent=  2.7100000000D+00 Coefficients=  4.4134160000D-01
 P 1 1.00
     Exponent=  9.5000000000D-01 Coefficients=  1.0000000000D+00
 P 1 1.00
     Exponent=  3.5000000000D-01 Coefficients=  1.0000000000D+00
 P 1 1.00
     Exponent=  1.2000000000D-01 Coefficients=  1.0000000000D+00
 P 1 1.00
     Exponent=  4.8300000000D-02 Coefficients=  1.0000000000D+00
 D 1 1.00
     Exponent=  3.0000000000D+00 Coefficients=  1.0000000000D+00
 D 1 1.00
     Exponent=  7.5000000000D-01 Coefficients=  1.0000000000D+00
 D 1 1.00
     Exponent=  1.8750000000D-01 Coefficients=  1.0000000000D+00
 F 1 1.00
     Exponent=  1.4000000000D+00 Coefficients=  1.0000000000D+00
 F 1 1.00
     Exponent=  3.5000000000D-01 Coefficients=  1.0000000000D+00
 ****
 Ernie: Thresh=  0.10000D-02 Tol=  0.10000D-05 Strict=F.
 There are   168 symmetry adapted cartesian basis functions of A   symmetry.
 There are   149 symmetry adapted basis functions of A   symmetry.
   149 basis functions,   219 primitive gaussians,   168 cartesian basis functions
    18 alpha electrons       17 beta electrons
       nuclear repulsion energy        95.5999177823 Hartrees.
 IExCor= 4336 DFT=T Ex+Corr=M062X ExCW=0 ScaHFX=  0.540000
 ScaDFX=  1.000000  1.000000  1.000000  1.000000 ScalE2=  1.000000  1.000000
 IRadAn=      5 IRanWt=     -1 IRanGd=            0 ICorTp=0 IEmpDi=  4
 NAtoms=    6 NActive=    6 NUniq=    6 SFac= 1.00D+00 NAtFMM=   60 NAOKFM=F Big=F
 Integral buffers will be    131072 words long.
 Raffenetti 2 integral format.
 Two-electron integral symmetry is turned on.
 Leave Link  301 at Sun Apr 18 10:03:01 2021, MaxMem=   104857600 cpu:               8.2 elap:               0.2
 (Enter /s/ls4/users/knvvv/bin/g16sse/l302.exe)
 NPDir=0 NMtPBC=     1 NCelOv=     1 NCel=       1 NClECP=     1 NCelD=      1
         NCelK=      1 NCelE2=     1 NClLst=     1 CellRange=     0.0.
 One-electron integrals computed using PRISM.
 One-electron integral symmetry used in STVInt
 PrsmSu:  requested number of processors reduced to:  13 ShMem   1 Linda.
 NBasis=   149 RedAO= T EigKep=  1.90D-03  NBF=   149
 NBsUse=   149 1.00D-06 EigRej= -1.00D+00 NBFU=   149
 Precomputing XC quadrature grid using
 IXCGrd= 4 IRadAn=           5 IRanWt=          -1 IRanGd=           0 AccXCQ= 0.00D+00.
 Generated NRdTot=       0 NPtTot=           0 NUsed=           0 NTot=          32
 NSgBfM=   168   168   168   168   168 MxSgAt=     6 MxSgA2=     6.
 Leave Link  302 at Sun Apr 18 10:03:03 2021, MaxMem=   104857600 cpu:              87.6 elap:               1.9
 (Enter /s/ls4/users/knvvv/bin/g16sse/l303.exe)
 DipDrv:  MaxL=1.
 Leave Link  303 at Sun Apr 18 10:03:03 2021, MaxMem=   104857600 cpu:              13.8 elap:               0.3
 (Enter /s/ls4/users/knvvv/bin/g16sse/l401.exe)
 SCF N**3 symmetry information disabled.
 ExpMin= 4.38D-02 ExpMax= 1.06D+05 ExpMxC= 3.62D+03 IAcc=3 IRadAn=         5 AccDes= 0.00D+00
 Harris functional with IExCor= 1009 and IRadAn=       5 diagonalized for initial guess.
 HarFok:  IExCor= 1009 AccDes= 0.00D+00 IRadAn=         5 IDoV= 1 UseB2=F ITyADJ=14
 ICtDFT=  3500011 ScaDFX=  1.000000  1.000000  1.000000  1.000000
 FoFCou: FMM=F IPFlag=           0 FMFlag=      100000 FMFlg1=           0
         NFxFlg=           0 DoJE=T BraDBF=F KetDBF=T FulRan=T
         wScrn=  0.000000 ICntrl=       500 IOpCl=  0 I1Cent=   200000004 NGrid=           0
         NMat0=    1 NMatS0=      1 NMatT0=    0 NMatD0=    1 NMtDS0=    0 NMtDT0=    0
 Petite list used in FoFCou.
 Harris En= -599.486500435189    
 JPrj=0 DoOrth=F DoCkMO=F.
 Initial guess <Sx>= 0.0000 <Sy>= 0.0000 <Sz>= 0.5000 <S**2>= 0.7500 S= 0.5000
 Leave Link  401 at Sun Apr 18 10:03:04 2021, MaxMem=   104857600 cpu:              28.5 elap:               0.6
 (Enter /s/ls4/users/knvvv/bin/g16sse/l502.exe)
 Integral symmetry usage will be decided dynamically.
 UHF open shell SCF:
 Using DIIS extrapolation, IDIIS=  1040.
 NGot=   104857600 LenX=   104791528 LenY=   104762863
 Requested convergence on RMS density matrix=1.00D-08 within 128 cycles.
 Requested convergence on MAX density matrix=1.00D-06.
 Requested convergence on             energy=1.00D-06.
 No special actions if energy rises.
 Fock matrices will be formed incrementally for  20 cycles.

 Cycle   1  Pass 1  IDiag  1:
 FoFJK:  IHMeth= 1 ICntrl=       0 DoSepK=F KAlg= 0 I1Cent=           0 FoldK=F
 IRaf= 960000000 NMat=       1 IRICut=       1 DoRegI=T DoRafI=F ISym2E= 0 IDoP0=0 IntGTp=1.
 FoFCou: FMM=F IPFlag=           0 FMFlag=      100000 FMFlg1=           0
         NFxFlg=           0 DoJE=F BraDBF=F KetDBF=F FulRan=T
         wScrn=  0.000000 ICntrl=         0 IOpCl=  1 I1Cent=           0 NGrid=           0
         NMat0=    1 NMatS0=      1 NMatT0=    0 NMatD0=    1 NMtDS0=    0 NMtDT0=    0
 Symmetry not used in FoFCou.
 CoulSu:  requested number of processors reduced to:  46 ShMem   1 Linda.
 E= -599.673828168914    
 DIIS: error= 2.97D-02 at cycle   1 NSaved=   1.
 NSaved= 1 IEnMin= 1 EnMin= -599.673828168914     IErMin= 1 ErrMin= 2.97D-02
 ErrMax= 2.97D-02  0.00D+00 EMaxC= 1.00D-01 BMatC= 6.22D-01 BMatP= 6.22D-01
 IDIUse=3 WtCom= 7.03D-01 WtEn= 2.97D-01
 Coeff-Com:  0.100D+01
 Coeff-En:   0.100D+01
 Coeff:      0.100D+01
 Gap=     0.074 Goal=   None    Shift=    0.000
 Gap=     0.514 Goal=   None    Shift=    0.000
 GapD=    0.074 DampG=0.500 DampE=0.500 DampFc=0.2500 IDamp=-1.
 Damping current iteration by 2.50D-01
 RMSDP=3.53D-03 MaxDP=1.77D-01              OVMax= 5.28D-01

 Cycle   2  Pass 1  IDiag  1:
 RMSU=  8.81D-04    CP:  1.00D+00
 CoulSu:  requested number of processors reduced to:  46 ShMem   1 Linda.
 E= -599.710007411917     Delta-E=       -0.036179243003 Rises=F Damp=T
 DIIS: error= 1.63D-02 at cycle   2 NSaved=   2.
 NSaved= 2 IEnMin= 2 EnMin= -599.710007411917     IErMin= 2 ErrMin= 1.63D-02
 ErrMax= 1.63D-02  0.00D+00 EMaxC= 1.00D-01 BMatC= 2.01D-01 BMatP= 6.22D-01
 IDIUse=3 WtCom= 8.37D-01 WtEn= 1.63D-01
 Coeff-Com: -0.982D+00 0.198D+01
 Coeff-En:   0.000D+00 0.100D+01
 Coeff:     -0.822D+00 0.182D+01
 Gap=     0.154 Goal=   None    Shift=    0.000
 Gap=     0.428 Goal=   None    Shift=    0.000
 RMSDP=9.03D-04 MaxDP=2.62D-02 DE=-3.62D-02 OVMax= 3.69D-01

 Cycle   3  Pass 1  IDiag  1:
 RMSU=  7.96D-04    CP:  1.00D+00  1.48D+00
 CoulSu:  requested number of processors reduced to:  46 ShMem   1 Linda.
 E= -599.772132290343     Delta-E=       -0.062124878426 Rises=F Damp=F
 DIIS: error= 3.99D-03 at cycle   3 NSaved=   3.
 NSaved= 3 IEnMin= 3 EnMin= -599.772132290343     IErMin= 3 ErrMin= 3.99D-03
 ErrMax= 3.99D-03  0.00D+00 EMaxC= 1.00D-01 BMatC= 7.13D-03 BMatP= 2.01D-01
 IDIUse=3 WtCom= 9.60D-01 WtEn= 3.99D-02
 Coeff-Com: -0.268D+00 0.408D+00 0.861D+00
 Coeff-En:   0.000D+00 0.000D+00 0.100D+01
 Coeff:     -0.257D+00 0.391D+00 0.866D+00
 Gap=     0.199 Goal=   None    Shift=    0.000
 Gap=     0.275 Goal=   None    Shift=    0.000
 RMSDP=2.87D-04 MaxDP=1.62D-02 DE=-6.21D-02 OVMax= 3.76D-02

 Cycle   4  Pass 1  IDiag  1:
 RMSU=  1.93D-04    CP:  1.00D+00  1.72D+00  1.03D+00
 CoulSu:  requested number of processors reduced to:  46 ShMem   1 Linda.
 E= -599.774320230572     Delta-E=       -0.002187940230 Rises=F Damp=F
 DIIS: error= 1.97D-03 at cycle   4 NSaved=   4.
 NSaved= 4 IEnMin= 4 EnMin= -599.774320230572     IErMin= 4 ErrMin= 1.97D-03
 ErrMax= 1.97D-03  0.00D+00 EMaxC= 1.00D-01 BMatC= 1.90D-03 BMatP= 7.13D-03
 IDIUse=3 WtCom= 9.80D-01 WtEn= 1.97D-02
 Coeff-Com: -0.877D-01 0.129D+00 0.399D+00 0.559D+00
 Coeff-En:   0.000D+00 0.000D+00 0.000D+00 0.100D+01
 Coeff:     -0.859D-01 0.127D+00 0.391D+00 0.568D+00
 Gap=     0.201 Goal=   None    Shift=    0.000
 Gap=     0.274 Goal=   None    Shift=    0.000
 RMSDP=8.78D-05 MaxDP=3.90D-03 DE=-2.19D-03 OVMax= 1.42D-02

 Cycle   5  Pass 1  IDiag  1:
 RMSU=  8.14D-05    CP:  1.00D+00  1.70D+00  1.05D+00  8.75D-01
 CoulSu:  requested number of processors reduced to:  46 ShMem   1 Linda.
 E= -599.774764460189     Delta-E=       -0.000444229617 Rises=F Damp=F
 DIIS: error= 1.32D-03 at cycle   5 NSaved=   5.
 NSaved= 5 IEnMin= 5 EnMin= -599.774764460189     IErMin= 5 ErrMin= 1.32D-03
 ErrMax= 1.32D-03  0.00D+00 EMaxC= 1.00D-01 BMatC= 3.67D-04 BMatP= 1.90D-03
 IDIUse=3 WtCom= 9.87D-01 WtEn= 1.32D-02
 Coeff-Com:  0.166D-01-0.268D-01-0.208D-01 0.226D+00 0.805D+00
 Coeff-En:   0.000D+00 0.000D+00 0.000D+00 0.000D+00 0.100D+01
 Coeff:      0.164D-01-0.265D-01-0.205D-01 0.223D+00 0.807D+00
 Gap=     0.207 Goal=   None    Shift=    0.000
 Gap=     0.274 Goal=   None    Shift=    0.000
 RMSDP=6.84D-05 MaxDP=3.48D-03 DE=-4.44D-04 OVMax= 1.24D-02

 Cycle   6  Pass 1  IDiag  1:
 RMSU=  4.30D-05    CP:  1.00D+00  1.68D+00  1.07D+00  1.06D+00  1.29D+00
 CoulSu:  requested number of processors reduced to:  46 ShMem   1 Linda.
 E= -599.774972021549     Delta-E=       -0.000207561360 Rises=F Damp=F
 DIIS: error= 4.52D-04 at cycle   6 NSaved=   6.
 NSaved= 6 IEnMin= 6 EnMin= -599.774972021549     IErMin= 6 ErrMin= 4.52D-04
 ErrMax= 4.52D-04  0.00D+00 EMaxC= 1.00D-01 BMatC= 1.02D-04 BMatP= 3.67D-04
 IDIUse=3 WtCom= 9.95D-01 WtEn= 4.52D-03
 Coeff-Com:  0.204D-02-0.354D-02-0.952D-01-0.194D+00 0.350D-01 0.126D+01
 Coeff-En:   0.000D+00 0.000D+00 0.000D+00 0.000D+00 0.000D+00 0.100D+01
 Coeff:      0.203D-02-0.353D-02-0.947D-01-0.193D+00 0.349D-01 0.125D+01
 Gap=     0.209 Goal=   None    Shift=    0.000
 Gap=     0.275 Goal=   None    Shift=    0.000
 RMSDP=6.08D-05 MaxDP=2.68D-03 DE=-2.08D-04 OVMax= 9.96D-03

 Cycle   7  Pass 1  IDiag  1:
 RMSU=  2.09D-05    CP:  1.00D+00  1.68D+00  1.08D+00  1.23D+00  1.81D+00
                    CP:  1.40D+00
 CoulSu:  requested number of processors reduced to:  46 ShMem   1 Linda.
 E= -599.775070666400     Delta-E=       -0.000098644851 Rises=F Damp=F
 DIIS: error= 1.66D-04 at cycle   7 NSaved=   7.
 NSaved= 7 IEnMin= 7 EnMin= -599.775070666400     IErMin= 7 ErrMin= 1.66D-04
 ErrMax= 1.66D-04  0.00D+00 EMaxC= 1.00D-01 BMatC= 1.56D-05 BMatP= 1.02D-04
 IDIUse=3 WtCom= 9.98D-01 WtEn= 1.66D-03
 Coeff-Com: -0.798D-02 0.126D-01-0.188D-01-0.873D-01-0.140D+00 0.245D+00
 Coeff-Com:  0.997D+00
 Coeff-En:   0.000D+00 0.000D+00 0.000D+00 0.000D+00 0.000D+00 0.000D+00
 Coeff-En:   0.100D+01
 Coeff:     -0.796D-02 0.125D-01-0.187D-01-0.872D-01-0.140D+00 0.244D+00
 Coeff:      0.997D+00
 Gap=     0.210 Goal=   None    Shift=    0.000
 Gap=     0.275 Goal=   None    Shift=    0.000
 RMSDP=2.74D-05 MaxDP=1.35D-03 DE=-9.86D-05 OVMax= 4.07D-03

 Cycle   8  Pass 1  IDiag  1:
 RMSU=  8.19D-06    CP:  1.00D+00  1.69D+00  1.09D+00  1.27D+00  2.04D+00
                    CP:  1.70D+00  1.38D+00
 CoulSu:  requested number of processors reduced to:  46 ShMem   1 Linda.
 E= -599.775086523035     Delta-E=       -0.000015856634 Rises=F Damp=F
 DIIS: error= 6.18D-05 at cycle   8 NSaved=   8.
 NSaved= 8 IEnMin= 8 EnMin= -599.775086523035     IErMin= 8 ErrMin= 6.18D-05
 ErrMax= 6.18D-05  0.00D+00 EMaxC= 1.00D-01 BMatC= 2.01D-06 BMatP= 1.56D-05
 IDIUse=1 WtCom= 1.00D+00 WtEn= 0.00D+00
 Coeff-Com:  0.268D-02-0.364D-02 0.193D-01 0.511D-01-0.103D-01-0.215D+00
 Coeff-Com: -0.190D+00 0.135D+01
 Coeff:      0.268D-02-0.364D-02 0.193D-01 0.511D-01-0.103D-01-0.215D+00
 Coeff:     -0.190D+00 0.135D+01
 Gap=     0.210 Goal=   None    Shift=    0.000
 Gap=     0.275 Goal=   None    Shift=    0.000
 RMSDP=1.45D-05 MaxDP=7.53D-04 DE=-1.59D-05 OVMax= 2.09D-03

 Cycle   9  Pass 1  IDiag  1:
 RMSU=  3.50D-06    CP:  1.00D+00  1.69D+00  1.09D+00  1.29D+00  2.13D+00
                    CP:  1.80D+00  1.73D+00  1.79D+00
 CoulSu:  requested number of processors reduced to:  46 ShMem   1 Linda.
 E= -599.775089288549     Delta-E=       -0.000002765515 Rises=F Damp=F
 DIIS: error= 3.88D-05 at cycle   9 NSaved=   9.
 NSaved= 9 IEnMin= 9 EnMin= -599.775089288549     IErMin= 9 ErrMin= 3.88D-05
 ErrMax= 3.88D-05  0.00D+00 EMaxC= 1.00D-01 BMatC= 5.60D-07 BMatP= 2.01D-06
 IDIUse=1 WtCom= 1.00D+00 WtEn= 0.00D+00
 Coeff-Com:  0.160D-02-0.221D-02-0.195D-02-0.497D-02-0.102D-01 0.671D-01
 Coeff-Com: -0.107D-01-0.426D+00 0.139D+01
 Coeff:      0.160D-02-0.221D-02-0.195D-02-0.497D-02-0.102D-01 0.671D-01
 Coeff:     -0.107D-01-0.426D+00 0.139D+01
 Gap=     0.210 Goal=   None    Shift=    0.000
 Gap=     0.275 Goal=   None    Shift=    0.000
 RMSDP=5.35D-06 MaxDP=2.11D-04 DE=-2.77D-06 OVMax= 7.07D-04

 Cycle  10  Pass 1  IDiag  1:
 RMSU=  1.23D-06    CP:  1.00D+00  1.70D+00  1.08D+00  1.29D+00  2.15D+00
                    CP:  1.82D+00  1.83D+00  2.19D+00  1.78D+00
 CoulSu:  requested number of processors reduced to:  46 ShMem   1 Linda.
 E= -599.775089699867     Delta-E=       -0.000000411318 Rises=F Damp=F
 DIIS: error= 1.53D-05 at cycle  10 NSaved=  10.
 NSaved=10 IEnMin=10 EnMin= -599.775089699867     IErMin=10 ErrMin= 1.53D-05
 ErrMax= 1.53D-05  0.00D+00 EMaxC= 1.00D-01 BMatC= 8.15D-08 BMatP= 5.60D-07
 IDIUse=1 WtCom= 1.00D+00 WtEn= 0.00D+00
 Coeff-Com:  0.215D-04-0.245D-04-0.158D-02-0.589D-02-0.452D-02 0.314D-01
 Coeff-Com:  0.357D-01-0.185D+00-0.113D+00 0.124D+01
 Coeff:      0.215D-04-0.245D-04-0.158D-02-0.589D-02-0.452D-02 0.314D-01
 Coeff:      0.357D-01-0.185D+00-0.113D+00 0.124D+01
 Gap=     0.210 Goal=   None    Shift=    0.000
 Gap=     0.275 Goal=   None    Shift=    0.000
 RMSDP=2.60D-06 MaxDP=1.00D-04 DE=-4.11D-07 OVMax= 4.13D-04

 Cycle  11  Pass 1  IDiag  1:
 RMSU=  4.05D-07    CP:  1.00D+00  1.70D+00  1.08D+00  1.29D+00  2.15D+00
                    CP:  1.82D+00  1.87D+00  2.35D+00  2.20D+00  1.54D+00
 CoulSu:  requested number of processors reduced to:  46 ShMem   1 Linda.
 E= -599.775089767858     Delta-E=       -0.000000067991 Rises=F Damp=F
 DIIS: error= 5.02D-06 at cycle  11 NSaved=  11.
 NSaved=11 IEnMin=11 EnMin= -599.775089767858     IErMin=11 ErrMin= 5.02D-06
 ErrMax= 5.02D-06  0.00D+00 EMaxC= 1.00D-01 BMatC= 1.12D-08 BMatP= 8.15D-08
 IDIUse=1 WtCom= 1.00D+00 WtEn= 0.00D+00
 Coeff-Com:  0.379D-04-0.370D-04 0.426D-03 0.127D-02-0.151D-03-0.901D-02
 Coeff-Com: -0.629D-03 0.754D-01-0.233D+00-0.182D-01 0.118D+01
 Coeff:      0.379D-04-0.370D-04 0.426D-03 0.127D-02-0.151D-03-0.901D-02
 Coeff:     -0.629D-03 0.754D-01-0.233D+00-0.182D-01 0.118D+01
 Gap=     0.210 Goal=   None    Shift=    0.000
 Gap=     0.275 Goal=   None    Shift=    0.000
 RMSDP=9.55D-07 MaxDP=3.65D-05 DE=-6.80D-08 OVMax= 1.48D-04

 Cycle  12  Pass 1  IDiag  1:
 RMSU=  1.57D-07    CP:  1.00D+00  1.70D+00  1.08D+00  1.29D+00  2.15D+00
                    CP:  1.82D+00  1.88D+00  2.41D+00  2.36D+00  1.81D+00
                    CP:  1.39D+00
 CoulSu:  requested number of processors reduced to:  46 ShMem   1 Linda.
 E= -599.775089775429     Delta-E=       -0.000000007572 Rises=F Damp=F
 DIIS: error= 1.46D-06 at cycle  12 NSaved=  12.
 NSaved=12 IEnMin=12 EnMin= -599.775089775429     IErMin=12 ErrMin= 1.46D-06
 ErrMax= 1.46D-06  0.00D+00 EMaxC= 1.00D-01 BMatC= 7.52D-10 BMatP= 1.12D-08
 IDIUse=1 WtCom= 1.00D+00 WtEn= 0.00D+00
 Coeff-Com:  0.295D-04-0.376D-04 0.228D-03 0.519D-03-0.219D-03-0.317D-02
 Coeff-Com: -0.105D-02 0.260D-01-0.419D-01-0.856D-01 0.228D+00 0.877D+00
 Coeff:      0.295D-04-0.376D-04 0.228D-03 0.519D-03-0.219D-03-0.317D-02
 Coeff:     -0.105D-02 0.260D-01-0.419D-01-0.856D-01 0.228D+00 0.877D+00
 Gap=     0.210 Goal=   None    Shift=    0.000
 Gap=     0.275 Goal=   None    Shift=    0.000
 RMSDP=1.44D-07 MaxDP=5.52D-06 DE=-7.57D-09 OVMax= 1.84D-05

 Cycle  13  Pass 1  IDiag  1:
 RMSU=  4.33D-08    CP:  1.00D+00  1.70D+00  1.08D+00  1.29D+00  2.15D+00
                    CP:  1.82D+00  1.88D+00  2.42D+00  2.38D+00  1.85D+00
                    CP:  1.52D+00  1.12D+00
 CoulSu:  requested number of processors reduced to:  46 ShMem   1 Linda.
 E= -599.775089775764     Delta-E=       -0.000000000335 Rises=F Damp=F
 DIIS: error= 3.44D-07 at cycle  13 NSaved=  13.
 NSaved=13 IEnMin=13 EnMin= -599.775089775764     IErMin=13 ErrMin= 3.44D-07
 ErrMax= 3.44D-07  0.00D+00 EMaxC= 1.00D-01 BMatC= 6.95D-11 BMatP= 7.52D-10
 IDIUse=1 WtCom= 1.00D+00 WtEn= 0.00D+00
 Coeff-Com:  0.593D-05-0.873D-05 0.181D-04-0.203D-04-0.601D-04 0.443D-03
 Coeff-Com: -0.309D-03-0.410D-02 0.224D-01-0.217D-01-0.120D+00 0.186D+00
 Coeff-Com:  0.938D+00
 Coeff:      0.593D-05-0.873D-05 0.181D-04-0.203D-04-0.601D-04 0.443D-03
 Coeff:     -0.309D-03-0.410D-02 0.224D-01-0.217D-01-0.120D+00 0.186D+00
 Coeff:      0.938D+00
 Gap=     0.210 Goal=   None    Shift=    0.000
 Gap=     0.275 Goal=   None    Shift=    0.000
 RMSDP=6.37D-08 MaxDP=2.45D-06 DE=-3.35D-10 OVMax= 9.23D-06

 Cycle  14  Pass 1  IDiag  1:
 RMSU=  1.59D-08    CP:  1.00D+00  1.70D+00  1.08D+00  1.29D+00  2.15D+00
                    CP:  1.82D+00  1.88D+00  2.42D+00  2.39D+00  1.86D+00
                    CP:  1.56D+00  1.25D+00  1.15D+00
 CoulSu:  requested number of processors reduced to:  46 ShMem   1 Linda.
 E= -599.775089775803     Delta-E=       -0.000000000039 Rises=F Damp=F
 DIIS: error= 5.82D-08 at cycle  14 NSaved=  14.
 NSaved=14 IEnMin=14 EnMin= -599.775089775803     IErMin=14 ErrMin= 5.82D-08
 ErrMax= 5.82D-08  0.00D+00 EMaxC= 1.00D-01 BMatC= 2.42D-12 BMatP= 6.95D-11
 IDIUse=1 WtCom= 1.00D+00 WtEn= 0.00D+00
 Coeff-Com: -0.493D-06 0.482D-06-0.174D-04-0.567D-05 0.278D-04 0.149D-04
 Coeff-Com: -0.503D-05 0.643D-04-0.343D-02 0.102D-01 0.223D-01-0.902D-01
 Coeff-Com: -0.263D+00 0.132D+01
 Coeff:     -0.493D-06 0.482D-06-0.174D-04-0.567D-05 0.278D-04 0.149D-04
 Coeff:     -0.503D-05 0.643D-04-0.343D-02 0.102D-01 0.223D-01-0.902D-01
 Coeff:     -0.263D+00 0.132D+01
 Gap=     0.210 Goal=   None    Shift=    0.000
 Gap=     0.275 Goal=   None    Shift=    0.000
 RMSDP=1.43D-08 MaxDP=5.80D-07 DE=-3.88D-11 OVMax= 1.77D-06

 Cycle  15  Pass 1  IDiag  1:
 RMSU=  6.43D-09    CP:  1.00D+00  1.70D+00  1.08D+00  1.29D+00  2.15D+00
                    CP:  1.82D+00  1.88D+00  2.42D+00  2.39D+00  1.86D+00
                    CP:  1.57D+00  1.28D+00  1.30D+00  1.60D+00
 CoulSu:  requested number of processors reduced to:  46 ShMem   1 Linda.
 E= -599.775089775808     Delta-E=       -0.000000000005 Rises=F Damp=F
 DIIS: error= 3.67D-08 at cycle  15 NSaved=  15.
 NSaved=15 IEnMin=15 EnMin= -599.775089775808     IErMin=15 ErrMin= 3.67D-08
 ErrMax= 3.67D-08  0.00D+00 EMaxC= 1.00D-01 BMatC= 5.07D-13 BMatP= 2.42D-12
 IDIUse=1 WtCom= 1.00D+00 WtEn= 0.00D+00
 Coeff-Com: -0.868D-06 0.127D-05 0.242D-05 0.703D-06-0.907D-05-0.938D-05
 Coeff-Com:  0.512D-04 0.117D-03-0.651D-03-0.113D-02 0.286D-02 0.355D-02
 Coeff-Com: -0.518D-02-0.335D+00 0.134D+01
 Coeff:     -0.868D-06 0.127D-05 0.242D-05 0.703D-06-0.907D-05-0.938D-05
 Coeff:      0.512D-04 0.117D-03-0.651D-03-0.113D-02 0.286D-02 0.355D-02
 Coeff:     -0.518D-02-0.335D+00 0.134D+01
 Gap=     0.210 Goal=   None    Shift=    0.000
 Gap=     0.275 Goal=   None    Shift=    0.000
 RMSDP=9.05D-09 MaxDP=4.06D-07 DE=-4.66D-12 OVMax= 1.22D-06

 SCF Done:  E(UM062X) =  -599.775089776     A.U. after   15 cycles
            NFock= 15  Conv=0.90D-08     -V/T= 2.0016
 <Sx>= 0.0000 <Sy>= 0.0000 <Sz>= 0.5000 <S**2>= 0.7725 S= 0.5112
 <L.S>= 0.000000000000E+00
 KE= 5.988314126871D+02 PE=-1.616829345310D+03 EE= 3.226229250646D+02
 Annihilation of the first spin contaminant:
 S**2 before annihilation     0.7725,   after     0.7501
 Leave Link  502 at Sun Apr 18 10:03:29 2021, MaxMem=   104857600 cpu:            1181.5 elap:              25.2
 (Enter /s/ls4/users/knvvv/bin/g16sse/l601.exe)
 Copying SCF densities to generalized density rwf, IOpCl= 1 IROHF=0.

 **********************************************************************

            Population analysis using the SCF density.

 **********************************************************************

 Orbital symmetries:
 Alpha Orbitals:
       Occupied  (A) (A) (A) (A) (A) (A) (A) (A) (A) (A) (A) (A)
                 (A) (A) (A) (A) (A) (A)
       Virtual   (A) (A) (A) (A) (A) (A) (A) (A) (A) (A) (A) (A)
                 (A) (A) (A) (A) (A) (A) (A) (A) (A) (A) (A) (A)
                 (A) (A) (A) (A) (A) (A) (A) (A) (A) (A) (A) (A)
                 (A) (A) (A) (A) (A) (A) (A) (A) (A) (A) (A) (A)
                 (A) (A) (A) (A) (A) (A) (A) (A) (A) (A) (A) (A)
                 (A) (A) (A) (A) (A) (A) (A) (A) (A) (A) (A) (A)
                 (A) (A) (A) (A) (A) (A) (A) (A) (A) (A) (A) (A)
                 (A) (A) (A) (A) (A) (A) (A) (A) (A) (A) (A) (A)
                 (A) (A) (A) (A) (A) (A) (A) (A) (A) (A) (A) (A)
                 (A) (A) (A) (A) (A) (A) (A) (A) (A) (A) (A) (A)
                 (A) (A) (A) (A) (A) (A) (A) (A) (A) (A) (A)
 Beta  Orbitals:
       Occupied  (A) (A) (A) (A) (A) (A) (A) (A) (A) (A) (A) (A)
                 (A) (A) (A) (A) (A)
       Virtual   (A) (A) (A) (A) (A) (A) (A) (A) (A) (A) (A) (A)
                 (A) (A) (A) (A) (A) (A) (A) (A) (A) (A) (A) (A)
                 (A) (A) (A) (A) (A) (A) (A) (A) (A) (A) (A) (A)
                 (A) (A) (A) (A) (A) (A) (A) (A) (A) (A) (A) (A)
                 (A) (A) (A) (A) (A) (A) (A) (A) (A) (A) (A) (A)
                 (A) (A) (A) (A) (A) (A) (A) (A) (A) (A) (A) (A)
                 (A) (A) (A) (A) (A) (A) (A) (A) (A) (A) (A) (A)
                 (A) (A) (A) (A) (A) (A) (A) (A) (A) (A) (A) (A)
                 (A) (A) (A) (A) (A) (A) (A) (A) (A) (A) (A) (A)
                 (A) (A) (A) (A) (A) (A) (A) (A) (A) (A) (A) (A)
                 (A) (A) (A) (A) (A) (A) (A) (A) (A) (A) (A) (A)
 The electronic state is 2-A.
 Alpha  occ. eigenvalues -- -102.67752 -25.26764 -10.59811  -9.83741  -7.56833
 Alpha  occ. eigenvalues --   -7.55414  -7.55414  -1.32715  -0.91005  -0.81254
 Alpha  occ. eigenvalues --   -0.56701  -0.55063  -0.55062  -0.51452  -0.51448
 Alpha  occ. eigenvalues --   -0.38007  -0.38007  -0.28406
 Alpha virt. eigenvalues --   -0.07397   0.02023   0.04795   0.04796   0.05652
 Alpha virt. eigenvalues --    0.08690   0.09676   0.09676   0.13607   0.16936
 Alpha virt. eigenvalues --    0.16941   0.21776   0.27986   0.27988   0.32742
 Alpha virt. eigenvalues --    0.32744   0.35585   0.37254   0.37260   0.39581
 Alpha virt. eigenvalues --    0.42806   0.42811   0.45397   0.48295   0.50946
 Alpha virt. eigenvalues --    0.50948   0.53648   0.53657   0.58099   0.62817
 Alpha virt. eigenvalues --    0.68466   0.68471   0.81796   0.84948   0.97976
 Alpha virt. eigenvalues --    0.98871   0.98878   1.06502   1.06512   1.09292
 Alpha virt. eigenvalues --    1.12684   1.12688   1.13630   1.13648   1.16205
 Alpha virt. eigenvalues --    1.16216   1.16329   1.17041   1.17043   1.29939
 Alpha virt. eigenvalues --    1.29944   1.32789   1.33188   1.33197   1.39392
 Alpha virt. eigenvalues --    1.39395   1.51072   1.51080   1.52395   1.55579
 Alpha virt. eigenvalues --    1.84811   1.94125   2.09915   2.09915   2.11769
 Alpha virt. eigenvalues --    2.12035   2.12046   2.37296   2.37333   2.46388
 Alpha virt. eigenvalues --    2.46419   2.49274   2.86755   2.86759   2.88195
 Alpha virt. eigenvalues --    2.92304   2.97020   3.06740   3.10768   3.10773
 Alpha virt. eigenvalues --    3.16802   3.16809   3.35274   3.35283   3.38838
 Alpha virt. eigenvalues --    3.75091   3.75092   3.96870   4.08402   4.08404
 Alpha virt. eigenvalues --    4.13049   4.13055   4.31194   4.31219   4.33280
 Alpha virt. eigenvalues --    4.33281   4.33554   4.37383   4.37385   4.43087
 Alpha virt. eigenvalues --    4.69497   5.14576   5.21827   5.21838   5.24034
 Alpha virt. eigenvalues --    5.24036   5.39881   5.46285   5.46300   6.44336
 Alpha virt. eigenvalues --    6.44337   6.65269   6.68646   6.68687   6.68691
 Alpha virt. eigenvalues --    6.68694   6.77052   6.77054   7.19387   9.07874
 Alpha virt. eigenvalues --    9.07876   9.26810   9.26812   9.60483   9.83075
 Alpha virt. eigenvalues --   20.67865  20.67865  20.92901  24.21097  66.91668
 Alpha virt. eigenvalues --  216.40690
  Beta  occ. eigenvalues -- -102.67286 -25.26776 -10.59354  -9.83613  -7.55640
  Beta  occ. eigenvalues --   -7.55263  -7.55263  -1.32650  -0.89271  -0.77795
  Beta  occ. eigenvalues --   -0.56290  -0.54907  -0.54907  -0.50701  -0.50697
  Beta  occ. eigenvalues --   -0.37191  -0.37191
  Beta virt. eigenvalues --   -0.09683  -0.01672   0.01929   0.04900   0.04901
  Beta virt. eigenvalues --    0.06281   0.09482   0.09662   0.09663   0.14248
  Beta virt. eigenvalues --    0.17161   0.17166   0.22523   0.27374   0.27376
  Beta virt. eigenvalues --    0.32875   0.32877   0.35136   0.37730   0.37737
  Beta virt. eigenvalues --    0.38516   0.42764   0.42770   0.46003   0.50441
  Beta virt. eigenvalues --    0.51154   0.51156   0.54713   0.54721   0.58786
  Beta virt. eigenvalues --    0.62755   0.69540   0.69546   0.82403   0.84979
  Beta virt. eigenvalues --    0.98685   0.98692   0.99702   1.06857   1.06865
  Beta virt. eigenvalues --    1.07644   1.13040   1.13043   1.13921   1.13935
  Beta virt. eigenvalues --    1.16735   1.16759   1.16779   1.17027   1.17029
  Beta virt. eigenvalues --    1.30931   1.30935   1.33584   1.33592   1.33664
  Beta virt. eigenvalues --    1.40805   1.40808   1.51027   1.51037   1.53687
  Beta virt. eigenvalues --    1.57413   1.85086   1.93879   2.10602   2.10603
  Beta virt. eigenvalues --    2.11977   2.11988   2.14953   2.38877   2.38919
  Beta virt. eigenvalues --    2.46846   2.46881   2.51266   2.92461   2.92467
  Beta virt. eigenvalues --    2.93965   2.96479   3.00732   3.15199   3.15204
  Beta virt. eigenvalues --    3.15579   3.21395   3.21402   3.42215   3.42225
  Beta virt. eigenvalues --    3.45820   3.78515   3.78517   4.02135   4.12550
  Beta virt. eigenvalues --    4.12554   4.16887   4.16895   4.33893   4.33894
  Beta virt. eigenvalues --    4.35569   4.35593   4.37023   4.43674   4.43675
  Beta virt. eigenvalues --    4.49720   4.72534   5.22026   5.22036   5.22961
  Beta virt. eigenvalues --    5.25430   5.25432   5.40656   5.52542   5.52560
  Beta virt. eigenvalues --    6.44006   6.44007   6.62985   6.67770   6.67774
  Beta virt. eigenvalues --    6.68496   6.68542   6.75636   6.75639   7.18501
  Beta virt. eigenvalues --    9.07553   9.07554   9.24409   9.24411   9.57836
  Beta virt. eigenvalues --    9.83301  20.68371  20.68371  20.95804  24.22700
  Beta virt. eigenvalues --   66.92145 216.41422
          Condensed to atoms (all electrons):
               1          2          3          4          5          6
     1  Cl  17.075968  -0.057755   0.029874  -0.000373  -0.000376  -0.000381
     2  F   -0.057755   9.281574  -0.081355  -0.004159  -0.004162  -0.004139
     3  C    0.029874  -0.081355   5.171210   0.398265   0.398264   0.398222
     4  H   -0.000373  -0.004159   0.398265   0.495556  -0.026550  -0.026523
     5  H   -0.000376  -0.004162   0.398264  -0.026550   0.495550  -0.026541
     6  H   -0.000381  -0.004139   0.398222  -0.026523  -0.026541   0.495522
          Atomic-Atomic Spin Densities.
               1          2          3          4          5          6
     1  Cl   0.458978  -0.106516   0.037002  -0.000479  -0.000479  -0.000480
     2  F   -0.106516   0.054799  -0.085011   0.002571   0.002580   0.002590
     3  C    0.037002  -0.085011   0.876456  -0.003365  -0.003381  -0.003403
     4  H   -0.000479   0.002571  -0.003365  -0.029447   0.002464   0.002468
     5  H   -0.000479   0.002580  -0.003381   0.002464  -0.029433   0.002473
     6  H   -0.000480   0.002590  -0.003403   0.002468   0.002473  -0.029421
 Mulliken charges and spin densities:
               1          2
     1  Cl  -0.046957   0.388026
     2  F   -0.130005  -0.128988
     3  C   -0.314480   0.818298
     4  H    0.163786  -0.025788
     5  H    0.163816  -0.025776
     6  H    0.163840  -0.025773
 Sum of Mulliken charges =  -0.00000   1.00000
 Mulliken charges and spin densities with hydrogens summed into heavy atoms:
               1          2
     1  Cl  -0.046957   0.388026
     2  F   -0.130005  -0.128988
     3  C    0.176961   0.740962
 Electronic spatial extent (au):  <R**2>=            384.4707
 Charge=             -0.0000 electrons
 Dipole moment (field-independent basis, Debye):
    X=             -2.3675    Y=             -0.0067    Z=             -0.0001  Tot=              2.3675
 Quadrupole moment (field-independent basis, Debye-Ang):
   XX=            -19.5324   YY=            -24.7634   ZZ=            -24.7643
   XY=             -0.0017   XZ=              0.0002   YZ=             -0.0001
 Traceless Quadrupole moment (field-independent basis, Debye-Ang):
   XX=              3.4877   YY=             -1.7434   ZZ=             -1.7442
   XY=             -0.0017   XZ=              0.0002   YZ=             -0.0001
 Octapole moment (field-independent basis, Debye-Ang**2):
  XXX=             -0.8561  YYY=              0.4132  ZZZ=              0.9994  XYY=             -1.7356
  XXY=              0.0078  XXZ=             -0.0016  XZZ=             -1.7306  YZZ=             -0.3804
  YYZ=             -0.9983  XYZ=              0.0037
 Hexadecapole moment (field-independent basis, Debye-Ang**3):
 XXXX=           -429.5289 YYYY=            -32.0889 ZZZZ=            -32.0843 XXXY=             -0.1610
 XXXZ=              0.0034 YYYX=             -0.9909 YYYZ=              0.0078 ZZZX=             -2.5185
 ZZZY=             -0.0030 XXYY=            -77.3983 XXZZ=            -77.4188 YYZZ=            -10.6926
 XXYZ=             -0.0179 YYXZ=              2.5185 ZZXY=              0.9766
 N-N= 9.559991778228D+01 E-N=-1.616829345622D+03  KE= 5.988314126871D+02
                          Isotropic Fermi Contact Couplings
        Atom                 a.u.       MegaHertz       Gauss      10(-4) cm-1
     1  Cl(35)            -0.02980     -13.06758      -4.66284      -4.35888
     2  F(19)              0.55402    2331.00623     831.76099     777.53999
     3  C(13)              0.14757     165.89280      59.19468      55.33588
     4  H(1)              -0.01157     -51.72661     -18.45734     -17.25414
     5  H(1)              -0.01157     -51.70838     -18.45083     -17.24806
     6  H(1)              -0.01156     -51.68645     -18.44301     -17.24074
 --------------------------------------------------------
       Center         ----  Spin Dipole Couplings  ----
                      3XX-RR        3YY-RR        3ZZ-RR
 --------------------------------------------------------
     1   Atom        2.473647     -1.236827     -1.236819
     2   Atom       -0.715263      0.357662      0.357601
     3   Atom        0.808335     -0.404160     -0.404175
     4   Atom       -0.002383      0.016336     -0.013953
     5   Atom       -0.002341     -0.052516      0.054857
     6   Atom       -0.002263      0.039702     -0.037439
 --------------------------------------------------------
                        XY            XZ            YZ
 --------------------------------------------------------
     1   Atom       -0.005189     -0.000036      0.000000
     2   Atom       -0.006387     -0.000262      0.000002
     3   Atom        0.003956     -0.000253      0.000006
     4   Atom        0.007104      0.005226      0.053290
     5   Atom        0.001273     -0.008831     -0.013610
     6   Atom       -0.008383      0.003607     -0.039706
 --------------------------------------------------------


 ---------------------------------------------------------------------------------
              Anisotropic Spin Dipole Couplings in Principal Axis System
 ---------------------------------------------------------------------------------

       Atom             a.u.   MegaHertz   Gauss  10(-4) cm-1        Axes

              Baa    -1.2368   -64.733   -23.098   -21.593  0.0014  0.9998 -0.0213
     1 Cl(35) Bbb    -1.2368   -64.732   -23.098   -21.592  0.0000  0.0213  0.9998
              Bcc     2.4737   129.465    46.196    43.185  1.0000 -0.0014 -0.0000
 
              Baa    -0.7153  -359.243  -128.187  -119.830  1.0000  0.0060  0.0002
     2 F(19)  Bbb     0.3576   179.596    64.084    59.907 -0.0000 -0.0380  0.9993
              Bcc     0.3577   179.646    64.102    59.924 -0.0060  0.9993  0.0380
 
              Baa    -0.4042   -54.237   -19.353   -18.092  0.0022 -0.6388  0.7694
     3 C(13)  Bbb    -0.4042   -54.235   -19.353   -18.091 -0.0024  0.7694  0.6388
              Bcc     0.8083   108.473    38.706    36.183  1.0000  0.0033 -0.0002
 
              Baa    -0.0542   -28.923   -10.321    -9.648  0.0022 -0.6029  0.7978
     4 H(1)   Bbb    -0.0037    -1.960    -0.699    -0.654  0.9895 -0.1142 -0.0890
              Bcc     0.0579    30.883    11.020    10.301  0.1448  0.7896  0.5963
 
              Baa    -0.0542   -28.927   -10.322    -9.649 -0.0033  0.9923  0.1236
     5 H(1)   Bbb    -0.0037    -1.954    -0.697    -0.652  0.9892 -0.0149  0.1458
              Bcc     0.0579    30.880    11.019    10.300 -0.1465 -0.1227  0.9816
 
              Baa    -0.0542   -28.932   -10.323    -9.651 -0.0011  0.3893  0.9211
     6 H(1)   Bbb    -0.0036    -1.946    -0.694    -0.649  0.9887  0.1386 -0.0574
              Bcc     0.0579    30.878    11.018    10.300 -0.1500  0.9106 -0.3850
 

 ---------------------------------------------------------------------------------

 No NMR shielding tensors so no spin-rotation constants.
 Leave Link  601 at Sun Apr 18 10:03:31 2021, MaxMem=   104857600 cpu:              78.8 elap:               1.7
 (Enter /s/ls4/users/knvvv/bin/g16sse/l801.exe)
 DoSCS=F DFT=T ScalE2(SS,OS)=  1.000000  1.000000
 Range of M.O.s used for correlation:     1   149
 NBasis=   149 NAE=    18 NBE=    17 NFC=     0 NFV=     0
 NROrb=    149 NOA=    18 NOB=    17 NVA=   131 NVB=   132
 Leave Link  801 at Sun Apr 18 10:03:31 2021, MaxMem=   104857600 cpu:               3.5 elap:               0.1
 (Enter /s/ls4/users/knvvv/bin/g16sse/l914.exe)
 UHF ground state
 Doing stability rather than CIS.
 Two-electron integrals replicated using symmetry.
 MDV=   104857600 DFT=T DoStab=T Mixed=T DoRPA=F DoScal=F NonHer=F
 Making orbital integer symmetry assigments:
 Orbital symmetries:
 Alpha Orbitals:
       Occupied  (A) (A) (A) (A) (A) (A) (A) (A) (A) (A) (A) (A)
                 (A) (A) (A) (A) (A) (A)
       Virtual   (A) (A) (A) (A) (A) (A) (A) (A) (A) (A) (A) (A)
                 (A) (A) (A) (A) (A) (A) (A) (A) (A) (A) (A) (A)
                 (A) (A) (A) (A) (A) (A) (A) (A) (A) (A) (A) (A)
                 (A) (A) (A) (A) (A) (A) (A) (A) (A) (A) (A) (A)
                 (A) (A) (A) (A) (A) (A) (A) (A) (A) (A) (A) (A)
                 (A) (A) (A) (A) (A) (A) (A) (A) (A) (A) (A) (A)
                 (A) (A) (A) (A) (A) (A) (A) (A) (A) (A) (A) (A)
                 (A) (A) (A) (A) (A) (A) (A) (A) (A) (A) (A) (A)
                 (A) (A) (A) (A) (A) (A) (A) (A) (A) (A) (A) (A)
                 (A) (A) (A) (A) (A) (A) (A) (A) (A) (A) (A) (A)
                 (A) (A) (A) (A) (A) (A) (A) (A) (A) (A) (A)
 Beta  Orbitals:
       Occupied  (A) (A) (A) (A) (A) (A) (A) (A) (A) (A) (A) (A)
                 (A) (A) (A) (A) (A)
       Virtual   (A) (A) (A) (A) (A) (A) (A) (A) (A) (A) (A) (A)
                 (A) (A) (A) (A) (A) (A) (A) (A) (A) (A) (A) (A)
                 (A) (A) (A) (A) (A) (A) (A) (A) (A) (A) (A) (A)
                 (A) (A) (A) (A) (A) (A) (A) (A) (A) (A) (A) (A)
                 (A) (A) (A) (A) (A) (A) (A) (A) (A) (A) (A) (A)
                 (A) (A) (A) (A) (A) (A) (A) (A) (A) (A) (A) (A)
                 (A) (A) (A) (A) (A) (A) (A) (A) (A) (A) (A) (A)
                 (A) (A) (A) (A) (A) (A) (A) (A) (A) (A) (A) (A)
                 (A) (A) (A) (A) (A) (A) (A) (A) (A) (A) (A) (A)
                 (A) (A) (A) (A) (A) (A) (A) (A) (A) (A) (A) (A)
                 (A) (A) (A) (A) (A) (A) (A) (A) (A) (A) (A) (A)
    12 initial guesses have been made.
 Convergence on wavefunction:    0.001000000000000
 Davidson Disk Diagonalization:  ConvIn= 1.00D-03 SkipCon=T Conv= 1.00D-03.
 Max sub-space:  2000 roots to seek:    12 dimension of matrix:         4602
 Iteration     1 Dimension    12 NMult     0 NNew     12
 Estimated number of processors is:   45
 CISAX will form     1 AO SS matrices at one time.
 NMat=     1 NSing=     1 JSym2X= 0.
 FoFJK:  IHMeth= 1 ICntrl=       0 DoSepK=F KAlg= 0 I1Cent=           0 FoldK=F
 IRaf= 960000000 NMat=       1 IRICut=       1 DoRegI=T DoRafI=F ISym2E= 0 IDoP0=0 IntGTp=1.
 FoFCou: FMM=F IPFlag=           0 FMFlag=      100000 FMFlg1=           0
         NFxFlg=           0 DoJE=F BraDBF=F KetDBF=F FulRan=T
         wScrn=  0.000000 ICntrl=         0 IOpCl=  1 I1Cent=           0 NGrid=           0
         NMat0=    1 NMatS0=      1 NMatT0=    0 NMatD0=    1 NMtDS0=    0 NMtDT0=    0
 Symmetry not used in FoFCou.
 CoulSu:  requested number of processors reduced to:  46 ShMem   1 Linda.
 NMat=     1 NSing=     1 JSym2X= 0.
 CoulSu:  requested number of processors reduced to:  46 ShMem   1 Linda.
 NMat=     1 NSing=     1 JSym2X= 0.
 CoulSu:  requested number of processors reduced to:  46 ShMem   1 Linda.
 NMat=     1 NSing=     1 JSym2X= 0.
 CoulSu:  requested number of processors reduced to:  46 ShMem   1 Linda.
 NMat=     1 NSing=     1 JSym2X= 0.
 CoulSu:  requested number of processors reduced to:  46 ShMem   1 Linda.
 NMat=     1 NSing=     1 JSym2X= 0.
 CoulSu:  requested number of processors reduced to:  46 ShMem   1 Linda.
 NMat=     1 NSing=     1 JSym2X= 0.
 CoulSu:  requested number of processors reduced to:  46 ShMem   1 Linda.
 NMat=     1 NSing=     1 JSym2X= 0.
 CoulSu:  requested number of processors reduced to:  46 ShMem   1 Linda.
 NMat=     1 NSing=     1 JSym2X= 0.
 CoulSu:  requested number of processors reduced to:  46 ShMem   1 Linda.
 NMat=     1 NSing=     1 JSym2X= 0.
 CoulSu:  requested number of processors reduced to:  46 ShMem   1 Linda.
 NMat=     1 NSing=     1 JSym2X= 0.
 CoulSu:  requested number of processors reduced to:  46 ShMem   1 Linda.
 NMat=     1 NSing=     1 JSym2X= 0.
 CoulSu:  requested number of processors reduced to:  46 ShMem   1 Linda.
 New state      1 was old state      2
 Excitation Energies [eV] at current iteration:
 Root      1 :     2.689599859128769
 Root      2 :     2.689616189624036
 Root      3 :     4.566681980182959
 Root      4 :     4.566696320690405
 Root      5 :     5.672074536376858
 Root      6 :     6.132099528731413
 Root      7 :     6.929836798584794
 Root      8 :     6.930157241938139
 Root      9 :     7.482250446625917
 Root     10 :     7.482265341530269
 Root     11 :     7.746568899047329
 Root     12 :     8.536895283702227
 Iteration     2 Dimension    24 NMult    12 NNew     12
 Estimated number of processors is:   45
 CISAX will form     1 AO SS matrices at one time.
 NMat=     1 NSing=     1 JSym2X= 0.
 CoulSu:  requested number of processors reduced to:  46 ShMem   1 Linda.
 NMat=     1 NSing=     1 JSym2X= 0.
 CoulSu:  requested number of processors reduced to:  46 ShMem   1 Linda.
 NMat=     1 NSing=     1 JSym2X= 0.
 CoulSu:  requested number of processors reduced to:  46 ShMem   1 Linda.
 NMat=     1 NSing=     1 JSym2X= 0.
 CoulSu:  requested number of processors reduced to:  46 ShMem   1 Linda.
 NMat=     1 NSing=     1 JSym2X= 0.
 CoulSu:  requested number of processors reduced to:  46 ShMem   1 Linda.
 NMat=     1 NSing=     1 JSym2X= 0.
 CoulSu:  requested number of processors reduced to:  46 ShMem   1 Linda.
 NMat=     1 NSing=     1 JSym2X= 0.
 CoulSu:  requested number of processors reduced to:  46 ShMem   1 Linda.
 NMat=     1 NSing=     1 JSym2X= 0.
 CoulSu:  requested number of processors reduced to:  46 ShMem   1 Linda.
 NMat=     1 NSing=     1 JSym2X= 0.
 CoulSu:  requested number of processors reduced to:  46 ShMem   1 Linda.
 NMat=     1 NSing=     1 JSym2X= 0.
 CoulSu:  requested number of processors reduced to:  46 ShMem   1 Linda.
 NMat=     1 NSing=     1 JSym2X= 0.
 CoulSu:  requested number of processors reduced to:  46 ShMem   1 Linda.
 NMat=     1 NSing=     1 JSym2X= 0.
 CoulSu:  requested number of processors reduced to:  46 ShMem   1 Linda.
 Root      1 not converged, maximum delta is    0.132393985211857
 Excitation Energies [eV] at current iteration:
 Root      1 :     2.266350651819657   Change is   -0.423249207309112
 Root      2 :     2.266366404050419   Change is   -0.423249785573617
 Root      3 :     3.312626988666540   Change is   -2.359447547710318
 Root      4 :     4.146896477216760   Change is   -0.419785502966199
 Root      5 :     4.146929547306335   Change is   -0.419766773384071
 Root      6 :     5.865030069562631   Change is   -0.267069459168782
 Root      7 :     6.840119694096073   Change is   -0.089717104488721
 Root      8 :     6.840392347314769   Change is   -0.089764894623369
 Root      9 :     7.202510138712619   Change is   -0.279755202817650
 Root     10 :     7.202574040276631   Change is   -0.279676406349286
 Root     11 :     7.273806096845306   Change is   -0.472762802202023
 Root     12 :     8.148721890154732   Change is   -0.388173393547494
 Iteration     3 Dimension    27 NMult    24 NNew      3
 Estimated number of processors is:   45
 CISAX will form     1 AO SS matrices at one time.
 NMat=     1 NSing=     1 JSym2X= 0.
 CoulSu:  requested number of processors reduced to:  46 ShMem   1 Linda.
 NMat=     1 NSing=     1 JSym2X= 0.
 CoulSu:  requested number of processors reduced to:  46 ShMem   1 Linda.
 NMat=     1 NSing=     1 JSym2X= 0.
 CoulSu:  requested number of processors reduced to:  46 ShMem   1 Linda.
 Root      1 not converged, maximum delta is    0.137719843220297
 Excitation Energies [eV] at current iteration:
 Root      1 :     2.253410984005273   Change is   -0.012939667814384
 Root      2 :     2.253430193632380   Change is   -0.012936210418040
 Root      3 :     3.114961188989910   Change is   -0.197665799676629
 Iteration     4 Dimension    30 NMult    27 NNew      3
 Estimated number of processors is:   45
 CISAX will form     1 AO SS matrices at one time.
 NMat=     1 NSing=     1 JSym2X= 0.
 CoulSu:  requested number of processors reduced to:  46 ShMem   1 Linda.
 NMat=     1 NSing=     1 JSym2X= 0.
 CoulSu:  requested number of processors reduced to:  46 ShMem   1 Linda.
 NMat=     1 NSing=     1 JSym2X= 0.
 CoulSu:  requested number of processors reduced to:  46 ShMem   1 Linda.
 Root      1 not converged, maximum delta is    0.042532947994719
 Excitation Energies [eV] at current iteration:
 Root      1 :     2.250750292130617   Change is   -0.002660691874656
 Root      2 :     2.250771414488546   Change is   -0.002658779143834
 Root      3 :     3.061505964499990   Change is   -0.053455224489920
 Iteration     5 Dimension    33 NMult    30 NNew      3
 Estimated number of processors is:   45
 CISAX will form     1 AO SS matrices at one time.
 NMat=     1 NSing=     1 JSym2X= 0.
 CoulSu:  requested number of processors reduced to:  46 ShMem   1 Linda.
 NMat=     1 NSing=     1 JSym2X= 0.
 CoulSu:  requested number of processors reduced to:  46 ShMem   1 Linda.
 NMat=     1 NSing=     1 JSym2X= 0.
 CoulSu:  requested number of processors reduced to:  46 ShMem   1 Linda.
 Root      1 not converged, maximum delta is    0.098342421143493
 Excitation Energies [eV] at current iteration:
 Root      1 :     2.250272518200408   Change is   -0.000477773930209
 Root      2 :     2.250290018103823   Change is   -0.000481396384723
 Root      3 :     3.027625229447779   Change is   -0.033880735052211
 Iteration     6 Dimension    36 NMult    33 NNew      3
 Estimated number of processors is:   45
 CISAX will form     1 AO SS matrices at one time.
 NMat=     1 NSing=     1 JSym2X= 0.
 CoulSu:  requested number of processors reduced to:  46 ShMem   1 Linda.
 NMat=     1 NSing=     1 JSym2X= 0.
 CoulSu:  requested number of processors reduced to:  46 ShMem   1 Linda.
 NMat=     1 NSing=     1 JSym2X= 0.
 CoulSu:  requested number of processors reduced to:  46 ShMem   1 Linda.
 Root      1 not converged, maximum delta is    0.130477989667473
 Excitation Energies [eV] at current iteration:
 Root      1 :     2.250255214457011   Change is   -0.000017303743397
 Root      2 :     2.250270663901333   Change is   -0.000019354202490
 Root      3 :     3.014098258683783   Change is   -0.013526970763997
 Iteration     7 Dimension    39 NMult    36 NNew      3
 Estimated number of processors is:   45
 CISAX will form     1 AO SS matrices at one time.
 NMat=     1 NSing=     1 JSym2X= 0.
 CoulSu:  requested number of processors reduced to:  46 ShMem   1 Linda.
 NMat=     1 NSing=     1 JSym2X= 0.
 CoulSu:  requested number of processors reduced to:  46 ShMem   1 Linda.
 NMat=     1 NSing=     1 JSym2X= 0.
 CoulSu:  requested number of processors reduced to:  46 ShMem   1 Linda.
 Root      1 not converged, maximum delta is    0.026824470142278
 Excitation Energies [eV] at current iteration:
 Root      1 :     2.250253711958728   Change is   -0.000001502498283
 Root      2 :     2.250268978146622   Change is   -0.000001685754711
 Root      3 :     3.011485565785232   Change is   -0.002612692898550
 Iteration     8 Dimension    42 NMult    39 NNew      3
 Estimated number of processors is:   45
 CISAX will form     1 AO SS matrices at one time.
 NMat=     1 NSing=     1 JSym2X= 0.
 CoulSu:  requested number of processors reduced to:  46 ShMem   1 Linda.
 NMat=     1 NSing=     1 JSym2X= 0.
 CoulSu:  requested number of processors reduced to:  46 ShMem   1 Linda.
 NMat=     1 NSing=     1 JSym2X= 0.
 CoulSu:  requested number of processors reduced to:  46 ShMem   1 Linda.
 Root      1 not converged, maximum delta is    0.001999636789904
 Excitation Energies [eV] at current iteration:
 Root      1 :     2.250253602286366   Change is   -0.000000109672362
 Root      2 :     2.250268857503043   Change is   -0.000000120643579
 Root      3 :     3.011201760409719   Change is   -0.000283805375514
 Iteration     9 Dimension    45 NMult    42 NNew      3
 Estimated number of processors is:   45
 CISAX will form     1 AO SS matrices at one time.
 NMat=     1 NSing=     1 JSym2X= 0.
 CoulSu:  requested number of processors reduced to:  46 ShMem   1 Linda.
 NMat=     1 NSing=     1 JSym2X= 0.
 CoulSu:  requested number of processors reduced to:  46 ShMem   1 Linda.
 NMat=     1 NSing=     1 JSym2X= 0.
 CoulSu:  requested number of processors reduced to:  46 ShMem   1 Linda.
 Root      1 has converged.
 Excitation Energies [eV] at current iteration:
 Root      1 :     2.250253591942208   Change is   -0.000000010344158
 Root      2 :     2.250268845623535   Change is   -0.000000011879508
 Root      3 :     3.011172390678904   Change is   -0.000029369730815
 Convergence achieved on expansion vectors.
 ***********************************************************************
 Stability analysis using <AA,BB:AA,BB> singles matrix:
 ***********************************************************************
 1PDM for each excited state written to RWF  633
 Ground to excited state transition densities written to RWF  633

 Eigenvectors of the stability matrix:
 
 Eigenvector   1:  2.911-A    Eigenvalue= 0.0826953  <S**2>=1.869
     17A -> 19A       -0.43166
     17B -> 18B        0.83139
     17B -> 19B        0.27520
     17B -> 23B       -0.10755
 The wavefunction is stable under the perturbations considered.
 Leave Link  914 at Sun Apr 18 10:04:28 2021, MaxMem=   104857600 cpu:            2696.3 elap:              57.2
 (Enter /s/ls4/users/knvvv/bin/g16sse/l508.exe)
 The wavefunction is already stable.
 Leave Link  508 at Sun Apr 18 10:04:28 2021, MaxMem=   104857600 cpu:               2.2 elap:               0.1
 (Enter /s/ls4/users/knvvv/bin/g16sse/l601.exe)
 Copying SCF densities to generalized density rwf, IOpCl= 1 IROHF=0.

 **********************************************************************

            Population analysis using the SCF density.

 **********************************************************************

 Orbital symmetries:
 Alpha Orbitals:
       Occupied  (A) (A) (A) (A) (A) (A) (A) (A) (A) (A) (A) (A)
                 (A) (A) (A) (A) (A) (A)
       Virtual   (A) (A) (A) (A) (A) (A) (A) (A) (A) (A) (A) (A)
                 (A) (A) (A) (A) (A) (A) (A) (A) (A) (A) (A) (A)
                 (A) (A) (A) (A) (A) (A) (A) (A) (A) (A) (A) (A)
                 (A) (A) (A) (A) (A) (A) (A) (A) (A) (A) (A) (A)
                 (A) (A) (A) (A) (A) (A) (A) (A) (A) (A) (A) (A)
                 (A) (A) (A) (A) (A) (A) (A) (A) (A) (A) (A) (A)
                 (A) (A) (A) (A) (A) (A) (A) (A) (A) (A) (A) (A)
                 (A) (A) (A) (A) (A) (A) (A) (A) (A) (A) (A) (A)
                 (A) (A) (A) (A) (A) (A) (A) (A) (A) (A) (A) (A)
                 (A) (A) (A) (A) (A) (A) (A) (A) (A) (A) (A) (A)
                 (A) (A) (A) (A) (A) (A) (A) (A) (A) (A) (A)
 Beta  Orbitals:
       Occupied  (A) (A) (A) (A) (A) (A) (A) (A) (A) (A) (A) (A)
                 (A) (A) (A) (A) (A)
       Virtual   (A) (A) (A) (A) (A) (A) (A) (A) (A) (A) (A) (A)
                 (A) (A) (A) (A) (A) (A) (A) (A) (A) (A) (A) (A)
                 (A) (A) (A) (A) (A) (A) (A) (A) (A) (A) (A) (A)
                 (A) (A) (A) (A) (A) (A) (A) (A) (A) (A) (A) (A)
                 (A) (A) (A) (A) (A) (A) (A) (A) (A) (A) (A) (A)
                 (A) (A) (A) (A) (A) (A) (A) (A) (A) (A) (A) (A)
                 (A) (A) (A) (A) (A) (A) (A) (A) (A) (A) (A) (A)
                 (A) (A) (A) (A) (A) (A) (A) (A) (A) (A) (A) (A)
                 (A) (A) (A) (A) (A) (A) (A) (A) (A) (A) (A) (A)
                 (A) (A) (A) (A) (A) (A) (A) (A) (A) (A) (A) (A)
                 (A) (A) (A) (A) (A) (A) (A) (A) (A) (A) (A) (A)
 The electronic state is 2-A.
 Alpha  occ. eigenvalues -- -102.67752 -25.26764 -10.59811  -9.83741  -7.56833
 Alpha  occ. eigenvalues --   -7.55414  -7.55414  -1.32715  -0.91005  -0.81254
 Alpha  occ. eigenvalues --   -0.56701  -0.55063  -0.55062  -0.51452  -0.51448
 Alpha  occ. eigenvalues --   -0.38007  -0.38007  -0.28406
 Alpha virt. eigenvalues --   -0.07397   0.02023   0.04795   0.04796   0.05652
 Alpha virt. eigenvalues --    0.08690   0.09676   0.09676   0.13607   0.16936
 Alpha virt. eigenvalues --    0.16941   0.21776   0.27986   0.27988   0.32742
 Alpha virt. eigenvalues --    0.32744   0.35585   0.37254   0.37260   0.39581
 Alpha virt. eigenvalues --    0.42806   0.42811   0.45397   0.48295   0.50946
 Alpha virt. eigenvalues --    0.50948   0.53648   0.53657   0.58099   0.62817
 Alpha virt. eigenvalues --    0.68466   0.68471   0.81796   0.84948   0.97976
 Alpha virt. eigenvalues --    0.98871   0.98878   1.06502   1.06512   1.09292
 Alpha virt. eigenvalues --    1.12684   1.12688   1.13630   1.13648   1.16205
 Alpha virt. eigenvalues --    1.16216   1.16329   1.17041   1.17043   1.29939
 Alpha virt. eigenvalues --    1.29944   1.32789   1.33188   1.33197   1.39392
 Alpha virt. eigenvalues --    1.39395   1.51072   1.51080   1.52395   1.55579
 Alpha virt. eigenvalues --    1.84811   1.94125   2.09915   2.09915   2.11769
 Alpha virt. eigenvalues --    2.12035   2.12046   2.37296   2.37333   2.46388
 Alpha virt. eigenvalues --    2.46419   2.49274   2.86755   2.86759   2.88195
 Alpha virt. eigenvalues --    2.92304   2.97020   3.06740   3.10768   3.10773
 Alpha virt. eigenvalues --    3.16802   3.16809   3.35274   3.35283   3.38838
 Alpha virt. eigenvalues --    3.75091   3.75092   3.96870   4.08402   4.08404
 Alpha virt. eigenvalues --    4.13049   4.13055   4.31194   4.31219   4.33280
 Alpha virt. eigenvalues --    4.33281   4.33554   4.37383   4.37385   4.43087
 Alpha virt. eigenvalues --    4.69497   5.14576   5.21827   5.21838   5.24034
 Alpha virt. eigenvalues --    5.24036   5.39881   5.46285   5.46300   6.44336
 Alpha virt. eigenvalues --    6.44337   6.65269   6.68646   6.68687   6.68691
 Alpha virt. eigenvalues --    6.68694   6.77052   6.77054   7.19387   9.07874
 Alpha virt. eigenvalues --    9.07876   9.26810   9.26812   9.60483   9.83075
 Alpha virt. eigenvalues --   20.67865  20.67865  20.92901  24.21097  66.91668
 Alpha virt. eigenvalues --  216.40690
  Beta  occ. eigenvalues -- -102.67286 -25.26776 -10.59354  -9.83613  -7.55640
  Beta  occ. eigenvalues --   -7.55263  -7.55263  -1.32650  -0.89271  -0.77795
  Beta  occ. eigenvalues --   -0.56290  -0.54907  -0.54907  -0.50701  -0.50697
  Beta  occ. eigenvalues --   -0.37191  -0.37191
  Beta virt. eigenvalues --   -0.09683  -0.01672   0.01929   0.04900   0.04901
  Beta virt. eigenvalues --    0.06281   0.09482   0.09662   0.09663   0.14248
  Beta virt. eigenvalues --    0.17161   0.17166   0.22523   0.27374   0.27376
  Beta virt. eigenvalues --    0.32875   0.32877   0.35136   0.37730   0.37737
  Beta virt. eigenvalues --    0.38516   0.42764   0.42770   0.46003   0.50441
  Beta virt. eigenvalues --    0.51154   0.51156   0.54713   0.54721   0.58786
  Beta virt. eigenvalues --    0.62755   0.69540   0.69546   0.82403   0.84979
  Beta virt. eigenvalues --    0.98685   0.98692   0.99702   1.06857   1.06865
  Beta virt. eigenvalues --    1.07644   1.13040   1.13043   1.13921   1.13935
  Beta virt. eigenvalues --    1.16735   1.16759   1.16779   1.17027   1.17029
  Beta virt. eigenvalues --    1.30931   1.30935   1.33584   1.33592   1.33664
  Beta virt. eigenvalues --    1.40805   1.40808   1.51027   1.51037   1.53687
  Beta virt. eigenvalues --    1.57413   1.85086   1.93879   2.10602   2.10603
  Beta virt. eigenvalues --    2.11977   2.11988   2.14953   2.38877   2.38919
  Beta virt. eigenvalues --    2.46846   2.46881   2.51266   2.92461   2.92467
  Beta virt. eigenvalues --    2.93965   2.96479   3.00732   3.15199   3.15204
  Beta virt. eigenvalues --    3.15579   3.21395   3.21402   3.42215   3.42225
  Beta virt. eigenvalues --    3.45820   3.78515   3.78517   4.02135   4.12550
  Beta virt. eigenvalues --    4.12554   4.16887   4.16895   4.33893   4.33894
  Beta virt. eigenvalues --    4.35569   4.35593   4.37023   4.43674   4.43675
  Beta virt. eigenvalues --    4.49720   4.72534   5.22026   5.22036   5.22961
  Beta virt. eigenvalues --    5.25430   5.25432   5.40656   5.52542   5.52560
  Beta virt. eigenvalues --    6.44006   6.44007   6.62985   6.67770   6.67774
  Beta virt. eigenvalues --    6.68496   6.68542   6.75636   6.75639   7.18501
  Beta virt. eigenvalues --    9.07553   9.07554   9.24409   9.24411   9.57836
  Beta virt. eigenvalues --    9.83301  20.68371  20.68371  20.95804  24.22700
  Beta virt. eigenvalues --   66.92145 216.41422
          Condensed to atoms (all electrons):
               1          2          3          4          5          6
     1  Cl  17.075968  -0.057755   0.029874  -0.000373  -0.000376  -0.000381
     2  F   -0.057755   9.281574  -0.081355  -0.004159  -0.004162  -0.004139
     3  C    0.029874  -0.081355   5.171210   0.398265   0.398264   0.398222
     4  H   -0.000373  -0.004159   0.398265   0.495556  -0.026550  -0.026523
     5  H   -0.000376  -0.004162   0.398264  -0.026550   0.495550  -0.026541
     6  H   -0.000381  -0.004139   0.398222  -0.026523  -0.026541   0.495522
          Atomic-Atomic Spin Densities.
               1          2          3          4          5          6
     1  Cl   0.458978  -0.106516   0.037002  -0.000479  -0.000479  -0.000480
     2  F   -0.106516   0.054799  -0.085011   0.002571   0.002580   0.002590
     3  C    0.037002  -0.085011   0.876456  -0.003365  -0.003381  -0.003403
     4  H   -0.000479   0.002571  -0.003365  -0.029447   0.002464   0.002468
     5  H   -0.000479   0.002580  -0.003381   0.002464  -0.029433   0.002473
     6  H   -0.000480   0.002590  -0.003403   0.002468   0.002473  -0.029421
 Mulliken charges and spin densities:
               1          2
     1  Cl  -0.046957   0.388026
     2  F   -0.130005  -0.128988
     3  C   -0.314480   0.818298
     4  H    0.163786  -0.025788
     5  H    0.163816  -0.025776
     6  H    0.163840  -0.025773
 Sum of Mulliken charges =  -0.00000   1.00000
 Mulliken charges and spin densities with hydrogens summed into heavy atoms:
               1          2
     1  Cl  -0.046957   0.388026
     2  F   -0.130005  -0.128988
     3  C    0.176961   0.740962
 Electronic spatial extent (au):  <R**2>=            384.4707
 Charge=             -0.0000 electrons
 Dipole moment (field-independent basis, Debye):
    X=             -2.3675    Y=             -0.0067    Z=             -0.0001  Tot=              2.3675
 Quadrupole moment (field-independent basis, Debye-Ang):
   XX=            -19.5324   YY=            -24.7634   ZZ=            -24.7643
   XY=             -0.0017   XZ=              0.0002   YZ=             -0.0001
 Traceless Quadrupole moment (field-independent basis, Debye-Ang):
   XX=              3.4877   YY=             -1.7434   ZZ=             -1.7442
   XY=             -0.0017   XZ=              0.0002   YZ=             -0.0001
 Octapole moment (field-independent basis, Debye-Ang**2):
  XXX=             -0.8561  YYY=              0.4132  ZZZ=              0.9994  XYY=             -1.7356
  XXY=              0.0078  XXZ=             -0.0016  XZZ=             -1.7306  YZZ=             -0.3804
  YYZ=             -0.9983  XYZ=              0.0037
 Hexadecapole moment (field-independent basis, Debye-Ang**3):
 XXXX=           -429.5289 YYYY=            -32.0889 ZZZZ=            -32.0843 XXXY=             -0.1610
 XXXZ=              0.0034 YYYX=             -0.9909 YYYZ=              0.0078 ZZZX=             -2.5185
 ZZZY=             -0.0030 XXYY=            -77.3983 XXZZ=            -77.4188 YYZZ=            -10.6926
 XXYZ=             -0.0179 YYXZ=              2.5185 ZZXY=              0.9766
 N-N= 9.559991778228D+01 E-N=-1.616829345622D+03  KE= 5.988314126871D+02
                          Isotropic Fermi Contact Couplings
        Atom                 a.u.       MegaHertz       Gauss      10(-4) cm-1
     1  Cl(35)            -0.02980     -13.06758      -4.66284      -4.35888
     2  F(19)              0.55402    2331.00623     831.76099     777.53999
     3  C(13)              0.14757     165.89280      59.19468      55.33588
     4  H(1)              -0.01157     -51.72661     -18.45734     -17.25414
     5  H(1)              -0.01157     -51.70838     -18.45083     -17.24806
     6  H(1)              -0.01156     -51.68645     -18.44301     -17.24074
 --------------------------------------------------------
       Center         ----  Spin Dipole Couplings  ----
                      3XX-RR        3YY-RR        3ZZ-RR
 --------------------------------------------------------
     1   Atom        2.473647     -1.236827     -1.236819
     2   Atom       -0.715263      0.357662      0.357601
     3   Atom        0.808335     -0.404160     -0.404175
     4   Atom       -0.002383      0.016336     -0.013953
     5   Atom       -0.002341     -0.052516      0.054857
     6   Atom       -0.002263      0.039702     -0.037439
 --------------------------------------------------------
                        XY            XZ            YZ
 --------------------------------------------------------
     1   Atom       -0.005189     -0.000036      0.000000
     2   Atom       -0.006387     -0.000262      0.000002
     3   Atom        0.003956     -0.000253      0.000006
     4   Atom        0.007104      0.005226      0.053290
     5   Atom        0.001273     -0.008831     -0.013610
     6   Atom       -0.008383      0.003607     -0.039706
 --------------------------------------------------------


 ---------------------------------------------------------------------------------
              Anisotropic Spin Dipole Couplings in Principal Axis System
 ---------------------------------------------------------------------------------

       Atom             a.u.   MegaHertz   Gauss  10(-4) cm-1        Axes

              Baa    -1.2368   -64.733   -23.098   -21.593  0.0014  0.9998 -0.0213
     1 Cl(35) Bbb    -1.2368   -64.732   -23.098   -21.592  0.0000  0.0213  0.9998
              Bcc     2.4737   129.465    46.196    43.185  1.0000 -0.0014 -0.0000
 
              Baa    -0.7153  -359.243  -128.187  -119.830  1.0000  0.0060  0.0002
     2 F(19)  Bbb     0.3576   179.596    64.084    59.907 -0.0000 -0.0380  0.9993
              Bcc     0.3577   179.646    64.102    59.924 -0.0060  0.9993  0.0380
 
              Baa    -0.4042   -54.237   -19.353   -18.092  0.0022 -0.6388  0.7694
     3 C(13)  Bbb    -0.4042   -54.235   -19.353   -18.091 -0.0024  0.7694  0.6388
              Bcc     0.8083   108.473    38.706    36.183  1.0000  0.0033 -0.0002
 
              Baa    -0.0542   -28.923   -10.321    -9.648  0.0022 -0.6029  0.7978
     4 H(1)   Bbb    -0.0037    -1.960    -0.699    -0.654  0.9895 -0.1142 -0.0890
              Bcc     0.0579    30.883    11.020    10.301  0.1448  0.7896  0.5963
 
              Baa    -0.0542   -28.927   -10.322    -9.649 -0.0033  0.9923  0.1236
     5 H(1)   Bbb    -0.0037    -1.954    -0.697    -0.652  0.9892 -0.0149  0.1458
              Bcc     0.0579    30.880    11.019    10.300 -0.1465 -0.1227  0.9816
 
              Baa    -0.0542   -28.932   -10.323    -9.651 -0.0011  0.3893  0.9211
     6 H(1)   Bbb    -0.0036    -1.946    -0.694    -0.649  0.9887  0.1386 -0.0574
              Bcc     0.0579    30.878    11.018    10.300 -0.1500  0.9106 -0.3850
 

 ---------------------------------------------------------------------------------

 No NMR shielding tensors so no spin-rotation constants.
 Leave Link  601 at Sun Apr 18 10:04:30 2021, MaxMem=   104857600 cpu:              77.0 elap:               1.7
 (Enter /s/ls4/users/knvvv/bin/g16sse/l9999.exe)

 Test job not archived.
 1\1\GINC-N178\Stability\UM062X\Gen\C1H3Cl1F1(2)\KNVVV\18-Apr-2021\0\\#
 P M062X/GEN Integral=UltraFineGrid SCF=NoSymm Stable=(RExt, Opt) IOp(1
 /33=1)\\Database calculations.\\0,2\Cl,0,1.4547504867,-0.0012369994,-0
 .00004\F,0,-0.3235871018,0.0046310044,0.000124\C,0,-2.3874200289,-0.00
 21469989,-0.000073\H,0,-2.4950864242,-0.8553620435,-0.6494062731\H,0,-
 2.4973142603,-0.1386730048,1.0631381836\H,0,-2.5015370944,0.9862699019
 ,-0.4137340272\\Version=ES64L-G16RevA.03\State=2-A\HF=-599.7750898\S2=
 0.772534\S2-1=0.\S2A=0.750136\RMSD=9.048e-09\Dipole=-0.9314339,-0.0026
 488,-0.0000445\Quadrupole=2.5929894,-1.2961913,-1.2967982,-0.0012783,0
 .0001441,-0.0000884\PG=C01 [X(C1H3Cl1F1)]\\@


       THE DEATH-KNELL OF THE ATOM

 SO THE ATOMS IN TURN, WE NOW CLEARLY DISCERN,
 FLY TO BITS WITH THE UTMOST FACILITY;
 THEY WEND ON THEIR WAY, AND, IN SPLITTING, DISPLAY
 AN ABSOLUTE LACK OF STABILITY.

          SIR WM. RAMSAY, 1905
 Job cpu time:       0 days  1 hours 10 minutes  5.7 seconds.
 Elapsed time:       0 days  0 hours  1 minutes 29.8 seconds.
 File lengths (MBytes):  RWF=    125 Int=      0 D2E=      0 Chk=      4 Scr=      1
 Normal termination of Gaussian 16 at Sun Apr 18 10:04:30 2021.
