 Entering Gaussian System, Link 0=/s/ls4/groups/g0130/bin/g16/g16
 Input=M062X--def2-QZVPPD--20_C24RingC12h_C20C24.gjf
 Output=M062X--def2-QZVPPD--20_C24RingC12h_C20C24.log
 Initial command:
 /s/ls4/groups/g0130/bin/g16/l1.exe "/dev/shm/scratch_knvvv/Gau-2155.inp" -scrdir="/dev/shm/scratch_knvvv/"
 Entering Link 1 = /s/ls4/groups/g0130/bin/g16/l1.exe PID=      2156.
  
 Copyright (c) 1988,1990,1992,1993,1995,1998,2003,2009,2016,
            Gaussian, Inc.  All Rights Reserved.
  
 This is part of the Gaussian(R) 16 program.  It is based on
 the Gaussian(R) 09 system (copyright 2009, Gaussian, Inc.),
 the Gaussian(R) 03 system (copyright 2003, Gaussian, Inc.),
 the Gaussian(R) 98 system (copyright 1998, Gaussian, Inc.),
 the Gaussian(R) 94 system (copyright 1995, Gaussian, Inc.),
 the Gaussian 92(TM) system (copyright 1992, Gaussian, Inc.),
 the Gaussian 90(TM) system (copyright 1990, Gaussian, Inc.),
 the Gaussian 88(TM) system (copyright 1988, Gaussian, Inc.),
 the Gaussian 86(TM) system (copyright 1986, Carnegie Mellon
 University), and the Gaussian 82(TM) system (copyright 1983,
 Carnegie Mellon University). Gaussian is a federally registered
 trademark of Gaussian, Inc.
  
 This software contains proprietary and confidential information,
 including trade secrets, belonging to Gaussian, Inc.
  
 This software is provided under written license and may be
 used, copied, transmitted, or stored only in accord with that
 written license.
  
 The following legend is applicable only to US Government
 contracts under FAR:
  
                    RESTRICTED RIGHTS LEGEND
  
 Use, reproduction and disclosure by the US Government is
 subject to restrictions as set forth in subparagraphs (a)
 and (c) of the Commercial Computer Software - Restricted
 Rights clause in FAR 52.227-19.
  
 Gaussian, Inc.
 340 Quinnipiac St., Bldg. 40, Wallingford CT 06492
  
  
 ---------------------------------------------------------------
 Warning -- This program may not be used in any manner that
 competes with the business of Gaussian, Inc. or will provide
 assistance to any competitor of Gaussian, Inc.  The licensee
 of this program is prohibited from giving any competitor of
 Gaussian, Inc. access to this program.  By using this program,
 the user acknowledges that Gaussian, Inc. is engaged in the
 business of creating and licensing software in the field of
 computational chemistry and represents and warrants to the
 licensee that it is not a competitor of Gaussian, Inc. and that
 it will not use this program in any manner prohibited above.
 ---------------------------------------------------------------
  

 Cite this work as:
 Gaussian 16, Revision A.03,
 M. J. Frisch, G. W. Trucks, H. B. Schlegel, G. E. Scuseria, 
 M. A. Robb, J. R. Cheeseman, G. Scalmani, V. Barone, 
 G. A. Petersson, H. Nakatsuji, X. Li, M. Caricato, A. V. Marenich, 
 J. Bloino, B. G. Janesko, R. Gomperts, B. Mennucci, H. P. Hratchian, 
 J. V. Ortiz, A. F. Izmaylov, J. L. Sonnenberg, D. Williams-Young, 
 F. Ding, F. Lipparini, F. Egidi, J. Goings, B. Peng, A. Petrone, 
 T. Henderson, D. Ranasinghe, V. G. Zakrzewski, J. Gao, N. Rega, 
 G. Zheng, W. Liang, M. Hada, M. Ehara, K. Toyota, R. Fukuda, 
 J. Hasegawa, M. Ishida, T. Nakajima, Y. Honda, O. Kitao, H. Nakai, 
 T. Vreven, K. Throssell, J. A. Montgomery, Jr., J. E. Peralta, 
 F. Ogliaro, M. J. Bearpark, J. J. Heyd, E. N. Brothers, K. N. Kudin, 
 V. N. Staroverov, T. A. Keith, R. Kobayashi, J. Normand, 
 K. Raghavachari, A. P. Rendell, J. C. Burant, S. S. Iyengar, 
 J. Tomasi, M. Cossi, J. M. Millam, M. Klene, C. Adamo, R. Cammi, 
 J. W. Ochterski, R. L. Martin, K. Morokuma, O. Farkas, 
 J. B. Foresman, and D. J. Fox, Gaussian, Inc., Wallingford CT, 2016.
 
 ******************************************
 Gaussian 16:  ES64L-G16RevA.03 25-Dec-2016
                24-Apr-2021 
 ******************************************
 %nprocshared=48
 Will use up to   48 processors via shared memory.
 %mem=90GB
 %chk=C24.chk
 ----------------------------------------------------------------------
 #P M062X/GEN Integral=UltraFineGrid scf=(IntRep,nosymm,xqc,maxconven=1
 55) Stable=(RExt, Opt) IOp(1/33=1)
 ----------------------------------------------------------------------
 1/33=1,38=1,172=1/1;
 2/12=2,17=6,18=5,40=1/2;
 3/5=7,11=2,25=1,30=1,74=-55,75=-5/1,2,3;
 4/9=2/1;
 5/5=2,8=3,13=1,17=20,38=5,85=155/2,8;
 6/7=2,8=2,9=2,10=2,28=1/1;
 8/6=1,10=90,11=11/1;
 9/8=-3,42=1,46=1/14;
 5/5=2,8=3,17=40,38=5/8(-2);
 6/7=2,8=2,9=2,10=2,28=1/1;
 99/5=1,9=1/99;
 Leave Link    1 at Sat Apr 24 20:21:18 2021, MaxMem= 12079595520 cpu:              10.4 elap:               0.2
 (Enter /s/ls4/groups/g0130/bin/g16/l101.exe)
 ONIOM data not found on unit 2.
 ----------------------
 Database calculations.
 ----------------------
 TstMul:  ICh=     0
 TstMul:  Mul=     1
 TstMul:  ICh=     0
 TstMul:  Mul=     1
 Symbolic Z-matrix:
 Charge =  0 Multiplicity = 1
 C                     0.61378   4.87184   0. 
 C                     2.96747   3.91225   0. 
 C                     4.52603   1.90437   0. 
 C                     4.87184  -0.61378   0. 
 C                     3.91225  -2.96747   0. 
 C                     1.90437  -4.52603   0. 
 C                    -0.61378  -4.87184   0. 
 C                    -2.96747  -3.91225   0. 
 C                    -4.52603  -1.90437   0. 
 C                    -4.87184   0.61378   0. 
 C                    -3.91225   2.96747   0. 
 C                    -1.90437   4.52603   0. 
 C                     1.90437   4.52603   0. 
 C                     3.91225   2.96747   0. 
 C                     4.87184   0.61378   0. 
 C                     4.52603  -1.90437   0. 
 C                     2.96747  -3.91225   0. 
 C                     0.61378  -4.87184   0. 
 C                    -1.90437  -4.52603   0. 
 C                    -3.91225  -2.96747   0. 
 C                    -4.87184  -0.61378   0. 
 C                    -4.52603   1.90437   0. 
 C                    -2.96747   3.91225   0. 
 C                    -0.61378   4.87184   0. 
 
 RdStrC is calling ZToCFu for IStruc=1 NZ=    24.
 PrtBox:  NBox=     7 Levels=  2 BoxLen=    8.00 SMaxX=       18.41
          Shift=            9.206451            9.206451            0.000000
 Box      1 Number                   0 centers from      1 to      4:
 Box      2 Number                   2 centers from      5 to      8:
 Box      3 Number                   4 centers from      9 to     12:
 Box      4 Number                  16 centers from     13 to     14:
 Box      5 Number                  20 centers from     15 to     18:
 Box      6 Number                  32 centers from     19 to     20:
 Box      7 Number                  34 centers from     21 to     24:
 After GenITR:
 ITRead=  0  0  0  0  0  0  0  0  0  0  0  0  0  0  0  0  0  0  0  0
 ITRead=  0  0  0  0
 MicOpt= -1 -1 -1 -1 -1 -1 -1 -1 -1 -1 -1 -1 -1 -1 -1 -1 -1 -1 -1 -1
 MicOpt= -1 -1 -1 -1
 ITRead=  0  0  0  0  0  0  0  0  0  0  0  0  0  0  0  0  0  0  0  0
 ITRead=  0  0  0  0
 MicOpt= -1 -1 -1 -1 -1 -1 -1 -1 -1 -1 -1 -1 -1 -1 -1 -1 -1 -1 -1 -1
 MicOpt= -1 -1 -1 -1
 NAtoms=     24 NQM=       24 NQMF=       0 NMMI=      0 NMMIF=      0
                NMic=       0 NMicF=      0.
                    Isotopes and Nuclear Properties:
 (Nuclear quadrupole moments (NQMom) in fm**2, nuclear magnetic moments (NMagM)
  in nuclear magnetons)

  Atom         1           2           3           4           5           6           7           8           9          10
 IAtWgt=          12          12          12          12          12          12          12          12          12          12
 AtmWgt=  12.0000000  12.0000000  12.0000000  12.0000000  12.0000000  12.0000000  12.0000000  12.0000000  12.0000000  12.0000000
 NucSpn=           0           0           0           0           0           0           0           0           0           0
 AtZEff=  -0.0000000  -0.0000000  -0.0000000  -0.0000000  -0.0000000  -0.0000000  -0.0000000  -0.0000000  -0.0000000  -0.0000000
 NQMom=    0.0000000   0.0000000   0.0000000   0.0000000   0.0000000   0.0000000   0.0000000   0.0000000   0.0000000   0.0000000
 NMagM=    0.0000000   0.0000000   0.0000000   0.0000000   0.0000000   0.0000000   0.0000000   0.0000000   0.0000000   0.0000000
 AtZNuc=   6.0000000   6.0000000   6.0000000   6.0000000   6.0000000   6.0000000   6.0000000   6.0000000   6.0000000   6.0000000

  Atom        11          12          13          14          15          16          17          18          19          20
 IAtWgt=          12          12          12          12          12          12          12          12          12          12
 AtmWgt=  12.0000000  12.0000000  12.0000000  12.0000000  12.0000000  12.0000000  12.0000000  12.0000000  12.0000000  12.0000000
 NucSpn=           0           0           0           0           0           0           0           0           0           0
 AtZEff=  -0.0000000  -0.0000000  -0.0000000  -0.0000000  -0.0000000  -0.0000000  -0.0000000  -0.0000000  -0.0000000  -0.0000000
 NQMom=    0.0000000   0.0000000   0.0000000   0.0000000   0.0000000   0.0000000   0.0000000   0.0000000   0.0000000   0.0000000
 NMagM=    0.0000000   0.0000000   0.0000000   0.0000000   0.0000000   0.0000000   0.0000000   0.0000000   0.0000000   0.0000000
 AtZNuc=   6.0000000   6.0000000   6.0000000   6.0000000   6.0000000   6.0000000   6.0000000   6.0000000   6.0000000   6.0000000

  Atom        21          22          23          24
 IAtWgt=          12          12          12          12
 AtmWgt=  12.0000000  12.0000000  12.0000000  12.0000000
 NucSpn=           0           0           0           0
 AtZEff=  -0.0000000  -0.0000000  -0.0000000  -0.0000000
 NQMom=    0.0000000   0.0000000   0.0000000   0.0000000
 NMagM=    0.0000000   0.0000000   0.0000000   0.0000000
 AtZNuc=   6.0000000   6.0000000   6.0000000   6.0000000
 No MM parameters found.
 Leave Link  101 at Sat Apr 24 20:21:19 2021, MaxMem= 12079595520 cpu:              13.3 elap:               0.3
 (Enter /s/ls4/groups/g0130/bin/g16/l202.exe)
                          Input orientation:                          
 ---------------------------------------------------------------------
 Center     Atomic      Atomic             Coordinates (Angstroms)
 Number     Number       Type             X           Y           Z
 ---------------------------------------------------------------------
      1          6           0        0.613780    4.871844    0.000000
      2          6           0        2.967471    3.912251    0.000000
      3          6           0        4.526031    1.904373    0.000000
      4          6           0        4.871844   -0.613780    0.000000
      5          6           0        3.912251   -2.967471    0.000000
      6          6           0        1.904373   -4.526031    0.000000
      7          6           0       -0.613780   -4.871844    0.000000
      8          6           0       -2.967471   -3.912251    0.000000
      9          6           0       -4.526031   -1.904373    0.000000
     10          6           0       -4.871844    0.613780    0.000000
     11          6           0       -3.912251    2.967471    0.000000
     12          6           0       -1.904373    4.526031    0.000000
     13          6           0        1.904373    4.526031    0.000000
     14          6           0        3.912251    2.967471    0.000000
     15          6           0        4.871844    0.613780    0.000000
     16          6           0        4.526031   -1.904373    0.000000
     17          6           0        2.967471   -3.912251    0.000000
     18          6           0        0.613780   -4.871844    0.000000
     19          6           0       -1.904373   -4.526031    0.000000
     20          6           0       -3.912251   -2.967471    0.000000
     21          6           0       -4.871844   -0.613780    0.000000
     22          6           0       -4.526031    1.904373    0.000000
     23          6           0       -2.967471    3.912251    0.000000
     24          6           0       -0.613780    4.871844    0.000000
 ---------------------------------------------------------------------
                    Distance matrix (angstroms):
                    1          2          3          4          5
     1  C    0.000000
     2  C    2.541787   0.000000
     3  C    4.910356   2.541787   0.000000
     4  C    6.944291   4.910356   2.541787   0.000000
     5  C    8.504985   6.944291   4.910355   2.541787   0.000000
     6  C    9.486078   8.504986   6.944292   4.910356   2.541787
     7  C    9.820711   9.486078   8.504985   6.944291   4.910356
     8  C    9.486078   9.820711   9.486079   8.504985   6.944291
     9  C    8.504985   9.486079   9.820711   9.486078   8.504986
    10  C    6.944291   8.504985   9.486078   9.820711   9.486078
    11  C    4.910356   6.944291   8.504986   9.486078   9.820711
    12  C    2.541787   4.910355   6.944292   8.504985   9.486079
    13  C    1.336120   1.227560   3.707584   5.934942   7.757844
    14  C    3.808746   1.336121   1.227560   3.707584   5.934942
    15  C    6.021812   3.808746   1.336120   1.227560   3.707584
    16  C    7.824502   6.021812   3.808746   1.336120   1.227560
    17  C    9.093964   7.824502   6.021812   3.808746   1.336121
    18  C    9.743688   9.093964   7.824502   6.021812   3.808746
    19  C    9.729396   9.743689   9.093965   7.824502   6.021812
    20  C    9.052061   9.729396   9.743689   9.093964   7.824502
    21  C    7.757844   9.052061   9.729396   9.743688   9.093964
    22  C    5.934942   7.757844   9.052062   9.729396   9.743689
    23  C    3.707584   5.934942   7.757844   9.052061   9.729396
    24  C    1.227560   3.707584   5.934942   7.757844   9.052061
                    6          7          8          9         10
     6  C    0.000000
     7  C    2.541787   0.000000
     8  C    4.910355   2.541787   0.000000
     9  C    6.944292   4.910356   2.541787   0.000000
    10  C    8.504985   6.944291   4.910356   2.541787   0.000000
    11  C    9.486079   8.504985   6.944291   4.910355   2.541787
    12  C    9.820711   9.486078   8.504986   6.944292   4.910356
    13  C    9.052062   9.729396   9.743689   9.093965   7.824502
    14  C    7.757844   9.052061   9.729396   9.743689   9.093964
    15  C    5.934942   7.757844   9.052061   9.729396   9.743688
    16  C    3.707584   5.934942   7.757844   9.052062   9.729396
    17  C    1.227560   3.707584   5.934942   7.757844   9.052061
    18  C    1.336120   1.227560   3.707584   5.934942   7.757844
    19  C    3.808746   1.336120   1.227560   3.707584   5.934942
    20  C    6.021812   3.808746   1.336121   1.227560   3.707584
    21  C    7.824502   6.021812   3.808746   1.336120   1.227560
    22  C    9.093965   7.824502   6.021812   3.808746   1.336120
    23  C    9.743689   9.093964   7.824502   6.021812   3.808746
    24  C    9.729396   9.743688   9.093964   7.824502   6.021812
                   11         12         13         14         15
    11  C    0.000000
    12  C    2.541787   0.000000
    13  C    6.021812   3.808746   0.000000
    14  C    7.824502   6.021812   2.541787   0.000000
    15  C    9.093964   7.824502   4.910356   2.541787   0.000000
    16  C    9.743689   9.093965   6.944292   4.910355   2.541787
    17  C    9.729396   9.743689   8.504986   6.944291   4.910356
    18  C    9.052061   9.729396   9.486078   8.504985   6.944291
    19  C    7.757844   9.052062   9.820711   9.486079   8.504985
    20  C    5.934942   7.757844   9.486079   9.820711   9.486078
    21  C    3.707584   5.934942   8.504985   9.486078   9.820711
    22  C    1.227560   3.707584   6.944292   8.504986   9.486078
    23  C    1.336121   1.227560   4.910355   6.944291   8.504985
    24  C    3.808746   1.336120   2.541787   4.910356   6.944291
                   16         17         18         19         20
    16  C    0.000000
    17  C    2.541787   0.000000
    18  C    4.910356   2.541787   0.000000
    19  C    6.944292   4.910355   2.541787   0.000000
    20  C    8.504986   6.944291   4.910356   2.541787   0.000000
    21  C    9.486078   8.504985   6.944291   4.910356   2.541787
    22  C    9.820711   9.486079   8.504985   6.944292   4.910355
    23  C    9.486079   9.820711   9.486078   8.504986   6.944291
    24  C    8.504985   9.486078   9.820711   9.486078   8.504985
                   21         22         23         24
    21  C    0.000000
    22  C    2.541787   0.000000
    23  C    4.910356   2.541787   0.000000
    24  C    6.944291   4.910356   2.541787   0.000000
 No symmetry labels for this point group.
 Stoichiometry    C24
 Framework group  D12H[SGH(C24)]
 Deg. of freedom     2
 Full point group                 D12H    NOp  48
 Largest Abelian subgroup         D2H     NOp   8
 Largest concise Abelian subgroup D2      NOp   4
                         Standard orientation:                         
 ---------------------------------------------------------------------
 Center     Atomic      Atomic             Coordinates (Angstroms)
 Number     Number       Type             X           Y           Z
 ---------------------------------------------------------------------
      1          6           0        0.613780    4.871844    0.000000
      2          6           0        2.967471    3.912251    0.000000
      3          6           0        4.526031    1.904373    0.000000
      4          6           0        4.871844   -0.613780    0.000000
      5          6           0        3.912251   -2.967471    0.000000
      6          6           0        1.904373   -4.526031    0.000000
      7          6           0       -0.613780   -4.871844    0.000000
      8          6           0       -2.967471   -3.912251    0.000000
      9          6           0       -4.526031   -1.904373    0.000000
     10          6           0       -4.871844    0.613780    0.000000
     11          6           0       -3.912251    2.967471    0.000000
     12          6           0       -1.904373    4.526031    0.000000
     13          6           0        1.904373    4.526031   -0.000000
     14          6           0        3.912251    2.967471   -0.000000
     15          6           0        4.871844    0.613780   -0.000000
     16          6           0        4.526031   -1.904373   -0.000000
     17          6           0        2.967471   -3.912251   -0.000000
     18          6           0        0.613780   -4.871844   -0.000000
     19          6           0       -1.904373   -4.526031   -0.000000
     20          6           0       -3.912251   -2.967471   -0.000000
     21          6           0       -4.871844   -0.613780   -0.000000
     22          6           0       -4.526031    1.904373   -0.000000
     23          6           0       -2.967471    3.912251   -0.000000
     24          6           0       -0.613780    4.871844   -0.000000
 ---------------------------------------------------------------------
 Rotational constants (GHZ):           0.1455556           0.1455556           0.0727778
 Leave Link  202 at Sat Apr 24 20:21:20 2021, MaxMem= 12079595520 cpu:              34.9 elap:               0.8
 (Enter /s/ls4/groups/g0130/bin/g16/l301.exe)
 General basis read from cards:  (5D, 7F)
 Centers:       1      2      3      4      5      6      7      8      9     10
 Centers:      11     12     13     14     15     16     17     18     19     20
 Centers:      21     22     23     24
 S 8 1.00
     Exponent=  6.7025071029D+04 Coefficients=  3.8736308501D-05
     Exponent=  1.0039986538D+04 Coefficients=  3.0107917575D-04
     Exponent=  2.2849316911D+03 Coefficients=  1.5787918095D-03
     Exponent=  6.4714122130D+02 Coefficients=  6.6087087195D-03
     Exponent=  2.1109472335D+02 Coefficients=  2.3367123250D-02
     Exponent=  7.6177643862D+01 Coefficients=  7.0420716898D-02
     Exponent=  2.9633839163D+01 Coefficients=  1.7360344953D-01
     Exponent=  1.2187785081D+01 Coefficients=  3.2292305648D-01
 S 2 1.00
     Exponent=  5.3026006299D+01 Coefficients=  7.4897404492D-02
     Exponent=  1.5258502776D+01 Coefficients=  7.6136220983D-01
 S 1 1.00
     Exponent=  5.2403957464D+00 Coefficients=  1.0000000000D+00
 S 1 1.00
     Exponent=  2.2905022379D+00 Coefficients=  1.0000000000D+00
 S 1 1.00
     Exponent=  6.9673283006D-01 Coefficients=  1.0000000000D+00
 S 1 1.00
     Exponent=  2.7599337363D-01 Coefficients=  1.0000000000D+00
 S 1 1.00
     Exponent=  1.0739884389D-01 Coefficients=  1.0000000000D+00
 S 1 1.00
     Exponent=  4.4981404899D-02 Coefficients=  1.0000000000D+00
 P 5 1.00
     Exponent=  1.0512555082D+02 Coefficients=  8.4647553844D-04
     Exponent=  2.4884461066D+01 Coefficients=  6.6274038534D-03
     Exponent=  7.8637230826D+00 Coefficients=  3.0120390419D-02
     Exponent=  2.8407001835D+00 Coefficients=  9.9951435476D-02
     Exponent=  1.1227137335D+00 Coefficients=  2.3826299282D-01
 P 1 1.00
     Exponent=  4.6050725555D-01 Coefficients=  1.0000000000D+00
 P 1 1.00
     Exponent=  1.8937530913D-01 Coefficients=  1.0000000000D+00
 P 1 1.00
     Exponent=  7.5983791611D-02 Coefficients=  1.0000000000D+00
 D 1 1.00
     Exponent=  1.8480000000D+00 Coefficients=  1.0000000000D+00
 D 1 1.00
     Exponent=  6.4900000000D-01 Coefficients=  1.0000000000D+00
 D 1 1.00
     Exponent=  2.2800000000D-01 Coefficients=  1.0000000000D+00
 D 1 1.00
     Exponent=  7.6889830417D-02 Coefficients=  1.0000000000D+00
 F 1 1.00
     Exponent=  1.4190000000D+00 Coefficients=  1.0000000000D+00
 F 1 1.00
     Exponent=  4.8500000000D-01 Coefficients=  1.0000000000D+00
 G 1 1.00
     Exponent=  1.0110000000D+00 Coefficients=  1.0000000000D+00
 ****
 Ernie: Thresh=  0.10000D-02 Tol=  0.10000D-05 Strict=F.
 There are   318 symmetry adapted cartesian basis functions of AG  symmetry.
 There are   318 symmetry adapted cartesian basis functions of B1G symmetry.
 There are   156 symmetry adapted cartesian basis functions of B2G symmetry.
 There are   156 symmetry adapted cartesian basis functions of B3G symmetry.
 There are   156 symmetry adapted cartesian basis functions of AU  symmetry.
 There are   156 symmetry adapted cartesian basis functions of B1U symmetry.
 There are   318 symmetry adapted cartesian basis functions of B2U symmetry.
 There are   318 symmetry adapted cartesian basis functions of B3U symmetry.
 There are   246 symmetry adapted basis functions of AG  symmetry.
 There are   246 symmetry adapted basis functions of B1G symmetry.
 There are   132 symmetry adapted basis functions of B2G symmetry.
 There are   132 symmetry adapted basis functions of B3G symmetry.
 There are   132 symmetry adapted basis functions of AU  symmetry.
 There are   132 symmetry adapted basis functions of B1U symmetry.
 There are   246 symmetry adapted basis functions of B2U symmetry.
 There are   246 symmetry adapted basis functions of B3U symmetry.
  1512 basis functions,  2376 primitive gaussians,  1896 cartesian basis functions
    72 alpha electrons       72 beta electrons
       nuclear repulsion energy      1175.5792433651 Hartrees.
 IExCor= 4336 DFT=T Ex+Corr=M062X ExCW=0 ScaHFX=  0.540000
 ScaDFX=  1.000000  1.000000  1.000000  1.000000 ScalE2=  1.000000  1.000000
 IRadAn=      5 IRanWt=     -1 IRanGd=            0 ICorTp=0 IEmpDi=  4
 NAtoms=   24 NActive=   24 NUniq=    1 SFac= 4.00D+00 NAtFMM=   60 NAOKFM=F Big=F
 Integral buffers will be    131072 words long.
 Raffenetti 2 integral format.
 Two-electron integral symmetry is turned on.
 Leave Link  301 at Sat Apr 24 20:21:20 2021, MaxMem= 12079595520 cpu:              15.8 elap:               0.4
 (Enter /s/ls4/groups/g0130/bin/g16/l302.exe)
 NPDir=0 NMtPBC=     1 NCelOv=     1 NCel=       1 NClECP=     1 NCelD=      1
         NCelK=      1 NCelE2=     1 NClLst=     1 CellRange=     0.0.
 One-electron integrals computed using PRISM.
 One-electron integral symmetry used in STVInt
 NBasis=  1512 RedAO= T EigKep=  1.04D-06  NBF=   246   246   132   132   132   132   246   246
 NBsUse=  1488 1.00D-06 EigRej=  9.93D-07 NBFU=   242   237   132   132   131   132   241   241
 Precomputing XC quadrature grid using
 IXCGrd= 4 IRadAn=           5 IRanWt=          -1 IRanGd=           0 AccXCQ= 0.00D+00.
 Generated NRdTot=       0 NPtTot=           0 NUsed=           0 NTot=          32
 NSgBfM=  1537  1518  1528  1534  1537 MxSgAt=    24 MxSgA2=    24.
 Leave Link  302 at Sat Apr 24 20:35:22 2021, MaxMem= 12079595520 cpu:           39618.6 elap:             842.3
 (Enter /s/ls4/groups/g0130/bin/g16/l303.exe)
 DipDrv:  MaxL=1.
 Leave Link  303 at Sat Apr 24 20:36:12 2021, MaxMem= 12079595520 cpu:            2336.8 elap:              49.8
 (Enter /s/ls4/groups/g0130/bin/g16/l401.exe)
 SCF N**3 symmetry information disabled.
 ExpMin= 4.50D-02 ExpMax= 6.70D+04 ExpMxC= 6.47D+02 IAcc=3 IRadAn=         5 AccDes= 0.00D+00
 Harris functional with IExCor= 1009 and IRadAn=       5 diagonalized for initial guess.
 HarFok:  IExCor= 1009 AccDes= 0.00D+00 IRadAn=         5 IDoV= 1 UseB2=F ITyADJ=14
 ICtDFT=  3500011 ScaDFX=  1.000000  1.000000  1.000000  1.000000
 FoFCou: FMM=F IPFlag=           0 FMFlag=      100000 FMFlg1=           0
         NFxFlg=           0 DoJE=T BraDBF=F KetDBF=T FulRan=T
         wScrn=  0.000000 ICntrl=       500 IOpCl=  0 I1Cent=   200000004 NGrid=           0
         NMat0=    1 NMatS0=      1 NMatT0=    0 NMatD0=    1 NMtDS0=    0 NMtDT0=    0
 Petite list used in FoFCou.
 DSYEVD-2 returned Info=        2977 IAlg= 4 N=  1488 NDim=  1488 NE2=     8113168 trying  DSYEV.
 Harris En= -913.531228330755    
 JPrj=0 DoOrth=F DoCkMO=F.
 Initial guess orbital symmetries:
 Leave Link  401 at Sat Apr 24 20:46:33 2021, MaxMem= 12079595520 cpu:           29173.8 elap:             620.3
 (Enter /s/ls4/groups/g0130/bin/g16/l502.exe)
 Two-electron integrals replicated using symmetry.
 Closed shell SCF:
 Using DIIS extrapolation, IDIIS=  1040.
 NGot= 12079595520 LenX= 12072255428 LenY= 12068658716
 Requested convergence on RMS density matrix=1.00D-08 within 155 cycles.
 Requested convergence on MAX density matrix=1.00D-06.
 Requested convergence on             energy=1.00D-06.
 No special actions if energy rises.
 Fock matrices will be formed incrementally for  20 cycles.

 Cycle   1  Pass 1  IDiag  1:
 FoFJK:  IHMeth= 1 ICntrl=       0 DoSepK=F KAlg= 0 I1Cent=           0 FoldK=F
 IRaf= 640000000 NMat=       1 IRICut=       1 DoRegI=T DoRafI=F ISym2E= 2 IDoP0=0 IntGTp=1.
 FoFCou: FMM=F IPFlag=           0 FMFlag=      100000 FMFlg1=           0
         NFxFlg=           0 DoJE=F BraDBF=F KetDBF=F FulRan=T
         wScrn=  0.000000 ICntrl=         0 IOpCl=  0 I1Cent=           0 NGrid=           0
         NMat0=    1 NMatS0=      1 NMatT0=    0 NMatD0=    1 NMtDS0=    0 NMtDT0=    0
 Integrals replicated using symmetry in FoFCou.
 E= -913.389254894108    
 DIIS: error= 3.75D-02 at cycle   1 NSaved=   1.
 NSaved= 1 IEnMin= 1 EnMin= -913.389254894108     IErMin= 1 ErrMin= 3.75D-02
 ErrMax= 3.75D-02  0.00D+00 EMaxC= 1.00D-01 BMatC= 9.33D-01 BMatP= 9.33D-01
 IDIUse=3 WtCom= 6.25D-01 WtEn= 3.75D-01
 Coeff-Com:  0.100D+01
 Coeff-En:   0.100D+01
 Coeff:      0.100D+01
 Gap=     0.126 Goal=   None    Shift=    0.000
 DSYEVD-2 returned Info=     2080132 IAlg= 4 N=  1488 NDim=  1488 NE2=     8110656 trying  DSYEV.
 GapD=    0.126 DampG=1.000 DampE=0.500 DampFc=0.5000 IDamp=-1.
 Damping current iteration by 5.00D-01
 RMSDP=4.31D-03 MaxDP=1.60D-01              OVMax= 1.17D-01

 Cycle   2  Pass 1  IDiag  1:
 RMSU=  1.18D-03    CP:  7.91D-01
 E= -913.645880658332     Delta-E=       -0.256625764224 Rises=F Damp=T
 DIIS: error= 1.87D-02 at cycle   2 NSaved=   2.
 NSaved= 2 IEnMin= 2 EnMin= -913.645880658332     IErMin= 2 ErrMin= 1.87D-02
 ErrMax= 1.87D-02  0.00D+00 EMaxC= 1.00D-01 BMatC= 1.41D-01 BMatP= 9.33D-01
 IDIUse=3 WtCom= 8.13D-01 WtEn= 1.87D-01
 Coeff-Com: -0.531D+00 0.153D+01
 Coeff-En:   0.000D+00 0.100D+01
 Coeff:     -0.431D+00 0.143D+01
 Gap=     0.134 Goal=   None    Shift=    0.000
 DSYEVD-2 returned Info=     1664701 IAlg= 4 N=  1488 NDim=  1488 NE2=     8110656 trying  DSYEV.
 RMSDP=3.36D-03 MaxDP=1.25D-01 DE=-2.57D-01 OVMax= 4.78D-02

 Cycle   3  Pass 1  IDiag  1:
 RMSU=  2.34D-03    CP:  5.19D-01  1.48D+00
 E= -913.854845932470     Delta-E=       -0.208965274137 Rises=F Damp=F
 DIIS: error= 2.47D-03 at cycle   3 NSaved=   3.
 NSaved= 3 IEnMin= 3 EnMin= -913.854845932470     IErMin= 3 ErrMin= 2.47D-03
 ErrMax= 2.47D-03  0.00D+00 EMaxC= 1.00D-01 BMatC= 1.57D-03 BMatP= 1.41D-01
 IDIUse=3 WtCom= 9.75D-01 WtEn= 2.47D-02
 Coeff-Com: -0.927D-01 0.218D+00 0.875D+00
 Coeff-En:   0.000D+00 0.000D+00 0.100D+01
 Coeff:     -0.904D-01 0.213D+00 0.878D+00
 Gap=     0.135 Goal=   None    Shift=    0.000
 DSYEVD-2 returned Info=     2080132 IAlg= 4 N=  1488 NDim=  1488 NE2=     8110656 trying  DSYEV.
 RMSDP=3.41D-04 MaxDP=2.40D-02 DE=-2.09D-01 OVMax= 9.47D-03

 Cycle   4  Pass 1  IDiag  1:
 RMSU=  2.48D-04    CP:  5.00D-01  1.47D+00  9.31D-01
 E= -913.856439890553     Delta-E=       -0.001593958084 Rises=F Damp=F
 DIIS: error= 7.78D-04 at cycle   4 NSaved=   4.
 NSaved= 4 IEnMin= 4 EnMin= -913.856439890553     IErMin= 4 ErrMin= 7.78D-04
 ErrMax= 7.78D-04  0.00D+00 EMaxC= 1.00D-01 BMatC= 1.45D-04 BMatP= 1.57D-03
 IDIUse=3 WtCom= 9.92D-01 WtEn= 7.78D-03
 Coeff-Com: -0.200D-01 0.437D-01 0.273D+00 0.703D+00
 Coeff-En:   0.000D+00 0.000D+00 0.000D+00 0.100D+01
 Coeff:     -0.198D-01 0.433D-01 0.271D+00 0.705D+00
 Gap=     0.136 Goal=   None    Shift=    0.000
 DSYEVD-2 returned Info=        2977 IAlg= 4 N=  1488 NDim=  1488 NE2=     8110656 trying  DSYEV.
 RMSDP=5.33D-05 MaxDP=3.24D-03 DE=-1.59D-03 OVMax= 2.77D-03

 Cycle   5  Pass 1  IDiag  1:
 RMSU=  3.69D-05    CP:  4.98D-01  1.46D+00  9.27D-01  1.13D+00
 E= -913.856605423928     Delta-E=       -0.000165533375 Rises=F Damp=F
 DIIS: error= 1.92D-04 at cycle   5 NSaved=   5.
 NSaved= 5 IEnMin= 5 EnMin= -913.856605423928     IErMin= 5 ErrMin= 1.92D-04
 ErrMax= 1.92D-04  0.00D+00 EMaxC= 1.00D-01 BMatC= 3.71D-06 BMatP= 1.45D-04
 IDIUse=3 WtCom= 9.98D-01 WtEn= 1.92D-03
 Coeff-Com:  0.819D-02-0.186D-01-0.938D-01-0.127D+00 0.123D+01
 Coeff-En:   0.000D+00 0.000D+00 0.000D+00 0.000D+00 0.100D+01
 Coeff:      0.817D-02-0.185D-01-0.936D-01-0.127D+00 0.123D+01
 Gap=     0.137 Goal=   None    Shift=    0.000
 RMSDP=4.83D-05 MaxDP=1.63D-03 DE=-1.66D-04 OVMax= 2.54D-03

 Cycle   6  Pass 1  IDiag  1:
 RMSU=  2.67D-05    CP:  4.97D-01  1.46D+00  9.28D-01  1.23D+00  1.80D+00
 E= -913.856625255446     Delta-E=       -0.000019831518 Rises=F Damp=F
 DIIS: error= 3.37D-05 at cycle   6 NSaved=   6.
 NSaved= 6 IEnMin= 6 EnMin= -913.856625255446     IErMin= 6 ErrMin= 3.37D-05
 ErrMax= 3.37D-05  0.00D+00 EMaxC= 1.00D-01 BMatC= 1.57D-07 BMatP= 3.71D-06
 IDIUse=1 WtCom= 1.00D+00 WtEn= 0.00D+00
 Coeff-Com: -0.128D-02 0.269D-02 0.786D-02-0.100D-01-0.219D+00 0.122D+01
 Coeff:     -0.128D-02 0.269D-02 0.786D-02-0.100D-01-0.219D+00 0.122D+01
 Gap=     0.137 Goal=   None    Shift=    0.000
 DSYEVD-2 returned Info=     1941655 IAlg= 4 N=  1488 NDim=  1488 NE2=     8110656 trying  DSYEV.
 RMSDP=3.88D-05 MaxDP=1.62D-03 DE=-1.98D-05 OVMax= 5.46D-04

 Cycle   7  Pass 1  IDiag  1:
 RMSU=  1.22D-05    CP:  4.97D-01  1.46D+00  9.33D-01  1.21D+00  2.30D+00
                    CP:  2.05D+00
 E= -913.856625980650     Delta-E=       -0.000000725204 Rises=F Damp=F
 DIIS: error= 7.76D-06 at cycle   7 NSaved=   7.
 NSaved= 7 IEnMin= 7 EnMin= -913.856625980650     IErMin= 7 ErrMin= 7.76D-06
 ErrMax= 7.76D-06  0.00D+00 EMaxC= 1.00D-01 BMatC= 5.89D-09 BMatP= 1.57D-07
 IDIUse=1 WtCom= 1.00D+00 WtEn= 0.00D+00
 Coeff-Com: -0.244D-03 0.524D-03 0.142D-02-0.109D-02-0.482D-01 0.149D+00
 Coeff-Com:  0.899D+00
 Coeff:     -0.244D-03 0.524D-03 0.142D-02-0.109D-02-0.482D-01 0.149D+00
 Coeff:      0.899D+00
 Gap=     0.137 Goal=   None    Shift=    0.000
 DSYEVD-2 returned Info=     2080132 IAlg= 4 N=  1488 NDim=  1488 NE2=     8110656 trying  DSYEV.
 RMSDP=3.15D-05 MaxDP=1.18D-03 DE=-7.25D-07 OVMax= 4.76D-05

 Cycle   8  Pass 1  IDiag  1:
 RMSU=  5.53D-06    CP:  4.97D-01  1.45D+00  9.37D-01  1.21D+00  2.69D+00
                    CP:  2.91D+00  1.97D+00
 E= -913.856625970631     Delta-E=        0.000000010019 Rises=F Damp=F
 DIIS: error= 8.93D-06 at cycle   8 NSaved=   8.
 NSaved= 8 IEnMin= 7 EnMin= -913.856625980650     IErMin= 7 ErrMin= 7.76D-06
 ErrMax= 8.93D-06  0.00D+00 EMaxC= 1.00D-01 BMatC= 6.71D-09 BMatP= 5.89D-09
 IDIUse=1 WtCom= 1.00D+00 WtEn= 0.00D+00
 Coeff-Com: -0.151D-03 0.326D-03 0.842D-03-0.644D-03-0.306D-01 0.874D-01
 Coeff-Com:  0.641D+00 0.302D+00
 Coeff:     -0.151D-03 0.326D-03 0.842D-03-0.644D-03-0.306D-01 0.874D-01
 Coeff:      0.641D+00 0.302D+00
 Gap=     0.137 Goal=   None    Shift=    0.000
 DSYEVD-2 returned Info=     2080132 IAlg= 4 N=  1488 NDim=  1488 NE2=     8110656 trying  DSYEV.
 RMSDP=1.30D-05 MaxDP=5.00D-04 DE= 1.00D-08 OVMax= 8.31D-06

 Cycle   9  Pass 1  IDiag  1:
 RMSU=  7.08D-06    CP:  4.97D-01  1.45D+00  9.38D-01  1.21D+00  2.84D+00
                    CP:  3.00D+00  2.39D+00  1.36D+00
 E= -913.856625969381     Delta-E=        0.000000001250 Rises=F Damp=F
 DIIS: error= 1.04D-05 at cycle   9 NSaved=   9.
 NSaved= 9 IEnMin= 7 EnMin= -913.856625980650     IErMin= 7 ErrMin= 7.76D-06
 ErrMax= 1.04D-05  0.00D+00 EMaxC= 1.00D-01 BMatC= 5.15D-09 BMatP= 5.89D-09
 IDIUse=1 WtCom= 1.00D+00 WtEn= 0.00D+00
 Coeff-Com: -0.286D-03 0.618D-03 0.162D-02-0.953D-03-0.590D-01 0.140D+00
 Coeff-Com:  0.142D+01 0.108D+01-0.158D+01
 Coeff:     -0.286D-03 0.618D-03 0.162D-02-0.953D-03-0.590D-01 0.140D+00
 Coeff:      0.142D+01 0.108D+01-0.158D+01
 Gap=     0.137 Goal=   None    Shift=    0.000
 DSYEVD-2 returned Info=        2977 IAlg= 4 N=  1488 NDim=  1488 NE2=     8110656 trying  DSYEV.
 RMSDP=6.15D-05 MaxDP=2.38D-03 DE= 1.25D-09 OVMax= 2.49D-05

 Cycle  10  Pass 1  IDiag  1:
 RMSU=  1.87D-06    CP:  4.97D-01  1.46D+00  9.31D-01  1.22D+00  2.10D+00
                    CP:  1.59D+00  4.75D-01 -4.31D-01 -1.10D-02
 E= -913.856625993164     Delta-E=       -0.000000023782 Rises=F Damp=F
 DIIS: error= 7.04D-06 at cycle  10 NSaved=  10.
 NSaved=10 IEnMin=10 EnMin= -913.856625993164     IErMin=10 ErrMin= 7.04D-06
 ErrMax= 7.04D-06  0.00D+00 EMaxC= 1.00D-01 BMatC= 2.59D-09 BMatP= 5.15D-09
 IDIUse=1 WtCom= 1.00D+00 WtEn= 0.00D+00
 Coeff-Com: -0.380D-04 0.861D-04 0.992D-04 0.404D-03-0.632D-02 0.840D-02
 Coeff-Com:  0.362D+00 0.100D+01-0.262D+01 0.226D+01
 Coeff:     -0.380D-04 0.861D-04 0.992D-04 0.404D-03-0.632D-02 0.840D-02
 Coeff:      0.362D+00 0.100D+01-0.262D+01 0.226D+01
 Gap=     0.137 Goal=   None    Shift=    0.000
 RMSDP=9.82D-05 MaxDP=3.80D-03 DE=-2.38D-08 OVMax= 4.08D-05

 Cycle  11  Pass 1  IDiag  1:
 RMSU=  4.53D-06    CP:  4.97D-01  1.47D+00  9.18D-01  1.21D+00  9.31D-01
                    CP: -1.05D+00 -2.83D+00 -2.45D+00 -2.32D-02  2.88D+00
 E= -913.856626035192     Delta-E=       -0.000000042028 Rises=F Damp=F
 DIIS: error= 3.15D-06 at cycle  11 NSaved=  11.
 NSaved=11 IEnMin=11 EnMin= -913.856626035192     IErMin=11 ErrMin= 3.15D-06
 ErrMax= 3.15D-06  0.00D+00 EMaxC= 1.00D-01 BMatC= 7.33D-10 BMatP= 2.59D-09
 IDIUse=1 WtCom= 1.00D+00 WtEn= 0.00D+00
 Coeff-Com: -0.598D-05 0.146D-04 0.524D-04 0.290D-03-0.589D-03-0.101D-02
 Coeff-Com:  0.372D-02 0.253D+00-0.103D+01 0.539D+00 0.124D+01
 Coeff:     -0.598D-05 0.146D-04 0.524D-04 0.290D-03-0.589D-03-0.101D-02
 Coeff:      0.372D-02 0.253D+00-0.103D+01 0.539D+00 0.124D+01
 Gap=     0.137 Goal=   None    Shift=    0.000
 DSYEVD-2 returned Info=     1664701 IAlg= 4 N=  1488 NDim=  1488 NE2=     8110656 trying  DSYEV.
 RMSDP=6.71D-05 MaxDP=2.49D-03 DE=-4.20D-08 OVMax= 3.19D-05

 Cycle  12  Pass 1  IDiag  1:
 RMSU=  2.74D-05    CP:  4.97D-01  1.48D+00  9.10D-01  1.20D+00  1.45D-01
                    CP: -2.82D+00 -3.00D+00 -3.00D+00 -1.03D-02  3.00D+00
                    CP:  2.41D+00
 E= -913.856626062722     Delta-E=       -0.000000027530 Rises=F Damp=F
 DIIS: error= 3.13D-06 at cycle  12 NSaved=  12.
 NSaved=12 IEnMin=12 EnMin= -913.856626062722     IErMin=12 ErrMin= 3.13D-06
 ErrMax= 3.13D-06  0.00D+00 EMaxC= 1.00D-01 BMatC= 4.60D-10 BMatP= 7.33D-10
 IDIUse=1 WtCom= 1.00D+00 WtEn= 0.00D+00
 Coeff-Com: -0.491D-05 0.116D-04 0.277D-04 0.170D-03-0.652D-03 0.117D-03
 Coeff-Com:  0.238D-01 0.229D+00-0.915D+00 0.471D+00 0.588D+00 0.603D+00
 Coeff:     -0.491D-05 0.116D-04 0.277D-04 0.170D-03-0.652D-03 0.117D-03
 Coeff:      0.238D-01 0.229D+00-0.915D+00 0.471D+00 0.588D+00 0.603D+00
 Gap=     0.137 Goal=   None    Shift=    0.000
 DSYEVD-2 returned Info=        2977 IAlg= 4 N=  1488 NDim=  1488 NE2=     8110656 trying  DSYEV.
 RMSDP=3.08D-05 MaxDP=1.18D-03 DE=-2.75D-08 OVMax= 1.45D-05

 Cycle  13  Pass 1  IDiag  1:
 RMSU=  1.93D-06    CP:  4.98D-01  1.48D+00  9.06D-01  1.19D+00 -2.25D-01
                    CP: -3.00D+00 -3.00D+00 -3.00D+00 -2.39D+00  3.00D+00
                    CP:  3.00D+00  1.50D+00
 E= -913.856626079005     Delta-E=       -0.000000016284 Rises=F Damp=F
 DIIS: error= 1.89D-06 at cycle  13 NSaved=  13.
 NSaved=13 IEnMin=13 EnMin= -913.856626079005     IErMin=13 ErrMin= 1.89D-06
 ErrMax= 1.89D-06  0.00D+00 EMaxC= 1.00D-01 BMatC= 8.69D-11 BMatP= 4.60D-10
 IDIUse=1 WtCom= 1.00D+00 WtEn= 0.00D+00
 Coeff-Com:  0.178D-05-0.241D-05-0.607D-05 0.244D-03 0.870D-03-0.441D-02
 Coeff-Com: -0.155D-01 0.143D+00-0.511D+00 0.406D+00 0.832D+00-0.872D+00
 Coeff-Com:  0.102D+01
 Coeff:      0.178D-05-0.241D-05-0.607D-05 0.244D-03 0.870D-03-0.441D-02
 Coeff:     -0.155D-01 0.143D+00-0.511D+00 0.406D+00 0.832D+00-0.872D+00
 Coeff:      0.102D+01
 Gap=     0.137 Goal=   None    Shift=    0.000
 RMSDP=3.58D-05 MaxDP=1.30D-03 DE=-1.63D-08 OVMax= 1.99D-05

 Cycle  14  Pass 1  IDiag  1:
 RMSU=  1.41D-06    CP:  4.97D-01  1.47D+00  9.11D-01  1.20D+00  1.83D-01
                    CP: -2.72D+00 -3.00D+00 -3.00D+00 -1.41D-02  3.00D+00
                    CP:  2.02D+00  8.85D-01  9.10D-01
 E= -913.856626063499     Delta-E=        0.000000015506 Rises=F Damp=F
 DIIS: error= 3.10D-06 at cycle  14 NSaved=  14.
 NSaved=14 IEnMin=13 EnMin= -913.856626079005     IErMin=13 ErrMin= 1.89D-06
 ErrMax= 3.10D-06  0.00D+00 EMaxC= 1.00D-01 BMatC= 5.30D-10 BMatP= 8.69D-11
 IDIUse=1 WtCom= 1.00D+00 WtEn= 0.00D+00
 Coeff-Com:  0.364D-05-0.735D-05-0.230D-05 0.118D-03 0.984D-03-0.315D-02
 Coeff-Com: -0.459D-01-0.456D-01 0.113D+00-0.982D-02 0.464D+00-0.183D+01
 Coeff-Com:  0.167D+01 0.682D+00
 Coeff:      0.364D-05-0.735D-05-0.230D-05 0.118D-03 0.984D-03-0.315D-02
 Coeff:     -0.459D-01-0.456D-01 0.113D+00-0.982D-02 0.464D+00-0.183D+01
 Coeff:      0.167D+01 0.682D+00
 Gap=     0.137 Goal=   None    Shift=    0.000
 DSYEVD-2 returned Info=        2977 IAlg= 4 N=  1488 NDim=  1488 NE2=     8110656 trying  DSYEV.
 RMSDP=1.74D-05 MaxDP=7.01D-04 DE= 1.55D-08 OVMax= 7.13D-06

 Cycle  15  Pass 1  IDiag  1:
 RMSU=  1.08D-06    CP:  4.97D-01  1.48D+00  9.08D-01  1.20D+00 -3.60D-02
                    CP: -3.00D+00 -3.00D+00 -3.00D+00 -6.43D-01  3.00D+00
                    CP:  2.32D+00  1.16D+00  1.44D+00  1.70D+00
 E= -913.856626070183     Delta-E=       -0.000000006683 Rises=F Damp=F
 DIIS: error= 3.03D-06 at cycle  15 NSaved=  15.
 NSaved=15 IEnMin=13 EnMin= -913.856626079005     IErMin=13 ErrMin= 1.89D-06
 ErrMax= 3.03D-06  0.00D+00 EMaxC= 1.00D-01 BMatC= 4.60D-10 BMatP= 8.69D-11
 IDIUse=1 WtCom= 1.00D+00 WtEn= 0.00D+00
 Coeff-Com: -0.383D-06 0.789D-06-0.912D-06-0.848D-05-0.103D-03 0.207D-03
 Coeff-Com:  0.765D-02 0.241D-01-0.929D-01 0.462D-01-0.249D-02-0.920D+00
 Coeff-Com:  0.115D+01-0.377D+00 0.116D+01
 Coeff:     -0.383D-06 0.789D-06-0.912D-06-0.848D-05-0.103D-03 0.207D-03
 Coeff:      0.765D-02 0.241D-01-0.929D-01 0.462D-01-0.249D-02-0.920D+00
 Coeff:      0.115D+01-0.377D+00 0.116D+01
 Gap=     0.137 Goal=   None    Shift=    0.000
 DSYEVD-2 returned Info=        2977 IAlg= 4 N=  1488 NDim=  1488 NE2=     8110656 trying  DSYEV.
 RMSDP=4.53D-05 MaxDP=1.70D-03 DE=-6.68D-09 OVMax= 2.28D-05

 Cycle  16  Pass 1  IDiag  1:
 RMSU=  1.45D-05    CP:  4.98D-01  1.48D+00  9.03D-01  1.19D+00 -5.74D-01
                    CP: -3.00D+00 -3.00D+00 -3.00D+00 -3.00D+00  3.00D+00
                    CP:  3.00D+00  1.91D+00  3.00D+00  3.08D-01  1.37D+00
 E= -913.856626094917     Delta-E=       -0.000000024735 Rises=F Damp=F
 DIIS: error= 4.55D-07 at cycle  16 NSaved=  16.
 NSaved=16 IEnMin=16 EnMin= -913.856626094917     IErMin=16 ErrMin= 4.55D-07
 ErrMax= 4.55D-07  0.00D+00 EMaxC= 1.00D-01 BMatC= 8.58D-12 BMatP= 8.69D-11
 IDIUse=1 WtCom= 1.00D+00 WtEn= 0.00D+00
 Coeff-Com: -0.316D-06 0.630D-06-0.479D-06-0.991D-05-0.858D-04 0.226D-03
 Coeff-Com:  0.549D-02 0.875D-02-0.306D-01 0.186D-01-0.461D-01-0.557D+00
 Coeff-Com:  0.707D+00-0.131D+00 0.649D+00 0.375D+00
 Coeff:     -0.316D-06 0.630D-06-0.479D-06-0.991D-05-0.858D-04 0.226D-03
 Coeff:      0.549D-02 0.875D-02-0.306D-01 0.186D-01-0.461D-01-0.557D+00
 Coeff:      0.707D+00-0.131D+00 0.649D+00 0.375D+00
 Gap=     0.137 Goal=   None    Shift=    0.000
 RMSDP=2.03D-06 MaxDP=8.33D-05 DE=-2.47D-08 OVMax= 9.95D-07

 Cycle  17  Pass 1  IDiag  1:
 RMSU=  2.69D-07    CP:  4.98D-01  1.48D+00  9.03D-01  1.19D+00 -5.49D-01
                    CP: -3.00D+00 -3.00D+00 -3.00D+00 -3.00D+00  3.00D+00
                    CP:  3.00D+00  1.87D+00  3.00D+00  4.25D-01  1.19D+00
                    CP:  9.06D-01
 E= -913.856626094208     Delta-E=        0.000000000710 Rises=F Damp=F
 DIIS: error= 3.08D-07 at cycle  17 NSaved=  17.
 NSaved=17 IEnMin=16 EnMin= -913.856626094917     IErMin=17 ErrMin= 3.08D-07
 ErrMax= 3.08D-07  0.00D+00 EMaxC= 1.00D-01 BMatC= 3.87D-12 BMatP= 8.58D-12
 IDIUse=1 WtCom= 1.00D+00 WtEn= 0.00D+00
 Coeff-Com:  0.653D-07-0.157D-06-0.827D-06-0.799D-06 0.816D-05-0.457D-04
 Coeff-Com:  0.816D-03 0.171D-02-0.126D-01 0.851D-02-0.293D-01-0.296D+00
 Coeff-Com:  0.380D+00 0.734D-01 0.227D+00-0.338D-01 0.680D+00
 Coeff:      0.653D-07-0.157D-06-0.827D-06-0.799D-06 0.816D-05-0.457D-04
 Coeff:      0.816D-03 0.171D-02-0.126D-01 0.851D-02-0.293D-01-0.296D+00
 Coeff:      0.380D+00 0.734D-01 0.227D+00-0.338D-01 0.680D+00
 Gap=     0.137 Goal=   None    Shift=    0.000
 DSYEVD-2 returned Info=     1110793 IAlg= 4 N=  1488 NDim=  1488 NE2=     8110656 trying  DSYEV.
 RMSDP=2.91D-06 MaxDP=1.15D-04 DE= 7.10D-10 OVMax= 1.36D-06

 Cycle  18  Pass 1  IDiag  1:
 RMSU=  8.88D-08    CP:  4.98D-01  1.48D+00  9.04D-01  1.19D+00 -5.13D-01
                    CP: -3.00D+00 -3.00D+00 -3.00D+00 -3.00D+00  3.00D+00
                    CP:  3.00D+00  1.83D+00  2.85D+00  5.21D-01  9.87D-01
                    CP:  7.70D-01  1.04D+00
 E= -913.856626093001     Delta-E=        0.000000001207 Rises=F Damp=F
 DIIS: error= 2.14D-07 at cycle  18 NSaved=  18.
 NSaved=18 IEnMin=16 EnMin= -913.856626094917     IErMin=18 ErrMin= 2.14D-07
 ErrMax= 2.14D-07  0.00D+00 EMaxC= 1.00D-01 BMatC= 2.42D-12 BMatP= 3.87D-12
 IDIUse=1 WtCom= 1.00D+00 WtEn= 0.00D+00
 Coeff-Com:  0.152D-06-0.323D-06-0.445D-06 0.248D-05 0.321D-04-0.116D-03
 Coeff-Com: -0.981D-03-0.170D-02 0.310D-02-0.115D-02-0.115D-02-0.263D-01
 Coeff-Com:  0.286D-01 0.569D-01 0.165D-01-0.119D+00-0.206D+00 0.125D+01
 Coeff:      0.152D-06-0.323D-06-0.445D-06 0.248D-05 0.321D-04-0.116D-03
 Coeff:     -0.981D-03-0.170D-02 0.310D-02-0.115D-02-0.115D-02-0.263D-01
 Coeff:      0.286D-01 0.569D-01 0.165D-01-0.119D+00-0.206D+00 0.125D+01
 Gap=     0.137 Goal=   None    Shift=    0.000
 DSYEVD-2 returned Info=        2977 IAlg= 4 N=  1488 NDim=  1488 NE2=     8110656 trying  DSYEV.
 RMSDP=4.13D-06 MaxDP=1.59D-04 DE= 1.21D-09 OVMax= 2.05D-06

 Cycle  19  Pass 1  IDiag  1:
 RMSU=  7.96D-08    CP:  4.98D-01  1.48D+00  9.04D-01  1.19D+00 -4.63D-01
                    CP: -3.00D+00 -3.00D+00 -3.00D+00 -3.00D+00  3.00D+00
                    CP:  3.00D+00  1.76D+00  2.62D+00  7.37D-01  8.21D-01
                    CP:  5.75D-01  1.02D+00  1.97D+00
 E= -913.856626091108     Delta-E=        0.000000001893 Rises=F Damp=F
 DIIS: error= 1.80D-07 at cycle  19 NSaved=  19.
 NSaved=19 IEnMin=16 EnMin= -913.856626094917     IErMin=19 ErrMin= 1.80D-07
 ErrMax= 1.80D-07  0.00D+00 EMaxC= 1.00D-01 BMatC= 1.48D-12 BMatP= 2.42D-12
 IDIUse=1 WtCom= 1.00D+00 WtEn= 0.00D+00
 Large coefficients: NSaved= 19 BigCof=    0.00 CofMax=   10.00 Det=-8.72D-15
 Inversion failed.  Reducing to 18 matrices.
 Large coefficients: NSaved= 18 BigCof=    0.00 CofMax=   10.00 Det=-8.73D-15
 Inversion failed.  Reducing to 17 matrices.
 Large coefficients: NSaved= 17 BigCof=    0.00 CofMax=   10.00 Det=-8.75D-15
 Inversion failed.  Reducing to 16 matrices.
 Large coefficients: NSaved= 16 BigCof=    0.00 CofMax=   10.00 Det=-8.78D-15
 Inversion failed.  Reducing to 15 matrices.
 Coeff-Com:  0.222D-05-0.523D-05-0.225D-03-0.739D-03 0.236D-04-0.343D-03
 Coeff-Com: -0.449D-02-0.349D-01 0.474D-01 0.416D-01 0.446D-01-0.140D+00
 Coeff-Com: -0.204D+00 0.135D+01-0.100D+00
 Coeff:      0.222D-05-0.523D-05-0.225D-03-0.739D-03 0.236D-04-0.343D-03
 Coeff:     -0.449D-02-0.349D-01 0.474D-01 0.416D-01 0.446D-01-0.140D+00
 Coeff:     -0.204D+00 0.135D+01-0.100D+00
 Gap=     0.137 Goal=   None    Shift=    0.000
 DSYEVD-2 returned Info=        2977 IAlg= 4 N=  1488 NDim=  1488 NE2=     8110656 trying  DSYEV.
 RMSDP=7.03D-07 MaxDP=2.64D-05 DE= 1.89D-09 OVMax= 3.67D-07

 Cycle  20  Pass 1  IDiag  1:
 RMSU=  9.20D-09    CP:  4.98D-01  1.48D+00  9.04D-01  1.19D+00 -4.71D-01
                    CP: -3.00D+00 -3.00D+00 -3.00D+00 -3.00D+00  3.00D+00
                    CP:  3.00D+00  1.77D+00  2.66D+00  6.93D-01  8.39D-01
                    CP:  6.09D-01  1.03D+00  1.78D+00  8.08D-01
 E= -913.856626091446     Delta-E=       -0.000000000339 Rises=F Damp=F
 DIIS: error= 1.85D-07 at cycle  20 NSaved=  16.
 NSaved=16 IEnMin=12 EnMin= -913.856626094917     IErMin=15 ErrMin= 1.80D-07
 ErrMax= 1.85D-07  0.00D+00 EMaxC= 1.00D-01 BMatC= 1.56D-12 BMatP= 1.48D-12
 IDIUse=1 WtCom= 1.00D+00 WtEn= 0.00D+00
 Large coefficients: NSaved= 16 BigCof=    0.00 CofMax=   10.00 Det=-6.03D-16
 Inversion failed.  Reducing to 15 matrices.
 Coeff-Com: -0.148D-04-0.581D-04 0.470D-03-0.594D-02 0.134D-02-0.171D-02
 Coeff-Com: -0.905D-01 0.116D+00 0.751D-02 0.126D+00-0.156D+00-0.239D+00
 Coeff-Com:  0.127D+01-0.233D+01 0.230D+01
 Coeff:     -0.148D-04-0.581D-04 0.470D-03-0.594D-02 0.134D-02-0.171D-02
 Coeff:     -0.905D-01 0.116D+00 0.751D-02 0.126D+00-0.156D+00-0.239D+00
 Coeff:      0.127D+01-0.233D+01 0.230D+01
 Gap=     0.137 Goal=   None    Shift=    0.000
 DSYEVD-2 returned Info=        2977 IAlg= 4 N=  1488 NDim=  1488 NE2=     8110656 trying  DSYEV.
 RMSDP=1.77D-06 MaxDP=6.77D-05 DE=-3.39D-10 OVMax= 9.25D-07

 Cycle  21  Pass 1  IDiag  1:
 Restarting incremental Fock formation.
 E= -913.856625996845     Delta-E=        0.000000094602 Rises=F Damp=F
 DIIS: error= 2.88D-05 at cycle  21 NSaved=  16.
 NSaved=16 IEnMin=11 EnMin= -913.856626094917     IErMin=14 ErrMin= 1.80D-07
 ErrMax= 2.88D-05  0.00D+00 EMaxC= 1.00D-01 BMatC= 3.88D-08 BMatP= 1.48D-12
 IDIUse=1 WtCom= 1.00D+00 WtEn= 0.00D+00
 Large coefficients: NSaved= 16 BigCof=    0.00 CofMax=   10.00 Det=-4.82D-16
 Inversion failed.  Reducing to 15 matrices.
 Coeff-Com:  0.791D-04 0.844D-03-0.658D-02 0.177D-02-0.403D-02-0.547D-01
 Coeff-Com:  0.711D-01 0.636D-02 0.892D-01-0.145D+00-0.117D+00 0.941D+00
 Coeff-Com: -0.114D+01 0.135D+01 0.168D-02
 Coeff:      0.791D-04 0.844D-03-0.658D-02 0.177D-02-0.403D-02-0.547D-01
 Coeff:      0.711D-01 0.636D-02 0.892D-01-0.145D+00-0.117D+00 0.941D+00
 Coeff:     -0.114D+01 0.135D+01 0.168D-02
 Gap=     0.137 Goal=   None    Shift=    0.000
 RMSDP=3.76D-07 MaxDP=1.40D-05 DE= 9.46D-08 OVMax= 2.12D-07

 Cycle  22  Pass 1  IDiag  1:
 RMSU=  3.76D-07    CP:  1.00D+00
 E= -913.856625995754     Delta-E=        0.000000001091 Rises=F Damp=F
 DIIS: error= 2.93D-05 at cycle  22 NSaved=  16.
 NSaved=16 IEnMin=10 EnMin= -913.856626094917     IErMin=13 ErrMin= 1.80D-07
 ErrMax= 2.93D-05  0.00D+00 EMaxC= 1.00D-01 BMatC= 3.99D-08 BMatP= 1.48D-12
 IDIUse=1 WtCom= 1.00D+00 WtEn= 0.00D+00
 Large coefficients: NSaved= 16 BigCof=    0.00 CofMax=   10.00 Det=-4.82D-16
 Inversion failed.  Reducing to 15 matrices.
 Coeff-Com: -0.290D-03-0.800D-03-0.198D-02-0.262D-02 0.311D-01-0.429D-01
 Coeff-Com:  0.338D-01-0.125D-01-0.142D+00-0.212D-01 0.647D+00-0.747D+00
 Coeff-Com:  0.126D+01-0.967D-01 0.978D-01
 Coeff:     -0.290D-03-0.800D-03-0.198D-02-0.262D-02 0.311D-01-0.429D-01
 Coeff:      0.338D-01-0.125D-01-0.142D+00-0.212D-01 0.647D+00-0.747D+00
 Coeff:      0.126D+01-0.967D-01 0.978D-01
 Gap=     0.137 Goal=   None    Shift=    0.000
 DSYEVD-2 returned Info=        2977 IAlg= 4 N=  1488 NDim=  1488 NE2=     8110656 trying  DSYEV.
 RMSDP=1.11D-06 MaxDP=4.33D-05 DE= 1.09D-09 OVMax= 5.76D-07

 Cycle  23  Pass 1  IDiag  1:
 RMSU=  3.71D-07    CP:  1.00D+00  3.00D+00
 E= -913.856625992436     Delta-E=        0.000000003318 Rises=F Damp=F
 DIIS: error= 3.05D-05 at cycle  23 NSaved=  16.
 NSaved=16 IEnMin= 9 EnMin= -913.856626094917     IErMin=12 ErrMin= 1.80D-07
 ErrMax= 3.05D-05  0.00D+00 EMaxC= 1.00D-01 BMatC= 4.31D-08 BMatP= 1.48D-12
 IDIUse=1 WtCom= 1.00D+00 WtEn= 0.00D+00
 Large coefficients: NSaved= 16 BigCof=    0.00 CofMax=   10.00 Det=-2.95D-16
 Inversion failed.  Reducing to 15 matrices.
 Coeff-Com: -0.157D-04-0.208D-03-0.217D-02 0.193D-01-0.326D-01 0.271D-01
 Coeff-Com: -0.808D-02-0.815D-01-0.441D-01 0.524D+00 0.422D+00 0.173D+00
 Coeff-Com: -0.785D+00 0.104D+01-0.254D+00
 Coeff:     -0.157D-04-0.208D-03-0.217D-02 0.193D-01-0.326D-01 0.271D-01
 Coeff:     -0.808D-02-0.815D-01-0.441D-01 0.524D+00 0.422D+00 0.173D+00
 Coeff:     -0.785D+00 0.104D+01-0.254D+00
 Gap=     0.137 Goal=   None    Shift=    0.000
 DSYEVD-2 returned Info=     1110793 IAlg= 4 N=  1488 NDim=  1488 NE2=     8110656 trying  DSYEV.
 RMSDP=9.54D-07 MaxDP=3.44D-05 DE= 3.32D-09 OVMax= 5.32D-07

 Cycle  24  Pass 1  IDiag  1:
 RMSU=  2.91D-07    CP:  1.00D+00  3.00D+00  3.00D+00
 E= -913.856625989392     Delta-E=        0.000000003044 Rises=F Damp=F
 DIIS: error= 3.16D-05 at cycle  24 NSaved=  16.
 NSaved=16 IEnMin= 8 EnMin= -913.856626094917     IErMin=11 ErrMin= 1.80D-07
 ErrMax= 3.16D-05  0.00D+00 EMaxC= 1.00D-01 BMatC= 4.62D-08 BMatP= 1.48D-12
 IDIUse=1 WtCom= 1.00D+00 WtEn= 0.00D+00
 Large coefficients: NSaved= 16 BigCof=    0.00 CofMax=   10.00 Det=-2.29D-16
 Inversion failed.  Reducing to 15 matrices.
 Coeff-Com:  0.483D-05-0.345D-02-0.613D-02 0.243D-02 0.181D-01 0.114D-01
 Coeff-Com: -0.836D-01-0.180D-01 0.445D+00 0.157D+01-0.941D+00-0.158D+01
 Coeff-Com:  0.241D+01-0.112D+01 0.291D+00
 Coeff:      0.483D-05-0.345D-02-0.613D-02 0.243D-02 0.181D-01 0.114D-01
 Coeff:     -0.836D-01-0.180D-01 0.445D+00 0.157D+01-0.941D+00-0.158D+01
 Coeff:      0.241D+01-0.112D+01 0.291D+00
 Gap=     0.137 Goal=   None    Shift=    0.000
 DSYEVD-2 returned Info=        2977 IAlg= 4 N=  1488 NDim=  1488 NE2=     8110656 trying  DSYEV.
 RMSDP=4.18D-07 MaxDP=1.42D-05 DE= 3.04D-09 OVMax= 2.43D-07

 Cycle  25  Pass 1  IDiag  1:
 RMSU=  2.27D-07    CP:  1.00D+00  3.00D+00  3.00D+00  2.20D+00
 E= -913.856625988002     Delta-E=        0.000000001391 Rises=F Damp=F
 DIIS: error= 3.22D-05 at cycle  25 NSaved=  16.
 NSaved=16 IEnMin= 7 EnMin= -913.856626094917     IErMin=10 ErrMin= 1.80D-07
 ErrMax= 3.22D-05  0.00D+00 EMaxC= 1.00D-01 BMatC= 4.78D-08 BMatP= 1.48D-12
 IDIUse=1 WtCom= 1.00D+00 WtEn= 0.00D+00
 Large coefficients: NSaved= 16 BigCof=    0.00 CofMax=   10.00 Det=-1.87D-16
 Inversion failed.  Reducing to 15 matrices.
 Coeff-Com: -0.614D-03-0.295D-02 0.675D-01-0.868D-01 0.157D-01-0.323D-01
 Coeff-Com: -0.965D-01-0.301D-01 0.432D+00-0.502D+00 0.123D+01-0.259D+00
 Coeff-Com:  0.354D+00-0.387D+00 0.293D+00
 Coeff:     -0.614D-03-0.295D-02 0.675D-01-0.868D-01 0.157D-01-0.323D-01
 Coeff:     -0.965D-01-0.301D-01 0.432D+00-0.502D+00 0.123D+01-0.259D+00
 Coeff:      0.354D+00-0.387D+00 0.293D+00
 Gap=     0.137 Goal=   None    Shift=    0.000
 DSYEVD-2 returned Info=     1664701 IAlg= 4 N=  1488 NDim=  1488 NE2=     8110656 trying  DSYEV.
 RMSDP=1.01D-06 MaxDP=3.50D-05 DE= 1.39D-09 OVMax= 5.69D-07

 Cycle  26  Pass 1  IDiag  1:
 RMSU=  2.91D-08    CP:  1.00D+00  3.00D+00  1.93D+00  2.40D-01 -2.53D-01
 E= -913.856625991270     Delta-E=       -0.000000003268 Rises=F Damp=F
 DIIS: error= 3.09D-05 at cycle  26 NSaved=  16.
 NSaved=16 IEnMin= 7 EnMin= -913.856626094917     IErMin=10 ErrMin= 1.80D-07
 ErrMax= 3.09D-05  0.00D+00 EMaxC= 1.00D-01 BMatC= 4.42D-08 BMatP= 1.48D-12
 IDIUse=1 WtCom= 1.00D+00 WtEn= 0.00D+00
 Large coefficients: NSaved= 16 BigCof=    0.00 CofMax=   10.00 Det=-4.64D-16
 Inversion failed.  Reducing to 15 matrices.
 Coeff-Com: -0.576D-03-0.427D-02 0.568D-01-0.737D-01 0.244D-01-0.283D-01
 Coeff-Com: -0.120D+00-0.177D-01 0.512D+00-0.466D+00 0.112D+01-0.296D+00
 Coeff-Com:  0.406D+00 0.735D-01-0.181D+00
 Coeff:     -0.576D-03-0.427D-02 0.568D-01-0.737D-01 0.244D-01-0.283D-01
 Coeff:     -0.120D+00-0.177D-01 0.512D+00-0.466D+00 0.112D+01-0.296D+00
 Coeff:      0.406D+00 0.735D-01-0.181D+00
 Gap=     0.137 Goal=   None    Shift=    0.000
 RMSDP=6.21D-08 MaxDP=2.52D-06 DE=-3.27D-09 OVMax= 2.58D-08

 Cycle  27  Pass 1  IDiag  1:
 RMSU=  6.71D-09    CP:  1.00D+00  3.00D+00  2.10D+00  2.50D-01 -2.64D-01
                    CP:  5.06D-01
 E= -913.856625991075     Delta-E=        0.000000000195 Rises=F Damp=F
 DIIS: error= 3.09D-05 at cycle  27 NSaved=  16.
 NSaved=16 IEnMin= 7 EnMin= -913.856626094917     IErMin=10 ErrMin= 1.80D-07
 ErrMax= 3.09D-05  0.00D+00 EMaxC= 1.00D-01 BMatC= 4.43D-08 BMatP= 1.48D-12
 IDIUse=1 WtCom= 1.00D+00 WtEn= 0.00D+00
 Large coefficients: NSaved= 16 BigCof=    0.00 CofMax=   10.00 Det=-4.44D-16
 Inversion failed.  Reducing to 15 matrices.
 Coeff-Com: -0.334D-03-0.187D-02 0.304D-01-0.412D-01 0.254D-01-0.130D-01
 Coeff-Com: -0.723D-01-0.460D-01 0.536D+00 0.406D+00 0.175D+00-0.600D+00
 Coeff-Com:  0.715D+00 0.645D+00-0.759D+00
 Coeff:     -0.334D-03-0.187D-02 0.304D-01-0.412D-01 0.254D-01-0.130D-01
 Coeff:     -0.723D-01-0.460D-01 0.536D+00 0.406D+00 0.175D+00-0.600D+00
 Coeff:      0.715D+00 0.645D+00-0.759D+00
 Gap=     0.137 Goal=   None    Shift=    0.000
 RMSDP=5.50D-07 MaxDP=1.98D-05 DE= 1.95D-10 OVMax= 2.97D-07

 Cycle  28  Pass 1  IDiag  1:
 RMSU=  1.71D-08    CP:  1.00D+00  3.00D+00  3.00D+00  1.00D+00  8.06D-02
                    CP:  1.44D-01 -9.95D-01
 E= -913.856625989390     Delta-E=        0.000000001686 Rises=F Damp=F
 DIIS: error= 3.16D-05 at cycle  28 NSaved=  16.
 NSaved=16 IEnMin= 7 EnMin= -913.856626094917     IErMin=10 ErrMin= 1.80D-07
 ErrMax= 3.16D-05  0.00D+00 EMaxC= 1.00D-01 BMatC= 4.63D-08 BMatP= 1.48D-12
 IDIUse=1 WtCom= 1.00D+00 WtEn= 0.00D+00
 Large coefficients: NSaved= 16 BigCof=    0.00 CofMax=   10.00 Det=-4.47D-16
 Inversion failed.  Reducing to 15 matrices.
 Coeff-Com: -0.703D-03-0.344D-02 0.568D-01-0.685D-01 0.124D-01-0.198D-01
 Coeff-Com: -0.951D-01-0.110D-01 0.445D+00-0.438D-01 0.726D+00-0.674D+00
 Coeff-Com:  0.925D+00-0.500D+00 0.252D+00
 Coeff:     -0.703D-03-0.344D-02 0.568D-01-0.685D-01 0.124D-01-0.198D-01
 Coeff:     -0.951D-01-0.110D-01 0.445D+00-0.438D-01 0.726D+00-0.674D+00
 Coeff:      0.925D+00-0.500D+00 0.252D+00
 Gap=     0.137 Goal=   None    Shift=    0.000
 RMSDP=4.55D-07 MaxDP=1.66D-05 DE= 1.69D-09 OVMax= 2.48D-07

 Cycle  29  Pass 1  IDiag  1:
 RMSU=  9.59D-09    CP:  1.00D+00  3.00D+00  2.34D+00  3.21D-01 -3.40D-01
                    CP:  6.84D-01 -6.10D-01  8.73D-01
 E= -913.856625990824     Delta-E=       -0.000000001435 Rises=F Damp=F
 DIIS: error= 3.11D-05 at cycle  29 NSaved=  16.
 NSaved=16 IEnMin= 7 EnMin= -913.856626094917     IErMin=10 ErrMin= 1.80D-07
 ErrMax= 3.11D-05  0.00D+00 EMaxC= 1.00D-01 BMatC= 4.47D-08 BMatP= 1.48D-12
 IDIUse=1 WtCom= 1.00D+00 WtEn= 0.00D+00
 Large coefficients: NSaved= 16 BigCof=    0.00 CofMax=   10.00 Det=-4.67D-16
 Inversion failed.  Reducing to 15 matrices.
 Coeff-Com: -0.681D-03-0.513D-02 0.557D-01-0.724D-01 0.321D-01-0.316D-01
 Coeff-Com: -0.134D+00-0.153D-01 0.576D+00-0.571D+00 0.116D+01-0.149D+00
 Coeff-Com:  0.193D+00 0.108D+00-0.151D+00
 Coeff:     -0.681D-03-0.513D-02 0.557D-01-0.724D-01 0.321D-01-0.316D-01
 Coeff:     -0.134D+00-0.153D-01 0.576D+00-0.571D+00 0.116D+01-0.149D+00
 Coeff:      0.193D+00 0.108D+00-0.151D+00
 Gap=     0.137 Goal=   None    Shift=    0.000
 RMSDP=1.48D-07 MaxDP=5.02D-06 DE=-1.43D-09 OVMax= 9.73D-08

 Cycle  30  Pass 1  IDiag  1:
 RMSU=  3.01D-09    CP:  1.00D+00  3.00D+00  1.97D+00  1.96D-01 -2.08D-01
                    CP:  3.45D-01  1.46D+00  9.35D-03 -6.19D-01
 E= -913.856625991231     Delta-E=       -0.000000000407 Rises=F Damp=F
 DIIS: error= 3.09D-05 at cycle  30 NSaved=  16.
 NSaved=16 IEnMin= 7 EnMin= -913.856626094917     IErMin=10 ErrMin= 1.80D-07
 ErrMax= 3.09D-05  0.00D+00 EMaxC= 1.00D-01 BMatC= 4.42D-08 BMatP= 1.48D-12
 IDIUse=1 WtCom= 1.00D+00 WtEn= 0.00D+00
 Large coefficients: NSaved= 16 BigCof=    0.00 CofMax=   10.00 Det=-4.70D-16
 Inversion failed.  Reducing to 15 matrices.
 Coeff-Com: -0.340D-03-0.277D-02 0.346D-01-0.491D-01 0.275D-01-0.166D-01
 Coeff-Com: -0.943D-01-0.347D-01 0.536D+00 0.432D-01 0.554D+00-0.532D+00
 Coeff-Com:  0.652D+00-0.742D-02-0.111D+00
 Coeff:     -0.340D-03-0.277D-02 0.346D-01-0.491D-01 0.275D-01-0.166D-01
 Coeff:     -0.943D-01-0.347D-01 0.536D+00 0.432D-01 0.554D+00-0.532D+00
 Coeff:      0.652D+00-0.742D-02-0.111D+00
 Gap=     0.137 Goal=   None    Shift=    0.000
 DSYEVD-2 returned Info=     2080132 IAlg= 4 N=  1488 NDim=  1488 NE2=     8110656 trying  DSYEV.
 RMSDP=3.96D-07 MaxDP=1.38D-05 DE=-4.07D-10 OVMax= 2.31D-07

 Cycle  31  Pass 1  IDiag  1:
 RMSU=  4.29D-09    CP:  1.00D+00  3.00D+00  3.00D+00  4.56D-01 -4.76D-01
                    CP:  2.11D-01  4.51D-01  2.31D-01  5.21D-01 -2.67D-01
 E= -913.856625990117     Delta-E=        0.000000001114 Rises=F Damp=F
 DIIS: error= 3.13D-05 at cycle  31 NSaved=  16.
 NSaved=16 IEnMin= 7 EnMin= -913.856626094917     IErMin=10 ErrMin= 1.80D-07
 ErrMax= 3.13D-05  0.00D+00 EMaxC= 1.00D-01 BMatC= 4.54D-08 BMatP= 1.48D-12
 IDIUse=1 WtCom= 1.00D+00 WtEn= 0.00D+00
 Large coefficients: NSaved= 16 BigCof=    0.00 CofMax=   10.00 Det=-4.80D-16
 Inversion failed.  Reducing to 15 matrices.
 Coeff-Com: -0.341D-03-0.245D-02 0.335D-01-0.484D-01 0.269D-01-0.158D-01
 Coeff-Com: -0.883D-01-0.398D-01 0.530D+00 0.572D-01 0.546D+00-0.545D+00
 Coeff-Com:  0.660D+00-0.824D-01-0.313D-01
 Coeff:     -0.341D-03-0.245D-02 0.335D-01-0.484D-01 0.269D-01-0.158D-01
 Coeff:     -0.883D-01-0.398D-01 0.530D+00 0.572D-01 0.546D+00-0.545D+00
 Coeff:      0.660D+00-0.824D-01-0.313D-01
 Gap=     0.137 Goal=   None    Shift=    0.000
 DSYEVD-2 returned Info=     2080132 IAlg= 4 N=  1488 NDim=  1488 NE2=     8110656 trying  DSYEV.
 RMSDP=1.03D-08 MaxDP=3.66D-07 DE= 1.11D-09 OVMax= 8.70D-09

 Cycle  32  Pass 1  IDiag  1:
 RMSU=  5.72D-10    CP:  1.00D+00  3.00D+00  3.00D+00  4.85D-01 -4.54D-01
                    CP:  1.97D-01  2.55D-01  1.58D-01  3.62D-01  5.45D-04
                    CP:  7.48D-01
 E= -913.856625990074     Delta-E=        0.000000000043 Rises=F Damp=F
 DIIS: error= 3.13D-05 at cycle  32 NSaved=  16.
 NSaved=16 IEnMin= 7 EnMin= -913.856626094917     IErMin=10 ErrMin= 1.80D-07
 ErrMax= 3.13D-05  0.00D+00 EMaxC= 1.00D-01 BMatC= 4.54D-08 BMatP= 1.48D-12
 IDIUse=1 WtCom= 1.00D+00 WtEn= 0.00D+00
 Large coefficients: NSaved= 16 BigCof=    0.00 CofMax=   10.00 Det=-1.56D-16
 Inversion failed.  Reducing to 15 matrices.
 Coeff-Com: -0.406D-03-0.254D-02 0.363D-01-0.531D-01 0.293D-01-0.196D-01
 Coeff-Com: -0.891D-01-0.467D-01 0.541D+00-0.691D-01 0.672D+00-0.426D+00
 Coeff-Com:  0.497D+00-0.908D-01 0.214D-01
 Coeff:     -0.406D-03-0.254D-02 0.363D-01-0.531D-01 0.293D-01-0.196D-01
 Coeff:     -0.891D-01-0.467D-01 0.541D+00-0.691D-01 0.672D+00-0.426D+00
 Coeff:      0.497D+00-0.908D-01 0.214D-01
 Gap=     0.137 Goal=   None    Shift=    0.000
 RMSDP=5.24D-08 MaxDP=1.84D-06 DE= 4.27D-11 OVMax= 3.27D-08

 Cycle  33  Pass 1  IDiag  1:
 RMSU=  8.31D-10    CP:  1.00D+00  3.00D+00  2.89D+00  4.23D-01 -4.51D-01
                    CP:  1.85D-01  4.36D-01 -3.24D-02 -9.33D-02  7.51D-01
                    CP:  6.75D-01  2.28D+00
 E= -913.856625990190     Delta-E=       -0.000000000116 Rises=F Damp=F
 DIIS: error= 3.13D-05 at cycle  33 NSaved=  16.
 NSaved=16 IEnMin= 7 EnMin= -913.856626094917     IErMin=10 ErrMin= 1.80D-07
 ErrMax= 3.13D-05  0.00D+00 EMaxC= 1.00D-01 BMatC= 4.52D-08 BMatP= 1.48D-12
 IDIUse=1 WtCom= 1.00D+00 WtEn= 0.00D+00
 Large coefficients: NSaved= 16 BigCof=    0.00 CofMax=   10.00 Det=-2.25D-17
 Inversion failed.  Reducing to 15 matrices.
 Coeff-Com: -0.363D-03-0.229D-02 0.348D-01-0.520D-01 0.290D-01-0.192D-01
 Coeff-Com: -0.840D-01-0.466D-01 0.527D+00 0.165D-01 0.596D+00-0.481D+00
 Coeff-Com:  0.566D+00 0.421D-01-0.126D+00
 Coeff:     -0.363D-03-0.229D-02 0.348D-01-0.520D-01 0.290D-01-0.192D-01
 Coeff:     -0.840D-01-0.466D-01 0.527D+00 0.165D-01 0.596D+00-0.481D+00
 Coeff:      0.566D+00 0.421D-01-0.126D+00
 Gap=     0.137 Goal=   None    Shift=    0.000
 RMSDP=5.03D-08 MaxDP=1.81D-06 DE=-1.16D-10 OVMax= 3.33D-08

 Cycle  34  Pass 1  IDiag  1:
 RMSU=  1.55D-09    CP:  1.00D+00  3.00D+00  3.00D+00  4.77D-01 -4.57D-01
                    CP:  1.85D-01  2.74D-01  3.81D-02  3.31D-01 -4.19D-01
                    CP:  8.95D-01 -1.67D+00  8.41D-01
 E= -913.856625990103     Delta-E=        0.000000000086 Rises=F Damp=F
 DIIS: error= 3.13D-05 at cycle  34 NSaved=  16.
 NSaved=16 IEnMin= 7 EnMin= -913.856626094917     IErMin=10 ErrMin= 1.80D-07
 ErrMax= 3.13D-05  0.00D+00 EMaxC= 1.00D-01 BMatC= 4.54D-08 BMatP= 1.48D-12
 IDIUse=1 WtCom= 1.00D+00 WtEn= 0.00D+00
 Large coefficients: NSaved= 16 BigCof=    0.00 CofMax=   10.00 Det=-4.53D-16
 Inversion failed.  Reducing to 15 matrices.
 Coeff-Com: -0.342D-03-0.253D-02 0.348D-01-0.517D-01 0.296D-01-0.195D-01
 Coeff-Com: -0.871D-01-0.398D-01 0.524D+00 0.171D-01 0.594D+00-0.471D+00
 Coeff-Com:  0.554D+00-0.181D+00 0.995D-01
 Coeff:     -0.342D-03-0.253D-02 0.348D-01-0.517D-01 0.296D-01-0.195D-01
 Coeff:     -0.871D-01-0.398D-01 0.524D+00 0.171D-01 0.594D+00-0.471D+00
 Coeff:      0.554D+00-0.181D+00 0.995D-01
 Gap=     0.137 Goal=   None    Shift=    0.000
 RMSDP=5.81D-09 MaxDP=2.52D-07 DE= 8.64D-11 OVMax= 5.06D-09

 Density matrix is not changing but DIIS error= 3.13D-05 CofLast= 9.95D-02.
 Cycle  35  Pass 1  IDiag  1:
 E= -913.856625997349     Delta-E=       -0.000000007246 Rises=F Damp=F
 DIIS: error= 2.86D-05 at cycle   1 NSaved=   1.
 NSaved= 1 IEnMin= 1 EnMin= -913.856625997349     IErMin= 1 ErrMin= 2.86D-05
 ErrMax= 2.86D-05  0.00D+00 EMaxC= 1.00D+00 BMatC= 3.78D-08 BMatP= 3.78D-08
 IDIUse=1 WtCom= 1.00D+00 WtEn= 0.00D+00
 Coeff-Com:  0.100D+01
 Coeff:      0.100D+01
 Gap=     0.137 Goal=   None    Shift=    0.000
 RMSDP=1.09D-04 MaxDP=4.18D-03 DE=-7.25D-09 OVMax= 5.19D-05

 Cycle  36  Pass 1  IDiag  1:
 RMSU=  1.09D-04    CP:  9.98D-01
 E= -913.856626027603     Delta-E=       -0.000000030254 Rises=F Damp=F
 DIIS: error= 8.12D-06 at cycle  36 NSaved=   2.
 NSaved= 2 IEnMin= 2 EnMin= -913.856626027603     IErMin= 2 ErrMin= 8.12D-06
 ErrMax= 8.12D-06  0.00D+00 EMaxC= 1.00D+00 BMatC= 3.02D-09 BMatP= 3.78D-08
 IDIUse=1 WtCom= 1.00D+00 WtEn= 0.00D+00
 Coeff-Com: -0.892D-01 0.109D+01
 Coeff:     -0.892D-01 0.109D+01
 Gap=     0.137 Goal=   None    Shift=    0.000
 RMSDP=3.84D-05 MaxDP=1.69D-03 DE=-3.03D-08 OVMax= 2.07D-05

 Cycle  37  Pass 1  IDiag  1:
 RMSU=  2.67D-05    CP:  9.99D-01  1.25D+00
 E= -913.856626020026     Delta-E=        0.000000007577 Rises=F Damp=F
 DIIS: error= 5.93D-06 at cycle  37 NSaved=   3.
 NSaved= 3 IEnMin= 2 EnMin= -913.856626027603     IErMin= 3 ErrMin= 5.93D-06
 ErrMax= 5.93D-06  0.00D+00 EMaxC= 1.00D+00 BMatC= 1.39D-09 BMatP= 3.02D-09
 IDIUse=1 WtCom= 1.00D+00 WtEn= 0.00D+00
 Coeff-Com: -0.187D+00-0.449D+00 0.164D+01
 Coeff:     -0.187D+00-0.449D+00 0.164D+01
 Gap=     0.137 Goal=   None    Shift=    0.000
 DSYEVD-2 returned Info=      278815 IAlg= 4 N=  1488 NDim=  1488 NE2=     8110656 trying  DSYEV.
 RMSDP=4.50D-05 MaxDP=1.60D-03 DE= 7.58D-09 OVMax= 1.96D-05

 Cycle  38  Pass 1  IDiag  1:
 RMSU=  9.21D-06    CP:  9.99D-01  1.60D+00  1.80D+00
 E= -913.856626002821     Delta-E=        0.000000017205 Rises=F Damp=F
 DIIS: error= 1.81D-06 at cycle  38 NSaved=   4.
 NSaved= 4 IEnMin= 2 EnMin= -913.856626027603     IErMin= 4 ErrMin= 1.81D-06
 ErrMax= 1.81D-06  0.00D+00 EMaxC= 1.00D+00 BMatC= 1.58D-10 BMatP= 1.39D-09
 IDIUse=1 WtCom= 1.00D+00 WtEn= 0.00D+00
 Coeff-Com:  0.984D-02-0.695D-01-0.430D+00 0.149D+01
 Coeff:      0.984D-02-0.695D-01-0.430D+00 0.149D+01
 Gap=     0.137 Goal=   None    Shift=    0.000
 RMSDP=2.32D-05 MaxDP=8.17D-04 DE= 1.72D-08 OVMax= 1.03D-05

 Cycle  39  Pass 1  IDiag  1:
 RMSU=  1.78D-06    CP:  9.99D-01  1.78D+00  2.24D+00  1.56D+00
 E= -913.856625994741     Delta-E=        0.000000008081 Rises=F Damp=F
 DIIS: error= 4.87D-07 at cycle  39 NSaved=   5.
 NSaved= 5 IEnMin= 2 EnMin= -913.856626027603     IErMin= 5 ErrMin= 4.87D-07
 ErrMax= 4.87D-07  0.00D+00 EMaxC= 1.00D+00 BMatC= 1.53D-11 BMatP= 1.58D-10
 IDIUse=1 WtCom= 1.00D+00 WtEn= 0.00D+00
 Coeff-Com: -0.163D-02 0.349D-01-0.222D+00 0.465D+00 0.724D+00
 Coeff:     -0.163D-02 0.349D-01-0.222D+00 0.465D+00 0.724D+00
 Gap=     0.137 Goal=   None    Shift=    0.000
 DSYEVD-2 returned Info=        2977 IAlg= 4 N=  1488 NDim=  1488 NE2=     8110656 trying  DSYEV.
 RMSDP=1.45D-06 MaxDP=6.01D-05 DE= 8.08D-09 OVMax= 7.23D-07

 Cycle  40  Pass 1  IDiag  1:
 RMSU=  4.71D-07    CP:  9.99D-01  1.79D+00  2.23D+00  1.62D+00  7.92D-01
 E= -913.856625993078     Delta-E=        0.000000001663 Rises=F Damp=F
 DIIS: error= 6.53D-08 at cycle  40 NSaved=   6.
 NSaved= 6 IEnMin= 2 EnMin= -913.856626027603     IErMin= 6 ErrMin= 6.53D-08
 ErrMax= 6.53D-08  0.00D+00 EMaxC= 1.00D+00 BMatC= 9.21D-13 BMatP= 1.53D-11
 IDIUse=1 WtCom= 1.00D+00 WtEn= 0.00D+00
 Coeff-Com: -0.206D-02 0.181D-01-0.870D-01 0.155D+00 0.346D+00 0.570D+00
 Coeff:     -0.206D-02 0.181D-01-0.870D-01 0.155D+00 0.346D+00 0.570D+00
 Gap=     0.137 Goal=   None    Shift=    0.000
 RMSDP=4.26D-07 MaxDP=1.48D-05 DE= 1.66D-09 OVMax= 2.43D-07

 Cycle  41  Pass 1  IDiag  1:
 RMSU=  3.86D-08    CP:  9.99D-01  1.80D+00  2.24D+00  1.63D+00  8.11D-01
                    CP:  1.06D+00
 E= -913.856625992895     Delta-E=        0.000000000183 Rises=F Damp=F
 DIIS: error= 3.54D-08 at cycle  41 NSaved=   7.
 NSaved= 7 IEnMin= 2 EnMin= -913.856626027603     IErMin= 7 ErrMin= 3.54D-08
 ErrMax= 3.54D-08  0.00D+00 EMaxC= 1.00D+00 BMatC= 3.88D-13 BMatP= 9.21D-13
 IDIUse=1 WtCom= 1.00D+00 WtEn= 0.00D+00
 Coeff-Com: -0.163D-02-0.314D-03 0.119D-01-0.442D-01 0.138D-01 0.412D+00
 Coeff-Com:  0.608D+00
 Coeff:     -0.163D-02-0.314D-03 0.119D-01-0.442D-01 0.138D-01 0.412D+00
 Coeff:      0.608D+00
 Gap=     0.137 Goal=   None    Shift=    0.000
 RMSDP=4.23D-07 MaxDP=1.56D-05 DE= 1.83D-10 OVMax= 1.78D-07

 Cycle  42  Pass 1  IDiag  1:
 RMSU=  2.15D-08    CP:  9.99D-01  1.80D+00  2.25D+00  1.64D+00  8.36D-01
                    CP:  1.07D+00  1.83D+00
 E= -913.856625992669     Delta-E=        0.000000000226 Rises=F Damp=F
 DIIS: error= 2.61D-08 at cycle  42 NSaved=   8.
 NSaved= 8 IEnMin= 2 EnMin= -913.856626027603     IErMin= 8 ErrMin= 2.61D-08
 ErrMax= 2.61D-08  0.00D+00 EMaxC= 1.00D+00 BMatC= 2.64D-14 BMatP= 3.88D-13
 IDIUse=1 WtCom= 1.00D+00 WtEn= 0.00D+00
 Coeff-Com: -0.451D-03-0.192D-02 0.691D-02-0.218D-01 0.137D-02 0.966D-01
 Coeff-Com:  0.149D+00 0.770D+00
 Coeff:     -0.451D-03-0.192D-02 0.691D-02-0.218D-01 0.137D-02 0.966D-01
 Coeff:      0.149D+00 0.770D+00
 Gap=     0.137 Goal=   None    Shift=    0.000
 DSYEVD-2 returned Info=        2977 IAlg= 4 N=  1488 NDim=  1488 NE2=     8110656 trying  DSYEV.
 RMSDP=2.19D-07 MaxDP=8.50D-06 DE= 2.26D-10 OVMax= 1.01D-07

 Cycle  43  Pass 1  IDiag  1:
 RMSU=  2.01D-08    CP:  9.99D-01  1.80D+00  2.25D+00  1.64D+00  8.43D-01
                    CP:  1.09D+00  2.10D+00  1.97D+00
 E= -913.856625992595     Delta-E=        0.000000000074 Rises=F Damp=F
 DIIS: error= 4.36D-08 at cycle  43 NSaved=   9.
 NSaved= 9 IEnMin= 2 EnMin= -913.856626027603     IErMin= 8 ErrMin= 2.61D-08
 ErrMax= 4.36D-08  0.00D+00 EMaxC= 1.00D+00 BMatC= 6.71D-14 BMatP= 2.64D-14
 IDIUse=1 WtCom= 1.00D+00 WtEn= 0.00D+00
 Coeff-Com: -0.486D-03-0.203D-02 0.670D-02-0.200D-01 0.112D-02 0.763D-01
 Coeff-Com:  0.120D+00 0.909D+00-0.902D-01
 Coeff:     -0.486D-03-0.203D-02 0.670D-02-0.200D-01 0.112D-02 0.763D-01
 Coeff:      0.120D+00 0.909D+00-0.902D-01
 Gap=     0.137 Goal=   None    Shift=    0.000
 RMSDP=9.14D-09 MaxDP=4.09D-07 DE= 7.41D-11 OVMax= 6.27D-09

 SCF Done:  E(RM062X) =  -913.856625993     A.U. after   43 cycles
            NFock= 43  Conv=0.91D-08     -V/T= 2.0039
 KE= 9.102880796099D+02 PE=-4.469185817306D+03 EE= 1.469461868338D+03
 Leave Link  502 at Sat Apr 24 22:58:32 2021, MaxMem= 12079595520 cpu:          374752.3 elap:            7919.7
 (Enter /s/ls4/groups/g0130/bin/g16/l508.exe)
 QCSCF skips out because SCF is already converged.
 Leave Link  508 at Sat Apr 24 22:58:33 2021, MaxMem= 12079595520 cpu:               2.4 elap:               0.2
 (Enter /s/ls4/groups/g0130/bin/g16/l601.exe)
 Copying SCF densities to generalized density rwf, IOpCl= 0 IROHF=0.
 SCF density gives NOpUse=  8 NOpAll= 48.
 Marking SCF density as not fully symmetric.

 **********************************************************************

            Population analysis using the SCF density.

 **********************************************************************

 Orbital symmetries:
 Unable to determine electronic state:  an orbital has unidentified symmetry.
 Alpha  occ. eigenvalues --  -10.61083 -10.61079 -10.61079 -10.61065 -10.61065
 Alpha  occ. eigenvalues --  -10.61044 -10.61044 -10.61018 -10.61018 -10.60993
 Alpha  occ. eigenvalues --  -10.60993 -10.60981 -10.60853 -10.60842 -10.60842
 Alpha  occ. eigenvalues --  -10.60816 -10.60816 -10.60789 -10.60789 -10.60767
 Alpha  occ. eigenvalues --  -10.60767 -10.60752 -10.60752 -10.60748  -0.97048
 Alpha  occ. eigenvalues --   -0.96609  -0.96609  -0.95306  -0.95306  -0.93190
 Alpha  occ. eigenvalues --   -0.93190  -0.90353  -0.90352  -0.86960  -0.86960
 Alpha  occ. eigenvalues --   -0.84148  -0.81357  -0.78283  -0.78283  -0.74140
 Alpha  occ. eigenvalues --   -0.74139  -0.70199  -0.70199  -0.66883  -0.66883
 Alpha  occ. eigenvalues --   -0.64630  -0.64630  -0.63827  -0.50212  -0.50191
 Alpha  occ. eigenvalues --   -0.49472  -0.49472  -0.49464  -0.49464  -0.47273
 Alpha  occ. eigenvalues --   -0.47273  -0.47243  -0.47243  -0.43592  -0.43592
 Alpha  occ. eigenvalues --   -0.43498  -0.43498  -0.38386  -0.38386  -0.38213
 Alpha  occ. eigenvalues --   -0.38213  -0.31783  -0.31783  -0.31543  -0.31543
 Alpha  occ. eigenvalues --   -0.26815  -0.26572
 Alpha virt. eigenvalues --   -0.12853  -0.12647  -0.06998  -0.06998  -0.06938
 Alpha virt. eigenvalues --   -0.06938  -0.00925   0.00557   0.00557   0.01466
 Alpha virt. eigenvalues --    0.01466   0.01800   0.01803   0.02466   0.02466
 Alpha virt. eigenvalues --    0.03352   0.03352   0.05743   0.05743   0.05841
 Alpha virt. eigenvalues --    0.05841   0.07450   0.07450   0.07697   0.07702
 Alpha virt. eigenvalues --    0.08004   0.08004   0.08670   0.08670   0.09995
 Alpha virt. eigenvalues --    0.09995   0.10176   0.10229   0.10674   0.10711
 Alpha virt. eigenvalues --    0.11326   0.11725   0.12330   0.12330   0.12588
 Alpha virt. eigenvalues --    0.12615   0.12795   0.12797   0.13059   0.13060
 Alpha virt. eigenvalues --    0.13224   0.13224   0.13384   0.13450   0.13450
 Alpha virt. eigenvalues --    0.13518   0.13518   0.13531   0.13531   0.13719
 Alpha virt. eigenvalues --    0.13719   0.13797   0.14729   0.14731   0.15778
 Alpha virt. eigenvalues --    0.15778   0.16423   0.16423   0.16541   0.16541
 Alpha virt. eigenvalues --    0.17032   0.17032   0.17062   0.17062   0.18664
 Alpha virt. eigenvalues --    0.18665   0.19074   0.19082   0.20546   0.20557
 Alpha virt. eigenvalues --    0.20630   0.20630   0.20918   0.21097   0.21097
 Alpha virt. eigenvalues --    0.21183   0.21700   0.21700   0.22254   0.22254
 Alpha virt. eigenvalues --    0.25132   0.25132   0.25324   0.25616   0.25616
 Alpha virt. eigenvalues --    0.26395   0.26991   0.26991   0.27167   0.27167
 Alpha virt. eigenvalues --    0.28163   0.28167   0.29369   0.29369   0.29753
 Alpha virt. eigenvalues --    0.29753   0.30092   0.30104   0.32145   0.32145
 Alpha virt. eigenvalues --    0.33104   0.33104   0.33242   0.33242   0.33275
 Alpha virt. eigenvalues --    0.33275   0.33438   0.33621   0.33621   0.34082
 Alpha virt. eigenvalues --    0.34082   0.34183   0.34192   0.34930   0.34930
 Alpha virt. eigenvalues --    0.35597   0.35611   0.35814   0.35825   0.36090
 Alpha virt. eigenvalues --    0.36171   0.36934   0.36934   0.37853   0.37853
 Alpha virt. eigenvalues --    0.38340   0.38341   0.38726   0.38727   0.38846
 Alpha virt. eigenvalues --    0.38846   0.40478   0.40478   0.40694   0.40710
 Alpha virt. eigenvalues --    0.40710   0.40749   0.40749   0.40919   0.41011
 Alpha virt. eigenvalues --    0.41389   0.41392   0.41584   0.41584   0.41924
 Alpha virt. eigenvalues --    0.41924   0.42186   0.42255   0.42487   0.43515
 Alpha virt. eigenvalues --    0.43925   0.43925   0.43975   0.43975   0.44002
 Alpha virt. eigenvalues --    0.44111   0.44111   0.45275   0.45616   0.45616
 Alpha virt. eigenvalues --    0.46467   0.46467   0.46798   0.47443   0.47446
 Alpha virt. eigenvalues --    0.48962   0.48962   0.49245   0.49245   0.49251
 Alpha virt. eigenvalues --    0.49251   0.51228   0.51265   0.51374   0.51584
 Alpha virt. eigenvalues --    0.51584   0.51654   0.51667   0.51819   0.52115
 Alpha virt. eigenvalues --    0.52115   0.52346   0.52418   0.52511   0.52511
 Alpha virt. eigenvalues --    0.54320   0.54678   0.54678   0.54826   0.54829
 Alpha virt. eigenvalues --    0.55929   0.55937   0.56705   0.56705   0.56939
 Alpha virt. eigenvalues --    0.56953   0.57195   0.57195   0.58011   0.58485
 Alpha virt. eigenvalues --    0.58748   0.58748   0.58955   0.61866   0.61866
 Alpha virt. eigenvalues --    0.61894   0.61894   0.62689   0.62689   0.63101
 Alpha virt. eigenvalues --    0.63101   0.63660   0.63660   0.63838   0.63838
 Alpha virt. eigenvalues --    0.63985   0.63985   0.64682   0.64682   0.65423
 Alpha virt. eigenvalues --    0.65423   0.66852   0.66974   0.66980   0.67214
 Alpha virt. eigenvalues --    0.67381   0.68255   0.68255   0.69332   0.69332
 Alpha virt. eigenvalues --    0.69577   0.69577   0.69873   0.69958   0.69999
 Alpha virt. eigenvalues --    0.70037   0.70267   0.70957   0.70957   0.71091
 Alpha virt. eigenvalues --    0.72240   0.72241   0.72286   0.72288   0.73633
 Alpha virt. eigenvalues --    0.73862   0.73862   0.74365   0.74366   0.74421
 Alpha virt. eigenvalues --    0.74510   0.74800   0.74800   0.75891   0.75891
 Alpha virt. eigenvalues --    0.76119   0.76151   0.76151   0.76210   0.76569
 Alpha virt. eigenvalues --    0.76572   0.77150   0.77749   0.77749   0.78753
 Alpha virt. eigenvalues --    0.78753   0.78820   0.78820   0.81367   0.81374
 Alpha virt. eigenvalues --    0.82071   0.82966   0.83837   0.83837   0.84176
 Alpha virt. eigenvalues --    0.84176   0.87461   0.87461   0.87595   0.87595
 Alpha virt. eigenvalues --    0.87628   0.87632   0.87659   0.87990   0.88231
 Alpha virt. eigenvalues --    0.88291   0.88603   0.88603   0.90209   0.90740
 Alpha virt. eigenvalues --    0.90741   0.92245   0.92246   0.92833   0.92833
 Alpha virt. eigenvalues --    0.93645   0.93645   0.93657   0.93665   0.96608
 Alpha virt. eigenvalues --    0.96616   0.96844   0.96845   0.97136   0.97136
 Alpha virt. eigenvalues --    0.98352   0.98353   1.00168   1.00168   1.01086
 Alpha virt. eigenvalues --    1.01108   1.01282   1.01286   1.03141   1.03141
 Alpha virt. eigenvalues --    1.03445   1.03859   1.04212   1.04212   1.04565
 Alpha virt. eigenvalues --    1.04565   1.05751   1.05751   1.06211   1.06211
 Alpha virt. eigenvalues --    1.06388   1.06389   1.06493   1.06699   1.07508
 Alpha virt. eigenvalues --    1.07508   1.08944   1.08944   1.08947   1.09049
 Alpha virt. eigenvalues --    1.09131   1.09131   1.10984   1.10989   1.11022
 Alpha virt. eigenvalues --    1.11235   1.11235   1.11296   1.11655   1.11655
 Alpha virt. eigenvalues --    1.12247   1.12397   1.12411   1.12575   1.12575
 Alpha virt. eigenvalues --    1.16312   1.16799   1.16856   1.16856   1.17038
 Alpha virt. eigenvalues --    1.17058   1.18026   1.18571   1.18580   1.18952
 Alpha virt. eigenvalues --    1.18952   1.19548   1.19928   1.19928   1.20280
 Alpha virt. eigenvalues --    1.20280   1.21182   1.21219   1.23603   1.23603
 Alpha virt. eigenvalues --    1.23800   1.23800   1.24476   1.26585   1.26585
 Alpha virt. eigenvalues --    1.26984   1.27002   1.27158   1.27158   1.28096
 Alpha virt. eigenvalues --    1.28317   1.28317   1.30126   1.30134   1.34827
 Alpha virt. eigenvalues --    1.34829   1.35147   1.35147   1.35284   1.35284
 Alpha virt. eigenvalues --    1.36206   1.36206   1.37827   1.39233   1.39233
 Alpha virt. eigenvalues --    1.41437   1.41437   1.43383   1.45229   1.45231
 Alpha virt. eigenvalues --    1.45696   1.45865   1.45865   1.45868   1.45868
 Alpha virt. eigenvalues --    1.46147   1.46155   1.46357   1.46357   1.47807
 Alpha virt. eigenvalues --    1.47807   1.47887   1.47888   1.48286   1.49175
 Alpha virt. eigenvalues --    1.51172   1.51172   1.51342   1.51342   1.51413
 Alpha virt. eigenvalues --    1.52577   1.52577   1.56056   1.56057   1.56112
 Alpha virt. eigenvalues --    1.56112   1.60366   1.60366   1.60523   1.60524
 Alpha virt. eigenvalues --    1.62001   1.62001   1.62482   1.62482   1.62884
 Alpha virt. eigenvalues --    1.62917   1.63959   1.63959   1.65770   1.65770
 Alpha virt. eigenvalues --    1.69085   1.70291   1.70506   1.71120   1.71120
 Alpha virt. eigenvalues --    1.71715   1.72071   1.72702   1.72702   1.72787
 Alpha virt. eigenvalues --    1.74034   1.74949   1.74949   1.74975   1.74976
 Alpha virt. eigenvalues --    1.75071   1.75071   1.75662   1.75666   1.76524
 Alpha virt. eigenvalues --    1.76524   1.76737   1.76737   1.77532   1.77583
 Alpha virt. eigenvalues --    1.78036   1.78036   1.78389   1.78389   1.81968
 Alpha virt. eigenvalues --    1.81968   1.82120   1.82120   1.82259   1.82262
 Alpha virt. eigenvalues --    1.82267   1.82267   1.84660   1.84660   1.84894
 Alpha virt. eigenvalues --    1.84894   1.84952   1.84952   1.85442   1.85445
 Alpha virt. eigenvalues --    1.86586   1.86587   1.87269   1.88372   1.88442
 Alpha virt. eigenvalues --    1.88830   1.88944   1.89770   1.89770   1.90401
 Alpha virt. eigenvalues --    1.90665   1.91695   1.91695   1.92645   1.92645
 Alpha virt. eigenvalues --    1.93296   1.93296   1.94182   1.94182   1.94281
 Alpha virt. eigenvalues --    1.94281   1.94453   1.94453   1.94698   1.94698
 Alpha virt. eigenvalues --    1.96066   1.96066   1.96567   1.96567   1.99018
 Alpha virt. eigenvalues --    1.99018   1.99884   1.99894   2.01576   2.02322
 Alpha virt. eigenvalues --    2.02551   2.03971   2.03971   2.06154   2.06154
 Alpha virt. eigenvalues --    2.06874   2.06874   2.07142   2.07142   2.08814
 Alpha virt. eigenvalues --    2.08814   2.09421   2.09422   2.10202   2.10664
 Alpha virt. eigenvalues --    2.10664   2.10693   2.10693   2.11902   2.11902
 Alpha virt. eigenvalues --    2.12858   2.12858   2.13984   2.14149   2.14149
 Alpha virt. eigenvalues --    2.14595   2.14595   2.15973   2.15975   2.16501
 Alpha virt. eigenvalues --    2.17703   2.17703   2.18474   2.18474   2.19788
 Alpha virt. eigenvalues --    2.19791   2.20324   2.20324   2.22867   2.22927
 Alpha virt. eigenvalues --    2.23027   2.23083   2.23089   2.23541   2.24004
 Alpha virt. eigenvalues --    2.24004   2.24797   2.25298   2.25475   2.26393
 Alpha virt. eigenvalues --    2.26393   2.28941   2.28942   2.30153   2.30153
 Alpha virt. eigenvalues --    2.30745   2.30745   2.31228   2.33029   2.33029
 Alpha virt. eigenvalues --    2.33271   2.33306   2.33309   2.33624   2.33624
 Alpha virt. eigenvalues --    2.33782   2.33886   2.34076   2.34076   2.36298
 Alpha virt. eigenvalues --    2.36298   2.36397   2.36634   2.36661   2.37495
 Alpha virt. eigenvalues --    2.37495   2.37587   2.37587   2.39574   2.39574
[...]
 Alpha virt. eigenvalues --    5.10755   5.10755   5.11017   5.11018   5.11075
 Alpha virt. eigenvalues --    5.11085   5.11518   5.11518   5.11896   5.11896
 Alpha virt. eigenvalues --    5.13048   5.13048   5.13281   5.13835   5.18726
 Alpha virt. eigenvalues --    5.19020   5.20899   5.21090   5.23519   5.24312
 Alpha virt. eigenvalues --    5.24312   5.27890   5.27890   5.28421   5.28506
 Alpha virt. eigenvalues --    5.28506   5.29212   5.29212   5.29234   5.29234
 Alpha virt. eigenvalues --    5.32943   5.32943   5.33698   5.33698   5.34539
 Alpha virt. eigenvalues --    5.34541   5.35347   5.36299   5.36299   5.36482
 Alpha virt. eigenvalues --    5.36482   5.38693   5.38694   5.41484   5.41484
 Alpha virt. eigenvalues --    5.42734   5.42736   5.43314   5.43494   5.43494
 Alpha virt. eigenvalues --    5.44302   5.44302   5.44776   5.44776   5.45563
 Alpha virt. eigenvalues --    5.45564   5.45872   5.45872   5.46649   5.48987
 Alpha virt. eigenvalues --    5.48987   5.49461   5.50210   5.51059   5.51059
 Alpha virt. eigenvalues --    5.51538   5.52261   5.52262   5.52528   5.52528
 Alpha virt. eigenvalues --    5.52939   5.52939   5.53666   5.53667   5.57215
 Alpha virt. eigenvalues --    5.57215   5.57356   5.57356   5.59043   5.59043
 Alpha virt. eigenvalues --    5.59678   5.60548   5.60548   5.60612   5.60612
 Alpha virt. eigenvalues --    5.61836   5.62790   5.62790   5.62880   5.62880
 Alpha virt. eigenvalues --    5.63151   5.63151   5.64972   5.64972   5.65533
 Alpha virt. eigenvalues --    5.65533   5.67283   5.67283   5.67599   5.67599
 Alpha virt. eigenvalues --    5.68072   5.68356   5.68356   5.68426   5.68426
 Alpha virt. eigenvalues --    5.69801   5.69801   5.70528   5.70528   5.70857
 Alpha virt. eigenvalues --    5.70857   5.71214   5.71264   5.73905   5.73905
 Alpha virt. eigenvalues --    5.79945   5.79945   5.83839   5.84348   5.84975
 Alpha virt. eigenvalues --    5.84975   5.85355   5.85355   5.89152   5.89549
 Alpha virt. eigenvalues --    5.89549   5.89595   5.89914   5.89914   5.91039
 Alpha virt. eigenvalues --    5.91039   5.91603   5.91603   5.95255   5.96557
 Alpha virt. eigenvalues --    5.96558   5.96959   5.96959   5.97000   5.97000
 Alpha virt. eigenvalues --    5.97684   5.97684   5.99043   6.00177   6.03748
 Alpha virt. eigenvalues --    6.03748   6.04208   6.04208   6.04359   6.04359
 Alpha virt. eigenvalues --    6.05054   6.05054   6.05148   6.05148   6.05538
 Alpha virt. eigenvalues --    6.05538   6.06869   6.06869   6.07767   6.07767
 Alpha virt. eigenvalues --    6.08261   6.08262   6.08549   6.08551   6.09548
 Alpha virt. eigenvalues --    6.09548   6.09596   6.09596   6.10533   6.11259
 Alpha virt. eigenvalues --    6.11259   6.11688   6.11885   6.11885   6.12373
 Alpha virt. eigenvalues --    6.12373   6.13339   6.13339   6.15073   6.15073
 Alpha virt. eigenvalues --    6.15673   6.19331   6.20061   6.20062   6.20359
 Alpha virt. eigenvalues --    6.20359   6.21440   6.21440   6.24255   6.24257
 Alpha virt. eigenvalues --    6.27843   6.27843   6.28344   6.28344   6.28535
 Alpha virt. eigenvalues --    6.29732   6.32707   6.33035   6.34572   6.34885
 Alpha virt. eigenvalues --    6.34885   6.36215   6.36217   6.41008   6.41008
 Alpha virt. eigenvalues --    6.42203   6.42203   6.42755   6.42755   6.42781
 Alpha virt. eigenvalues --    6.42781   6.44584   6.44585   6.46516   6.46516
 Alpha virt. eigenvalues --    6.48210   6.48216   6.50860   6.50861   6.52230
 Alpha virt. eigenvalues --    6.52230   6.52769   6.52772   6.54353   6.54353
 Alpha virt. eigenvalues --    6.54633   6.54633   6.55731   6.55731   6.57496
 Alpha virt. eigenvalues --    6.57804   6.64250   6.64254   6.72862   6.75311
 Alpha virt. eigenvalues --    6.75313   6.77791   6.77791   6.78095   6.78095
 Alpha virt. eigenvalues --    6.78489   6.79385   6.80157   6.80157   6.81234
 Alpha virt. eigenvalues --    6.81238   6.84782   6.84782   6.84784   6.84784
 Alpha virt. eigenvalues --    6.84799   6.84800   6.85061   6.85061   6.86001
 Alpha virt. eigenvalues --    6.86001   6.87583   6.87736   6.87736   6.89834
 Alpha virt. eigenvalues --    6.89835   6.90315   6.92561   6.92561   6.94301
 Alpha virt. eigenvalues --    6.94301   6.94803   6.95130   6.95130   6.98588
 Alpha virt. eigenvalues --    6.98588   6.99784   6.99870   6.99871   6.99891
 Alpha virt. eigenvalues --    6.99891   7.02472   7.02472   7.02520   7.02527
 Alpha virt. eigenvalues --    7.06168   7.06168   7.06390   7.06390   7.11147
 Alpha virt. eigenvalues --    7.11147   7.11734   7.11734   7.12165   7.14185
 Alpha virt. eigenvalues --    7.14185   7.14609   7.14610   7.17314   7.17314
 Alpha virt. eigenvalues --    7.21328   7.21330   7.22561   7.25377   7.29837
 Alpha virt. eigenvalues --    7.29837   7.29925   7.29925   7.30724   7.33214
 Alpha virt. eigenvalues --    7.34670   7.34670   7.34863   7.34863   7.34985
 Alpha virt. eigenvalues --    7.38620   7.38631   7.44064   7.44064   7.45348
 Alpha virt. eigenvalues --    7.45348   7.46814   7.47597   7.51132   7.51601
 Alpha virt. eigenvalues --    7.51601   7.55951   7.59980   7.63725   7.63725
 Alpha virt. eigenvalues --    7.63913   7.63915   7.64564   7.70107   7.70107
 Alpha virt. eigenvalues --    7.71810   7.71810   7.72676   7.75033   7.86347
 Alpha virt. eigenvalues --    7.86347   7.87186   7.88803   7.88803   7.89237
 Alpha virt. eigenvalues --    7.89239   7.91171   7.91171   7.99823   7.99823
 Alpha virt. eigenvalues --    8.01413   8.01441   8.01898   8.04627   8.04627
 Alpha virt. eigenvalues --    8.05458   8.05458   8.08536   8.08536   8.10512
 Alpha virt. eigenvalues --    8.12067   8.12067   8.14586   8.14586   8.28390
 Alpha virt. eigenvalues --    8.28390   8.34955   8.34955   8.35717   8.35718
 Alpha virt. eigenvalues --    8.42646   8.42648   8.46178   8.46178   8.58459
 Alpha virt. eigenvalues --    8.58459   8.67400   8.87001   8.87003   8.90097
 Alpha virt. eigenvalues --    8.90098   9.02116   9.02116   9.10962   9.10962
 Alpha virt. eigenvalues --    9.14614   9.14615   9.15195   9.15195   9.23136
 Alpha virt. eigenvalues --    9.31854   9.31854   9.35129   9.35130   9.36992
 Alpha virt. eigenvalues --    9.36992   9.39067   9.39067   9.41615   9.64306
 Alpha virt. eigenvalues --    9.64306   9.69088   9.69088   9.74224   9.74229
 Alpha virt. eigenvalues --    9.89386   9.93983  10.00529  10.02092  10.07701
 Alpha virt. eigenvalues --   10.07701  10.18105  10.18105  10.31013  10.31013
 Alpha virt. eigenvalues --   10.32636  10.43938  10.43939  10.50628  10.57159
 Alpha virt. eigenvalues --   10.57161  10.70810  10.70810  10.75227  10.75227
 Alpha virt. eigenvalues --   10.81093  10.81093  10.90575  10.90585  11.05643
 Alpha virt. eigenvalues --   11.05646  11.07621  11.07621  11.08800  11.10576
 Alpha virt. eigenvalues --   11.10576  11.13418  11.14470  11.14470  11.17454
 Alpha virt. eigenvalues --   11.17458  11.23498  11.23498  11.30964  11.30968
 Alpha virt. eigenvalues --   11.42955  11.42955  11.52284  11.52286  11.62735
 Alpha virt. eigenvalues --   11.62735  11.62817  11.62817  11.73411  11.95807
 Alpha virt. eigenvalues --   11.95807  12.23659  12.40986  27.62857  27.98710
 Alpha virt. eigenvalues --   27.98710  28.31743  28.31746  28.63392  28.63392
 Alpha virt. eigenvalues --   29.00565  29.00568  29.36624  29.36624  29.66871
 Alpha virt. eigenvalues --   29.68553  29.95261  29.95261  30.21476  30.21478
 Alpha virt. eigenvalues --   30.52618  30.52618  30.74776  30.74776  31.18661
 Alpha virt. eigenvalues --   31.18661  31.37335 144.99419 145.39541 145.39541
 Alpha virt. eigenvalues --  145.74878 145.74879 146.06329 146.06329 146.43932
 Alpha virt. eigenvalues --  146.43933 146.84244 146.84244 147.14522 147.28077
 Alpha virt. eigenvalues --  147.56005 147.56005 147.89718 147.89719 148.29990
 Alpha virt. eigenvalues --  148.29990 148.61004 148.61004 149.13686 149.13686
 Alpha virt. eigenvalues --  149.36291
          Condensed to atoms (all electrons):
               1          2          3          4          5          6
     1  C    7.233703  -0.725696   0.042478   0.002825  -0.000134  -0.000025
     2  C   -0.725696   7.232978  -0.725467   0.042388   0.002824  -0.000134
     3  C    0.042478  -0.725467   7.233917  -0.725810   0.042452   0.002835
     4  C    0.002825   0.042388  -0.725810   7.233703  -0.725697   0.042478
     5  C   -0.000134   0.002824   0.042452  -0.725697   7.232980  -0.725467
     6  C   -0.000025  -0.000134   0.002835   0.042478  -0.725467   7.233919
     7  C   -0.000016  -0.000025  -0.000132   0.002825   0.042388  -0.725809
     8  C   -0.000025  -0.000016  -0.000025  -0.000134   0.002824   0.042452
     9  C   -0.000132  -0.000025  -0.000016  -0.000025  -0.000134   0.002835
    10  C    0.002825  -0.000134  -0.000025  -0.000016  -0.000025  -0.000132
    11  C    0.042388   0.002824  -0.000134  -0.000025  -0.000016  -0.000025
    12  C   -0.725809   0.042452   0.002835  -0.000132  -0.000025  -0.000016
    13  C    0.126811   0.199274  -0.052192   0.006189  -0.000686   0.000028
    14  C   -0.174188   0.127301   0.199273  -0.051955   0.006200  -0.000686
    15  C    0.021308  -0.174188   0.126811   0.199482  -0.051955   0.006189
    16  C    0.000615   0.021285  -0.174226   0.126812   0.199273  -0.052193
    17  C    0.000018   0.000613   0.021285  -0.174188   0.127302   0.199273
    18  C    0.000014   0.000018   0.000615   0.021308  -0.174188   0.126812
    19  C    0.000023   0.000014   0.000018   0.000615   0.021285  -0.174225
    20  C    0.000029   0.000023   0.000014   0.000018   0.000613   0.021285
    21  C   -0.000685   0.000029   0.000023   0.000014   0.000018   0.000615
    22  C    0.006189  -0.000686   0.000028   0.000023   0.000014   0.000018
    23  C   -0.051955   0.006200  -0.000686   0.000029   0.000023   0.000014
    24  C    0.199483  -0.051955   0.006189  -0.000685   0.000029   0.000023
               7          8          9         10         11         12
     1  C   -0.000016  -0.000025  -0.000132   0.002825   0.042388  -0.725809
     2  C   -0.000025  -0.000016  -0.000025  -0.000134   0.002824   0.042452
     3  C   -0.000132  -0.000025  -0.000016  -0.000025  -0.000134   0.002835
     4  C    0.002825  -0.000134  -0.000025  -0.000016  -0.000025  -0.000132
     5  C    0.042388   0.002824  -0.000134  -0.000025  -0.000016  -0.000025
     6  C   -0.725809   0.042452   0.002835  -0.000132  -0.000025  -0.000016
     7  C    7.233704  -0.725696   0.042477   0.002825  -0.000134  -0.000025
     8  C   -0.725696   7.232978  -0.725467   0.042388   0.002824  -0.000134
     9  C    0.042477  -0.725467   7.233916  -0.725809   0.042452   0.002835
    10  C    0.002825   0.042388  -0.725809   7.233703  -0.725697   0.042478
    11  C   -0.000134   0.002824   0.042452  -0.725697   7.232979  -0.725467
    12  C   -0.000025  -0.000134   0.002835   0.042478  -0.725467   7.233917
    13  C    0.000023   0.000014   0.000018   0.000615   0.021285  -0.174225
    14  C    0.000029   0.000023   0.000014   0.000018   0.000613   0.021285
    15  C   -0.000685   0.000029   0.000023   0.000014   0.000018   0.000615
    16  C    0.006189  -0.000686   0.000028   0.000023   0.000014   0.000018
    17  C   -0.051955   0.006200  -0.000686   0.000029   0.000023   0.000014
    18  C    0.199482  -0.051955   0.006189  -0.000685   0.000029   0.000023
    19  C    0.126812   0.199273  -0.052193   0.006189  -0.000686   0.000028
    20  C   -0.174188   0.127301   0.199273  -0.051955   0.006200  -0.000686
    21  C    0.021308  -0.174188   0.126811   0.199482  -0.051955   0.006189
    22  C    0.000615   0.021285  -0.174226   0.126811   0.199273  -0.052192
    23  C    0.000018   0.000613   0.021285  -0.174188   0.127301   0.199274
    24  C    0.000014   0.000018   0.000615   0.021308  -0.174188   0.126811
              13         14         15         16         17         18
     1  C    0.126811  -0.174188   0.021308   0.000615   0.000018   0.000014
     2  C    0.199274   0.127301  -0.174188   0.021285   0.000613   0.000018
     3  C   -0.052192   0.199273   0.126811  -0.174226   0.021285   0.000615
     4  C    0.006189  -0.051955   0.199482   0.126812  -0.174188   0.021308
     5  C   -0.000686   0.006200  -0.051955   0.199273   0.127302  -0.174188
     6  C    0.000028  -0.000686   0.006189  -0.052193   0.199273   0.126812
     7  C    0.000023   0.000029  -0.000685   0.006189  -0.051955   0.199482
     8  C    0.000014   0.000023   0.000029  -0.000686   0.006200  -0.051955
     9  C    0.000018   0.000014   0.000023   0.000028  -0.000686   0.006189
    10  C    0.000615   0.000018   0.000014   0.000023   0.000029  -0.000685
    11  C    0.021285   0.000613   0.000018   0.000014   0.000023   0.000029
    12  C   -0.174225   0.021285   0.000615   0.000018   0.000014   0.000023
    13  C    7.233917  -0.725467   0.042478   0.002835  -0.000134  -0.000025
    14  C   -0.725467   7.232979  -0.725697   0.042452   0.002824  -0.000134
    15  C    0.042478  -0.725697   7.233703  -0.725809   0.042388   0.002825
    16  C    0.002835   0.042452  -0.725809   7.233917  -0.725467   0.042477
    17  C   -0.000134   0.002824   0.042388  -0.725467   7.232979  -0.725696
    18  C   -0.000025  -0.000134   0.002825   0.042477  -0.725696   7.233704
    19  C   -0.000016  -0.000025  -0.000132   0.002835   0.042452  -0.725809
    20  C   -0.000025  -0.000016  -0.000025  -0.000134   0.002824   0.042388
    21  C   -0.000132  -0.000025  -0.000016  -0.000025  -0.000134   0.002825
    22  C    0.002835  -0.000134  -0.000025  -0.000016  -0.000025  -0.000132
    23  C    0.042452   0.002824  -0.000134  -0.000025  -0.000016  -0.000025
    24  C   -0.725809   0.042388   0.002825  -0.000132  -0.000025  -0.000016
              19         20         21         22         23         24
     1  C    0.000023   0.000029  -0.000685   0.006189  -0.051955   0.199483
     2  C    0.000014   0.000023   0.000029  -0.000686   0.006200  -0.051955
     3  C    0.000018   0.000014   0.000023   0.000028  -0.000686   0.006189
     4  C    0.000615   0.000018   0.000014   0.000023   0.000029  -0.000685
     5  C    0.021285   0.000613   0.000018   0.000014   0.000023   0.000029
     6  C   -0.174225   0.021285   0.000615   0.000018   0.000014   0.000023
     7  C    0.126812  -0.174188   0.021308   0.000615   0.000018   0.000014
     8  C    0.199273   0.127301  -0.174188   0.021285   0.000613   0.000018
     9  C   -0.052193   0.199273   0.126811  -0.174226   0.021285   0.000615
    10  C    0.006189  -0.051955   0.199482   0.126811  -0.174188   0.021308
    11  C   -0.000686   0.006200  -0.051955   0.199273   0.127301  -0.174188
    12  C    0.000028  -0.000686   0.006189  -0.052192   0.199274   0.126811
    13  C   -0.000016  -0.000025  -0.000132   0.002835   0.042452  -0.725809
    14  C   -0.000025  -0.000016  -0.000025  -0.000134   0.002824   0.042388
    15  C   -0.000132  -0.000025  -0.000016  -0.000025  -0.000134   0.002825
    16  C    0.002835  -0.000134  -0.000025  -0.000016  -0.000025  -0.000132
    17  C    0.042452   0.002824  -0.000134  -0.000025  -0.000016  -0.000025
    18  C   -0.725809   0.042388   0.002825  -0.000132  -0.000025  -0.000016
    19  C    7.233919  -0.725467   0.042478   0.002835  -0.000134  -0.000025
    20  C   -0.725467   7.232980  -0.725697   0.042452   0.002824  -0.000134
    21  C    0.042478  -0.725697   7.233703  -0.725810   0.042388   0.002825
    22  C    0.002835   0.042452  -0.725810   7.233916  -0.725467   0.042478
    23  C   -0.000134   0.002824   0.042388  -0.725467   7.232978  -0.725696
    24  C   -0.000025  -0.000134   0.002825   0.042478  -0.725696   7.233703
 Mulliken charges:
               1
     1  C   -0.000043
     2  C    0.000102
     3  C   -0.000059
     4  C   -0.000040
     5  C    0.000102
     6  C   -0.000062
     7  C   -0.000044
     8  C    0.000102
     9  C   -0.000059
    10  C   -0.000040
    11  C    0.000103
    12  C   -0.000062
    13  C   -0.000062
    14  C    0.000103
    15  C   -0.000040
    16  C   -0.000059
    17  C    0.000102
    18  C   -0.000044
    19  C   -0.000063
    20  C    0.000102
    21  C   -0.000040
    22  C   -0.000059
    23  C    0.000102
    24  C   -0.000043
 Sum of Mulliken charges =  -0.00000
 Mulliken charges with hydrogens summed into heavy atoms:
               1
     1  C   -0.000043
     2  C    0.000102
     3  C   -0.000059
     4  C   -0.000040
     5  C    0.000102
     6  C   -0.000062
     7  C   -0.000044
     8  C    0.000102
     9  C   -0.000059
    10  C   -0.000040
    11  C    0.000103
    12  C   -0.000062
    13  C   -0.000062
    14  C    0.000103
    15  C   -0.000040
    16  C   -0.000059
    17  C    0.000102
    18  C   -0.000044
    19  C   -0.000063
    20  C    0.000102
    21  C   -0.000040
    22  C   -0.000059
    23  C    0.000102
    24  C   -0.000043
 Electronic spatial extent (au):  <R**2>=          12691.0105
 Charge=             -0.0000 electrons
 Dipole moment (field-independent basis, Debye):
    X=              0.0000    Y=             -0.0000    Z=             -0.0000  Tot=              0.0000
 Quadrupole moment (field-independent basis, Debye-Ang):
   XX=           -130.1551   YY=           -130.1551   ZZ=           -132.4764
   XY=              0.0000   XZ=             -0.0000   YZ=             -0.0000
 Traceless Quadrupole moment (field-independent basis, Debye-Ang):
   XX=              0.7738   YY=              0.7738   ZZ=             -1.5476
   XY=              0.0000   XZ=             -0.0000   YZ=             -0.0000
 Octapole moment (field-independent basis, Debye-Ang**2):
  XXX=             -0.0000  YYY=              0.0000  ZZZ=             -0.0000  XYY=              0.0000
  XXY=             -0.0000  XXZ=             -0.0000  XZZ=             -0.0000  YZZ=              0.0000
  YYZ=             -0.0000  XYZ=              0.0000
 Hexadecapole moment (field-independent basis, Debye-Ang**3):
 XXXX=          -9679.9241 YYYY=          -9679.9239 ZZZZ=           -149.0859 XXXY=              0.0000
 XXXZ=             -0.0000 YYYX=              0.0000 YYYZ=             -0.0000 ZZZX=             -0.0000
 ZZZY=             -0.0000 XXYY=          -3226.6357 XXZZ=          -1654.8744 YYZZ=          -1654.8744
 XXYZ=             -0.0000 YYXZ=             -0.0000 ZZXY=              0.0000
 N-N= 1.175579243365D+03 E-N=-4.469185817300D+03  KE= 9.102880796099D+02
 No NMR shielding tensors so no spin-rotation constants.
 Leave Link  601 at Sun Apr 25 00:31:22 2021, MaxMem= 12079595520 cpu:           15304.3 elap:             325.9
 (Enter /s/ls4/groups/g0130/bin/g16/l9999.exe)

 Test job not archived.
 1\1\GINC-N061\Stability\RM062X\Gen\C24\ROOT\25-Apr-2021\0\\#P M062X/GE
 N Integral=UltraFineGrid scf=(IntRep,nosymm,xqc,maxconven=155) Stable=
 (RExt, Opt) IOp(1/33=1)\\Database calculations.\\0,1\C,0,0.61378,4.871
 844,0.\C,0,2.967471,3.912251,0.\C,0,4.526031,1.904373,0.\C,0,4.871844,
 -0.61378,0.\C,0,3.912251,-2.967471,0.\C,0,1.904373,-4.526031,0.\C,0,-0
 .61378,-4.871844,0.\C,0,-2.967471,-3.912251,0.\C,0,-4.526031,-1.904373
 ,0.\C,0,-4.871844,0.61378,0.\C,0,-3.912251,2.967471,0.\C,0,-1.904373,4
 .526031,0.\C,0,1.904373,4.526031,0.\C,0,3.912251,2.967471,0.\C,0,4.871
 844,0.61378,0.\C,0,4.526031,-1.904373,0.\C,0,2.967471,-3.912251,0.\C,0
 ,0.61378,-4.871844,0.\C,0,-1.904373,-4.526031,0.\C,0,-3.912251,-2.9674
 71,0.\C,0,-4.871844,-0.61378,0.\C,0,-4.526031,1.904373,0.\C,0,-2.96747
 1,3.912251,0.\C,0,-0.61378,4.871844,0.\\Version=ES64L-G16RevA.03\HF=-9
 13.856626\RMSD=9.145e-09\Dipole=0.,0.,0.\Quadrupole=0.5752882,0.575293
 7,-1.1505819,0.0000006,0.,0.\PG=D12H [SGH(C24)]\\@


 REALITY IS FOR PEOPLE WHO CAN'T FACE SCIENCE FICTION.
 Job cpu time:       8 days  5 hours 56 minutes 44.9 seconds.
 Elapsed time:       0 days  4 hours 10 minutes  1.8 seconds.
 File lengths (MBytes):  RWF=   6094 Int=      0 D2E=      0 Chk=    341 Scr=      1
 Normal termination of Gaussian 16 at Sun Apr 25 00:31:24 2021.
