 Entering Gaussian System, Link 0=/s/ls4/users/knvvv/bin/g16sse/g16
 Input=data/database/M062X--cc-pVQZ--05_Ge2_4pIsoE4.gjf
 Output=data/database/M062X--cc-pVQZ--05_Ge2_4pIsoE4.log
 Initial command:
 /s/ls4/users/knvvv/bin/g16sse/l1.exe "/s/ls4/users/knvvv/bin/scratch/Gau-19618.inp" -scrdir="/s/ls4/users/knvvv/bin/scratch/"
 Entering Link 1 = /s/ls4/users/knvvv/bin/g16sse/l1.exe PID=     19619.
  
 Copyright (c) 1988,1990,1992,1993,1995,1998,2003,2009,2016,
            Gaussian, Inc.  All Rights Reserved.
  
 This is part of the Gaussian(R) 16 program.  It is based on
 the Gaussian(R) 09 system (copyright 2009, Gaussian, Inc.),
 the Gaussian(R) 03 system (copyright 2003, Gaussian, Inc.),
 the Gaussian(R) 98 system (copyright 1998, Gaussian, Inc.),
 the Gaussian(R) 94 system (copyright 1995, Gaussian, Inc.),
 the Gaussian 92(TM) system (copyright 1992, Gaussian, Inc.),
 the Gaussian 90(TM) system (copyright 1990, Gaussian, Inc.),
 the Gaussian 88(TM) system (copyright 1988, Gaussian, Inc.),
 the Gaussian 86(TM) system (copyright 1986, Carnegie Mellon
 University), and the Gaussian 82(TM) system (copyright 1983,
 Carnegie Mellon University). Gaussian is a federally registered
 trademark of Gaussian, Inc.
  
 This software contains proprietary and confidential information,
 including trade secrets, belonging to Gaussian, Inc.
  
 This software is provided under written license and may be
 used, copied, transmitted, or stored only in accord with that
 written license.
  
 The following legend is applicable only to US Government
 contracts under FAR:
  
                    RESTRICTED RIGHTS LEGEND
  
 Use, reproduction and disclosure by the US Government is
 subject to restrictions as set forth in subparagraphs (a)
 and (c) of the Commercial Computer Software - Restricted
 Rights clause in FAR 52.227-19.
  
 Gaussian, Inc.
 340 Quinnipiac St., Bldg. 40, Wallingford CT 06492
  
  
 ---------------------------------------------------------------
 Warning -- This program may not be used in any manner that
 competes with the business of Gaussian, Inc. or will provide
 assistance to any competitor of Gaussian, Inc.  The licensee
 of this program is prohibited from giving any competitor of
 Gaussian, Inc. access to this program.  By using this program,
 the user acknowledges that Gaussian, Inc. is engaged in the
 business of creating and licensing software in the field of
 computational chemistry and represents and warrants to the
 licensee that it is not a competitor of Gaussian, Inc. and that
 it will not use this program in any manner prohibited above.
 ---------------------------------------------------------------
  

 Cite this work as:
 Gaussian 16, Revision A.03,
 M. J. Frisch, G. W. Trucks, H. B. Schlegel, G. E. Scuseria, 
 M. A. Robb, J. R. Cheeseman, G. Scalmani, V. Barone, 
 G. A. Petersson, H. Nakatsuji, X. Li, M. Caricato, A. V. Marenich, 
 J. Bloino, B. G. Janesko, R. Gomperts, B. Mennucci, H. P. Hratchian, 
 J. V. Ortiz, A. F. Izmaylov, J. L. Sonnenberg, D. Williams-Young, 
 F. Ding, F. Lipparini, F. Egidi, J. Goings, B. Peng, A. Petrone, 
 T. Henderson, D. Ranasinghe, V. G. Zakrzewski, J. Gao, N. Rega, 
 G. Zheng, W. Liang, M. Hada, M. Ehara, K. Toyota, R. Fukuda, 
 J. Hasegawa, M. Ishida, T. Nakajima, Y. Honda, O. Kitao, H. Nakai, 
 T. Vreven, K. Throssell, J. A. Montgomery, Jr., J. E. Peralta, 
 F. Ogliaro, M. J. Bearpark, J. J. Heyd, E. N. Brothers, K. N. Kudin, 
 V. N. Staroverov, T. A. Keith, R. Kobayashi, J. Normand, 
 K. Raghavachari, A. P. Rendell, J. C. Burant, S. S. Iyengar, 
 J. Tomasi, M. Cossi, J. M. Millam, M. Klene, C. Adamo, R. Cammi, 
 J. W. Ochterski, R. L. Martin, K. Morokuma, O. Farkas, 
 J. B. Foresman, and D. J. Fox, Gaussian, Inc., Wallingford CT, 2016.
 
 ******************************************
 Gaussian 16:  ES64L-G16RevA.03 25-Dec-2016
                16-Apr-2021 
 ******************************************
 %RWF=temp20_80251,70GB
 %nprocshared=48
 Will use up to   48 processors via shared memory.
 Default route: MaxDisk=80GB
 ----------------------------------------------------------------------
 #P M062X/cc-pVQZ Integral=UltraFineGrid SCF=NoSymm Stable=(RExt, Opt) 
 IOp(1/33=1)
 ----------------------------------------------------------------------
 1/33=1,38=1,172=1/1;
 2/12=2,17=6,18=5,40=1/2;
 3/5=16,6=2,11=2,25=1,30=1,74=-55,75=-5/1,2,3;
 4/9=2/1;
 5/5=2,38=5/2;
 6/7=2,8=2,9=2,10=2,28=1/1;
 8/6=1,10=90,11=11/1;
 9/8=-3,42=1,46=1/14;
 5/5=2,8=3,17=40,38=5/8(-2);
 6/7=2,8=2,9=2,10=2,28=1/1;
 99/5=1,9=1/99;
 Leave Link    1 at Fri Apr 16 22:49:57 2021, MaxMem=           0 cpu:              10.9 elap:               0.3
 (Enter /s/ls4/users/knvvv/bin/g16sse/l101.exe)
 ONIOM data not found on unit 2.
 ----------------------
 Database calculations.
 ----------------------
 TstMul:  ICh=     0
 TstMul:  Mul=     1
 TstMul:  ICh=     0
 TstMul:  Mul=     1
 Symbolic Z-matrix:
 Charge =  0 Multiplicity = 1
 6                    -3.67714  -0.46683   0.00004 
 6                    -2.50757   0.50288  -0.00003 
 1                    -4.63483   0.05718   0.00005 
 1                    -3.65194  -1.11303  -0.8812 
 1                    -3.65187  -1.11297   0.88132 
 6                    -1.15636  -0.19871  -0.00005 
 1                    -2.56937   1.15904  -0.87504 
 1                    -2.56931   1.15909   0.87495 
 6                     0.01974   0.76883   0.00003 
 1                    -1.09753  -0.85736   0.87437 
 1                    -1.09749  -0.85725  -0.87455 
 1                    -0.02385   1.42207  -0.87647 
 1                    -0.02388   1.42196   0.87661 
 32                    1.76643  -0.11901   0. 
 1                     1.90716  -1.0102   -1.24811 
 1                     2.90814   0.91294   0.00005 
 1                     1.90714  -1.01029   1.24805 
 
 RdStrC is calling ZToCFu for IStruc=1 NZ=    17.
 PrtBox:  NBox=     2 Levels=  2 BoxLen=    8.00 SMaxX=       14.25
          Shift=            8.758556            2.103312            2.358577
 Box      1 Number                   0 centers from      1 to     10:
 Box      2 Number                   4 centers from     11 to     17:
 After GenITR:
 ITRead=  0  0  0  0  0  0  0  0  0  0  0  0  0  0  0  0  0
 MicOpt= -1 -1 -1 -1 -1 -1 -1 -1 -1 -1 -1 -1 -1 -1 -1 -1 -1
 ITRead=  0  0  0  0  0  0  0  0  0  0  0  0  0  0  0  0  0
 MicOpt= -1 -1 -1 -1 -1 -1 -1 -1 -1 -1 -1 -1 -1 -1 -1 -1 -1
 NAtoms=     17 NQM=       17 NQMF=       0 NMMI=      0 NMMIF=      0
                NMic=       0 NMicF=      0.
                    Isotopes and Nuclear Properties:
 (Nuclear quadrupole moments (NQMom) in fm**2, nuclear magnetic moments (NMagM)
  in nuclear magnetons)

  Atom         1           2           3           4           5           6           7           8           9          10
 IAtWgt=          12          12           1           1           1          12           1           1          12           1
 AtmWgt=  12.0000000  12.0000000   1.0078250   1.0078250   1.0078250  12.0000000   1.0078250   1.0078250  12.0000000   1.0078250
 NucSpn=           0           0           1           1           1           0           1           1           0           1
 AtZEff=  -0.0000000  -0.0000000  -0.0000000  -0.0000000  -0.0000000  -0.0000000  -0.0000000  -0.0000000  -0.0000000  -0.0000000
 NQMom=    0.0000000   0.0000000   0.0000000   0.0000000   0.0000000   0.0000000   0.0000000   0.0000000   0.0000000   0.0000000
 NMagM=    0.0000000   0.0000000   2.7928460   2.7928460   2.7928460   0.0000000   2.7928460   2.7928460   0.0000000   2.7928460
 AtZNuc=   6.0000000   6.0000000   1.0000000   1.0000000   1.0000000   6.0000000   1.0000000   1.0000000   6.0000000   1.0000000

  Atom        11          12          13          14          15          16          17
 IAtWgt=           1           1           1          74           1           1           1
 AtmWgt=   1.0078250   1.0078250   1.0078250  73.9211788   1.0078250   1.0078250   1.0078250
 NucSpn=           1           1           1           0           1           1           1
 AtZEff=  -0.0000000  -0.0000000  -0.0000000  -0.0000000  -0.0000000  -0.0000000  -0.0000000
 NQMom=    0.0000000   0.0000000   0.0000000   0.0000000   0.0000000   0.0000000   0.0000000
 NMagM=    2.7928460   2.7928460   2.7928460   0.0000000   2.7928460   2.7928460   2.7928460
 AtZNuc=   1.0000000   1.0000000   1.0000000  32.0000000   1.0000000   1.0000000   1.0000000
 No MM parameters found.
 Leave Link  101 at Fri Apr 16 22:49:57 2021, MaxMem=   104857600 cpu:               7.0 elap:               0.2
 (Enter /s/ls4/users/knvvv/bin/g16sse/l202.exe)
                          Input orientation:                          
 ---------------------------------------------------------------------
 Center     Atomic      Atomic             Coordinates (Angstroms)
 Number     Number       Type             X           Y           Z
 ---------------------------------------------------------------------
      1          6           0       -3.677143   -0.466829    0.000037
      2          6           0       -2.507571    0.502878   -0.000031
      3          1           0       -4.634828    0.057177    0.000053
      4          1           0       -3.651936   -1.113025   -0.881203
      5          1           0       -3.651872   -1.112968    0.881317
      6          6           0       -1.156355   -0.198710   -0.000053
      7          1           0       -2.569370    1.159041   -0.875041
      8          1           0       -2.569305    1.159089    0.874951
      9          6           0        0.019740    0.768828    0.000028
     10          1           0       -1.097530   -0.857363    0.874367
     11          1           0       -1.097489   -0.857254   -0.874553
     12          1           0       -0.023853    1.422073   -0.876472
     13          1           0       -0.023882    1.421957    0.876614
     14         32           0        1.766425   -0.119006    0.000003
     15          1           0        1.907159   -1.010198   -1.248105
     16          1           0        2.908141    0.912938    0.000048
     17          1           0        1.907141   -1.010291    1.248046
 ---------------------------------------------------------------------
                    Distance matrix (angstroms):
                    1          2          3          4          5
     1  C    0.000000
     2  C    1.519286   0.000000
     3  H    1.091670   2.173447   0.000000
     4  H    1.093064   2.167297   1.764104   0.000000
     5  H    1.093064   2.167293   1.764105   1.762520   0.000000
     6  C    2.535007   1.522501   3.487872   2.800057   2.800051
     7  H    2.153225   1.095450   2.499202   2.516798   3.068978
     8  H    2.153228   1.095453   2.499208   3.068985   2.516791
     9  C    3.897922   2.541265   4.708657   4.218903   4.218834
    10  H    2.751613   2.145470   3.756765   3.110045   2.567108
    11  H    2.751718   2.145479   3.756845   2.567229   3.110200
    12  H    4.205086   2.789610   4.887978   4.426029   4.762224
    13  H    4.205023   2.789610   4.887925   4.762230   4.425853
    14  Ge   5.454669   4.319002   6.403677   5.578820   5.578765
    15  H    5.747829   4.830831   6.744982   5.572139   5.953808
    16  H    6.728278   5.431214   7.591357   6.922120   6.922045
    17  H    5.747791   4.830845   6.744949   5.953788   5.572043
                    6          7          8          9         10
     6  C    0.000000
     7  H    2.146090   0.000000
     8  H    2.146084   1.749992   0.000000
     9  C    1.522934   2.760707   2.760606   0.000000
    10  H    1.096309   3.048381   2.496438   2.158068   0.000000
    11  H    1.096310   2.496373   3.048384   2.158063   1.748920
    12  H    2.162778   2.559071   3.100963   1.094021   3.068232
    13  H    2.162776   3.101117   2.558961   1.094022   2.519529
    14  Ge   2.923867   4.604153   4.604087   1.959377   3.084140
    15  H    3.406063   4.988395   5.408503   2.878388   3.681902
    16  H    4.213774   5.552430   5.552338   2.891994   4.465848
    17  H    3.406086   5.408572   4.988384   2.878384   3.031678
                   11         12         13         14         15
    11  H    0.000000
    12  H    2.519530   0.000000
    13  H    3.068228   1.753086   0.000000
    14  Ge   3.084131   2.519569   2.519566   0.000000
    15  H    3.031640   3.127756   3.762809   1.540066   0.000000
    16  H    4.465823   3.102272   3.102294   1.538968   2.501660
    17  H    3.681935   3.762806   3.127722   1.540065   2.496151
                   16         17
    16  H    0.000000
    17  H    2.501661   0.000000
 Stoichiometry    C4H12Ge
 Framework group  C1[X(C4H12Ge)]
 Deg. of freedom    45
 Full point group                 C1      NOp   1
 Largest Abelian subgroup         C1      NOp   1
 Largest concise Abelian subgroup C1      NOp   1
                         Standard orientation:                         
 ---------------------------------------------------------------------
 Center     Atomic      Atomic             Coordinates (Angstroms)
 Number     Number       Type             X           Y           Z
 ---------------------------------------------------------------------
      1          6           0        3.677143   -0.466829   -0.000037
      2          6           0        2.507571    0.502878    0.000031
      3          1           0        4.634828    0.057177   -0.000053
      4          1           0        3.651936   -1.113025    0.881203
      5          1           0        3.651872   -1.112968   -0.881317
      6          6           0        1.156355   -0.198710    0.000053
      7          1           0        2.569370    1.159041    0.875041
      8          1           0        2.569305    1.159089   -0.874951
      9          6           0       -0.019740    0.768828   -0.000028
     10          1           0        1.097530   -0.857363   -0.874367
     11          1           0        1.097489   -0.857254    0.874553
     12          1           0        0.023853    1.422073    0.876472
     13          1           0        0.023882    1.421957   -0.876614
     14         32           0       -1.766425   -0.119006   -0.000003
     15          1           0       -1.907159   -1.010198    1.248105
     16          1           0       -2.908141    0.912938   -0.000048
     17          1           0       -1.907141   -1.010291   -1.248046
 ---------------------------------------------------------------------
 Rotational constants (GHZ):          13.5794864           0.8910331           0.8628296
 Leave Link  202 at Fri Apr 16 22:49:57 2021, MaxMem=   104857600 cpu:               5.9 elap:               0.1
 (Enter /s/ls4/users/knvvv/bin/g16sse/l301.exe)
 Standard basis: CC-pVQZ (5D, 7F)
 Ernie: Thresh=  0.10000D-02 Tol=  0.10000D-05 Strict=F.
 Ernie:  49 primitive shells out of 408 were deleted.
 There are   784 symmetry adapted cartesian basis functions of A   symmetry.
 There are   648 symmetry adapted basis functions of A   symmetry.
   648 basis functions,  1053 primitive gaussians,   784 cartesian basis functions
    34 alpha electrons       34 beta electrons
       nuclear repulsion energy       338.9141409053 Hartrees.
 IExCor= 4336 DFT=T Ex+Corr=M062X ExCW=0 ScaHFX=  0.540000
 ScaDFX=  1.000000  1.000000  1.000000  1.000000 ScalE2=  1.000000  1.000000
 IRadAn=      5 IRanWt=     -1 IRanGd=            0 ICorTp=0 IEmpDi=  4
 NAtoms=   17 NActive=   17 NUniq=   17 SFac= 1.00D+00 NAtFMM=   60 NAOKFM=F Big=F
 Integral buffers will be    131072 words long.
 Raffenetti 2 integral format.
 Two-electron integral symmetry is turned on.
 Leave Link  301 at Fri Apr 16 22:49:57 2021, MaxMem=   104857600 cpu:               4.4 elap:               0.1
 (Enter /s/ls4/users/knvvv/bin/g16sse/l302.exe)
 NPDir=0 NMtPBC=     1 NCelOv=     1 NCel=       1 NClECP=     1 NCelD=      1
         NCelK=      1 NCelE2=     1 NClLst=     1 CellRange=     0.0.
 One-electron integrals computed using PRISM.
 One-electron integral symmetry used in STVInt
 PrsmSu:  requested number of processors reduced to:   1 ShMem   1 Linda.
 PrsmSu:  requested number of processors reduced to:  11 ShMem   1 Linda.
 NBasis=   648 RedAO= T EigKep=  6.36D-05  NBF=   648
 NBsUse=   648 1.00D-06 EigRej= -1.00D+00 NBFU=   648
 Precomputing XC quadrature grid using
 IXCGrd= 4 IRadAn=           5 IRanWt=          -1 IRanGd=           0 AccXCQ= 0.00D+00.
 Generated NRdTot=       0 NPtTot=           0 NUsed=           0 NTot=          32
 NSgBfM=   783   783   783   783   783 MxSgAt=    17 MxSgA2=    17.
 Leave Link  302 at Fri Apr 16 22:50:08 2021, MaxMem=   104857600 cpu:             495.5 elap:              10.7
 (Enter /s/ls4/users/knvvv/bin/g16sse/l303.exe)
 DipDrv:  MaxL=1.
 Leave Link  303 at Fri Apr 16 22:50:13 2021, MaxMem=   104857600 cpu:             222.4 elap:               4.8
 (Enter /s/ls4/users/knvvv/bin/g16sse/l401.exe)
 SCF N**3 symmetry information disabled.
 ExpMin= 5.17D-02 ExpMax= 1.24D+07 ExpMxC= 5.48D+03 IAcc=3 IRadAn=         5 AccDes= 0.00D+00
 Harris functional with IExCor= 1009 and IRadAn=       5 diagonalized for initial guess.
 HarFok:  IExCor= 1009 AccDes= 0.00D+00 IRadAn=         5 IDoV= 1 UseB2=F ITyADJ=14
 ICtDFT=  3500011 ScaDFX=  1.000000  1.000000  1.000000  1.000000
 FoFCou: FMM=F IPFlag=           0 FMFlag=      100000 FMFlg1=           0
         NFxFlg=           0 DoJE=T BraDBF=F KetDBF=T FulRan=T
         wScrn=  0.000000 ICntrl=       500 IOpCl=  0 I1Cent=   200000004 NGrid=           0
         NMat0=    1 NMatS0=      1 NMatT0=    0 NMatD0=    1 NMtDS0=    0 NMtDT0=    0
 Petite list used in FoFCou.
 CoulSu:  requested number of processors reduced to:  10 ShMem   1 Linda.
 CoulSu:  requested number of processors reduced to:  10 ShMem   1 Linda.
 CoulSu:  requested number of processors reduced to:  12 ShMem   1 Linda.
 CoulSu:  requested number of processors reduced to:  12 ShMem   1 Linda.
 Harris En= -2236.29490432373    
 JPrj=0 DoOrth=F DoCkMO=F.
 Leave Link  401 at Fri Apr 16 22:50:16 2021, MaxMem=   104857600 cpu:             166.5 elap:               3.9
 (Enter /s/ls4/users/knvvv/bin/g16sse/l502.exe)
 Integral symmetry usage will be decided dynamically.
 Closed shell SCF:
 Using DIIS extrapolation, IDIIS=  1040.
 NGot=   104857600 LenX=   103584405 LenY=   102968965
 Requested convergence on RMS density matrix=1.00D-08 within 128 cycles.
 Requested convergence on MAX density matrix=1.00D-06.
 Requested convergence on             energy=1.00D-06.
 No special actions if energy rises.
 Fock matrices will be formed incrementally for  20 cycles.
 Integral accuracy reduced to 1.0D-05 until final iterations.

 Cycle   1  Pass 0  IDiag  1:
 FoFJK:  IHMeth= 1 ICntrl=       0 DoSepK=F KAlg= 0 I1Cent=           0 FoldK=F
 IRaf= 900000000 NMat=       1 IRICut=       1 DoRegI=T DoRafI=F ISym2E= 0 IDoP0=0 IntGTp=1.
 FoFCou: FMM=F IPFlag=           0 FMFlag=      100000 FMFlg1=           0
         NFxFlg=           0 DoJE=F BraDBF=F KetDBF=F FulRan=T
         wScrn=  0.000000 ICntrl=         0 IOpCl=  0 I1Cent=           0 NGrid=           0
         NMat0=    1 NMatS0=      1 NMatT0=    0 NMatD0=    1 NMtDS0=    0 NMtDT0=    0
 Symmetry not used in FoFCou.
 CoulSu:  requested number of processors reduced to:  11 ShMem   1 Linda.
 E= -2236.34915487123    
 DIIS: error= 3.16D-02 at cycle   1 NSaved=   1.
 NSaved= 1 IEnMin= 1 EnMin= -2236.34915487123     IErMin= 1 ErrMin= 3.16D-02
 ErrMax= 3.16D-02  0.00D+00 EMaxC= 1.00D-01 BMatC= 5.35D-01 BMatP= 5.35D-01
 IDIUse=3 WtCom= 6.84D-01 WtEn= 3.16D-01
 Coeff-Com:  0.100D+01
 Coeff-En:   0.100D+01
 Coeff:      0.100D+01
 Gap=     0.480 Goal=   None    Shift=    0.000
 GapD=    0.480 DampG=2.000 DampE=0.500 DampFc=1.0000 IDamp=-1.
 RMSDP=1.67D-03 MaxDP=8.16D-02              OVMax= 1.89D-01

 Cycle   2  Pass 0  IDiag  1:
 RMSU=  1.67D-03    CP:  9.98D-01
 CoulSu:  requested number of processors reduced to:  11 ShMem   1 Linda.
 E= -2236.40764850179     Delta-E=       -0.058493630568 Rises=F Damp=F
 DIIS: error= 3.06D-02 at cycle   2 NSaved=   2.
 NSaved= 2 IEnMin= 2 EnMin= -2236.40764850179     IErMin= 2 ErrMin= 3.06D-02
 ErrMax= 3.06D-02  0.00D+00 EMaxC= 1.00D-01 BMatC= 3.67D-01 BMatP= 5.35D-01
 IDIUse=3 WtCom= 6.94D-01 WtEn= 3.06D-01
 Coeff-Com:  0.450D+00 0.550D+00
 Coeff-En:   0.444D+00 0.556D+00
 Coeff:      0.448D+00 0.552D+00
 Gap=     0.413 Goal=   None    Shift=    0.000
 RMSDP=1.08D-03 MaxDP=5.97D-02 DE=-5.85D-02 OVMax= 1.41D-01

 Cycle   3  Pass 0  IDiag  1:
 RMSU=  4.78D-04    CP:  1.00D+00  4.24D-01
 CoulSu:  requested number of processors reduced to:  11 ShMem   1 Linda.
 E= -2236.66488256398     Delta-E=       -0.257234062188 Rises=F Damp=F
 DIIS: error= 4.70D-03 at cycle   3 NSaved=   3.
 NSaved= 3 IEnMin= 3 EnMin= -2236.66488256398     IErMin= 3 ErrMin= 4.70D-03
 ErrMax= 4.70D-03  0.00D+00 EMaxC= 1.00D-01 BMatC= 5.09D-03 BMatP= 3.67D-01
 IDIUse=3 WtCom= 9.53D-01 WtEn= 4.70D-02
 Coeff-Com:  0.391D-01 0.119D+00 0.842D+00
 Coeff-En:   0.000D+00 0.000D+00 0.100D+01
 Coeff:      0.373D-01 0.113D+00 0.850D+00
 Gap=     0.376 Goal=   None    Shift=    0.000
 RMSDP=1.28D-04 MaxDP=1.26D-02 DE=-2.57D-01 OVMax= 2.77D-02

 Cycle   4  Pass 0  IDiag  1:
 RMSU=  1.23D-04    CP:  1.00D+00  4.40D-01  1.05D+00
 CoulSu:  requested number of processors reduced to:  11 ShMem   1 Linda.
 E= -2236.66926001113     Delta-E=       -0.004377447148 Rises=F Damp=F
 DIIS: error= 1.70D-03 at cycle   4 NSaved=   4.
 NSaved= 4 IEnMin= 4 EnMin= -2236.66926001113     IErMin= 4 ErrMin= 1.70D-03
 ErrMax= 1.70D-03  0.00D+00 EMaxC= 1.00D-01 BMatC= 8.34D-04 BMatP= 5.09D-03
 IDIUse=3 WtCom= 9.83D-01 WtEn= 1.70D-02
 Coeff-Com: -0.777D-02 0.128D-01 0.343D+00 0.652D+00
 Coeff-En:   0.000D+00 0.000D+00 0.208D-01 0.979D+00
 Coeff:     -0.764D-02 0.126D-01 0.338D+00 0.657D+00
 Gap=     0.378 Goal=   None    Shift=    0.000
 RMSDP=5.00D-05 MaxDP=6.72D-03 DE=-4.38D-03 OVMax= 8.00D-03

 Cycle   5  Pass 0  IDiag  1:
 RMSU=  3.59D-05    CP:  1.00D+00  4.37D-01  1.11D+00  8.79D-01
 CoulSu:  requested number of processors reduced to:  11 ShMem   1 Linda.
 E= -2236.67000963524     Delta-E=       -0.000749624107 Rises=F Damp=F
 DIIS: error= 2.83D-04 at cycle   5 NSaved=   5.
 NSaved= 5 IEnMin= 5 EnMin= -2236.67000963524     IErMin= 5 ErrMin= 2.83D-04
 ErrMax= 2.83D-04  0.00D+00 EMaxC= 1.00D-01 BMatC= 3.61D-05 BMatP= 8.34D-04
 IDIUse=3 WtCom= 9.97D-01 WtEn= 2.83D-03
 Coeff-Com: -0.364D-02-0.455D-02 0.445D-01 0.210D+00 0.754D+00
 Coeff-En:   0.000D+00 0.000D+00 0.000D+00 0.000D+00 0.100D+01
 Coeff:     -0.363D-02-0.454D-02 0.443D-01 0.210D+00 0.754D+00
 Gap=     0.378 Goal=   None    Shift=    0.000
 RMSDP=9.53D-06 MaxDP=1.54D-03 DE=-7.50D-04 OVMax= 1.13D-03

 Cycle   6  Pass 0  IDiag  1:
 RMSU=  8.36D-06    CP:  1.00D+00  4.36D-01  1.12D+00  9.06D-01  9.58D-01
 CoulSu:  requested number of processors reduced to:  11 ShMem   1 Linda.
 E= -2236.67003761638     Delta-E=       -0.000027981142 Rises=F Damp=F
 DIIS: error= 7.47D-05 at cycle   6 NSaved=   6.
 NSaved= 6 IEnMin= 6 EnMin= -2236.67003761638     IErMin= 6 ErrMin= 7.47D-05
 ErrMax= 7.47D-05  0.00D+00 EMaxC= 1.00D-01 BMatC= 1.19D-06 BMatP= 3.61D-05
 IDIUse=1 WtCom= 1.00D+00 WtEn= 0.00D+00
 Coeff-Com: -0.357D-03-0.179D-02-0.695D-02 0.166D-01 0.186D+00 0.807D+00
 Coeff:     -0.357D-03-0.179D-02-0.695D-02 0.166D-01 0.186D+00 0.807D+00
 Gap=     0.378 Goal=   None    Shift=    0.000
 RMSDP=2.51D-06 MaxDP=2.18D-04 DE=-2.80D-05 OVMax= 3.07D-04

 Initial convergence to 1.0D-05 achieved.  Increase integral accuracy.
 Cycle   7  Pass 1  IDiag  1:
 CoulSu:  requested number of processors reduced to:  11 ShMem   1 Linda.
 E= -2236.66987826546     Delta-E=        0.000159350916 Rises=F Damp=F
 DIIS: error= 1.77D-04 at cycle   1 NSaved=   1.
 NSaved= 1 IEnMin= 1 EnMin= -2236.66987826546     IErMin= 1 ErrMin= 1.77D-04
 ErrMax= 1.77D-04  0.00D+00 EMaxC= 1.00D-01 BMatC= 1.12D-05 BMatP= 1.12D-05
 IDIUse=3 WtCom= 9.98D-01 WtEn= 1.77D-03
 Coeff-Com:  0.100D+01
 Coeff-En:   0.100D+01
 Coeff:      0.100D+01
 Gap=     0.378 Goal=   None    Shift=    0.000
 RMSDP=2.51D-06 MaxDP=2.18D-04 DE= 1.59D-04 OVMax= 5.17D-04

 Cycle   8  Pass 1  IDiag  1:
 RMSU=  5.65D-05    CP:  1.00D+00
 CoulSu:  requested number of processors reduced to:  11 ShMem   1 Linda.
 E= -2236.66988340114     Delta-E=       -0.000005135675 Rises=F Damp=F
 DIIS: error= 2.00D-05 at cycle   2 NSaved=   2.
 NSaved= 2 IEnMin= 2 EnMin= -2236.66988340114     IErMin= 2 ErrMin= 2.00D-05
 ErrMax= 2.00D-05  0.00D+00 EMaxC= 1.00D-01 BMatC= 1.74D-07 BMatP= 1.12D-05
 IDIUse=1 WtCom= 1.00D+00 WtEn= 0.00D+00
 Coeff-Com:  0.118D-01 0.988D+00
 Coeff:      0.118D-01 0.988D+00
 Gap=     0.378 Goal=   None    Shift=    0.000
 RMSDP=1.96D-06 MaxDP=1.38D-04 DE=-5.14D-06 OVMax= 1.38D-04

 Cycle   9  Pass 1  IDiag  1:
 RMSU=  1.09D-06    CP:  1.00D+00  1.03D+00
 CoulSu:  requested number of processors reduced to:  11 ShMem   1 Linda.
 E= -2236.66988340955     Delta-E=       -0.000000008411 Rises=F Damp=F
 DIIS: error= 1.92D-05 at cycle   3 NSaved=   3.
 NSaved= 3 IEnMin= 3 EnMin= -2236.66988340955     IErMin= 3 ErrMin= 1.92D-05
 ErrMax= 1.92D-05  0.00D+00 EMaxC= 1.00D-01 BMatC= 1.60D-07 BMatP= 1.74D-07
 IDIUse=1 WtCom= 1.00D+00 WtEn= 0.00D+00
 Coeff-Com: -0.958D-02 0.493D+00 0.517D+00
 Coeff:     -0.958D-02 0.493D+00 0.517D+00
 Gap=     0.378 Goal=   None    Shift=    0.000
 RMSDP=4.20D-07 MaxDP=5.80D-05 DE=-8.41D-09 OVMax= 6.91D-05

 Cycle  10  Pass 1  IDiag  1:
 RMSU=  3.02D-07    CP:  1.00D+00  1.03D+00  7.43D-01
 CoulSu:  requested number of processors reduced to:  11 ShMem   1 Linda.
 E= -2236.66988354249     Delta-E=       -0.000000132945 Rises=F Damp=F
 DIIS: error= 9.65D-07 at cycle   4 NSaved=   4.
 NSaved= 4 IEnMin= 4 EnMin= -2236.66988354249     IErMin= 4 ErrMin= 9.65D-07
 ErrMax= 9.65D-07  0.00D+00 EMaxC= 1.00D-01 BMatC= 3.93D-10 BMatP= 1.60D-07
 IDIUse=1 WtCom= 1.00D+00 WtEn= 0.00D+00
 Coeff-Com: -0.149D-02 0.498D-01 0.655D-01 0.886D+00
 Coeff:     -0.149D-02 0.498D-01 0.655D-01 0.886D+00
 Gap=     0.378 Goal=   None    Shift=    0.000
 RMSDP=5.46D-08 MaxDP=9.97D-06 DE=-1.33D-07 OVMax= 9.33D-06

 Cycle  11  Pass 1  IDiag  1:
 RMSU=  4.65D-08    CP:  1.00D+00  1.03D+00  7.51D-01  1.06D+00
 CoulSu:  requested number of processors reduced to:  11 ShMem   1 Linda.
 E= -2236.66988354277     Delta-E=       -0.000000000272 Rises=F Damp=F
 DIIS: error= 5.34D-07 at cycle   5 NSaved=   5.
 NSaved= 5 IEnMin= 5 EnMin= -2236.66988354277     IErMin= 5 ErrMin= 5.34D-07
 ErrMax= 5.34D-07  0.00D+00 EMaxC= 1.00D-01 BMatC= 1.78D-10 BMatP= 3.93D-10
 IDIUse=1 WtCom= 1.00D+00 WtEn= 0.00D+00
 Coeff-Com:  0.532D-03-0.388D-01-0.351D-01 0.405D+00 0.668D+00
 Coeff:      0.532D-03-0.388D-01-0.351D-01 0.405D+00 0.668D+00
 Gap=     0.378 Goal=   None    Shift=    0.000
 RMSDP=2.17D-08 MaxDP=3.98D-06 DE=-2.72D-10 OVMax= 2.53D-06

 Cycle  12  Pass 1  IDiag  1:
 RMSU=  1.74D-08    CP:  1.00D+00  1.03D+00  7.58D-01  1.08D+00  8.49D-01
 CoulSu:  requested number of processors reduced to:  11 ShMem   1 Linda.
 E= -2236.66988354290     Delta-E=       -0.000000000131 Rises=F Damp=F
 DIIS: error= 7.42D-08 at cycle   6 NSaved=   6.
 NSaved= 6 IEnMin= 6 EnMin= -2236.66988354290     IErMin= 6 ErrMin= 7.42D-08
 ErrMax= 7.42D-08  0.00D+00 EMaxC= 1.00D-01 BMatC= 2.06D-12 BMatP= 1.78D-10
 IDIUse=1 WtCom= 1.00D+00 WtEn= 0.00D+00
 Coeff-Com:  0.144D-03-0.780D-02-0.782D-02 0.174D-01 0.754D-01 0.923D+00
 Coeff:      0.144D-03-0.780D-02-0.782D-02 0.174D-01 0.754D-01 0.923D+00
 Gap=     0.378 Goal=   None    Shift=    0.000
 RMSDP=4.20D-09 MaxDP=9.84D-07 DE=-1.31D-10 OVMax= 9.29D-07

 SCF Done:  E(RM062X) =  -2236.66988354     A.U. after   12 cycles
            NFock= 12  Conv=0.42D-08     -V/T= 2.0017
 KE= 2.232970696325D+03 PE=-6.015445766840D+03 EE= 1.206891046067D+03
 Leave Link  502 at Fri Apr 16 22:59:08 2021, MaxMem=   104857600 cpu:           10387.2 elap:             531.9
 (Enter /s/ls4/users/knvvv/bin/g16sse/l601.exe)
 Copying SCF densities to generalized density rwf, IOpCl= 0 IROHF=0.

 **********************************************************************

            Population analysis using the SCF density.

 **********************************************************************

 Orbital symmetries:
       Occupied  (A) (A) (A) (A) (A) (A) (A) (A) (A) (A) (A) (A)
                 (A) (A) (A) (A) (A) (A) (A) (A) (A) (A) (A) (A)
                 (A) (A) (A) (A) (A) (A) (A) (A) (A) (A)
       Virtual   (A) (A) (A) (A) (A) (A) (A) (A) (A) (A) (A) (A)
                 (A) (A) (A) (A) (A) (A) (A) (A) (A) (A) (A) (A)
                 (A) (A) (A) (A) (A) (A) (A) (A) (A) (A) (A) (A)
                 (A) (A) (A) (A) (A) (A) (A) (A) (A) (A) (A) (A)
                 (A) (A) (A) (A) (A) (A) (A) (A) (A) (A) (A) (A)
                 (A) (A) (A) (A) (A) (A) (A) (A) (A) (A) (A) (A)
                 (A) (A) (A) (A) (A) (A) (A) (A) (A) (A) (A) (A)
                 (A) (A) (A) (A) (A) (A) (A) (A) (A) (A) (A) (A)
                 (A) (A) (A) (A) (A) (A) (A) (A) (A) (A) (A) (A)
                 (A) (A) (A) (A) (A) (A) (A) (A) (A) (A) (A) (A)
                 (A) (A) (A) (A) (A) (A) (A) (A) (A) (A) (A) (A)
                 (A) (A) (A) (A) (A) (A) (A) (A) (A) (A) (A) (A)
                 (A) (A) (A) (A) (A) (A) (A) (A) (A) (A) (A) (A)
                 (A) (A) (A) (A) (A) (A) (A) (A) (A) (A) (A) (A)
                 (A) (A) (A) (A) (A) (A) (A) (A) (A) (A) (A) (A)
                 (A) (A) (A) (A) (A) (A) (A) (A) (A) (A) (A) (A)
                 (A) (A) (A) (A) (A) (A) (A) (A) (A) (A) (A) (A)
                 (A) (A) (A) (A) (A) (A) (A) (A) (A) (A) (A) (A)
                 (A) (A) (A) (A) (A) (A) (A) (A) (A) (A) (A) (A)
                 (A) (A) (A) (A) (A) (A) (A) (A) (A) (A) (A) (A)
                 (A) (A) (A) (A) (A) (A) (A) (A) (A) (A) (A) (A)
                 (A) (A) (A) (A) (A) (A) (A) (A) (A) (A) (A) (A)
                 (A) (A) (A) (A) (A) (A) (A) (A) (A) (A) (A) (A)
                 (A) (A) (A) (A) (A) (A) (A) (A) (A) (A) (A) (A)
                 (A) (A) (A) (A) (A) (A) (A) (A) (A) (A) (A) (A)
                 (A) (A) (A) (A) (A) (A) (A) (A) (A) (A) (A) (A)
                 (A) (A) (A) (A) (A) (A) (A) (A) (A) (A) (A) (A)
                 (A) (A) (A) (A) (A) (A) (A) (A) (A) (A) (A) (A)
                 (A) (A) (A) (A) (A) (A) (A) (A) (A) (A) (A) (A)
                 (A) (A) (A) (A) (A) (A) (A) (A) (A) (A) (A) (A)
                 (A) (A) (A) (A) (A) (A) (A) (A) (A) (A) (A) (A)
                 (A) (A) (A) (A) (A) (A) (A) (A) (A) (A) (A) (A)
                 (A) (A) (A) (A) (A) (A) (A) (A) (A) (A) (A) (A)
                 (A) (A) (A) (A) (A) (A) (A) (A) (A) (A) (A) (A)
                 (A) (A) (A) (A) (A) (A) (A) (A) (A) (A) (A) (A)
                 (A) (A) (A) (A) (A) (A) (A) (A) (A) (A) (A) (A)
                 (A) (A) (A) (A) (A) (A) (A) (A) (A) (A) (A) (A)
                 (A) (A) (A) (A) (A) (A) (A) (A) (A) (A) (A) (A)
                 (A) (A) (A) (A) (A) (A) (A) (A) (A) (A) (A) (A)
                 (A) (A) (A) (A) (A) (A) (A) (A) (A) (A) (A) (A)
                 (A) (A) (A) (A) (A) (A) (A) (A) (A) (A) (A) (A)
                 (A) (A) (A) (A) (A) (A) (A) (A) (A) (A) (A) (A)
                 (A) (A) (A) (A) (A) (A) (A) (A) (A) (A) (A) (A)
                 (A) (A) (A) (A) (A) (A) (A) (A) (A) (A) (A) (A)
                 (A) (A) (A) (A) (A) (A) (A) (A) (A) (A) (A) (A)
                 (A) (A) (A) (A) (A) (A) (A) (A) (A) (A) (A) (A)
                 (A) (A) (A) (A) (A) (A) (A) (A) (A) (A) (A) (A)
                 (A) (A) (A) (A) (A) (A) (A) (A) (A) (A) (A) (A)
                 (A) (A) (A) (A) (A) (A) (A) (A) (A) (A) (A) (A)
                 (A) (A) (A) (A) (A) (A) (A) (A) (A) (A) (A) (A)
                 (A) (A) (A) (A) (A) (A) (A) (A) (A) (A) (A) (A)
                 (A) (A)
 The electronic state is 1-A.
 Alpha  occ. eigenvalues -- -400.99484 -50.50840 -45.03288 -45.03288 -45.03267
 Alpha  occ. eigenvalues --  -10.53580 -10.53066 -10.52871 -10.52329  -6.48294
 Alpha  occ. eigenvalues --   -4.64591  -4.64587  -4.64509  -1.38511  -1.38501
 Alpha  occ. eigenvalues --   -1.38421  -1.38208  -1.38199  -0.90071  -0.82193
 Alpha  occ. eigenvalues --   -0.72014  -0.66449  -0.59487  -0.54882  -0.49899
 Alpha  occ. eigenvalues --   -0.48766  -0.46268  -0.42422  -0.42144  -0.40010
 Alpha  occ. eigenvalues --   -0.38705  -0.38049  -0.38023  -0.34076
 Alpha virt. eigenvalues --    0.03691   0.05403   0.06077   0.06313   0.06937
 Alpha virt. eigenvalues --    0.08671   0.08738   0.10277   0.11604   0.12300
 Alpha virt. eigenvalues --    0.12895   0.13689   0.14320   0.15038   0.16072
 Alpha virt. eigenvalues --    0.16132   0.17886   0.18960   0.21463   0.22300
 Alpha virt. eigenvalues --    0.22691   0.23465   0.24366   0.26062   0.26524
 Alpha virt. eigenvalues --    0.27975   0.28882   0.29374   0.32273   0.32327
 Alpha virt. eigenvalues --    0.32605   0.34629   0.34636   0.35696   0.36886
 Alpha virt. eigenvalues --    0.38760   0.39110   0.40097   0.40256   0.41007
 Alpha virt. eigenvalues --    0.41570   0.42130   0.42575   0.43642   0.45234
 Alpha virt. eigenvalues --    0.46078   0.47685   0.48324   0.50483   0.52143
 Alpha virt. eigenvalues --    0.55010   0.56465   0.57138   0.59992   0.60083
 Alpha virt. eigenvalues --    0.61197   0.62445   0.64298   0.64527   0.65295
 Alpha virt. eigenvalues --    0.65753   0.68707   0.69497   0.70529   0.70564
 Alpha virt. eigenvalues --    0.71497   0.73043   0.73827   0.74347   0.77591
 Alpha virt. eigenvalues --    0.77671   0.79882   0.80009   0.80434   0.81398
 Alpha virt. eigenvalues --    0.82392   0.82602   0.83269   0.83340   0.85172
 Alpha virt. eigenvalues --    0.86232   0.86598   0.86878   0.87227   0.88329
 Alpha virt. eigenvalues --    0.91371   0.91411   0.92130   0.93141   0.95097
 Alpha virt. eigenvalues --    0.98102   0.98199   0.99294   0.99526   0.99546
 Alpha virt. eigenvalues --    1.00838   1.01463   1.02356   1.02357   1.03918
 Alpha virt. eigenvalues --    1.04152   1.04584   1.04931   1.06342   1.06543
 Alpha virt. eigenvalues --    1.07037   1.07121   1.08861   1.10585   1.13582
 Alpha virt. eigenvalues --    1.13679   1.15468   1.16013   1.18033   1.19363
 Alpha virt. eigenvalues --    1.21375   1.24716   1.26232   1.26393   1.27904
 Alpha virt. eigenvalues --    1.31219   1.33321   1.35227   1.38123   1.39868
 Alpha virt. eigenvalues --    1.46984   1.47313   1.49660   1.52486   1.54433
 Alpha virt. eigenvalues --    1.54838   1.56829   1.58242   1.61094   1.62935
 Alpha virt. eigenvalues --    1.65709   1.67724   1.68216   1.70873   1.70983
 Alpha virt. eigenvalues --    1.74292   1.75152   1.75852   1.77163   1.78478
 Alpha virt. eigenvalues --    1.79194   1.81022   1.81630   1.83384   1.84803
 Alpha virt. eigenvalues --    1.85612   1.86155   1.88226   1.88610   1.89757
 Alpha virt. eigenvalues --    1.92073   1.92160   1.93032   1.94719   1.95653
 Alpha virt. eigenvalues --    1.96094   1.96483   2.00374   2.00436   2.01202
 Alpha virt. eigenvalues --    2.01981   2.02093   2.03047   2.04675   2.05512
 Alpha virt. eigenvalues --    2.06338   2.06367   2.07897   2.08908   2.09972
 Alpha virt. eigenvalues --    2.11079   2.11628   2.13145   2.13928   2.13979
 Alpha virt. eigenvalues --    2.15009   2.16050   2.16929   2.17030   2.19237
 Alpha virt. eigenvalues --    2.20595   2.20754   2.22405   2.23952   2.24793
 Alpha virt. eigenvalues --    2.24882   2.25797   2.26019   2.27379   2.29434
 Alpha virt. eigenvalues --    2.30537   2.30753   2.32531   2.33018   2.33708
 Alpha virt. eigenvalues --    2.35776   2.36237   2.38421   2.40219   2.40247
 Alpha virt. eigenvalues --    2.42091   2.42134   2.42991   2.45477   2.47576
 Alpha virt. eigenvalues --    2.48161   2.48555   2.51686   2.52718   2.54011
 Alpha virt. eigenvalues --    2.55269   2.55406   2.56422   2.57991   2.59137
 Alpha virt. eigenvalues --    2.59318   2.59590   2.60709   2.60946   2.61730
 Alpha virt. eigenvalues --    2.61995   2.64174   2.65154   2.65904   2.66330
 Alpha virt. eigenvalues --    2.69071   2.69448   2.71688   2.73537   2.74600
 Alpha virt. eigenvalues --    2.76162   2.76472   2.77490   2.80253   2.82627
 Alpha virt. eigenvalues --    2.83600   2.84538   2.86352   2.88313   2.89651
 Alpha virt. eigenvalues --    2.89826   2.93134   2.93580   2.94876   2.96689
 Alpha virt. eigenvalues --    2.96713   2.97208   3.00497   3.00730   3.02817
 Alpha virt. eigenvalues --    3.04251   3.07648   3.08106   3.10123   3.11552
 Alpha virt. eigenvalues --    3.12400   3.13409   3.14824   3.14981   3.16274
 Alpha virt. eigenvalues --    3.16527   3.17950   3.18227   3.20351   3.20590
 Alpha virt. eigenvalues --    3.21311   3.22946   3.25814   3.26681   3.29180
 Alpha virt. eigenvalues --    3.29422   3.32559   3.35406   3.38968   3.39584
 Alpha virt. eigenvalues --    3.43043   3.45934   3.46487   3.48376   3.49146
 Alpha virt. eigenvalues --    3.50067   3.50754   3.51981   3.53237   3.56022
 Alpha virt. eigenvalues --    3.56858   3.56948   3.59850   3.60713   3.62993
 Alpha virt. eigenvalues --    3.64754   3.65960   3.68577   3.73337   3.76592
 Alpha virt. eigenvalues --    3.80143   3.80553   3.82057   3.83815   3.85553
 Alpha virt. eigenvalues --    3.87150   3.87450   3.92199   3.92492   3.92568
 Alpha virt. eigenvalues --    3.96298   3.96421   3.97688   4.06151   4.07686
 Alpha virt. eigenvalues --    4.08358   4.14282   4.14929   4.85463   4.87866
 Alpha virt. eigenvalues --    5.04628   5.05020   5.09853   5.15920   5.19202
 Alpha virt. eigenvalues --    5.22085   5.23295   5.28614   5.30081   5.30685
 Alpha virt. eigenvalues --    5.34435   5.34735   5.37072   5.37936   5.41928
 Alpha virt. eigenvalues --    5.42410   5.44484   5.47020   5.50347   5.50731
 Alpha virt. eigenvalues --    5.52782   5.55621   5.55829   5.56051   5.58749
 Alpha virt. eigenvalues --    5.60349   5.61260   5.61685   5.61974   5.63173
 Alpha virt. eigenvalues --    5.67743   5.67832   5.68882   5.70241   5.70740
 Alpha virt. eigenvalues --    5.72680   5.73603   5.75871   5.76549   5.77483
 Alpha virt. eigenvalues --    5.77803   5.80101   5.80165   5.81885   5.82484
 Alpha virt. eigenvalues --    5.83032   5.83600   5.87084   5.88178   5.89974
 Alpha virt. eigenvalues --    5.93174   5.93653   5.94924   5.95208   5.95914
 Alpha virt. eigenvalues --    5.96852   5.98192   5.98409   5.99252   5.99905
 Alpha virt. eigenvalues --    6.02693   6.03107   6.03345   6.04438   6.05420
 Alpha virt. eigenvalues --    6.05818   6.07498   6.07595   6.10391   6.10556
 Alpha virt. eigenvalues --    6.13177   6.13711   6.15559   6.17491   6.17745
 Alpha virt. eigenvalues --    6.18030   6.20361   6.20721   6.21400   6.21806
 Alpha virt. eigenvalues --    6.24336   6.25216   6.28540   6.28565   6.29378
 Alpha virt. eigenvalues --    6.31597   6.33019   6.33763   6.35773   6.37147
 Alpha virt. eigenvalues --    6.37840   6.40137   6.42106   6.42873   6.46019
 Alpha virt. eigenvalues --    6.47803   6.47991   6.49241   6.50802   6.51996
 Alpha virt. eigenvalues --    6.53667   6.59035   6.59925   6.60884   6.62204
 Alpha virt. eigenvalues --    6.65210   6.68163   6.70468   6.74998   6.76005
 Alpha virt. eigenvalues --    6.76560   6.78763   6.80855   6.83942   6.86307
 Alpha virt. eigenvalues --    6.90083   6.90469   6.93511   6.93722   6.98076
 Alpha virt. eigenvalues --    6.98910   7.01847   7.01932   7.04564   7.07683
 Alpha virt. eigenvalues --    7.12321   7.15744   7.16817   7.17309   7.18725
 Alpha virt. eigenvalues --    7.21365   7.23675   7.27472   7.30560   7.30755
 Alpha virt. eigenvalues --    7.32356   7.33462   7.33808   7.35409   7.37648
 Alpha virt. eigenvalues --    7.38401   7.39473   7.42881   7.43607   7.45789
 Alpha virt. eigenvalues --    7.46851   7.47319   7.48220   7.48837   7.51009
 Alpha virt. eigenvalues --    7.51241   7.51950   7.53797   7.55180   7.55817
 Alpha virt. eigenvalues --    7.56475   7.58398   7.58716   7.59473   7.61371
 Alpha virt. eigenvalues --    7.63211   7.63521   7.64781   7.65458   7.67799
 Alpha virt. eigenvalues --    7.69470   7.70400   7.71417   7.71965   7.72174
 Alpha virt. eigenvalues --    7.72905   7.73281   7.74837   7.76968   7.77478
 Alpha virt. eigenvalues --    7.78825   7.79809   7.80237   7.82594   7.84312
 Alpha virt. eigenvalues --    7.86807   7.88599   7.89631   7.90831   7.91612
 Alpha virt. eigenvalues --    7.93553   7.95674   7.96082   7.97596   8.02889
 Alpha virt. eigenvalues --    8.03372   8.04489   8.08274   8.10330   8.15933
 Alpha virt. eigenvalues --    8.18835   8.20112   8.21047   8.22846   8.22942
 Alpha virt. eigenvalues --    8.24603   8.25823   8.26478   8.27532   8.28962
 Alpha virt. eigenvalues --    8.34202   8.35544   8.35699   8.36316   8.38394
 Alpha virt. eigenvalues --    8.39304   8.40162   8.40533   8.40537   8.44218
 Alpha virt. eigenvalues --    8.44952   8.47956   8.48138   8.50251   8.52851
 Alpha virt. eigenvalues --    8.55194   8.57558   8.58038   8.61652   8.61895
 Alpha virt. eigenvalues --    8.62839   8.66796   8.67294   8.69837   8.71312
 Alpha virt. eigenvalues --    8.73893   8.75088   8.75250   8.75326   8.78266
 Alpha virt. eigenvalues --    8.79948   8.82314   8.82796   8.85491   8.87789
 Alpha virt. eigenvalues --    8.90493   8.90530   8.91312   8.93566   8.95155
 Alpha virt. eigenvalues --    8.96778   9.00715   9.01738   9.05570   9.07078
 Alpha virt. eigenvalues --    9.08647   9.09285   9.11590   9.52167   9.53486
 Alpha virt. eigenvalues --    9.57797   9.59411   9.60156   9.65524   9.72312
 Alpha virt. eigenvalues --    9.76366   9.79311   9.84674   9.89900   9.92745
 Alpha virt. eigenvalues --    9.93280   9.93723   9.94774  10.01808  10.05880
 Alpha virt. eigenvalues --   10.06610  10.09425  10.10702  10.14684  10.18596
 Alpha virt. eigenvalues --   10.19296  10.21833  10.22354  10.30108  10.38379
 Alpha virt. eigenvalues --   10.64166  11.12161  11.29062  11.50518  11.75741
 Alpha virt. eigenvalues --   12.07733  12.17315  12.22220  12.25490  12.33176
 Alpha virt. eigenvalues --   25.16855  25.47473  25.70119  26.15652
          Condensed to atoms (all electrons):
               1          2          3          4          5          6
     1  C    5.368138   0.302196   0.376276   0.380128   0.380128  -0.078222
     2  C    0.302196   5.328403  -0.040775  -0.044387  -0.044388   0.310587
     3  H    0.376276  -0.040775   0.509010  -0.026944  -0.026944   0.007810
     4  H    0.380128  -0.044387  -0.026944   0.506542  -0.030855  -0.000677
     5  H    0.380128  -0.044388  -0.026944  -0.030855   0.506545  -0.000679
     6  C   -0.078222   0.310587   0.007810  -0.000677  -0.000679   5.407606
     7  H   -0.045278   0.381854  -0.002488  -0.002550   0.006475  -0.046049
     8  H   -0.045279   0.381855  -0.002488   0.006476  -0.002550  -0.046050
     9  C    0.008532  -0.073691  -0.000381  -0.000748  -0.000748   0.271741
    10  H    0.000646  -0.049546  -0.000338   0.000109   0.004688   0.377101
    11  H    0.000647  -0.049544  -0.000338   0.004686   0.000109   0.377099
    12  H   -0.000118  -0.003948  -0.000037   0.000079   0.000012  -0.042496
    13  H   -0.000118  -0.003949  -0.000037   0.000012   0.000079  -0.042496
    14  Ge  -0.001350   0.011427   0.000092  -0.000008  -0.000008  -0.033087
    15  H    0.000029  -0.000164  -0.000000  -0.000006   0.000001   0.001151
    16  H    0.000007  -0.000148  -0.000000   0.000000   0.000000   0.001341
    17  H    0.000029  -0.000164  -0.000000   0.000001  -0.000006   0.001151
               7          8          9         10         11         12
     1  C   -0.045278  -0.045279   0.008532   0.000646   0.000647  -0.000118
     2  C    0.381854   0.381855  -0.073691  -0.049546  -0.049544  -0.003948
     3  H   -0.002488  -0.002488  -0.000381  -0.000338  -0.000338  -0.000037
     4  H   -0.002550   0.006476  -0.000748   0.000109   0.004686   0.000079
     5  H    0.006475  -0.002550  -0.000748   0.004688   0.000109   0.000012
     6  C   -0.046049  -0.046050   0.271741   0.377101   0.377099  -0.042496
     7  H    0.514953  -0.028166  -0.001312   0.006065  -0.000368   0.004567
     8  H   -0.028166   0.514958  -0.001313  -0.000367   0.006065   0.000981
     9  C   -0.001312  -0.001313   5.232469  -0.044843  -0.044841   0.379812
    10  H    0.006065  -0.000367  -0.044843   0.491410  -0.022538   0.005666
    11  H   -0.000368   0.006065  -0.044841  -0.022538   0.491405   0.002851
    12  H    0.004567   0.000981   0.379812   0.005666   0.002851   0.499546
    13  H    0.000981   0.004568   0.379812   0.002852   0.005666  -0.017539
    14  Ge  -0.000818  -0.000818   0.403795  -0.009971  -0.009971  -0.042013
    15  H    0.000033   0.000003  -0.019322   0.000514   0.001068   0.000272
    16  H    0.000006   0.000006  -0.017212   0.000133   0.000133   0.000628
    17  H    0.000003   0.000033  -0.019322   0.001068   0.000514   0.001986
              13         14         15         16         17
     1  C   -0.000118  -0.001350   0.000029   0.000007   0.000029
     2  C   -0.003949   0.011427  -0.000164  -0.000148  -0.000164
     3  H   -0.000037   0.000092  -0.000000  -0.000000  -0.000000
     4  H    0.000012  -0.000008  -0.000006   0.000000   0.000001
     5  H    0.000079  -0.000008   0.000001   0.000000  -0.000006
     6  C   -0.042496  -0.033087   0.001151   0.001341   0.001151
     7  H    0.000981  -0.000818   0.000033   0.000006   0.000003
     8  H    0.004568  -0.000818   0.000003   0.000006   0.000033
     9  C    0.379812   0.403795  -0.019322  -0.017212  -0.019322
    10  H    0.002852  -0.009971   0.000514   0.000133   0.001068
    11  H    0.005666  -0.009971   0.001068   0.000133   0.000514
    12  H   -0.017539  -0.042013   0.000272   0.000628   0.001986
    13  H    0.499549  -0.042013   0.001986   0.000628   0.000272
    14  Ge  -0.042013  30.333603   0.426898   0.432411   0.426898
    15  H    0.001986   0.426898   0.628621  -0.008638  -0.007271
    16  H    0.000628   0.432411  -0.008638   0.625915  -0.008638
    17  H    0.000272   0.426898  -0.007271  -0.008638   0.628621
 Mulliken charges:
               1
     1  C   -0.646391
     2  C   -0.405619
     3  H    0.207584
     4  H    0.208144
     5  H    0.208142
     6  C   -0.465833
     7  H    0.212092
     8  H    0.212087
     9  C   -0.452429
    10  H    0.237352
    11  H    0.237356
    12  H    0.209751
    13  H    0.209749
    14  Ge   0.104934
    15  H   -0.025173
    16  H   -0.026573
    17  H   -0.025173
 Sum of Mulliken charges =  -0.00000
 Mulliken charges with hydrogens summed into heavy atoms:
               1
     1  C   -0.022522
     2  C    0.018560
     6  C    0.008875
     9  C   -0.032929
    14  Ge   0.028016
 Electronic spatial extent (au):  <R**2>=           1308.2434
 Charge=             -0.0000 electrons
 Dipole moment (field-independent basis, Debye):
    X=              0.7385    Y=              0.3738    Z=             -0.0000  Tot=              0.8277
 Quadrupole moment (field-independent basis, Debye-Ang):
   XX=            -49.5645   YY=            -48.2536   ZZ=            -47.3966
   XY=             -0.0167   XZ=              0.0000   YZ=              0.0000
 Traceless Quadrupole moment (field-independent basis, Debye-Ang):
   XX=             -1.1596   YY=              0.1513   ZZ=              1.0083
   XY=             -0.0167   XZ=              0.0000   YZ=              0.0000
 Octapole moment (field-independent basis, Debye-Ang**2):
  XXX=            -45.7447  YYY=             -2.0510  ZZZ=             -0.0002  XYY=            -15.7600
  XXY=             -0.1964  XXZ=              0.0002  XZZ=            -14.2199  YZZ=              0.9440
  YYZ=              0.0001  XYZ=             -0.0001
 Hexadecapole moment (field-independent basis, Debye-Ang**3):
 XXXX=          -1453.0151 YYYY=           -168.5181 ZZZZ=           -106.1382 XXXY=             23.7550
 XXXZ=              0.0008 YYYX=              5.0832 YYYZ=              0.0003 ZZZX=              0.0006
 ZZZY=             -0.0001 XXYY=           -272.5244 XXZZ=           -259.3776 YYZZ=            -42.3663
 XXYZ=             -0.0002 YYXZ=             -0.0000 ZZXY=             -1.8324
 N-N= 3.389141409053D+02 E-N=-6.015445773565D+03  KE= 2.232970696325D+03
 PrsmSu:  requested number of processors reduced to:  11 ShMem   1 Linda.
 No NMR shielding tensors so no spin-rotation constants.
 Leave Link  601 at Fri Apr 16 22:59:16 2021, MaxMem=   104857600 cpu:             346.5 elap:               7.7
 (Enter /s/ls4/users/knvvv/bin/g16sse/l801.exe)
 DoSCS=F DFT=T ScalE2(SS,OS)=  1.000000  1.000000
 Range of M.O.s used for correlation:     1   648
 NBasis=   648 NAE=    34 NBE=    34 NFC=     0 NFV=     0
 NROrb=    648 NOA=    34 NOB=    34 NVA=   614 NVB=   614

 **** Warning!!: The largest alpha MO coefficient is  0.22309697D+02

 Leave Link  801 at Fri Apr 16 22:59:16 2021, MaxMem=   104857600 cpu:               4.7 elap:               0.1
 (Enter /s/ls4/users/knvvv/bin/g16sse/l914.exe)
 RHF ground state
 Doing stability rather than CIS.
 Two-electron integrals replicated using symmetry.
 MDV=   104857600 DFT=T DoStab=T Mixed=T DoRPA=F DoScal=F NonHer=F
 Making orbital integer symmetry assigments:
 Orbital symmetries:
       Occupied  (A) (A) (A) (A) (A) (A) (A) (A) (A) (A) (A) (A)
                 (A) (A) (A) (A) (A) (A) (A) (A) (A) (A) (A) (A)
                 (A) (A) (A) (A) (A) (A) (A) (A) (A) (A)
       Virtual   (A) (A) (A) (A) (A) (A) (A) (A) (A) (A) (A) (A)
                 (A) (A) (A) (A) (A) (A) (A) (A) (A) (A) (A) (A)
                 (A) (A) (A) (A) (A) (A) (A) (A) (A) (A) (A) (A)
                 (A) (A) (A) (A) (A) (A) (A) (A) (A) (A) (A) (A)
                 (A) (A) (A) (A) (A) (A) (A) (A) (A) (A) (A) (A)
                 (A) (A) (A) (A) (A) (A) (A) (A) (A) (A) (A) (A)
                 (A) (A) (A) (A) (A) (A) (A) (A) (A) (A) (A) (A)
                 (A) (A) (A) (A) (A) (A) (A) (A) (A) (A) (A) (A)
                 (A) (A) (A) (A) (A) (A) (A) (A) (A) (A) (A) (A)
                 (A) (A) (A) (A) (A) (A) (A) (A) (A) (A) (A) (A)
                 (A) (A) (A) (A) (A) (A) (A) (A) (A) (A) (A) (A)
                 (A) (A) (A) (A) (A) (A) (A) (A) (A) (A) (A) (A)
                 (A) (A) (A) (A) (A) (A) (A) (A) (A) (A) (A) (A)
                 (A) (A) (A) (A) (A) (A) (A) (A) (A) (A) (A) (A)
                 (A) (A) (A) (A) (A) (A) (A) (A) (A) (A) (A) (A)
                 (A) (A) (A) (A) (A) (A) (A) (A) (A) (A) (A) (A)
                 (A) (A) (A) (A) (A) (A) (A) (A) (A) (A) (A) (A)
                 (A) (A) (A) (A) (A) (A) (A) (A) (A) (A) (A) (A)
                 (A) (A) (A) (A) (A) (A) (A) (A) (A) (A) (A) (A)
                 (A) (A) (A) (A) (A) (A) (A) (A) (A) (A) (A) (A)
                 (A) (A) (A) (A) (A) (A) (A) (A) (A) (A) (A) (A)
                 (A) (A) (A) (A) (A) (A) (A) (A) (A) (A) (A) (A)
                 (A) (A) (A) (A) (A) (A) (A) (A) (A) (A) (A) (A)
                 (A) (A) (A) (A) (A) (A) (A) (A) (A) (A) (A) (A)
                 (A) (A) (A) (A) (A) (A) (A) (A) (A) (A) (A) (A)
                 (A) (A) (A) (A) (A) (A) (A) (A) (A) (A) (A) (A)
                 (A) (A) (A) (A) (A) (A) (A) (A) (A) (A) (A) (A)
                 (A) (A) (A) (A) (A) (A) (A) (A) (A) (A) (A) (A)
                 (A) (A) (A) (A) (A) (A) (A) (A) (A) (A) (A) (A)
                 (A) (A) (A) (A) (A) (A) (A) (A) (A) (A) (A) (A)
                 (A) (A) (A) (A) (A) (A) (A) (A) (A) (A) (A) (A)
                 (A) (A) (A) (A) (A) (A) (A) (A) (A) (A) (A) (A)
                 (A) (A) (A) (A) (A) (A) (A) (A) (A) (A) (A) (A)
                 (A) (A) (A) (A) (A) (A) (A) (A) (A) (A) (A) (A)
                 (A) (A) (A) (A) (A) (A) (A) (A) (A) (A) (A) (A)
                 (A) (A) (A) (A) (A) (A) (A) (A) (A) (A) (A) (A)
                 (A) (A) (A) (A) (A) (A) (A) (A) (A) (A) (A) (A)
                 (A) (A) (A) (A) (A) (A) (A) (A) (A) (A) (A) (A)
                 (A) (A) (A) (A) (A) (A) (A) (A) (A) (A) (A) (A)
                 (A) (A) (A) (A) (A) (A) (A) (A) (A) (A) (A) (A)
                 (A) (A) (A) (A) (A) (A) (A) (A) (A) (A) (A) (A)
                 (A) (A) (A) (A) (A) (A) (A) (A) (A) (A) (A) (A)
                 (A) (A) (A) (A) (A) (A) (A) (A) (A) (A) (A) (A)
                 (A) (A) (A) (A) (A) (A) (A) (A) (A) (A) (A) (A)
                 (A) (A) (A) (A) (A) (A) (A) (A) (A) (A) (A) (A)
                 (A) (A) (A) (A) (A) (A) (A) (A) (A) (A) (A) (A)
                 (A) (A) (A) (A) (A) (A) (A) (A) (A) (A) (A) (A)
                 (A) (A) (A) (A) (A) (A) (A) (A) (A) (A) (A) (A)
                 (A) (A) (A) (A) (A) (A) (A) (A) (A) (A) (A) (A)
                 (A) (A) (A) (A) (A) (A) (A) (A) (A) (A) (A) (A)
                 (A) (A) (A) (A) (A) (A) (A) (A) (A) (A) (A) (A)
                 (A) (A)
    24 initial guesses have been made.
 Convergence on wavefunction:    0.001000000000000
 Davidson Disk Diagonalization:  ConvIn= 1.00D-03 SkipCon=T Conv= 1.00D-03.
 Max sub-space:  2000 roots to seek:    24 dimension of matrix:        41752
 Iteration     1 Dimension    24 NMult     0 NNew     24
 Estimated number of processors is:    8
 CISAX will form     1 AO SS matrices at one time.
 NMat=     1 NSing=     1 JSym2X= 0.
 FoFJK:  IHMeth= 1 ICntrl=       0 DoSepK=F KAlg= 0 I1Cent=           0 FoldK=F
 IRaf= 900000000 NMat=       1 IRICut=       1 DoRegI=T DoRafI=F ISym2E= 0 IDoP0=0 IntGTp=1.
 FoFCou: FMM=F IPFlag=           0 FMFlag=      100000 FMFlg1=           0
         NFxFlg=           0 DoJE=F BraDBF=F KetDBF=F FulRan=T
         wScrn=  0.000000 ICntrl=         0 IOpCl=  0 I1Cent=           0 NGrid=           0
         NMat0=    1 NMatS0=      1 NMatT0=    0 NMatD0=    1 NMtDS0=    0 NMtDT0=    0
 Symmetry not used in FoFCou.
 CoulSu:  requested number of processors reduced to:  10 ShMem   1 Linda.
 CalDSu:  requested number of processors reduced to:  39 ShMem   1 Linda.
 NMat=     1 NSing=     1 JSym2X= 0.
 CoulSu:  requested number of processors reduced to:  10 ShMem   1 Linda.
 CalDSu:  requested number of processors reduced to:  39 ShMem   1 Linda.
 NMat=     1 NSing=     1 JSym2X= 0.
 CoulSu:  requested number of processors reduced to:  10 ShMem   1 Linda.
 CalDSu:  requested number of processors reduced to:  39 ShMem   1 Linda.
 NMat=     1 NSing=     1 JSym2X= 0.
 CoulSu:  requested number of processors reduced to:  10 ShMem   1 Linda.
 CalDSu:  requested number of processors reduced to:  39 ShMem   1 Linda.
 NMat=     1 NSing=     1 JSym2X= 0.
 CoulSu:  requested number of processors reduced to:  10 ShMem   1 Linda.
 CalDSu:  requested number of processors reduced to:  39 ShMem   1 Linda.
 NMat=     1 NSing=     1 JSym2X= 0.
 CoulSu:  requested number of processors reduced to:  10 ShMem   1 Linda.
 CalDSu:  requested number of processors reduced to:  39 ShMem   1 Linda.
 NMat=     1 NSing=     1 JSym2X= 0.
 CoulSu:  requested number of processors reduced to:  10 ShMem   1 Linda.
 CalDSu:  requested number of processors reduced to:  39 ShMem   1 Linda.
 NMat=     1 NSing=     1 JSym2X= 0.
 CoulSu:  requested number of processors reduced to:  10 ShMem   1 Linda.
 CalDSu:  requested number of processors reduced to:  39 ShMem   1 Linda.
 NMat=     1 NSing=     1 JSym2X= 0.
 CoulSu:  requested number of processors reduced to:  10 ShMem   1 Linda.
 CalDSu:  requested number of processors reduced to:  39 ShMem   1 Linda.
 NMat=     1 NSing=     1 JSym2X= 0.
 CoulSu:  requested number of processors reduced to:  10 ShMem   1 Linda.
 CalDSu:  requested number of processors reduced to:  39 ShMem   1 Linda.
 NMat=     1 NSing=     1 JSym2X= 0.
 CoulSu:  requested number of processors reduced to:  10 ShMem   1 Linda.
 CalDSu:  requested number of processors reduced to:  39 ShMem   1 Linda.
 NMat=     1 NSing=     1 JSym2X= 0.
 CoulSu:  requested number of processors reduced to:  10 ShMem   1 Linda.
 CalDSu:  requested number of processors reduced to:  39 ShMem   1 Linda.
 NMat=     1 NSing=     0 JSym2X= 0.
 CoulSu:  requested number of processors reduced to:  10 ShMem   1 Linda.
 CalDSu:  requested number of processors reduced to:  39 ShMem   1 Linda.
 NMat=     1 NSing=     0 JSym2X= 0.
 CoulSu:  requested number of processors reduced to:  10 ShMem   1 Linda.
 CalDSu:  requested number of processors reduced to:  39 ShMem   1 Linda.
 NMat=     1 NSing=     0 JSym2X= 0.
 CoulSu:  requested number of processors reduced to:  10 ShMem   1 Linda.
 CalDSu:  requested number of processors reduced to:  39 ShMem   1 Linda.
 NMat=     1 NSing=     0 JSym2X= 0.
 CoulSu:  requested number of processors reduced to:  10 ShMem   1 Linda.
 CalDSu:  requested number of processors reduced to:  39 ShMem   1 Linda.
 NMat=     1 NSing=     0 JSym2X= 0.
 CoulSu:  requested number of processors reduced to:  10 ShMem   1 Linda.
 CalDSu:  requested number of processors reduced to:  39 ShMem   1 Linda.
 NMat=     1 NSing=     0 JSym2X= 0.
 CoulSu:  requested number of processors reduced to:  10 ShMem   1 Linda.
 CalDSu:  requested number of processors reduced to:  39 ShMem   1 Linda.
 NMat=     1 NSing=     0 JSym2X= 0.
 CoulSu:  requested number of processors reduced to:  10 ShMem   1 Linda.
 CalDSu:  requested number of processors reduced to:  39 ShMem   1 Linda.
 NMat=     1 NSing=     0 JSym2X= 0.
 CoulSu:  requested number of processors reduced to:  10 ShMem   1 Linda.
 CalDSu:  requested number of processors reduced to:  39 ShMem   1 Linda.
 NMat=     1 NSing=     0 JSym2X= 0.
 CoulSu:  requested number of processors reduced to:  10 ShMem   1 Linda.
 CalDSu:  requested number of processors reduced to:  39 ShMem   1 Linda.
 NMat=     1 NSing=     0 JSym2X= 0.
 CoulSu:  requested number of processors reduced to:  10 ShMem   1 Linda.
 CalDSu:  requested number of processors reduced to:  39 ShMem   1 Linda.
 NMat=     1 NSing=     0 JSym2X= 0.
 CoulSu:  requested number of processors reduced to:  10 ShMem   1 Linda.
 CalDSu:  requested number of processors reduced to:  39 ShMem   1 Linda.
 NMat=     1 NSing=     0 JSym2X= 0.
 CoulSu:  requested number of processors reduced to:  10 ShMem   1 Linda.
 CalDSu:  requested number of processors reduced to:  39 ShMem   1 Linda.
 New state      1 was old state      2
 Excitation Energies [eV] at current iteration:
 Root      1 :     7.611852758213283
 Root      2 :     8.052478380129998
 Root      3 :     8.605796104628331
 Root      4 :     8.622611624701685
 Root      5 :     8.657425606409261
 Root      6 :     8.756968914354719
 Root      7 :     8.759656193808080
 Root      8 :     8.759813479012081
 Root      9 :     8.839537038384346
 Root     10 :     8.927103009550526
 Root     11 :     9.007425852267264
 Root     12 :     9.077095336260490
 Root     13 :     9.083213961042057
 Root     14 :     9.243647867867168
 Root     15 :     9.428853086576357
 Root     16 :     9.432276676641338
 Root     17 :     9.450862400594458
 Root     18 :     9.459663963867150
 Root     19 :     9.498626385903448
 Root     20 :     9.946333038148538
 Root     21 :    10.194058307564550
 Root     22 :    10.211034952339220
 Root     23 :    10.241978594160270
 Root     24 :    10.262047487572800
 Iteration     2 Dimension    48 NMult    24 NNew     24
 Estimated number of processors is:    8
 CISAX will form     1 AO SS matrices at one time.
 NMat=     1 NSing=     1 JSym2X= 0.
 CoulSu:  requested number of processors reduced to:  10 ShMem   1 Linda.
 CalDSu:  requested number of processors reduced to:  39 ShMem   1 Linda.
 NMat=     1 NSing=     1 JSym2X= 0.
 CoulSu:  requested number of processors reduced to:  10 ShMem   1 Linda.
 CalDSu:  requested number of processors reduced to:  39 ShMem   1 Linda.
 NMat=     1 NSing=     1 JSym2X= 0.
 CoulSu:  requested number of processors reduced to:  10 ShMem   1 Linda.
 CalDSu:  requested number of processors reduced to:  39 ShMem   1 Linda.
 NMat=     1 NSing=     1 JSym2X= 0.
 CoulSu:  requested number of processors reduced to:  10 ShMem   1 Linda.
 CalDSu:  requested number of processors reduced to:  39 ShMem   1 Linda.
 NMat=     1 NSing=     1 JSym2X= 0.
 CoulSu:  requested number of processors reduced to:  10 ShMem   1 Linda.
 CalDSu:  requested number of processors reduced to:  39 ShMem   1 Linda.
 NMat=     1 NSing=     1 JSym2X= 0.
 CoulSu:  requested number of processors reduced to:  10 ShMem   1 Linda.
 CalDSu:  requested number of processors reduced to:  39 ShMem   1 Linda.
 NMat=     1 NSing=     1 JSym2X= 0.
 CoulSu:  requested number of processors reduced to:  10 ShMem   1 Linda.
 CalDSu:  requested number of processors reduced to:  39 ShMem   1 Linda.
 NMat=     1 NSing=     1 JSym2X= 0.
 CoulSu:  requested number of processors reduced to:  10 ShMem   1 Linda.
 CalDSu:  requested number of processors reduced to:  39 ShMem   1 Linda.
 NMat=     1 NSing=     1 JSym2X= 0.
 CoulSu:  requested number of processors reduced to:  10 ShMem   1 Linda.
 CalDSu:  requested number of processors reduced to:  39 ShMem   1 Linda.
 NMat=     1 NSing=     1 JSym2X= 0.
 CoulSu:  requested number of processors reduced to:  10 ShMem   1 Linda.
 CalDSu:  requested number of processors reduced to:  39 ShMem   1 Linda.
 NMat=     1 NSing=     1 JSym2X= 0.
 CoulSu:  requested number of processors reduced to:  10 ShMem   1 Linda.
 CalDSu:  requested number of processors reduced to:  39 ShMem   1 Linda.
 NMat=     1 NSing=     1 JSym2X= 0.
 CoulSu:  requested number of processors reduced to:  10 ShMem   1 Linda.
 CalDSu:  requested number of processors reduced to:  39 ShMem   1 Linda.
 NMat=     1 NSing=     0 JSym2X= 0.
 CoulSu:  requested number of processors reduced to:  10 ShMem   1 Linda.
 CalDSu:  requested number of processors reduced to:  39 ShMem   1 Linda.
 NMat=     1 NSing=     0 JSym2X= 0.
 CoulSu:  requested number of processors reduced to:  10 ShMem   1 Linda.
 CalDSu:  requested number of processors reduced to:  39 ShMem   1 Linda.
 NMat=     1 NSing=     0 JSym2X= 0.
 CoulSu:  requested number of processors reduced to:  10 ShMem   1 Linda.
 CalDSu:  requested number of processors reduced to:  39 ShMem   1 Linda.
 NMat=     1 NSing=     0 JSym2X= 0.
 CoulSu:  requested number of processors reduced to:  10 ShMem   1 Linda.
 CalDSu:  requested number of processors reduced to:  39 ShMem   1 Linda.
 NMat=     1 NSing=     0 JSym2X= 0.
 CoulSu:  requested number of processors reduced to:  10 ShMem   1 Linda.
 CalDSu:  requested number of processors reduced to:  39 ShMem   1 Linda.
 NMat=     1 NSing=     0 JSym2X= 0.
 CoulSu:  requested number of processors reduced to:  10 ShMem   1 Linda.
 CalDSu:  requested number of processors reduced to:  39 ShMem   1 Linda.
 NMat=     1 NSing=     0 JSym2X= 0.
 CoulSu:  requested number of processors reduced to:  10 ShMem   1 Linda.
 CalDSu:  requested number of processors reduced to:  39 ShMem   1 Linda.
 NMat=     1 NSing=     0 JSym2X= 0.
 CoulSu:  requested number of processors reduced to:  10 ShMem   1 Linda.
 CalDSu:  requested number of processors reduced to:  39 ShMem   1 Linda.
 NMat=     1 NSing=     0 JSym2X= 0.
 CoulSu:  requested number of processors reduced to:  10 ShMem   1 Linda.
 CalDSu:  requested number of processors reduced to:  39 ShMem   1 Linda.
 NMat=     1 NSing=     0 JSym2X= 0.
 CoulSu:  requested number of processors reduced to:  10 ShMem   1 Linda.
 CalDSu:  requested number of processors reduced to:  39 ShMem   1 Linda.
 NMat=     1 NSing=     0 JSym2X= 0.
 CoulSu:  requested number of processors reduced to:  10 ShMem   1 Linda.
 CalDSu:  requested number of processors reduced to:  39 ShMem   1 Linda.
 NMat=     1 NSing=     0 JSym2X= 0.
 CoulSu:  requested number of processors reduced to:  10 ShMem   1 Linda.
 CalDSu:  requested number of processors reduced to:  39 ShMem   1 Linda.
 Root      1 not converged, maximum delta is    0.176955341424202
 Excitation Energies [eV] at current iteration:
 Root      1 :     6.797941317971572   Change is   -0.813911440241712
 Root      2 :     7.851975483718208   Change is   -0.200502896411790
 Root      3 :     7.976557323472618   Change is   -0.783256155539462
 Root      4 :     8.037182283520171   Change is   -0.719786630834549
 Root      5 :     8.053587961461448   Change is   -0.552208143166882
 Root      6 :     8.205444901552058   Change is   -0.417166723149628
 Root      7 :     8.205679703151107   Change is   -0.633857335233240
 Root      8 :     8.436646754500945   Change is   -0.490456255049582
 Root      9 :     8.452820706324779   Change is   -0.204604900084481
 Root     10 :     8.591103178878345   Change is   -0.168553014929736
 Root     11 :     8.789830726452239   Change is   -0.217595125815025
 Root     12 :     8.830183396034753   Change is   -0.246911940225737
 Root     13 :     8.841952855929174   Change is   -0.401695011937994
 Root     14 :     8.898188691719179   Change is   -0.185025269322877
 Root     15 :     8.902951351801592   Change is   -0.556712612065559
 Root     16 :     8.921960076181676   Change is   -0.528902324412782
 Root     17 :     9.083745512926903   Change is   -0.345107573649454
 Root     18 :     9.114795591924167   Change is   -0.317481084717172
 Root     19 :     9.260258976685749   Change is   -0.238367409217699
 Root     20 :     9.358885819377994   Change is   -0.852149132961229
 Root     21 :     9.430729153191390   Change is   -0.515603884957148
 Root     22 :     9.539869439447024   Change is   -0.654188868117527
 Root     23 :     9.840753452141547   Change is   -0.401225142018718
 Root     24 :     9.974020346353424   Change is   -0.288027141219374
 Iteration     3 Dimension    54 NMult    48 NNew      6
 Estimated number of processors is:    8
 CISAX will form     1 AO SS matrices at one time.
 NMat=     1 NSing=     1 JSym2X= 0.
 CoulSu:  requested number of processors reduced to:  10 ShMem   1 Linda.
 CalDSu:  requested number of processors reduced to:  39 ShMem   1 Linda.
 NMat=     1 NSing=     1 JSym2X= 0.
 CoulSu:  requested number of processors reduced to:  10 ShMem   1 Linda.
 CalDSu:  requested number of processors reduced to:  39 ShMem   1 Linda.
 NMat=     1 NSing=     1 JSym2X= 0.
 CoulSu:  requested number of processors reduced to:  10 ShMem   1 Linda.
 CalDSu:  requested number of processors reduced to:  39 ShMem   1 Linda.
 NMat=     1 NSing=     0 JSym2X= 0.
 CoulSu:  requested number of processors reduced to:  10 ShMem   1 Linda.
 CalDSu:  requested number of processors reduced to:  39 ShMem   1 Linda.
 NMat=     1 NSing=     0 JSym2X= 0.
 CoulSu:  requested number of processors reduced to:  10 ShMem   1 Linda.
 CalDSu:  requested number of processors reduced to:  39 ShMem   1 Linda.
 NMat=     1 NSing=     0 JSym2X= 0.
 CoulSu:  requested number of processors reduced to:  10 ShMem   1 Linda.
 CalDSu:  requested number of processors reduced to:  39 ShMem   1 Linda.
 Root      1 not converged, maximum delta is    0.039945561276055
 Excitation Energies [eV] at current iteration:
 Root      1 :     6.624371692087732   Change is   -0.173569625883839
 Root      2 :     7.784973246191069   Change is   -0.191584077281549
 Root      3 :     7.818723321314065   Change is   -0.033252162404143
 Root      4 :     7.865022227926457   Change is   -0.172160055593712
 Root      5 :     8.429653482868202   Change is   -0.023167223456576
 Root      6 :     8.505548405294455   Change is   -0.085554773583890
 Iteration     4 Dimension    60 NMult    54 NNew      6
 Estimated number of processors is:    8
 CISAX will form     1 AO SS matrices at one time.
 NMat=     1 NSing=     1 JSym2X= 0.
 CoulSu:  requested number of processors reduced to:  10 ShMem   1 Linda.
 CalDSu:  requested number of processors reduced to:  39 ShMem   1 Linda.
 NMat=     1 NSing=     1 JSym2X= 0.
 CoulSu:  requested number of processors reduced to:  10 ShMem   1 Linda.
 CalDSu:  requested number of processors reduced to:  39 ShMem   1 Linda.
 NMat=     1 NSing=     1 JSym2X= 0.
 CoulSu:  requested number of processors reduced to:  10 ShMem   1 Linda.
 CalDSu:  requested number of processors reduced to:  39 ShMem   1 Linda.
 NMat=     1 NSing=     0 JSym2X= 0.
 CoulSu:  requested number of processors reduced to:  10 ShMem   1 Linda.
 CalDSu:  requested number of processors reduced to:  39 ShMem   1 Linda.
 NMat=     1 NSing=     0 JSym2X= 0.
 CoulSu:  requested number of processors reduced to:  10 ShMem   1 Linda.
 CalDSu:  requested number of processors reduced to:  39 ShMem   1 Linda.
 NMat=     1 NSing=     0 JSym2X= 0.
 CoulSu:  requested number of processors reduced to:  10 ShMem   1 Linda.
 CalDSu:  requested number of processors reduced to:  39 ShMem   1 Linda.
 Root      1 not converged, maximum delta is    0.051007878470029
 Excitation Energies [eV] at current iteration:
 Root      1 :     6.558413821465435   Change is   -0.065957870622297
 Root      2 :     7.367869507309240   Change is   -0.417103738881830
 Root      3 :     7.601208359402638   Change is   -0.263813868523819
 Root      4 :     7.812138102813989   Change is   -0.006585218500075
 Root      5 :     8.424314335898591   Change is   -0.005339146969611
 Root      6 :     8.476978006498754   Change is   -0.028570398795701
 Iteration     5 Dimension    66 NMult    60 NNew      6
 Estimated number of processors is:    8
 CISAX will form     1 AO SS matrices at one time.
 NMat=     1 NSing=     1 JSym2X= 0.
 CoulSu:  requested number of processors reduced to:  10 ShMem   1 Linda.
 CalDSu:  requested number of processors reduced to:  39 ShMem   1 Linda.
 NMat=     1 NSing=     1 JSym2X= 0.
 CoulSu:  requested number of processors reduced to:  10 ShMem   1 Linda.
 CalDSu:  requested number of processors reduced to:  39 ShMem   1 Linda.
 NMat=     1 NSing=     1 JSym2X= 0.
 CoulSu:  requested number of processors reduced to:  10 ShMem   1 Linda.
 CalDSu:  requested number of processors reduced to:  39 ShMem   1 Linda.
 NMat=     1 NSing=     0 JSym2X= 0.
 CoulSu:  requested number of processors reduced to:  10 ShMem   1 Linda.
 CalDSu:  requested number of processors reduced to:  39 ShMem   1 Linda.
 NMat=     1 NSing=     0 JSym2X= 0.
 CoulSu:  requested number of processors reduced to:  10 ShMem   1 Linda.
 CalDSu:  requested number of processors reduced to:  39 ShMem   1 Linda.
 NMat=     1 NSing=     0 JSym2X= 0.
 CoulSu:  requested number of processors reduced to:  10 ShMem   1 Linda.
 CalDSu:  requested number of processors reduced to:  39 ShMem   1 Linda.
 Root      1 not converged, maximum delta is    0.020343493509803
 Excitation Energies [eV] at current iteration:
 Root      1 :     6.538432424643164   Change is   -0.019981396822272
 Root      2 :     7.228094929452222   Change is   -0.139774577857017
 Root      3 :     7.476796909144236   Change is   -0.124411450258402
 Root      4 :     7.810764695227588   Change is   -0.001373407586401
 Root      5 :     8.423626424334547   Change is   -0.000687911564045
 Root      6 :     8.467296752212160   Change is   -0.009681254286594
 Iteration     6 Dimension    72 NMult    66 NNew      6
 Estimated number of processors is:    8
 CISAX will form     1 AO SS matrices at one time.
 NMat=     1 NSing=     1 JSym2X= 0.
 CoulSu:  requested number of processors reduced to:  10 ShMem   1 Linda.
 CalDSu:  requested number of processors reduced to:  39 ShMem   1 Linda.
 NMat=     1 NSing=     1 JSym2X= 0.
 CoulSu:  requested number of processors reduced to:  10 ShMem   1 Linda.
 CalDSu:  requested number of processors reduced to:  39 ShMem   1 Linda.
 NMat=     1 NSing=     1 JSym2X= 0.
 CoulSu:  requested number of processors reduced to:  10 ShMem   1 Linda.
 CalDSu:  requested number of processors reduced to:  39 ShMem   1 Linda.
 NMat=     1 NSing=     0 JSym2X= 0.
 CoulSu:  requested number of processors reduced to:  10 ShMem   1 Linda.
 CalDSu:  requested number of processors reduced to:  39 ShMem   1 Linda.
 NMat=     1 NSing=     0 JSym2X= 0.
 CoulSu:  requested number of processors reduced to:  10 ShMem   1 Linda.
 CalDSu:  requested number of processors reduced to:  39 ShMem   1 Linda.
 NMat=     1 NSing=     0 JSym2X= 0.
 CoulSu:  requested number of processors reduced to:  10 ShMem   1 Linda.
 CalDSu:  requested number of processors reduced to:  39 ShMem   1 Linda.
 Root      1 not converged, maximum delta is    0.004460831466523
 Excitation Energies [eV] at current iteration:
 Root      1 :     6.535979249011455   Change is   -0.002453175631708
 Root      2 :     7.208431868023574   Change is   -0.019663061428648
 Root      3 :     7.452427935572311   Change is   -0.024368973571924
 Root      4 :     7.810521371853985   Change is   -0.000243323373603
 Root      5 :     8.423485283028469   Change is   -0.000141141306078
 Root      6 :     8.465311912972682   Change is   -0.001984839239478
 Iteration     7 Dimension    78 NMult    72 NNew      6
 Estimated number of processors is:    8
 CISAX will form     1 AO SS matrices at one time.
 NMat=     1 NSing=     1 JSym2X= 0.
 CoulSu:  requested number of processors reduced to:  10 ShMem   1 Linda.
 CalDSu:  requested number of processors reduced to:  39 ShMem   1 Linda.
 NMat=     1 NSing=     1 JSym2X= 0.
 CoulSu:  requested number of processors reduced to:  10 ShMem   1 Linda.
 CalDSu:  requested number of processors reduced to:  39 ShMem   1 Linda.
 NMat=     1 NSing=     1 JSym2X= 0.
 CoulSu:  requested number of processors reduced to:  10 ShMem   1 Linda.
 CalDSu:  requested number of processors reduced to:  39 ShMem   1 Linda.
 NMat=     1 NSing=     0 JSym2X= 0.
 CoulSu:  requested number of processors reduced to:  10 ShMem   1 Linda.
 CalDSu:  requested number of processors reduced to:  39 ShMem   1 Linda.
 NMat=     1 NSing=     0 JSym2X= 0.
 CoulSu:  requested number of processors reduced to:  10 ShMem   1 Linda.
 CalDSu:  requested number of processors reduced to:  39 ShMem   1 Linda.
 NMat=     1 NSing=     0 JSym2X= 0.
 CoulSu:  requested number of processors reduced to:  10 ShMem   1 Linda.
 CalDSu:  requested number of processors reduced to:  39 ShMem   1 Linda.
 Root      1 not converged, maximum delta is    0.003231170237584
 Excitation Energies [eV] at current iteration:
 Root      1 :     6.535639640643793   Change is   -0.000339608367663
 Root      2 :     7.202703389031332   Change is   -0.005728478992241
 Root      3 :     7.447941403422592   Change is   -0.004486532149719
 Root      4 :     7.810478206799619   Change is   -0.000043165054366
 Root      5 :     8.423450285944512   Change is   -0.000034997083958
 Root      6 :     8.464852507427299   Change is   -0.000459405545383
 Iteration     8 Dimension    84 NMult    78 NNew      6
 Estimated number of processors is:    8
 CISAX will form     1 AO SS matrices at one time.
 NMat=     1 NSing=     1 JSym2X= 0.
 CoulSu:  requested number of processors reduced to:  10 ShMem   1 Linda.
 CalDSu:  requested number of processors reduced to:  39 ShMem   1 Linda.
 NMat=     1 NSing=     1 JSym2X= 0.
 CoulSu:  requested number of processors reduced to:  10 ShMem   1 Linda.
 CalDSu:  requested number of processors reduced to:  39 ShMem   1 Linda.
 NMat=     1 NSing=     1 JSym2X= 0.
 CoulSu:  requested number of processors reduced to:  10 ShMem   1 Linda.
 CalDSu:  requested number of processors reduced to:  39 ShMem   1 Linda.
 NMat=     1 NSing=     0 JSym2X= 0.
 CoulSu:  requested number of processors reduced to:  10 ShMem   1 Linda.
 CalDSu:  requested number of processors reduced to:  39 ShMem   1 Linda.
 NMat=     1 NSing=     0 JSym2X= 0.
 CoulSu:  requested number of processors reduced to:  10 ShMem   1 Linda.
 CalDSu:  requested number of processors reduced to:  39 ShMem   1 Linda.
 NMat=     1 NSing=     0 JSym2X= 0.
 CoulSu:  requested number of processors reduced to:  10 ShMem   1 Linda.
 CalDSu:  requested number of processors reduced to:  39 ShMem   1 Linda.
 Root      1 not converged, maximum delta is    0.001601571037764
 Excitation Energies [eV] at current iteration:
 Root      1 :     6.535552907564338   Change is   -0.000086733079454
 Root      2 :     7.197861262057867   Change is   -0.004842126973466
 Root      3 :     7.446996629086113   Change is   -0.000944774336479
 Root      4 :     7.810474335064796   Change is   -0.000003871734824
 Root      5 :     8.423440426608954   Change is   -0.000009859335557
 Root      6 :     8.464757571275930   Change is   -0.000094936151370
 Iteration     9 Dimension    90 NMult    84 NNew      6
 Estimated number of processors is:    8
 CISAX will form     1 AO SS matrices at one time.
 NMat=     1 NSing=     1 JSym2X= 0.
 CoulSu:  requested number of processors reduced to:  10 ShMem   1 Linda.
 CalDSu:  requested number of processors reduced to:  39 ShMem   1 Linda.
 NMat=     1 NSing=     1 JSym2X= 0.
 CoulSu:  requested number of processors reduced to:  10 ShMem   1 Linda.
 CalDSu:  requested number of processors reduced to:  39 ShMem   1 Linda.
 NMat=     1 NSing=     1 JSym2X= 0.
 CoulSu:  requested number of processors reduced to:  10 ShMem   1 Linda.
 CalDSu:  requested number of processors reduced to:  39 ShMem   1 Linda.
 NMat=     1 NSing=     0 JSym2X= 0.
 CoulSu:  requested number of processors reduced to:  10 ShMem   1 Linda.
 CalDSu:  requested number of processors reduced to:  39 ShMem   1 Linda.
 NMat=     1 NSing=     0 JSym2X= 0.
 CoulSu:  requested number of processors reduced to:  10 ShMem   1 Linda.
 CalDSu:  requested number of processors reduced to:  39 ShMem   1 Linda.
 NMat=     1 NSing=     0 JSym2X= 0.
 CoulSu:  requested number of processors reduced to:  10 ShMem   1 Linda.
 CalDSu:  requested number of processors reduced to:  39 ShMem   1 Linda.
 Root      1 has converged.
 Excitation Energies [eV] at current iteration:
 Root      1 :     6.535539273396483   Change is   -0.000013634167855
 Root      2 :     7.195481495794438   Change is   -0.002379766263429
 Root      3 :     7.433506913231215
 Root      4 :     7.810473910655033   Change is   -0.000000424409762
 Root      5 :     8.423436436578420   Change is   -0.000003990030534
 Root      6 :     8.464741534185208   Change is   -0.000016037090721
 Convergence achieved on expansion vectors.
 ***********************************************************************
 Stability analysis using <AA,BB:AA,BB> singles matrix:
 ***********************************************************************
 1PDM for each excited state written to RWF  633
 Ground to excited state transition densities written to RWF  633

 Eigenvectors of the stability matrix:
 
 Eigenvector   1:      Triplet-A    Eigenvalue= 0.2401766  <S**2>=2.000
      32 -> 44        -0.10478
      34 -> 35         0.48317
      34 -> 36        -0.16940
      34 -> 38        -0.13679
      34 -> 49         0.12570
      34 -> 51        -0.12168
      34 -> 52        -0.16235
 The wavefunction is stable under the perturbations considered.
 Leave Link  914 at Sat Apr 17 01:01:50 2021, MaxMem=   104857600 cpu:          153324.4 elap:            7354.0
 (Enter /s/ls4/users/knvvv/bin/g16sse/l508.exe)
 The wavefunction is already stable.
 Leave Link  508 at Sat Apr 17 01:01:50 2021, MaxMem=   104857600 cpu:               3.2 elap:               0.1
 (Enter /s/ls4/users/knvvv/bin/g16sse/l601.exe)
 Copying SCF densities to generalized density rwf, IOpCl= 0 IROHF=0.

 **********************************************************************

            Population analysis using the SCF density.

 **********************************************************************

 Orbital symmetries:
       Occupied  (A) (A) (A) (A) (A) (A) (A) (A) (A) (A) (A) (A)
                 (A) (A) (A) (A) (A) (A) (A) (A) (A) (A) (A) (A)
                 (A) (A) (A) (A) (A) (A) (A) (A) (A) (A)
       Virtual   (A) (A) (A) (A) (A) (A) (A) (A) (A) (A) (A) (A)
                 (A) (A) (A) (A) (A) (A) (A) (A) (A) (A) (A) (A)
                 (A) (A) (A) (A) (A) (A) (A) (A) (A) (A) (A) (A)
                 (A) (A) (A) (A) (A) (A) (A) (A) (A) (A) (A) (A)
                 (A) (A) (A) (A) (A) (A) (A) (A) (A) (A) (A) (A)
                 (A) (A) (A) (A) (A) (A) (A) (A) (A) (A) (A) (A)
                 (A) (A) (A) (A) (A) (A) (A) (A) (A) (A) (A) (A)
                 (A) (A) (A) (A) (A) (A) (A) (A) (A) (A) (A) (A)
[...]
                 (A) (A) (A) (A) (A) (A) (A) (A) (A) (A) (A) (A)
                 (A) (A) (A) (A) (A) (A) (A) (A) (A) (A) (A) (A)
                 (A) (A) (A) (A) (A) (A) (A) (A) (A) (A) (A) (A)
                 (A) (A) (A) (A) (A) (A) (A) (A) (A) (A) (A) (A)
                 (A) (A) (A) (A) (A) (A) (A) (A) (A) (A) (A) (A)
                 (A) (A) (A) (A) (A) (A) (A) (A) (A) (A) (A) (A)
                 (A) (A) (A) (A) (A) (A) (A) (A) (A) (A) (A) (A)
                 (A) (A) (A) (A) (A) (A) (A) (A) (A) (A) (A) (A)
                 (A) (A) (A) (A) (A) (A) (A) (A) (A) (A) (A) (A)
                 (A) (A) (A) (A) (A) (A) (A) (A) (A) (A) (A) (A)
                 (A) (A) (A) (A) (A) (A) (A) (A) (A) (A) (A) (A)
                 (A) (A) (A) (A) (A) (A) (A) (A) (A) (A) (A) (A)
                 (A) (A) (A) (A) (A) (A) (A) (A) (A) (A) (A) (A)
                 (A) (A) (A) (A) (A) (A) (A) (A) (A) (A) (A) (A)
                 (A) (A) (A) (A) (A) (A) (A) (A) (A) (A) (A) (A)
                 (A) (A) (A) (A) (A) (A) (A) (A) (A) (A) (A) (A)
                 (A) (A) (A) (A) (A) (A) (A) (A) (A) (A) (A) (A)
                 (A) (A) (A) (A) (A) (A) (A) (A) (A) (A) (A) (A)
                 (A) (A) (A) (A) (A) (A) (A) (A) (A) (A) (A) (A)
                 (A) (A) (A) (A) (A) (A) (A) (A) (A) (A) (A) (A)
                 (A) (A) (A) (A) (A) (A) (A) (A) (A) (A) (A) (A)
                 (A) (A) (A) (A) (A) (A) (A) (A) (A) (A) (A) (A)
                 (A) (A) (A) (A) (A) (A) (A) (A) (A) (A) (A) (A)
                 (A) (A) (A) (A) (A) (A) (A) (A) (A) (A) (A) (A)
                 (A) (A) (A) (A) (A) (A) (A) (A) (A) (A) (A) (A)
                 (A) (A) (A) (A) (A) (A) (A) (A) (A) (A) (A) (A)
                 (A) (A) (A) (A) (A) (A) (A) (A) (A) (A) (A) (A)
                 (A) (A)
 The electronic state is 1-A.
 Alpha  occ. eigenvalues -- -400.99484 -50.50840 -45.03288 -45.03288 -45.03267
 Alpha  occ. eigenvalues --  -10.53580 -10.53066 -10.52871 -10.52329  -6.48294
 Alpha  occ. eigenvalues --   -4.64591  -4.64587  -4.64509  -1.38511  -1.38501
 Alpha  occ. eigenvalues --   -1.38421  -1.38208  -1.38199  -0.90071  -0.82193
 Alpha  occ. eigenvalues --   -0.72014  -0.66449  -0.59487  -0.54882  -0.49899
 Alpha  occ. eigenvalues --   -0.48766  -0.46268  -0.42422  -0.42144  -0.40010
 Alpha  occ. eigenvalues --   -0.38705  -0.38049  -0.38023  -0.34076
 Alpha virt. eigenvalues --    0.03691   0.05403   0.06077   0.06313   0.06937
 Alpha virt. eigenvalues --    0.08671   0.08738   0.10277   0.11604   0.12300
 Alpha virt. eigenvalues --    0.12895   0.13689   0.14320   0.15038   0.16072
 Alpha virt. eigenvalues --    0.16132   0.17886   0.18960   0.21463   0.22300
 Alpha virt. eigenvalues --    0.22691   0.23465   0.24366   0.26062   0.26524
 Alpha virt. eigenvalues --    0.27975   0.28882   0.29374   0.32273   0.32327
 Alpha virt. eigenvalues --    0.32605   0.34629   0.34636   0.35696   0.36886
 Alpha virt. eigenvalues --    0.38760   0.39110   0.40097   0.40256   0.41007
 Alpha virt. eigenvalues --    0.41570   0.42130   0.42575   0.43642   0.45234
 Alpha virt. eigenvalues --    0.46078   0.47685   0.48324   0.50483   0.52143
 Alpha virt. eigenvalues --    0.55010   0.56465   0.57138   0.59992   0.60083
 Alpha virt. eigenvalues --    0.61197   0.62445   0.64298   0.64527   0.65295
 Alpha virt. eigenvalues --    0.65753   0.68707   0.69497   0.70529   0.70564
 Alpha virt. eigenvalues --    0.71497   0.73043   0.73827   0.74347   0.77591
 Alpha virt. eigenvalues --    0.77671   0.79882   0.80009   0.80434   0.81398
 Alpha virt. eigenvalues --    0.82392   0.82602   0.83269   0.83340   0.85172
 Alpha virt. eigenvalues --    0.86232   0.86598   0.86878   0.87227   0.88329
 Alpha virt. eigenvalues --    0.91371   0.91411   0.92130   0.93141   0.95097
 Alpha virt. eigenvalues --    0.98102   0.98199   0.99294   0.99526   0.99546
 Alpha virt. eigenvalues --    1.00838   1.01463   1.02356   1.02357   1.03918
 Alpha virt. eigenvalues --    1.04152   1.04584   1.04931   1.06342   1.06543
 Alpha virt. eigenvalues --    1.07037   1.07121   1.08861   1.10585   1.13582
 Alpha virt. eigenvalues --    1.13679   1.15468   1.16013   1.18033   1.19363
 Alpha virt. eigenvalues --    1.21375   1.24716   1.26232   1.26393   1.27904
 Alpha virt. eigenvalues --    1.31219   1.33321   1.35227   1.38123   1.39868
 Alpha virt. eigenvalues --    1.46984   1.47313   1.49660   1.52486   1.54433
 Alpha virt. eigenvalues --    1.54838   1.56829   1.58242   1.61094   1.62935
 Alpha virt. eigenvalues --    1.65709   1.67724   1.68216   1.70873   1.70983
 Alpha virt. eigenvalues --    1.74292   1.75152   1.75852   1.77163   1.78478
 Alpha virt. eigenvalues --    1.79194   1.81022   1.81630   1.83384   1.84803
 Alpha virt. eigenvalues --    1.85612   1.86155   1.88226   1.88610   1.89757
 Alpha virt. eigenvalues --    1.92073   1.92160   1.93032   1.94719   1.95653
 Alpha virt. eigenvalues --    1.96094   1.96483   2.00374   2.00436   2.01202
 Alpha virt. eigenvalues --    2.01981   2.02093   2.03047   2.04675   2.05512
 Alpha virt. eigenvalues --    2.06338   2.06367   2.07897   2.08908   2.09972
 Alpha virt. eigenvalues --    2.11079   2.11628   2.13145   2.13928   2.13979
 Alpha virt. eigenvalues --    2.15009   2.16050   2.16929   2.17030   2.19237
 Alpha virt. eigenvalues --    2.20595   2.20754   2.22405   2.23952   2.24793
 Alpha virt. eigenvalues --    2.24882   2.25797   2.26019   2.27379   2.29434
 Alpha virt. eigenvalues --    2.30537   2.30753   2.32531   2.33018   2.33708
 Alpha virt. eigenvalues --    2.35776   2.36237   2.38421   2.40219   2.40247
 Alpha virt. eigenvalues --    2.42091   2.42134   2.42991   2.45477   2.47576
 Alpha virt. eigenvalues --    2.48161   2.48555   2.51686   2.52718   2.54011
 Alpha virt. eigenvalues --    2.55269   2.55406   2.56422   2.57991   2.59137
 Alpha virt. eigenvalues --    2.59318   2.59590   2.60709   2.60946   2.61730
 Alpha virt. eigenvalues --    2.61995   2.64174   2.65154   2.65904   2.66330
 Alpha virt. eigenvalues --    2.69071   2.69448   2.71688   2.73537   2.74600
 Alpha virt. eigenvalues --    2.76162   2.76472   2.77490   2.80253   2.82627
 Alpha virt. eigenvalues --    2.83600   2.84538   2.86352   2.88313   2.89651
 Alpha virt. eigenvalues --    2.89826   2.93134   2.93580   2.94876   2.96689
 Alpha virt. eigenvalues --    2.96713   2.97208   3.00497   3.00730   3.02817
 Alpha virt. eigenvalues --    3.04251   3.07648   3.08106   3.10123   3.11552
 Alpha virt. eigenvalues --    3.12400   3.13409   3.14824   3.14981   3.16274
 Alpha virt. eigenvalues --    3.16527   3.17950   3.18227   3.20351   3.20590
 Alpha virt. eigenvalues --    3.21311   3.22946   3.25814   3.26681   3.29180
 Alpha virt. eigenvalues --    3.29422   3.32559   3.35406   3.38968   3.39584
 Alpha virt. eigenvalues --    3.43043   3.45934   3.46487   3.48376   3.49146
 Alpha virt. eigenvalues --    3.50067   3.50754   3.51981   3.53237   3.56022
 Alpha virt. eigenvalues --    3.56858   3.56948   3.59850   3.60713   3.62993
 Alpha virt. eigenvalues --    3.64754   3.65960   3.68577   3.73337   3.76592
 Alpha virt. eigenvalues --    3.80143   3.80553   3.82057   3.83815   3.85553
 Alpha virt. eigenvalues --    3.87150   3.87450   3.92199   3.92492   3.92568
 Alpha virt. eigenvalues --    3.96298   3.96421   3.97688   4.06151   4.07686
 Alpha virt. eigenvalues --    4.08358   4.14282   4.14929   4.85463   4.87866
 Alpha virt. eigenvalues --    5.04628   5.05020   5.09853   5.15920   5.19202
 Alpha virt. eigenvalues --    5.22085   5.23295   5.28614   5.30081   5.30685
 Alpha virt. eigenvalues --    5.34435   5.34735   5.37072   5.37936   5.41928
 Alpha virt. eigenvalues --    5.42410   5.44484   5.47020   5.50347   5.50731
 Alpha virt. eigenvalues --    5.52782   5.55621   5.55829   5.56051   5.58749
 Alpha virt. eigenvalues --    5.60349   5.61260   5.61685   5.61974   5.63173
 Alpha virt. eigenvalues --    5.67743   5.67832   5.68882   5.70241   5.70740
 Alpha virt. eigenvalues --    5.72680   5.73603   5.75871   5.76549   5.77483
 Alpha virt. eigenvalues --    5.77803   5.80101   5.80165   5.81885   5.82484
 Alpha virt. eigenvalues --    5.83032   5.83600   5.87084   5.88178   5.89974
 Alpha virt. eigenvalues --    5.93174   5.93653   5.94924   5.95208   5.95914
 Alpha virt. eigenvalues --    5.96852   5.98192   5.98409   5.99252   5.99905
 Alpha virt. eigenvalues --    6.02693   6.03107   6.03345   6.04438   6.05420
 Alpha virt. eigenvalues --    6.05818   6.07498   6.07595   6.10391   6.10556
 Alpha virt. eigenvalues --    6.13177   6.13711   6.15559   6.17491   6.17745
 Alpha virt. eigenvalues --    6.18030   6.20361   6.20721   6.21400   6.21806
 Alpha virt. eigenvalues --    6.24336   6.25216   6.28540   6.28565   6.29378
 Alpha virt. eigenvalues --    6.31597   6.33019   6.33763   6.35773   6.37147
 Alpha virt. eigenvalues --    6.37840   6.40137   6.42106   6.42873   6.46019
 Alpha virt. eigenvalues --    6.47803   6.47991   6.49241   6.50802   6.51996
 Alpha virt. eigenvalues --    6.53667   6.59035   6.59925   6.60884   6.62204
 Alpha virt. eigenvalues --    6.65210   6.68163   6.70468   6.74998   6.76005
 Alpha virt. eigenvalues --    6.76560   6.78763   6.80855   6.83942   6.86307
 Alpha virt. eigenvalues --    6.90083   6.90469   6.93511   6.93722   6.98076
 Alpha virt. eigenvalues --    6.98910   7.01847   7.01932   7.04564   7.07683
 Alpha virt. eigenvalues --    7.12321   7.15744   7.16817   7.17309   7.18725
 Alpha virt. eigenvalues --    7.21365   7.23675   7.27472   7.30560   7.30755
 Alpha virt. eigenvalues --    7.32356   7.33462   7.33808   7.35409   7.37648
 Alpha virt. eigenvalues --    7.38401   7.39473   7.42881   7.43607   7.45789
 Alpha virt. eigenvalues --    7.46851   7.47319   7.48220   7.48837   7.51009
 Alpha virt. eigenvalues --    7.51241   7.51950   7.53797   7.55180   7.55817
 Alpha virt. eigenvalues --    7.56475   7.58398   7.58716   7.59473   7.61371
 Alpha virt. eigenvalues --    7.63211   7.63521   7.64781   7.65458   7.67799
 Alpha virt. eigenvalues --    7.69470   7.70400   7.71417   7.71965   7.72174
 Alpha virt. eigenvalues --    7.72905   7.73281   7.74837   7.76968   7.77478
 Alpha virt. eigenvalues --    7.78825   7.79809   7.80237   7.82594   7.84312
 Alpha virt. eigenvalues --    7.86807   7.88599   7.89631   7.90831   7.91612
 Alpha virt. eigenvalues --    7.93553   7.95674   7.96082   7.97596   8.02889
 Alpha virt. eigenvalues --    8.03372   8.04489   8.08274   8.10330   8.15933
 Alpha virt. eigenvalues --    8.18835   8.20112   8.21047   8.22846   8.22942
 Alpha virt. eigenvalues --    8.24603   8.25823   8.26478   8.27532   8.28962
 Alpha virt. eigenvalues --    8.34202   8.35544   8.35699   8.36316   8.38394
 Alpha virt. eigenvalues --    8.39304   8.40162   8.40533   8.40537   8.44218
 Alpha virt. eigenvalues --    8.44952   8.47956   8.48138   8.50251   8.52851
 Alpha virt. eigenvalues --    8.55194   8.57558   8.58038   8.61652   8.61895
 Alpha virt. eigenvalues --    8.62839   8.66796   8.67294   8.69837   8.71312
 Alpha virt. eigenvalues --    8.73893   8.75088   8.75250   8.75326   8.78266
 Alpha virt. eigenvalues --    8.79948   8.82314   8.82796   8.85491   8.87789
 Alpha virt. eigenvalues --    8.90493   8.90530   8.91312   8.93566   8.95155
 Alpha virt. eigenvalues --    8.96778   9.00715   9.01738   9.05570   9.07078
 Alpha virt. eigenvalues --    9.08647   9.09285   9.11590   9.52167   9.53486
 Alpha virt. eigenvalues --    9.57797   9.59411   9.60156   9.65524   9.72312
 Alpha virt. eigenvalues --    9.76366   9.79311   9.84674   9.89900   9.92745
 Alpha virt. eigenvalues --    9.93280   9.93723   9.94774  10.01808  10.05880
 Alpha virt. eigenvalues --   10.06610  10.09425  10.10702  10.14684  10.18596
 Alpha virt. eigenvalues --   10.19296  10.21833  10.22354  10.30108  10.38379
 Alpha virt. eigenvalues --   10.64166  11.12161  11.29062  11.50518  11.75741
 Alpha virt. eigenvalues --   12.07733  12.17315  12.22220  12.25490  12.33176
 Alpha virt. eigenvalues --   25.16855  25.47473  25.70119  26.15652
          Condensed to atoms (all electrons):
               1          2          3          4          5          6
     1  C    5.368138   0.302196   0.376276   0.380128   0.380128  -0.078222
     2  C    0.302196   5.328403  -0.040775  -0.044387  -0.044388   0.310587
     3  H    0.376276  -0.040775   0.509010  -0.026944  -0.026944   0.007810
     4  H    0.380128  -0.044387  -0.026944   0.506542  -0.030855  -0.000677
     5  H    0.380128  -0.044388  -0.026944  -0.030855   0.506545  -0.000679
     6  C   -0.078222   0.310587   0.007810  -0.000677  -0.000679   5.407606
     7  H   -0.045278   0.381854  -0.002488  -0.002550   0.006475  -0.046049
     8  H   -0.045279   0.381855  -0.002488   0.006476  -0.002550  -0.046050
     9  C    0.008532  -0.073691  -0.000381  -0.000748  -0.000748   0.271741
    10  H    0.000646  -0.049546  -0.000338   0.000109   0.004688   0.377101
    11  H    0.000647  -0.049544  -0.000338   0.004686   0.000109   0.377099
    12  H   -0.000118  -0.003948  -0.000037   0.000079   0.000012  -0.042496
    13  H   -0.000118  -0.003949  -0.000037   0.000012   0.000079  -0.042496
    14  Ge  -0.001350   0.011427   0.000092  -0.000008  -0.000008  -0.033087
    15  H    0.000029  -0.000164  -0.000000  -0.000006   0.000001   0.001151
    16  H    0.000007  -0.000148  -0.000000   0.000000   0.000000   0.001341
    17  H    0.000029  -0.000164  -0.000000   0.000001  -0.000006   0.001151
               7          8          9         10         11         12
     1  C   -0.045278  -0.045279   0.008532   0.000646   0.000647  -0.000118
     2  C    0.381854   0.381855  -0.073691  -0.049546  -0.049544  -0.003948
     3  H   -0.002488  -0.002488  -0.000381  -0.000338  -0.000338  -0.000037
     4  H   -0.002550   0.006476  -0.000748   0.000109   0.004686   0.000079
     5  H    0.006475  -0.002550  -0.000748   0.004688   0.000109   0.000012
     6  C   -0.046049  -0.046050   0.271741   0.377101   0.377099  -0.042496
     7  H    0.514953  -0.028166  -0.001312   0.006065  -0.000368   0.004567
     8  H   -0.028166   0.514958  -0.001313  -0.000367   0.006065   0.000981
     9  C   -0.001312  -0.001313   5.232469  -0.044843  -0.044841   0.379812
    10  H    0.006065  -0.000367  -0.044843   0.491410  -0.022538   0.005666
    11  H   -0.000368   0.006065  -0.044841  -0.022538   0.491405   0.002851
    12  H    0.004567   0.000981   0.379812   0.005666   0.002851   0.499546
    13  H    0.000981   0.004568   0.379812   0.002852   0.005666  -0.017539
    14  Ge  -0.000818  -0.000818   0.403795  -0.009971  -0.009971  -0.042013
    15  H    0.000033   0.000003  -0.019322   0.000514   0.001068   0.000272
    16  H    0.000006   0.000006  -0.017212   0.000133   0.000133   0.000628
    17  H    0.000003   0.000033  -0.019322   0.001068   0.000514   0.001986
              13         14         15         16         17
     1  C   -0.000118  -0.001350   0.000029   0.000007   0.000029
     2  C   -0.003949   0.011427  -0.000164  -0.000148  -0.000164
     3  H   -0.000037   0.000092  -0.000000  -0.000000  -0.000000
     4  H    0.000012  -0.000008  -0.000006   0.000000   0.000001
     5  H    0.000079  -0.000008   0.000001   0.000000  -0.000006
     6  C   -0.042496  -0.033087   0.001151   0.001341   0.001151
     7  H    0.000981  -0.000818   0.000033   0.000006   0.000003
     8  H    0.004568  -0.000818   0.000003   0.000006   0.000033
     9  C    0.379812   0.403795  -0.019322  -0.017212  -0.019322
    10  H    0.002852  -0.009971   0.000514   0.000133   0.001068
    11  H    0.005666  -0.009971   0.001068   0.000133   0.000514
    12  H   -0.017539  -0.042013   0.000272   0.000628   0.001986
    13  H    0.499549  -0.042013   0.001986   0.000628   0.000272
    14  Ge  -0.042013  30.333603   0.426898   0.432411   0.426898
    15  H    0.001986   0.426898   0.628621  -0.008638  -0.007271
    16  H    0.000628   0.432411  -0.008638   0.625915  -0.008638
    17  H    0.000272   0.426898  -0.007271  -0.008638   0.628621
 Mulliken charges:
               1
     1  C   -0.646391
     2  C   -0.405619
     3  H    0.207584
     4  H    0.208144
     5  H    0.208142
     6  C   -0.465833
     7  H    0.212092
     8  H    0.212087
     9  C   -0.452429
    10  H    0.237352
    11  H    0.237356
    12  H    0.209751
    13  H    0.209749
    14  Ge   0.104934
    15  H   -0.025173
    16  H   -0.026573
    17  H   -0.025173
 Sum of Mulliken charges =  -0.00000
 Mulliken charges with hydrogens summed into heavy atoms:
               1
     1  C   -0.022522
     2  C    0.018560
     6  C    0.008875
     9  C   -0.032929
    14  Ge   0.028016
 Electronic spatial extent (au):  <R**2>=           1308.2434
 Charge=             -0.0000 electrons
 Dipole moment (field-independent basis, Debye):
    X=              0.7385    Y=              0.3738    Z=             -0.0000  Tot=              0.8277
 Quadrupole moment (field-independent basis, Debye-Ang):
   XX=            -49.5645   YY=            -48.2536   ZZ=            -47.3966
   XY=             -0.0167   XZ=              0.0000   YZ=              0.0000
 Traceless Quadrupole moment (field-independent basis, Debye-Ang):
   XX=             -1.1596   YY=              0.1513   ZZ=              1.0083
   XY=             -0.0167   XZ=              0.0000   YZ=              0.0000
 Octapole moment (field-independent basis, Debye-Ang**2):
  XXX=            -45.7447  YYY=             -2.0510  ZZZ=             -0.0002  XYY=            -15.7600
  XXY=             -0.1964  XXZ=              0.0002  XZZ=            -14.2199  YZZ=              0.9440
  YYZ=              0.0001  XYZ=             -0.0001
 Hexadecapole moment (field-independent basis, Debye-Ang**3):
 XXXX=          -1453.0151 YYYY=           -168.5181 ZZZZ=           -106.1382 XXXY=             23.7550
 XXXZ=              0.0008 YYYX=              5.0832 YYYZ=              0.0003 ZZZX=              0.0006
 ZZZY=             -0.0001 XXYY=           -272.5244 XXZZ=           -259.3776 YYZZ=            -42.3663
 XXYZ=             -0.0002 YYXZ=             -0.0000 ZZXY=             -1.8324
 N-N= 3.389141409053D+02 E-N=-6.015445773565D+03  KE= 2.232970696325D+03
 PrsmSu:  requested number of processors reduced to:  11 ShMem   1 Linda.
 No NMR shielding tensors so no spin-rotation constants.
 Leave Link  601 at Sat Apr 17 01:01:58 2021, MaxMem=   104857600 cpu:             333.0 elap:               7.5
 (Enter /s/ls4/users/knvvv/bin/g16sse/l9999.exe)

 Test job not archived.
 1\1\GINC-N302\Stability\RM062X\CC-pVQZ\C4H12Ge1\KNVVV\17-Apr-2021\0\\#
 P M062X/cc-pVQZ Integral=UltraFineGrid SCF=NoSymm Stable=(RExt, Opt) I
 Op(1/33=1)\\Database calculations.\\0,1\C,0,-3.677143,-0.466829,0.0000
 37\C,0,-2.507571,0.502878,-0.000031\H,0,-4.634828,0.057177,0.000053\H,
 0,-3.651936,-1.113025,-0.881203\H,0,-3.651872,-1.112968,0.881317\C,0,-
 1.156355,-0.19871,-0.000053\H,0,-2.56937,1.159041,-0.875041\H,0,-2.569
 305,1.159089,0.874951\C,0,0.01974,0.768828,0.000028\H,0,-1.09753,-0.85
 7363,0.874367\H,0,-1.097489,-0.857254,-0.874553\H,0,-0.023853,1.422073
 ,-0.876472\H,0,-0.023882,1.421957,0.876614\Ge,0,1.766425,-0.119006,0.0
 00003\H,0,1.907159,-1.010198,-1.248105\H,0,2.908141,0.912938,0.000048\
 H,0,1.907141,-1.010291,1.248046\\Version=ES64L-G16RevA.03\State=1-A\HF
 =-2236.6698835\RMSD=4.203e-09\Dipole=-0.2905565,0.1470676,0.\Quadrupol
 e=-0.8621403,0.112485,0.7496552,0.0123799,0.0000312,-0.0000108\PG=C01 
 [X(C4H12Ge1)]\\@


 A MAN SHOULD NEVER BE ASHAMED TO OWN HE HAS BEEN IN THE WRONG
 WHICH IS BUT SAYING IN OTHER WORDS,
 THAT HE IS WISER TODAY THAN HE WAS YESTERDAY.

                          -- JONATHAN SWIFT
 Job cpu time:       1 days 21 hours 55 minutes 25.2 seconds.
 Elapsed time:       0 days  2 hours 12 minutes  1.8 seconds.
 File lengths (MBytes):  RWF=   1014 Int=      0 D2E=      0 Chk=     52 Scr=      1
 Normal termination of Gaussian 16 at Sat Apr 17 01:01:58 2021.
