 Entering Gaussian System, Link 0=/s/ls4/users/knvvv/bin/g16sse/g16
 Input=data/database/M062X--def2-TZVP--02_Cr2_MR-TMD-BE3.gjf
 Output=data/database/M062X--def2-TZVP--02_Cr2_MR-TMD-BE3.log
 Initial command:
 /s/ls4/users/knvvv/bin/g16sse/l1.exe "/s/ls4/users/knvvv/bin/scratch/Gau-32833.inp" -scrdir="/s/ls4/users/knvvv/bin/scratch/"
 Entering Link 1 = /s/ls4/users/knvvv/bin/g16sse/l1.exe PID=     32834.
  
 Copyright (c) 1988,1990,1992,1993,1995,1998,2003,2009,2016,
            Gaussian, Inc.  All Rights Reserved.
  
 This is part of the Gaussian(R) 16 program.  It is based on
 the Gaussian(R) 09 system (copyright 2009, Gaussian, Inc.),
 the Gaussian(R) 03 system (copyright 2003, Gaussian, Inc.),
 the Gaussian(R) 98 system (copyright 1998, Gaussian, Inc.),
 the Gaussian(R) 94 system (copyright 1995, Gaussian, Inc.),
 the Gaussian 92(TM) system (copyright 1992, Gaussian, Inc.),
 the Gaussian 90(TM) system (copyright 1990, Gaussian, Inc.),
 the Gaussian 88(TM) system (copyright 1988, Gaussian, Inc.),
 the Gaussian 86(TM) system (copyright 1986, Carnegie Mellon
 University), and the Gaussian 82(TM) system (copyright 1983,
 Carnegie Mellon University). Gaussian is a federally registered
 trademark of Gaussian, Inc.
  
 This software contains proprietary and confidential information,
 including trade secrets, belonging to Gaussian, Inc.
  
 This software is provided under written license and may be
 used, copied, transmitted, or stored only in accord with that
 written license.
  
 The following legend is applicable only to US Government
 contracts under FAR:
  
                    RESTRICTED RIGHTS LEGEND
  
 Use, reproduction and disclosure by the US Government is
 subject to restrictions as set forth in subparagraphs (a)
 and (c) of the Commercial Computer Software - Restricted
 Rights clause in FAR 52.227-19.
  
 Gaussian, Inc.
 340 Quinnipiac St., Bldg. 40, Wallingford CT 06492
  
  
 ---------------------------------------------------------------
 Warning -- This program may not be used in any manner that
 competes with the business of Gaussian, Inc. or will provide
 assistance to any competitor of Gaussian, Inc.  The licensee
 of this program is prohibited from giving any competitor of
 Gaussian, Inc. access to this program.  By using this program,
 the user acknowledges that Gaussian, Inc. is engaged in the
 business of creating and licensing software in the field of
 computational chemistry and represents and warrants to the
 licensee that it is not a competitor of Gaussian, Inc. and that
 it will not use this program in any manner prohibited above.
 ---------------------------------------------------------------
  

 Cite this work as:
 Gaussian 16, Revision A.03,
 M. J. Frisch, G. W. Trucks, H. B. Schlegel, G. E. Scuseria, 
 M. A. Robb, J. R. Cheeseman, G. Scalmani, V. Barone, 
 G. A. Petersson, H. Nakatsuji, X. Li, M. Caricato, A. V. Marenich, 
 J. Bloino, B. G. Janesko, R. Gomperts, B. Mennucci, H. P. Hratchian, 
 J. V. Ortiz, A. F. Izmaylov, J. L. Sonnenberg, D. Williams-Young, 
 F. Ding, F. Lipparini, F. Egidi, J. Goings, B. Peng, A. Petrone, 
 T. Henderson, D. Ranasinghe, V. G. Zakrzewski, J. Gao, N. Rega, 
 G. Zheng, W. Liang, M. Hada, M. Ehara, K. Toyota, R. Fukuda, 
 J. Hasegawa, M. Ishida, T. Nakajima, Y. Honda, O. Kitao, H. Nakai, 
 T. Vreven, K. Throssell, J. A. Montgomery, Jr., J. E. Peralta, 
 F. Ogliaro, M. J. Bearpark, J. J. Heyd, E. N. Brothers, K. N. Kudin, 
 V. N. Staroverov, T. A. Keith, R. Kobayashi, J. Normand, 
 K. Raghavachari, A. P. Rendell, J. C. Burant, S. S. Iyengar, 
 J. Tomasi, M. Cossi, J. M. Millam, M. Klene, C. Adamo, R. Cammi, 
 J. W. Ochterski, R. L. Martin, K. Morokuma, O. Farkas, 
 J. B. Foresman, and D. J. Fox, Gaussian, Inc., Wallingford CT, 2016.
 
 ******************************************
 Gaussian 16:  ES64L-G16RevA.03 25-Dec-2016
                18-Apr-2021 
 ******************************************
 %RWF=temp12_15609,70GB
 %nprocshared=48
 Will use up to   48 processors via shared memory.
 Default route: MaxDisk=80GB
 ----------------------------------------------------------------------
 #P M062X/Def2TZVP Integral=UltraFineGrid SCF=NoSymm Stable=(RExt, Opt)
  IOp(1/33=1)
 ----------------------------------------------------------------------
 1/33=1,38=1,172=1/1;
 2/12=2,17=6,18=5,40=1/2;
 3/5=44,7=101,11=2,25=1,30=1,74=-55,75=-5/1,2,3;
 4/9=2/1;
 5/5=2,38=5/2;
 6/7=2,8=2,9=2,10=2,28=1/1;
 8/6=1,10=90,11=11/1;
 9/8=-3,42=1,46=1/14;
 5/5=2,8=3,17=40,38=5/8(-2);
 6/7=2,8=2,9=2,10=2,28=1/1;
 99/5=1,9=1/99;
 Leave Link    1 at Sun Apr 18 07:27:14 2021, MaxMem=           0 cpu:               8.4 elap:               0.2
 (Enter /s/ls4/users/knvvv/bin/g16sse/l101.exe)
 ONIOM data not found on unit 2.
 ----------------------
 Database calculations.
 ----------------------
 TstMul:  ICh=     0
 TstMul:  Mul=     1
 TstMul:  ICh=     0
 TstMul:  Mul=     1
 Symbolic Z-matrix:
 Charge =  0 Multiplicity = 1
 Cr                    0.        0.        0. 
 Cr                    0.        0.        1.68 
 
 RdStrC is calling ZToCFu for IStruc=1 NZ=     2.
 PrtBox:  NBox=     1 Levels=  1 BoxLen=    8.00 SMaxX=        3.17
          Shift=            0.000000            0.000000            0.000000
 Box      1 Number                   0 centers from      1 to      2:
 After GenITR:
 ITRead=  0  0
 MicOpt= -1 -1
 ITRead=  0  0
 MicOpt= -1 -1
 NAtoms=      2 NQM=        2 NQMF=       0 NMMI=      0 NMMIF=      0
                NMic=       0 NMicF=      0.
                    Isotopes and Nuclear Properties:
 (Nuclear quadrupole moments (NQMom) in fm**2, nuclear magnetic moments (NMagM)
  in nuclear magnetons)

  Atom         1           2
 IAtWgt=          52          52
 AtmWgt=  51.9405097  51.9405097
 NucSpn=           0           0
 AtZEff=  -0.0000000  -0.0000000
 NQMom=    0.0000000   0.0000000
 NMagM=    0.0000000   0.0000000
 AtZNuc=  24.0000000  24.0000000
 No MM parameters found.
 Leave Link  101 at Sun Apr 18 07:27:14 2021, MaxMem=   104857600 cpu:               5.8 elap:               0.1
 (Enter /s/ls4/users/knvvv/bin/g16sse/l202.exe)
                          Input orientation:                          
 ---------------------------------------------------------------------
 Center     Atomic      Atomic             Coordinates (Angstroms)
 Number     Number       Type             X           Y           Z
 ---------------------------------------------------------------------
      1         24           0        0.000000    0.000000    0.000000
      2         24           0        0.000000    0.000000    1.680000
 ---------------------------------------------------------------------
 Stoichiometry    Cr2
 Framework group  D*H[C*(Cr.Cr)]
 Deg. of freedom     1
 Full point group                 D*H     NOp   8
 Largest Abelian subgroup         D2H     NOp   8
 Largest concise Abelian subgroup C2      NOp   2
                         Standard orientation:                         
 ---------------------------------------------------------------------
 Center     Atomic      Atomic             Coordinates (Angstroms)
 Number     Number       Type             X           Y           Z
 ---------------------------------------------------------------------
      1         24           0        0.000000    0.000000    0.840000
      2         24           0        0.000000    0.000000   -0.840000
 ---------------------------------------------------------------------
 Rotational constants (GHZ):           0.0000000           6.8948119           6.8948119
 Leave Link  202 at Sun Apr 18 07:27:14 2021, MaxMem=   104857600 cpu:               7.5 elap:               0.2
 (Enter /s/ls4/users/knvvv/bin/g16sse/l301.exe)
 Standard basis: def2TZVP (5D, 7F)
 Ernie: Thresh=  0.10000D-02 Tol=  0.10000D-05 Strict=F.
 There are    25 symmetry adapted cartesian basis functions of AG  symmetry.
 There are     5 symmetry adapted cartesian basis functions of B1G symmetry.
 There are    11 symmetry adapted cartesian basis functions of B2G symmetry.
 There are    11 symmetry adapted cartesian basis functions of B3G symmetry.
 There are     5 symmetry adapted cartesian basis functions of AU  symmetry.
 There are    25 symmetry adapted cartesian basis functions of B1U symmetry.
 There are    11 symmetry adapted cartesian basis functions of B2U symmetry.
 There are    11 symmetry adapted cartesian basis functions of B3U symmetry.
 There are    20 symmetry adapted basis functions of AG  symmetry.
 There are     5 symmetry adapted basis functions of B1G symmetry.
 There are    10 symmetry adapted basis functions of B2G symmetry.
 There are    10 symmetry adapted basis functions of B3G symmetry.
 There are     5 symmetry adapted basis functions of AU  symmetry.
 There are    20 symmetry adapted basis functions of B1U symmetry.
 There are    10 symmetry adapted basis functions of B2U symmetry.
 There are    10 symmetry adapted basis functions of B3U symmetry.
    90 basis functions,   204 primitive gaussians,   104 cartesian basis functions
    24 alpha electrons       24 beta electrons
       nuclear repulsion energy       181.4321866011 Hartrees.
 IExCor= 4336 DFT=T Ex+Corr=M062X ExCW=0 ScaHFX=  0.540000
 ScaDFX=  1.000000  1.000000  1.000000  1.000000 ScalE2=  1.000000  1.000000
 IRadAn=      5 IRanWt=     -1 IRanGd=            0 ICorTp=0 IEmpDi=  4
 NAtoms=    2 NActive=    2 NUniq=    1 SFac= 4.00D+00 NAtFMM=   60 NAOKFM=F Big=F
 Integral buffers will be    131072 words long.
 Raffenetti 2 integral format.
 Two-electron integral symmetry is turned on.
 Leave Link  301 at Sun Apr 18 07:27:14 2021, MaxMem=   104857600 cpu:               6.6 elap:               0.2
 (Enter /s/ls4/users/knvvv/bin/g16sse/l302.exe)
 NPDir=0 NMtPBC=     1 NCelOv=     1 NCel=       1 NClECP=     1 NCelD=      1
         NCelK=      1 NCelE2=     1 NClLst=     1 CellRange=     0.0.
 One-electron integrals computed using PRISM.
 One-electron integral symmetry used in STVInt
 PrsmSu:  requested number of processors reduced to:  13 ShMem   1 Linda.
   8 Symmetry operations used in ECPInt.
 ECPInt:  NShTT=     465 NPrTT=    2746 LenC2=     465 LenP2D=    2330.
 LDataN:  DoStor=T MaxTD1= 6 Len=  172
 NBasis=    90 RedAO= T EigKep=  3.25D-04  NBF=    20     5    10    10     5    20    10    10
 NBsUse=    90 1.00D-06 EigRej= -1.00D+00 NBFU=    20     5    10    10     5    20    10    10
 Precomputing XC quadrature grid using
 IXCGrd= 4 IRadAn=           5 IRanWt=          -1 IRanGd=           0 AccXCQ= 0.00D+00.
 Generated NRdTot=       0 NPtTot=           0 NUsed=           0 NTot=          32
 NSgBfM=   103   103   103   103   103 MxSgAt=     2 MxSgA2=     2.
 Leave Link  302 at Sun Apr 18 07:27:19 2021, MaxMem=   104857600 cpu:             236.2 elap:               5.1
 (Enter /s/ls4/users/knvvv/bin/g16sse/l303.exe)
 DipDrv:  MaxL=1.
 Leave Link  303 at Sun Apr 18 07:27:20 2021, MaxMem=   104857600 cpu:              15.0 elap:               0.3
 (Enter /s/ls4/users/knvvv/bin/g16sse/l401.exe)
 SCF N**3 symmetry information disabled.
 ExpMin= 3.41D-02 ExpMax= 2.54D+05 ExpMxC= 2.46D+03 IAcc=3 IRadAn=         5 AccDes= 0.00D+00
 Harris functional with IExCor= 1009 and IRadAn=       5 diagonalized for initial guess.
 HarFok:  IExCor= 1009 AccDes= 0.00D+00 IRadAn=         5 IDoV= 1 UseB2=F ITyADJ=14
 ICtDFT=  3500011 ScaDFX=  1.000000  1.000000  1.000000  1.000000
 FoFCou: FMM=F IPFlag=           0 FMFlag=      100000 FMFlg1=           0
         NFxFlg=           0 DoJE=T BraDBF=F KetDBF=T FulRan=T
         wScrn=  0.000000 ICntrl=       500 IOpCl=  0 I1Cent=   200000004 NGrid=           0
         NMat0=    1 NMatS0=      1 NMatT0=    0 NMatD0=    1 NMtDS0=    0 NMtDT0=    0
 Petite list used in FoFCou.
 Harris En= -2088.14613804152    
 JPrj=0 DoOrth=F DoCkMO=F.
 Initial guess orbital symmetries:
       Occupied  (SGU) (SGG) (SGU) (SGG) (SGU) (SGG) (PIG) (PIG)
                 (PIU) (PIU) (SGG) (SGU) (SGG) (PIU) (PIU) (PIG)
                 (PIG) (SGU) (PIU) (PIU) (SGG) (SGG) (DLTG) (DLTG)
       Virtual   (SGU) (DLTU) (DLTU) (PIG) (PIG) (PIU) (PIU) (SGU)
                 (SGG) (SGG) (PIG) (PIG) (DLTG) (DLTG) (SGU) (SGU)
                 (DLTU) (DLTU) (PIU) (PIU) (SGG) (PIG) (PIG) (SGU)
                 (DLTG) (DLTG) (PIU) (PIU) (SGG) (DLTU) (DLTU)
                 (SGU) (PIG) (PIG) (PIU) (PIU) (SGG) (PIG) (PIG)
                 (SGU) (PIU) (PIU) (DLTG) (DLTG) (SGG) (DLTU) (DLTU)
                 (SGG) (SGU) (PIG) (PIG) (SGU) (PIU) (PIU) (DLTG)
                 (DLTG) (PHIU) (PHIU) (PHIG) (PHIG) (SGG) (DLTU)
                 (DLTU) (PIG) (PIG) (SGU)
 The electronic state of the initial guess is 1-SGG.
 Leave Link  401 at Sun Apr 18 07:27:22 2021, MaxMem=   104857600 cpu:              90.5 elap:               2.0
 (Enter /s/ls4/users/knvvv/bin/g16sse/l502.exe)
 Keep R1 ints in memory in symmetry-blocked form, NReq=53041958.
 FoFCou: FMM=F IPFlag=           0 FMFlag=           0 FMFlg1=           0
         NFxFlg=           0 DoJE=F BraDBF=F KetDBF=F FulRan=T
         wScrn=  0.000000 ICntrl=       600 IOpCl=  0 I1Cent=           0 NGrid=           0
         NMat0=    1 NMatS0=   4095 NMatT0=    0 NMatD0=    1 NMtDS0=    0 NMtDT0=    0
 Petite list used in FoFCou.
 Closed shell SCF:
 Using DIIS extrapolation, IDIIS=  1040.
 NGot=   104857600 LenX=   103733492 LenY=   103722235
 Requested convergence on RMS density matrix=1.00D-08 within 128 cycles.
 Requested convergence on MAX density matrix=1.00D-06.
 Requested convergence on             energy=1.00D-06.
 No special actions if energy rises.

 Cycle   1  Pass 1  IDiag  1:
 E= -2088.41514120060    
 DIIS: error= 5.75D-02 at cycle   1 NSaved=   1.
 NSaved= 1 IEnMin= 1 EnMin= -2088.41514120060     IErMin= 1 ErrMin= 5.75D-02
 ErrMax= 5.75D-02  0.00D+00 EMaxC= 1.00D-01 BMatC= 2.50D-01 BMatP= 2.50D-01
 IDIUse=3 WtCom= 4.25D-01 WtEn= 5.75D-01
 Coeff-Com:  0.100D+01
 Coeff-En:   0.100D+01
 Coeff:      0.100D+01
 Gap=     0.230 Goal=   None    Shift=    0.000
 GapD=    0.230 DampG=1.000 DampE=0.250 DampFc=0.2500 IDamp=-1.
 Damping current iteration by 2.50D-01
 RMSDP=5.13D-03 MaxDP=6.99D-02              OVMax= 1.06D-01

 Cycle   2  Pass 1  IDiag  1:
 E= -2088.44250279494     Delta-E=       -0.027361594338 Rises=F Damp=T
 DIIS: error= 3.68D-02 at cycle   2 NSaved=   2.
 NSaved= 2 IEnMin= 2 EnMin= -2088.44250279494     IErMin= 2 ErrMin= 3.68D-02
 ErrMax= 3.68D-02  0.00D+00 EMaxC= 1.00D-01 BMatC= 9.04D-02 BMatP= 2.50D-01
 IDIUse=3 WtCom= 6.32D-01 WtEn= 3.68D-01
 Coeff-Com: -0.124D+01 0.224D+01
 Coeff-En:   0.000D+00 0.100D+01
 Coeff:     -0.785D+00 0.179D+01
 Gap=     0.217 Goal=   None    Shift=    0.000
 RMSDP=2.85D-03 MaxDP=4.28D-02 DE=-2.74D-02 OVMax= 6.89D-02

 Cycle   3  Pass 1  IDiag  1:
 E= -2088.49684378780     Delta-E=       -0.054340992853 Rises=F Damp=F
 DIIS: error= 5.34D-03 at cycle   3 NSaved=   3.
 NSaved= 3 IEnMin= 3 EnMin= -2088.49684378780     IErMin= 3 ErrMin= 5.34D-03
 ErrMax= 5.34D-03  0.00D+00 EMaxC= 1.00D-01 BMatC= 1.77D-03 BMatP= 9.04D-02
 IDIUse=3 WtCom= 9.47D-01 WtEn= 5.34D-02
 Coeff-Com: -0.171D+00 0.300D+00 0.872D+00
 Coeff-En:   0.000D+00 0.000D+00 0.100D+01
 Coeff:     -0.162D+00 0.284D+00 0.878D+00
 Gap=     0.160 Goal=   None    Shift=    0.000
 RMSDP=5.16D-04 MaxDP=9.44D-03 DE=-5.43D-02 OVMax= 1.62D-02

 Cycle   4  Pass 1  IDiag  1:
 E= -2088.49788858786     Delta-E=       -0.001044800066 Rises=F Damp=F
 DIIS: error= 2.83D-03 at cycle   4 NSaved=   4.
 NSaved= 4 IEnMin= 4 EnMin= -2088.49788858786     IErMin= 4 ErrMin= 2.83D-03
 ErrMax= 2.83D-03  0.00D+00 EMaxC= 1.00D-01 BMatC= 5.26D-04 BMatP= 1.77D-03
 IDIUse=3 WtCom= 9.72D-01 WtEn= 2.83D-02
 Coeff-Com:  0.299D-01-0.442D-01 0.335D+00 0.679D+00
 Coeff-En:   0.000D+00 0.000D+00 0.112D-01 0.989D+00
 Coeff:      0.290D-01-0.429D-01 0.326D+00 0.688D+00
 Gap=     0.157 Goal=   None    Shift=    0.000
 RMSDP=2.37D-04 MaxDP=5.00D-03 DE=-1.04D-03 OVMax= 1.04D-02

 Cycle   5  Pass 1  IDiag  1:
 E= -2088.49826831903     Delta-E=       -0.000379731165 Rises=F Damp=F
 DIIS: error= 4.76D-04 at cycle   5 NSaved=   5.
 NSaved= 5 IEnMin= 5 EnMin= -2088.49826831903     IErMin= 5 ErrMin= 4.76D-04
 ErrMax= 4.76D-04  0.00D+00 EMaxC= 1.00D-01 BMatC= 9.83D-06 BMatP= 5.26D-04
 IDIUse=3 WtCom= 9.95D-01 WtEn= 4.76D-03
 Coeff-Com:  0.183D-01-0.264D-01-0.946D-01-0.797D-01 0.118D+01
 Coeff-En:   0.000D+00 0.000D+00 0.000D+00 0.000D+00 0.100D+01
 Coeff:      0.183D-01-0.263D-01-0.941D-01-0.793D-01 0.118D+01
 Gap=     0.157 Goal=   None    Shift=    0.000
 RMSDP=1.12D-04 MaxDP=3.26D-03 DE=-3.80D-04 OVMax= 3.42D-03

 Cycle   6  Pass 1  IDiag  1:
 E= -2088.49829096410     Delta-E=       -0.000022645071 Rises=F Damp=F
 DIIS: error= 9.35D-05 at cycle   6 NSaved=   6.
 NSaved= 6 IEnMin= 6 EnMin= -2088.49829096410     IErMin= 6 ErrMin= 9.35D-05
 ErrMax= 9.35D-05  0.00D+00 EMaxC= 1.00D-01 BMatC= 3.59D-07 BMatP= 9.83D-06
 IDIUse=1 WtCom= 1.00D+00 WtEn= 0.00D+00
 Coeff-Com: -0.240D-02 0.382D-02-0.565D-02-0.124D-01-0.208D+00 0.122D+01
 Coeff:     -0.240D-02 0.382D-02-0.565D-02-0.124D-01-0.208D+00 0.122D+01
 Gap=     0.157 Goal=   None    Shift=    0.000
 RMSDP=2.73D-05 MaxDP=7.52D-04 DE=-2.26D-05 OVMax= 7.73D-04

 Cycle   7  Pass 1  IDiag  1:
 E= -2088.49829217017     Delta-E=       -0.000001206072 Rises=F Damp=F
 DIIS: error= 2.21D-05 at cycle   7 NSaved=   7.
 NSaved= 7 IEnMin= 7 EnMin= -2088.49829217017     IErMin= 7 ErrMin= 2.21D-05
 ErrMax= 2.21D-05  0.00D+00 EMaxC= 1.00D-01 BMatC= 3.70D-08 BMatP= 3.59D-07
 IDIUse=1 WtCom= 1.00D+00 WtEn= 0.00D+00
 Coeff-Com:  0.569D-03-0.760D-03 0.473D-02 0.114D-02-0.351D-01-0.158D-01
 Coeff-Com:  0.105D+01
 Coeff:      0.569D-03-0.760D-03 0.473D-02 0.114D-02-0.351D-01-0.158D-01
 Coeff:      0.105D+01
 Gap=     0.157 Goal=   None    Shift=    0.000
 RMSDP=2.55D-06 MaxDP=3.92D-05 DE=-1.21D-06 OVMax= 9.21D-05

 Cycle   8  Pass 1  IDiag  1:
 E= -2088.49829220757     Delta-E=       -0.000000037397 Rises=F Damp=F
 DIIS: error= 2.01D-06 at cycle   8 NSaved=   8.
 NSaved= 8 IEnMin= 8 EnMin= -2088.49829220757     IErMin= 8 ErrMin= 2.01D-06
 ErrMax= 2.01D-06  0.00D+00 EMaxC= 1.00D-01 BMatC= 2.32D-10 BMatP= 3.70D-08
 IDIUse=1 WtCom= 1.00D+00 WtEn= 0.00D+00
 Coeff-Com: -0.183D-03 0.234D-03-0.169D-02-0.488D-03 0.189D-01-0.248D-01
 Coeff-Com: -0.323D+00 0.133D+01
 Coeff:     -0.183D-03 0.234D-03-0.169D-02-0.488D-03 0.189D-01-0.248D-01
 Coeff:     -0.323D+00 0.133D+01
 Gap=     0.157 Goal=   None    Shift=    0.000
 RMSDP=5.38D-07 MaxDP=1.02D-05 DE=-3.74D-08 OVMax= 2.26D-05

 Cycle   9  Pass 1  IDiag  1:
 E= -2088.49829220847     Delta-E=       -0.000000000905 Rises=F Damp=F
 DIIS: error= 2.80D-07 at cycle   9 NSaved=   9.
 NSaved= 9 IEnMin= 9 EnMin= -2088.49829220847     IErMin= 9 ErrMin= 2.80D-07
 ErrMax= 2.80D-07  0.00D+00 EMaxC= 1.00D-01 BMatC= 4.73D-12 BMatP= 2.32D-10
 IDIUse=1 WtCom= 1.00D+00 WtEn= 0.00D+00
 Coeff-Com: -0.306D-04 0.419D-04-0.128D-03-0.702D-04 0.896D-03-0.185D-03
 Coeff-Com: -0.255D-01-0.621D-02 0.103D+01
 Coeff:     -0.306D-04 0.419D-04-0.128D-03-0.702D-04 0.896D-03-0.185D-03
 Coeff:     -0.255D-01-0.621D-02 0.103D+01
 Gap=     0.157 Goal=   None    Shift=    0.000
 RMSDP=4.57D-08 MaxDP=5.86D-07 DE=-9.05D-10 OVMax= 2.74D-06

 Cycle  10  Pass 1  IDiag  1:
 E= -2088.49829220848     Delta-E=       -0.000000000011 Rises=F Damp=F
 DIIS: error= 4.37D-08 at cycle  10 NSaved=  10.
 NSaved=10 IEnMin=10 EnMin= -2088.49829220848     IErMin=10 ErrMin= 4.37D-08
 ErrMax= 4.37D-08  0.00D+00 EMaxC= 1.00D-01 BMatC= 1.41D-13 BMatP= 4.73D-12
 IDIUse=1 WtCom= 1.00D+00 WtEn= 0.00D+00
 Coeff-Com:  0.538D-05-0.745D-05 0.886D-05 0.387D-05-0.333D-04-0.299D-03
 Coeff-Com:  0.203D-02-0.135D-02-0.952D-01 0.109D+01
 Coeff:      0.538D-05-0.745D-05 0.886D-05 0.387D-05-0.333D-04-0.299D-03
 Coeff:      0.203D-02-0.135D-02-0.952D-01 0.109D+01
 Gap=     0.157 Goal=   None    Shift=    0.000
 RMSDP=1.24D-08 MaxDP=3.20D-07 DE=-1.14D-11 OVMax= 3.42D-07

 Cycle  11  Pass 1  IDiag  1:
 E= -2088.49829220848     Delta-E=        0.000000000000 Rises=F Damp=F
 DIIS: error= 1.25D-08 at cycle  11 NSaved=  11.
 NSaved=11 IEnMin=10 EnMin= -2088.49829220848     IErMin=11 ErrMin= 1.25D-08
 ErrMax= 1.25D-08  0.00D+00 EMaxC= 1.00D-01 BMatC= 6.83D-15 BMatP= 1.41D-13
 IDIUse=1 WtCom= 1.00D+00 WtEn= 0.00D+00
 Coeff-Com:  0.103D-06-0.136D-06 0.236D-05 0.215D-05-0.854D-05-0.237D-05
 Coeff-Com:  0.775D-03-0.689D-03-0.125D-01-0.195D+00 0.121D+01
 Coeff:      0.103D-06-0.136D-06 0.236D-05 0.215D-05-0.854D-05-0.237D-05
 Coeff:      0.775D-03-0.689D-03-0.125D-01-0.195D+00 0.121D+01
 Gap=     0.157 Goal=   None    Shift=    0.000
 RMSDP=2.23D-09 MaxDP=3.66D-08 DE= 4.55D-13 OVMax= 8.49D-08

 SCF Done:  E(RM062X) =  -2088.49829221     A.U. after   11 cycles
            NFock= 11  Conv=0.22D-08     -V/T= 2.0017
 KE= 2.085038564545D+03 PE=-5.319440163355D+03 EE= 9.644711200003D+02
 Leave Link  502 at Sun Apr 18 07:27:58 2021, MaxMem=   104857600 cpu:            1701.9 elap:              36.2
 (Enter /s/ls4/users/knvvv/bin/g16sse/l601.exe)
 Copying SCF densities to generalized density rwf, IOpCl= 0 IROHF=0.

 **********************************************************************

            Population analysis using the SCF density.

 **********************************************************************

 Orbital symmetries:
       Occupied  (SGU) (SGG) (SGU) (SGG) (SGG) (SGU) (PIU) (PIU)
                 (PIG) (PIG) (SGG) (SGU) (SGG) (PIU) (PIU) (PIG)
                 (PIG) (SGU) (PIU) (PIU) (SGG) (DLTG) (DLTG) (SGG)
       Virtual   (SGU) (DLTU) (DLTU) (PIG) (PIG) (PIU) (PIU) (SGU)
                 (SGG) (SGG) (PIG) (PIG) (DLTG) (DLTG) (SGU) (SGU)
                 (DLTU) (DLTU) (PIU) (PIU) (SGG) (PIG) (PIG) (SGU)
                 (DLTG) (DLTG) (PIU) (PIU) (DLTU) (DLTU) (SGG)
                 (SGU) (PIG) (PIG) (PIU) (PIU) (SGG) (PIG) (PIG)
                 (SGU) (PIU) (PIU) (SGG) (DLTG) (DLTG) (DLTU) (DLTU)
                 (SGG) (SGU) (PIG) (PIG) (SGU) (PIU) (PIU) (DLTG)
                 (DLTG) (PHIU) (PHIU) (PHIG) (PHIG) (SGG) (DLTU)
                 (DLTU) (PIG) (PIG) (SGU)
 The electronic state is 1-SGG.
 Alpha  occ. eigenvalues -- -217.45294-217.45293 -25.25940 -25.25935 -21.54368
 Alpha  occ. eigenvalues --  -21.54342 -21.54188 -21.54188 -21.54169 -21.54169
 Alpha  occ. eigenvalues --   -3.11344  -3.04139  -2.09848  -1.99576  -1.99576
 Alpha  occ. eigenvalues --   -1.95110  -1.95110  -1.88296  -0.33380  -0.33380
 Alpha  occ. eigenvalues --   -0.31960  -0.23348  -0.23347  -0.21199
 Alpha virt. eigenvalues --   -0.05549  -0.01244  -0.01243   0.00906   0.00906
 Alpha virt. eigenvalues --    0.03504   0.03504   0.05155   0.05346   0.10186
 Alpha virt. eigenvalues --    0.11243   0.11243   0.11358   0.11359   0.12165
 Alpha virt. eigenvalues --    0.15505   0.16164   0.16164   0.16393   0.16393
 Alpha virt. eigenvalues --    0.25552   0.32736   0.32736   0.43575   0.51529
 Alpha virt. eigenvalues --    0.51529   0.55869   0.55869   0.59449   0.59450
 Alpha virt. eigenvalues --    0.60297   0.62716   0.63143   0.63143   1.32646
 Alpha virt. eigenvalues --    1.32646   1.42020   1.58021   1.58021   1.77155
 Alpha virt. eigenvalues --    1.97999   1.97999   2.07630   2.11327   2.11327
 Alpha virt. eigenvalues --    2.22892   2.22893   2.25452   2.26533   2.38371
 Alpha virt. eigenvalues --    2.38371   2.73312   2.84549   2.84549   2.89680
 Alpha virt. eigenvalues --    2.89682   3.02402   3.02402   3.06577   3.06577
 Alpha virt. eigenvalues --    3.12462   3.20974   3.20977   3.74918   3.74918
 Alpha virt. eigenvalues --    4.89818
          Condensed to atoms (all electrons):
               1          2
     1  Cr  23.103608   0.896392
     2  Cr   0.896392  23.103608
 Mulliken charges:
               1
     1  Cr  -0.000000
     2  Cr  -0.000000
 Sum of Mulliken charges =  -0.00000
 Mulliken charges with hydrogens summed into heavy atoms:
               1
     1  Cr  -0.000000
     2  Cr  -0.000000
 Electronic spatial extent (au):  <R**2>=            193.6083
 Charge=             -0.0000 electrons
 Dipole moment (field-independent basis, Debye):
    X=             -0.0000    Y=             -0.0000    Z=              0.0000  Tot=              0.0000
 Quadrupole moment (field-independent basis, Debye-Ang):
   XX=            -34.7150   YY=            -34.7150   ZZ=            -28.3009
   XY=             -0.0000   XZ=             -0.0000   YZ=              0.0000
 Traceless Quadrupole moment (field-independent basis, Debye-Ang):
   XX=             -2.1380   YY=             -2.1380   ZZ=              4.2761
   XY=             -0.0000   XZ=             -0.0000   YZ=              0.0000
 Octapole moment (field-independent basis, Debye-Ang**2):
  XXX=             -0.0000  YYY=             -0.0000  ZZZ=             -0.0000  XYY=             -0.0000
  XXY=             -0.0000  XXZ=             -0.0000  XZZ=             -0.0000  YZZ=              0.0000
  YYZ=             -0.0000  XYZ=              0.0000
 Hexadecapole moment (field-independent basis, Debye-Ang**3):
 XXXX=            -73.8688 YYYY=            -73.8688 ZZZZ=           -191.1628 XXXY=             -0.0000
 XXXZ=              0.0000 YYYX=             -0.0000 YYYZ=              0.0000 ZZZX=              0.0000
 ZZZY=             -0.0000 XXYY=            -24.6230 XXZZ=            -43.0827 YYZZ=            -43.0827
 XXYZ=              0.0000 YYXZ=              0.0000 ZZXY=              0.0000
 N-N= 1.814321866011D+02 E-N=-5.319440165518D+03  KE= 2.085038564545D+03
 No NMR shielding tensors so no spin-rotation constants.
 Leave Link  601 at Sun Apr 18 07:28:00 2021, MaxMem=   104857600 cpu:              76.9 elap:               1.7
 (Enter /s/ls4/users/knvvv/bin/g16sse/l801.exe)
 DoSCS=F DFT=T ScalE2(SS,OS)=  1.000000  1.000000
 Range of M.O.s used for correlation:     1    90
 NBasis=    90 NAE=    24 NBE=    24 NFC=     0 NFV=     0
 NROrb=     90 NOA=    24 NOB=    24 NVA=    66 NVB=    66

 **** Warning!!: The largest alpha MO coefficient is  0.24552853D+02

 Leave Link  801 at Sun Apr 18 07:28:00 2021, MaxMem=   104857600 cpu:               3.2 elap:               0.1
 (Enter /s/ls4/users/knvvv/bin/g16sse/l914.exe)
 RHF ground state
 Doing stability rather than CIS.
 Two-electron integrals replicated using symmetry.
 MDV=   104857600 DFT=T DoStab=T Mixed=T DoRPA=F DoScal=F NonHer=F
 Making orbital integer symmetry assigments:
 Orbital symmetries:
       Occupied  (SGU) (SGG) (SGU) (SGG) (SGG) (SGU) (PIU) (PIU)
                 (PIG) (PIG) (SGG) (SGU) (SGG) (PIU) (PIU) (PIG)
                 (PIG) (SGU) (PIU) (PIU) (SGG) (DLTG) (DLTG) (SGG)
       Virtual   (SGU) (DLTU) (DLTU) (PIG) (PIG) (PIU) (PIU) (SGU)
                 (SGG) (SGG) (PIG) (PIG) (DLTG) (DLTG) (SGU) (SGU)
                 (DLTU) (DLTU) (PIU) (PIU) (SGG) (PIG) (PIG) (SGU)
                 (DLTG) (DLTG) (PIU) (PIU) (DLTU) (DLTU) (SGG)
                 (SGU) (PIG) (PIG) (PIU) (PIU) (SGG) (PIG) (PIG)
                 (SGU) (PIU) (PIU) (SGG) (DLTG) (DLTG) (DLTU) (DLTU)
                 (SGG) (SGU) (PIG) (PIG) (SGU) (PIU) (PIU) (DLTG)
                 (DLTG) (PHIU) (PHIU) (PHIG) (PHIG) (SGG) (DLTU)
                 (DLTU) (PIG) (PIG) (SGU)
    48 initial guesses have been made.
 Convergence on wavefunction:    0.001000000000000
 Davidson Disk Diagonalization:  ConvIn= 1.00D-03 SkipCon=T Conv= 1.00D-03.
 Max sub-space:  2000 roots to seek:    48 dimension of matrix:         3168
 Iteration     1 Dimension    48 NMult     0 NNew     48
 Estimated number of processors is:   46
 CISAX will form     1 AO SS matrices at one time.
 NMat=     1 NSing=     1 JSym2X= 2.
 FoFJK:  IHMeth= 1 ICntrl=       0 DoSepK=F KAlg= 0 I1Cent=           0 FoldK=F
 IRaf= 990000000 NMat=       1 IRICut=       1 DoRegI=T DoRafI=F ISym2E= 2 IDoP0=0 IntGTp=1.
 FoFCou: FMM=F IPFlag=           0 FMFlag=      100000 FMFlg1=           0
         NFxFlg=           0 DoJE=F BraDBF=F KetDBF=F FulRan=T
         wScrn=  0.000000 ICntrl=         0 IOpCl=  0 I1Cent=           0 NGrid=           0
         NMat0=    1 NMatS0=      1 NMatT0=    0 NMatD0=    1 NMtDS0=    0 NMtDT0=    0
 Integrals replicated using symmetry in FoFCou.
 CoulSu:  requested number of processors reduced to:  47 ShMem   1 Linda.
 NMat=     1 NSing=     1 JSym2X= 2.
 CoulSu:  requested number of processors reduced to:  47 ShMem   1 Linda.
 NMat=     1 NSing=     1 JSym2X= 2.
 CoulSu:  requested number of processors reduced to:  47 ShMem   1 Linda.
 NMat=     1 NSing=     1 JSym2X= 2.
 CoulSu:  requested number of processors reduced to:  47 ShMem   1 Linda.
 NMat=     1 NSing=     1 JSym2X= 2.
 CoulSu:  requested number of processors reduced to:  47 ShMem   1 Linda.
 NMat=     1 NSing=     1 JSym2X= 2.
 CoulSu:  requested number of processors reduced to:  47 ShMem   1 Linda.
 NMat=     1 NSing=     1 JSym2X= 2.
 CoulSu:  requested number of processors reduced to:  47 ShMem   1 Linda.
 NMat=     1 NSing=     1 JSym2X= 2.
 CoulSu:  requested number of processors reduced to:  47 ShMem   1 Linda.
 NMat=     1 NSing=     1 JSym2X= 2.
 CoulSu:  requested number of processors reduced to:  47 ShMem   1 Linda.
 NMat=     1 NSing=     1 JSym2X= 2.
 CoulSu:  requested number of processors reduced to:  47 ShMem   1 Linda.
 NMat=     1 NSing=     1 JSym2X= 2.
 CoulSu:  requested number of processors reduced to:  47 ShMem   1 Linda.
 NMat=     1 NSing=     1 JSym2X= 2.
 CoulSu:  requested number of processors reduced to:  47 ShMem   1 Linda.
 NMat=     1 NSing=     1 JSym2X= 2.
 CoulSu:  requested number of processors reduced to:  47 ShMem   1 Linda.
 NMat=     1 NSing=     1 JSym2X= 2.
 CoulSu:  requested number of processors reduced to:  47 ShMem   1 Linda.
 NMat=     1 NSing=     1 JSym2X= 2.
 CoulSu:  requested number of processors reduced to:  47 ShMem   1 Linda.
 NMat=     1 NSing=     1 JSym2X= 2.
 CoulSu:  requested number of processors reduced to:  47 ShMem   1 Linda.
 NMat=     1 NSing=     1 JSym2X= 2.
 CoulSu:  requested number of processors reduced to:  47 ShMem   1 Linda.
 NMat=     1 NSing=     1 JSym2X= 2.
 CoulSu:  requested number of processors reduced to:  47 ShMem   1 Linda.
 NMat=     1 NSing=     1 JSym2X= 2.
 CoulSu:  requested number of processors reduced to:  47 ShMem   1 Linda.
 NMat=     1 NSing=     1 JSym2X= 2.
 CoulSu:  requested number of processors reduced to:  47 ShMem   1 Linda.
 NMat=     1 NSing=     1 JSym2X= 2.
 CoulSu:  requested number of processors reduced to:  47 ShMem   1 Linda.
 NMat=     1 NSing=     1 JSym2X= 2.
 CoulSu:  requested number of processors reduced to:  47 ShMem   1 Linda.
 NMat=     1 NSing=     1 JSym2X= 2.
 CoulSu:  requested number of processors reduced to:  47 ShMem   1 Linda.
 NMat=     1 NSing=     1 JSym2X= 2.
 CoulSu:  requested number of processors reduced to:  47 ShMem   1 Linda.
 NMat=     1 NSing=     0 JSym2X= 2.
 CoulSu:  requested number of processors reduced to:  47 ShMem   1 Linda.
 NMat=     1 NSing=     0 JSym2X= 2.
 CoulSu:  requested number of processors reduced to:  47 ShMem   1 Linda.
 NMat=     1 NSing=     0 JSym2X= 2.
 CoulSu:  requested number of processors reduced to:  47 ShMem   1 Linda.
 NMat=     1 NSing=     0 JSym2X= 2.
 CoulSu:  requested number of processors reduced to:  47 ShMem   1 Linda.
 NMat=     1 NSing=     0 JSym2X= 2.
 CoulSu:  requested number of processors reduced to:  47 ShMem   1 Linda.
 NMat=     1 NSing=     0 JSym2X= 2.
 CoulSu:  requested number of processors reduced to:  47 ShMem   1 Linda.
 NMat=     1 NSing=     0 JSym2X= 2.
 CoulSu:  requested number of processors reduced to:  47 ShMem   1 Linda.
 NMat=     1 NSing=     0 JSym2X= 2.
 CoulSu:  requested number of processors reduced to:  47 ShMem   1 Linda.
 NMat=     1 NSing=     0 JSym2X= 2.
 CoulSu:  requested number of processors reduced to:  47 ShMem   1 Linda.
 NMat=     1 NSing=     0 JSym2X= 2.
 CoulSu:  requested number of processors reduced to:  47 ShMem   1 Linda.
 NMat=     1 NSing=     0 JSym2X= 2.
 CoulSu:  requested number of processors reduced to:  47 ShMem   1 Linda.
 NMat=     1 NSing=     0 JSym2X= 2.
 CoulSu:  requested number of processors reduced to:  47 ShMem   1 Linda.
 NMat=     1 NSing=     0 JSym2X= 2.
 CoulSu:  requested number of processors reduced to:  47 ShMem   1 Linda.
 NMat=     1 NSing=     0 JSym2X= 2.
 CoulSu:  requested number of processors reduced to:  47 ShMem   1 Linda.
 NMat=     1 NSing=     0 JSym2X= 2.
 CoulSu:  requested number of processors reduced to:  47 ShMem   1 Linda.
 NMat=     1 NSing=     0 JSym2X= 2.
 CoulSu:  requested number of processors reduced to:  47 ShMem   1 Linda.
 NMat=     1 NSing=     0 JSym2X= 2.
 CoulSu:  requested number of processors reduced to:  47 ShMem   1 Linda.
 NMat=     1 NSing=     0 JSym2X= 2.
 CoulSu:  requested number of processors reduced to:  47 ShMem   1 Linda.
 NMat=     1 NSing=     0 JSym2X= 2.
 CoulSu:  requested number of processors reduced to:  47 ShMem   1 Linda.
 NMat=     1 NSing=     0 JSym2X= 2.
 CoulSu:  requested number of processors reduced to:  47 ShMem   1 Linda.
 NMat=     1 NSing=     0 JSym2X= 2.
 CoulSu:  requested number of processors reduced to:  47 ShMem   1 Linda.
 NMat=     1 NSing=     0 JSym2X= 2.
 CoulSu:  requested number of processors reduced to:  47 ShMem   1 Linda.
 NMat=     1 NSing=     0 JSym2X= 2.
 CoulSu:  requested number of processors reduced to:  47 ShMem   1 Linda.
 NMat=     1 NSing=     0 JSym2X= 2.
 CoulSu:  requested number of processors reduced to:  47 ShMem   1 Linda.
 New state      1 was old state     16
 Excitation Energies [eV] at current iteration:
 Root      1 :    -4.236714874475349
 Root      2 :    -3.353564340263940
 Root      3 :    -3.352741852438183
 Root      4 :    -2.297831159378893
 Root      5 :    -2.297017435167735
 Root      6 :     1.030394950032747
 Root      7 :     1.030458219820701
 Root      8 :     1.832150984394744
 Root      9 :     1.832150984394865
 Root     10 :     1.946020061446684
 Root     11 :     1.973870674786234
 Root     12 :     1.973870674786499
 Root     13 :     2.025598937152764
 Root     14 :     2.025598939457231
 Root     15 :     2.121686405327590
 Root     16 :     2.121898783159520
 Root     17 :     2.249458232139557
 Root     18 :     2.249545631236065
 Root     19 :     2.313755219212863
 Root     20 :     2.313960073479390
 Root     21 :     2.363615275874423
 Root     22 :     2.363615275874858
 Root     23 :     2.521047018384972
 Root     24 :     2.521047018385057
 Root     25 :     2.723532354232240
 Root     26 :     2.723532354233002
 Root     27 :     3.101008903460005
 Root     28 :     3.101008903460065
 Root     29 :     3.236883908424360
 Root     30 :     3.236883908433997
 Root     31 :     3.510726133285541
 Root     32 :     3.510726133286139
 Root     33 :     3.513759286337816
 Root     34 :     3.816366996487165
 Root     35 :     3.816366996487286
 Root     36 :     3.930035048280185
 Root     37 :     3.930035048280264
 Root     38 :     4.270823176570968
 Root     39 :     4.411856731967012
 Root     40 :     4.566977591702979
 Root     41 :     5.133132637553524
 Root     42 :     5.348014527795410
 Root     43 :     5.348014527798443
 Root     44 :     6.143608840438309
 Root     45 :     6.455692972543361
 Root     46 :    10.234551191420740
 Root     47 :    10.234551191421030
 Root     48 :    39.546728006352450
 Iteration     2 Dimension    96 NMult    48 NNew     48
 Estimated number of processors is:   46
 CISAX will form     1 AO SS matrices at one time.
 NMat=     1 NSing=     1 JSym2X= 2.
 CoulSu:  requested number of processors reduced to:  47 ShMem   1 Linda.
 NMat=     1 NSing=     1 JSym2X= 2.
 CoulSu:  requested number of processors reduced to:  47 ShMem   1 Linda.
 NMat=     1 NSing=     1 JSym2X= 2.
 CoulSu:  requested number of processors reduced to:  47 ShMem   1 Linda.
 NMat=     1 NSing=     1 JSym2X= 2.
 CoulSu:  requested number of processors reduced to:  47 ShMem   1 Linda.
 NMat=     1 NSing=     1 JSym2X= 2.
 CoulSu:  requested number of processors reduced to:  47 ShMem   1 Linda.
 NMat=     1 NSing=     1 JSym2X= 2.
 CoulSu:  requested number of processors reduced to:  47 ShMem   1 Linda.
 NMat=     1 NSing=     1 JSym2X= 2.
 CoulSu:  requested number of processors reduced to:  47 ShMem   1 Linda.
 NMat=     1 NSing=     1 JSym2X= 2.
 CoulSu:  requested number of processors reduced to:  47 ShMem   1 Linda.
 NMat=     1 NSing=     1 JSym2X= 2.
 CoulSu:  requested number of processors reduced to:  47 ShMem   1 Linda.
 NMat=     1 NSing=     1 JSym2X= 2.
 CoulSu:  requested number of processors reduced to:  47 ShMem   1 Linda.
 NMat=     1 NSing=     1 JSym2X= 2.
 CoulSu:  requested number of processors reduced to:  47 ShMem   1 Linda.
 NMat=     1 NSing=     1 JSym2X= 2.
 CoulSu:  requested number of processors reduced to:  47 ShMem   1 Linda.
 NMat=     1 NSing=     1 JSym2X= 2.
 CoulSu:  requested number of processors reduced to:  47 ShMem   1 Linda.
 NMat=     1 NSing=     1 JSym2X= 2.
 CoulSu:  requested number of processors reduced to:  47 ShMem   1 Linda.
 NMat=     1 NSing=     1 JSym2X= 2.
 CoulSu:  requested number of processors reduced to:  47 ShMem   1 Linda.
 NMat=     1 NSing=     1 JSym2X= 2.
 CoulSu:  requested number of processors reduced to:  47 ShMem   1 Linda.
 NMat=     1 NSing=     1 JSym2X= 2.
 CoulSu:  requested number of processors reduced to:  47 ShMem   1 Linda.
 NMat=     1 NSing=     1 JSym2X= 2.
 CoulSu:  requested number of processors reduced to:  47 ShMem   1 Linda.
 NMat=     1 NSing=     1 JSym2X= 2.
 CoulSu:  requested number of processors reduced to:  47 ShMem   1 Linda.
 NMat=     1 NSing=     1 JSym2X= 2.
 CoulSu:  requested number of processors reduced to:  47 ShMem   1 Linda.
 NMat=     1 NSing=     1 JSym2X= 2.
 CoulSu:  requested number of processors reduced to:  47 ShMem   1 Linda.
 NMat=     1 NSing=     1 JSym2X= 2.
 CoulSu:  requested number of processors reduced to:  47 ShMem   1 Linda.
 NMat=     1 NSing=     1 JSym2X= 2.
 CoulSu:  requested number of processors reduced to:  47 ShMem   1 Linda.
 NMat=     1 NSing=     1 JSym2X= 2.
 CoulSu:  requested number of processors reduced to:  47 ShMem   1 Linda.
 NMat=     1 NSing=     0 JSym2X= 2.
 CoulSu:  requested number of processors reduced to:  47 ShMem   1 Linda.
 NMat=     1 NSing=     0 JSym2X= 2.
 CoulSu:  requested number of processors reduced to:  47 ShMem   1 Linda.
 NMat=     1 NSing=     0 JSym2X= 2.
 CoulSu:  requested number of processors reduced to:  47 ShMem   1 Linda.
 NMat=     1 NSing=     0 JSym2X= 2.
 CoulSu:  requested number of processors reduced to:  47 ShMem   1 Linda.
 NMat=     1 NSing=     0 JSym2X= 2.
 CoulSu:  requested number of processors reduced to:  47 ShMem   1 Linda.
 NMat=     1 NSing=     0 JSym2X= 2.
 CoulSu:  requested number of processors reduced to:  47 ShMem   1 Linda.
 NMat=     1 NSing=     0 JSym2X= 2.
 CoulSu:  requested number of processors reduced to:  47 ShMem   1 Linda.
 NMat=     1 NSing=     0 JSym2X= 2.
 CoulSu:  requested number of processors reduced to:  47 ShMem   1 Linda.
 NMat=     1 NSing=     0 JSym2X= 2.
 CoulSu:  requested number of processors reduced to:  47 ShMem   1 Linda.
 NMat=     1 NSing=     0 JSym2X= 2.
 CoulSu:  requested number of processors reduced to:  47 ShMem   1 Linda.
 NMat=     1 NSing=     0 JSym2X= 2.
 CoulSu:  requested number of processors reduced to:  47 ShMem   1 Linda.
 NMat=     1 NSing=     0 JSym2X= 2.
 CoulSu:  requested number of processors reduced to:  47 ShMem   1 Linda.
 NMat=     1 NSing=     0 JSym2X= 2.
 CoulSu:  requested number of processors reduced to:  47 ShMem   1 Linda.
 NMat=     1 NSing=     0 JSym2X= 2.
 CoulSu:  requested number of processors reduced to:  47 ShMem   1 Linda.
 NMat=     1 NSing=     0 JSym2X= 2.
 CoulSu:  requested number of processors reduced to:  47 ShMem   1 Linda.
 NMat=     1 NSing=     0 JSym2X= 2.
 CoulSu:  requested number of processors reduced to:  47 ShMem   1 Linda.
 NMat=     1 NSing=     0 JSym2X= 2.
 CoulSu:  requested number of processors reduced to:  47 ShMem   1 Linda.
 NMat=     1 NSing=     0 JSym2X= 2.
 CoulSu:  requested number of processors reduced to:  47 ShMem   1 Linda.
 NMat=     1 NSing=     0 JSym2X= 2.
 CoulSu:  requested number of processors reduced to:  47 ShMem   1 Linda.
 NMat=     1 NSing=     0 JSym2X= 2.
 CoulSu:  requested number of processors reduced to:  47 ShMem   1 Linda.
 NMat=     1 NSing=     0 JSym2X= 2.
 CoulSu:  requested number of processors reduced to:  47 ShMem   1 Linda.
 NMat=     1 NSing=     0 JSym2X= 2.
 CoulSu:  requested number of processors reduced to:  47 ShMem   1 Linda.
 NMat=     1 NSing=     0 JSym2X= 2.
 CoulSu:  requested number of processors reduced to:  47 ShMem   1 Linda.
 NMat=     1 NSing=     0 JSym2X= 2.
 CoulSu:  requested number of processors reduced to:  47 ShMem   1 Linda.
 Root      1 not converged, maximum delta is    0.077317700829288
 Excitation Energies [eV] at current iteration:
 Root      1 :    -5.082012266894067   Change is   -0.845297392418718
 Root      2 :    -3.906814690908987   Change is   -0.553250350645048
 Root      3 :    -3.905758721791176   Change is   -0.553016869352993
 Root      4 :    -2.802298649435534   Change is   -0.504467490056641
 Root      5 :    -2.801293852112949   Change is   -0.504276416945214
 Root      6 :    -1.620632270001757   Change is   -3.594502944787990
 Root      7 :    -1.620632270001430   Change is   -3.594502944787930
 Root      8 :    -1.525245499209974   Change is   -3.357396483604839
 Root      9 :    -1.525245499209947   Change is   -3.357396483604691
 Root     10 :    -0.512980595374639   Change is   -3.034027613759611
 Root     11 :    -0.512980595374536   Change is   -3.034027613759593
 Root     12 :     0.689551478585289   Change is   -0.340843471447457
 Root     13 :     0.689612422692551   Change is   -0.340845797128150
 Root     14 :     1.550202595918954   Change is   -1.173329758313287
 Root     15 :     1.550202595919407   Change is   -1.173329758313595
 Root     16 :     1.697869941163680   Change is   -0.423816464163910
 Root     17 :     1.697996928203251   Change is   -0.423901854956269
 Root     18 :     1.758789886518614   Change is   -0.187230174928070
 Root     19 :     1.774719077338589   Change is   -0.588896198535835
 Root     20 :     1.774719077338945   Change is   -0.588896198535913
 Root     21 :     1.995845257733580   Change is   -0.029753679419183
 Root     22 :     1.995845259638057   Change is   -0.029753679819173
 Root     23 :     2.174308683638799   Change is   -0.075149548500758
 Root     24 :     2.174383454523698   Change is   -0.075162176712367
 Root     25 :     2.234874356602462   Change is   -0.078880862610401
 Root     26 :     2.234995186686329   Change is   -0.078964886793061
 Root     27 :     2.603758545466843   Change is   -0.633125362957517
 Root     28 :     2.603758545472003   Change is   -0.633125362961994
 Root     29 :     2.761650052188906   Change is   -1.509173124382062
 Root     30 :     2.811322024757607   Change is   -0.289686878702458
 Root     31 :     2.811322024757613   Change is   -0.289686878702392
 Root     32 :     2.938194928448983   Change is   -0.575564357888833
 Root     33 :     3.426687970056446   Change is   -0.084038163229095
 Root     34 :     3.426687970056965   Change is   -0.084038163229174
 Root     35 :     3.643767475152004   Change is   -0.286267573128259
 Root     36 :     3.643767475152047   Change is   -0.286267573128138
 Root     37 :     3.735625703347329   Change is   -0.080741293139835
 Root     38 :     3.735625703347414   Change is   -0.080741293139871
 Root     39 :     3.848230084991344   Change is   -1.499784442804066
 Root     40 :     3.848230084995888   Change is   -1.499784442802556
 Root     41 :     4.089434286131129   Change is   -1.043698351422395
 Root     42 :     4.250705175100058   Change is   -0.316272416602921
 Root     43 :     4.274936826947731   Change is   -0.136919905019280
 Root     44 :     4.696441006917341   Change is   -1.447167833520968
 Root     45 :     5.039080782387107
 Root     46 :     5.039080782387217
 Root     47 :     5.791771300526015   Change is   -0.663921672017347
 Root     48 :     5.908654226752444
 Iteration     3 Dimension   102 NMult    96 NNew      6
 Estimated number of processors is:   46
 CISAX will form     1 AO SS matrices at one time.
 NMat=     1 NSing=     1 JSym2X= 2.
 CoulSu:  requested number of processors reduced to:  47 ShMem   1 Linda.
 NMat=     1 NSing=     1 JSym2X= 2.
 CoulSu:  requested number of processors reduced to:  47 ShMem   1 Linda.
 NMat=     1 NSing=     1 JSym2X= 2.
 CoulSu:  requested number of processors reduced to:  47 ShMem   1 Linda.
 NMat=     1 NSing=     0 JSym2X= 2.
 CoulSu:  requested number of processors reduced to:  47 ShMem   1 Linda.
 NMat=     1 NSing=     0 JSym2X= 2.
 CoulSu:  requested number of processors reduced to:  47 ShMem   1 Linda.
 NMat=     1 NSing=     0 JSym2X= 2.
 CoulSu:  requested number of processors reduced to:  47 ShMem   1 Linda.
 Root      1 not converged, maximum delta is    0.077500345544711
 Excitation Energies [eV] at current iteration:
 Root      1 :    -5.289905460327374   Change is   -0.207893193433306
 Root      2 :    -3.907365212469339   Change is   -0.000550521560351
 Root      3 :    -3.906309679321814   Change is   -0.000550957530638
 Root      4 :    -2.802994931055276   Change is   -0.000696281619741
 Root      5 :    -2.801990565571899   Change is   -0.000696713458950
 Root      6 :    -0.893217869527578   Change is   -0.380237274152940
 Iteration     4 Dimension   108 NMult   102 NNew      6
 Estimated number of processors is:   46
 CISAX will form     1 AO SS matrices at one time.
 NMat=     1 NSing=     1 JSym2X= 2.
 CoulSu:  requested number of processors reduced to:  47 ShMem   1 Linda.
 NMat=     1 NSing=     1 JSym2X= 2.
 CoulSu:  requested number of processors reduced to:  47 ShMem   1 Linda.
 NMat=     1 NSing=     1 JSym2X= 2.
 CoulSu:  requested number of processors reduced to:  47 ShMem   1 Linda.
 NMat=     1 NSing=     0 JSym2X= 2.
 CoulSu:  requested number of processors reduced to:  47 ShMem   1 Linda.
 NMat=     1 NSing=     0 JSym2X= 2.
 CoulSu:  requested number of processors reduced to:  47 ShMem   1 Linda.
 NMat=     1 NSing=     0 JSym2X= 2.
 CoulSu:  requested number of processors reduced to:  47 ShMem   1 Linda.
 Root      1 not converged, maximum delta is    0.003339402211287
 Excitation Energies [eV] at current iteration:
 Root      1 :    -5.294731312267094   Change is   -0.004825851939721
 Root      2 :    -3.907365609339319   Change is   -0.000000396869981
 Root      3 :    -3.906310077163746   Change is   -0.000000397841932
 Root      4 :    -2.802995695942956   Change is   -0.000000764887680
 Root      5 :    -2.801991332106024   Change is   -0.000000766534124
 Root      6 :    -0.901942969820136   Change is   -0.008725100292558
 Cease iterating as an instability has been found.
 ***********************************************************************
 Stability analysis using <AA,BB:AA,BB> singles matrix:
 ***********************************************************************
 1PDM for each excited state written to RWF  633
 Ground to excited state transition densities written to RWF  633

 Eigenvectors of the stability matrix:
 
 Excited state symmetry could not be determined.
 Eigenvector   1:      Triplet-?Sym  Eigenvalue=-0.1945778  <S**2>=2.000
      21 -> 32         0.12573
      22 -> 26         0.46440
      23 -> 27         0.46440
 
 Excited state symmetry could not be determined.
 Eigenvector   2:      Triplet-?Sym  Eigenvalue=-0.1435930  <S**2>=2.000
      22 -> 27         0.49247
      23 -> 26         0.49251
 
 Excited state symmetry could not be determined.
 Eigenvector   3:      Triplet-?Sym  Eigenvalue=-0.1435543  <S**2>=2.000
      22 -> 26        -0.49249
      23 -> 27         0.49249
 
 Excited state symmetry could not be determined.
 Eigenvector   4:      Singlet-?Sym  Eigenvalue=-0.1030082  <S**2>=0.000
      22 -> 27         0.49268
      23 -> 26         0.49273
 
 Excited state symmetry could not be determined.
 Eigenvector   5:      Singlet-?Sym  Eigenvalue=-0.1029713  <S**2>=0.000
      22 -> 26        -0.49271
      23 -> 27         0.49271
 
 Excited state symmetry could not be determined.
 Eigenvector   6:      Singlet-?Sym  Eigenvalue=-0.0331458  <S**2>=0.000
      19 -> 26         0.33121
      20 -> 27         0.33116
      22 -> 28         0.27063
      22 -> 29        -0.12737
      22 -> 35        -0.19210
      23 -> 28         0.12736
      23 -> 29         0.27060
      23 -> 36        -0.19208
 The wavefunction has an RHF -> UHF instability.
 Leave Link  914 at Sun Apr 18 07:30:07 2021, MaxMem=   104857600 cpu:            5956.0 elap:             127.8
 (Enter /s/ls4/users/knvvv/bin/g16sse/l508.exe)
 Keep R1 and R2 ints in memory in symmetry-blocked form, NReq=53042358.
 FoFCou: FMM=F IPFlag=           0 FMFlag=           0 FMFlg1=           0
         NFxFlg=           0 DoJE=F BraDBF=F KetDBF=F FulRan=T
         wScrn=  0.000000 ICntrl=       600 IOpCl=  0 I1Cent=           0 NGrid=           0
         NMat0=    1 NMatS0=   4095 NMatT0=    0 NMatD0=    1 NMtDS0=    0 NMtDT0=    0
 Petite list used in FoFCou.
 Tight linear equation convergence will be used.
 UM062X wavefunction.
 Quadratic Convergence SCF Method.
 Line search only if initial step raises energy.
 Perform preliminary linear searches along instability eigenvector.
     ILin= 1 X=0.000D+00 Y=-2.088498292208D+03 DE= 0.00D+00
     ILin= 2 X=1.000D-01 Y=-2.088500230403D+03 DE=-1.94D-03
     ILin= 3 X=1.414D-01 Y=-2.088502153589D+03 DE=-3.86D-03
     ILin= 4 X=2.000D-01 Y=-2.088505955166D+03 DE=-7.66D-03
     ILin= 5 X=2.828D-01 Y=-2.088513380769D+03 DE=-1.51D-02
     ILin= 6 X=4.000D-01 Y=-2.088527534535D+03 DE=-2.92D-02
     ILin= 7 X=5.657D-01 Y=-2.088553151772D+03 DE=-5.49D-02
     ILin= 8 X=8.000D-01 Y=-2.088594380191D+03 DE=-9.61D-02
     ILin= 9 X=1.131D+00 Y=-2.088642294302D+03 DE=-1.44D-01
     ILin=10 X=1.600D+00 Y=-2.088636748580D+03 DE=-1.38D-01
     An  expanding polynomial of degree 10 produced  1.3505
 Iteration F X= 1.350D+00 EE=-2.088653594763005D+03
     ILin= 1 X=0.000D+00 Y=-2.088498292208D+03 DE= 0.00D+00
     ILin= 2 X=1.000D-01 Y=-2.088500230403D+03 DE=-1.94D-03
     ILin= 3 X=1.414D-01 Y=-2.088502153589D+03 DE=-3.86D-03
 The two search directions are symmetric.
 Iteration B X= 1.350D+00 EE=-2.088653594763005D+03
 Take forward step, X= 1.350D+00 Step= 1.350D+00
 Iteration   1 EE= -2088.65361623448                                    Grad=1.878D-01 Max rot=    1.8452 deg.
 Gradient too large for Newton-Raphson -- use scaled steepest descent instead.
 Alpha Gap=     0.152 HL deriv= 2.35D-02
  Beta Gap=     0.152 HL deriv= 2.35D-02
     ILin= 1 X=0.000D+00 Y=-2.088653616234D+03 DE= 0.00D+00 F= -5.16D-02
     ILin= 2 X=3.000D-01 Y=-2.088666575501D+03 DE=-1.30D-02 F= -3.48D-02
     ILin= 3 X=5.000D-01 Y=-2.088672388160D+03 DE=-1.88D-02 F= -2.33D-02
     ILin= 4 X=9.000D-01 Y=-2.088677072572D+03 DE=-2.35D-02 F=  2.01D-05
     ILin= 5 X=1.600D+00 Y=-2.088662359207D+03 DE=-8.74D-03 F=  4.23D-02
     An  expanding polynomial of degree  5 produced  0.8997
     Minimum is close to point  4 DX= -3.35D-04 DF= -3.35D-09 DXR=  3.73D-04 DFR=  1.43D-07 which will be used.
 Iteration   2 EE= -2088.67707257175     Delta-E=       -0.023456337270 Grad=1.258D-01 Max rot=    1.1346 deg.
 Gradient too large for Newton-Raphson -- use scaled steepest descent instead.
 Alpha Gap=     0.159 HL deriv= 1.69D-02
  Beta Gap=     0.159 HL deriv= 1.69D-02
     ILin= 1 X=0.000D+00 Y=-2.088677072572D+03 DE= 0.00D+00 F= -2.84D-02
     ILin= 2 X=5.000D-01 Y=-2.088686239632D+03 DE=-9.17D-03 F= -8.32D-03
     ILin= 3 X=9.000D-01 Y=-2.088686402798D+03 DE=-9.33D-03 F=  7.45D-03
     Accept linear search using points  2 and  3.
     An  expanding polynomial of degree  3 produced  0.7007
 Iteration   3 EE= -2088.68710982512     Delta-E=       -0.010037253373 Grad=8.589D-02 Max rot=    0.9468 deg.
 Gradient too large for Newton-Raphson -- use scaled steepest descent instead.
 Alpha Gap=     0.153 HL deriv= 1.35D-02
  Beta Gap=     0.153 HL deriv= 1.35D-02
     ILin= 1 X=0.000D+00 Y=-2.088687109825D+03 DE= 0.00D+00 F= -1.42D-02
     ILin= 2 X=8.000D-01 Y=-2.088693769203D+03 DE=-6.66D-03 F= -2.33D-03
     Reject lnstep minimum 1.976D+00 FVal=-2.088695870146D+03 Lims=  0.00D+00  8.00D-01
     ILin= 3 X=1.500D+00 Y=-2.088691645689D+03 DE=-4.54D-03 F=  8.46D-03
     An  expanding polynomial of degree  3 produced  0.9497
 Iteration   4 EE= -2088.69394824687     Delta-E=       -0.006838421743 Grad=8.240D-02 Max rot=    0.7403 deg.
 Gradient too large for Newton-Raphson -- use scaled steepest descent instead.
 Alpha Gap=     0.158 HL deriv= 9.88D-03
  Beta Gap=     0.158 HL deriv= 9.88D-03
     ILin= 1 X=0.000D+00 Y=-2.088693948247D+03 DE= 0.00D+00 F= -1.24D-02
     ILin= 2 X=8.000D-01 Y=-2.088698056204D+03 DE=-4.11D-03 F=  2.07D-03
     Accept linear search using points  1 and  2.
     An  expanding polynomial of degree  2 produced  0.6295
 Iteration   5 EE= -2088.69814853008     Delta-E=       -0.004200283216 Grad=4.701D-02 Max rot=    0.5887 deg.
 Gradient too large for Newton-Raphson -- use scaled steepest descent instead.
 Alpha Gap=     0.154 HL deriv= 8.04D-03
  Beta Gap=     0.154 HL deriv= 8.04D-03
     ILin= 1 X=0.000D+00 Y=-2.088698148530D+03 DE= 0.00D+00 F= -4.69D-03
     ILin= 2 X=8.000D-01 Y=-2.088700671344D+03 DE=-2.52D-03 F= -1.60D-03
     Reject lnstep minimum 1.742D+00 FVal=-2.088702152365D+03 Lims=  0.00D+00  8.00D-01
     ILin= 3 X=1.500D+00 Y=-2.088700820099D+03 DE=-2.67D-03 F=  1.18D-03
     Accept linear search using points  2 and  3.
     An  expanding polynomial of degree  3 produced  1.1803
 Iteration   6 EE= -2088.70099395588     Delta-E=       -0.002845425797 Grad=5.469D-02 Max rot=    0.5060 deg.
 Gradient too large for Newton-Raphson -- use scaled steepest descent instead.
 Alpha Gap=     0.157 HL deriv= 5.09D-03
  Beta Gap=     0.157 HL deriv= 5.09D-03
     ILin= 1 X=0.000D+00 Y=-2.088700993956D+03 DE= 0.00D+00 F= -4.83D-03
     ILin= 2 X=9.000D-01 Y=-2.088702049664D+03 DE=-1.06D-03 F=  2.46D-03
     Accept linear search using points  1 and  2.
     An  expanding polynomial of degree  2 produced  0.5743
 Iteration   7 EE= -2088.70242442962     Delta-E=       -0.001430473739 Grad=2.383D-02 Max rot=    0.2923 deg.
 Gradient too large for Newton-Raphson -- use scaled steepest descent instead.
 Alpha Gap=     0.154 HL deriv= 4.14D-03
  Beta Gap=     0.154 HL deriv= 4.14D-03
     ILin= 1 X=0.000D+00 Y=-2.088702424430D+03 DE= 0.00D+00 F= -1.20D-03
     ILin= 2 X=8.000D-01 Y=-2.088703094485D+03 DE=-6.70D-04 F= -4.70D-04
     Reject lnstep minimum 1.630D+00 FVal=-2.088703470440D+03 Lims=  0.00D+00  8.00D-01
     ILin= 3 X=1.600D+00 Y=-2.088703172638D+03 DE=-7.48D-04 F=  2.76D-04
     Accept linear search using points  2 and  3.
     An  expanding polynomial of degree  3 produced  1.2751
 Iteration   8 EE= -2088.70321289840     Delta-E=       -0.000788468784 Grad=2.829D-02 Max rot=    0.2577 deg.
 Gradient too large for Newton-Raphson -- use scaled steepest descent instead.
 Alpha Gap=     0.156 HL deriv= 2.30D-03
  Beta Gap=     0.156 HL deriv= 2.30D-03
     ILin= 1 X=0.000D+00 Y=-2.088703212898D+03 DE= 0.00D+00 F= -1.23D-03
     ILin= 2 X=9.000D-01 Y=-2.088703441912D+03 DE=-2.29D-04 F=  7.20D-04
     Accept linear search using points  1 and  2.
     An  expanding polynomial of degree  2 produced  0.5503
 Iteration   9 EE= -2088.70356154489     Delta-E=       -0.000348646494 Grad=1.072D-02 Max rot=    0.1255 deg.
 Gradient too large for Newton-Raphson -- use scaled steepest descent instead.
 Alpha Gap=     0.154 HL deriv= 1.86D-03
  Beta Gap=     0.154 HL deriv= 1.86D-03
     ILin= 1 X=0.000D+00 Y=-2.088703561545D+03 DE= 0.00D+00 F= -2.48D-04
     ILin= 2 X=8.000D-01 Y=-2.088703704065D+03 DE=-1.43D-04 F= -1.08D-04
     Reject lnstep minimum 1.512D+00 FVal=-2.088703775741D+03 Lims=  0.00D+00  8.00D-01
     ILin= 3 X=1.700D+00 Y=-2.088703729760D+03 DE=-1.68D-04 F=  5.11D-05
     Accept linear search using points  2 and  3.
     An  expanding polynomial of degree  3 produced  1.3900
 Iteration  10 EE= -2088.70373708241     Delta-E=       -0.000175537516 Grad=1.333D-02 Max rot=    0.1224 deg.
 Gradient too large for Newton-Raphson -- use scaled steepest descent instead.
 Alpha Gap=     0.155 HL deriv= 8.77D-04
  Beta Gap=     0.155 HL deriv= 8.77D-04
     ILin= 1 X=0.000D+00 Y=-2.088703737082D+03 DE= 0.00D+00 F= -2.62D-04
     ILin= 2 X=9.000D-01 Y=-2.088703777207D+03 DE=-4.01D-05 F=  1.73D-04
     Accept linear search using points  1 and  2.
     An  expanding polynomial of degree  2 produced  0.5287
 Iteration  11 EE= -2088.70380805298     Delta-E=       -0.000070970565 Grad=4.332D-03 Max rot=    0.0474 deg.
 QCNR:  CnvC1=5.63D-09 CnvC2=5.63D-08
 LinEq1:  Iter=  0 NonCon=     1 RMS=1.13D-04 Max=1.73D-03 NDo=     1
 AX will form     1 AO Fock derivatives at one time.
 LinEq1:  Iter=  1 NonCon=     1 RMS=5.87D-05 Max=6.17D-04 NDo=     1
 LinEq1:  Iter=  2 NonCon=     1 RMS=1.14D-05 Max=1.95D-04 NDo=     1
 LinEq1:  Iter=  3 NonCon=     1 RMS=2.14D-06 Max=3.82D-05 NDo=     1
 LinEq1:  Iter=  4 NonCon=     1 RMS=4.90D-07 Max=7.34D-06 NDo=     1
 LinEq1:  Iter=  5 NonCon=     1 RMS=1.78D-07 Max=1.87D-06 NDo=     1
 LinEq1:  Iter=  6 NonCon=     1 RMS=8.48D-08 Max=1.30D-06 NDo=     1
 LinEq1:  Iter=  7 NonCon=     1 RMS=1.09D-07 Max=2.27D-06 NDo=     1
 LinEq1:  Iter=  8 NonCon=     1 RMS=4.68D-08 Max=6.09D-07 NDo=     1
 LinEq1:  Iter=  9 NonCon=     1 RMS=1.12D-08 Max=2.56D-07 NDo=     1
 LinEq1:  Iter= 10 NonCon=     0 RMS=2.63D-09 Max=4.28D-08 NDo=     1
 Linear equations converged to 5.628D-09 5.628D-08 after    10 iterations.
 Angle between quadratic step and gradient=  48.08 degrees.
     ILin= 1 X=0.000D+00 Y=-2.088703808053D+03 DE= 0.00D+00 F= -1.05D-04
     ILin= 2 X=1.000D+00 Y=-2.088703859999D+03 DE=-5.19D-05 F=  1.32D-06
     Accept linear search using points  1 and  2.
     An  expanding polynomial of degree  2 produced  0.9877
     Minimum is close to point  2 DX= -1.23D-02 DF= -8.06D-09 DXR=  1.24D-02 DFR=  1.55D-04 which will be used.
 Iteration  12 EE= -2088.70385999864     Delta-E=       -0.000051945669 Grad=4.701D-05 Max rot=    0.0006 deg.
 QCNR:  CnvC1=4.70D-10 CnvC2=4.70D-09
 LinEq1:  Iter=  0 NonCon=     1 RMS=1.55D-06 Max=2.35D-05 NDo=     1
 LinEq1:  Iter=  1 NonCon=     1 RMS=3.83D-07 Max=6.98D-06 NDo=     1
 LinEq1:  Iter=  2 NonCon=     1 RMS=1.83D-07 Max=2.07D-06 NDo=     1
 LinEq1:  Iter=  3 NonCon=     1 RMS=6.76D-08 Max=9.36D-07 NDo=     1
 LinEq1:  Iter=  4 NonCon=     1 RMS=2.31D-08 Max=2.48D-07 NDo=     1
 LinEq1:  Iter=  5 NonCon=     1 RMS=7.36D-09 Max=1.17D-07 NDo=     1
 LinEq1:  Iter=  6 NonCon=     1 RMS=4.20D-09 Max=1.12D-07 NDo=     1
 LinEq1:  Iter=  7 NonCon=     1 RMS=6.68D-09 Max=1.69D-07 NDo=     1
 LinEq1:  Iter=  8 NonCon=     1 RMS=1.42D-09 Max=2.52D-08 NDo=     1
 LinEq1:  Iter=  9 NonCon=     0 RMS=2.72D-10 Max=4.57D-09 NDo=     1
 Linear equations converged to 4.701D-10 4.701D-09 after     9 iterations.
 Angle between quadratic step and gradient=  32.29 degrees.
     ILin= 1 X=0.000D+00 Y=-2.088703859999D+03 DE= 0.00D+00 F= -1.90D-08
     ILin= 2 X=1.000D+00 Y=-2.088703860008D+03 DE=-9.51D-09
 Iteration  13 EE= -2088.70386000816     Delta-E=       -0.000000009511 Grad=2.788D-08 Max rot=    0.0000 deg.
 Rotation gradient small -- convergence achieved.
 Density matrix breaks symmetry, PCut= 1.00D-04
 Density matrix has no symmetry -- integrals replicated.
 Density matrix is not symmetric, so final MOs not symmetrized.
 SCF Done:  E(UM062X) =  -2088.70386001     a.u. after   13 cycles
            Convg  =    0.2788D-07                    60 Fock formations.
              S**2 =  3.3891                  -V/T =  2.0011
 <Sx>= 0.0000 <Sy>= 0.0000 <Sz>= 0.0000 <S**2>= 3.3891 S= 1.4076
 <L.S>= 0.000000000000E+00
 Annihilation of the first spin contaminant:
 S**2 before annihilation     3.3891,   after    11.7115
 Leave Link  508 at Sun Apr 18 07:30:45 2021, MaxMem=   104857600 cpu:            1725.8 elap:              37.6
 (Enter /s/ls4/users/knvvv/bin/g16sse/l801.exe)
 DoSCS=F DFT=T ScalE2(SS,OS)=  1.000000  1.000000
 Range of M.O.s used for correlation:     1    90
 NBasis=    90 NAE=    24 NBE=    24 NFC=     0 NFV=     0
 NROrb=     90 NOA=    24 NOB=    24 NVA=    66 NVB=    66

 **** Warning!!: The largest alpha MO coefficient is  0.25317716D+02


 **** Warning!!: The largest beta MO coefficient is  0.25317716D+02

 Leave Link  801 at Sun Apr 18 07:30:45 2021, MaxMem=   104857600 cpu:               3.6 elap:               0.1
 (Enter /s/ls4/users/knvvv/bin/g16sse/l914.exe)
 UHF ground state
 Doing stability rather than CIS.
 Two-electron integrals replicated using symmetry.
 MDV=   104857600 DFT=T DoStab=T Mixed=T DoRPA=F DoScal=F NonHer=F
 Making orbital integer symmetry assigments:
 Orbital symmetries:
 Alpha Orbitals:
       Occupied  (?A) (?A) (?A) (?A) (?B) (?B) (?A) (?A) (?B) (?B)
                 (?C) (?C) (?C) (?B) (?B) (?B) (?B) (?C) (?D) (?D)
                 (?C) (?E) (?E) (?C)
       Virtual   (?C) (?D) (?D) (?D) (?D) (?C) (?E) (?E) (?C) (?C)
                 (?C) (?E) (?E) (?D) (?D) (?D) (?D) (?E) (?E) (?C)
                 (?C) (?D) (?D) (?C) (?E) (?E) (?D) (?D) (?C) (?E)
                 (?E) (?D) (?D) (?C) (?D) (?D) (?C) (?D) (?D) (?C)
                 (?D) (?D) (?C) (?E) (?E) (?C) (?E) (?E) (?C) (?D)
                 (?D) (?C) (?D) (?D) (?E) (?E) (?F) (?F) (?F) (?F)
                 (?C) (?E) (?E) (?D) (?D) (?C)
 Beta  Orbitals:
       Occupied  (?A) (?A) (?A) (?A) (?B) (?B) (?A) (?A) (?B) (?B)
                 (?C) (?C) (?C) (?B) (?B) (?B) (?B) (?C) (?D) (?D)
                 (?C) (?E) (?E) (?C)
       Virtual   (?C) (?D) (?D) (?D) (?D) (?C) (?E) (?E) (?C) (?C)
                 (?C) (?E) (?E) (?D) (?D) (?D) (?D) (?E) (?E) (?C)
                 (?C) (?D) (?D) (?C) (?E) (?E) (?D) (?D) (?C) (?E)
                 (?E) (?D) (?D) (?C) (?D) (?D) (?C) (?D) (?D) (?C)
                 (?D) (?D) (?C) (?E) (?E) (?C) (?E) (?E) (?C) (?D)
                 (?D) (?C) (?D) (?D) (?E) (?E) (?F) (?F) (?F) (?F)
                 (?C) (?E) (?E) (?D) (?D) (?C)
    24 initial guesses have been made.
 Convergence on wavefunction:    0.001000000000000
 Davidson Disk Diagonalization:  ConvIn= 1.00D-03 SkipCon=T Conv= 1.00D-03.
 Max sub-space:  2000 roots to seek:    24 dimension of matrix:         3168
 Iteration     1 Dimension    24 NMult     0 NNew     24
 Estimated number of processors is:   46
 CISAX will form     1 AO SS matrices at one time.
 NMat=     1 NSing=     1 JSym2X= 2.
 FoFJK:  IHMeth= 1 ICntrl=       0 DoSepK=F KAlg= 0 I1Cent=           0 FoldK=F
 IRaf= 990000000 NMat=       1 IRICut=       1 DoRegI=T DoRafI=F ISym2E= 2 IDoP0=0 IntGTp=1.
 FoFCou: FMM=F IPFlag=           0 FMFlag=      100000 FMFlg1=           0
         NFxFlg=           0 DoJE=F BraDBF=F KetDBF=F FulRan=T
         wScrn=  0.000000 ICntrl=         0 IOpCl=  1 I1Cent=           0 NGrid=           0
         NMat0=    1 NMatS0=      1 NMatT0=    0 NMatD0=    1 NMtDS0=    0 NMtDT0=    0
 Integrals replicated using symmetry in FoFCou.
 CoulSu:  requested number of processors reduced to:  42 ShMem   1 Linda.
 NMat=     1 NSing=     1 JSym2X= 2.
 CoulSu:  requested number of processors reduced to:  42 ShMem   1 Linda.
 NMat=     1 NSing=     1 JSym2X= 2.
 CoulSu:  requested number of processors reduced to:  42 ShMem   1 Linda.
 NMat=     1 NSing=     1 JSym2X= 2.
 CoulSu:  requested number of processors reduced to:  42 ShMem   1 Linda.
 NMat=     1 NSing=     1 JSym2X= 2.
 CoulSu:  requested number of processors reduced to:  42 ShMem   1 Linda.
 NMat=     1 NSing=     1 JSym2X= 2.
 CoulSu:  requested number of processors reduced to:  42 ShMem   1 Linda.
 NMat=     1 NSing=     1 JSym2X= 2.
 CoulSu:  requested number of processors reduced to:  42 ShMem   1 Linda.
 NMat=     1 NSing=     1 JSym2X= 2.
 CoulSu:  requested number of processors reduced to:  42 ShMem   1 Linda.
 NMat=     1 NSing=     1 JSym2X= 2.
 CoulSu:  requested number of processors reduced to:  42 ShMem   1 Linda.
 NMat=     1 NSing=     1 JSym2X= 2.
 CoulSu:  requested number of processors reduced to:  42 ShMem   1 Linda.
 NMat=     1 NSing=     1 JSym2X= 2.
 CoulSu:  requested number of processors reduced to:  42 ShMem   1 Linda.
 NMat=     1 NSing=     1 JSym2X= 2.
 CoulSu:  requested number of processors reduced to:  42 ShMem   1 Linda.
 NMat=     1 NSing=     1 JSym2X= 2.
 CoulSu:  requested number of processors reduced to:  42 ShMem   1 Linda.
 NMat=     1 NSing=     1 JSym2X= 2.
 CoulSu:  requested number of processors reduced to:  42 ShMem   1 Linda.
 NMat=     1 NSing=     1 JSym2X= 2.
 CoulSu:  requested number of processors reduced to:  42 ShMem   1 Linda.
 NMat=     1 NSing=     1 JSym2X= 2.
 CoulSu:  requested number of processors reduced to:  42 ShMem   1 Linda.
 NMat=     1 NSing=     1 JSym2X= 2.
 CoulSu:  requested number of processors reduced to:  42 ShMem   1 Linda.
 NMat=     1 NSing=     1 JSym2X= 2.
 CoulSu:  requested number of processors reduced to:  42 ShMem   1 Linda.
 NMat=     1 NSing=     1 JSym2X= 2.
 CoulSu:  requested number of processors reduced to:  42 ShMem   1 Linda.
 NMat=     1 NSing=     1 JSym2X= 2.
 CoulSu:  requested number of processors reduced to:  42 ShMem   1 Linda.
 NMat=     1 NSing=     1 JSym2X= 2.
 CoulSu:  requested number of processors reduced to:  42 ShMem   1 Linda.
 NMat=     1 NSing=     1 JSym2X= 2.
 CoulSu:  requested number of processors reduced to:  42 ShMem   1 Linda.
 NMat=     1 NSing=     1 JSym2X= 2.
 CoulSu:  requested number of processors reduced to:  42 ShMem   1 Linda.
 NMat=     1 NSing=     1 JSym2X= 2.
 CoulSu:  requested number of processors reduced to:  42 ShMem   1 Linda.
 Excitation Energies [eV] at current iteration:
 Root      1 :     1.935276206304402
 Root      2 :     2.353076153453880
 Root      3 :     2.353076153455940
 Root      4 :     3.957460431756266
 Root      5 :     3.957473720333563
 Root      6 :     4.168979240592112
 Root      7 :     4.169037856840113
 Root      8 :     4.217948139745979
 Root      9 :     4.612796053416454
 Root     10 :     4.614447931106357
 Root     11 :     4.614447931107462
 Root     12 :     4.784056174210790
 Root     13 :     4.784056174215733
 Root     14 :     5.194423222563649
 Root     15 :     5.301029251590906
 Root     16 :     5.301598586314856
 Root     17 :     5.600537108286161
 Root     18 :     5.600992227741719
 Root     19 :     6.306613935230260
 Root     20 :     6.306613935235740
 Root     21 :     6.379218843238136
 Root     22 :     7.051006213892086
 Root     23 :     8.338923438413834
 Root     24 :     8.338923438416408
 Iteration     2 Dimension    48 NMult    24 NNew     24
 Estimated number of processors is:   46
 CISAX will form     1 AO SS matrices at one time.
 NMat=     1 NSing=     1 JSym2X= 2.
 CoulSu:  requested number of processors reduced to:  42 ShMem   1 Linda.
 NMat=     1 NSing=     1 JSym2X= 2.
 CoulSu:  requested number of processors reduced to:  42 ShMem   1 Linda.
 NMat=     1 NSing=     1 JSym2X= 2.
 CoulSu:  requested number of processors reduced to:  42 ShMem   1 Linda.
 NMat=     1 NSing=     1 JSym2X= 2.
 CoulSu:  requested number of processors reduced to:  42 ShMem   1 Linda.
 NMat=     1 NSing=     1 JSym2X= 2.
 CoulSu:  requested number of processors reduced to:  42 ShMem   1 Linda.
 NMat=     1 NSing=     1 JSym2X= 2.
 CoulSu:  requested number of processors reduced to:  42 ShMem   1 Linda.
 NMat=     1 NSing=     1 JSym2X= 2.
 CoulSu:  requested number of processors reduced to:  42 ShMem   1 Linda.
 NMat=     1 NSing=     1 JSym2X= 2.
 CoulSu:  requested number of processors reduced to:  42 ShMem   1 Linda.
 NMat=     1 NSing=     1 JSym2X= 2.
 CoulSu:  requested number of processors reduced to:  42 ShMem   1 Linda.
 NMat=     1 NSing=     1 JSym2X= 2.
 CoulSu:  requested number of processors reduced to:  42 ShMem   1 Linda.
 NMat=     1 NSing=     1 JSym2X= 2.
 CoulSu:  requested number of processors reduced to:  42 ShMem   1 Linda.
 NMat=     1 NSing=     1 JSym2X= 2.
 CoulSu:  requested number of processors reduced to:  42 ShMem   1 Linda.
 NMat=     1 NSing=     1 JSym2X= 2.
 CoulSu:  requested number of processors reduced to:  42 ShMem   1 Linda.
 NMat=     1 NSing=     1 JSym2X= 2.
 CoulSu:  requested number of processors reduced to:  42 ShMem   1 Linda.
 NMat=     1 NSing=     1 JSym2X= 2.
 CoulSu:  requested number of processors reduced to:  42 ShMem   1 Linda.
 NMat=     1 NSing=     1 JSym2X= 2.
 CoulSu:  requested number of processors reduced to:  42 ShMem   1 Linda.
 NMat=     1 NSing=     1 JSym2X= 2.
 CoulSu:  requested number of processors reduced to:  42 ShMem   1 Linda.
 NMat=     1 NSing=     1 JSym2X= 2.
 CoulSu:  requested number of processors reduced to:  42 ShMem   1 Linda.
 NMat=     1 NSing=     1 JSym2X= 2.
 CoulSu:  requested number of processors reduced to:  42 ShMem   1 Linda.
 NMat=     1 NSing=     1 JSym2X= 2.
 CoulSu:  requested number of processors reduced to:  42 ShMem   1 Linda.
 NMat=     1 NSing=     1 JSym2X= 2.
 CoulSu:  requested number of processors reduced to:  42 ShMem   1 Linda.
 NMat=     1 NSing=     1 JSym2X= 2.
 CoulSu:  requested number of processors reduced to:  42 ShMem   1 Linda.
 NMat=     1 NSing=     1 JSym2X= 2.
 CoulSu:  requested number of processors reduced to:  42 ShMem   1 Linda.
 NMat=     1 NSing=     1 JSym2X= 2.
 CoulSu:  requested number of processors reduced to:  42 ShMem   1 Linda.
 Root      1 not converged, maximum delta is    0.121230781874428
 Excitation Energies [eV] at current iteration:
 Root      1 :     1.620034249038519   Change is   -0.315241957265883
 Root      2 :     1.665634399927544   Change is   -0.687441753526336
 Root      3 :     1.665634399929308   Change is   -0.687441753526632
 Root      4 :     3.529914347742052   Change is   -0.427546084014214
 Root      5 :     3.530071581080683   Change is   -0.427402139252880
 Root      6 :     3.596503222386505   Change is   -0.621444917359475
 Root      7 :     3.729021501803758   Change is   -0.885426429302599
 Root      8 :     3.729021501804405   Change is   -0.885426429303058
 Root      9 :     3.796572635300933   Change is   -1.397850587262716
 Root     10 :     3.847544971177711   Change is   -0.321492885662402
 Root     11 :     3.847547321293681   Change is   -0.321431919298430
 Root     12 :     4.321974857414309   Change is   -0.462081316796481
 Root     13 :     4.321974857414527   Change is   -0.462081316801206
 Root     14 :     4.360454830274034   Change is   -0.252341223142420
 Root     15 :     4.509718005161918   Change is   -0.791311246428987
 Root     16 :     4.510736165523581   Change is   -0.790862420791275
 Root     17 :     4.856116628273367   Change is   -3.482806810140468
 Root     18 :     4.856116628274932   Change is   -3.482806810141477
 Root     19 :     4.931120598821101   Change is   -2.119885615070985
 Root     20 :     5.069987697861016   Change is   -0.530549410425144
 Root     21 :     5.070466622324570   Change is   -0.530525605417149
 Root     22 :     5.128476809388988   Change is   -1.178137125841271
 Root     23 :     5.128476809392535   Change is   -1.178137125843205
 Root     24 :     5.782393470754182   Change is   -0.596825372483954
 Iteration     3 Dimension    51 NMult    48 NNew      3
 Estimated number of processors is:   46
 CISAX will form     1 AO SS matrices at one time.
 NMat=     1 NSing=     1 JSym2X= 2.
 CoulSu:  requested number of processors reduced to:  42 ShMem   1 Linda.
 NMat=     1 NSing=     1 JSym2X= 2.
 CoulSu:  requested number of processors reduced to:  42 ShMem   1 Linda.
 NMat=     1 NSing=     1 JSym2X= 2.
 CoulSu:  requested number of processors reduced to:  42 ShMem   1 Linda.
 New state      1 was old state      2
 Root      1 not converged, maximum delta is    0.040383824886476
 Excitation Energies [eV] at current iteration:
 Root      1 :     1.547909875171751   Change is   -0.117724524755793
 Root      2 :     1.547909875173298   Change is   -0.117724524756010
 Root      3 :     1.607829328566893   Change is   -0.012204920471626
 Iteration     4 Dimension    54 NMult    51 NNew      3
 Estimated number of processors is:   46
 CISAX will form     1 AO SS matrices at one time.
 NMat=     1 NSing=     1 JSym2X= 2.
 CoulSu:  requested number of processors reduced to:  42 ShMem   1 Linda.
 NMat=     1 NSing=     1 JSym2X= 2.
 CoulSu:  requested number of processors reduced to:  42 ShMem   1 Linda.
 NMat=     1 NSing=     1 JSym2X= 2.
 CoulSu:  requested number of processors reduced to:  42 ShMem   1 Linda.
 Root      1 not converged, maximum delta is    0.014835795721849
 Excitation Energies [eV] at current iteration:
 Root      1 :     1.528331609447821   Change is   -0.019578265723930
 Root      2 :     1.528331609449277   Change is   -0.019578265724020
 Root      3 :     1.605359092621924   Change is   -0.002470235944969
 Iteration     5 Dimension    57 NMult    54 NNew      3
 Estimated number of processors is:   46
 CISAX will form     1 AO SS matrices at one time.
 NMat=     1 NSing=     1 JSym2X= 2.
 CoulSu:  requested number of processors reduced to:  42 ShMem   1 Linda.
 NMat=     1 NSing=     1 JSym2X= 2.
 CoulSu:  requested number of processors reduced to:  42 ShMem   1 Linda.
 NMat=     1 NSing=     1 JSym2X= 2.
 CoulSu:  requested number of processors reduced to:  42 ShMem   1 Linda.
 Root      1 not converged, maximum delta is    0.004378011360828
 Excitation Energies [eV] at current iteration:
 Root      1 :     1.525761692740634   Change is   -0.002569916707187
 Root      2 :     1.525761692742060   Change is   -0.002569916707217
 Root      3 :     1.604827207576889   Change is   -0.000531885045035
 Iteration     6 Dimension    60 NMult    57 NNew      3
 Estimated number of processors is:   46
 CISAX will form     1 AO SS matrices at one time.
 NMat=     1 NSing=     1 JSym2X= 2.
 CoulSu:  requested number of processors reduced to:  42 ShMem   1 Linda.
 NMat=     1 NSing=     1 JSym2X= 2.
 CoulSu:  requested number of processors reduced to:  42 ShMem   1 Linda.
 NMat=     1 NSing=     1 JSym2X= 2.
 CoulSu:  requested number of processors reduced to:  42 ShMem   1 Linda.
 Root      1 not converged, maximum delta is    0.003792150109381
 Excitation Energies [eV] at current iteration:
 Root      1 :     1.525430170330544   Change is   -0.000331522410090
 Root      2 :     1.525430170331994   Change is   -0.000331522410066
 Root      3 :     1.604710235131261   Change is   -0.000116972445628
 Iteration     7 Dimension    63 NMult    60 NNew      3
 Estimated number of processors is:   46
 CISAX will form     1 AO SS matrices at one time.
 NMat=     1 NSing=     1 JSym2X= 2.
 CoulSu:  requested number of processors reduced to:  42 ShMem   1 Linda.
 NMat=     1 NSing=     1 JSym2X= 2.
 CoulSu:  requested number of processors reduced to:  42 ShMem   1 Linda.
 NMat=     1 NSing=     1 JSym2X= 2.
 CoulSu:  requested number of processors reduced to:  42 ShMem   1 Linda.
 Root      1 not converged, maximum delta is    0.004015612965057
 Excitation Energies [eV] at current iteration:
 Root      1 :     1.525387135234124   Change is   -0.000043035096420
 Root      2 :     1.525387135235562   Change is   -0.000043035096432
 Root      3 :     1.604674098764782   Change is   -0.000036136366479
 Iteration     8 Dimension    66 NMult    63 NNew      3
 Estimated number of processors is:   46
 CISAX will form     1 AO SS matrices at one time.
 NMat=     1 NSing=     1 JSym2X= 2.
 CoulSu:  requested number of processors reduced to:  42 ShMem   1 Linda.
 NMat=     1 NSing=     1 JSym2X= 2.
 CoulSu:  requested number of processors reduced to:  42 ShMem   1 Linda.
 NMat=     1 NSing=     1 JSym2X= 2.
 CoulSu:  requested number of processors reduced to:  42 ShMem   1 Linda.
 Root      1 not converged, maximum delta is    0.017038652994402
 Excitation Energies [eV] at current iteration:
 Root      1 :     1.525381019156441   Change is   -0.000006116077683
 Root      2 :     1.525381019157879   Change is   -0.000006116077683
 Root      3 :     1.604670334035787   Change is   -0.000003764728995
 Iteration     9 Dimension    69 NMult    66 NNew      3
 Estimated number of processors is:   46
 CISAX will form     1 AO SS matrices at one time.
 NMat=     1 NSing=     1 JSym2X= 2.
 CoulSu:  requested number of processors reduced to:  42 ShMem   1 Linda.
 NMat=     1 NSing=     1 JSym2X= 2.
 CoulSu:  requested number of processors reduced to:  42 ShMem   1 Linda.
 NMat=     1 NSing=     1 JSym2X= 2.
 CoulSu:  requested number of processors reduced to:  42 ShMem   1 Linda.
 Root      1 not converged, maximum delta is    0.014413175784275
 Excitation Energies [eV] at current iteration:
 Root      1 :     1.525380298849317   Change is   -0.000000720307125
 Root      2 :     1.525380298850730   Change is   -0.000000720307149
 Root      3 :     1.604669943571847   Change is   -0.000000390463940
 Iteration    10 Dimension    72 NMult    69 NNew      3
 Estimated number of processors is:   46
 CISAX will form     1 AO SS matrices at one time.
 NMat=     1 NSing=     1 JSym2X= 2.
 CoulSu:  requested number of processors reduced to:  42 ShMem   1 Linda.
 NMat=     1 NSing=     1 JSym2X= 2.
 CoulSu:  requested number of processors reduced to:  42 ShMem   1 Linda.
 NMat=     1 NSing=     1 JSym2X= 2.
 CoulSu:  requested number of processors reduced to:  42 ShMem   1 Linda.
 Root      1 not converged, maximum delta is    0.007793639811181
 Excitation Energies [eV] at current iteration:
 Root      1 :     1.525380234345695   Change is   -0.000000064503622
 Root      2 :     1.525380234347157   Change is   -0.000000064503574
 Root      3 :     1.604669885758006   Change is   -0.000000057813842
 Convergence on energies, max DE= 6.45D-08.
 Convergence on expansion vectors.
 ***********************************************************************
 Stability analysis using <AA,BB:AA,BB> singles matrix:
 ***********************************************************************
 1PDM for each excited state written to RWF  633
 Ground to excited state transition densities written to RWF  633

 Eigenvectors of the stability matrix:
 
 Excited state symmetry could not be determined.
 Eigenvector   1:  4.631-?Sym  Eigenvalue= 0.0560567  <S**2>=5.111
     24A -> 26A        0.30645
     24A -> 27A        0.42080
     24A -> 28A       -0.37924
     24A -> 51A       -0.10513
     21B -> 27B       -0.10540
     24B -> 27B        0.51604
     24B -> 29B        0.37881
     24B -> 52B       -0.10445
 
 Excited state symmetry could not be determined.
 Eigenvector   2:  4.631-?Sym  Eigenvalue= 0.0560567  <S**2>=5.111
     24A -> 26A        0.42080
     24A -> 27A       -0.30645
     24A -> 29A       -0.37924
     24A -> 52A       -0.10513
     21B -> 26B       -0.10540
     24B -> 26B        0.51604
     24B -> 28B        0.37881
     24B -> 51B       -0.10445
 
 Excited state symmetry could not be determined.
 Eigenvector   3:  4.672-?Sym  Eigenvalue= 0.0589705  <S**2>=5.208
     24A -> 25A        0.67842
     24A -> 30A        0.11043
     24A -> 35A       -0.12147
     24B -> 25B        0.67842
     24B -> 30B        0.11043
     24B -> 35B       -0.12147
 The wavefunction is stable under the perturbations considered.
 Leave Link  914 at Sun Apr 18 07:32:00 2021, MaxMem=   104857600 cpu:            3325.2 elap:              74.7
 (Enter /s/ls4/users/knvvv/bin/g16sse/l508.exe)
 The wavefunction is already stable.
 Leave Link  508 at Sun Apr 18 07:32:00 2021, MaxMem=   104857600 cpu:               2.2 elap:               0.1
 (Enter /s/ls4/users/knvvv/bin/g16sse/l601.exe)
 Copying SCF densities to generalized density rwf, IOpCl= 1 IROHF=0.
 SCF density gives NOpUse=  1 NOpAll=  8.
 Marking SCF density as not fully symmetric.

 **********************************************************************

            Population analysis using the SCF density.

 **********************************************************************

 Orbital symmetries:
 Alpha Orbitals:
       Occupied  (?A) (?A) (?A) (?A) (?B) (?B) (?A) (?A) (?B) (?B)
                 (?C) (?C) (?C) (?B) (?B) (?B) (?B) (?C) (?D) (?D)
                 (?C) (?E) (?E) (?C)
       Virtual   (?C) (?D) (?D) (?D) (?D) (?C) (?E) (?E) (?C) (?C)
                 (?C) (?E) (?E) (?D) (?D) (?D) (?D) (?E) (?E) (?C)
                 (?C) (?D) (?D) (?C) (?E) (?E) (?D) (?D) (?C) (?E)
                 (?E) (?D) (?D) (?C) (?D) (?D) (?C) (?D) (?D) (?C)
                 (?D) (?D) (?C) (?E) (?E) (?C) (?E) (?E) (?C) (?D)
                 (?D) (?C) (?D) (?D) (?E) (?E) (?F) (?F) (?F) (?F)
                 (?C) (?E) (?E) (?D) (?D) (?C)
 Beta  Orbitals:
       Occupied  (?A) (?A) (?A) (?A) (?B) (?B) (?A) (?A) (?B) (?B)
                 (?C) (?C) (?C) (?B) (?B) (?B) (?B) (?C) (?D) (?D)
                 (?C) (?E) (?E) (?C)
       Virtual   (?C) (?D) (?D) (?D) (?D) (?C) (?E) (?E) (?C) (?C)
                 (?C) (?E) (?E) (?D) (?D) (?D) (?D) (?E) (?E) (?C)
                 (?C) (?D) (?D) (?C) (?E) (?E) (?D) (?D) (?C) (?E)
                 (?E) (?D) (?D) (?C) (?D) (?D) (?C) (?D) (?D) (?C)
                 (?D) (?D) (?C) (?E) (?E) (?C) (?E) (?E) (?C) (?D)
                 (?D) (?C) (?D) (?D) (?E) (?E) (?F) (?F) (?F) (?F)
                 (?C) (?E) (?E) (?D) (?D) (?C)
 Unable to determine electronic state:  an orbital has unidentified symmetry.
 Alpha  occ. eigenvalues -- -217.34142-217.34091 -25.17035 -25.10728 -21.44928
 Alpha  occ. eigenvalues --  -21.44928 -21.44902 -21.39943 -21.39160 -21.39160
 Alpha  occ. eigenvalues --   -3.08008  -2.90829  -2.05584  -1.99991  -1.99991
 Alpha  occ. eigenvalues --   -1.78824  -1.78824  -1.77723  -0.32573  -0.32573
 Alpha  occ. eigenvalues --   -0.31770  -0.30204  -0.30204  -0.19873
 Alpha virt. eigenvalues --   -0.04632   0.03270   0.03270   0.05053   0.05053
 Alpha virt. eigenvalues --    0.05159   0.07496   0.07496   0.09916   0.11188
 Alpha virt. eigenvalues --    0.13217   0.14266   0.14266   0.15729   0.15729
 Alpha virt. eigenvalues --    0.17270   0.17270   0.17654   0.17654   0.18399
 Alpha virt. eigenvalues --    0.27639   0.33995   0.33995   0.44069   0.53030
 Alpha virt. eigenvalues --    0.53030   0.57478   0.57478   0.60616   0.60991
 Alpha virt. eigenvalues --    0.60992   0.63483   0.63483   0.64501   1.34702
 Alpha virt. eigenvalues --    1.34702   1.45249   1.60445   1.60445   1.80274
 Alpha virt. eigenvalues --    2.02002   2.02002   2.11465   2.12535   2.12535
 Alpha virt. eigenvalues --    2.27109   2.27337   2.27339   2.32631   2.41335
 Alpha virt. eigenvalues --    2.41335   2.76969   2.88461   2.88461   2.93044
 Alpha virt. eigenvalues --    2.93045   3.02030   3.02030   3.15535   3.15535
 Alpha virt. eigenvalues --    3.16903   3.25425   3.25425   3.78511   3.78511
 Alpha virt. eigenvalues --    4.93376
  Beta  occ. eigenvalues -- -217.34142-217.34091 -25.17035 -25.10728 -21.44928
  Beta  occ. eigenvalues --  -21.44928 -21.44902 -21.39943 -21.39160 -21.39160
  Beta  occ. eigenvalues --   -3.08008  -2.90829  -2.05584  -1.99991  -1.99991
  Beta  occ. eigenvalues --   -1.78824  -1.78824  -1.77723  -0.32573  -0.32573
  Beta  occ. eigenvalues --   -0.31770  -0.30204  -0.30204  -0.19873
  Beta virt. eigenvalues --   -0.04632   0.03270   0.03270   0.05053   0.05053
  Beta virt. eigenvalues --    0.05159   0.07496   0.07496   0.09916   0.11188
  Beta virt. eigenvalues --    0.13217   0.14266   0.14266   0.15729   0.15729
  Beta virt. eigenvalues --    0.17270   0.17270   0.17654   0.17654   0.18399
  Beta virt. eigenvalues --    0.27639   0.33995   0.33995   0.44069   0.53030
  Beta virt. eigenvalues --    0.53030   0.57478   0.57478   0.60616   0.60991
  Beta virt. eigenvalues --    0.60992   0.63483   0.63483   0.64501   1.34702
  Beta virt. eigenvalues --    1.34702   1.45249   1.60445   1.60445   1.80274
  Beta virt. eigenvalues --    2.02002   2.02002   2.11465   2.12535   2.12535
  Beta virt. eigenvalues --    2.27109   2.27337   2.27339   2.32631   2.41335
  Beta virt. eigenvalues --    2.41335   2.76969   2.88461   2.88461   2.93044
  Beta virt. eigenvalues --    2.93045   3.02030   3.02030   3.15535   3.15535
  Beta virt. eigenvalues --    3.16903   3.25425   3.25425   3.78511   3.78511
  Beta virt. eigenvalues --    4.93376
          Condensed to atoms (all electrons):
               1          2
     1  Cr  23.436076   0.563924
     2  Cr   0.563924  23.436076
          Atomic-Atomic Spin Densities.
               1          2
     1  Cr  -4.254300  -0.000000
     2  Cr  -0.000000   4.254300
 Mulliken charges and spin densities:
               1          2
     1  Cr   0.000000  -4.254300
     2  Cr   0.000000   4.254300
 Sum of Mulliken charges =   0.00000   0.00000
 Mulliken charges and spin densities with hydrogens summed into heavy atoms:
               1          2
     1  Cr   0.000000  -4.254300
     2  Cr   0.000000   4.254300
 Electronic spatial extent (au):  <R**2>=            193.6894
 Charge=              0.0000 electrons
 Dipole moment (field-independent basis, Debye):
    X=              0.0000    Y=              0.0000    Z=             -0.0000  Tot=              0.0000
 Quadrupole moment (field-independent basis, Debye-Ang):
   XX=            -33.6884   YY=            -33.6884   ZZ=            -30.4633
   XY=              0.0000   XZ=             -0.0000   YZ=              0.0000
 Traceless Quadrupole moment (field-independent basis, Debye-Ang):
   XX=             -1.0750   YY=             -1.0750   ZZ=              2.1501
   XY=              0.0000   XZ=             -0.0000   YZ=              0.0000
 Octapole moment (field-independent basis, Debye-Ang**2):
  XXX=              0.0000  YYY=              0.0000  ZZZ=              0.0000  XYY=              0.0000
  XXY=              0.0000  XXZ=              0.0000  XZZ=             -0.0000  YZZ=              0.0000
  YYZ=              0.0000  XYZ=              0.0000
 Hexadecapole moment (field-independent basis, Debye-Ang**3):
 XXXX=            -74.4259 YYYY=            -74.4259 ZZZZ=           -203.0444 XXXY=              0.0000
 XXXZ=             -0.0000 YYYX=             -0.0000 YYYZ=              0.0000 ZZZX=             -0.0000
 ZZZY=              0.0000 XXYY=            -24.8087 XXZZ=            -44.9460 YYZZ=            -44.9460
 XXYZ=              0.0000 YYXZ=             -0.0000 ZZXY=             -0.0000
 N-N= 1.814321866011D+02 E-N=-5.324490404734D+03  KE= 2.086372024698D+03
                          Isotropic Fermi Contact Couplings
        Atom                 a.u.       MegaHertz       Gauss      10(-4) cm-1
     1  Cr(53)            -0.09436      11.94438       4.26205       3.98422
     2  Cr(53)             0.09436     -11.94438      -4.26205      -3.98422
 --------------------------------------------------------
       Center         ----  Spin Dipole Couplings  ----
                      3XX-RR        3YY-RR        3ZZ-RR
 --------------------------------------------------------
     1   Atom       -0.480736     -0.480736      0.961472
     2   Atom        0.480736      0.480736     -0.961472
 --------------------------------------------------------
                        XY            XZ            YZ
 --------------------------------------------------------
     1   Atom       -0.000000      0.000000      0.000000
     2   Atom        0.000000     -0.000000     -0.000000
 --------------------------------------------------------


 ---------------------------------------------------------------------------------
              Anisotropic Spin Dipole Couplings in Principal Axis System
 ---------------------------------------------------------------------------------

       Atom             a.u.   MegaHertz   Gauss  10(-4) cm-1        Axes

              Baa    -0.4807    14.527     5.184     4.846  0.9999  0.0117 -0.0000
     1 Cr(53) Bbb    -0.4807    14.527     5.184     4.846 -0.0117  0.9999 -0.0000
              Bcc     0.9615   -29.055   -10.367    -9.692  0.0000  0.0000  1.0000
 
              Baa    -0.9615    29.055    10.367     9.692  0.0000  0.0000  1.0000
     2 Cr(53) Bbb     0.4807   -14.527    -5.184    -4.846 -0.0004  1.0000 -0.0000
              Bcc     0.4807   -14.527    -5.184    -4.846  1.0000  0.0004 -0.0000
 

 ---------------------------------------------------------------------------------

 No NMR shielding tensors so no spin-rotation constants.
 Leave Link  601 at Sun Apr 18 07:32:03 2021, MaxMem=   104857600 cpu:             156.8 elap:               3.4
 (Enter /s/ls4/users/knvvv/bin/g16sse/l9999.exe)

 Test job not archived.
 1\1\GINC-N178\Stability\UM062X\def2TZVP\Cr2\KNVVV\18-Apr-2021\0\\#P M0
 62X/Def2TZVP Integral=UltraFineGrid SCF=NoSymm Stable=(RExt, Opt) IOp(
 1/33=1)\\Database calculations.\\0,1\Cr,0,0.,0.,0.\Cr,0,0.,0.,1.68\\Ve
 rsion=ES64L-G16RevA.03\State=1-SGG\HF=-2088.70386\S2=3.389116\S2-1=0.\
 S2A=11.711511\RMSD=4.953e-10\Dipole=0.,0.,0.\Quadrupole=-0.7992628,-0.
 7992628,1.5985257,0.,0.,0.\PG=D*H [C*(Cr1.Cr1)]\\@


 NATURE GIVES TO EVERY TIME AND SEASON SOME BEAUTY OF ITS OWN.

                                                    --DICKENS
 Job cpu time:       0 days  3 hours 42 minutes  8.3 seconds.
 Elapsed time:       0 days  0 hours  4 minutes 49.9 seconds.
 File lengths (MBytes):  RWF=    123 Int=      0 D2E=      0 Chk=      4 Scr=      1
 Normal termination of Gaussian 16 at Sun Apr 18 07:32:04 2021.
