 Entering Gaussian System, Link 0=/s/ls4/users/knvvv/bin/g16sse/g16
 Input=data/database/M062X--def2-QZVPPD--250_t-hono_W4-11.gjf
 Output=data/database/M062X--def2-QZVPPD--250_t-hono_W4-11.log
 Initial command:
 /s/ls4/users/knvvv/bin/g16sse/l1.exe "/s/ls4/users/knvvv/bin/scratch/Gau-6694.inp" -scrdir="/s/ls4/users/knvvv/bin/scratch/"
 Entering Link 1 = /s/ls4/users/knvvv/bin/g16sse/l1.exe PID=      6695.
  
 Copyright (c) 1988,1990,1992,1993,1995,1998,2003,2009,2016,
            Gaussian, Inc.  All Rights Reserved.
  
 This is part of the Gaussian(R) 16 program.  It is based on
 the Gaussian(R) 09 system (copyright 2009, Gaussian, Inc.),
 the Gaussian(R) 03 system (copyright 2003, Gaussian, Inc.),
 the Gaussian(R) 98 system (copyright 1998, Gaussian, Inc.),
 the Gaussian(R) 94 system (copyright 1995, Gaussian, Inc.),
 the Gaussian 92(TM) system (copyright 1992, Gaussian, Inc.),
 the Gaussian 90(TM) system (copyright 1990, Gaussian, Inc.),
 the Gaussian 88(TM) system (copyright 1988, Gaussian, Inc.),
 the Gaussian 86(TM) system (copyright 1986, Carnegie Mellon
 University), and the Gaussian 82(TM) system (copyright 1983,
 Carnegie Mellon University). Gaussian is a federally registered
 trademark of Gaussian, Inc.
  
 This software contains proprietary and confidential information,
 including trade secrets, belonging to Gaussian, Inc.
  
 This software is provided under written license and may be
 used, copied, transmitted, or stored only in accord with that
 written license.
  
 The following legend is applicable only to US Government
 contracts under FAR:
  
                    RESTRICTED RIGHTS LEGEND
  
 Use, reproduction and disclosure by the US Government is
 subject to restrictions as set forth in subparagraphs (a)
 and (c) of the Commercial Computer Software - Restricted
 Rights clause in FAR 52.227-19.
  
 Gaussian, Inc.
 340 Quinnipiac St., Bldg. 40, Wallingford CT 06492
  
  
 ---------------------------------------------------------------
 Warning -- This program may not be used in any manner that
 competes with the business of Gaussian, Inc. or will provide
 assistance to any competitor of Gaussian, Inc.  The licensee
 of this program is prohibited from giving any competitor of
 Gaussian, Inc. access to this program.  By using this program,
 the user acknowledges that Gaussian, Inc. is engaged in the
 business of creating and licensing software in the field of
 computational chemistry and represents and warrants to the
 licensee that it is not a competitor of Gaussian, Inc. and that
 it will not use this program in any manner prohibited above.
 ---------------------------------------------------------------
  

 Cite this work as:
 Gaussian 16, Revision A.03,
 M. J. Frisch, G. W. Trucks, H. B. Schlegel, G. E. Scuseria, 
 M. A. Robb, J. R. Cheeseman, G. Scalmani, V. Barone, 
 G. A. Petersson, H. Nakatsuji, X. Li, M. Caricato, A. V. Marenich, 
 J. Bloino, B. G. Janesko, R. Gomperts, B. Mennucci, H. P. Hratchian, 
 J. V. Ortiz, A. F. Izmaylov, J. L. Sonnenberg, D. Williams-Young, 
 F. Ding, F. Lipparini, F. Egidi, J. Goings, B. Peng, A. Petrone, 
 T. Henderson, D. Ranasinghe, V. G. Zakrzewski, J. Gao, N. Rega, 
 G. Zheng, W. Liang, M. Hada, M. Ehara, K. Toyota, R. Fukuda, 
 J. Hasegawa, M. Ishida, T. Nakajima, Y. Honda, O. Kitao, H. Nakai, 
 T. Vreven, K. Throssell, J. A. Montgomery, Jr., J. E. Peralta, 
 F. Ogliaro, M. J. Bearpark, J. J. Heyd, E. N. Brothers, K. N. Kudin, 
 V. N. Staroverov, T. A. Keith, R. Kobayashi, J. Normand, 
 K. Raghavachari, A. P. Rendell, J. C. Burant, S. S. Iyengar, 
 J. Tomasi, M. Cossi, J. M. Millam, M. Klene, C. Adamo, R. Cammi, 
 J. W. Ochterski, R. L. Martin, K. Morokuma, O. Farkas, 
 J. B. Foresman, and D. J. Fox, Gaussian, Inc., Wallingford CT, 2016.
 
 ******************************************
 Gaussian 16:  ES64L-G16RevA.03 25-Dec-2016
                17-Apr-2021 
 ******************************************
 %RWF=temp21_24620,70GB
 %nprocshared=48
 Will use up to   48 processors via shared memory.
 Default route: MaxDisk=80GB
 ----------------------------------------------------------------------
 #P M062X/GEN Integral=UltraFineGrid SCF=NoSymm Stable=(RExt, Opt) IOp(
 1/33=1)
 ----------------------------------------------------------------------
 1/33=1,38=1,172=1/1;
 2/12=2,17=6,18=5,40=1/2;
 3/5=7,11=2,25=1,30=1,74=-55,75=-5/1,2,3;
 4/9=2/1;
 5/5=2,38=5/2;
 6/7=2,8=2,9=2,10=2,28=1/1;
 8/6=1,10=90,11=11/1;
 9/8=-3,42=1,46=1/14;
 5/5=2,8=3,17=40,38=5/8(-2);
 6/7=2,8=2,9=2,10=2,28=1/1;
 99/5=1,9=1/99;
 Leave Link    1 at Sat Apr 17 20:49:54 2021, MaxMem=           0 cpu:              10.8 elap:               0.2
 (Enter /s/ls4/users/knvvv/bin/g16sse/l101.exe)
 ONIOM data not found on unit 2.
 ----------------------
 Database calculations.
 ----------------------
 TstMul:  ICh=     0
 TstMul:  Mul=     1
 TstMul:  ICh=     0
 TstMul:  Mul=     1
 Symbolic Z-matrix:
 Charge =  0 Multiplicity = 1
 O                     0.        0.23932  -1.05894 
 N                     0.       -0.49542  -0.14697 
 O                     0.        0.22508   1.07862 
 H                     0.       -0.48708   1.73004 
 
 RdStrC is calling ZToCFu for IStruc=1 NZ=     4.
 PrtBox:  NBox=     1 Levels=  1 BoxLen=    8.00 SMaxX=        5.27
          Shift=            0.000000            0.936210            2.001113
 Box      1 Number                   0 centers from      1 to      4:
 After GenITR:
 ITRead=  0  0  0  0
 MicOpt= -1 -1 -1 -1
 ITRead=  0  0  0  0
 MicOpt= -1 -1 -1 -1
 NAtoms=      4 NQM=        4 NQMF=       0 NMMI=      0 NMMIF=      0
                NMic=       0 NMicF=      0.
                    Isotopes and Nuclear Properties:
 (Nuclear quadrupole moments (NQMom) in fm**2, nuclear magnetic moments (NMagM)
  in nuclear magnetons)

  Atom         1           2           3           4
 IAtWgt=          16          14          16           1
 AtmWgt=  15.9949146  14.0030740  15.9949146   1.0078250
 NucSpn=           0           2           0           1
 AtZEff=  -0.0000000  -0.0000000  -0.0000000  -0.0000000
 NQMom=    0.0000000   2.0440000   0.0000000   0.0000000
 NMagM=    0.0000000   0.4037610   0.0000000   2.7928460
 AtZNuc=   8.0000000   7.0000000   8.0000000   1.0000000
 No MM parameters found.
 Leave Link  101 at Sat Apr 17 20:49:55 2021, MaxMem=   104857600 cpu:               6.1 elap:               0.3
 (Enter /s/ls4/users/knvvv/bin/g16sse/l202.exe)
                          Input orientation:                          
 ---------------------------------------------------------------------
 Center     Atomic      Atomic             Coordinates (Angstroms)
 Number     Number       Type             X           Y           Z
 ---------------------------------------------------------------------
      1          8           0        0.000000    0.239323   -1.058944
      2          7           0        0.000000   -0.495421   -0.146969
      3          8           0        0.000000    0.225079    1.078618
      4          1           0        0.000000   -0.487081    1.730038
 ---------------------------------------------------------------------
                    Distance matrix (angstroms):
                    1          2          3          4
     1  O    0.000000
     2  N    1.171131   0.000000
     3  O    2.137609   1.421683   0.000000
     4  H    2.882027   1.877025   0.965153   0.000000
 Stoichiometry    HNO2
 Framework group  CS[SG(HNO2)]
 Deg. of freedom     5
 Full point group                 CS      NOp   2
 Largest Abelian subgroup         CS      NOp   2
 Largest concise Abelian subgroup C1      NOp   1
                         Standard orientation:                         
 ---------------------------------------------------------------------
 Center     Atomic      Atomic             Coordinates (Angstroms)
 Number     Number       Type             X           Y           Z
 ---------------------------------------------------------------------
      1          8           0       -1.112365    0.152366    0.000000
      2          7           0        0.000000    0.518688    0.000000
      3          8           0        0.893151   -0.587415    0.000000
      4          1           0        1.753712   -0.150429    0.000000
 ---------------------------------------------------------------------
 Rotational constants (GHZ):          93.5457998          12.6776630          11.1645967
 Leave Link  202 at Sat Apr 17 20:49:55 2021, MaxMem=   104857600 cpu:              11.2 elap:               0.4
 (Enter /s/ls4/users/knvvv/bin/g16sse/l301.exe)
 General basis read from cards:  (5D, 7F)
 Centers:       4
 S 4 1.00
     Exponent=  1.9069169000D+02 Coefficients=  7.0815167000D-04
     Exponent=  2.8605532000D+01 Coefficients=  5.4678827000D-03
     Exponent=  6.5095943000D+00 Coefficients=  2.7966605000D-02
     Exponent=  1.8412455000D+00 Coefficients=  1.0764538000D-01
 S 1 1.00
     Exponent=  5.9853725000D-01 Coefficients=  1.0000000000D+00
 S 1 1.00
     Exponent=  2.1397624000D-01 Coefficients=  1.0000000000D+00
 S 1 1.00
     Exponent=  8.0316286000D-02 Coefficients=  1.0000000000D+00
 P 1 1.00
     Exponent=  2.2920000000D+00 Coefficients=  1.0000000000D+00
 P 1 1.00
     Exponent=  8.3800000000D-01 Coefficients=  1.0000000000D+00
 P 1 1.00
     Exponent=  2.9200000000D-01 Coefficients=  1.0000000000D+00
 P 1 1.00
     Exponent=  8.4063199228D-02 Coefficients=  1.0000000000D+00
 D 1 1.00
     Exponent=  2.0620000000D+00 Coefficients=  1.0000000000D+00
 D 1 1.00
     Exponent=  6.6200000000D-01 Coefficients=  1.0000000000D+00
 F 1 1.00
     Exponent=  1.3970000000D+00 Coefficients=  1.0000000000D+00
 ****
 Centers:       2
 S 8 1.00
     Exponent=  9.0726889210D+04 Coefficients=  3.9257887368D-05
     Exponent=  1.3590528801D+04 Coefficients=  3.0513316455D-04
     Exponent=  3.0929883781D+03 Coefficients=  1.6000560446D-03
     Exponent=  8.7599876362D+02 Coefficients=  6.6982937306D-03
     Exponent=  2.8574469982D+02 Coefficients=  2.3690078765D-02
     Exponent=  1.0311913417D+02 Coefficients=  7.1455405268D-02
     Exponent=  4.0128556777D+01 Coefficients=  1.7632774876D-01
     Exponent=  1.6528095704D+01 Coefficients=  3.2677592815D-01
 S 2 1.00
     Exponent=  6.9390960983D+01 Coefficients=  8.0052094386D-02
     Exponent=  2.0428200596D+01 Coefficients=  7.8268063538D-01
 S 1 1.00
     Exponent=  7.1292587972D+00 Coefficients=  1.0000000000D+00
 S 1 1.00
     Exponent=  3.1324304893D+00 Coefficients=  1.0000000000D+00
 S 1 1.00
     Exponent=  9.8755778723D-01 Coefficients=  1.0000000000D+00
 S 1 1.00
     Exponent=  3.8765721307D-01 Coefficients=  1.0000000000D+00
 S 1 1.00
     Exponent=  1.4909883075D-01 Coefficients=  1.0000000000D+00
 S 1 1.00
     Exponent=  6.2151630318D-02 Coefficients=  1.0000000000D+00
 P 5 1.00
     Exponent=  1.5005742670D+02 Coefficients= -8.6216165986D-04
     Exponent=  3.5491599483D+01 Coefficients= -6.8571273236D-03
     Exponent=  1.1247864223D+01 Coefficients= -3.1795688855D-02
     Exponent=  4.0900305195D+00 Coefficients= -1.0537396822D-01
     Exponent=  1.6220573146D+00 Coefficients= -2.4519708041D-01
 P 1 1.00
     Exponent=  6.6442261530D-01 Coefficients=  1.0000000000D+00
 P 1 1.00
     Exponent=  2.7099770070D-01 Coefficients=  1.0000000000D+00
 P 1 1.00
     Exponent=  1.0688749984D-01 Coefficients=  1.0000000000D+00
 D 1 1.00
     Exponent=  2.8370000000D+00 Coefficients=  1.0000000000D+00
 D 1 1.00
     Exponent=  9.6800000000D-01 Coefficients=  1.0000000000D+00
 D 1 1.00
     Exponent=  3.3500000000D-01 Coefficients=  1.0000000000D+00
 D 1 1.00
     Exponent=  1.0825280010D-01 Coefficients=  1.0000000000D+00
 F 1 1.00
     Exponent=  2.0270000000D+00 Coefficients=  1.0000000000D+00
 F 1 1.00
     Exponent=  6.8500000000D-01 Coefficients=  1.0000000000D+00
 G 1 1.00
     Exponent=  1.4270000000D+00 Coefficients=  1.0000000000D+00
 ****
 Centers:       1      3
 S 8 1.00
     Exponent=  1.1650646908D+05 Coefficients=  4.0383857939D-05
     Exponent=  1.7504349724D+04 Coefficients=  3.1255139004D-04
     Exponent=  3.9934513230D+03 Coefficients=  1.6341473495D-03
     Exponent=  1.1330063186D+03 Coefficients=  6.8283224757D-03
     Exponent=  3.6999569594D+02 Coefficients=  2.4124410221D-02
     Exponent=  1.3362074349D+02 Coefficients=  7.2730206154D-02
     Exponent=  5.2035643649D+01 Coefficients=  1.7934429892D-01
     Exponent=  2.1461939313D+01 Coefficients=  3.3059588895D-01
 S 2 1.00
     Exponent=  8.9835051252D+01 Coefficients=  9.6468652996D-02
     Exponent=  2.6428010844D+01 Coefficients=  9.4117481120D-01
 S 1 1.00
     Exponent=  9.2822824649D+00 Coefficients=  1.0000000000D+00
 S 1 1.00
     Exponent=  4.0947728533D+00 Coefficients=  1.0000000000D+00
 S 1 1.00
     Exponent=  1.3255349078D+00 Coefficients=  1.0000000000D+00
 S 1 1.00
     Exponent=  5.1877230787D-01 Coefficients=  1.0000000000D+00
 S 1 1.00
     Exponent=  1.9772676454D-01 Coefficients=  1.0000000000D+00
 S 1 1.00
     Exponent=  6.9638535104D-02 Coefficients=  1.0000000000D+00
 P 5 1.00
     Exponent=  1.9115255810D+02 Coefficients=  2.5115697705D-03
     Exponent=  4.5233356739D+01 Coefficients=  2.0039240864D-02
     Exponent=  1.4353465922D+01 Coefficients=  9.3609064762D-02
     Exponent=  5.2422371832D+00 Coefficients=  3.0618127124D-01
     Exponent=  2.0792418599D+00 Coefficients=  6.7810501439D-01
 P 1 1.00
     Exponent=  8.4282371424D-01 Coefficients=  1.0000000000D+00
 P 1 1.00
     Exponent=  3.3617694891D-01 Coefficients=  1.0000000000D+00
 P 1 1.00
     Exponent=  1.2863997974D-01 Coefficients=  1.0000000000D+00
 P 1 1.00
     Exponent=  4.3598162776D-02 Coefficients=  1.0000000000D+00
 D 1 1.00
     Exponent=  3.7750000000D+00 Coefficients=  1.0000000000D+00
 D 1 1.00
     Exponent=  1.3000000000D+00 Coefficients=  1.0000000000D+00
 D 1 1.00
     Exponent=  4.4400000000D-01 Coefficients=  1.0000000000D+00
 D 1 1.00
     Exponent=  1.2546378695D-01 Coefficients=  1.0000000000D+00
 F 1 1.00
     Exponent=  2.6660000000D+00 Coefficients=  1.0000000000D+00
 F 1 1.00
     Exponent=  8.5900000000D-01 Coefficients=  1.0000000000D+00
 G 1 1.00
     Exponent=  1.8460000000D+00 Coefficients=  1.0000000000D+00
 ****
 Ernie: Thresh=  0.10000D-02 Tol=  0.10000D-05 Strict=F.
 There are   189 symmetry adapted cartesian basis functions of A'  symmetry.
 There are    92 symmetry adapted cartesian basis functions of A"  symmetry.
 There are   149 symmetry adapted basis functions of A'  symmetry.
 There are    79 symmetry adapted basis functions of A"  symmetry.
   228 basis functions,   344 primitive gaussians,   281 cartesian basis functions
    12 alpha electrons       12 beta electrons
       nuclear repulsion energy        69.8201379986 Hartrees.
 IExCor= 4336 DFT=T Ex+Corr=M062X ExCW=0 ScaHFX=  0.540000
 ScaDFX=  1.000000  1.000000  1.000000  1.000000 ScalE2=  1.000000  1.000000
 IRadAn=      5 IRanWt=     -1 IRanGd=            0 ICorTp=0 IEmpDi=  4
 NAtoms=    4 NActive=    4 NUniq=    4 SFac= 1.00D+00 NAtFMM=   60 NAOKFM=F Big=F
 Integral buffers will be    131072 words long.
 Raffenetti 2 integral format.
 Two-electron integral symmetry is turned on.
 Leave Link  301 at Sat Apr 17 20:49:55 2021, MaxMem=   104857600 cpu:               8.0 elap:               0.2
 (Enter /s/ls4/users/knvvv/bin/g16sse/l302.exe)
 NPDir=0 NMtPBC=     1 NCelOv=     1 NCel=       1 NClECP=     1 NCelD=      1
         NCelK=      1 NCelE2=     1 NClLst=     1 CellRange=     0.0.
 One-electron integrals computed using PRISM.
 One-electron integral symmetry used in STVInt
 PrsmSu:  requested number of processors reduced to:   4 ShMem   1 Linda.
 PrsmSu:  requested number of processors reduced to:  21 ShMem   1 Linda.
 NBasis=   228 RedAO= T EigKep=  5.41D-05  NBF=   149    79
 NBsUse=   228 1.00D-06 EigRej= -1.00D+00 NBFU=   149    79
 Precomputing XC quadrature grid using
 IXCGrd= 4 IRadAn=           5 IRanWt=          -1 IRanGd=           0 AccXCQ= 0.00D+00.
 Generated NRdTot=       0 NPtTot=           0 NUsed=           0 NTot=          32
 NSgBfM=   281   281   281   281   281 MxSgAt=     4 MxSgA2=     4.
 Leave Link  302 at Sat Apr 17 20:50:02 2021, MaxMem=   104857600 cpu:             298.1 elap:               6.4
 (Enter /s/ls4/users/knvvv/bin/g16sse/l303.exe)
 DipDrv:  MaxL=1.
 Leave Link  303 at Sat Apr 17 20:50:02 2021, MaxMem=   104857600 cpu:              14.3 elap:               0.3
 (Enter /s/ls4/users/knvvv/bin/g16sse/l401.exe)
 SCF N**3 symmetry information disabled.
 ExpMin= 4.36D-02 ExpMax= 1.17D+05 ExpMxC= 1.13D+03 IAcc=3 IRadAn=         5 AccDes= 0.00D+00
 Harris functional with IExCor= 1009 and IRadAn=       5 diagonalized for initial guess.
 HarFok:  IExCor= 1009 AccDes= 0.00D+00 IRadAn=         5 IDoV= 1 UseB2=F ITyADJ=14
 ICtDFT=  3500011 ScaDFX=  1.000000  1.000000  1.000000  1.000000
 FoFCou: FMM=F IPFlag=           0 FMFlag=      100000 FMFlg1=           0
         NFxFlg=           0 DoJE=T BraDBF=F KetDBF=T FulRan=T
         wScrn=  0.000000 ICntrl=       500 IOpCl=  0 I1Cent=   200000004 NGrid=           0
         NMat0=    1 NMatS0=      1 NMatT0=    0 NMatD0=    1 NMtDS0=    0 NMtDT0=    0
 Petite list used in FoFCou.
 CoulSu:  requested number of processors reduced to:  21 ShMem   1 Linda.
 CoulSu:  requested number of processors reduced to:  21 ShMem   1 Linda.
 CoulSu:  requested number of processors reduced to:  21 ShMem   1 Linda.
 CoulSu:  requested number of processors reduced to:  21 ShMem   1 Linda.
 Harris En= -205.631028197555    
 JPrj=0 DoOrth=F DoCkMO=F.
 Initial guess orbital symmetries:
       Occupied  (A') (A') (A') (A') (A') (A') (A') (A') (A") (A')
                 (A") (A')
       Virtual   (A") (A') (A') (A') (A") (A') (A') (A") (A') (A')
                 (A') (A") (A') (A') (A') (A') (A") (A") (A') (A')
                 (A") (A') (A') (A") (A') (A") (A') (A') (A") (A')
                 (A') (A") (A') (A') (A') (A") (A') (A') (A") (A')
                 (A') (A') (A") (A') (A") (A') (A") (A') (A') (A')
                 (A') (A") (A') (A") (A') (A') (A") (A") (A') (A")
                 (A') (A') (A') (A') (A') (A") (A') (A") (A') (A')
                 (A') (A") (A') (A') (A") (A') (A") (A') (A") (A")
                 (A') (A') (A') (A") (A') (A") (A') (A') (A") (A')
                 (A") (A') (A') (A') (A") (A') (A') (A') (A") (A')
                 (A") (A') (A") (A') (A") (A") (A') (A') (A") (A')
                 (A') (A') (A") (A") (A') (A') (A') (A') (A") (A')
                 (A') (A") (A') (A") (A') (A') (A") (A') (A') (A")
                 (A') (A') (A") (A") (A') (A") (A') (A') (A") (A')
                 (A') (A') (A") (A") (A') (A') (A") (A') (A') (A")
                 (A') (A") (A") (A') (A') (A') (A") (A') (A") (A')
                 (A") (A") (A') (A') (A') (A") (A') (A") (A') (A")
                 (A') (A') (A") (A') (A") (A') (A') (A') (A") (A")
                 (A") (A') (A') (A') (A") (A') (A") (A') (A') (A")
                 (A') (A") (A") (A') (A') (A") (A') (A') (A') (A")
                 (A') (A') (A") (A') (A") (A') (A') (A') (A') (A')
                 (A') (A') (A') (A') (A') (A')
 The electronic state of the initial guess is 1-A'.
 Leave Link  401 at Sat Apr 17 20:50:06 2021, MaxMem=   104857600 cpu:             154.9 elap:               3.6
 (Enter /s/ls4/users/knvvv/bin/g16sse/l502.exe)
 Integral symmetry usage will be decided dynamically.
 Closed shell SCF:
 Using DIIS extrapolation, IDIIS=  1040.
 NGot=   104857600 LenX=   104683347 LenY=   104603945
 Requested convergence on RMS density matrix=1.00D-08 within 128 cycles.
 Requested convergence on MAX density matrix=1.00D-06.
 Requested convergence on             energy=1.00D-06.
 No special actions if energy rises.
 Fock matrices will be formed incrementally for  20 cycles.

 Cycle   1  Pass 1  IDiag  1:
 FoFJK:  IHMeth= 1 ICntrl=       0 DoSepK=F KAlg= 0 I1Cent=           0 FoldK=F
 IRaf= 990000000 NMat=       1 IRICut=       1 DoRegI=T DoRafI=F ISym2E= 1 IDoP0=0 IntGTp=1.
 FoFCou: FMM=F IPFlag=           0 FMFlag=      100000 FMFlg1=           0
         NFxFlg=           0 DoJE=F BraDBF=F KetDBF=F FulRan=T
         wScrn=  0.000000 ICntrl=         0 IOpCl=  0 I1Cent=           0 NGrid=           0
         NMat0=    1 NMatS0=      1 NMatT0=    0 NMatD0=    1 NMtDS0=    0 NMtDT0=    0
 Petite list used in FoFCou.
 CoulSu:  requested number of processors reduced to:  21 ShMem   1 Linda.
 E= -205.641755352779    
 DIIS: error= 3.19D-02 at cycle   1 NSaved=   1.
 NSaved= 1 IEnMin= 1 EnMin= -205.641755352779     IErMin= 1 ErrMin= 3.19D-02
 ErrMax= 3.19D-02  0.00D+00 EMaxC= 1.00D-01 BMatC= 2.16D-01 BMatP= 2.16D-01
 IDIUse=3 WtCom= 6.81D-01 WtEn= 3.19D-01
 Coeff-Com:  0.100D+01
 Coeff-En:   0.100D+01
 Coeff:      0.100D+01
 Gap=     0.279 Goal=   None    Shift=    0.000
 GapD=    0.279 DampG=1.000 DampE=0.500 DampFc=0.5000 IDamp=-1.
 Damping current iteration by 5.00D-01
 RMSDP=1.43D-03 MaxDP=6.11D-02              OVMax= 2.06D-01

 Cycle   2  Pass 1  IDiag  1:
 RMSU=  7.17D-04    CP:  9.98D-01
 CoulSu:  requested number of processors reduced to:  21 ShMem   1 Linda.
 E= -205.667352413668     Delta-E=       -0.025597060889 Rises=F Damp=T
 DIIS: error= 1.71D-02 at cycle   2 NSaved=   2.
 NSaved= 2 IEnMin= 2 EnMin= -205.667352413668     IErMin= 2 ErrMin= 1.71D-02
 ErrMax= 1.71D-02  0.00D+00 EMaxC= 1.00D-01 BMatC= 3.86D-02 BMatP= 2.16D-01
 IDIUse=3 WtCom= 8.29D-01 WtEn= 1.71D-01
 Coeff-Com:  0.634D-01 0.937D+00
 Coeff-En:   0.318D+00 0.682D+00
 Coeff:      0.107D+00 0.893D+00
 Gap=     0.337 Goal=   None    Shift=    0.000
 RMSDP=5.43D-04 MaxDP=1.88D-02 DE=-2.56D-02 OVMax= 1.54D-01

 Cycle   3  Pass 1  IDiag  1:
 RMSU=  5.37D-04    CP:  1.01D+00  9.18D-01
 CoulSu:  requested number of processors reduced to:  21 ShMem   1 Linda.
 E= -205.720019775423     Delta-E=       -0.052667361755 Rises=F Damp=F
 DIIS: error= 6.58D-03 at cycle   3 NSaved=   3.
 NSaved= 3 IEnMin= 3 EnMin= -205.720019775423     IErMin= 3 ErrMin= 6.58D-03
 ErrMax= 6.58D-03  0.00D+00 EMaxC= 1.00D-01 BMatC= 7.80D-03 BMatP= 3.86D-02
 IDIUse=3 WtCom= 9.34D-01 WtEn= 6.58D-02
 Coeff-Com: -0.123D+00 0.296D+00 0.827D+00
 Coeff-En:   0.000D+00 0.000D+00 0.100D+01
 Coeff:     -0.115D+00 0.276D+00 0.839D+00
 Gap=     0.326 Goal=   None    Shift=    0.000
 RMSDP=2.46D-04 MaxDP=1.50D-02 DE=-5.27D-02 OVMax= 3.16D-02

 Cycle   4  Pass 1  IDiag  1:
 RMSU=  1.90D-04    CP:  9.99D-01  1.09D+00  8.39D-01
 CoulSu:  requested number of processors reduced to:  21 ShMem   1 Linda.
 E= -205.724387889247     Delta-E=       -0.004368113824 Rises=F Damp=F
 DIIS: error= 2.46D-03 at cycle   4 NSaved=   4.
 NSaved= 4 IEnMin= 4 EnMin= -205.724387889247     IErMin= 4 ErrMin= 2.46D-03
 ErrMax= 2.46D-03  0.00D+00 EMaxC= 1.00D-01 BMatC= 1.56D-03 BMatP= 7.80D-03
 IDIUse=3 WtCom= 9.75D-01 WtEn= 2.46D-02
 Coeff-Com: -0.642D-01 0.137D+00 0.488D+00 0.439D+00
 Coeff-En:   0.000D+00 0.000D+00 0.111D+00 0.889D+00
 Coeff:     -0.626D-01 0.134D+00 0.478D+00 0.450D+00
 Gap=     0.326 Goal=   None    Shift=    0.000
 RMSDP=7.83D-05 MaxDP=2.33D-03 DE=-4.37D-03 OVMax= 1.08D-02

 Cycle   5  Pass 1  IDiag  1:
 RMSU=  6.19D-05    CP:  9.99D-01  1.07D+00  8.50D-01  7.61D-01
 CoulSu:  requested number of processors reduced to:  21 ShMem   1 Linda.
 E= -205.725371212865     Delta-E=       -0.000983323618 Rises=F Damp=F
 DIIS: error= 7.65D-04 at cycle   5 NSaved=   5.
 NSaved= 5 IEnMin= 5 EnMin= -205.725371212865     IErMin= 5 ErrMin= 7.65D-04
 ErrMax= 7.65D-04  0.00D+00 EMaxC= 1.00D-01 BMatC= 7.86D-05 BMatP= 1.56D-03
 IDIUse=3 WtCom= 9.92D-01 WtEn= 7.65D-03
 Coeff-Com: -0.154D-01 0.300D-01 0.139D+00 0.225D+00 0.621D+00
 Coeff-En:   0.000D+00 0.000D+00 0.000D+00 0.000D+00 0.100D+01
 Coeff:     -0.152D-01 0.297D-01 0.138D+00 0.224D+00 0.624D+00
 Gap=     0.326 Goal=   None    Shift=    0.000
 RMSDP=2.09D-05 MaxDP=8.40D-04 DE=-9.83D-04 OVMax= 4.36D-03

 Cycle   6  Pass 1  IDiag  1:
 RMSU=  1.61D-05    CP:  9.99D-01  1.07D+00  8.55D-01  7.65D-01  7.92D-01
 CoulSu:  requested number of processors reduced to:  21 ShMem   1 Linda.
 E= -205.725433507571     Delta-E=       -0.000062294706 Rises=F Damp=F
 DIIS: error= 1.22D-04 at cycle   6 NSaved=   6.
 NSaved= 6 IEnMin= 6 EnMin= -205.725433507571     IErMin= 6 ErrMin= 1.22D-04
 ErrMax= 1.22D-04  0.00D+00 EMaxC= 1.00D-01 BMatC= 3.38D-06 BMatP= 7.86D-05
 IDIUse=3 WtCom= 9.99D-01 WtEn= 1.22D-03
 Coeff-Com:  0.340D-02-0.788D-02-0.222D-01-0.247D-01 0.810D-01 0.970D+00
 Coeff-En:   0.000D+00 0.000D+00 0.000D+00 0.000D+00 0.000D+00 0.100D+01
 Coeff:      0.340D-02-0.787D-02-0.222D-01-0.247D-01 0.809D-01 0.970D+00
 Gap=     0.327 Goal=   None    Shift=    0.000
 RMSDP=1.09D-05 MaxDP=3.70D-04 DE=-6.23D-05 OVMax= 1.44D-03

 Cycle   7  Pass 1  IDiag  1:
 RMSU=  5.65D-06    CP:  9.99D-01  1.07D+00  8.54D-01  7.94D-01  8.88D-01
                    CP:  1.25D+00
 CoulSu:  requested number of processors reduced to:  21 ShMem   1 Linda.
 E= -205.725439513005     Delta-E=       -0.000006005434 Rises=F Damp=F
 DIIS: error= 6.85D-05 at cycle   7 NSaved=   7.
 NSaved= 7 IEnMin= 7 EnMin= -205.725439513005     IErMin= 7 ErrMin= 6.85D-05
 ErrMax= 6.85D-05  0.00D+00 EMaxC= 1.00D-01 BMatC= 4.94D-07 BMatP= 3.38D-06
 IDIUse=1 WtCom= 1.00D+00 WtEn= 0.00D+00
 Coeff-Com:  0.259D-02-0.528D-02-0.212D-01-0.437D-01-0.808D-01 0.194D+00
 Coeff-Com:  0.954D+00
 Coeff:      0.259D-02-0.528D-02-0.212D-01-0.437D-01-0.808D-01 0.194D+00
 Coeff:      0.954D+00
 Gap=     0.327 Goal=   None    Shift=    0.000
 RMSDP=4.25D-06 MaxDP=1.21D-04 DE=-6.01D-06 OVMax= 7.76D-04

 Cycle   8  Pass 1  IDiag  1:
 RMSU=  1.89D-06    CP:  9.99D-01  1.07D+00  8.53D-01  7.97D-01  9.18D-01
                    CP:  1.44D+00  1.19D+00
 CoulSu:  requested number of processors reduced to:  21 ShMem   1 Linda.
 E= -205.725440592449     Delta-E=       -0.000001079444 Rises=F Damp=F
 DIIS: error= 1.05D-05 at cycle   8 NSaved=   8.
 NSaved= 8 IEnMin= 8 EnMin= -205.725440592449     IErMin= 8 ErrMin= 1.05D-05
 ErrMax= 1.05D-05  0.00D+00 EMaxC= 1.00D-01 BMatC= 3.14D-08 BMatP= 4.94D-07
 IDIUse=1 WtCom= 1.00D+00 WtEn= 0.00D+00
 Coeff-Com: -0.268D-03 0.549D-03 0.237D-02 0.824D-03-0.314D-02-0.789D-01
 Coeff-Com: -0.521D-01 0.113D+01
 Coeff:     -0.268D-03 0.549D-03 0.237D-02 0.824D-03-0.314D-02-0.789D-01
 Coeff:     -0.521D-01 0.113D+01
 Gap=     0.327 Goal=   None    Shift=    0.000
 RMSDP=1.21D-06 MaxDP=2.66D-05 DE=-1.08D-06 OVMax= 2.19D-04

 Cycle   9  Pass 1  IDiag  1:
 RMSU=  3.82D-07    CP:  9.99D-01  1.07D+00  8.53D-01  7.97D-01  9.24D-01
                    CP:  1.48D+00  1.29D+00  1.35D+00
 CoulSu:  requested number of processors reduced to:  21 ShMem   1 Linda.
 E= -205.725440665421     Delta-E=       -0.000000072972 Rises=F Damp=F
 DIIS: error= 3.67D-06 at cycle   9 NSaved=   9.
 NSaved= 9 IEnMin= 9 EnMin= -205.725440665421     IErMin= 9 ErrMin= 3.67D-06
 ErrMax= 3.67D-06  0.00D+00 EMaxC= 1.00D-01 BMatC= 1.07D-09 BMatP= 3.14D-08
 IDIUse=1 WtCom= 1.00D+00 WtEn= 0.00D+00
 Coeff-Com: -0.136D-03 0.279D-03 0.122D-02 0.204D-02 0.456D-02-0.162D-01
 Coeff-Com: -0.634D-01 0.127D+00 0.945D+00
 Coeff:     -0.136D-03 0.279D-03 0.122D-02 0.204D-02 0.456D-02-0.162D-01
 Coeff:     -0.634D-01 0.127D+00 0.945D+00
 Gap=     0.327 Goal=   None    Shift=    0.000
 RMSDP=2.46D-07 MaxDP=1.02D-05 DE=-7.30D-08 OVMax= 3.21D-05

 Cycle  10  Pass 1  IDiag  1:
 RMSU=  8.73D-08    CP:  9.99D-01  1.07D+00  8.53D-01  7.96D-01  9.24D-01
                    CP:  1.49D+00  1.30D+00  1.43D+00  1.16D+00
 CoulSu:  requested number of processors reduced to:  21 ShMem   1 Linda.
 E= -205.725440667272     Delta-E=       -0.000000001851 Rises=F Damp=F
 DIIS: error= 3.38D-07 at cycle  10 NSaved=  10.
 NSaved=10 IEnMin=10 EnMin= -205.725440667272     IErMin=10 ErrMin= 3.38D-07
 ErrMax= 3.38D-07  0.00D+00 EMaxC= 1.00D-01 BMatC= 3.25D-11 BMatP= 1.07D-09
 IDIUse=1 WtCom= 1.00D+00 WtEn= 0.00D+00
 Coeff-Com:  0.216D-04-0.416D-04-0.169D-03-0.140D-03 0.189D-03 0.397D-02
 Coeff-Com:  0.434D-02-0.519D-01-0.599D-01 0.110D+01
 Coeff:      0.216D-04-0.416D-04-0.169D-03-0.140D-03 0.189D-03 0.397D-02
 Coeff:      0.434D-02-0.519D-01-0.599D-01 0.110D+01
 Gap=     0.327 Goal=   None    Shift=    0.000
 RMSDP=5.26D-08 MaxDP=1.78D-06 DE=-1.85D-09 OVMax= 3.80D-06

 Cycle  11  Pass 1  IDiag  1:
 RMSU=  2.07D-08    CP:  9.99D-01  1.07D+00  8.53D-01  7.96D-01  9.24D-01
                    CP:  1.49D+00  1.30D+00  1.44D+00  1.24D+00  1.17D+00
 CoulSu:  requested number of processors reduced to:  21 ShMem   1 Linda.
 E= -205.725440667333     Delta-E=       -0.000000000061 Rises=F Damp=F
 DIIS: error= 8.28D-08 at cycle  11 NSaved=  11.
 NSaved=11 IEnMin=11 EnMin= -205.725440667333     IErMin=11 ErrMin= 8.28D-08
 ErrMax= 8.28D-08  0.00D+00 EMaxC= 1.00D-01 BMatC= 8.66D-13 BMatP= 3.25D-11
 IDIUse=1 WtCom= 1.00D+00 WtEn= 0.00D+00
 Coeff-Com:  0.309D-05-0.660D-05-0.317D-04-0.552D-04-0.148D-03 0.335D-03
 Coeff-Com:  0.212D-02-0.125D-02-0.359D-01-0.263D-01 0.106D+01
 Coeff:      0.309D-05-0.660D-05-0.317D-04-0.552D-04-0.148D-03 0.335D-03
 Coeff:      0.212D-02-0.125D-02-0.359D-01-0.263D-01 0.106D+01
 Gap=     0.327 Goal=   None    Shift=    0.000
 RMSDP=7.94D-09 MaxDP=2.49D-07 DE=-6.09D-11 OVMax= 7.13D-07

 SCF Done:  E(RM062X) =  -205.725440667     A.U. after   11 cycles
            NFock= 11  Conv=0.79D-08     -V/T= 2.0036
 KE= 2.049904259538D+02 PE=-6.245397540092D+02 EE= 1.440037493896D+02
 Leave Link  502 at Sat Apr 17 20:50:42 2021, MaxMem=   104857600 cpu:            1392.2 elap:              36.7
 (Enter /s/ls4/users/knvvv/bin/g16sse/l601.exe)
 Copying SCF densities to generalized density rwf, IOpCl= 0 IROHF=0.

 **********************************************************************

            Population analysis using the SCF density.

 **********************************************************************

 Orbital symmetries:
       Occupied  (A') (A') (A') (A') (A') (A') (A') (A') (A") (A')
                 (A") (A')
       Virtual   (A") (A') (A') (A') (A") (A') (A") (A') (A') (A')
                 (A') (A") (A') (A') (A') (A') (A") (A") (A') (A")
                 (A') (A') (A') (A') (A") (A") (A') (A') (A") (A')
                 (A") (A') (A') (A') (A") (A') (A') (A') (A") (A')
                 (A') (A') (A") (A') (A") (A') (A") (A') (A') (A')
                 (A') (A") (A') (A") (A') (A') (A") (A') (A") (A")
                 (A') (A') (A') (A') (A') (A") (A') (A") (A') (A')
                 (A') (A") (A') (A') (A") (A') (A") (A') (A") (A")
                 (A') (A') (A') (A") (A') (A") (A') (A') (A") (A')
                 (A") (A') (A') (A') (A") (A') (A') (A') (A") (A')
                 (A") (A') (A') (A") (A") (A") (A') (A") (A') (A')
                 (A') (A") (A') (A") (A') (A') (A') (A') (A") (A')
                 (A') (A") (A') (A") (A') (A') (A") (A') (A') (A")
                 (A') (A') (A") (A") (A') (A") (A') (A') (A") (A')
                 (A') (A') (A") (A") (A') (A") (A') (A') (A') (A")
                 (A') (A") (A") (A') (A') (A') (A") (A') (A") (A")
                 (A') (A') (A") (A') (A') (A") (A') (A") (A') (A")
                 (A') (A') (A") (A') (A") (A') (A') (A') (A") (A")
                 (A") (A') (A') (A') (A") (A') (A') (A") (A') (A")
                 (A') (A") (A") (A') (A') (A') (A") (A') (A') (A")
                 (A') (A') (A") (A') (A") (A') (A') (A') (A') (A')
                 (A') (A') (A') (A') (A') (A')
 The electronic state is 1-A'.
 Alpha  occ. eigenvalues --  -19.72318 -19.70241 -14.95838  -1.36984  -1.18929
 Alpha  occ. eigenvalues --   -0.79587  -0.66693  -0.60824  -0.59946  -0.51317
 Alpha  occ. eigenvalues --   -0.43760  -0.36656
 Alpha virt. eigenvalues --   -0.03986   0.00604   0.04148   0.04457   0.05004
 Alpha virt. eigenvalues --    0.08223   0.08917   0.09160   0.13392   0.14984
 Alpha virt. eigenvalues --    0.16862   0.17931   0.19528   0.21988   0.24669
 Alpha virt. eigenvalues --    0.28282   0.29149   0.32456   0.33392   0.35129
 Alpha virt. eigenvalues --    0.35912   0.37316   0.39361   0.40447   0.41275
 Alpha virt. eigenvalues --    0.41914   0.42541   0.44610   0.45113   0.47549
 Alpha virt. eigenvalues --    0.51489   0.51967   0.54627   0.58568   0.60662
 Alpha virt. eigenvalues --    0.61718   0.63232   0.66032   0.67422   0.69098
 Alpha virt. eigenvalues --    0.75324   0.80881   0.83821   0.91832   0.95916
 Alpha virt. eigenvalues --    1.00627   1.03760   1.07434   1.10866   1.13303
 Alpha virt. eigenvalues --    1.17042   1.20112   1.24374   1.33682   1.36386
 Alpha virt. eigenvalues --    1.36986   1.42135   1.46283   1.47025   1.49414
 Alpha virt. eigenvalues --    1.52920   1.56589   1.59939   1.62181   1.66842
 Alpha virt. eigenvalues --    1.74398   1.80181   1.80323   1.91678   2.00272
 Alpha virt. eigenvalues --    2.07872   2.08404   2.23351   2.29504   2.43336
 Alpha virt. eigenvalues --    2.50777   2.52710   2.55955   2.65173   2.70341
 Alpha virt. eigenvalues --    2.73734   2.77435   2.81092   2.84003   2.84123
 Alpha virt. eigenvalues --    2.92795   2.97817   3.07816   3.11356   3.17790
 Alpha virt. eigenvalues --    3.23044   3.25519   3.26850   3.30541   3.48561
 Alpha virt. eigenvalues --    3.55802   3.57967   3.70242   3.76301   3.78255
 Alpha virt. eigenvalues --    3.86713   3.87852   3.97363   3.99396   4.01815
 Alpha virt. eigenvalues --    4.04866   4.06765   4.12591   4.12755   4.24415
 Alpha virt. eigenvalues --    4.31415   4.34120   4.34451   4.46283   4.52878
 Alpha virt. eigenvalues --    4.60755   4.76254   4.83274   4.87419   4.94059
 Alpha virt. eigenvalues --    5.00063   5.25786   5.26518   5.37675   5.52629
 Alpha virt. eigenvalues --    5.66125   5.73904   5.85654   6.10448   6.32181
 Alpha virt. eigenvalues --    6.48661   6.78197   6.79154   7.00485   7.03286
 Alpha virt. eigenvalues --    7.04059   7.09397   7.13918   7.22018   7.28852
 Alpha virt. eigenvalues --    7.35615   7.46738   7.49481   7.60400   7.67445
 Alpha virt. eigenvalues --    7.71822   7.77578   7.79424   8.13258   8.26086
 Alpha virt. eigenvalues --    8.42024   8.42053   8.47065   8.50160   8.58018
 Alpha virt. eigenvalues --    8.65636   8.70150   8.72391   8.74276   8.76356
 Alpha virt. eigenvalues --    8.76589   8.87692   8.90036   9.03401   9.08126
 Alpha virt. eigenvalues --    9.23038   9.28715   9.51952   9.63690   9.83297
 Alpha virt. eigenvalues --    9.95723  10.07948  10.08999  10.10215  10.21075
 Alpha virt. eigenvalues --   10.26014  10.54143  10.61710  10.68728  10.76784
 Alpha virt. eigenvalues --   10.80038  10.81173  10.83346  10.90980  11.02971
 Alpha virt. eigenvalues --   11.04205  11.12522  11.16175  11.22811  11.45471
 Alpha virt. eigenvalues --   11.55184  11.56163  11.66983  11.69307  11.76501
 Alpha virt. eigenvalues --   11.99021  11.99251  12.10548  12.14770  12.21744
 Alpha virt. eigenvalues --   12.42717  12.99071  13.40537  13.51922  13.58582
 Alpha virt. eigenvalues --   13.76334  13.95449  14.08437  15.44935  16.38126
 Alpha virt. eigenvalues --   37.19253  48.01005  48.17880 194.63686 251.05447
 Alpha virt. eigenvalues --  251.25934
          Condensed to atoms (all electrons):
               1          2          3          4
     1  O    8.092171   0.135855  -0.083468   0.006699
     2  N    0.135855   6.750203   0.014426  -0.069199
     3  O   -0.083468   0.014426   8.250386   0.263871
     4  H    0.006699  -0.069199   0.263871   0.370872
 Mulliken charges:
               1
     1  O   -0.151257
     2  N    0.168715
     3  O   -0.445215
     4  H    0.427757
 Sum of Mulliken charges =  -0.00000
 Mulliken charges with hydrogens summed into heavy atoms:
               1
     1  O   -0.151257
     2  N    0.168715
     3  O   -0.017458
 Electronic spatial extent (au):  <R**2>=            122.2797
 Charge=             -0.0000 electrons
 Dipole moment (field-independent basis, Debye):
    X=              1.9759    Y=              0.6710    Z=              0.0000  Tot=              2.0868
 Quadrupole moment (field-independent basis, Debye-Ang):
   XX=            -13.5515   YY=            -18.4075   ZZ=            -16.2345
   XY=              0.5958   XZ=              0.0000   YZ=              0.0000
 Traceless Quadrupole moment (field-independent basis, Debye-Ang):
   XX=              2.5130   YY=             -2.3430   ZZ=             -0.1700
   XY=              0.5958   XZ=              0.0000   YZ=              0.0000
 Octapole moment (field-independent basis, Debye-Ang**2):
  XXX=             10.7064  YYY=             -1.0552  ZZZ=              0.0000  XYY=             -0.8998
  XXY=             -0.3962  XXZ=              0.0000  XZZ=             -0.7350  YZZ=              0.1543
  YYZ=              0.0000  XYZ=              0.0000
 Hexadecapole moment (field-independent basis, Debye-Ang**3):
 XXXX=            -69.7440 YYYY=            -38.0609 ZZZZ=            -13.3197 XXXY=             11.8019
 XXXZ=              0.0000 YYYX=             11.5871 YYYZ=              0.0000 ZZZX=              0.0000
 ZZZY=              0.0000 XXYY=            -21.5414 XXZZ=            -16.9505 YYZZ=             -8.3940
 XXYZ=              0.0000 YYXZ=              0.0000 ZZXY=              4.1092
 N-N= 6.982013799858D+01 E-N=-6.245397542912D+02  KE= 2.049904259538D+02
 PrsmSu:  requested number of processors reduced to:  21 ShMem   1 Linda.
 No NMR shielding tensors so no spin-rotation constants.
 Leave Link  601 at Sat Apr 17 20:50:45 2021, MaxMem=   104857600 cpu:             126.9 elap:               2.8
 (Enter /s/ls4/users/knvvv/bin/g16sse/l801.exe)
 DoSCS=F DFT=T ScalE2(SS,OS)=  1.000000  1.000000
 Range of M.O.s used for correlation:     1   228
 NBasis=   228 NAE=    12 NBE=    12 NFC=     0 NFV=     0
 NROrb=    228 NOA=    12 NOB=    12 NVA=   216 NVB=   216

 **** Warning!!: The largest alpha MO coefficient is  0.30478951D+02

 Leave Link  801 at Sat Apr 17 20:50:46 2021, MaxMem=   104857600 cpu:              10.8 elap:               0.2
 (Enter /s/ls4/users/knvvv/bin/g16sse/l914.exe)
 RHF ground state
 Doing stability rather than CIS.
 Two-electron integrals replicated using symmetry.
 MDV=   104857600 DFT=T DoStab=T Mixed=T DoRPA=F DoScal=F NonHer=F
 Making orbital integer symmetry assigments:
 Orbital symmetries:
       Occupied  (A') (A') (A') (A') (A') (A') (A') (A') (A") (A')
                 (A") (A')
       Virtual   (A") (A') (A') (A') (A") (A') (A") (A') (A') (A')
                 (A') (A") (A') (A') (A') (A') (A") (A") (A') (A")
                 (A') (A') (A') (A') (A") (A") (A') (A') (A") (A')
                 (A") (A') (A') (A') (A") (A') (A') (A') (A") (A')
                 (A') (A') (A") (A') (A") (A') (A") (A') (A') (A')
                 (A') (A") (A') (A") (A') (A') (A") (A') (A") (A")
                 (A') (A') (A') (A') (A') (A") (A') (A") (A') (A')
                 (A') (A") (A') (A') (A") (A') (A") (A') (A") (A")
                 (A') (A') (A') (A") (A') (A") (A') (A') (A") (A')
                 (A") (A') (A') (A') (A") (A') (A') (A') (A") (A')
                 (A") (A') (A') (A") (A") (A") (A') (A") (A') (A')
                 (A') (A") (A') (A") (A') (A') (A') (A') (A") (A')
                 (A') (A") (A') (A") (A') (A') (A") (A') (A') (A")
                 (A') (A') (A") (A") (A') (A") (A') (A') (A") (A')
                 (A') (A') (A") (A") (A') (A") (A') (A') (A') (A")
                 (A') (A") (A") (A') (A') (A') (A") (A') (A") (A")
                 (A') (A') (A") (A') (A') (A") (A') (A") (A') (A")
                 (A') (A') (A") (A') (A") (A') (A') (A') (A") (A")
                 (A") (A') (A') (A') (A") (A') (A') (A") (A') (A")
                 (A') (A") (A") (A') (A') (A') (A") (A') (A') (A")
                 (A') (A') (A") (A') (A") (A') (A') (A') (A') (A')
                 (A') (A') (A') (A') (A') (A')
    24 initial guesses have been made.
 Convergence on wavefunction:    0.001000000000000
 Davidson Disk Diagonalization:  ConvIn= 1.00D-03 SkipCon=T Conv= 1.00D-03.
 Max sub-space:  2000 roots to seek:    24 dimension of matrix:         5184
 Iteration     1 Dimension    24 NMult     0 NNew     24
 Estimated number of processors is:   19
 CISAX will form     1 AO SS matrices at one time.
 NMat=     1 NSing=     1 JSym2X= 2.
 FoFJK:  IHMeth= 1 ICntrl=       0 DoSepK=F KAlg= 0 I1Cent=           0 FoldK=F
 IRaf= 990000000 NMat=       1 IRICut=       1 DoRegI=T DoRafI=F ISym2E= 2 IDoP0=0 IntGTp=1.
 FoFCou: FMM=F IPFlag=           0 FMFlag=      100000 FMFlg1=           0
         NFxFlg=           0 DoJE=F BraDBF=F KetDBF=F FulRan=T
         wScrn=  0.000000 ICntrl=         0 IOpCl=  0 I1Cent=           0 NGrid=           0
         NMat0=    1 NMatS0=      1 NMatT0=    0 NMatD0=    1 NMtDS0=    0 NMtDT0=    0
 Integrals replicated using symmetry in FoFCou.
 CoulSu:  requested number of processors reduced to:  21 ShMem   1 Linda.
 NMat=     1 NSing=     1 JSym2X= 2.
 CoulSu:  requested number of processors reduced to:  21 ShMem   1 Linda.
 NMat=     1 NSing=     1 JSym2X= 2.
 CoulSu:  requested number of processors reduced to:  21 ShMem   1 Linda.
 NMat=     1 NSing=     1 JSym2X= 2.
 CoulSu:  requested number of processors reduced to:  21 ShMem   1 Linda.
 NMat=     1 NSing=     1 JSym2X= 2.
 CoulSu:  requested number of processors reduced to:  21 ShMem   1 Linda.
 NMat=     1 NSing=     1 JSym2X= 2.
 CoulSu:  requested number of processors reduced to:  21 ShMem   1 Linda.
 NMat=     1 NSing=     1 JSym2X= 2.
 CoulSu:  requested number of processors reduced to:  21 ShMem   1 Linda.
 NMat=     1 NSing=     1 JSym2X= 2.
 CoulSu:  requested number of processors reduced to:  21 ShMem   1 Linda.
 NMat=     1 NSing=     1 JSym2X= 2.
 CoulSu:  requested number of processors reduced to:  21 ShMem   1 Linda.
 NMat=     1 NSing=     1 JSym2X= 2.
 CoulSu:  requested number of processors reduced to:  21 ShMem   1 Linda.
 NMat=     1 NSing=     1 JSym2X= 2.
 CoulSu:  requested number of processors reduced to:  21 ShMem   1 Linda.
 NMat=     1 NSing=     1 JSym2X= 2.
 CoulSu:  requested number of processors reduced to:  21 ShMem   1 Linda.
 NMat=     1 NSing=     0 JSym2X= 2.
 CoulSu:  requested number of processors reduced to:  21 ShMem   1 Linda.
 NMat=     1 NSing=     0 JSym2X= 2.
 CoulSu:  requested number of processors reduced to:  21 ShMem   1 Linda.
 NMat=     1 NSing=     0 JSym2X= 2.
 CoulSu:  requested number of processors reduced to:  21 ShMem   1 Linda.
 NMat=     1 NSing=     0 JSym2X= 2.
 CoulSu:  requested number of processors reduced to:  21 ShMem   1 Linda.
 NMat=     1 NSing=     0 JSym2X= 2.
 CoulSu:  requested number of processors reduced to:  21 ShMem   1 Linda.
 NMat=     1 NSing=     0 JSym2X= 2.
 CoulSu:  requested number of processors reduced to:  21 ShMem   1 Linda.
 NMat=     1 NSing=     0 JSym2X= 2.
 CoulSu:  requested number of processors reduced to:  21 ShMem   1 Linda.
 NMat=     1 NSing=     0 JSym2X= 2.
 CoulSu:  requested number of processors reduced to:  21 ShMem   1 Linda.
 NMat=     1 NSing=     0 JSym2X= 2.
 CoulSu:  requested number of processors reduced to:  21 ShMem   1 Linda.
 NMat=     1 NSing=     0 JSym2X= 2.
 CoulSu:  requested number of processors reduced to:  21 ShMem   1 Linda.
 NMat=     1 NSing=     0 JSym2X= 2.
 CoulSu:  requested number of processors reduced to:  21 ShMem   1 Linda.
 NMat=     1 NSing=     0 JSym2X= 2.
 CoulSu:  requested number of processors reduced to:  21 ShMem   1 Linda.
 New state      1 was old state      2
 Excitation Energies [eV] at current iteration:
 Root      1 :     2.437279049486165
 Root      2 :     4.298607834578808
 Root      3 :     4.508798885046011
 Root      4 :     7.183063240283567
 Root      5 :     7.699558019490986
 Root      6 :     7.987875199707466
 Root      7 :     8.190090769541742
 Root      8 :     8.711569709757654
 Root      9 :     8.781415436027983
 Root     10 :     9.001530013475563
 Root     11 :     9.008460770168943
 Root     12 :     9.067049413396607
 Root     13 :     9.152459735036276
 Root     14 :     9.287611792366924
 Root     15 :     9.407225124689795
 Root     16 :     9.976481571212798
 Root     17 :    10.089603765764640
 Root     18 :    10.164226769652990
 Root     19 :    10.170465464183110
 Root     20 :    10.266444262221330
 Root     21 :    10.275737708101920
 Root     22 :    10.946742743384020
 Root     23 :    10.990317317136560
 Root     24 :    13.009241494680110
 Iteration     2 Dimension    48 NMult    24 NNew     24
 Estimated number of processors is:   19
 CISAX will form     1 AO SS matrices at one time.
 NMat=     1 NSing=     1 JSym2X= 2.
 CoulSu:  requested number of processors reduced to:  21 ShMem   1 Linda.
 NMat=     1 NSing=     1 JSym2X= 2.
 CoulSu:  requested number of processors reduced to:  21 ShMem   1 Linda.
 NMat=     1 NSing=     1 JSym2X= 2.
 CoulSu:  requested number of processors reduced to:  21 ShMem   1 Linda.
 NMat=     1 NSing=     1 JSym2X= 2.
 CoulSu:  requested number of processors reduced to:  21 ShMem   1 Linda.
 NMat=     1 NSing=     1 JSym2X= 2.
 CoulSu:  requested number of processors reduced to:  21 ShMem   1 Linda.
 NMat=     1 NSing=     1 JSym2X= 2.
 CoulSu:  requested number of processors reduced to:  21 ShMem   1 Linda.
 NMat=     1 NSing=     1 JSym2X= 2.
 CoulSu:  requested number of processors reduced to:  21 ShMem   1 Linda.
 NMat=     1 NSing=     1 JSym2X= 2.
 CoulSu:  requested number of processors reduced to:  21 ShMem   1 Linda.
 NMat=     1 NSing=     1 JSym2X= 2.
 CoulSu:  requested number of processors reduced to:  21 ShMem   1 Linda.
 NMat=     1 NSing=     1 JSym2X= 2.
 CoulSu:  requested number of processors reduced to:  21 ShMem   1 Linda.
 NMat=     1 NSing=     1 JSym2X= 2.
 CoulSu:  requested number of processors reduced to:  21 ShMem   1 Linda.
 NMat=     1 NSing=     1 JSym2X= 2.
 CoulSu:  requested number of processors reduced to:  21 ShMem   1 Linda.
 NMat=     1 NSing=     0 JSym2X= 2.
 CoulSu:  requested number of processors reduced to:  21 ShMem   1 Linda.
 NMat=     1 NSing=     0 JSym2X= 2.
 CoulSu:  requested number of processors reduced to:  21 ShMem   1 Linda.
 NMat=     1 NSing=     0 JSym2X= 2.
 CoulSu:  requested number of processors reduced to:  21 ShMem   1 Linda.
 NMat=     1 NSing=     0 JSym2X= 2.
 CoulSu:  requested number of processors reduced to:  21 ShMem   1 Linda.
 NMat=     1 NSing=     0 JSym2X= 2.
 CoulSu:  requested number of processors reduced to:  21 ShMem   1 Linda.
 NMat=     1 NSing=     0 JSym2X= 2.
 CoulSu:  requested number of processors reduced to:  21 ShMem   1 Linda.
 NMat=     1 NSing=     0 JSym2X= 2.
 CoulSu:  requested number of processors reduced to:  21 ShMem   1 Linda.
 NMat=     1 NSing=     0 JSym2X= 2.
 CoulSu:  requested number of processors reduced to:  21 ShMem   1 Linda.
 NMat=     1 NSing=     0 JSym2X= 2.
 CoulSu:  requested number of processors reduced to:  21 ShMem   1 Linda.
 NMat=     1 NSing=     0 JSym2X= 2.
 CoulSu:  requested number of processors reduced to:  21 ShMem   1 Linda.
 NMat=     1 NSing=     0 JSym2X= 2.
 CoulSu:  requested number of processors reduced to:  21 ShMem   1 Linda.
 NMat=     1 NSing=     0 JSym2X= 2.
 CoulSu:  requested number of processors reduced to:  21 ShMem   1 Linda.
 Root      1 not converged, maximum delta is    0.049671250311727
 Excitation Energies [eV] at current iteration:
 Root      1 :     1.964007796061477   Change is   -0.473271253424688
 Root      2 :     3.627314584467619   Change is   -0.881484300578392
 Root      3 :     3.857555940281713   Change is   -0.441051894297096
 Root      4 :     6.467348223632793   Change is   -0.715715016650775
 Root      5 :     6.959846924298827   Change is   -0.739711095192160
 Root      6 :     7.019057649994435   Change is   -5.990183844685673
 Root      7 :     7.904462917193162   Change is   -0.285627852348580
 Root      8 :     7.931808428471316   Change is   -0.056066771236149
 Root      9 :     7.986496411144159   Change is   -0.725073298613496
 Root     10 :     8.520809664903631   Change is   -0.766802127463294
 Root     11 :     8.653951668439055   Change is   -0.354509101729888
 Root     12 :     8.820324175357580   Change is    0.038908739329599
 Root     13 :     8.950918695567395   Change is   -0.116130717829212
 Root     14 :     8.972770073571770   Change is   -0.028759939903794
 Root     15 :     9.113444590825235   Change is   -0.293780533864559
 Root     16 :     9.172039229329449   Change is   -0.917564536435192
 Root     17 :     9.270486143974242   Change is    0.118026408937966
 Root     18 :     9.869416938523658   Change is   -0.107064632689139
 Root     19 :    10.065967112805150   Change is   -0.098259656847836
 Root     20 :    10.089767960697820   Change is   -0.080697503485289
 Root     21 :    10.202332176627250   Change is   -0.073405531474670
 Root     22 :    10.276901499667560   Change is    0.010457237446231
 Root     23 :    10.516227546480920
 Root     24 :    10.792214059168080   Change is   -0.198103257968477
 Iteration     3 Dimension    54 NMult    48 NNew      6
 Estimated number of processors is:   19
 CISAX will form     1 AO SS matrices at one time.
 NMat=     1 NSing=     1 JSym2X= 2.
 CoulSu:  requested number of processors reduced to:  21 ShMem   1 Linda.
 NMat=     1 NSing=     1 JSym2X= 2.
 CoulSu:  requested number of processors reduced to:  21 ShMem   1 Linda.
 NMat=     1 NSing=     1 JSym2X= 2.
 CoulSu:  requested number of processors reduced to:  21 ShMem   1 Linda.
 NMat=     1 NSing=     0 JSym2X= 2.
 CoulSu:  requested number of processors reduced to:  21 ShMem   1 Linda.
 NMat=     1 NSing=     0 JSym2X= 2.
 CoulSu:  requested number of processors reduced to:  21 ShMem   1 Linda.
 NMat=     1 NSing=     0 JSym2X= 2.
 CoulSu:  requested number of processors reduced to:  21 ShMem   1 Linda.
 Root      1 not converged, maximum delta is    0.011786414201165
 Excitation Energies [eV] at current iteration:
 Root      1 :     1.948350631929421   Change is   -0.015657164132057
 Root      2 :     3.462700995550077   Change is   -0.164613588917542
 Root      3 :     3.819495211692405   Change is   -0.038060728589307
 Root      4 :     6.377365165614144   Change is   -0.089983058018649
 Root      5 :     6.863668415966682   Change is   -0.155389234027753
 Root      6 :     7.873097685174395   Change is   -0.031365232018767
 Iteration     4 Dimension    60 NMult    54 NNew      6
 Estimated number of processors is:   19
 CISAX will form     1 AO SS matrices at one time.
 NMat=     1 NSing=     1 JSym2X= 2.
 CoulSu:  requested number of processors reduced to:  21 ShMem   1 Linda.
 NMat=     1 NSing=     1 JSym2X= 2.
 CoulSu:  requested number of processors reduced to:  21 ShMem   1 Linda.
 NMat=     1 NSing=     1 JSym2X= 2.
 CoulSu:  requested number of processors reduced to:  21 ShMem   1 Linda.
 NMat=     1 NSing=     0 JSym2X= 2.
 CoulSu:  requested number of processors reduced to:  21 ShMem   1 Linda.
 NMat=     1 NSing=     0 JSym2X= 2.
 CoulSu:  requested number of processors reduced to:  21 ShMem   1 Linda.
 NMat=     1 NSing=     0 JSym2X= 2.
 CoulSu:  requested number of processors reduced to:  21 ShMem   1 Linda.
 Root      1 not converged, maximum delta is    0.001172114343046
 Excitation Energies [eV] at current iteration:
 Root      1 :     1.947857739947279   Change is   -0.000492891982141
 Root      2 :     3.440289128262244   Change is   -0.022411867287833
 Root      3 :     3.816899831774635   Change is   -0.002595379917771
 Root      4 :     6.370084591722336   Change is   -0.007280573891808
 Root      5 :     6.847089032713806   Change is   -0.016579383252876
 Root      6 :     7.867381580396925   Change is   -0.005716104777470
 Iteration     5 Dimension    66 NMult    60 NNew      6
 Estimated number of processors is:   19
 CISAX will form     1 AO SS matrices at one time.
 NMat=     1 NSing=     1 JSym2X= 2.
 CoulSu:  requested number of processors reduced to:  21 ShMem   1 Linda.
 NMat=     1 NSing=     1 JSym2X= 2.
 CoulSu:  requested number of processors reduced to:  21 ShMem   1 Linda.
 NMat=     1 NSing=     1 JSym2X= 2.
 CoulSu:  requested number of processors reduced to:  21 ShMem   1 Linda.
 NMat=     1 NSing=     0 JSym2X= 2.
 CoulSu:  requested number of processors reduced to:  21 ShMem   1 Linda.
 NMat=     1 NSing=     0 JSym2X= 2.
 CoulSu:  requested number of processors reduced to:  21 ShMem   1 Linda.
 NMat=     1 NSing=     0 JSym2X= 2.
 CoulSu:  requested number of processors reduced to:  21 ShMem   1 Linda.
 Root      1 has converged.
 Excitation Energies [eV] at current iteration:
 Root      1 :     1.947840004166313   Change is   -0.000017735780966
 Root      2 :     3.438676692017292   Change is   -0.001612436244952
 Root      3 :     3.816782336789219   Change is   -0.000117494985416
 Root      4 :     6.369095971838805   Change is   -0.000988619883532
 Root      5 :     6.845770936579557   Change is   -0.001318096134249
 Root      6 :     7.866917398792344   Change is   -0.000464181604581
 Convergence achieved on expansion vectors.
 ***********************************************************************
 Stability analysis using <AA,BB:AA,BB> singles matrix:
 ***********************************************************************
 1PDM for each excited state written to RWF  633
 Ground to excited state transition densities written to RWF  633

 Eigenvectors of the stability matrix:
 
 Eigenvector   1:      Triplet-A"   Eigenvalue= 0.0715818  <S**2>=2.000
      12 -> 13         0.69184
 The wavefunction is stable under the perturbations considered.
 Leave Link  914 at Sat Apr 17 20:54:27 2021, MaxMem=   104857600 cpu:            8574.9 elap:             221.5
 (Enter /s/ls4/users/knvvv/bin/g16sse/l508.exe)
 The wavefunction is already stable.
 Leave Link  508 at Sat Apr 17 20:54:27 2021, MaxMem=   104857600 cpu:               2.2 elap:               0.1
 (Enter /s/ls4/users/knvvv/bin/g16sse/l601.exe)
 Copying SCF densities to generalized density rwf, IOpCl= 0 IROHF=0.

 **********************************************************************

            Population analysis using the SCF density.

 **********************************************************************

 Orbital symmetries:
       Occupied  (A') (A') (A') (A') (A') (A') (A') (A') (A") (A')
                 (A") (A')
       Virtual   (A") (A') (A') (A') (A") (A') (A") (A') (A') (A')
                 (A') (A") (A') (A') (A') (A') (A") (A") (A') (A")
                 (A') (A') (A') (A') (A") (A") (A') (A') (A") (A')
                 (A") (A') (A') (A') (A") (A') (A') (A') (A") (A')
                 (A') (A') (A") (A') (A") (A') (A") (A') (A') (A')
                 (A') (A") (A') (A") (A') (A') (A") (A') (A") (A")
                 (A') (A') (A') (A') (A') (A") (A') (A") (A') (A')
                 (A') (A") (A') (A') (A") (A') (A") (A') (A") (A")
                 (A') (A') (A') (A") (A') (A") (A') (A') (A") (A')
                 (A") (A') (A') (A') (A") (A') (A') (A') (A") (A')
                 (A") (A') (A') (A") (A") (A") (A') (A") (A') (A')
                 (A') (A") (A') (A") (A') (A') (A') (A') (A") (A')
                 (A') (A") (A') (A") (A') (A') (A") (A') (A') (A")
                 (A') (A') (A") (A") (A') (A") (A') (A') (A") (A')
                 (A') (A') (A") (A") (A') (A") (A') (A') (A') (A")
                 (A') (A") (A") (A') (A') (A') (A") (A') (A") (A")
                 (A') (A') (A") (A') (A') (A") (A') (A") (A') (A")
                 (A') (A') (A") (A') (A") (A') (A') (A') (A") (A")
                 (A") (A') (A') (A') (A") (A') (A') (A") (A') (A")
                 (A') (A") (A") (A') (A') (A') (A") (A') (A') (A")
                 (A') (A') (A") (A') (A") (A') (A') (A') (A') (A')
                 (A') (A') (A') (A') (A') (A')
 The electronic state is 1-A'.
 Alpha  occ. eigenvalues --  -19.72318 -19.70241 -14.95838  -1.36984  -1.18929
 Alpha  occ. eigenvalues --   -0.79587  -0.66693  -0.60824  -0.59946  -0.51317
 Alpha  occ. eigenvalues --   -0.43760  -0.36656
 Alpha virt. eigenvalues --   -0.03986   0.00604   0.04148   0.04457   0.05004
 Alpha virt. eigenvalues --    0.08223   0.08917   0.09160   0.13392   0.14984
 Alpha virt. eigenvalues --    0.16862   0.17931   0.19528   0.21988   0.24669
 Alpha virt. eigenvalues --    0.28282   0.29149   0.32456   0.33392   0.35129
 Alpha virt. eigenvalues --    0.35912   0.37316   0.39361   0.40447   0.41275
 Alpha virt. eigenvalues --    0.41914   0.42541   0.44610   0.45113   0.47549
 Alpha virt. eigenvalues --    0.51489   0.51967   0.54627   0.58568   0.60662
 Alpha virt. eigenvalues --    0.61718   0.63232   0.66032   0.67422   0.69098
 Alpha virt. eigenvalues --    0.75324   0.80881   0.83821   0.91832   0.95916
 Alpha virt. eigenvalues --    1.00627   1.03760   1.07434   1.10866   1.13303
 Alpha virt. eigenvalues --    1.17042   1.20112   1.24374   1.33682   1.36386
 Alpha virt. eigenvalues --    1.36986   1.42135   1.46283   1.47025   1.49414
 Alpha virt. eigenvalues --    1.52920   1.56589   1.59939   1.62181   1.66842
 Alpha virt. eigenvalues --    1.74398   1.80181   1.80323   1.91678   2.00272
 Alpha virt. eigenvalues --    2.07872   2.08404   2.23351   2.29504   2.43336
 Alpha virt. eigenvalues --    2.50777   2.52710   2.55955   2.65173   2.70341
 Alpha virt. eigenvalues --    2.73734   2.77435   2.81092   2.84003   2.84123
 Alpha virt. eigenvalues --    2.92795   2.97817   3.07816   3.11356   3.17790
 Alpha virt. eigenvalues --    3.23044   3.25519   3.26850   3.30541   3.48561
 Alpha virt. eigenvalues --    3.55802   3.57967   3.70242   3.76301   3.78255
 Alpha virt. eigenvalues --    3.86713   3.87852   3.97363   3.99396   4.01815
 Alpha virt. eigenvalues --    4.04866   4.06765   4.12591   4.12755   4.24415
 Alpha virt. eigenvalues --    4.31415   4.34120   4.34451   4.46283   4.52878
 Alpha virt. eigenvalues --    4.60755   4.76254   4.83274   4.87419   4.94059
 Alpha virt. eigenvalues --    5.00063   5.25786   5.26518   5.37675   5.52629
 Alpha virt. eigenvalues --    5.66125   5.73904   5.85654   6.10448   6.32181
 Alpha virt. eigenvalues --    6.48661   6.78197   6.79154   7.00485   7.03286
 Alpha virt. eigenvalues --    7.04059   7.09397   7.13918   7.22018   7.28852
 Alpha virt. eigenvalues --    7.35615   7.46738   7.49481   7.60400   7.67445
 Alpha virt. eigenvalues --    7.71822   7.77578   7.79424   8.13258   8.26086
 Alpha virt. eigenvalues --    8.42024   8.42053   8.47065   8.50160   8.58018
 Alpha virt. eigenvalues --    8.65636   8.70150   8.72391   8.74276   8.76356
 Alpha virt. eigenvalues --    8.76589   8.87692   8.90036   9.03401   9.08126
 Alpha virt. eigenvalues --    9.23038   9.28715   9.51952   9.63690   9.83297
 Alpha virt. eigenvalues --    9.95723  10.07948  10.08999  10.10215  10.21075
 Alpha virt. eigenvalues --   10.26014  10.54143  10.61710  10.68728  10.76784
 Alpha virt. eigenvalues --   10.80038  10.81173  10.83346  10.90980  11.02971
 Alpha virt. eigenvalues --   11.04205  11.12522  11.16175  11.22811  11.45471
 Alpha virt. eigenvalues --   11.55184  11.56163  11.66983  11.69307  11.76501
 Alpha virt. eigenvalues --   11.99021  11.99251  12.10548  12.14770  12.21744
 Alpha virt. eigenvalues --   12.42717  12.99071  13.40537  13.51922  13.58582
 Alpha virt. eigenvalues --   13.76334  13.95449  14.08437  15.44935  16.38126
 Alpha virt. eigenvalues --   37.19253  48.01005  48.17880 194.63686 251.05447
 Alpha virt. eigenvalues --  251.25934
          Condensed to atoms (all electrons):
               1          2          3          4
     1  O    8.092171   0.135855  -0.083468   0.006699
     2  N    0.135855   6.750203   0.014426  -0.069199
     3  O   -0.083468   0.014426   8.250386   0.263871
     4  H    0.006699  -0.069199   0.263871   0.370872
 Mulliken charges:
               1
     1  O   -0.151257
     2  N    0.168715
     3  O   -0.445215
     4  H    0.427757
 Sum of Mulliken charges =  -0.00000
 Mulliken charges with hydrogens summed into heavy atoms:
               1
     1  O   -0.151257
     2  N    0.168715
     3  O   -0.017458
 Electronic spatial extent (au):  <R**2>=            122.2797
 Charge=             -0.0000 electrons
 Dipole moment (field-independent basis, Debye):
    X=              1.9759    Y=              0.6710    Z=              0.0000  Tot=              2.0868
 Quadrupole moment (field-independent basis, Debye-Ang):
   XX=            -13.5515   YY=            -18.4075   ZZ=            -16.2345
   XY=              0.5958   XZ=              0.0000   YZ=              0.0000
 Traceless Quadrupole moment (field-independent basis, Debye-Ang):
   XX=              2.5130   YY=             -2.3430   ZZ=             -0.1700
   XY=              0.5958   XZ=              0.0000   YZ=              0.0000
 Octapole moment (field-independent basis, Debye-Ang**2):
  XXX=             10.7064  YYY=             -1.0552  ZZZ=              0.0000  XYY=             -0.8998
  XXY=             -0.3962  XXZ=              0.0000  XZZ=             -0.7350  YZZ=              0.1543
  YYZ=              0.0000  XYZ=              0.0000
 Hexadecapole moment (field-independent basis, Debye-Ang**3):
 XXXX=            -69.7440 YYYY=            -38.0609 ZZZZ=            -13.3197 XXXY=             11.8019
 XXXZ=              0.0000 YYYX=             11.5871 YYYZ=              0.0000 ZZZX=              0.0000
 ZZZY=              0.0000 XXYY=            -21.5414 XXZZ=            -16.9505 YYZZ=             -8.3940
 XXYZ=              0.0000 YYXZ=              0.0000 ZZXY=              4.1092
 N-N= 6.982013799858D+01 E-N=-6.245397542912D+02  KE= 2.049904259538D+02
 PrsmSu:  requested number of processors reduced to:  21 ShMem   1 Linda.
 No NMR shielding tensors so no spin-rotation constants.
 Leave Link  601 at Sat Apr 17 20:54:30 2021, MaxMem=   104857600 cpu:             135.8 elap:               3.0
 (Enter /s/ls4/users/knvvv/bin/g16sse/l9999.exe)

 Test job not archived.
 1\1\GINC-N303\Stability\RM062X\Gen\H1N1O2\KNVVV\17-Apr-2021\0\\#P M062
 X/GEN Integral=UltraFineGrid SCF=NoSymm Stable=(RExt, Opt) IOp(1/33=1)
 \\Database calculations.\\0,1\O,0,0.,0.2393234198,-1.0589436369\N,0,0.
 ,-0.4954208887,-0.1469686389\O,0,0.,0.2250790356,1.0786175951\H,0,0.,-
 0.487081455,1.7300376077\\Version=ES64L-G16RevA.03\State=1-A'\HF=-205.
 7254407\RMSD=7.937e-09\Dipole=0.,-0.5209512,0.6345391\Quadrupole=-0.12
 6404,-1.0016749,1.1280789,0.,0.,-1.5234537\PG=CS [SG(H1N1O2)]\\@


 ALL THINGS ARE POSSIBLE EXCEPT SKIING THROUGH A REVOLVING DOOR.
 Job cpu time:       0 days  2 hours 59 minutes 37.5 seconds.
 Elapsed time:       0 days  0 hours  4 minutes 36.7 seconds.
 File lengths (MBytes):  RWF=    157 Int=      0 D2E=      0 Chk=      7 Scr=      1
 Normal termination of Gaussian 16 at Sat Apr 17 20:54:31 2021.
