 Entering Gaussian System, Link 0=/s/ls4/users/knvvv/bin/g16sse/g16
 Input=data/database/M062X--def2-QZVP--MB16-43_AlH3.gjf
 Output=data/database/M062X--def2-QZVP--MB16-43_AlH3.log
 Initial command:
 /s/ls4/users/knvvv/bin/g16sse/l1.exe "/s/ls4/users/knvvv/bin/scratch/Gau-44893.inp" -scrdir="/s/ls4/users/knvvv/bin/scratch/"
 Entering Link 1 = /s/ls4/users/knvvv/bin/g16sse/l1.exe PID=     44894.
  
 Copyright (c) 1988,1990,1992,1993,1995,1998,2003,2009,2016,
            Gaussian, Inc.  All Rights Reserved.
  
 This is part of the Gaussian(R) 16 program.  It is based on
 the Gaussian(R) 09 system (copyright 2009, Gaussian, Inc.),
 the Gaussian(R) 03 system (copyright 2003, Gaussian, Inc.),
 the Gaussian(R) 98 system (copyright 1998, Gaussian, Inc.),
 the Gaussian(R) 94 system (copyright 1995, Gaussian, Inc.),
 the Gaussian 92(TM) system (copyright 1992, Gaussian, Inc.),
 the Gaussian 90(TM) system (copyright 1990, Gaussian, Inc.),
 the Gaussian 88(TM) system (copyright 1988, Gaussian, Inc.),
 the Gaussian 86(TM) system (copyright 1986, Carnegie Mellon
 University), and the Gaussian 82(TM) system (copyright 1983,
 Carnegie Mellon University). Gaussian is a federally registered
 trademark of Gaussian, Inc.
  
 This software contains proprietary and confidential information,
 including trade secrets, belonging to Gaussian, Inc.
  
 This software is provided under written license and may be
 used, copied, transmitted, or stored only in accord with that
 written license.
  
 The following legend is applicable only to US Government
 contracts under FAR:
  
                    RESTRICTED RIGHTS LEGEND
  
 Use, reproduction and disclosure by the US Government is
 subject to restrictions as set forth in subparagraphs (a)
 and (c) of the Commercial Computer Software - Restricted
 Rights clause in FAR 52.227-19.
  
 Gaussian, Inc.
 340 Quinnipiac St., Bldg. 40, Wallingford CT 06492
  
  
 ---------------------------------------------------------------
 Warning -- This program may not be used in any manner that
 competes with the business of Gaussian, Inc. or will provide
 assistance to any competitor of Gaussian, Inc.  The licensee
 of this program is prohibited from giving any competitor of
 Gaussian, Inc. access to this program.  By using this program,
 the user acknowledges that Gaussian, Inc. is engaged in the
 business of creating and licensing software in the field of
 computational chemistry and represents and warrants to the
 licensee that it is not a competitor of Gaussian, Inc. and that
 it will not use this program in any manner prohibited above.
 ---------------------------------------------------------------
  

 Cite this work as:
 Gaussian 16, Revision A.03,
 M. J. Frisch, G. W. Trucks, H. B. Schlegel, G. E. Scuseria, 
 M. A. Robb, J. R. Cheeseman, G. Scalmani, V. Barone, 
 G. A. Petersson, H. Nakatsuji, X. Li, M. Caricato, A. V. Marenich, 
 J. Bloino, B. G. Janesko, R. Gomperts, B. Mennucci, H. P. Hratchian, 
 J. V. Ortiz, A. F. Izmaylov, J. L. Sonnenberg, D. Williams-Young, 
 F. Ding, F. Lipparini, F. Egidi, J. Goings, B. Peng, A. Petrone, 
 T. Henderson, D. Ranasinghe, V. G. Zakrzewski, J. Gao, N. Rega, 
 G. Zheng, W. Liang, M. Hada, M. Ehara, K. Toyota, R. Fukuda, 
 J. Hasegawa, M. Ishida, T. Nakajima, Y. Honda, O. Kitao, H. Nakai, 
 T. Vreven, K. Throssell, J. A. Montgomery, Jr., J. E. Peralta, 
 F. Ogliaro, M. J. Bearpark, J. J. Heyd, E. N. Brothers, K. N. Kudin, 
 V. N. Staroverov, T. A. Keith, R. Kobayashi, J. Normand, 
 K. Raghavachari, A. P. Rendell, J. C. Burant, S. S. Iyengar, 
 J. Tomasi, M. Cossi, J. M. Millam, M. Klene, C. Adamo, R. Cammi, 
 J. W. Ochterski, R. L. Martin, K. Morokuma, O. Farkas, 
 J. B. Foresman, and D. J. Fox, Gaussian, Inc., Wallingford CT, 2016.
 
 ******************************************
 Gaussian 16:  ES64L-G16RevA.03 25-Dec-2016
                17-Apr-2021 
 ******************************************
 %RWF=temp12_97137,70GB
 %nprocshared=48
 Will use up to   48 processors via shared memory.
 Default route: MaxDisk=80GB
 ----------------------------------------------------------------------
 #P M062X/Def2QZVP Integral=UltraFineGrid SCF=NoSymm Stable=(RExt, Opt)
  IOp(1/33=1)
 ----------------------------------------------------------------------
 1/33=1,38=1,172=1/1;
 2/12=2,17=6,18=5,40=1/2;
 3/5=45,7=101,11=2,25=1,30=1,74=-55,75=-5/1,2,3;
 4/9=2/1;
 5/5=2,38=5/2;
 6/7=2,8=2,9=2,10=2,28=1/1;
 8/6=1,10=90,11=11/1;
 9/8=-3,42=1,46=1/14;
 5/5=2,8=3,17=40,38=5/8(-2);
 6/7=2,8=2,9=2,10=2,28=1/1;
 99/5=1,9=1/99;
 Leave Link    1 at Sat Apr 17 04:51:15 2021, MaxMem=           0 cpu:              10.2 elap:               0.2
 (Enter /s/ls4/users/knvvv/bin/g16sse/l101.exe)
 ONIOM data not found on unit 2.
 ----------------------
 Database calculations.
 ----------------------
 TstMul:  ICh=     0
 TstMul:  Mul=     1
 TstMul:  ICh=     0
 TstMul:  Mul=     1
 Symbolic Z-matrix:
 Charge =  0 Multiplicity = 1
 Al                    0.        0.        0. 
 H                    -0.79265   1.37291   0. 
 H                    -0.79265  -1.37291   0. 
 H                     1.5853    0.        0. 
 
 RdStrC is calling ZToCFu for IStruc=1 NZ=     4.
 PrtBox:  NBox=     1 Levels=  1 BoxLen=    8.00 SMaxX=        5.19
          Shift=            1.497894            2.594428            0.000000
 Box      1 Number                   0 centers from      1 to      4:
 After GenITR:
 ITRead=  0  0  0  0
 MicOpt= -1 -1 -1 -1
 ITRead=  0  0  0  0
 MicOpt= -1 -1 -1 -1
 NAtoms=      4 NQM=        4 NQMF=       0 NMMI=      0 NMMIF=      0
                NMic=       0 NMicF=      0.
                    Isotopes and Nuclear Properties:
 (Nuclear quadrupole moments (NQMom) in fm**2, nuclear magnetic moments (NMagM)
  in nuclear magnetons)

  Atom         1           2           3           4
 IAtWgt=          27           1           1           1
 AtmWgt=  26.9815413   1.0078250   1.0078250   1.0078250
 NucSpn=           5           1           1           1
 AtZEff=  -0.0000000  -0.0000000  -0.0000000  -0.0000000
 NQMom=   14.6600000   0.0000000   0.0000000   0.0000000
 NMagM=    3.6415040   2.7928460   2.7928460   2.7928460
 AtZNuc=  13.0000000   1.0000000   1.0000000   1.0000000
 No MM parameters found.
 Leave Link  101 at Sat Apr 17 04:51:15 2021, MaxMem=   104857600 cpu:               7.5 elap:               0.2
 (Enter /s/ls4/users/knvvv/bin/g16sse/l202.exe)
                          Input orientation:                          
 ---------------------------------------------------------------------
 Center     Atomic      Atomic             Coordinates (Angstroms)
 Number     Number       Type             X           Y           Z
 ---------------------------------------------------------------------
      1         13           0        0.000000    0.000000    0.000000
      2          1           0       -0.792651    1.372912    0.000000
      3          1           0       -0.792651   -1.372912    0.000000
      4          1           0        1.585303    0.000000    0.000000
 ---------------------------------------------------------------------
                    Distance matrix (angstroms):
                    1          2          3          4
     1  Al   0.000000
     2  H    1.585303   0.000000
     3  H    1.585303   2.745825   0.000000
     4  H    1.585303   2.745825   2.745825   0.000000
 Stoichiometry    AlH3
 Framework group  D3H[O(Al),3C2(H)]
 Deg. of freedom     1
 Full point group                 D3H     NOp  12
 Largest Abelian subgroup         C2V     NOp   4
 Largest concise Abelian subgroup C2      NOp   2
                         Standard orientation:                         
 ---------------------------------------------------------------------
 Center     Atomic      Atomic             Coordinates (Angstroms)
 Number     Number       Type             X           Y           Z
 ---------------------------------------------------------------------
      1         13           0        0.000000    0.000000    0.000000
      2          1           0        0.000000    1.585303   -0.000000
      3          1           0        1.372912   -0.792651   -0.000000
      4          1           0       -1.372912   -0.792651   -0.000000
 ---------------------------------------------------------------------
 Rotational constants (GHZ):         133.0198311         133.0198311          66.5099155
 Leave Link  202 at Sat Apr 17 04:51:16 2021, MaxMem=   104857600 cpu:              18.1 elap:               0.4
 (Enter /s/ls4/users/knvvv/bin/g16sse/l301.exe)
 Standard basis: def2QZVP (5D, 7F)
 Ernie: Thresh=  0.10000D-02 Tol=  0.10000D-05 Strict=F.
 There are    79 symmetry adapted cartesian basis functions of A1  symmetry.
 There are    23 symmetry adapted cartesian basis functions of A2  symmetry.
 There are    51 symmetry adapted cartesian basis functions of B1  symmetry.
 There are    38 symmetry adapted cartesian basis functions of B2  symmetry.
 There are    63 symmetry adapted basis functions of A1  symmetry.
 There are    21 symmetry adapted basis functions of A2  symmetry.
 There are    43 symmetry adapted basis functions of B1  symmetry.
 There are    33 symmetry adapted basis functions of B2  symmetry.
   160 basis functions,   235 primitive gaussians,   191 cartesian basis functions
     8 alpha electrons        8 beta electrons
       nuclear repulsion energy        13.5964398926 Hartrees.
 IExCor= 4336 DFT=T Ex+Corr=M062X ExCW=0 ScaHFX=  0.540000
 ScaDFX=  1.000000  1.000000  1.000000  1.000000 ScalE2=  1.000000  1.000000
 IRadAn=      5 IRanWt=     -1 IRanGd=            0 ICorTp=0 IEmpDi=  4
 NAtoms=    4 NActive=    4 NUniq=    2 SFac= 4.00D+00 NAtFMM=   60 NAOKFM=F Big=F
 Integral buffers will be    131072 words long.
 Raffenetti 2 integral format.
 Two-electron integral symmetry is turned on.
 Leave Link  301 at Sat Apr 17 04:51:16 2021, MaxMem=   104857600 cpu:               7.2 elap:               0.3
 (Enter /s/ls4/users/knvvv/bin/g16sse/l302.exe)
 NPDir=0 NMtPBC=     1 NCelOv=     1 NCel=       1 NClECP=     1 NCelD=      1
         NCelK=      1 NCelE2=     1 NClLst=     1 CellRange=     0.0.
 One-electron integrals computed using PRISM.
 One-electron integral symmetry used in STVInt
 PrsmSu:  requested number of processors reduced to:   4 ShMem   1 Linda.
 PrsmSu:  requested number of processors reduced to:  21 ShMem   1 Linda.
  12 Symmetry operations used in ECPInt.
 ECPInt:  NShTT=    1378 NPrTT=    3335 LenC2=    1379 LenP2D=    3137.
 LDataN:  DoStor=T MaxTD1= 8 Len=  415
 Number of processors reduced to  36 by ecpmxn.
 NBasis=   160 RedAO= T EigKep=  3.02D-04  NBF=    63    21    43    33
 NBsUse=   160 1.00D-06 EigRej= -1.00D+00 NBFU=    63    21    43    33
 Precomputing XC quadrature grid using
 IXCGrd= 4 IRadAn=           5 IRanWt=          -1 IRanGd=           0 AccXCQ= 0.00D+00.
 Generated NRdTot=       0 NPtTot=           0 NUsed=           0 NTot=          32
 NSgBfM=   191   191   191   191   191 MxSgAt=     4 MxSgA2=     4.
 Leave Link  302 at Sat Apr 17 04:51:37 2021, MaxMem=   104857600 cpu:             988.3 elap:              21.1
 (Enter /s/ls4/users/knvvv/bin/g16sse/l303.exe)
 DipDrv:  MaxL=1.
 Leave Link  303 at Sat Apr 17 04:51:38 2021, MaxMem=   104857600 cpu:              23.2 elap:               0.6
 (Enter /s/ls4/users/knvvv/bin/g16sse/l401.exe)
 SCF N**3 symmetry information disabled.
 ExpMin= 3.62D-02 ExpMax= 7.55D+05 ExpMxC= 8.58D+02 IAcc=3 IRadAn=         5 AccDes= 0.00D+00
 Harris functional with IExCor= 1009 and IRadAn=       5 diagonalized for initial guess.
 HarFok:  IExCor= 1009 AccDes= 0.00D+00 IRadAn=         5 IDoV= 1 UseB2=F ITyADJ=14
 ICtDFT=  3500011 ScaDFX=  1.000000  1.000000  1.000000  1.000000
 FoFCou: FMM=F IPFlag=           0 FMFlag=      100000 FMFlg1=           0
         NFxFlg=           0 DoJE=T BraDBF=F KetDBF=T FulRan=T
         wScrn=  0.000000 ICntrl=       500 IOpCl=  0 I1Cent=   200000004 NGrid=           0
         NMat0=    1 NMatS0=      1 NMatT0=    0 NMatD0=    1 NMtDS0=    0 NMtDT0=    0
 Petite list used in FoFCou.
 CoulSu:  requested number of processors reduced to:  21 ShMem   1 Linda.
 CoulSu:  requested number of processors reduced to:  21 ShMem   1 Linda.
 CoulSu:  requested number of processors reduced to:  21 ShMem   1 Linda.
 CoulSu:  requested number of processors reduced to:  21 ShMem   1 Linda.
 Harris En= -244.068524921084    
 JPrj=0 DoOrth=F DoCkMO=F.
 Initial guess orbital symmetries:
       Occupied  (A1') (A1') (E') (E') (A2") (A1') (E') (E')
       Virtual   (A2") (A1') (E') (E') (A1') (E') (E') (A2") (E")
                 (E") (A1') (E') (E') (A1') (E') (E') (A2') (E")
                 (E") (E') (E') (A2") (E") (E") (A1') (A2") (A1')
                 (E') (E') (E') (E') (A1') (E') (E') (A2") (E")
                 (E") (A1') (E') (E') (A2') (E') (E') (E") (E")
                 (A1') (E') (E') (A1') (A2') (A1") (E") (E") (A2")
                 (E') (E') (A1') (E') (E') (E") (E") (A2") (E')
                 (E') (A1') (A2") (E") (E") (E') (E') (A1') (E")
                 (E") (A2") (E') (E') (A1") (E') (E') (A2') (A1')
                 (E') (E') (E") (E") (A1') (A2") (E') (E') (A2')
                 (E') (E') (A1') (E") (E") (E') (E') (A1') (E')
                 (E') (A2') (E") (E") (A1') (A2") (E") (E") (E')
                 (E') (E') (E') (A1') (A2") (A1") (E") (E") (E')
                 (E') (E') (E') (A2') (A1') (A2") (E") (E") (E')
                 (E') (A2") (A2') (E") (E") (E') (E') (A1') (A1")
                 (E') (E') (E") (E") (A2") (A1') (A2') (E') (E')
                 (E') (E') (A1') (E') (E') (A1') (A1') (A1')
 The electronic state of the initial guess is 1-A1'.
 Leave Link  401 at Sat Apr 17 04:51:49 2021, MaxMem=   104857600 cpu:             516.4 elap:              11.2
 (Enter /s/ls4/users/knvvv/bin/g16sse/l502.exe)
 Integral symmetry usage will be decided dynamically.
 Closed shell SCF:
 Using DIIS extrapolation, IDIIS=  1040.
 NGot=   104857600 LenX=   104772199 LenY=   104735277
 Requested convergence on RMS density matrix=1.00D-08 within 128 cycles.
 Requested convergence on MAX density matrix=1.00D-06.
 Requested convergence on             energy=1.00D-06.
 No special actions if energy rises.
 Fock matrices will be formed incrementally for  20 cycles.

 Cycle   1  Pass 1  IDiag  1:
 FoFJK:  IHMeth= 1 ICntrl=       0 DoSepK=F KAlg= 0 I1Cent=           0 FoldK=F
 IRaf= 990000000 NMat=       1 IRICut=       1 DoRegI=T DoRafI=F ISym2E= 1 IDoP0=0 IntGTp=1.
 FoFCou: FMM=F IPFlag=           0 FMFlag=      100000 FMFlg1=           0
         NFxFlg=           0 DoJE=F BraDBF=F KetDBF=F FulRan=T
         wScrn=  0.000000 ICntrl=         0 IOpCl=  0 I1Cent=           0 NGrid=           0
         NMat0=    1 NMatS0=      1 NMatT0=    0 NMatD0=    1 NMtDS0=    0 NMtDT0=    0
 Petite list used in FoFCou.
 CoulSu:  requested number of processors reduced to:  21 ShMem   1 Linda.
 E= -244.154607162658    
 DIIS: error= 3.01D-02 at cycle   1 NSaved=   1.
 NSaved= 1 IEnMin= 1 EnMin= -244.154607162658     IErMin= 1 ErrMin= 3.01D-02
 ErrMax= 3.01D-02  0.00D+00 EMaxC= 1.00D-01 BMatC= 4.52D-02 BMatP= 4.52D-02
 IDIUse=3 WtCom= 6.99D-01 WtEn= 3.01D-01
 Coeff-Com:  0.100D+01
 Coeff-En:   0.100D+01
 Coeff:      0.100D+01
 Gap=     0.290 Goal=   None    Shift=    0.000
 GapD=    0.290 DampG=1.000 DampE=0.500 DampFc=0.5000 IDamp=-1.
 Damping current iteration by 5.00D-01
 RMSDP=1.03D-03 MaxDP=3.88D-02              OVMax= 7.01D-02

 Cycle   2  Pass 1  IDiag  1:
 RMSU=  5.08D-04    CP:  1.01D+00
 CoulSu:  requested number of processors reduced to:  21 ShMem   1 Linda.
 E= -244.167660881858     Delta-E=       -0.013053719201 Rises=F Damp=T
 DIIS: error= 1.49D-02 at cycle   2 NSaved=   2.
 NSaved= 2 IEnMin= 2 EnMin= -244.167660881858     IErMin= 2 ErrMin= 1.49D-02
 ErrMax= 1.49D-02  0.00D+00 EMaxC= 1.00D-01 BMatC= 7.49D-03 BMatP= 4.52D-02
 IDIUse=3 WtCom= 8.51D-01 WtEn= 1.49D-01
 Coeff-Com: -0.578D+00 0.158D+01
 Coeff-En:   0.000D+00 0.100D+01
 Coeff:     -0.492D+00 0.149D+01
 Gap=     0.307 Goal=   None    Shift=    0.000
 RMSDP=3.54D-04 MaxDP=1.73D-02 DE=-1.31D-02 OVMax= 1.26D-02

 Cycle   3  Pass 1  IDiag  1:
 RMSU=  1.94D-04    CP:  1.01D+00  1.58D+00
 CoulSu:  requested number of processors reduced to:  21 ShMem   1 Linda.
 E= -244.179201521671     Delta-E=       -0.011540639813 Rises=F Damp=F
 DIIS: error= 1.38D-03 at cycle   3 NSaved=   3.
 NSaved= 3 IEnMin= 3 EnMin= -244.179201521671     IErMin= 3 ErrMin= 1.38D-03
 ErrMax= 1.38D-03  0.00D+00 EMaxC= 1.00D-01 BMatC= 9.61D-05 BMatP= 7.49D-03
 IDIUse=3 WtCom= 9.86D-01 WtEn= 1.38D-02
 Coeff-Com: -0.102D+00 0.222D+00 0.880D+00
 Coeff-En:   0.000D+00 0.000D+00 0.100D+01
 Coeff:     -0.100D+00 0.219D+00 0.881D+00
 Gap=     0.311 Goal=   None    Shift=    0.000
 RMSDP=5.23D-05 MaxDP=1.63D-03 DE=-1.15D-02 OVMax= 1.50D-03

 Cycle   4  Pass 1  IDiag  1:
 RMSU=  3.65D-05    CP:  1.01D+00  1.52D+00  1.12D+00
 CoulSu:  requested number of processors reduced to:  21 ShMem   1 Linda.
 E= -244.179231698866     Delta-E=       -0.000030177195 Rises=F Damp=F
 DIIS: error= 1.91D-04 at cycle   4 NSaved=   4.
 NSaved= 4 IEnMin= 4 EnMin= -244.179231698866     IErMin= 4 ErrMin= 1.91D-04
 ErrMax= 1.91D-04  0.00D+00 EMaxC= 1.00D-01 BMatC= 1.82D-06 BMatP= 9.61D-05
 IDIUse=3 WtCom= 9.98D-01 WtEn= 1.91D-03
 Coeff-Com:  0.656D-02-0.180D-01-0.172D-01 0.103D+01
 Coeff-En:   0.000D+00 0.000D+00 0.000D+00 0.100D+01
 Coeff:      0.655D-02-0.180D-01-0.172D-01 0.103D+01
 Gap=     0.311 Goal=   None    Shift=    0.000
 RMSDP=6.82D-06 MaxDP=4.35D-04 DE=-3.02D-05 OVMax= 3.71D-04

 Cycle   5  Pass 1  IDiag  1:
 RMSU=  5.68D-06    CP:  1.01D+00  1.52D+00  1.13D+00  1.07D+00
 CoulSu:  requested number of processors reduced to:  21 ShMem   1 Linda.
 E= -244.179232857526     Delta-E=       -0.000001158660 Rises=F Damp=F
 DIIS: error= 4.57D-05 at cycle   5 NSaved=   5.
 NSaved= 5 IEnMin= 5 EnMin= -244.179232857526     IErMin= 5 ErrMin= 4.57D-05
 ErrMax= 4.57D-05  0.00D+00 EMaxC= 1.00D-01 BMatC= 1.28D-07 BMatP= 1.82D-06
 IDIUse=1 WtCom= 1.00D+00 WtEn= 0.00D+00
 Coeff-Com:  0.313D-02-0.594D-02-0.256D-01-0.224D+00 0.125D+01
 Coeff:      0.313D-02-0.594D-02-0.256D-01-0.224D+00 0.125D+01
 Gap=     0.311 Goal=   None    Shift=    0.000
 RMSDP=4.08D-06 MaxDP=1.79D-04 DE=-1.16D-06 OVMax= 1.31D-04

 Cycle   6  Pass 1  IDiag  1:
 RMSU=  1.07D-06    CP:  1.01D+00  1.52D+00  1.14D+00  1.10D+00  1.28D+00
 CoulSu:  requested number of processors reduced to:  21 ShMem   1 Linda.
 E= -244.179232929353     Delta-E=       -0.000000071827 Rises=F Damp=F
 DIIS: error= 4.48D-06 at cycle   6 NSaved=   6.
 NSaved= 6 IEnMin= 6 EnMin= -244.179232929353     IErMin= 6 ErrMin= 4.48D-06
 ErrMax= 4.48D-06  0.00D+00 EMaxC= 1.00D-01 BMatC= 1.21D-09 BMatP= 1.28D-07
 IDIUse=1 WtCom= 1.00D+00 WtEn= 0.00D+00
 Coeff-Com: -0.251D-03 0.541D-03-0.811D-04-0.137D-01 0.719D-01 0.942D+00
 Coeff:     -0.251D-03 0.541D-03-0.811D-04-0.137D-01 0.719D-01 0.942D+00
 Gap=     0.311 Goal=   None    Shift=    0.000
 RMSDP=2.99D-07 MaxDP=1.57D-05 DE=-7.18D-08 OVMax= 1.60D-05

 Cycle   7  Pass 1  IDiag  1:
 RMSU=  2.07D-07    CP:  1.01D+00  1.52D+00  1.14D+00  1.10D+00  1.30D+00
                    CP:  1.09D+00
 CoulSu:  requested number of processors reduced to:  21 ShMem   1 Linda.
 E= -244.179232930657     Delta-E=       -0.000000001304 Rises=F Damp=F
 DIIS: error= 7.47D-07 at cycle   7 NSaved=   7.
 NSaved= 7 IEnMin= 7 EnMin= -244.179232930657     IErMin= 7 ErrMin= 7.47D-07
 ErrMax= 7.47D-07  0.00D+00 EMaxC= 1.00D-01 BMatC= 5.47D-11 BMatP= 1.21D-09
 IDIUse=1 WtCom= 1.00D+00 WtEn= 0.00D+00
 Coeff-Com: -0.125D-04 0.203D-04 0.360D-03 0.148D-02-0.274D-01-0.376D-01
 Coeff-Com:  0.106D+01
 Coeff:     -0.125D-04 0.203D-04 0.360D-03 0.148D-02-0.274D-01-0.376D-01
 Coeff:      0.106D+01
 Gap=     0.311 Goal=   None    Shift=    0.000
 RMSDP=1.24D-07 MaxDP=6.17D-06 DE=-1.30D-09 OVMax= 3.88D-06

 Cycle   8  Pass 1  IDiag  1:
 RMSU=  2.04D-08    CP:  1.01D+00  1.51D+00  1.14D+00  1.10D+00  1.31D+00
                    CP:  1.14D+00  1.14D+00
 CoulSu:  requested number of processors reduced to:  21 ShMem   1 Linda.
 E= -244.179232930722     Delta-E=       -0.000000000065 Rises=F Damp=F
 DIIS: error= 1.02D-07 at cycle   8 NSaved=   8.
 NSaved= 8 IEnMin= 8 EnMin= -244.179232930722     IErMin= 8 ErrMin= 1.02D-07
 ErrMax= 1.02D-07  0.00D+00 EMaxC= 1.00D-01 BMatC= 1.06D-12 BMatP= 5.47D-11
 IDIUse=1 WtCom= 1.00D+00 WtEn= 0.00D+00
 Coeff-Com:  0.908D-05-0.177D-04-0.120D-03-0.136D-03 0.344D-02-0.243D-01
 Coeff-Com: -0.133D+00 0.115D+01
 Coeff:      0.908D-05-0.177D-04-0.120D-03-0.136D-03 0.344D-02-0.243D-01
 Coeff:     -0.133D+00 0.115D+01
 Gap=     0.311 Goal=   None    Shift=    0.000
 DSYEVD-2 returned Info=         321 IAlg= 4 N=   160 NDim=   160 NE2=      654594 trying  DSYEV.
 RMSDP=1.10D-08 MaxDP=4.08D-07 DE=-6.53D-11 OVMax= 7.29D-07

 Cycle   9  Pass 1  IDiag  1:
 RMSU=  4.48D-09    CP:  1.01D+00  1.51D+00  1.14D+00  1.10D+00  1.31D+00
                    CP:  1.14D+00  1.18D+00  1.14D+00
 CoulSu:  requested number of processors reduced to:  21 ShMem   1 Linda.
 E= -244.179232930723     Delta-E=       -0.000000000001 Rises=F Damp=F
 DIIS: error= 1.06D-08 at cycle   9 NSaved=   9.
 NSaved= 9 IEnMin= 9 EnMin= -244.179232930723     IErMin= 9 ErrMin= 1.06D-08
 ErrMax= 1.06D-08  0.00D+00 EMaxC= 1.00D-01 BMatC= 6.33D-15 BMatP= 1.06D-12
 IDIUse=1 WtCom= 1.00D+00 WtEn= 0.00D+00
 Coeff-Com: -0.486D-06 0.881D-06 0.566D-05 0.109D-04 0.836D-04 0.136D-02
 Coeff-Com:  0.295D-03-0.617D-01 0.106D+01
 Coeff:     -0.486D-06 0.881D-06 0.566D-05 0.109D-04 0.836D-04 0.136D-02
 Coeff:      0.295D-03-0.617D-01 0.106D+01
 Gap=     0.311 Goal=   None    Shift=    0.000
 RMSDP=1.38D-09 MaxDP=8.72D-08 DE=-9.09D-13 OVMax= 6.41D-08

 SCF Done:  E(RM062X) =  -244.179232931     A.U. after    9 cycles
            NFock=  9  Conv=0.14D-08     -V/T= 2.0023
 KE= 2.436095789699D+02 PE=-6.094209102829D+02 EE= 1.080356584897D+02
 Leave Link  502 at Sat Apr 17 04:52:14 2021, MaxMem=   104857600 cpu:            1040.2 elap:              24.9
 (Enter /s/ls4/users/knvvv/bin/g16sse/l601.exe)
 Copying SCF densities to generalized density rwf, IOpCl= 0 IROHF=0.

 **********************************************************************

            Population analysis using the SCF density.

 **********************************************************************

 Orbital symmetries:
       Occupied  (A1') (A1') (A2") (E') (E') (A1') (E') (E')
       Virtual   (A2") (E') (E') (A1') (A1') (A2") (E') (E') (E")
                 (E") (A1') (E') (E') (A1') (E') (E') (A2') (E")
                 (E") (E') (E') (A2") (E") (E") (A2") (A1') (A1')
                 (E') (E') (E') (E') (A1') (A2") (E') (E') (E")
                 (E") (A1') (E') (E') (A2') (E') (E') (E") (E")
                 (A1') (E') (E') (A1') (A1") (A2") (E") (E") (A2')
                 (E') (E') (A1') (E') (E') (E") (E") (A2") (E')
                 (E') (A1') (A2") (E") (E") (E') (E') (A1') (E")
                 (E") (A2") (A1") (E') (E') (E') (E') (A2') (A1')
                 (E') (E') (E") (E") (A2") (A1') (A2') (E') (E')
                 (E') (E') (A1') (E") (E") (A1') (E') (E') (A2')
                 (E") (E") (E') (E') (A2") (A1') (E") (E") (E')
                 (E') (A1') (E') (E') (A1") (A2") (E") (E") (E')
                 (E') (E') (E') (A2') (A1') (E") (E") (E') (E')
                 (A2") (A2") (E") (E") (A2') (A1') (E') (E') (A1")
                 (E') (E') (E") (E") (A2") (A1') (A2') (E') (E')
                 (E') (E') (A1') (E') (E') (A1') (A1') (A1')
 The electronic state is 1-A1'.
 Alpha  occ. eigenvalues --  -56.85343  -4.37805  -2.88458  -2.87881  -2.87881
 Alpha  occ. eigenvalues --   -0.48320  -0.35763  -0.35763
 Alpha virt. eigenvalues --   -0.04687   0.04034   0.04034   0.05272   0.07028
 Alpha virt. eigenvalues --    0.08551   0.10473   0.10473   0.13195   0.13195
 Alpha virt. eigenvalues --    0.21664   0.23064   0.23064   0.27354   0.33428
 Alpha virt. eigenvalues --    0.33428   0.43956   0.44923   0.44923   0.45834
 Alpha virt. eigenvalues --    0.45834   0.46220   0.47641   0.47641   0.50443
 Alpha virt. eigenvalues --    0.50796   0.53621   0.56328   0.56328   0.66343
 Alpha virt. eigenvalues --    0.66343   0.71284   0.82427   0.83054   0.83054
 Alpha virt. eigenvalues --    0.87197   0.87197   1.02178   1.09599   1.09599
 Alpha virt. eigenvalues --    1.11111   1.19550   1.19550   1.24332   1.24332
 Alpha virt. eigenvalues --    1.28656   1.33207   1.33207   1.40511   1.44042
 Alpha virt. eigenvalues --    1.46284   1.47553   1.47553   1.47872   1.58870
 Alpha virt. eigenvalues --    1.58870   1.64325   1.64376   1.64376   1.72029
 Alpha virt. eigenvalues --    1.72029   1.77855   1.88287   1.88287   1.89788
 Alpha virt. eigenvalues --    2.00946   2.11382   2.11382   2.16090   2.16090
 Alpha virt. eigenvalues --    2.29542   2.45307   2.45307   2.47705   2.51505
 Alpha virt. eigenvalues --    2.53252   2.53252   2.58304   2.58304   2.67129
 Alpha virt. eigenvalues --    2.70325   2.78665   2.78665   2.86252   2.86252
 Alpha virt. eigenvalues --    3.01852   3.04320   3.13298   3.13850   3.13850
 Alpha virt. eigenvalues --    3.43705   3.43705   3.93784   4.39678   4.39678
 Alpha virt. eigenvalues --    4.54115   4.54538   4.54538   5.51879   5.52914
 Alpha virt. eigenvalues --    5.52914   5.55458   5.55458   5.58713   5.68361
 Alpha virt. eigenvalues --    5.68475   5.68475   5.79131   5.79131   5.79482
 Alpha virt. eigenvalues --    5.84364   5.84364   5.94108   5.96440   6.09438
 Alpha virt. eigenvalues --    6.09438   6.12372   6.12372   6.17911   6.17911
 Alpha virt. eigenvalues --    6.23935   6.25684   7.43031   7.43031   7.43304
 Alpha virt. eigenvalues --    7.43304   7.44527   7.58678   7.60248   7.60248
 Alpha virt. eigenvalues --    7.64155   7.70752   7.72632   7.72632   7.73740
 Alpha virt. eigenvalues --    8.12895   8.12895   8.29042   8.29042   8.30440
 Alpha virt. eigenvalues --    8.38554   8.40133   8.52915   8.52915   8.62630
 Alpha virt. eigenvalues --    8.62630   8.71740   8.93827   8.93827  12.85594
 Alpha virt. eigenvalues --   46.18421 253.78039
          Condensed to atoms (all electrons):
               1          2          3          4
     1  Al  11.269208   0.404235   0.404235   0.404235
     2  H    0.404235   0.799924  -0.015732  -0.015732
     3  H    0.404235  -0.015732   0.799924  -0.015732
     4  H    0.404235  -0.015732  -0.015732   0.799924
 Mulliken charges:
               1
     1  Al   0.518086
     2  H   -0.172695
     3  H   -0.172695
     4  H   -0.172695
 Sum of Mulliken charges =  -0.00000
 Mulliken charges with hydrogens summed into heavy atoms:
               1
     1  Al  -0.000000
 Electronic spatial extent (au):  <R**2>=             62.8642
 Charge=             -0.0000 electrons
 Dipole moment (field-independent basis, Debye):
    X=              0.0000    Y=              0.0000    Z=              0.0000  Tot=              0.0000
 Quadrupole moment (field-independent basis, Debye-Ang):
   XX=            -18.2417   YY=            -18.2417   ZZ=            -11.8571
   XY=             -0.0000   XZ=             -0.0000   YZ=             -0.0000
 Traceless Quadrupole moment (field-independent basis, Debye-Ang):
   XX=             -2.1282   YY=             -2.1282   ZZ=              4.2564
   XY=             -0.0000   XZ=             -0.0000   YZ=             -0.0000
 Octapole moment (field-independent basis, Debye-Ang**2):
  XXX=              0.0000  YYY=             -2.8743  ZZZ=              0.0000  XYY=              0.0000
  XXY=              2.8743  XXZ=              0.0000  XZZ=              0.0000  YZZ=              0.0000
  YYZ=              0.0000  XYZ=              0.0000
 Hexadecapole moment (field-independent basis, Debye-Ang**3):
 XXXX=            -63.0435 YYYY=            -63.0435 ZZZZ=            -15.2144 XXXY=              0.0000
 XXXZ=             -0.0000 YYYX=              0.0000 YYYZ=              0.0000 ZZZX=             -0.0000
 ZZZY=             -0.0000 XXYY=            -21.0145 XXZZ=            -12.8438 YYZZ=            -12.8438
 XXYZ=             -0.0000 YYXZ=             -0.0000 ZZXY=              0.0000
 N-N= 1.359643989264D+01 E-N=-6.094209100824D+02  KE= 2.436095789699D+02
 PrsmSu:  requested number of processors reduced to:  21 ShMem   1 Linda.
 No NMR shielding tensors so no spin-rotation constants.
 Leave Link  601 at Sat Apr 17 04:52:20 2021, MaxMem=   104857600 cpu:             267.9 elap:               5.8
 (Enter /s/ls4/users/knvvv/bin/g16sse/l801.exe)
 DoSCS=F DFT=T ScalE2(SS,OS)=  1.000000  1.000000
 Range of M.O.s used for correlation:     1   160
 NBasis=   160 NAE=     8 NBE=     8 NFC=     0 NFV=     0
 NROrb=    160 NOA=     8 NOB=     8 NVA=   152 NVB=   152

 **** Warning!!: The largest alpha MO coefficient is  0.19367649D+02

 Leave Link  801 at Sat Apr 17 04:52:20 2021, MaxMem=   104857600 cpu:               5.6 elap:               0.2
 (Enter /s/ls4/users/knvvv/bin/g16sse/l914.exe)
 RHF ground state
 Doing stability rather than CIS.
 Two-electron integrals replicated using symmetry.
 MDV=   104857600 DFT=T DoStab=T Mixed=T DoRPA=F DoScal=F NonHer=F
 Making orbital integer symmetry assigments:
 Orbital symmetries:
       Occupied  (A1') (A1') (A2") (E') (E') (A1') (E') (E')
       Virtual   (A2") (E') (E') (A1') (A1') (A2") (E') (E') (E")
                 (E") (A1') (E') (E') (A1') (E') (E') (A2') (E")
                 (E") (E') (E') (A2") (E") (E") (A2") (A1') (A1')
                 (E') (E') (E') (E') (A1') (A2") (E') (E') (E")
                 (E") (A1') (E') (E') (A2') (E') (E') (E") (E")
                 (A1') (E') (E') (A1') (A1") (A2") (E") (E") (A2')
                 (E') (E') (A1') (E') (E') (E") (E") (A2") (E')
                 (E') (A1') (A2") (E") (E") (E') (E') (A1') (E")
                 (E") (A2") (A1") (E') (E') (E') (E') (A2') (A1')
                 (E') (E') (E") (E") (A2") (A1') (A2') (E') (E')
                 (E') (E') (A1') (E") (E") (A1') (E') (E') (A2')
                 (E") (E") (E') (E') (A2") (A1') (E") (E") (E')
                 (E') (A1') (E') (E') (A1") (A2") (E") (E") (E')
                 (E') (E') (E') (A2') (A1') (E") (E") (E') (E')
                 (A2") (A2") (E") (E") (A2') (A1') (E') (E') (A1")
                 (E') (E') (E") (E") (A2") (A1') (A2') (E') (E')
                 (E') (E') (A1') (E') (E') (A1') (A1') (A1')
    24 initial guesses have been made.
 Convergence on wavefunction:    0.001000000000000
 Davidson Disk Diagonalization:  ConvIn= 1.00D-03 SkipCon=T Conv= 1.00D-03.
 Max sub-space:  2000 roots to seek:    24 dimension of matrix:         2432
 Iteration     1 Dimension    24 NMult     0 NNew     24
 Estimated number of processors is:   20
 CISAX will form     1 AO SS matrices at one time.
 NMat=     1 NSing=     1 JSym2X= 2.
 FoFJK:  IHMeth= 1 ICntrl=       0 DoSepK=F KAlg= 0 I1Cent=           0 FoldK=F
 IRaf= 990000000 NMat=       1 IRICut=       1 DoRegI=T DoRafI=F ISym2E= 2 IDoP0=0 IntGTp=1.
 FoFCou: FMM=F IPFlag=           0 FMFlag=      100000 FMFlg1=           0
         NFxFlg=           0 DoJE=F BraDBF=F KetDBF=F FulRan=T
         wScrn=  0.000000 ICntrl=         0 IOpCl=  0 I1Cent=           0 NGrid=           0
         NMat0=    1 NMatS0=      1 NMatT0=    0 NMatD0=    1 NMtDS0=    0 NMtDT0=    0
 Integrals replicated using symmetry in FoFCou.
 CoulSu:  requested number of processors reduced to:  20 ShMem   1 Linda.
 NMat=     1 NSing=     1 JSym2X= 2.
 CoulSu:  requested number of processors reduced to:  20 ShMem   1 Linda.
 NMat=     1 NSing=     1 JSym2X= 2.
 CoulSu:  requested number of processors reduced to:  20 ShMem   1 Linda.
 NMat=     1 NSing=     1 JSym2X= 2.
 CoulSu:  requested number of processors reduced to:  20 ShMem   1 Linda.
 NMat=     1 NSing=     1 JSym2X= 2.
 CoulSu:  requested number of processors reduced to:  20 ShMem   1 Linda.
 NMat=     1 NSing=     1 JSym2X= 2.
 CoulSu:  requested number of processors reduced to:  20 ShMem   1 Linda.
 NMat=     1 NSing=     1 JSym2X= 2.
 CoulSu:  requested number of processors reduced to:  20 ShMem   1 Linda.
 NMat=     1 NSing=     1 JSym2X= 2.
 CoulSu:  requested number of processors reduced to:  20 ShMem   1 Linda.
 NMat=     1 NSing=     1 JSym2X= 2.
 CoulSu:  requested number of processors reduced to:  20 ShMem   1 Linda.
 NMat=     1 NSing=     1 JSym2X= 2.
 CoulSu:  requested number of processors reduced to:  20 ShMem   1 Linda.
 NMat=     1 NSing=     1 JSym2X= 2.
 CoulSu:  requested number of processors reduced to:  20 ShMem   1 Linda.
 NMat=     1 NSing=     1 JSym2X= 2.
 CoulSu:  requested number of processors reduced to:  20 ShMem   1 Linda.
 NMat=     1 NSing=     0 JSym2X= 2.
 CoulSu:  requested number of processors reduced to:  20 ShMem   1 Linda.
 NMat=     1 NSing=     0 JSym2X= 2.
 CoulSu:  requested number of processors reduced to:  20 ShMem   1 Linda.
 NMat=     1 NSing=     0 JSym2X= 2.
 CoulSu:  requested number of processors reduced to:  20 ShMem   1 Linda.
 NMat=     1 NSing=     0 JSym2X= 2.
 CoulSu:  requested number of processors reduced to:  20 ShMem   1 Linda.
 NMat=     1 NSing=     0 JSym2X= 2.
 CoulSu:  requested number of processors reduced to:  20 ShMem   1 Linda.
 NMat=     1 NSing=     0 JSym2X= 2.
 CoulSu:  requested number of processors reduced to:  20 ShMem   1 Linda.
 NMat=     1 NSing=     0 JSym2X= 2.
 CoulSu:  requested number of processors reduced to:  20 ShMem   1 Linda.
 NMat=     1 NSing=     0 JSym2X= 2.
 CoulSu:  requested number of processors reduced to:  20 ShMem   1 Linda.
 NMat=     1 NSing=     0 JSym2X= 2.
 CoulSu:  requested number of processors reduced to:  20 ShMem   1 Linda.
 NMat=     1 NSing=     0 JSym2X= 2.
 CoulSu:  requested number of processors reduced to:  20 ShMem   1 Linda.
 NMat=     1 NSing=     0 JSym2X= 2.
 CoulSu:  requested number of processors reduced to:  20 ShMem   1 Linda.
 NMat=     1 NSing=     0 JSym2X= 2.
 CoulSu:  requested number of processors reduced to:  20 ShMem   1 Linda.
 New state      1 was old state      2
 Excitation Energies [eV] at current iteration:
 Root      1 :     4.807338297871757
 Root      2 :     5.028515299510514
 Root      3 :     5.588687664105686
 Root      4 :     5.653866013270121
 Root      5 :     7.244565635284616
 Root      6 :     7.244688132917340
 Root      7 :     7.802749413927573
 Root      8 :     8.434852825263409
 Root      9 :     8.533316432756644
 Root     10 :     8.548779729234605
 Root     11 :     8.548850296843597
 Root     12 :     8.788341846081035
 Root     13 :     8.809945065268213
 Root     14 :     8.810014364509072
 Root     15 :     9.261900121557424
 Root     16 :     9.262011506835002
 Root     17 :     9.421198072817706
 Root     18 :     9.533797642241973
 Root     19 :     9.533810155634864
 Root     20 :     9.798410691962349
 Root     21 :     9.877471526972649
 Root     22 :    10.577614694016910
 Root     23 :    10.577792553938290
 Root     24 :    11.138469973186750
 Iteration     2 Dimension    48 NMult    24 NNew     24
 Estimated number of processors is:   20
 CISAX will form     1 AO SS matrices at one time.
 NMat=     1 NSing=     1 JSym2X= 2.
 CoulSu:  requested number of processors reduced to:  20 ShMem   1 Linda.
 NMat=     1 NSing=     1 JSym2X= 2.
 CoulSu:  requested number of processors reduced to:  20 ShMem   1 Linda.
 NMat=     1 NSing=     1 JSym2X= 2.
 CoulSu:  requested number of processors reduced to:  20 ShMem   1 Linda.
 NMat=     1 NSing=     1 JSym2X= 2.
 CoulSu:  requested number of processors reduced to:  20 ShMem   1 Linda.
 NMat=     1 NSing=     1 JSym2X= 2.
 CoulSu:  requested number of processors reduced to:  20 ShMem   1 Linda.
 NMat=     1 NSing=     1 JSym2X= 2.
 CoulSu:  requested number of processors reduced to:  20 ShMem   1 Linda.
 NMat=     1 NSing=     1 JSym2X= 2.
 CoulSu:  requested number of processors reduced to:  20 ShMem   1 Linda.
 NMat=     1 NSing=     1 JSym2X= 2.
 CoulSu:  requested number of processors reduced to:  20 ShMem   1 Linda.
 NMat=     1 NSing=     1 JSym2X= 2.
 CoulSu:  requested number of processors reduced to:  20 ShMem   1 Linda.
 NMat=     1 NSing=     1 JSym2X= 2.
 CoulSu:  requested number of processors reduced to:  20 ShMem   1 Linda.
 NMat=     1 NSing=     1 JSym2X= 2.
 CoulSu:  requested number of processors reduced to:  20 ShMem   1 Linda.
 NMat=     1 NSing=     1 JSym2X= 2.
 CoulSu:  requested number of processors reduced to:  20 ShMem   1 Linda.
 NMat=     1 NSing=     0 JSym2X= 2.
 CoulSu:  requested number of processors reduced to:  20 ShMem   1 Linda.
 NMat=     1 NSing=     0 JSym2X= 2.
 CoulSu:  requested number of processors reduced to:  20 ShMem   1 Linda.
 NMat=     1 NSing=     0 JSym2X= 2.
 CoulSu:  requested number of processors reduced to:  20 ShMem   1 Linda.
 NMat=     1 NSing=     0 JSym2X= 2.
 CoulSu:  requested number of processors reduced to:  20 ShMem   1 Linda.
 NMat=     1 NSing=     0 JSym2X= 2.
 CoulSu:  requested number of processors reduced to:  20 ShMem   1 Linda.
 NMat=     1 NSing=     0 JSym2X= 2.
 CoulSu:  requested number of processors reduced to:  20 ShMem   1 Linda.
 NMat=     1 NSing=     0 JSym2X= 2.
 CoulSu:  requested number of processors reduced to:  20 ShMem   1 Linda.
 NMat=     1 NSing=     0 JSym2X= 2.
 CoulSu:  requested number of processors reduced to:  20 ShMem   1 Linda.
 NMat=     1 NSing=     0 JSym2X= 2.
 CoulSu:  requested number of processors reduced to:  20 ShMem   1 Linda.
 NMat=     1 NSing=     0 JSym2X= 2.
 CoulSu:  requested number of processors reduced to:  20 ShMem   1 Linda.
 NMat=     1 NSing=     0 JSym2X= 2.
 CoulSu:  requested number of processors reduced to:  20 ShMem   1 Linda.
 NMat=     1 NSing=     0 JSym2X= 2.
 CoulSu:  requested number of processors reduced to:  20 ShMem   1 Linda.
 Root      1 not converged, maximum delta is    0.051204594327669
 Excitation Energies [eV] at current iteration:
 Root      1 :     4.603055739613918   Change is   -0.204282558257839
 Root      2 :     4.605345312945474   Change is   -0.423169986565041
 Root      3 :     5.515856670862487   Change is   -0.072830993243199
 Root      4 :     5.521542231776752   Change is   -0.132323781493369
 Root      5 :     6.250039990022347   Change is   -0.994525645262269
 Root      6 :     6.250353949983192   Change is   -0.994334182934148
 Root      7 :     6.818640856193369   Change is   -0.984108557734205
 Root      8 :     7.562318105049139   Change is   -0.872534720214270
 Root      9 :     7.781760927396648   Change is   -1.006580918684389
 Root     10 :     8.097673372380477   Change is   -0.451106356854128
 Root     11 :     8.097873580537085   Change is   -0.450976716306512
 Root     12 :     8.234690221508297   Change is   -0.298626211248347
 Root     13 :     8.661037129720064   Change is   -0.148907935548148
 Root     14 :     8.661097409486139   Change is   -0.148916955022934
 Root     15 :     9.115484930263941   Change is   -0.305713142553766
 Root     16 :     9.142186958686514   Change is   -0.119713162870911
 Root     17 :     9.142332199676124   Change is   -0.119679307158877
 Root     18 :     9.282881463153867   Change is   -0.250916179088106
 Root     19 :     9.282919847530444   Change is   -0.250890308104419
 Root     20 :     9.684837695244452   Change is   -0.892776998772455
 Root     21 :     9.684844714905307   Change is   -0.892947839032981
 Root     22 :     9.720212780534693   Change is   -0.078197911427657
 Root     23 :     9.805285713229621   Change is   -0.072185813743029
 Root     24 :     9.857453211836239   Change is   -1.281016761350508
 Iteration     3 Dimension    54 NMult    48 NNew      6
 Estimated number of processors is:   20
 CISAX will form     1 AO SS matrices at one time.
 NMat=     1 NSing=     1 JSym2X= 2.
 CoulSu:  requested number of processors reduced to:  20 ShMem   1 Linda.
 NMat=     1 NSing=     1 JSym2X= 2.
 CoulSu:  requested number of processors reduced to:  20 ShMem   1 Linda.
 NMat=     1 NSing=     1 JSym2X= 2.
 CoulSu:  requested number of processors reduced to:  20 ShMem   1 Linda.
 NMat=     1 NSing=     0 JSym2X= 2.
 CoulSu:  requested number of processors reduced to:  20 ShMem   1 Linda.
 NMat=     1 NSing=     0 JSym2X= 2.
 CoulSu:  requested number of processors reduced to:  20 ShMem   1 Linda.
 NMat=     1 NSing=     0 JSym2X= 2.
 CoulSu:  requested number of processors reduced to:  20 ShMem   1 Linda.
 Root      1 not converged, maximum delta is    0.031330305487436
 Excitation Energies [eV] at current iteration:
 Root      1 :     4.598596538309552   Change is   -0.004459201304367
 Root      2 :     4.599047043560779   Change is   -0.006298269384695
 Root      3 :     5.514717651868976   Change is   -0.001139018993511
 Root      4 :     5.514890461749868   Change is   -0.006651770026884
 Root      5 :     6.189582148013407   Change is   -0.060457842008939
 Root      6 :     8.201519855434769   Change is   -0.033170366073528
 Iteration     4 Dimension    60 NMult    54 NNew      6
 Estimated number of processors is:   20
 CISAX will form     1 AO SS matrices at one time.
 NMat=     1 NSing=     1 JSym2X= 2.
 CoulSu:  requested number of processors reduced to:  20 ShMem   1 Linda.
 NMat=     1 NSing=     1 JSym2X= 2.
 CoulSu:  requested number of processors reduced to:  20 ShMem   1 Linda.
 NMat=     1 NSing=     1 JSym2X= 2.
 CoulSu:  requested number of processors reduced to:  20 ShMem   1 Linda.
 NMat=     1 NSing=     0 JSym2X= 2.
 CoulSu:  requested number of processors reduced to:  20 ShMem   1 Linda.
 NMat=     1 NSing=     0 JSym2X= 2.
 CoulSu:  requested number of processors reduced to:  20 ShMem   1 Linda.
 NMat=     1 NSing=     0 JSym2X= 2.
 CoulSu:  requested number of processors reduced to:  20 ShMem   1 Linda.
 Root      1 not converged, maximum delta is    0.008722692767016
 Excitation Energies [eV] at current iteration:
 Root      1 :     4.598526484300137   Change is   -0.000070054009416
 Root      2 :     4.598894594226298   Change is   -0.000152449334481
 Root      3 :     5.514698701401227   Change is   -0.000018950467748
 Root      4 :     5.514850715935605   Change is   -0.000039745814263
 Root      5 :     6.187818541249289   Change is   -0.001763606764119
 Root      6 :     8.193892708650882   Change is   -0.007627146783888
 Iteration     5 Dimension    66 NMult    60 NNew      6
 Estimated number of processors is:   20
 CISAX will form     1 AO SS matrices at one time.
 NMat=     1 NSing=     1 JSym2X= 2.
 CoulSu:  requested number of processors reduced to:  20 ShMem   1 Linda.
 NMat=     1 NSing=     1 JSym2X= 2.
 CoulSu:  requested number of processors reduced to:  20 ShMem   1 Linda.
 NMat=     1 NSing=     1 JSym2X= 2.
 CoulSu:  requested number of processors reduced to:  20 ShMem   1 Linda.
 NMat=     1 NSing=     0 JSym2X= 2.
 CoulSu:  requested number of processors reduced to:  20 ShMem   1 Linda.
 NMat=     1 NSing=     0 JSym2X= 2.
 CoulSu:  requested number of processors reduced to:  20 ShMem   1 Linda.
 NMat=     1 NSing=     0 JSym2X= 2.
 CoulSu:  requested number of processors reduced to:  20 ShMem   1 Linda.
 Root      1 has converged.
 Excitation Energies [eV] at current iteration:
 Root      1 :     4.598524978061846   Change is   -0.000001506238290
 Root      2 :     4.598890569957882   Change is   -0.000004024268416
 Root      3 :     5.514698430100288   Change is   -0.000000271300939
 Root      4 :     5.514850304354207   Change is   -0.000000411581399
 Root      5 :     6.187605219488344   Change is   -0.000213321760944
 Root      6 :     8.193750415674302   Change is   -0.000142292976581
 Convergence achieved on expansion vectors.
 ***********************************************************************
 Stability analysis using <AA,BB:AA,BB> singles matrix:
 ***********************************************************************
 1PDM for each excited state written to RWF  633
 Ground to excited state transition densities written to RWF  633

 Eigenvectors of the stability matrix:
 
 Eigenvector   1:      Triplet-E"   Eigenvalue= 0.1689927  <S**2>=2.000
       8 ->  9         0.68017
       8 -> 14        -0.15596
 The wavefunction is stable under the perturbations considered.
 Leave Link  914 at Sat Apr 17 04:54:37 2021, MaxMem=   104857600 cpu:            5348.4 elap:             136.5
 (Enter /s/ls4/users/knvvv/bin/g16sse/l508.exe)
 The wavefunction is already stable.
 Leave Link  508 at Sat Apr 17 04:54:37 2021, MaxMem=   104857600 cpu:               2.2 elap:               0.1
 (Enter /s/ls4/users/knvvv/bin/g16sse/l601.exe)
 Copying SCF densities to generalized density rwf, IOpCl= 0 IROHF=0.

 **********************************************************************

            Population analysis using the SCF density.

 **********************************************************************

 Orbital symmetries:
       Occupied  (A1') (A1') (A2") (E') (E') (A1') (E') (E')
       Virtual   (A2") (E') (E') (A1') (A1') (A2") (E') (E') (E")
                 (E") (A1') (E') (E') (A1') (E') (E') (A2') (E")
                 (E") (E') (E') (A2") (E") (E") (A2") (A1') (A1')
                 (E') (E') (E') (E') (A1') (A2") (E') (E') (E")
                 (E") (A1') (E') (E') (A2') (E') (E') (E") (E")
                 (A1') (E') (E') (A1') (A1") (A2") (E") (E") (A2')
                 (E') (E') (A1') (E') (E') (E") (E") (A2") (E')
                 (E') (A1') (A2") (E") (E") (E') (E') (A1') (E")
                 (E") (A2") (A1") (E') (E') (E') (E') (A2') (A1')
                 (E') (E') (E") (E") (A2") (A1') (A2') (E') (E')
                 (E') (E') (A1') (E") (E") (A1') (E') (E') (A2')
                 (E") (E") (E') (E') (A2") (A1') (E") (E") (E')
                 (E') (A1') (E') (E') (A1") (A2") (E") (E") (E')
                 (E') (E') (E') (A2') (A1') (E") (E") (E') (E')
                 (A2") (A2") (E") (E") (A2') (A1') (E') (E') (A1")
                 (E') (E') (E") (E") (A2") (A1') (A2') (E') (E')
                 (E') (E') (A1') (E') (E') (A1') (A1') (A1')
 The electronic state is 1-A1'.
 Alpha  occ. eigenvalues --  -56.85343  -4.37805  -2.88458  -2.87881  -2.87881
 Alpha  occ. eigenvalues --   -0.48320  -0.35763  -0.35763
 Alpha virt. eigenvalues --   -0.04687   0.04034   0.04034   0.05272   0.07028
 Alpha virt. eigenvalues --    0.08551   0.10473   0.10473   0.13195   0.13195
 Alpha virt. eigenvalues --    0.21664   0.23064   0.23064   0.27354   0.33428
 Alpha virt. eigenvalues --    0.33428   0.43956   0.44923   0.44923   0.45834
 Alpha virt. eigenvalues --    0.45834   0.46220   0.47641   0.47641   0.50443
 Alpha virt. eigenvalues --    0.50796   0.53621   0.56328   0.56328   0.66343
 Alpha virt. eigenvalues --    0.66343   0.71284   0.82427   0.83054   0.83054
 Alpha virt. eigenvalues --    0.87197   0.87197   1.02178   1.09599   1.09599
 Alpha virt. eigenvalues --    1.11111   1.19550   1.19550   1.24332   1.24332
 Alpha virt. eigenvalues --    1.28656   1.33207   1.33207   1.40511   1.44042
 Alpha virt. eigenvalues --    1.46284   1.47553   1.47553   1.47872   1.58870
 Alpha virt. eigenvalues --    1.58870   1.64325   1.64376   1.64376   1.72029
 Alpha virt. eigenvalues --    1.72029   1.77855   1.88287   1.88287   1.89788
 Alpha virt. eigenvalues --    2.00946   2.11382   2.11382   2.16090   2.16090
 Alpha virt. eigenvalues --    2.29542   2.45307   2.45307   2.47705   2.51505
 Alpha virt. eigenvalues --    2.53252   2.53252   2.58304   2.58304   2.67129
 Alpha virt. eigenvalues --    2.70325   2.78665   2.78665   2.86252   2.86252
 Alpha virt. eigenvalues --    3.01852   3.04320   3.13298   3.13850   3.13850
 Alpha virt. eigenvalues --    3.43705   3.43705   3.93784   4.39678   4.39678
 Alpha virt. eigenvalues --    4.54115   4.54538   4.54538   5.51879   5.52914
 Alpha virt. eigenvalues --    5.52914   5.55458   5.55458   5.58713   5.68361
 Alpha virt. eigenvalues --    5.68475   5.68475   5.79131   5.79131   5.79482
 Alpha virt. eigenvalues --    5.84364   5.84364   5.94108   5.96440   6.09438
 Alpha virt. eigenvalues --    6.09438   6.12372   6.12372   6.17911   6.17911
 Alpha virt. eigenvalues --    6.23935   6.25684   7.43031   7.43031   7.43304
 Alpha virt. eigenvalues --    7.43304   7.44527   7.58678   7.60248   7.60248
 Alpha virt. eigenvalues --    7.64155   7.70752   7.72632   7.72632   7.73740
 Alpha virt. eigenvalues --    8.12895   8.12895   8.29042   8.29042   8.30440
 Alpha virt. eigenvalues --    8.38554   8.40133   8.52915   8.52915   8.62630
 Alpha virt. eigenvalues --    8.62630   8.71740   8.93827   8.93827  12.85594
 Alpha virt. eigenvalues --   46.18421 253.78039
          Condensed to atoms (all electrons):
               1          2          3          4
     1  Al  11.269208   0.404235   0.404235   0.404235
     2  H    0.404235   0.799924  -0.015732  -0.015732
     3  H    0.404235  -0.015732   0.799924  -0.015732
     4  H    0.404235  -0.015732  -0.015732   0.799924
 Mulliken charges:
               1
     1  Al   0.518086
     2  H   -0.172695
     3  H   -0.172695
     4  H   -0.172695
 Sum of Mulliken charges =  -0.00000
 Mulliken charges with hydrogens summed into heavy atoms:
               1
     1  Al  -0.000000
 Electronic spatial extent (au):  <R**2>=             62.8642
 Charge=             -0.0000 electrons
 Dipole moment (field-independent basis, Debye):
    X=              0.0000    Y=              0.0000    Z=              0.0000  Tot=              0.0000
 Quadrupole moment (field-independent basis, Debye-Ang):
   XX=            -18.2417   YY=            -18.2417   ZZ=            -11.8571
   XY=             -0.0000   XZ=             -0.0000   YZ=             -0.0000
 Traceless Quadrupole moment (field-independent basis, Debye-Ang):
   XX=             -2.1282   YY=             -2.1282   ZZ=              4.2564
   XY=             -0.0000   XZ=             -0.0000   YZ=             -0.0000
 Octapole moment (field-independent basis, Debye-Ang**2):
  XXX=              0.0000  YYY=             -2.8743  ZZZ=              0.0000  XYY=              0.0000
  XXY=              2.8743  XXZ=              0.0000  XZZ=              0.0000  YZZ=              0.0000
  YYZ=              0.0000  XYZ=              0.0000
 Hexadecapole moment (field-independent basis, Debye-Ang**3):
 XXXX=            -63.0435 YYYY=            -63.0435 ZZZZ=            -15.2144 XXXY=              0.0000
 XXXZ=             -0.0000 YYYX=              0.0000 YYYZ=              0.0000 ZZZX=             -0.0000
 ZZZY=             -0.0000 XXYY=            -21.0145 XXZZ=            -12.8438 YYZZ=            -12.8438
 XXYZ=             -0.0000 YYXZ=             -0.0000 ZZXY=              0.0000
 N-N= 1.359643989264D+01 E-N=-6.094209100824D+02  KE= 2.436095789699D+02
 PrsmSu:  requested number of processors reduced to:  21 ShMem   1 Linda.
 No NMR shielding tensors so no spin-rotation constants.
 Leave Link  601 at Sat Apr 17 04:54:42 2021, MaxMem=   104857600 cpu:             254.8 elap:               5.5
 (Enter /s/ls4/users/knvvv/bin/g16sse/l9999.exe)

 Test job not archived.
 1\1\GINC-N178\Stability\RM062X\def2QZVP\Al1H3\KNVVV\17-Apr-2021\0\\#P 
 M062X/Def2QZVP Integral=UltraFineGrid SCF=NoSymm Stable=(RExt, Opt) IO
 p(1/33=1)\\Database calculations.\\0,1\Al,0,0.,0.,0.\H,0,-0.7926514,1.
 3729124,0.\H,0,-0.7926514,-1.3729124,0.\H,0,1.5853027,0.,0.\\Version=E
 S64L-G16RevA.03\State=1-A1'\HF=-244.1792329\RMSD=1.380e-09\Dipole=0.,0
 .,0.\Quadrupole=-1.5822526,-1.5822526,3.1645052,0.,0.,0.\PG=D03H [O(Al
 1),3C2(H1)]\\@


 The lyf so short, the craft so long to lerne.
                             -- Chaucer
 Job cpu time:       0 days  2 hours 21 minutes 37.6 seconds.
 Elapsed time:       0 days  0 hours  3 minutes 27.4 seconds.
 File lengths (MBytes):  RWF=     90 Int=      0 D2E=      0 Chk=      4 Scr=      1
 Normal termination of Gaussian 16 at Sat Apr 17 04:54:42 2021.
