 Entering Gaussian System, Link 0=/s/ls4/users/knvvv/bin/g16sse/g16
 Input=data/database/M062X--def2-QZVP--G2RC_1.gjf
 Output=data/database/M062X--def2-QZVP--G2RC_1.log
 Initial command:
 /s/ls4/users/knvvv/bin/g16sse/l1.exe "/s/ls4/users/knvvv/bin/scratch/Gau-13029.inp" -scrdir="/s/ls4/users/knvvv/bin/scratch/"
 Entering Link 1 = /s/ls4/users/knvvv/bin/g16sse/l1.exe PID=     13030.
  
 Copyright (c) 1988,1990,1992,1993,1995,1998,2003,2009,2016,
            Gaussian, Inc.  All Rights Reserved.
  
 This is part of the Gaussian(R) 16 program.  It is based on
 the Gaussian(R) 09 system (copyright 2009, Gaussian, Inc.),
 the Gaussian(R) 03 system (copyright 2003, Gaussian, Inc.),
 the Gaussian(R) 98 system (copyright 1998, Gaussian, Inc.),
 the Gaussian(R) 94 system (copyright 1995, Gaussian, Inc.),
 the Gaussian 92(TM) system (copyright 1992, Gaussian, Inc.),
 the Gaussian 90(TM) system (copyright 1990, Gaussian, Inc.),
 the Gaussian 88(TM) system (copyright 1988, Gaussian, Inc.),
 the Gaussian 86(TM) system (copyright 1986, Carnegie Mellon
 University), and the Gaussian 82(TM) system (copyright 1983,
 Carnegie Mellon University). Gaussian is a federally registered
 trademark of Gaussian, Inc.
  
 This software contains proprietary and confidential information,
 including trade secrets, belonging to Gaussian, Inc.
  
 This software is provided under written license and may be
 used, copied, transmitted, or stored only in accord with that
 written license.
  
 The following legend is applicable only to US Government
 contracts under FAR:
  
                    RESTRICTED RIGHTS LEGEND
  
 Use, reproduction and disclosure by the US Government is
 subject to restrictions as set forth in subparagraphs (a)
 and (c) of the Commercial Computer Software - Restricted
 Rights clause in FAR 52.227-19.
  
 Gaussian, Inc.
 340 Quinnipiac St., Bldg. 40, Wallingford CT 06492
  
  
 ---------------------------------------------------------------
 Warning -- This program may not be used in any manner that
 competes with the business of Gaussian, Inc. or will provide
 assistance to any competitor of Gaussian, Inc.  The licensee
 of this program is prohibited from giving any competitor of
 Gaussian, Inc. access to this program.  By using this program,
 the user acknowledges that Gaussian, Inc. is engaged in the
 business of creating and licensing software in the field of
 computational chemistry and represents and warrants to the
 licensee that it is not a competitor of Gaussian, Inc. and that
 it will not use this program in any manner prohibited above.
 ---------------------------------------------------------------
  

 Cite this work as:
 Gaussian 16, Revision A.03,
 M. J. Frisch, G. W. Trucks, H. B. Schlegel, G. E. Scuseria, 
 M. A. Robb, J. R. Cheeseman, G. Scalmani, V. Barone, 
 G. A. Petersson, H. Nakatsuji, X. Li, M. Caricato, A. V. Marenich, 
 J. Bloino, B. G. Janesko, R. Gomperts, B. Mennucci, H. P. Hratchian, 
 J. V. Ortiz, A. F. Izmaylov, J. L. Sonnenberg, D. Williams-Young, 
 F. Ding, F. Lipparini, F. Egidi, J. Goings, B. Peng, A. Petrone, 
 T. Henderson, D. Ranasinghe, V. G. Zakrzewski, J. Gao, N. Rega, 
 G. Zheng, W. Liang, M. Hada, M. Ehara, K. Toyota, R. Fukuda, 
 J. Hasegawa, M. Ishida, T. Nakajima, Y. Honda, O. Kitao, H. Nakai, 
 T. Vreven, K. Throssell, J. A. Montgomery, Jr., J. E. Peralta, 
 F. Ogliaro, M. J. Bearpark, J. J. Heyd, E. N. Brothers, K. N. Kudin, 
 V. N. Staroverov, T. A. Keith, R. Kobayashi, J. Normand, 
 K. Raghavachari, A. P. Rendell, J. C. Burant, S. S. Iyengar, 
 J. Tomasi, M. Cossi, J. M. Millam, M. Klene, C. Adamo, R. Cammi, 
 J. W. Ochterski, R. L. Martin, K. Morokuma, O. Farkas, 
 J. B. Foresman, and D. J. Fox, Gaussian, Inc., Wallingford CT, 2016.
 
 ******************************************
 Gaussian 16:  ES64L-G16RevA.03 25-Dec-2016
                17-Apr-2021 
 ******************************************
 %RWF=temp0_92486,70GB
 %nprocshared=48
 Will use up to   48 processors via shared memory.
 Default route: MaxDisk=80GB
 ----------------------------------------------------------------------
 #P M062X/Def2QZVP Integral=UltraFineGrid SCF=NoSymm Stable=(RExt, Opt)
  IOp(1/33=1)
 ----------------------------------------------------------------------
 1/33=1,38=1,172=1/1;
 2/12=2,17=6,18=5,40=1/2;
 3/5=45,7=101,11=2,25=1,30=1,74=-55,75=-5/1,2,3;
 4/9=2/1;
 5/5=2,38=5/2;
 6/7=2,8=2,9=2,10=2,28=1/1;
 8/6=1,10=90,11=11/1;
 9/8=-3,42=1,46=1/14;
 5/5=2,8=3,17=40,38=5/8(-2);
 6/7=2,8=2,9=2,10=2,28=1/1;
 99/5=1,9=1/99;
 Leave Link    1 at Sat Apr 17 00:22:43 2021, MaxMem=           0 cpu:               8.5 elap:               0.2
 (Enter /s/ls4/users/knvvv/bin/g16sse/l101.exe)
 ONIOM data not found on unit 2.
 ----------------------
 Database calculations.
 ----------------------
 TstMul:  ICh=     0
 TstMul:  Mul=     1
 TstMul:  ICh=     0
 TstMul:  Mul=     1
 Symbolic Z-matrix:
 Charge =  0 Multiplicity = 1
 H                     0.        0.       -0.37159 
 H                     0.        0.        0.37159 
 
 RdStrC is calling ZToCFu for IStruc=1 NZ=     2.
 PrtBox:  NBox=     1 Levels=  0 BoxLen=    8.00 SMaxX=        1.40
          Shift=            0.000000            0.000000            0.702206
 Box      1 Number                   0 centers from      1 to      2:
 After GenITR:
 ITRead=  0  0
 MicOpt= -1 -1
 ITRead=  0  0
 MicOpt= -1 -1
 NAtoms=      2 NQM=        2 NQMF=       0 NMMI=      0 NMMIF=      0
                NMic=       0 NMicF=      0.
                    Isotopes and Nuclear Properties:
 (Nuclear quadrupole moments (NQMom) in fm**2, nuclear magnetic moments (NMagM)
  in nuclear magnetons)

  Atom         1           2
 IAtWgt=           1           1
 AtmWgt=   1.0078250   1.0078250
 NucSpn=           1           1
 AtZEff=  -0.0000000  -0.0000000
 NQMom=    0.0000000   0.0000000
 NMagM=    2.7928460   2.7928460
 AtZNuc=   1.0000000   1.0000000
 No MM parameters found.
 Leave Link  101 at Sat Apr 17 00:22:43 2021, MaxMem=   104857600 cpu:               8.2 elap:               0.2
 (Enter /s/ls4/users/knvvv/bin/g16sse/l202.exe)
                          Input orientation:                          
 ---------------------------------------------------------------------
 Center     Atomic      Atomic             Coordinates (Angstroms)
 Number     Number       Type             X           Y           Z
 ---------------------------------------------------------------------
      1          1           0        0.000000    0.000000   -0.371591
      2          1           0        0.000000    0.000000    0.371591
 ---------------------------------------------------------------------
 Stoichiometry    H2
 Framework group  D*H[C*(H.H)]
 Deg. of freedom     1
 Full point group                 D*H     NOp   8
 Largest Abelian subgroup         D2H     NOp   8
 Largest concise Abelian subgroup C2      NOp   2
                         Standard orientation:                         
 ---------------------------------------------------------------------
 Center     Atomic      Atomic             Coordinates (Angstroms)
 Number     Number       Type             X           Y           Z
 ---------------------------------------------------------------------
      1          1           0        0.000000    0.000000    0.371591
      2          1           0        0.000000    0.000000   -0.371591
 ---------------------------------------------------------------------
 Rotational constants (GHZ):           0.0000000        1815.8139027        1815.8139027
 Leave Link  202 at Sat Apr 17 00:22:43 2021, MaxMem=   104857600 cpu:              10.6 elap:               0.2
 (Enter /s/ls4/users/knvvv/bin/g16sse/l301.exe)
 Standard basis: def2QZVP (5D, 7F)
 Ernie: Thresh=  0.10000D-02 Tol=  0.10000D-05 Strict=F.
 There are    16 symmetry adapted cartesian basis functions of AG  symmetry.
 There are     3 symmetry adapted cartesian basis functions of B1G symmetry.
 There are     8 symmetry adapted cartesian basis functions of B2G symmetry.
 There are     8 symmetry adapted cartesian basis functions of B3G symmetry.
 There are     3 symmetry adapted cartesian basis functions of AU  symmetry.
 There are    16 symmetry adapted cartesian basis functions of B1U symmetry.
 There are     8 symmetry adapted cartesian basis functions of B2U symmetry.
 There are     8 symmetry adapted cartesian basis functions of B3U symmetry.
 There are    13 symmetry adapted basis functions of AG  symmetry.
 There are     3 symmetry adapted basis functions of B1G symmetry.
 There are     7 symmetry adapted basis functions of B2G symmetry.
 There are     7 symmetry adapted basis functions of B3G symmetry.
 There are     3 symmetry adapted basis functions of AU  symmetry.
 There are    13 symmetry adapted basis functions of B1U symmetry.
 There are     7 symmetry adapted basis functions of B2U symmetry.
 There are     7 symmetry adapted basis functions of B3U symmetry.
    60 basis functions,    76 primitive gaussians,    70 cartesian basis functions
     1 alpha electrons        1 beta electrons
       nuclear repulsion energy         0.7120422689 Hartrees.
 IExCor= 4336 DFT=T Ex+Corr=M062X ExCW=0 ScaHFX=  0.540000
 ScaDFX=  1.000000  1.000000  1.000000  1.000000 ScalE2=  1.000000  1.000000
 IRadAn=      5 IRanWt=     -1 IRanGd=            0 ICorTp=0 IEmpDi=  4
 NAtoms=    2 NActive=    2 NUniq=    1 SFac= 4.00D+00 NAtFMM=   60 NAOKFM=F Big=F
 Integral buffers will be    131072 words long.
 Raffenetti 2 integral format.
 Two-electron integral symmetry is turned on.
 Leave Link  301 at Sat Apr 17 00:22:43 2021, MaxMem=   104857600 cpu:               5.7 elap:               0.1
 (Enter /s/ls4/users/knvvv/bin/g16sse/l302.exe)
 NPDir=0 NMtPBC=     1 NCelOv=     1 NCel=       1 NClECP=     1 NCelD=      1
         NCelK=      1 NCelE2=     1 NClLst=     1 CellRange=     0.0.
 One-electron integrals computed using PRISM.
 One-electron integral symmetry used in STVInt
 PrsmSu:  requested number of processors reduced to:  13 ShMem   1 Linda.
   8 Symmetry operations used in ECPInt.
 ECPInt:  NShTT=     210 NPrTT=     363 LenC2=     211 LenP2D=     362.
 LDataN:  DoStor=T MaxTD1= 6 Len=  172
 NBasis=    60 RedAO= T EigKep=  1.65D-04  NBF=    13     3     7     7     3    13     7     7
 NBsUse=    60 1.00D-06 EigRej= -1.00D+00 NBFU=    13     3     7     7     3    13     7     7
 Precomputing XC quadrature grid using
 IXCGrd= 4 IRadAn=           5 IRanWt=          -1 IRanGd=           0 AccXCQ= 0.00D+00.
 Generated NRdTot=       0 NPtTot=           0 NUsed=           0 NTot=          32
 NSgBfM=    70    70    70    70    70 MxSgAt=     2 MxSgA2=     2.
 Leave Link  302 at Sat Apr 17 00:22:46 2021, MaxMem=   104857600 cpu:             125.7 elap:               2.7
 (Enter /s/ls4/users/knvvv/bin/g16sse/l303.exe)
 DipDrv:  MaxL=1.
 Leave Link  303 at Sat Apr 17 00:22:46 2021, MaxMem=   104857600 cpu:              16.7 elap:               0.4
 (Enter /s/ls4/users/knvvv/bin/g16sse/l401.exe)
 SCF N**3 symmetry information disabled.
 ExpMin= 8.03D-02 ExpMax= 1.91D+02 ExpMxC= 2.86D+01 IAcc=3 IRadAn=         5 AccDes= 0.00D+00
 Harris functional with IExCor= 1009 and IRadAn=       5 diagonalized for initial guess.
 HarFok:  IExCor= 1009 AccDes= 0.00D+00 IRadAn=         5 IDoV= 1 UseB2=F ITyADJ=14
 ICtDFT=  3500011 ScaDFX=  1.000000  1.000000  1.000000  1.000000
 FoFCou: FMM=F IPFlag=           0 FMFlag=      100000 FMFlg1=           0
         NFxFlg=           0 DoJE=T BraDBF=F KetDBF=T FulRan=T
         wScrn=  0.000000 ICntrl=       500 IOpCl=  0 I1Cent=   200000004 NGrid=           0
         NMat0=    1 NMatS0=      1 NMatT0=    0 NMatD0=    1 NMtDS0=    0 NMtDT0=    0
 Petite list used in FoFCou.
 Harris En= -1.18215128867804    
 JPrj=0 DoOrth=F DoCkMO=F.
 Initial guess orbital symmetries:
       Occupied  (SGG)
       Virtual   (SGU) (SGG) (SGU) (PIU) (PIU) (SGG) (PIG) (PIG)
                 (SGG) (SGU) (SGU) (DLTG) (DLTG) (PIU) (PIU) (SGG)
                 (PIG) (PIG) (PIU) (PIU) (DLTU) (DLTU) (SGU) (SGG)
                 (PIG) (PIG) (SGU) (SGG) (PHIU) (PHIU) (SGU) (DLTG)
                 (DLTG) (PHIG) (PHIG) (PIU) (PIU) (SGG) (PIG) (PIG)
                 (DLTU) (DLTU) (DLTG) (DLTG) (PIU) (PIU) (PIG)
                 (PIG) (SGG) (SGU) (PIU) (PIU) (DLTU) (DLTU) (SGU)
                 (PIG) (PIG) (SGU) (SGG)
 The electronic state of the initial guess is 1-SGG.
 Leave Link  401 at Sat Apr 17 00:22:48 2021, MaxMem=   104857600 cpu:              78.9 elap:               1.7
 (Enter /s/ls4/users/knvvv/bin/g16sse/l502.exe)
 Keep R1 ints in memory in symmetry-blocked form, NReq=44538721.
 FoFCou: FMM=F IPFlag=           0 FMFlag=           0 FMFlg1=           0
         NFxFlg=           0 DoJE=F BraDBF=F KetDBF=F FulRan=T
         wScrn=  0.000000 ICntrl=       600 IOpCl=  0 I1Cent=           0 NGrid=           0
         NMat0=    1 NMatS0=   1830 NMatT0=    0 NMatD0=    1 NMtDS0=    0 NMtDT0=    0
 Petite list used in FoFCou.
 Closed shell SCF:
 Using DIIS extrapolation, IDIIS=  1040.
 NGot=   104857600 LenX=   104618559 LenY=   104613218
 Requested convergence on RMS density matrix=1.00D-08 within 128 cycles.
 Requested convergence on MAX density matrix=1.00D-06.
 Requested convergence on             energy=1.00D-06.
 No special actions if energy rises.
 Integral accuracy reduced to 1.0D-05 until final iterations.

 Cycle   1  Pass 0  IDiag  1:
 E= -1.16505863705984    
 DIIS: error= 1.65D-02 at cycle   1 NSaved=   1.
 NSaved= 1 IEnMin= 1 EnMin= -1.16505863705984     IErMin= 1 ErrMin= 1.65D-02
 ErrMax= 1.65D-02  0.00D+00 EMaxC= 1.00D-01 BMatC= 2.99D-03 BMatP= 2.99D-03
 IDIUse=3 WtCom= 8.35D-01 WtEn= 1.65D-01
 Coeff-Com:  0.100D+01
 Coeff-En:   0.100D+01
 Coeff:      0.100D+01
 Gap=     0.583 Goal=   None    Shift=    0.000
 GapD=    0.583 DampG=2.000 DampE=0.500 DampFc=1.0000 IDamp=-1.
 RMSDP=4.96D-04 MaxDP=8.19D-03              OVMax= 4.86D-02

 Cycle   2  Pass 0  IDiag  1:
 E= -1.16927312089919     Delta-E=       -0.004214483839 Rises=F Damp=F
 DIIS: error= 2.49D-03 at cycle   2 NSaved=   2.
 NSaved= 2 IEnMin= 2 EnMin= -1.16927312089919     IErMin= 2 ErrMin= 2.49D-03
 ErrMax= 2.49D-03  0.00D+00 EMaxC= 1.00D-01 BMatC= 5.63D-05 BMatP= 2.99D-03
 IDIUse=3 WtCom= 9.75D-01 WtEn= 2.49D-02
 Coeff-Com:  0.749D-01 0.925D+00
 Coeff-En:   0.000D+00 0.100D+01
 Coeff:      0.731D-01 0.927D+00
 Gap=     0.571 Goal=   None    Shift=    0.000
 RMSDP=4.80D-05 MaxDP=1.00D-03 DE=-4.21D-03 OVMax= 2.20D-03

 Cycle   3  Pass 0  IDiag  1:
 E= -1.16929847209130     Delta-E=       -0.000025351192 Rises=F Damp=F
 DIIS: error= 3.72D-04 at cycle   3 NSaved=   3.
 NSaved= 3 IEnMin= 3 EnMin= -1.16929847209130     IErMin= 3 ErrMin= 3.72D-04
 ErrMax= 3.72D-04  0.00D+00 EMaxC= 1.00D-01 BMatC= 1.10D-06 BMatP= 5.63D-05
 IDIUse=3 WtCom= 9.96D-01 WtEn= 3.72D-03
 Coeff-Com: -0.120D-01-0.135D+00 0.115D+01
 Coeff-En:   0.000D+00 0.000D+00 0.100D+01
 Coeff:     -0.120D-01-0.134D+00 0.115D+01
 Gap=     0.572 Goal=   None    Shift=    0.000
 RMSDP=5.87D-06 MaxDP=1.00D-04 DE=-2.54D-05 OVMax= 3.04D-04

 Initial convergence to 1.0D-05 achieved.  Increase integral accuracy.
 Cycle   4  Pass 1  IDiag  1:
 E= -1.16948487970451     Delta-E=       -0.000186407613 Rises=F Damp=F
 DIIS: error= 1.11D-03 at cycle   1 NSaved=   1.
 NSaved= 1 IEnMin= 1 EnMin= -1.16948487970451     IErMin= 1 ErrMin= 1.11D-03
 ErrMax= 1.11D-03  0.00D+00 EMaxC= 1.00D-01 BMatC= 1.54D-05 BMatP= 1.54D-05
 IDIUse=3 WtCom= 9.89D-01 WtEn= 1.11D-02
 Coeff-Com:  0.100D+01
 Coeff-En:   0.100D+01
 Coeff:      0.100D+01
 Gap=     0.572 Goal=   None    Shift=    0.000
 RMSDP=5.87D-06 MaxDP=1.00D-04 DE=-1.86D-04 OVMax= 5.30D-04

 Cycle   5  Pass 1  IDiag  1:
 E= -1.16948951315274     Delta-E=       -0.000004633448 Rises=F Damp=F
 DIIS: error= 2.07D-04 at cycle   2 NSaved=   2.
 NSaved= 2 IEnMin= 2 EnMin= -1.16948951315274     IErMin= 2 ErrMin= 2.07D-04
 ErrMax= 2.07D-04  0.00D+00 EMaxC= 1.00D-01 BMatC= 4.11D-07 BMatP= 1.54D-05
 IDIUse=3 WtCom= 9.98D-01 WtEn= 2.07D-03
 Coeff-Com: -0.184D+00 0.118D+01
 Coeff-En:   0.000D+00 0.100D+01
 Coeff:     -0.183D+00 0.118D+01
 Gap=     0.572 Goal=   None    Shift=    0.000
 RMSDP=2.32D-06 MaxDP=3.40D-05 DE=-4.63D-06 OVMax= 1.28D-04

 Cycle   6  Pass 1  IDiag  1:
 E= -1.16948964948006     Delta-E=       -0.000000136327 Rises=F Damp=F
 DIIS: error= 9.60D-06 at cycle   3 NSaved=   3.
 NSaved= 3 IEnMin= 3 EnMin= -1.16948964948006     IErMin= 3 ErrMin= 9.60D-06
 ErrMax= 9.60D-06  0.00D+00 EMaxC= 1.00D-01 BMatC= 1.28D-09 BMatP= 4.11D-07
 IDIUse=1 WtCom= 1.00D+00 WtEn= 0.00D+00
 Coeff-Com:  0.107D-01-0.108D+00 0.110D+01
 Coeff:      0.107D-01-0.108D+00 0.110D+01
 Gap=     0.572 Goal=   None    Shift=    0.000
 RMSDP=1.36D-07 MaxDP=2.07D-06 DE=-1.36D-07 OVMax= 9.12D-06

 Cycle   7  Pass 1  IDiag  1:
 E= -1.16948964991252     Delta-E=       -0.000000000432 Rises=F Damp=F
 DIIS: error= 2.44D-06 at cycle   4 NSaved=   4.
 NSaved= 4 IEnMin= 4 EnMin= -1.16948964991252     IErMin= 4 ErrMin= 2.44D-06
 ErrMax= 2.44D-06  0.00D+00 EMaxC= 1.00D-01 BMatC= 4.04D-11 BMatP= 1.28D-09
 IDIUse=1 WtCom= 1.00D+00 WtEn= 0.00D+00
 Coeff-Com:  0.399D-02-0.181D-01-0.128D+00 0.114D+01
 Coeff:      0.399D-02-0.181D-01-0.128D+00 0.114D+01
 Gap=     0.572 Goal=   None    Shift=    0.000
 RMSDP=4.92D-08 MaxDP=5.59D-07 DE=-4.32D-10 OVMax= 1.06D-06

 Cycle   8  Pass 1  IDiag  1:
 E= -1.16948964992213     Delta-E=       -0.000000000010 Rises=F Damp=F
 DIIS: error= 7.07D-08 at cycle   5 NSaved=   5.
 NSaved= 5 IEnMin= 5 EnMin= -1.16948964992213     IErMin= 5 ErrMin= 7.07D-08
 ErrMax= 7.07D-08  0.00D+00 EMaxC= 1.00D-01 BMatC= 4.76D-14 BMatP= 4.04D-11
 IDIUse=1 WtCom= 1.00D+00 WtEn= 0.00D+00
 Coeff-Com: -0.253D-03 0.142D-02 0.415D-02-0.574D-01 0.105D+01
 Coeff:     -0.253D-03 0.142D-02 0.415D-02-0.574D-01 0.105D+01
 Gap=     0.572 Goal=   None    Shift=    0.000
 RMSDP=3.22D-09 MaxDP=3.84D-08 DE=-9.62D-12 OVMax= 1.00D-07

 SCF Done:  E(RM062X) =  -1.16948964992     A.U. after    8 cycles
            NFock=  8  Conv=0.32D-08     -V/T= 2.0257
 KE= 1.140155980602D+00 PE=-3.644294092849D+00 EE= 6.226061934694D-01
 Leave Link  502 at Sat Apr 17 00:22:57 2021, MaxMem=   104857600 cpu:             422.4 elap:               9.0
 (Enter /s/ls4/users/knvvv/bin/g16sse/l601.exe)
 Copying SCF densities to generalized density rwf, IOpCl= 0 IROHF=0.

 **********************************************************************

            Population analysis using the SCF density.

 **********************************************************************

 Orbital symmetries:
       Occupied  (SGG)
       Virtual   (SGU) (SGG) (SGU) (PIU) (PIU) (SGG) (PIG) (PIG)
                 (SGG) (SGU) (SGU) (DLTG) (DLTG) (PIU) (PIU) (SGG)
                 (PIG) (PIG) (PIU) (PIU) (DLTU) (DLTU) (SGU) (SGG)
                 (PIG) (PIG) (SGU) (SGG) (PHIU) (PHIU) (SGU) (DLTG)
                 (DLTG) (PHIG) (PHIG) (PIG) (PIG) (SGG) (DLTU)
                 (DLTU) (PIU) (PIU) (DLTG) (DLTG) (SGU) (PIG) (PIG)
                 (SGG) (PIU) (PIU) (DLTU) (DLTU) (PIU) (PIU) (SGU)
                 (PIG) (PIG) (SGG) (SGU)
 The electronic state is 1-SGG.
 Alpha  occ. eigenvalues --   -0.49636
 Alpha virt. eigenvalues --    0.07520   0.13575   0.35467   0.41698   0.41698
 Alpha virt. eigenvalues --    0.70049   0.72273   0.72273   0.90570   0.93094
 Alpha virt. eigenvalues --    1.54398   1.73861   1.73861   1.98954   1.98954
 Alpha virt. eigenvalues --    2.19159   2.19764   2.19764   2.35803   2.35803
 Alpha virt. eigenvalues --    2.35991   2.35991   2.51705   2.80439   3.34881
 Alpha virt. eigenvalues --    3.34881   4.46601   4.76968   5.23738   5.23738
 Alpha virt. eigenvalues --    5.82244   5.85158   5.85158   6.24493   6.24493
 Alpha virt. eigenvalues --    6.64545   6.64545   6.94245   7.12206   7.12206
 Alpha virt. eigenvalues --    7.21463   7.21463   7.45657   7.45659   7.94391
 Alpha virt. eigenvalues --    7.99708   7.99708   8.05986   8.20762   8.20762
 Alpha virt. eigenvalues --    8.58406   8.58409   9.07526   9.07526   9.84968
 Alpha virt. eigenvalues --   12.55921  12.55921  13.35640  17.20028
          Condensed to atoms (all electrons):
               1          2
     1  H    0.581130   0.418870
     2  H    0.418870   0.581130
 Mulliken charges:
               1
     1  H   -0.000000
     2  H   -0.000000
 Sum of Mulliken charges =  -0.00000
 Mulliken charges with hydrogens summed into heavy atoms:
               1
 Electronic spatial extent (au):  <R**2>=              5.1986
 Charge=             -0.0000 electrons
 Dipole moment (field-independent basis, Debye):
    X=             -0.0000    Y=             -0.0000    Z=             -0.0000  Tot=              0.0000
 Quadrupole moment (field-independent basis, Debye-Ang):
   XX=             -2.0920   YY=             -2.0920   ZZ=             -1.4818
   XY=              0.0000   XZ=             -0.0000   YZ=              0.0000
 Traceless Quadrupole moment (field-independent basis, Debye-Ang):
   XX=             -0.2034   YY=             -0.2034   ZZ=              0.4068
   XY=              0.0000   XZ=             -0.0000   YZ=              0.0000
 Octapole moment (field-independent basis, Debye-Ang**2):
  XXX=             -0.0000  YYY=             -0.0000  ZZZ=             -0.0000  XYY=             -0.0000
  XXY=             -0.0000  XXZ=             -0.0000  XZZ=             -0.0000  YZZ=             -0.0000
  YYZ=             -0.0000  XYZ=             -0.0000
 Hexadecapole moment (field-independent basis, Debye-Ang**3):
 XXXX=             -2.1429 YYYY=             -2.1429 ZZZZ=             -2.9072 XXXY=              0.0000
 XXXZ=              0.0000 YYYX=              0.0000 YYYZ=              0.0000 ZZZX=              0.0000
 ZZZY=              0.0000 XXYY=             -0.7143 XXZZ=             -0.8603 YYZZ=             -0.8603
 XXYZ=              0.0000 YYXZ=              0.0000 ZZXY=              0.0000
 N-N= 7.120422688555D-01 E-N=-3.644294104882D+00  KE= 1.140155980602D+00
 No NMR shielding tensors so no spin-rotation constants.
 Leave Link  601 at Sat Apr 17 00:22:59 2021, MaxMem=   104857600 cpu:              67.2 elap:               1.5
 (Enter /s/ls4/users/knvvv/bin/g16sse/l801.exe)
 DoSCS=F DFT=T ScalE2(SS,OS)=  1.000000  1.000000
 Range of M.O.s used for correlation:     1    60
 NBasis=    60 NAE=     1 NBE=     1 NFC=     0 NFV=     0
 NROrb=     60 NOA=     1 NOB=     1 NVA=    59 NVB=    59

 **** Warning!!: The largest alpha MO coefficient is  0.24536641D+02

 Leave Link  801 at Sat Apr 17 00:22:59 2021, MaxMem=   104857600 cpu:               3.2 elap:               0.1
 (Enter /s/ls4/users/knvvv/bin/g16sse/l914.exe)
 RHF ground state
 Doing stability rather than CIS.
 Keep R1 and R2 ints in memory in symmetry-blocked form, NReq=100744901.
 FoFCou: FMM=F IPFlag=           0 FMFlag=           0 FMFlg1=           0
         NFxFlg=           0 DoJE=F BraDBF=F KetDBF=F FulRan=T
         wScrn=  0.000000 ICntrl=       600 IOpCl=  0 I1Cent=           0 NGrid=           0
         NMat0=    1 NMatS0=   1830 NMatT0=    0 NMatD0=    1 NMtDS0=    0 NMtDT0=    0
 Petite list used in FoFCou.
 MDV=   104857600 DFT=T DoStab=T Mixed=T DoRPA=F DoScal=F NonHer=F
 Making orbital integer symmetry assigments:
 Orbital symmetries:
       Occupied  (SGG)
       Virtual   (SGU) (SGG) (SGU) (PIU) (PIU) (SGG) (PIG) (PIG)
                 (SGG) (SGU) (SGU) (DLTG) (DLTG) (PIU) (PIU) (SGG)
                 (PIG) (PIG) (PIU) (PIU) (DLTU) (DLTU) (SGU) (SGG)
                 (PIG) (PIG) (SGU) (SGG) (PHIU) (PHIU) (SGU) (DLTG)
                 (DLTG) (PHIG) (PHIG) (PIG) (PIG) (SGG) (DLTU)
                 (DLTU) (PIU) (PIU) (DLTG) (DLTG) (SGU) (PIG) (PIG)
                 (SGG) (PIU) (PIU) (DLTU) (DLTU) (PIU) (PIU) (SGU)
                 (PIG) (PIG) (SGG) (SGU)
    48 initial guesses have been made.
 Convergence on wavefunction:    0.001000000000000
 Davidson Disk Diagonalization:  ConvIn= 1.00D-03 SkipCon=T Conv= 1.00D-03.
 Max sub-space:   236 roots to seek:    48 dimension of matrix:          118
 Iteration     1 Dimension    48 NMult     0 NNew     48
 CISAX will form    48 AO SS matrices at one time.
 NMat=    48 NSing=    24 JSym2X= 2.
 New state      1 was old state      2
 Excitation Energies [eV] at current iteration:
 Root      1 :    10.226184293646450
 Root      2 :    13.255505963844370
 Root      3 :    13.305075760634280
 Root      4 :    15.574374634849490
 Root      5 :    17.696991080605710
 Root      6 :    17.936766331605500
 Root      7 :    17.936766331605740
 Root      8 :    22.369697451060850
 Root      9 :    22.369697451061120
 Root     10 :    23.064507743349300
 Root     11 :    27.333708213359540
 Root     12 :    27.910956900225470
 Root     13 :    27.910956900225760
 Root     14 :    28.045974007419720
 Root     15 :    28.045974007420100
 Root     16 :    28.439976191945740
 Root     17 :    31.857826862004220
 Root     18 :    33.947868200331980
 Root     19 :    34.284911470115680
 Root     20 :    37.661263775156520
 Root     21 :    49.337032481281130
 Root     22 :    53.660323997779900
 Root     23 :    54.252550322284040
 Root     24 :    54.252600285141360
 Root     25 :    54.509002439473240
 Root     26 :    54.509053244866130
 Root     27 :    62.955764768661350
 Root     28 :    62.955764768661600
 Root     29 :    65.130053572713560
 Root     30 :    65.130053572713980
 Root     31 :    66.343424916972890
 Root     32 :    66.343424916973360
 Root     33 :    67.016394747296660
 Root     34 :    67.016394747297500
 Root     35 :    67.183413036106000
 Root     36 :    67.556395276647380
 Root     37 :    67.853792429637860
 Root     38 :    67.853799489911340
 Root     39 :    68.370131364743290
 Root     40 :    68.370131364743610
 Root     41 :    68.781926934584830
 Root     42 :    68.781933892990490
 Root     43 :    68.993806347472560
 Root     44 :    68.993806347472950
 Root     45 :    72.827547259728040
 Root     46 :    74.130999358838390
 Root     47 :    91.425696241222920
 Root     48 :    91.855062377022830
 Iteration     2 Dimension    94 NMult    48 NNew     46
 CISAX will form    46 AO SS matrices at one time.
 NMat=    46 NSing=    23 JSym2X= 2.
 Root      1 not converged, maximum delta is    0.021111956571455
 Excitation Energies [eV] at current iteration:
 Root      1 :     9.862818345186069   Change is   -0.363365948460378
 Root      2 :    13.215848646128780   Change is   -0.039657317715587
 Root      3 :    13.299093392252310   Change is   -0.005982368381977
 Root      4 :    15.566837732480070   Change is   -0.007536902369410
 Root      5 :    17.450870799612780   Change is   -0.246120280992926
 Root      6 :    17.572630319285920   Change is   -0.364136012319824
 Root      7 :    17.572630319285970   Change is   -0.364136012319531
 Root      8 :    22.278870239885800   Change is   -0.090827211175049
 Root      9 :    22.278870239886090   Change is   -0.090827211175031
 Root     10 :    22.911648872686680   Change is   -0.152858870662628
 Root     11 :    27.161674577729690   Change is   -0.172033635629848
 Root     12 :    27.777227182757880   Change is   -0.133729717467593
 Root     13 :    27.777227182757950   Change is   -0.133729717467811
 Root     14 :    27.902952986230640   Change is   -0.143021021189077
 Root     15 :    27.902952986230820   Change is   -0.143021021189288
 Root     16 :    28.318723836699410   Change is   -0.121252355246335
 Root     17 :    31.826367316531350   Change is   -0.031459545472870
 Root     18 :    33.629038481695910   Change is   -0.318829718636074
 Root     19 :    34.146787928938450   Change is   -0.138123541177228
 Root     20 :    37.448679510824610   Change is   -0.212584264331910
 Root     21 :    47.309700113597730   Change is   -2.027332367683399
 Root     22 :    52.541858113396640   Change is   -1.118465884383276
 Root     23 :    54.208192397318680   Change is   -0.044357924965360
 Root     24 :    54.208224440696840   Change is   -0.044375844444525
 Root     25 :    54.493791549897530   Change is   -0.015210889575702
 Root     26 :    54.493832716217260   Change is   -0.015220528648877
 Root     27 :    60.083691050645480   Change is   -2.872073718015874
 Root     28 :    60.083691050645620   Change is   -2.872073718015983
 Root     29 :    63.478177913663470   Change is   -1.651875659050507
 Root     30 :    63.478177913663490   Change is   -1.651875659050084
 Root     31 :    65.501904620831610   Change is   -0.841520296141292
 Root     32 :    65.501904620831780   Change is   -0.841520296141570
 Root     33 :    66.173733847163850   Change is   -0.842660900132815
 Root     34 :    66.173733847164670   Change is   -0.842660900132839
 Root     35 :    66.374232902499510   Change is   -0.809180133606485
 Root     36 :    67.052328171129010   Change is   -0.504067105518361
 Root     37 :    67.692788844838670   Change is   -0.161003584799196
 Root     38 :    67.692798009998460   Change is   -0.161001479912881
 Root     39 :    68.013401903082070   Change is   -0.356729461661211
 Root     40 :    68.013401903082230   Change is   -0.356729461661393
 Root     41 :    68.653054201421090   Change is   -0.128872733163751
 Root     42 :    68.653062901357730   Change is   -0.128870991632766
 Root     43 :    68.797154992948580   Change is   -0.196651354523973
 Root     44 :    68.797154992949020   Change is   -0.196651354523949
 Root     45 :    72.573833867524130   Change is   -0.253713392203900
 Root     46 :    73.897093245124940   Change is   -0.233906113713467
 Root     47 :    90.175791263976120   Change is   -1.249904977246803
 Root     48 :    90.752167984674240   Change is   -1.102894392348581
 Convergence achieved on expansion vectors.
 ***********************************************************************
 Stability analysis using <AA,BB:AA,BB> singles matrix:
 ***********************************************************************
 1PDM for each excited state written to RWF  633
 Ground to excited state transition densities written to RWF  633

 Eigenvectors of the stability matrix:
 
 Eigenvector   1:      Triplet-SGU  Eigenvalue= 0.3624519  <S**2>=2.000
       1 ->  2         0.62258
       1 ->  4         0.31851
 
 Eigenvector   2:      Singlet-SGU  Eigenvalue= 0.4856735  <S**2>=0.000
       1 ->  2         0.70140
 
 Eigenvector   3:      Triplet-SGG  Eigenvalue= 0.4887327  <S**2>=2.000
       1 ->  3         0.69764
 
 Eigenvector   4:      Singlet-SGG  Eigenvalue= 0.5720708  <S**2>=0.000
       1 ->  3         0.70419
 
 Eigenvector   5:      Triplet-SGU  Eigenvalue= 0.6413077  <S**2>=2.000
       1 ->  2        -0.33222
       1 ->  4         0.61441
 
 Excited state symmetry could not be determined.
 Eigenvector   6:      Triplet-?Sym  Eigenvalue= 0.6457823  <S**2>=2.000
       1 ->  5        -0.35112
       1 ->  6         0.61192
 The wavefunction is stable under the perturbations considered.
 Leave Link  914 at Sat Apr 17 00:23:08 2021, MaxMem=   104857600 cpu:             455.0 elap:               9.7
 (Enter /s/ls4/users/knvvv/bin/g16sse/l508.exe)
 The wavefunction is already stable.
 Leave Link  508 at Sat Apr 17 00:23:09 2021, MaxMem=   104857600 cpu:               2.3 elap:               0.1
 (Enter /s/ls4/users/knvvv/bin/g16sse/l601.exe)
 Copying SCF densities to generalized density rwf, IOpCl= 0 IROHF=0.

 **********************************************************************

            Population analysis using the SCF density.

 **********************************************************************

 Orbital symmetries:
       Occupied  (SGG)
       Virtual   (SGU) (SGG) (SGU) (PIU) (PIU) (SGG) (PIG) (PIG)
                 (SGG) (SGU) (SGU) (DLTG) (DLTG) (PIU) (PIU) (SGG)
                 (PIG) (PIG) (PIU) (PIU) (DLTU) (DLTU) (SGU) (SGG)
                 (PIG) (PIG) (SGU) (SGG) (PHIU) (PHIU) (SGU) (DLTG)
                 (DLTG) (PHIG) (PHIG) (PIG) (PIG) (SGG) (DLTU)
                 (DLTU) (PIU) (PIU) (DLTG) (DLTG) (SGU) (PIG) (PIG)
                 (SGG) (PIU) (PIU) (DLTU) (DLTU) (PIU) (PIU) (SGU)
                 (PIG) (PIG) (SGG) (SGU)
 The electronic state is 1-SGG.
 Alpha  occ. eigenvalues --   -0.49636
 Alpha virt. eigenvalues --    0.07520   0.13575   0.35467   0.41698   0.41698
 Alpha virt. eigenvalues --    0.70049   0.72273   0.72273   0.90570   0.93094
 Alpha virt. eigenvalues --    1.54398   1.73861   1.73861   1.98954   1.98954
 Alpha virt. eigenvalues --    2.19159   2.19764   2.19764   2.35803   2.35803
 Alpha virt. eigenvalues --    2.35991   2.35991   2.51705   2.80439   3.34881
 Alpha virt. eigenvalues --    3.34881   4.46601   4.76968   5.23738   5.23738
 Alpha virt. eigenvalues --    5.82244   5.85158   5.85158   6.24493   6.24493
 Alpha virt. eigenvalues --    6.64545   6.64545   6.94245   7.12206   7.12206
 Alpha virt. eigenvalues --    7.21463   7.21463   7.45657   7.45659   7.94391
 Alpha virt. eigenvalues --    7.99708   7.99708   8.05986   8.20762   8.20762
 Alpha virt. eigenvalues --    8.58406   8.58409   9.07526   9.07526   9.84968
 Alpha virt. eigenvalues --   12.55921  12.55921  13.35640  17.20028
          Condensed to atoms (all electrons):
               1          2
     1  H    0.581130   0.418870
     2  H    0.418870   0.581130
 Mulliken charges:
               1
     1  H   -0.000000
     2  H   -0.000000
 Sum of Mulliken charges =  -0.00000
 Mulliken charges with hydrogens summed into heavy atoms:
               1
 Electronic spatial extent (au):  <R**2>=              5.1986
 Charge=             -0.0000 electrons
 Dipole moment (field-independent basis, Debye):
    X=             -0.0000    Y=             -0.0000    Z=             -0.0000  Tot=              0.0000
 Quadrupole moment (field-independent basis, Debye-Ang):
   XX=             -2.0920   YY=             -2.0920   ZZ=             -1.4818
   XY=              0.0000   XZ=             -0.0000   YZ=              0.0000
 Traceless Quadrupole moment (field-independent basis, Debye-Ang):
   XX=             -0.2034   YY=             -0.2034   ZZ=              0.4068
   XY=              0.0000   XZ=             -0.0000   YZ=              0.0000
 Octapole moment (field-independent basis, Debye-Ang**2):
  XXX=             -0.0000  YYY=             -0.0000  ZZZ=             -0.0000  XYY=             -0.0000
  XXY=             -0.0000  XXZ=             -0.0000  XZZ=             -0.0000  YZZ=             -0.0000
  YYZ=             -0.0000  XYZ=             -0.0000
 Hexadecapole moment (field-independent basis, Debye-Ang**3):
 XXXX=             -2.1429 YYYY=             -2.1429 ZZZZ=             -2.9072 XXXY=              0.0000
 XXXZ=              0.0000 YYYX=              0.0000 YYYZ=              0.0000 ZZZX=              0.0000
 ZZZY=              0.0000 XXYY=             -0.7143 XXZZ=             -0.8603 YYZZ=             -0.8603
 XXYZ=              0.0000 YYXZ=              0.0000 ZZXY=              0.0000
 N-N= 7.120422688555D-01 E-N=-3.644294104882D+00  KE= 1.140155980602D+00
 No NMR shielding tensors so no spin-rotation constants.
 Leave Link  601 at Sat Apr 17 00:23:10 2021, MaxMem=   104857600 cpu:              70.3 elap:               1.5
 (Enter /s/ls4/users/knvvv/bin/g16sse/l9999.exe)

 Test job not archived.
 1\1\GINC-N146\Stability\RM062X\def2QZVP\H2\KNVVV\17-Apr-2021\0\\#P M06
 2X/Def2QZVP Integral=UltraFineGrid SCF=NoSymm Stable=(RExt, Opt) IOp(1
 /33=1)\\Database calculations.\\0,1\H,0,0.,0.,-0.3715911499\H,0,0.,0.,
 0.3715911499\\Version=ES64L-G16RevA.03\State=1-SGG\HF=-1.1694896\RMSD=
 3.224e-09\Dipole=0.,0.,0.\Quadrupole=-0.1512122,-0.1512122,0.3024243,0
 .,0.,0.\PG=D*H [C*(H1.H1)]\\@


 THE POLHOLDE ROLLS WITHOUT SLIPPING ON THE HERPOLHOLDE LYING IN
 THE INVARIABLE PLANE.
 H.GOLDSTEIN, "CLASSICAL MECHANICS", PG 161
 Job cpu time:       0 days  0 hours 21 minutes 20.5 seconds.
 Elapsed time:       0 days  0 hours  0 minutes 27.6 seconds.
 File lengths (MBytes):  RWF=      6 Int=      0 D2E=      0 Chk=      2 Scr=      1
 Normal termination of Gaussian 16 at Sat Apr 17 00:23:10 2021.
