 Entering Gaussian System, Link 0=/s/ls4/users/knvvv/bin/g16sse/g16
 Input=data/database/M062X--cc-pCVQZ--Z_024_cc-pCVQZ_C.gjf
 Output=data/database/M062X--cc-pCVQZ--Z_024_cc-pCVQZ_C.log
 Initial command:
 /s/ls4/users/knvvv/bin/g16sse/l1.exe "/s/ls4/users/knvvv/bin/scratch/Gau-12616.inp" -scrdir="/s/ls4/users/knvvv/bin/scratch/"
 Entering Link 1 = /s/ls4/users/knvvv/bin/g16sse/l1.exe PID=     12617.
  
 Copyright (c) 1988,1990,1992,1993,1995,1998,2003,2009,2016,
            Gaussian, Inc.  All Rights Reserved.
  
 This is part of the Gaussian(R) 16 program.  It is based on
 the Gaussian(R) 09 system (copyright 2009, Gaussian, Inc.),
 the Gaussian(R) 03 system (copyright 2003, Gaussian, Inc.),
 the Gaussian(R) 98 system (copyright 1998, Gaussian, Inc.),
 the Gaussian(R) 94 system (copyright 1995, Gaussian, Inc.),
 the Gaussian 92(TM) system (copyright 1992, Gaussian, Inc.),
 the Gaussian 90(TM) system (copyright 1990, Gaussian, Inc.),
 the Gaussian 88(TM) system (copyright 1988, Gaussian, Inc.),
 the Gaussian 86(TM) system (copyright 1986, Carnegie Mellon
 University), and the Gaussian 82(TM) system (copyright 1983,
 Carnegie Mellon University). Gaussian is a federally registered
 trademark of Gaussian, Inc.
  
 This software contains proprietary and confidential information,
 including trade secrets, belonging to Gaussian, Inc.
  
 This software is provided under written license and may be
 used, copied, transmitted, or stored only in accord with that
 written license.
  
 The following legend is applicable only to US Government
 contracts under FAR:
  
                    RESTRICTED RIGHTS LEGEND
  
 Use, reproduction and disclosure by the US Government is
 subject to restrictions as set forth in subparagraphs (a)
 and (c) of the Commercial Computer Software - Restricted
 Rights clause in FAR 52.227-19.
  
 Gaussian, Inc.
 340 Quinnipiac St., Bldg. 40, Wallingford CT 06492
  
  
 ---------------------------------------------------------------
 Warning -- This program may not be used in any manner that
 competes with the business of Gaussian, Inc. or will provide
 assistance to any competitor of Gaussian, Inc.  The licensee
 of this program is prohibited from giving any competitor of
 Gaussian, Inc. access to this program.  By using this program,
 the user acknowledges that Gaussian, Inc. is engaged in the
 business of creating and licensing software in the field of
 computational chemistry and represents and warrants to the
 licensee that it is not a competitor of Gaussian, Inc. and that
 it will not use this program in any manner prohibited above.
 ---------------------------------------------------------------
  

 Cite this work as:
 Gaussian 16, Revision A.03,
 M. J. Frisch, G. W. Trucks, H. B. Schlegel, G. E. Scuseria, 
 M. A. Robb, J. R. Cheeseman, G. Scalmani, V. Barone, 
 G. A. Petersson, H. Nakatsuji, X. Li, M. Caricato, A. V. Marenich, 
 J. Bloino, B. G. Janesko, R. Gomperts, B. Mennucci, H. P. Hratchian, 
 J. V. Ortiz, A. F. Izmaylov, J. L. Sonnenberg, D. Williams-Young, 
 F. Ding, F. Lipparini, F. Egidi, J. Goings, B. Peng, A. Petrone, 
 T. Henderson, D. Ranasinghe, V. G. Zakrzewski, J. Gao, N. Rega, 
 G. Zheng, W. Liang, M. Hada, M. Ehara, K. Toyota, R. Fukuda, 
 J. Hasegawa, M. Ishida, T. Nakajima, Y. Honda, O. Kitao, H. Nakai, 
 T. Vreven, K. Throssell, J. A. Montgomery, Jr., J. E. Peralta, 
 F. Ogliaro, M. J. Bearpark, J. J. Heyd, E. N. Brothers, K. N. Kudin, 
 V. N. Staroverov, T. A. Keith, R. Kobayashi, J. Normand, 
 K. Raghavachari, A. P. Rendell, J. C. Burant, S. S. Iyengar, 
 J. Tomasi, M. Cossi, J. M. Millam, M. Klene, C. Adamo, R. Cammi, 
 J. W. Ochterski, R. L. Martin, K. Morokuma, O. Farkas, 
 J. B. Foresman, and D. J. Fox, Gaussian, Inc., Wallingford CT, 2016.
 
 ******************************************
 Gaussian 16:  ES64L-G16RevA.03 25-Dec-2016
                16-Apr-2021 
 ******************************************
 %RWF=temp18_91316,70GB
 %nprocshared=48
 Will use up to   48 processors via shared memory.
 Default route: MaxDisk=80GB
 ----------------------------------------------------------------------
 #P M062X/GEN Integral=UltraFineGrid SCF=NoSymm Stable=(RExt, Opt) IOp(
 1/33=1)
 ----------------------------------------------------------------------
 1/33=1,38=1,172=1/1;
 2/12=2,17=6,18=5,40=1/2;
 3/5=7,11=2,25=1,30=1,74=-55,75=-5/1,2,3;
 4/9=2/1;
 5/5=2,38=5/2;
 6/7=2,8=2,9=2,10=2,28=1/1;
 8/6=1,10=90,11=11/1;
 9/8=-3,42=1,46=1/14;
 5/5=2,8=3,17=40,38=5/8(-2);
 6/7=2,8=2,9=2,10=2,28=1/1;
 99/5=1,9=1/99;
 Leave Link    1 at Fri Apr 16 22:49:57 2021, MaxMem=           0 cpu:               8.3 elap:               0.2
 (Enter /s/ls4/users/knvvv/bin/g16sse/l101.exe)
 ONIOM data not found on unit 2.
 ----------------------
 Database calculations.
 ----------------------
 TstMul:  ICh=     0
 TstMul:  Mul=     3
 TstMul:  ICh=     0
 TstMul:  Mul=     3
 Symbolic Z-matrix:
 Charge =  0 Multiplicity = 3
 C                     0.        0.        0. 
 
 RdStrC is calling ZToCFu for IStruc=1 NZ=     1.
 PrtBox:  NBox=     1 Levels=  0 BoxLen=    8.00 SMaxX=        0.00
          Shift=            0.000000            0.000000            0.000000
 Box      1 Number                   0 centers from      1 to      1:
 After GenITR:
 ITRead=  0
 MicOpt= -1
 ITRead=  0
 MicOpt= -1
 NAtoms=      1 NQM=        1 NQMF=       0 NMMI=      0 NMMIF=      0
                NMic=       0 NMicF=      0.
                    Isotopes and Nuclear Properties:
 (Nuclear quadrupole moments (NQMom) in fm**2, nuclear magnetic moments (NMagM)
  in nuclear magnetons)

  Atom         1
 IAtWgt=          12
 AtmWgt=  12.0000000
 NucSpn=           0
 AtZEff=  -0.0000000
 NQMom=    0.0000000
 NMagM=    0.0000000
 AtZNuc=   6.0000000
 No MM parameters found.
 Leave Link  101 at Fri Apr 16 22:49:57 2021, MaxMem=   104857600 cpu:               6.8 elap:               0.2
 (Enter /s/ls4/users/knvvv/bin/g16sse/l202.exe)
                          Input orientation:                          
 ---------------------------------------------------------------------
 Center     Atomic      Atomic             Coordinates (Angstroms)
 Number     Number       Type             X           Y           Z
 ---------------------------------------------------------------------
      1          6           0        0.000000    0.000000    0.000000
 ---------------------------------------------------------------------
 Stoichiometry    C(3)
 Framework group  OH[O(C)]
 Deg. of freedom     0
 Full point group                 OH      NOp  48
 Largest Abelian subgroup         D2H     NOp   8
 Largest concise Abelian subgroup C1      NOp   1
                         Standard orientation:                         
 ---------------------------------------------------------------------
 Center     Atomic      Atomic             Coordinates (Angstroms)
 Number     Number       Type             X           Y           Z
 ---------------------------------------------------------------------
      1          6           0        0.000000    0.000000    0.000000
 ---------------------------------------------------------------------
 Leave Link  202 at Fri Apr 16 22:49:57 2021, MaxMem=   104857600 cpu:              35.1 elap:               0.8
 (Enter /s/ls4/users/knvvv/bin/g16sse/l301.exe)
 General basis read from cards:  (5D, 7F)
 Centers:       1
 S 12 1.00
     Exponent=  3.3980000000D+04 Coefficients=  9.1000000000D-05
     Exponent=  5.0890000000D+03 Coefficients=  7.0400000000D-04
     Exponent=  1.1570000000D+03 Coefficients=  3.6930000000D-03
     Exponent=  3.2660000000D+02 Coefficients=  1.5360000000D-02
     Exponent=  1.0610000000D+02 Coefficients=  5.2929000000D-02
     Exponent=  3.8110000000D+01 Coefficients=  1.4704300000D-01
     Exponent=  1.4750000000D+01 Coefficients=  3.0563100000D-01
     Exponent=  6.0350000000D+00 Coefficients=  3.9934500000D-01
     Exponent=  2.5300000000D+00 Coefficients=  2.1705100000D-01
     Exponent=  7.3550000000D-01 Coefficients=  1.5894000000D-02
     Exponent=  2.9050000000D-01 Coefficients= -3.0840000000D-03
     Exponent=  1.1110000000D-01 Coefficients=  9.7800000000D-04
 S 12 1.00
     Exponent=  3.3980000000D+04 Coefficients= -1.9000000000D-05
     Exponent=  5.0890000000D+03 Coefficients= -1.5100000000D-04
     Exponent=  1.1570000000D+03 Coefficients= -7.8500000000D-04
     Exponent=  3.2660000000D+02 Coefficients= -3.3240000000D-03
     Exponent=  1.0610000000D+02 Coefficients= -1.1512000000D-02
     Exponent=  3.8110000000D+01 Coefficients= -3.4160000000D-02
     Exponent=  1.4750000000D+01 Coefficients= -7.7173000000D-02
     Exponent=  6.0350000000D+00 Coefficients= -1.4149300000D-01
     Exponent=  2.5300000000D+00 Coefficients= -1.1801900000D-01
     Exponent=  7.3550000000D-01 Coefficients=  2.7380600000D-01
     Exponent=  2.9050000000D-01 Coefficients=  5.8651000000D-01
     Exponent=  1.1110000000D-01 Coefficients=  2.8543000000D-01
 S 1 1.00
     Exponent=  5.3073000000D+01 Coefficients=  1.0000000000D+00
 S 1 1.00
     Exponent=  1.9570000000D+01 Coefficients=  1.0000000000D+00
 S 1 1.00
     Exponent=  7.2160000000D+00 Coefficients=  1.0000000000D+00
 S 1 1.00
     Exponent=  7.3550000000D-01 Coefficients=  1.0000000000D+00
 S 1 1.00
     Exponent=  2.9050000000D-01 Coefficients=  1.0000000000D+00
 S 1 1.00
     Exponent=  1.1110000000D-01 Coefficients=  1.0000000000D+00
 P 6 1.00
     Exponent=  3.4510000000D+01 Coefficients=  5.3780000000D-03
     Exponent=  7.9150000000D+00 Coefficients=  3.6132000000D-02
     Exponent=  2.3680000000D+00 Coefficients=  1.4249300000D-01
     Exponent=  8.1320000000D-01 Coefficients=  3.4215000000D-01
     Exponent=  2.8900000000D-01 Coefficients=  4.6386400000D-01
     Exponent=  1.0070000000D-01 Coefficients=  2.5002800000D-01
 P 1 1.00
     Exponent=  7.1494000000D+01 Coefficients=  1.0000000000D+00
 P 1 1.00
     Exponent=  2.4186000000D+01 Coefficients=  1.0000000000D+00
 P 1 1.00
     Exponent=  8.1820000000D+00 Coefficients=  1.0000000000D+00
 P 1 1.00
     Exponent=  8.1320000000D-01 Coefficients=  1.0000000000D+00
 P 1 1.00
     Exponent=  2.8900000000D-01 Coefficients=  1.0000000000D+00
 P 1 1.00
     Exponent=  1.0070000000D-01 Coefficients=  1.0000000000D+00
 D 1 1.00
     Exponent=  3.3213000000D+01 Coefficients=  1.0000000000D+00
 D 1 1.00
     Exponent=  8.6560000000D+00 Coefficients=  1.0000000000D+00
 D 1 1.00
     Exponent=  1.8480000000D+00 Coefficients=  1.0000000000D+00
 D 1 1.00
     Exponent=  6.4900000000D-01 Coefficients=  1.0000000000D+00
 D 1 1.00
     Exponent=  2.2800000000D-01 Coefficients=  1.0000000000D+00
 F 1 1.00
     Exponent=  2.4694000000D+01 Coefficients=  1.0000000000D+00
 F 1 1.00
     Exponent=  1.4190000000D+00 Coefficients=  1.0000000000D+00
 F 1 1.00
     Exponent=  4.8500000000D-01 Coefficients=  1.0000000000D+00
 G 1 1.00
     Exponent=  1.0110000000D+00 Coefficients=  1.0000000000D+00
 ****
 Ernie: Thresh=  0.10000D-02 Tol=  0.10000D-05 Strict=F.
 Ernie:  8 primitive shells out of 51 were deleted.
 There are    29 symmetry adapted cartesian basis functions of AG  symmetry.
 There are     8 symmetry adapted cartesian basis functions of B1G symmetry.
 There are     8 symmetry adapted cartesian basis functions of B2G symmetry.
 There are     8 symmetry adapted cartesian basis functions of B3G symmetry.
 There are     3 symmetry adapted cartesian basis functions of AU  symmetry.
 There are    16 symmetry adapted cartesian basis functions of B1U symmetry.
 There are    16 symmetry adapted cartesian basis functions of B2U symmetry.
 There are    16 symmetry adapted cartesian basis functions of B3U symmetry.
 There are    21 symmetry adapted basis functions of AG  symmetry.
 There are     7 symmetry adapted basis functions of B1G symmetry.
 There are     7 symmetry adapted basis functions of B2G symmetry.
 There are     7 symmetry adapted basis functions of B3G symmetry.
 There are     3 symmetry adapted basis functions of AU  symmetry.
 There are    13 symmetry adapted basis functions of B1U symmetry.
 There are    13 symmetry adapted basis functions of B2U symmetry.
 There are    13 symmetry adapted basis functions of B3U symmetry.
    84 basis functions,   133 primitive gaussians,   104 cartesian basis functions
     4 alpha electrons        2 beta electrons
       nuclear repulsion energy         0.0000000000 Hartrees.
 IExCor= 4336 DFT=T Ex+Corr=M062X ExCW=0 ScaHFX=  0.540000
 ScaDFX=  1.000000  1.000000  1.000000  1.000000 ScalE2=  1.000000  1.000000
 IRadAn=      5 IRanWt=     -1 IRanGd=            0 ICorTp=0 IEmpDi=  4
 NAtoms=    1 NActive=    1 NUniq=    1 SFac= 1.00D+00 NAtFMM=   60 NAOKFM=F Big=F
 Integral buffers will be    131072 words long.
 Raffenetti 2 integral format.
 Two-electron integral symmetry is turned on.
 Leave Link  301 at Fri Apr 16 22:49:58 2021, MaxMem=   104857600 cpu:               7.0 elap:               0.2
 (Enter /s/ls4/users/knvvv/bin/g16sse/l302.exe)
 NPDir=0 NMtPBC=     1 NCelOv=     1 NCel=       1 NClECP=     1 NCelD=      1
         NCelK=      1 NCelE2=     1 NClLst=     1 CellRange=     0.0.
 One-electron integrals computed using PRISM.
 One-electron integral symmetry used in STVInt
 PrsmSu:  requested number of processors reduced to:   4 ShMem   1 Linda.
 PrsmSu:  requested number of processors reduced to:  21 ShMem   1 Linda.
 NBasis=    84 RedAO= T EigKep=  4.26D-04  NBF=    21     7     7     7     3    13    13    13
 NBsUse=    84 1.00D-06 EigRej= -1.00D+00 NBFU=    21     7     7     7     3    13    13    13
 Precomputing XC quadrature grid using
 IXCGrd= 4 IRadAn=           5 IRanWt=          -1 IRanGd=           0 AccXCQ= 0.00D+00.
 Generated NRdTot=       0 NPtTot=           0 NUsed=           0 NTot=          32
 NSgBfM=   104   104   104   104   104 MxSgAt=     1 MxSgA2=     1.
 Leave Link  302 at Fri Apr 16 22:50:11 2021, MaxMem=   104857600 cpu:             627.1 elap:              13.4
 (Enter /s/ls4/users/knvvv/bin/g16sse/l303.exe)
 DipDrv:  MaxL=1.
 Leave Link  303 at Fri Apr 16 22:50:12 2021, MaxMem=   104857600 cpu:              22.0 elap:               0.5
 (Enter /s/ls4/users/knvvv/bin/g16sse/l401.exe)
 SCF N**3 symmetry information disabled.
 ExpMin= 1.01D-01 ExpMax= 3.40D+04 ExpMxC= 3.27D+02 IAcc=3 IRadAn=         5 AccDes= 0.00D+00
 Harris functional with IExCor= 1009 and IRadAn=       5 diagonalized for initial guess.
 HarFok:  IExCor= 1009 AccDes= 0.00D+00 IRadAn=         5 IDoV= 1 UseB2=F ITyADJ=14
 ICtDFT=  3500011 ScaDFX=  1.000000  1.000000  1.000000  1.000000
 FoFCou: FMM=F IPFlag=           0 FMFlag=      100000 FMFlg1=           0
         NFxFlg=           0 DoJE=T BraDBF=F KetDBF=T FulRan=T
         wScrn=  0.000000 ICntrl=       500 IOpCl=  0 I1Cent=   200000004 NGrid=           0
         NMat0=    1 NMatS0=      1 NMatT0=    0 NMatD0=    1 NMtDS0=    0 NMtDT0=    0
 Petite list used in FoFCou.
 CoulSu:  requested number of processors reduced to:  21 ShMem   1 Linda.
 CoulSu:  requested number of processors reduced to:  21 ShMem   1 Linda.
 CoulSu:  requested number of processors reduced to:  21 ShMem   1 Linda.
 CoulSu:  requested number of processors reduced to:  21 ShMem   1 Linda.
 Harris En= -37.7407605115283    
 JPrj=0 DoOrth=F DoCkMO=F.
 Initial guess orbital symmetries:
 Alpha Orbitals:
       Occupied  (A1G) (A1G) (T1U) (T1U)
       Virtual   (T1U) (A1G) (T1U) (T1U) (T1U) (T2G) (T2G) (T2G)
                 (EG) (EG) (T1U) (T1U) (T1U) (A1G) (T2U) (T2U)
                 (T2U) (A2U) (T1U) (T1U) (T1U) (T2G) (T2G) (T2G)
                 (EG) (EG) (T1U) (T1U) (T1U) (T1G) (T1G) (T1G)
                 (T2G) (T2G) (T2G) (EG) (EG) (A1G) (T2G) (T2G)
                 (T2G) (EG) (EG) (T2U) (T2U) (T2U) (A2U) (T1U)
                 (T1U) (T1U) (A1G) (T1U) (T1U) (T1U) (T2G) (T2G)
                 (T2G) (EG) (EG) (A1G) (T1U) (T1U) (T1U) (?A) (?A)
                 (?A) (?A) (?A) (?A) (?A) (?B) (?B) (?B) (?B) (?B)
                 (A1G) (T1U) (T1U) (T1U) (A1G)
 Beta  Orbitals:
       Occupied  (A1G) (A1G)
       Virtual   (T1U) (T1U) (T1U) (A1G) (T1U) (T1U) (T1U) (T2G)
                 (T2G) (T2G) (EG) (EG) (T1U) (T1U) (T1U) (A1G)
                 (T2U) (T2U) (T2U) (A2U) (T1U) (T1U) (T1U) (T2G)
                 (T2G) (T2G) (EG) (EG) (T1U) (T1U) (T1U) (T1G)
                 (T1G) (T1G) (T2G) (T2G) (T2G) (EG) (EG) (A1G)
                 (T2G) (T2G) (T2G) (EG) (EG) (T2U) (T2U) (T2U)
                 (A2U) (T1U) (T1U) (T1U) (A1G) (T1U) (T1U) (T1U)
                 (T2G) (T2G) (T2G) (EG) (EG) (A1G) (T1U) (T1U)
                 (T1U) (?A) (?A) (?A) (?A) (?A) (?A) (?A) (?B)
                 (?B) (?B) (?B) (?B) (A1G) (T1U) (T1U) (T1U) (A1G)
 Initial guess <Sx>= 0.0000 <Sy>= 0.0000 <Sz>= 1.0000 <S**2>= 2.0000 S= 1.0000
 Leave Link  401 at Fri Apr 16 22:50:12 2021, MaxMem=   104857600 cpu:              20.5 elap:               0.6
 (Enter /s/ls4/users/knvvv/bin/g16sse/l502.exe)
 Keep R1 and R2 ints in memory in symmetry-blocked form, NReq=60586580.
 FoFCou: FMM=F IPFlag=           0 FMFlag=           0 FMFlg1=           0
         NFxFlg=           0 DoJE=F BraDBF=F KetDBF=F FulRan=T
         wScrn=  0.000000 ICntrl=       600 IOpCl=  0 I1Cent=           0 NGrid=           0
         NMat0=    1 NMatS0=   3570 NMatT0=    0 NMatD0=    1 NMtDS0=    0 NMtDT0=    0
 Petite list used in FoFCou.
 CoulSu:  requested number of processors reduced to:  21 ShMem   1 Linda.
 UHF open shell SCF:
 Using DIIS extrapolation, IDIIS=  1040.
 NGot=   104857600 LenX=   103173133 LenY=   103161876
 Requested convergence on RMS density matrix=1.00D-08 within 128 cycles.
 Requested convergence on MAX density matrix=1.00D-06.
 Requested convergence on             energy=1.00D-06.
 No special actions if energy rises.
 Integral accuracy reduced to 1.0D-05 until final iterations.

 Cycle   1  Pass 0  IDiag  1:
 Density matrix breaks symmetry, PCut= 1.00D-04
 Density has only Abelian symmetry.
 E= -37.8365407000906    
 DIIS: error= 7.81D-02 at cycle   1 NSaved=   1.
 NSaved= 1 IEnMin= 1 EnMin= -37.8365407000906     IErMin= 1 ErrMin= 7.81D-02
 ErrMax= 7.81D-02  0.00D+00 EMaxC= 1.00D-01 BMatC= 1.91D-01 BMatP= 1.91D-01
 IDIUse=3 WtCom= 2.19D-01 WtEn= 7.81D-01
 Coeff-Com:  0.100D+01
 Coeff-En:   0.100D+01
 Coeff:      0.100D+01
 Gap=     0.217 Goal=   None    Shift=    0.000
 Gap=     0.522 Goal=   None    Shift=    0.000
 GapD=    0.217 DampG=1.000 DampE=0.500 DampFc=0.5000 IDamp=-1.
 Damping current iteration by 5.00D-01
 RMSDP=3.04D-03 MaxDP=2.02D-01              OVMax= 6.32D-02

 Cycle   2  Pass 0  IDiag  1:
 Density matrix breaks symmetry, PCut= 1.00D-04
 Density has only Abelian symmetry.
 E= -37.8406451890195     Delta-E=       -0.004104488929 Rises=F Damp=T
 DIIS: error= 3.91D-02 at cycle   2 NSaved=   2.
 NSaved= 2 IEnMin= 2 EnMin= -37.8406451890195     IErMin= 2 ErrMin= 3.91D-02
 ErrMax= 3.91D-02  0.00D+00 EMaxC= 1.00D-01 BMatC= 4.77D-02 BMatP= 1.91D-01
 IDIUse=3 WtCom= 6.09D-01 WtEn= 3.91D-01
 Coeff-Com: -0.956D+00 0.196D+01
 Coeff-En:   0.000D+00 0.100D+01
 Coeff:     -0.582D+00 0.158D+01
 Gap=     0.226 Goal=   None    Shift=    0.000
 Gap=     0.474 Goal=   None    Shift=    0.000
 DSYEVD-2 returned Info=         169 IAlg= 4 N=    84 NDim=    84 NE2=     1228116 trying  DSYEV.
 RMSDP=1.32D-03 MaxDP=8.09D-02 DE=-4.10D-03 OVMax= 1.82D-02

 Cycle   3  Pass 0  IDiag  1:
 Density matrix breaks symmetry, PCut= 1.00D-04
 Density has only Abelian symmetry.
 E= -37.8449136527207     Delta-E=       -0.004268463701 Rises=F Damp=F
 DIIS: error= 1.11D-03 at cycle   3 NSaved=   3.
 NSaved= 3 IEnMin= 3 EnMin= -37.8449136527207     IErMin= 3 ErrMin= 1.11D-03
 ErrMax= 1.11D-03  0.00D+00 EMaxC= 1.00D-01 BMatC= 9.75D-05 BMatP= 4.77D-02
 IDIUse=3 WtCom= 9.89D-01 WtEn= 1.11D-02
 Coeff-Com: -0.678D-02 0.776D-03 0.101D+01
 Coeff-En:   0.000D+00 0.000D+00 0.100D+01
 Coeff:     -0.670D-02 0.767D-03 0.101D+01
 Gap=     0.227 Goal=   None    Shift=    0.000
 Gap=     0.473 Goal=   None    Shift=    0.000
 RMSDP=1.89D-04 MaxDP=1.12D-02 DE=-4.27D-03 OVMax= 4.45D-03

 Cycle   4  Pass 0  IDiag  1:
 Density matrix breaks symmetry, PCut= 1.00D-04
 Density has only Abelian symmetry.
 E= -37.8449611507423     Delta-E=       -0.000047498022 Rises=F Damp=F
 DIIS: error= 5.70D-04 at cycle   4 NSaved=   4.
 NSaved= 4 IEnMin= 4 EnMin= -37.8449611507423     IErMin= 4 ErrMin= 5.70D-04
 ErrMax= 5.70D-04  0.00D+00 EMaxC= 1.00D-01 BMatC= 9.06D-06 BMatP= 9.75D-05
 IDIUse=3 WtCom= 9.94D-01 WtEn= 5.70D-03
 Coeff-Com:  0.511D-01-0.100D+00-0.232D+00 0.128D+01
 Coeff-En:   0.000D+00 0.000D+00 0.000D+00 0.100D+01
 Coeff:      0.508D-01-0.995D-01-0.231D+00 0.128D+01
 Gap=     0.227 Goal=   None    Shift=    0.000
 Gap=     0.472 Goal=   None    Shift=    0.000
 RMSDP=5.36D-05 MaxDP=2.38D-03 DE=-4.75D-05 OVMax= 1.87D-03

 Cycle   5  Pass 0  IDiag  1:
 Density matrix breaks symmetry, PCut= 1.00D-04
 Density has only Abelian symmetry.
 E= -37.8449651744486     Delta-E=       -0.000004023706 Rises=F Damp=F
 DIIS: error= 1.83D-05 at cycle   5 NSaved=   5.
 NSaved= 5 IEnMin= 5 EnMin= -37.8449651744486     IErMin= 5 ErrMin= 1.83D-05
 ErrMax= 1.83D-05  0.00D+00 EMaxC= 1.00D-01 BMatC= 2.15D-08 BMatP= 9.06D-06
 IDIUse=1 WtCom= 1.00D+00 WtEn= 0.00D+00
 Coeff-Com: -0.404D-02 0.783D-02 0.180D-01-0.119D+00 0.110D+01
 Coeff:     -0.404D-02 0.783D-02 0.180D-01-0.119D+00 0.110D+01
 Gap=     0.227 Goal=   None    Shift=    0.000
 Gap=     0.472 Goal=   None    Shift=    0.000
 RMSDP=3.54D-06 MaxDP=2.45D-04 DE=-4.02D-06 OVMax= 6.35D-05

 Initial convergence to 1.0D-05 achieved.  Increase integral accuracy.
 Cycle   6  Pass 1  IDiag  1:
 Density matrix breaks symmetry, PCut= 1.00D-04
 Density has only Abelian symmetry.
 E= -37.8449489822593     Delta-E=        0.000016192189 Rises=F Damp=F
 DIIS: error= 6.37D-04 at cycle   1 NSaved=   1.
 NSaved= 1 IEnMin= 1 EnMin= -37.8449489822593     IErMin= 1 ErrMin= 6.37D-04
 ErrMax= 6.37D-04  0.00D+00 EMaxC= 1.00D-01 BMatC= 9.52D-06 BMatP= 9.52D-06
 IDIUse=3 WtCom= 9.94D-01 WtEn= 6.37D-03
 Coeff-Com:  0.100D+01
 Coeff-En:   0.100D+01
 Coeff:      0.100D+01
 Gap=     0.227 Goal=   None    Shift=    0.000
 Gap=     0.472 Goal=   None    Shift=    0.000
 RMSDP=3.54D-06 MaxDP=2.45D-04 DE= 1.62D-05 OVMax= 3.82D-04

 Cycle   7  Pass 1  IDiag  1:
 Density matrix breaks symmetry, PCut= 1.00D-04
 Density has only Abelian symmetry.
 E= -37.8449494142149     Delta-E=       -0.000000431956 Rises=F Damp=F
 DIIS: error= 3.89D-05 at cycle   2 NSaved=   2.
 NSaved= 2 IEnMin= 2 EnMin= -37.8449494142149     IErMin= 2 ErrMin= 3.89D-05
 ErrMax= 3.89D-05  0.00D+00 EMaxC= 1.00D-01 BMatC= 6.82D-08 BMatP= 9.52D-06
 IDIUse=1 WtCom= 1.00D+00 WtEn= 0.00D+00
 Coeff-Com: -0.121D-01 0.101D+01
 Coeff:     -0.121D-01 0.101D+01
 Gap=     0.227 Goal=   None    Shift=    0.000
 Gap=     0.472 Goal=   None    Shift=    0.000
 RMSDP=5.31D-06 MaxDP=3.69D-04 DE=-4.32D-07 OVMax= 8.59D-05

 Cycle   8  Pass 1  IDiag  1:
 Density matrix breaks symmetry, PCut= 1.00D-04
 Density has only Abelian symmetry.
 E= -37.8449494307311     Delta-E=       -0.000000016516 Rises=F Damp=F
 DIIS: error= 1.62D-05 at cycle   3 NSaved=   3.
 NSaved= 3 IEnMin= 3 EnMin= -37.8449494307311     IErMin= 3 ErrMin= 1.62D-05
 ErrMax= 1.62D-05  0.00D+00 EMaxC= 1.00D-01 BMatC= 5.73D-09 BMatP= 6.82D-08
 IDIUse=1 WtCom= 1.00D+00 WtEn= 0.00D+00
 Coeff-Com: -0.674D-02 0.110D+00 0.896D+00
 Coeff:     -0.674D-02 0.110D+00 0.896D+00
 Gap=     0.227 Goal=   None    Shift=    0.000
 Gap=     0.472 Goal=   None    Shift=    0.000
 RMSDP=6.50D-07 MaxDP=2.97D-05 DE=-1.65D-08 OVMax= 3.40D-05

 Cycle   9  Pass 1  IDiag  1:
 Density matrix breaks symmetry, PCut= 1.00D-04
 Density has only Abelian symmetry.
 E= -37.8449494323183     Delta-E=       -0.000000001587 Rises=F Damp=F
 DIIS: error= 2.16D-06 at cycle   4 NSaved=   4.
 NSaved= 4 IEnMin= 4 EnMin= -37.8449494323183     IErMin= 4 ErrMin= 2.16D-06
 ErrMax= 2.16D-06  0.00D+00 EMaxC= 1.00D-01 BMatC= 3.40D-10 BMatP= 5.73D-09
 IDIUse=1 WtCom= 1.00D+00 WtEn= 0.00D+00
 Coeff-Com:  0.236D-02-0.710D-01-0.703D-01 0.114D+01
 Coeff:      0.236D-02-0.710D-01-0.703D-01 0.114D+01
 Gap=     0.227 Goal=   None    Shift=    0.000
 Gap=     0.472 Goal=   None    Shift=    0.000
 RMSDP=4.43D-07 MaxDP=2.83D-05 DE=-1.59D-09 OVMax= 8.59D-06

 Cycle  10  Pass 1  IDiag  1:
 Density matrix breaks symmetry, PCut= 1.00D-04
 Density has only Abelian symmetry.
 E= -37.8449494324740     Delta-E=       -0.000000000156 Rises=F Damp=F
 DIIS: error= 4.40D-07 at cycle   5 NSaved=   5.
 NSaved= 5 IEnMin= 5 EnMin= -37.8449494324740     IErMin= 5 ErrMin= 4.40D-07
 ErrMax= 4.40D-07  0.00D+00 EMaxC= 1.00D-01 BMatC= 4.84D-12 BMatP= 3.40D-10
 IDIUse=1 WtCom= 1.00D+00 WtEn= 0.00D+00
 Coeff-Com: -0.160D-04 0.218D-02-0.266D-01-0.384D-01 0.106D+01
 Coeff:     -0.160D-04 0.218D-02-0.266D-01-0.384D-01 0.106D+01
 Gap=     0.227 Goal=   None    Shift=    0.000
 Gap=     0.472 Goal=   None    Shift=    0.000
 RMSDP=3.01D-08 MaxDP=1.11D-06 DE=-1.56D-10 OVMax= 1.31D-06

 Cycle  11  Pass 1  IDiag  1:
 Density matrix breaks symmetry, PCut= 1.00D-04
 Density has only Abelian symmetry.
 E= -37.8449494324759     Delta-E=       -0.000000000002 Rises=F Damp=F
 DIIS: error= 1.17D-08 at cycle   6 NSaved=   6.
 NSaved= 6 IEnMin= 6 EnMin= -37.8449494324759     IErMin= 6 ErrMin= 1.17D-08
 ErrMax= 1.17D-08  0.00D+00 EMaxC= 1.00D-01 BMatC= 9.54D-15 BMatP= 4.84D-12
 IDIUse=1 WtCom= 1.00D+00 WtEn= 0.00D+00
 Coeff-Com: -0.722D-05 0.128D-03 0.185D-02-0.290D-02-0.674D-01 0.107D+01
 Coeff:     -0.722D-05 0.128D-03 0.185D-02-0.290D-02-0.674D-01 0.107D+01
 Gap=     0.227 Goal=   None    Shift=    0.000
 Gap=     0.472 Goal=   None    Shift=    0.000
 RMSDP=2.30D-09 MaxDP=1.28D-07 DE=-1.83D-12 OVMax= 5.70D-08

 Density matrix breaks symmetry, PCut= 1.00D-04
 Density has only Abelian symmetry.
 SCF Done:  E(UM062X) =  -37.8449494325     A.U. after   11 cycles
            NFock= 11  Conv=0.23D-08     -V/T= 2.0026
 <Sx>= 0.0000 <Sy>= 0.0000 <Sz>= 1.0000 <S**2>= 2.0034 S= 1.0011
 <L.S>= 0.000000000000E+00
 KE= 3.774566502019D+01 PE=-8.821869019083D+01 EE= 1.262807573817D+01
 Annihilation of the first spin contaminant:
 S**2 before annihilation     2.0034,   after     2.0000
 Leave Link  502 at Fri Apr 16 22:52:46 2021, MaxMem=   104857600 cpu:            7213.3 elap:             153.8
 (Enter /s/ls4/users/knvvv/bin/g16sse/l601.exe)
 Copying SCF densities to generalized density rwf, IOpCl= 1 IROHF=0.
 SCF density gives NOpUse=  8 NOpAll= 48.
 Marking SCF density as not fully symmetric.

 **********************************************************************

            Population analysis using the SCF density.

 **********************************************************************

 Orbital symmetries:
 Alpha Orbitals:
       Occupied  (A1G) (?A) (?B) (?B)
       Virtual   (?B) (?A) (?B) (?B) (?B) (?A) (T2G) (T2G) (T2G)
                 (?A) (?B) (?B) (?B) (T2G) (?C) (?C) (?C) (?C)
                 (A2U) (?C) (?C) (T2G) (T2G) (T2G) (T2G) (T2G)
                 (?D) (?E) (?D) (?D) (?E) (?F) (?F) (?E) (?E) (?E)
                 (?E) (?F) (?F) (?F) (?D) (T2G) (?F) (?F) (?F)
                 (A2U) (?F) (T2G) (T2G) (?D) (A1G) (T1U) (T1U)
                 (T1U) (T2G) (EG) (T2G) (T2G) (EG) (A1G) (T1U)
                 (T1U) (T1U) (?C) (?C) (A2U) (?C) (?C) (?C) (?C)
                 (T2G) (T2G) (T2G) (T2G) (T2G) (T2G) (T1U) (T1U)
                 (T1U) (A1G)
 Beta  Orbitals:
       Occupied  (A1G) (?A)
       Virtual   (?B) (?B) (?B) (?A) (?B) (?B) (?B) (?A) (?C) (?C)
                 (?C) (?A) (?B) (?B) (?B) (?A) (?D) (?D) (A2U)
                 (?D) (?D) (?D) (?D) (?C) (?C) (?A) (?A) (?C) (?A)
                 (?E) (?E) (?E) (?A) (?E) (?E) (?E) (?A) (T1U)
                 (T1U) (T1U) (?D) (?D) (?D) (?A) (A2U) (?D) (?E)
                 (?E) (?D) (?D) (?E) (?A) (?A) (T1U) (T1U) (T1U)
                 (EG) (T2G) (T2G) (T2G) (EG) (A1G) (T1U) (T1U)
                 (T1U) (?D) (?D) (?D) (?D) (A2U) (?D) (?D) (EG)
                 (T2G) (T2G) (T2G) (EG) (A1G) (T1U) (T1U) (T1U)
                 (A1G)
 Unable to determine electronic state:  an orbital has unidentified symmetry.
 Alpha  occ. eigenvalues --  -10.66435  -0.66891  -0.32392  -0.32392
 Alpha virt. eigenvalues --   -0.09658   0.25153   0.27945   0.27945   0.28064
 Alpha virt. eigenvalues --    0.51933   0.51933   0.52188   0.52188   0.52554
 Alpha virt. eigenvalues --    1.26544   1.26544   1.27134   1.60842   1.68762
 Alpha virt. eigenvalues --    1.69365   1.69365   1.69562   1.69562   1.70289
 Alpha virt. eigenvalues --    1.70289   1.84119   1.84119   1.84458   1.85472
 Alpha virt. eigenvalues --    1.85472   4.66877   4.66877   4.67771   4.67916
 Alpha virt. eigenvalues --    4.67916   4.68009   4.68009   4.68515   4.68515
 Alpha virt. eigenvalues --    4.68626   4.68626   4.70433   5.67887   5.67887
 Alpha virt. eigenvalues --    5.71914   5.71914   5.72187   5.72187   5.73105
 Alpha virt. eigenvalues --    5.73105   5.73687   5.75687   5.75687   5.76363
 Alpha virt. eigenvalues --    8.22888  17.81225  17.81225  17.92914  25.58019
 Alpha virt. eigenvalues --   25.58019  25.60374  25.60374  25.62010  34.02830
 Alpha virt. eigenvalues --   65.04332  65.06619  65.06619  97.12026  97.12026
 Alpha virt. eigenvalues --   97.13246  97.13246  97.14912  97.14932  97.14932
 Alpha virt. eigenvalues --  113.21125 113.21125 113.21231 113.24185 113.24185
 Alpha virt. eigenvalues --  118.88694 220.67211 220.69356 220.69356 498.70040
  Beta  occ. eigenvalues --  -10.64390  -0.53988
  Beta virt. eigenvalues --   -0.06788  -0.04102  -0.04102   0.20213   0.24988
  Beta virt. eigenvalues --    0.24988   0.25574   0.49318   0.49318   0.49593
  Beta virt. eigenvalues --    0.49593   0.49606   1.26287   1.30169   1.30169
  Beta virt. eigenvalues --    1.61774   1.66213   1.66297   1.66297   1.66363
  Beta virt. eigenvalues --    1.66363   1.66378   1.66378   1.82495   1.82495
  Beta virt. eigenvalues --    1.82923   1.83119   1.83119   4.60574   4.60716
  Beta virt. eigenvalues --    4.60716   4.60958   4.60958   4.61848   4.61848
  Beta virt. eigenvalues --    4.63595   4.63595   4.69008   4.76862   4.76862
  Beta virt. eigenvalues --    5.74301   5.75525   5.75525   5.76807   5.78684
  Beta virt. eigenvalues --    5.78684   5.79976   5.79976   5.84630   5.84630
  Beta virt. eigenvalues --    5.88604   5.88604   8.33983  17.97881  18.06247
  Beta virt. eigenvalues --   18.06247  25.67540  25.68316  25.68316  25.71739
  Beta virt. eigenvalues --   25.71739  34.24059  65.06530  65.09176  65.09176
  Beta virt. eigenvalues --   97.18032  97.18211  97.18211  97.18759  97.18759
  Beta virt. eigenvalues --   97.19740  97.19740 113.19472 113.19775 113.19775
  Beta virt. eigenvalues --  113.20995 113.20995 118.87580 220.65033 220.66118
  Beta virt. eigenvalues --  220.66118 498.75852
          Condensed to atoms (all electrons):
               1
     1  C    6.000000
          Atomic-Atomic Spin Densities.
               1
     1  C    2.000000
 Mulliken charges and spin densities:
               1          2
     1  C    0.000000   2.000000
 Sum of Mulliken charges =   0.00000   2.00000
 Mulliken charges and spin densities with hydrogens summed into heavy atoms:
               1          2
     1  C    0.000000   2.000000
 Electronic spatial extent (au):  <R**2>=             13.8643
 Charge=              0.0000 electrons
 Dipole moment (field-independent basis, Debye):
    X=             -0.0000    Y=             -0.0000    Z=              0.0000  Tot=              0.0000
 Quadrupole moment (field-independent basis, Debye-Ang):
   XX=             -4.9196   YY=             -6.8642   ZZ=             -6.8642
   XY=              0.0000   XZ=             -0.0000   YZ=             -0.0000
 Traceless Quadrupole moment (field-independent basis, Debye-Ang):
   XX=              1.2964   YY=             -0.6482   ZZ=             -0.6482
   XY=              0.0000   XZ=             -0.0000   YZ=             -0.0000
 Octapole moment (field-independent basis, Debye-Ang**2):
  XXX=             -0.0000  YYY=              0.0000  ZZZ=             -0.0000  XYY=              0.0000
  XXY=             -0.0000  XXZ=              0.0000  XZZ=             -0.0000  YZZ=              0.0000
  YYZ=             -0.0000  XYZ=              0.0000
 Hexadecapole moment (field-independent basis, Debye-Ang**3):
 XXXX=             -4.9742 YYYY=             -9.0691 ZZZZ=             -9.0691 XXXY=              0.0000
 XXXZ=             -0.0000 YYYX=              0.0000 YYYZ=             -0.0000 ZZZX=             -0.0000
 ZZZY=              0.0000 XXYY=             -2.3455 XXZZ=             -2.3455 YYZZ=             -3.0230
 XXYZ=             -0.0000 YYXZ=             -0.0000 ZZXY=              0.0000
 N-N= 0.000000000000D+00 E-N=-8.821869005546D+01  KE= 3.774566502019D+01
                          Isotropic Fermi Contact Couplings
        Atom                 a.u.       MegaHertz       Gauss      10(-4) cm-1
     1  C(13)              0.18258     102.62564      36.61938      34.23223
 PrsmSu:  requested number of processors reduced to:  21 ShMem   1 Linda.
 --------------------------------------------------------
       Center         ----  Spin Dipole Couplings  ----
                      3XX-RR        3YY-RR        3ZZ-RR
 --------------------------------------------------------
     1   Atom       -1.440556      0.720278      0.720278
 --------------------------------------------------------
                        XY            XZ            YZ
 --------------------------------------------------------
     1   Atom        0.000000      0.000000      0.000000
 --------------------------------------------------------


 ---------------------------------------------------------------------------------
              Anisotropic Spin Dipole Couplings in Principal Axis System
 ---------------------------------------------------------------------------------

       Atom             a.u.   MegaHertz   Gauss  10(-4) cm-1        Axes

              Baa    -1.4406  -193.309   -68.977   -64.481  1.0000  0.0000  0.0000
     1 C(13)  Bbb     0.7203    96.654    34.489    32.240 -0.0000  1.0000  0.0000
              Bcc     0.7203    96.654    34.489    32.240  0.0000  0.0000  1.0000
 

 ---------------------------------------------------------------------------------

 PrsmSu:  requested number of processors reduced to:  21 ShMem   1 Linda.
 No NMR shielding tensors so no spin-rotation constants.
 Leave Link  601 at Fri Apr 16 22:52:56 2021, MaxMem=   104857600 cpu:             455.8 elap:               9.9
 (Enter /s/ls4/users/knvvv/bin/g16sse/l801.exe)
 DoSCS=F DFT=T ScalE2(SS,OS)=  1.000000  1.000000
 Range of M.O.s used for correlation:     1    84
 NBasis=    84 NAE=     4 NBE=     2 NFC=     0 NFV=     0
 NROrb=     84 NOA=     4 NOB=     2 NVA=    80 NVB=    82

 **** Warning!!: The largest alpha MO coefficient is  0.41693860D+02


 **** Warning!!: The largest beta MO coefficient is  0.41693984D+02

 Leave Link  801 at Fri Apr 16 22:52:56 2021, MaxMem=   104857600 cpu:               5.6 elap:               0.2
 (Enter /s/ls4/users/knvvv/bin/g16sse/l914.exe)
 UHF ground state
 Doing stability rather than CIS.
 Keep R1 and R2 ints in memory in symmetry-blocked form, NReq=104002070.
 FoFCou: FMM=F IPFlag=           0 FMFlag=           0 FMFlg1=           0
         NFxFlg=           0 DoJE=F BraDBF=F KetDBF=F FulRan=T
         wScrn=  0.000000 ICntrl=       600 IOpCl=  0 I1Cent=           0 NGrid=           0
         NMat0=    1 NMatS0=   3570 NMatT0=    0 NMatD0=    1 NMtDS0=    0 NMtDT0=    0
 Petite list used in FoFCou.
 CoulSu:  requested number of processors reduced to:  21 ShMem   1 Linda.
 MDV=   104857600 DFT=T DoStab=T Mixed=T DoRPA=F DoScal=F NonHer=F
 Making orbital integer symmetry assigments:
 Orbital symmetries:
 Alpha Orbitals:
       Occupied  (A1G) (?A) (?B) (?B)
       Virtual   (?B) (?A) (?B) (?B) (?B) (?A) (T2G) (T2G) (T2G)
                 (?A) (?B) (?B) (?B) (T2G) (?C) (?C) (?C) (?C)
                 (A2U) (?C) (?C) (T2G) (T2G) (T2G) (T2G) (T2G)
                 (?D) (?E) (?D) (?D) (?E) (?F) (?F) (?E) (?E) (?E)
                 (?E) (?F) (?F) (?F) (?D) (T2G) (?F) (?F) (?F)
                 (A2U) (?F) (T2G) (T2G) (?D) (A1G) (T1U) (T1U)
                 (T1U) (T2G) (EG) (T2G) (T2G) (EG) (A1G) (T1U)
                 (T1U) (T1U) (?C) (?C) (A2U) (?C) (?C) (?C) (?C)
                 (T2G) (T2G) (T2G) (T2G) (T2G) (T2G) (T1U) (T1U)
                 (T1U) (A1G)
 Beta  Orbitals:
       Occupied  (A1G) (?A)
       Virtual   (?B) (?B) (?B) (?A) (?B) (?B) (?B) (?A) (?C) (?C)
                 (?C) (?A) (?B) (?B) (?B) (?A) (?D) (?D) (A2U)
                 (?D) (?D) (?D) (?D) (?C) (?C) (?A) (?A) (?C) (?A)
                 (?E) (?E) (?E) (?A) (?E) (?E) (?E) (?A) (T1U)
                 (T1U) (T1U) (?D) (?D) (?D) (?A) (A2U) (?D) (?E)
                 (?E) (?D) (?D) (?E) (?A) (?A) (T1U) (T1U) (T1U)
                 (EG) (T2G) (T2G) (T2G) (EG) (A1G) (T1U) (T1U)
                 (T1U) (?D) (?D) (?D) (?D) (A2U) (?D) (?D) (EG)
                 (T2G) (T2G) (T2G) (EG) (A1G) (T1U) (T1U) (T1U)
                 (A1G)
    24 initial guesses have been made.
 Convergence on wavefunction:    0.001000000000000
 Davidson Disk Diagonalization:  ConvIn= 1.00D-03 SkipCon=T Conv= 1.00D-03.
 Max sub-space:   968 roots to seek:    24 dimension of matrix:          484
 Iteration     1 Dimension    24 NMult     0 NNew     24
 CISAX will form    24 AO SS matrices at one time.
 NMat=    24 NSing=    24 JSym2X= 2.
 Excitation Energies [eV] at current iteration:
 Root      1 :     0.097812727817740
 Root      2 :     0.097812727817830
 Root      3 :     5.102578365476328
 Root      4 :     9.159110459999374
 Root      5 :     9.159110459999535
 Root      6 :    10.776114942532200
 Root      7 :    10.776117456778790
 Root      8 :    10.937215809413270
 Root      9 :    10.937215809413320
 Root     10 :    12.004272037543840
 Root     11 :    12.004272037544100
 Root     12 :    12.581425523977750
 Root     13 :    13.677880116339570
 Root     14 :    13.813585503925840
 Root     15 :    17.205105607941940
 Root     16 :    17.205105607941990
 Root     17 :    17.724096700175390
 Root     18 :    17.756462343847760
 Root     19 :    18.121200536478010
 Root     20 :    18.121200536478420
 Root     21 :    21.016371152226380
 Root     22 :    21.183371263425360
 Root     23 :    21.595153586814640
 Root     24 :    21.595153586814750
 Iteration     2 Dimension    48 NMult    24 NNew     24
 CISAX will form    24 AO SS matrices at one time.
 NMat=    24 NSing=    24 JSym2X= 2.
 Root      1 not converged, maximum delta is    0.275950923276607
 Excitation Energies [eV] at current iteration:
 Root      1 :     0.000442964854388   Change is   -0.097369762963352
 Root      2 :     0.000442964854479   Change is   -0.097369762963352
 Root      3 :     4.510953809307988   Change is   -0.591624556168339
 Root      4 :     8.413432616238335   Change is   -0.745677843761038
 Root      5 :     8.413432616238529   Change is   -0.745677843761008
 Root      6 :    10.626068980741080   Change is   -0.150045961791123
 Root      7 :    10.626071875881050   Change is   -0.150045580897736
 Root      8 :    10.800002523162140   Change is   -0.137213286251130
 Root      9 :    10.800002523162170   Change is   -0.137213286251154
 Root     10 :    11.905130889041810   Change is   -0.099141148502032
 Root     11 :    11.905130889042090   Change is   -0.099141148502014
 Root     12 :    12.551401622797180   Change is   -0.030023901180563
 Root     13 :    12.906060227110030   Change is   -0.907525276815820
 Root     14 :    13.164717656507680   Change is   -0.513162459831892
 Root     15 :    17.184096218282130   Change is   -0.021009389659815
 Root     16 :    17.184096218282170   Change is   -0.021009389659821
 Root     17 :    17.224300459495400   Change is   -0.499796240679987
 Root     18 :    17.424907237921200   Change is   -0.331555105926554
 Root     19 :    17.750689184801730   Change is   -3.432682078623627
 Root     20 :    18.018853333022810   Change is   -0.102347203455192
 Root     21 :    18.018853333023240   Change is   -0.102347203455174
 Root     22 :    18.341764946370660   Change is   -3.253388640443978
 Root     23 :    18.341764946371150   Change is   -3.253388640443597
 Root     24 :    18.575185781467520   Change is   -2.441185370758859
 Iteration     3 Dimension    51 NMult    48 NNew      3
 CISAX will form     3 AO SS matrices at one time.
 NMat=     3 NSing=     3 JSym2X= 2.
 Root      1 not converged, maximum delta is    0.480810827062869
 Excitation Energies [eV] at current iteration:
 Root      1 :    -0.000023480696894   Change is   -0.000466445551282
 Root      2 :    -0.000023480696776   Change is   -0.000466445551255
 Root      3 :     4.508926962457110   Change is   -0.002026846850879
 Iteration     4 Dimension    54 NMult    51 NNew      3
 CISAX will form     3 AO SS matrices at one time.
 NMat=     3 NSing=     3 JSym2X= 2.
 DSYEVD-2 returned Info=         109 IAlg= 4 N=    54 NDim=    54 NE2=     1876293 trying  DSYEV.
 Root      1 not converged, maximum delta is    0.191388049827595
 Excitation Energies [eV] at current iteration:
 Root      1 :    -0.000023914212781   Change is   -0.000000433515887
 Root      2 :    -0.000023914212653   Change is   -0.000000433515877
 Root      3 :     4.508923678348811   Change is   -0.000003284108299
 Iteration     5 Dimension    57 NMult    54 NNew      3
 CISAX will form     3 AO SS matrices at one time.
 NMat=     3 NSing=     3 JSym2X= 2.
 Root      1 not converged, maximum delta is    0.111335853151829
 Excitation Energies [eV] at current iteration:
 Root      1 :    -0.000023916315296   Change is   -0.000000002102515
 Root      2 :    -0.000023916315163   Change is   -0.000000002102510
 Root      3 :     4.508923670696805   Change is   -0.000000007652006
 Convergence achieved on expansion vectors.
 ***********************************************************************
 Stability analysis using <AA,BB:AA,BB> singles matrix:
 ***********************************************************************
 1PDM for each excited state written to RWF  633
 Ground to excited state transition densities written to RWF  633

 Eigenvectors of the stability matrix:
 
 Excited state symmetry could not be determined.
 Eigenvector   1:  3.004-?Sym  Eigenvalue=-0.0000009  <S**2>=2.006
      3A ->  5A       -0.49782
      4A ->  5A        0.85996
 
 Excited state symmetry could not be determined.
 Eigenvector   2:  3.004-?Sym  Eigenvalue=-0.0000009  <S**2>=2.006
      3A ->  5A        0.85996
      4A ->  5A        0.49782
 
 Excited state symmetry could not be determined.
 Eigenvector   3:  4.101-?Sym  Eigenvalue= 0.1656999  <S**2>=3.955
      2A ->  5A       -0.60515
      2A ->  9A        0.13233
      2B ->  3B        0.74566
      2B ->  9B       -0.22006
 The wavefunction is stable under the perturbations considered.
 Leave Link  914 at Fri Apr 16 22:53:02 2021, MaxMem=   104857600 cpu:             278.1 elap:               6.3
 (Enter /s/ls4/users/knvvv/bin/g16sse/l508.exe)
 The wavefunction is already stable.
 Leave Link  508 at Fri Apr 16 22:53:03 2021, MaxMem=   104857600 cpu:               2.5 elap:               0.1
 (Enter /s/ls4/users/knvvv/bin/g16sse/l601.exe)
 Copying SCF densities to generalized density rwf, IOpCl= 1 IROHF=0.
 SCF density gives NOpUse=  8 NOpAll= 48.
 Marking SCF density as not fully symmetric.

 **********************************************************************

            Population analysis using the SCF density.

 **********************************************************************

 Orbital symmetries:
 Alpha Orbitals:
       Occupied  (A1G) (?A) (?B) (?B)
       Virtual   (?B) (?A) (?B) (?B) (?B) (?A) (T2G) (T2G) (T2G)
                 (?A) (?B) (?B) (?B) (T2G) (?C) (?C) (?C) (?C)
                 (A2U) (?C) (?C) (T2G) (T2G) (T2G) (T2G) (T2G)
                 (?D) (?E) (?D) (?D) (?E) (?F) (?F) (?E) (?E) (?E)
                 (?E) (?F) (?F) (?F) (?D) (T2G) (?F) (?F) (?F)
                 (A2U) (?F) (T2G) (T2G) (?D) (A1G) (T1U) (T1U)
                 (T1U) (T2G) (EG) (T2G) (T2G) (EG) (A1G) (T1U)
                 (T1U) (T1U) (?C) (?C) (A2U) (?C) (?C) (?C) (?C)
                 (T2G) (T2G) (T2G) (T2G) (T2G) (T2G) (T1U) (T1U)
                 (T1U) (A1G)
 Beta  Orbitals:
       Occupied  (A1G) (?A)
       Virtual   (?B) (?B) (?B) (?A) (?B) (?B) (?B) (?A) (?C) (?C)
                 (?C) (?A) (?B) (?B) (?B) (?A) (?D) (?D) (A2U)
                 (?D) (?D) (?D) (?D) (?C) (?C) (?A) (?A) (?C) (?A)
                 (?E) (?E) (?E) (?A) (?E) (?E) (?E) (?A) (T1U)
                 (T1U) (T1U) (?D) (?D) (?D) (?A) (A2U) (?D) (?E)
                 (?E) (?D) (?D) (?E) (?A) (?A) (T1U) (T1U) (T1U)
                 (EG) (T2G) (T2G) (T2G) (EG) (A1G) (T1U) (T1U)
                 (T1U) (?D) (?D) (?D) (?D) (A2U) (?D) (?D) (EG)
                 (T2G) (T2G) (T2G) (EG) (A1G) (T1U) (T1U) (T1U)
                 (A1G)
 Unable to determine electronic state:  an orbital has unidentified symmetry.
 Alpha  occ. eigenvalues --  -10.66435  -0.66891  -0.32392  -0.32392
 Alpha virt. eigenvalues --   -0.09658   0.25153   0.27945   0.27945   0.28064
 Alpha virt. eigenvalues --    0.51933   0.51933   0.52188   0.52188   0.52554
 Alpha virt. eigenvalues --    1.26544   1.26544   1.27134   1.60842   1.68762
 Alpha virt. eigenvalues --    1.69365   1.69365   1.69562   1.69562   1.70289
 Alpha virt. eigenvalues --    1.70289   1.84119   1.84119   1.84458   1.85472
 Alpha virt. eigenvalues --    1.85472   4.66877   4.66877   4.67771   4.67916
 Alpha virt. eigenvalues --    4.67916   4.68009   4.68009   4.68515   4.68515
 Alpha virt. eigenvalues --    4.68626   4.68626   4.70433   5.67887   5.67887
 Alpha virt. eigenvalues --    5.71914   5.71914   5.72187   5.72187   5.73105
 Alpha virt. eigenvalues --    5.73105   5.73687   5.75687   5.75687   5.76363
 Alpha virt. eigenvalues --    8.22888  17.81225  17.81225  17.92914  25.58019
 Alpha virt. eigenvalues --   25.58019  25.60374  25.60374  25.62010  34.02830
 Alpha virt. eigenvalues --   65.04332  65.06619  65.06619  97.12026  97.12026
 Alpha virt. eigenvalues --   97.13246  97.13246  97.14912  97.14932  97.14932
 Alpha virt. eigenvalues --  113.21125 113.21125 113.21231 113.24185 113.24185
 Alpha virt. eigenvalues --  118.88694 220.67211 220.69356 220.69356 498.70040
  Beta  occ. eigenvalues --  -10.64390  -0.53988
  Beta virt. eigenvalues --   -0.06788  -0.04102  -0.04102   0.20213   0.24988
  Beta virt. eigenvalues --    0.24988   0.25574   0.49318   0.49318   0.49593
  Beta virt. eigenvalues --    0.49593   0.49606   1.26287   1.30169   1.30169
  Beta virt. eigenvalues --    1.61774   1.66213   1.66297   1.66297   1.66363
  Beta virt. eigenvalues --    1.66363   1.66378   1.66378   1.82495   1.82495
  Beta virt. eigenvalues --    1.82923   1.83119   1.83119   4.60574   4.60716
  Beta virt. eigenvalues --    4.60716   4.60958   4.60958   4.61848   4.61848
  Beta virt. eigenvalues --    4.63595   4.63595   4.69008   4.76862   4.76862
  Beta virt. eigenvalues --    5.74301   5.75525   5.75525   5.76807   5.78684
  Beta virt. eigenvalues --    5.78684   5.79976   5.79976   5.84630   5.84630
  Beta virt. eigenvalues --    5.88604   5.88604   8.33983  17.97881  18.06247
  Beta virt. eigenvalues --   18.06247  25.67540  25.68316  25.68316  25.71739
  Beta virt. eigenvalues --   25.71739  34.24059  65.06530  65.09176  65.09176
  Beta virt. eigenvalues --   97.18032  97.18211  97.18211  97.18759  97.18759
  Beta virt. eigenvalues --   97.19740  97.19740 113.19472 113.19775 113.19775
  Beta virt. eigenvalues --  113.20995 113.20995 118.87580 220.65033 220.66118
  Beta virt. eigenvalues --  220.66118 498.75852
          Condensed to atoms (all electrons):
               1
     1  C    6.000000
          Atomic-Atomic Spin Densities.
               1
     1  C    2.000000
 Mulliken charges and spin densities:
               1          2
     1  C    0.000000   2.000000
 Sum of Mulliken charges =   0.00000   2.00000
 Mulliken charges and spin densities with hydrogens summed into heavy atoms:
               1          2
     1  C    0.000000   2.000000
 Electronic spatial extent (au):  <R**2>=             13.8643
 Charge=              0.0000 electrons
 Dipole moment (field-independent basis, Debye):
    X=             -0.0000    Y=             -0.0000    Z=              0.0000  Tot=              0.0000
 Quadrupole moment (field-independent basis, Debye-Ang):
   XX=             -4.9196   YY=             -6.8642   ZZ=             -6.8642
   XY=              0.0000   XZ=             -0.0000   YZ=             -0.0000
 Traceless Quadrupole moment (field-independent basis, Debye-Ang):
   XX=              1.2964   YY=             -0.6482   ZZ=             -0.6482
   XY=              0.0000   XZ=             -0.0000   YZ=             -0.0000
 Octapole moment (field-independent basis, Debye-Ang**2):
  XXX=             -0.0000  YYY=              0.0000  ZZZ=             -0.0000  XYY=              0.0000
  XXY=             -0.0000  XXZ=              0.0000  XZZ=             -0.0000  YZZ=              0.0000
  YYZ=             -0.0000  XYZ=              0.0000
 Hexadecapole moment (field-independent basis, Debye-Ang**3):
 XXXX=             -4.9742 YYYY=             -9.0691 ZZZZ=             -9.0691 XXXY=              0.0000
 XXXZ=             -0.0000 YYYX=              0.0000 YYYZ=             -0.0000 ZZZX=             -0.0000
 ZZZY=              0.0000 XXYY=             -2.3455 XXZZ=             -2.3455 YYZZ=             -3.0230
 XXYZ=             -0.0000 YYXZ=             -0.0000 ZZXY=              0.0000
 N-N= 0.000000000000D+00 E-N=-8.821869005546D+01  KE= 3.774566502019D+01
                          Isotropic Fermi Contact Couplings
        Atom                 a.u.       MegaHertz       Gauss      10(-4) cm-1
     1  C(13)              0.18258     102.62564      36.61938      34.23223
 PrsmSu:  requested number of processors reduced to:  21 ShMem   1 Linda.
 --------------------------------------------------------
       Center         ----  Spin Dipole Couplings  ----
                      3XX-RR        3YY-RR        3ZZ-RR
 --------------------------------------------------------
     1   Atom       -1.440556      0.720278      0.720278
 --------------------------------------------------------
                        XY            XZ            YZ
 --------------------------------------------------------
     1   Atom        0.000000      0.000000      0.000000
 --------------------------------------------------------


 ---------------------------------------------------------------------------------
              Anisotropic Spin Dipole Couplings in Principal Axis System
 ---------------------------------------------------------------------------------

       Atom             a.u.   MegaHertz   Gauss  10(-4) cm-1        Axes

              Baa    -1.4406  -193.309   -68.977   -64.481  1.0000  0.0000  0.0000
     1 C(13)  Bbb     0.7203    96.654    34.489    32.240 -0.0000  1.0000  0.0000
              Bcc     0.7203    96.654    34.489    32.240  0.0000  0.0000  1.0000
 

 ---------------------------------------------------------------------------------

 PrsmSu:  requested number of processors reduced to:  21 ShMem   1 Linda.
 No NMR shielding tensors so no spin-rotation constants.
 Leave Link  601 at Fri Apr 16 22:53:12 2021, MaxMem=   104857600 cpu:             455.1 elap:               9.9
 (Enter /s/ls4/users/knvvv/bin/g16sse/l9999.exe)

 Test job not archived.
 1\1\GINC-N184\Stability\UM062X\Gen\C1(3)\KNVVV\16-Apr-2021\0\\#P M062X
 /GEN Integral=UltraFineGrid SCF=NoSymm Stable=(RExt, Opt) IOp(1/33=1)\
 \Database calculations.\\0,3\C,0,0.,0.,0.\\Version=ES64L-G16RevA.03\HF
 =-37.8449494\S2=2.003437\S2-1=0.\S2A=2.\RMSD=2.301e-09\Dipole=0.,0.,0.
 \Quadrupole=-0.4819174,-0.4819174,0.9638348,0.,0.,0.\PG=OH [O(C1)]\\@


 IT IS A CAPITAL MISTAKE TO THEORIZE BEFORE ONE HAS
 DATA.  INSENSIBLY ONE BEGINS TO TWIST FACTS TO SUIT
 THEORIES RATHER THAN THEORIES TO SUIT FACTS.

                                         -- SHERLOCK HOLMES
 Job cpu time:       0 days  2 hours 32 minutes 24.9 seconds.
 Elapsed time:       0 days  0 hours  3 minutes 16.2 seconds.
 File lengths (MBytes):  RWF=     18 Int=      0 D2E=      0 Chk=      2 Scr=      1
 Normal termination of Gaussian 16 at Fri Apr 16 22:53:13 2021.
