 Entering Gaussian System, Link 0=/s/ls4/users/knvvv/bin/g16sse/g16
 Input=data/database/M062X--def2-QZVP--MB16-43_SiH4.gjf
 Output=data/database/M062X--def2-QZVP--MB16-43_SiH4.log
 Initial command:
 /s/ls4/users/knvvv/bin/g16sse/l1.exe "/s/ls4/users/knvvv/bin/scratch/Gau-1961.inp" -scrdir="/s/ls4/users/knvvv/bin/scratch/"
 Entering Link 1 = /s/ls4/users/knvvv/bin/g16sse/l1.exe PID=      1962.
  
 Copyright (c) 1988,1990,1992,1993,1995,1998,2003,2009,2016,
            Gaussian, Inc.  All Rights Reserved.
  
 This is part of the Gaussian(R) 16 program.  It is based on
 the Gaussian(R) 09 system (copyright 2009, Gaussian, Inc.),
 the Gaussian(R) 03 system (copyright 2003, Gaussian, Inc.),
 the Gaussian(R) 98 system (copyright 1998, Gaussian, Inc.),
 the Gaussian(R) 94 system (copyright 1995, Gaussian, Inc.),
 the Gaussian 92(TM) system (copyright 1992, Gaussian, Inc.),
 the Gaussian 90(TM) system (copyright 1990, Gaussian, Inc.),
 the Gaussian 88(TM) system (copyright 1988, Gaussian, Inc.),
 the Gaussian 86(TM) system (copyright 1986, Carnegie Mellon
 University), and the Gaussian 82(TM) system (copyright 1983,
 Carnegie Mellon University). Gaussian is a federally registered
 trademark of Gaussian, Inc.
  
 This software contains proprietary and confidential information,
 including trade secrets, belonging to Gaussian, Inc.
  
 This software is provided under written license and may be
 used, copied, transmitted, or stored only in accord with that
 written license.
  
 The following legend is applicable only to US Government
 contracts under FAR:
  
                    RESTRICTED RIGHTS LEGEND
  
 Use, reproduction and disclosure by the US Government is
 subject to restrictions as set forth in subparagraphs (a)
 and (c) of the Commercial Computer Software - Restricted
 Rights clause in FAR 52.227-19.
  
 Gaussian, Inc.
 340 Quinnipiac St., Bldg. 40, Wallingford CT 06492
  
  
 ---------------------------------------------------------------
 Warning -- This program may not be used in any manner that
 competes with the business of Gaussian, Inc. or will provide
 assistance to any competitor of Gaussian, Inc.  The licensee
 of this program is prohibited from giving any competitor of
 Gaussian, Inc. access to this program.  By using this program,
 the user acknowledges that Gaussian, Inc. is engaged in the
 business of creating and licensing software in the field of
 computational chemistry and represents and warrants to the
 licensee that it is not a competitor of Gaussian, Inc. and that
 it will not use this program in any manner prohibited above.
 ---------------------------------------------------------------
  

 Cite this work as:
 Gaussian 16, Revision A.03,
 M. J. Frisch, G. W. Trucks, H. B. Schlegel, G. E. Scuseria, 
 M. A. Robb, J. R. Cheeseman, G. Scalmani, V. Barone, 
 G. A. Petersson, H. Nakatsuji, X. Li, M. Caricato, A. V. Marenich, 
 J. Bloino, B. G. Janesko, R. Gomperts, B. Mennucci, H. P. Hratchian, 
 J. V. Ortiz, A. F. Izmaylov, J. L. Sonnenberg, D. Williams-Young, 
 F. Ding, F. Lipparini, F. Egidi, J. Goings, B. Peng, A. Petrone, 
 T. Henderson, D. Ranasinghe, V. G. Zakrzewski, J. Gao, N. Rega, 
 G. Zheng, W. Liang, M. Hada, M. Ehara, K. Toyota, R. Fukuda, 
 J. Hasegawa, M. Ishida, T. Nakajima, Y. Honda, O. Kitao, H. Nakai, 
 T. Vreven, K. Throssell, J. A. Montgomery, Jr., J. E. Peralta, 
 F. Ogliaro, M. J. Bearpark, J. J. Heyd, E. N. Brothers, K. N. Kudin, 
 V. N. Staroverov, T. A. Keith, R. Kobayashi, J. Normand, 
 K. Raghavachari, A. P. Rendell, J. C. Burant, S. S. Iyengar, 
 J. Tomasi, M. Cossi, J. M. Millam, M. Klene, C. Adamo, R. Cammi, 
 J. W. Ochterski, R. L. Martin, K. Morokuma, O. Farkas, 
 J. B. Foresman, and D. J. Fox, Gaussian, Inc., Wallingford CT, 2016.
 
 ******************************************
 Gaussian 16:  ES64L-G16RevA.03 25-Dec-2016
                17-Apr-2021 
 ******************************************
 %RWF=temp12_80811,70GB
 %nprocshared=48
 Will use up to   48 processors via shared memory.
 Default route: MaxDisk=80GB
 ----------------------------------------------------------------------
 #P M062X/Def2QZVP Integral=UltraFineGrid SCF=NoSymm Stable=(RExt, Opt)
  IOp(1/33=1)
 ----------------------------------------------------------------------
 1/33=1,38=1,172=1/1;
 2/12=2,17=6,18=5,40=1/2;
 3/5=45,7=101,11=2,25=1,30=1,74=-55,75=-5/1,2,3;
 4/9=2/1;
 5/5=2,38=5/2;
 6/7=2,8=2,9=2,10=2,28=1/1;
 8/6=1,10=90,11=11/1;
 9/8=-3,42=1,46=1/14;
 5/5=2,8=3,17=40,38=5/8(-2);
 6/7=2,8=2,9=2,10=2,28=1/1;
 99/5=1,9=1/99;
 Leave Link    1 at Sat Apr 17 05:07:50 2021, MaxMem=           0 cpu:               8.4 elap:               0.2
 (Enter /s/ls4/users/knvvv/bin/g16sse/l101.exe)
 ONIOM data not found on unit 2.
 ----------------------
 Database calculations.
 ----------------------
 TstMul:  ICh=     0
 TstMul:  Mul=     1
 TstMul:  ICh=     0
 TstMul:  Mul=     1
 Symbolic Z-matrix:
 Charge =  0 Multiplicity = 1
 Si                    0.        0.        0. 
 H                     0.85604   0.85604  -0.85604 
 H                    -0.85604  -0.85604  -0.85604 
 H                     0.85604  -0.85604   0.85604 
 H                    -0.85604   0.85604   0.85604 
 
 RdStrC is calling ZToCFu for IStruc=1 NZ=     5.
 PrtBox:  NBox=     1 Levels=  1 BoxLen=    8.00 SMaxX=        3.24
          Shift=            1.617684            1.617684            1.617684
 Box      1 Number                   0 centers from      1 to      5:
 After GenITR:
 ITRead=  0  0  0  0  0
 MicOpt= -1 -1 -1 -1 -1
 ITRead=  0  0  0  0  0
 MicOpt= -1 -1 -1 -1 -1
 NAtoms=      5 NQM=        5 NQMF=       0 NMMI=      0 NMMIF=      0
                NMic=       0 NMicF=      0.
                    Isotopes and Nuclear Properties:
 (Nuclear quadrupole moments (NQMom) in fm**2, nuclear magnetic moments (NMagM)
  in nuclear magnetons)

  Atom         1           2           3           4           5
 IAtWgt=          28           1           1           1           1
 AtmWgt=  27.9769284   1.0078250   1.0078250   1.0078250   1.0078250
 NucSpn=           0           1           1           1           1
 AtZEff=  -0.0000000  -0.0000000  -0.0000000  -0.0000000  -0.0000000
 NQMom=    0.0000000   0.0000000   0.0000000   0.0000000   0.0000000
 NMagM=    0.0000000   2.7928460   2.7928460   2.7928460   2.7928460
 AtZNuc=  14.0000000   1.0000000   1.0000000   1.0000000   1.0000000
 No MM parameters found.
 Leave Link  101 at Sat Apr 17 05:07:50 2021, MaxMem=   104857600 cpu:               7.0 elap:               0.2
 (Enter /s/ls4/users/knvvv/bin/g16sse/l202.exe)
                          Input orientation:                          
 ---------------------------------------------------------------------
 Center     Atomic      Atomic             Coordinates (Angstroms)
 Number     Number       Type             X           Y           Z
 ---------------------------------------------------------------------
      1         14           0        0.000000    0.000000    0.000000
      2          1           0        0.856041    0.856041   -0.856041
      3          1           0       -0.856041   -0.856041   -0.856041
      4          1           0        0.856041   -0.856041    0.856041
      5          1           0       -0.856041    0.856041    0.856041
 ---------------------------------------------------------------------
                    Distance matrix (angstroms):
                    1          2          3          4          5
     1  Si   0.000000
     2  H    1.482707   0.000000
     3  H    1.482707   2.421251   0.000000
     4  H    1.482707   2.421251   2.421251   0.000000
     5  H    1.482707   2.421251   2.421251   2.421251   0.000000
 Stoichiometry    H4Si
 Framework group  TD[O(Si),4C3(H)]
 Deg. of freedom     1
 Full point group                 TD      NOp  24
 Largest Abelian subgroup         D2      NOp   4
 Largest concise Abelian subgroup D2      NOp   4
                         Standard orientation:                         
 ---------------------------------------------------------------------
 Center     Atomic      Atomic             Coordinates (Angstroms)
 Number     Number       Type             X           Y           Z
 ---------------------------------------------------------------------
      1         14           0        0.000000    0.000000    0.000000
      2          1           0       -0.856041    0.856041   -0.856041
      3          1           0        0.856041   -0.856041   -0.856041
      4          1           0        0.856041    0.856041    0.856041
      5          1           0       -0.856041   -0.856041    0.856041
 ---------------------------------------------------------------------
 Rotational constants (GHZ):          85.5367081          85.5367081          85.5367081
 Leave Link  202 at Sat Apr 17 05:07:51 2021, MaxMem=   104857600 cpu:              20.0 elap:               0.4
 (Enter /s/ls4/users/knvvv/bin/g16sse/l301.exe)
 Standard basis: def2QZVP (5D, 7F)
 Ernie: Thresh=  0.10000D-02 Tol=  0.10000D-05 Strict=F.
 There are    64 symmetry adapted cartesian basis functions of A   symmetry.
 There are    54 symmetry adapted cartesian basis functions of B1  symmetry.
 There are    54 symmetry adapted cartesian basis functions of B2  symmetry.
 There are    54 symmetry adapted cartesian basis functions of B3  symmetry.
 There are    52 symmetry adapted basis functions of A   symmetry.
 There are    46 symmetry adapted basis functions of B1  symmetry.
 There are    46 symmetry adapted basis functions of B2  symmetry.
 There are    46 symmetry adapted basis functions of B3  symmetry.
   190 basis functions,   273 primitive gaussians,   226 cartesian basis functions
     9 alpha electrons        9 beta electrons
       nuclear repulsion energy        21.2976945655 Hartrees.
 IExCor= 4336 DFT=T Ex+Corr=M062X ExCW=0 ScaHFX=  0.540000
 ScaDFX=  1.000000  1.000000  1.000000  1.000000 ScalE2=  1.000000  1.000000
 IRadAn=      5 IRanWt=     -1 IRanGd=            0 ICorTp=0 IEmpDi=  4
 NAtoms=    5 NActive=    5 NUniq=    2 SFac= 4.00D+00 NAtFMM=   60 NAOKFM=F Big=F
 Integral buffers will be    131072 words long.
 Raffenetti 2 integral format.
 Two-electron integral symmetry is turned on.
 Leave Link  301 at Sat Apr 17 05:07:51 2021, MaxMem=   104857600 cpu:               6.0 elap:               0.1
 (Enter /s/ls4/users/knvvv/bin/g16sse/l302.exe)
 NPDir=0 NMtPBC=     1 NCelOv=     1 NCel=       1 NClECP=     1 NCelD=      1
         NCelK=      1 NCelE2=     1 NClLst=     1 CellRange=     0.0.
 One-electron integrals computed using PRISM.
 One-electron integral symmetry used in STVInt
 PrsmSu:  requested number of processors reduced to:   4 ShMem   1 Linda.
 PrsmSu:  requested number of processors reduced to:  21 ShMem   1 Linda.
  24 Symmetry operations used in ECPInt.
 ECPInt:  NShTT=    1953 NPrTT=    4472 LenC2=    1954 LenP2D=    4242.
 LDataN:  DoStor=T MaxTD1= 8 Len=  415
 Number of processors reduced to  33 by ecpmxn.
 NBasis=   190 RedAO= T EigKep=  1.39D-04  NBF=    52    46    46    46
 NBsUse=   190 1.00D-06 EigRej= -1.00D+00 NBFU=    52    46    46    46
 Precomputing XC quadrature grid using
 IXCGrd= 4 IRadAn=           5 IRanWt=          -1 IRanGd=           0 AccXCQ= 0.00D+00.
 Generated NRdTot=       0 NPtTot=           0 NUsed=           0 NTot=          32
 NSgBfM=   226   226   226   226   226 MxSgAt=     5 MxSgA2=     5.
 Leave Link  302 at Sat Apr 17 05:08:30 2021, MaxMem=   104857600 cpu:            1844.9 elap:              39.3
 (Enter /s/ls4/users/knvvv/bin/g16sse/l303.exe)
 DipDrv:  MaxL=1.
 Leave Link  303 at Sat Apr 17 05:08:31 2021, MaxMem=   104857600 cpu:              39.4 elap:               0.9
 (Enter /s/ls4/users/knvvv/bin/g16sse/l401.exe)
 SCF N**3 symmetry information disabled.
 ExpMin= 5.30D-02 ExpMax= 9.18D+05 ExpMxC= 1.04D+03 IAcc=3 IRadAn=         5 AccDes= 0.00D+00
 Harris functional with IExCor= 1009 and IRadAn=       5 diagonalized for initial guess.
 HarFok:  IExCor= 1009 AccDes= 0.00D+00 IRadAn=         5 IDoV= 1 UseB2=F ITyADJ=14
 ICtDFT=  3500011 ScaDFX=  1.000000  1.000000  1.000000  1.000000
 FoFCou: FMM=F IPFlag=           0 FMFlag=      100000 FMFlg1=           0
         NFxFlg=           0 DoJE=T BraDBF=F KetDBF=T FulRan=T
         wScrn=  0.000000 ICntrl=       500 IOpCl=  0 I1Cent=   200000004 NGrid=           0
         NMat0=    1 NMatS0=      1 NMatT0=    0 NMatD0=    1 NMtDS0=    0 NMtDT0=    0
 Petite list used in FoFCou.
 CoulSu:  requested number of processors reduced to:  21 ShMem   1 Linda.
 CoulSu:  requested number of processors reduced to:  21 ShMem   1 Linda.
 CoulSu:  requested number of processors reduced to:  21 ShMem   1 Linda.
 CoulSu:  requested number of processors reduced to:  21 ShMem   1 Linda.
 Harris En= -291.713583947212    
 JPrj=0 DoOrth=F DoCkMO=F.
 Initial guess orbital symmetries:
       Occupied  (A1) (A1) (T2) (T2) (T2) (A1) (T2) (T2) (T2)
       Virtual   (T2) (T2) (T2) (A1) (T2) (T2) (T2) (E) (E) (A1)
                 (T2) (T2) (T2) (A1) (T2) (T2) (T2) (T1) (T1) (T1)
                 (E) (E) (T2) (T2) (T2) (T2) (T2) (T2) (A1) (T2)
                 (T2) (T2) (T1) (T1) (T1) (E) (E) (T2) (T2) (T2)
                 (A1) (A1) (T2) (T2) (T2) (T2) (T2) (T2) (A1) (E)
                 (E) (T1) (T1) (T1) (T2) (T2) (T2) (E) (E) (T2)
                 (T2) (T2) (T1) (T1) (T1) (A1) (T2) (T2) (T2) (T1)
                 (T1) (T1) (E) (E) (T2) (T2) (T2) (A1) (T1) (T1)
                 (T1) (T2) (T2) (T2) (T2) (T2) (T2) (E) (E) (E)
                 (E) (T2) (T2) (T2) (A1) (A1) (T2) (T2) (T2) (T1)
                 (T1) (T1) (T2) (T2) (T2) (A1) (E) (E) (T2) (T2)
                 (T2) (A2) (T1) (T1) (T1) (T2) (T2) (T2) (A1) (A1)
                 (T2) (T2) (T2) (T1) (T1) (T1) (T2) (T2) (T2) (T2)
                 (T2) (T2) (E) (E) (T1) (T1) (T1) (E) (E) (T2)
                 (T2) (T2) (A1) (E) (E) (T2) (T2) (T2) (T1) (T1)
                 (T1) (T1) (T1) (T1) (E) (E) (T2) (T2) (T2) (T1)
                 (T1) (T1) (T2) (T2) (T2) (E) (E) (A1) (T2) (T2)
                 (T2) (T2) (T2) (T2) (A1) (T2) (T2) (T2) (A1) (A1)
                 (A1)
 The electronic state of the initial guess is 1-A1.
 Leave Link  401 at Sat Apr 17 05:08:32 2021, MaxMem=   104857600 cpu:              25.0 elap:               0.7
 (Enter /s/ls4/users/knvvv/bin/g16sse/l502.exe)
 Integral symmetry usage will be decided dynamically.
 Closed shell SCF:
 Using DIIS extrapolation, IDIIS=  1040.
 NGot=   104857600 LenX=   104739991 LenY=   104688474
 Requested convergence on RMS density matrix=1.00D-08 within 128 cycles.
 Requested convergence on MAX density matrix=1.00D-06.
 Requested convergence on             energy=1.00D-06.
 No special actions if energy rises.
 Fock matrices will be formed incrementally for  20 cycles.
 Integral accuracy reduced to 1.0D-05 until final iterations.

 Cycle   1  Pass 0  IDiag  1:
 FoFJK:  IHMeth= 1 ICntrl=       0 DoSepK=F KAlg= 0 I1Cent=           0 FoldK=F
 IRaf= 990000000 NMat=       1 IRICut=       1 DoRegI=T DoRafI=F ISym2E= 1 IDoP0=0 IntGTp=1.
 FoFCou: FMM=F IPFlag=           0 FMFlag=      100000 FMFlg1=           0
         NFxFlg=           0 DoJE=F BraDBF=F KetDBF=F FulRan=T
         wScrn=  0.000000 ICntrl=         0 IOpCl=  0 I1Cent=           0 NGrid=           0
         NMat0=    1 NMatS0=      1 NMatT0=    0 NMatD0=    1 NMtDS0=    0 NMtDT0=    0
 Petite list used in FoFCou.
 CoulSu:  requested number of processors reduced to:  21 ShMem   1 Linda.
 E= -291.851551077251    
 DIIS: error= 2.51D-02 at cycle   1 NSaved=   1.
 NSaved= 1 IEnMin= 1 EnMin= -291.851551077251     IErMin= 1 ErrMin= 2.51D-02
 ErrMax= 2.51D-02  0.00D+00 EMaxC= 1.00D-01 BMatC= 3.08D-02 BMatP= 3.08D-02
 IDIUse=3 WtCom= 7.49D-01 WtEn= 2.51D-01
 Coeff-Com:  0.100D+01
 Coeff-En:   0.100D+01
 Coeff:      0.100D+01
 Gap=     0.468 Goal=   None    Shift=    0.000
 GapD=    0.468 DampG=2.000 DampE=0.500 DampFc=1.0000 IDamp=-1.
 RMSDP=6.77D-04 MaxDP=6.32D-02              OVMax= 3.78D-02

 Cycle   2  Pass 0  IDiag  1:
 RMSU=  6.75D-04    CP:  9.95D-01
 CoulSu:  requested number of processors reduced to:  21 ShMem   1 Linda.
 E= -291.864713655773     Delta-E=       -0.013162578522 Rises=F Damp=F
 DIIS: error= 3.97D-03 at cycle   2 NSaved=   2.
 NSaved= 2 IEnMin= 2 EnMin= -291.864713655773     IErMin= 2 ErrMin= 3.97D-03
 ErrMax= 3.97D-03  0.00D+00 EMaxC= 1.00D-01 BMatC= 1.02D-03 BMatP= 3.08D-02
 IDIUse=3 WtCom= 9.60D-01 WtEn= 3.97D-02
 Coeff-Com:  0.898D-01 0.910D+00
 Coeff-En:   0.000D+00 0.100D+01
 Coeff:      0.863D-01 0.914D+00
 Gap=     0.459 Goal=   None    Shift=    0.000
 RMSDP=1.60D-04 MaxDP=2.05D-02 DE=-1.32D-02 OVMax= 2.84D-03

 Cycle   3  Pass 0  IDiag  1:
 RMSU=  1.41D-04    CP:  9.91D-01  1.09D+00
 CoulSu:  requested number of processors reduced to:  21 ShMem   1 Linda.
 E= -291.864920322267     Delta-E=       -0.000206666494 Rises=F Damp=F
 DIIS: error= 1.13D-03 at cycle   3 NSaved=   3.
 NSaved= 3 IEnMin= 3 EnMin= -291.864920322267     IErMin= 3 ErrMin= 1.13D-03
 ErrMax= 1.13D-03  0.00D+00 EMaxC= 1.00D-01 BMatC= 5.61D-05 BMatP= 1.02D-03
 IDIUse=3 WtCom= 9.89D-01 WtEn= 1.13D-02
 Coeff-Com: -0.139D-02 0.180D+00 0.821D+00
 Coeff-En:   0.000D+00 0.000D+00 0.100D+01
 Coeff:     -0.138D-02 0.178D+00 0.823D+00
 Gap=     0.459 Goal=   None    Shift=    0.000
 RMSDP=1.71D-05 MaxDP=1.63D-03 DE=-2.07D-04 OVMax= 4.01D-04

 Cycle   4  Pass 0  IDiag  1:
 RMSU=  1.23D-05    CP:  9.91D-01  1.11D+00  1.04D+00
 CoulSu:  requested number of processors reduced to:  21 ShMem   1 Linda.
 E= -291.864928547933     Delta-E=       -0.000008225666 Rises=F Damp=F
 DIIS: error= 4.31D-05 at cycle   4 NSaved=   4.
 NSaved= 4 IEnMin= 4 EnMin= -291.864928547933     IErMin= 4 ErrMin= 4.31D-05
 ErrMax= 4.31D-05  0.00D+00 EMaxC= 1.00D-01 BMatC= 9.78D-08 BMatP= 5.61D-05
 IDIUse=1 WtCom= 1.00D+00 WtEn= 0.00D+00
 Coeff-Com: -0.545D-03 0.308D-02 0.371D-01 0.960D+00
 Coeff:     -0.545D-03 0.308D-02 0.371D-01 0.960D+00
 Gap=     0.459 Goal=   None    Shift=    0.000
 RMSDP=3.25D-06 MaxDP=1.11D-04 DE=-8.23D-06 OVMax= 1.84D-04

 Initial convergence to 1.0D-05 achieved.  Increase integral accuracy.
 Cycle   5  Pass 1  IDiag  1:
 CoulSu:  requested number of processors reduced to:  21 ShMem   1 Linda.
 E= -291.864918641337     Delta-E=        0.000009906596 Rises=F Damp=F
 DIIS: error= 5.65D-05 at cycle   1 NSaved=   1.
 NSaved= 1 IEnMin= 1 EnMin= -291.864918641337     IErMin= 1 ErrMin= 5.65D-05
 ErrMax= 5.65D-05  0.00D+00 EMaxC= 1.00D-01 BMatC= 3.41D-07 BMatP= 3.41D-07
 IDIUse=1 WtCom= 1.00D+00 WtEn= 0.00D+00
 Coeff-Com:  0.100D+01
 Coeff:      0.100D+01
 Gap=     0.459 Goal=   None    Shift=    0.000
 RMSDP=3.25D-06 MaxDP=1.11D-04 DE= 9.91D-06 OVMax= 6.34D-05

 Cycle   6  Pass 1  IDiag  1:
 RMSU=  1.32D-05    CP:  1.00D+00
 CoulSu:  requested number of processors reduced to:  21 ShMem   1 Linda.
 E= -291.864918749249     Delta-E=       -0.000000107912 Rises=F Damp=F
 DIIS: error= 4.32D-06 at cycle   2 NSaved=   2.
 NSaved= 2 IEnMin= 2 EnMin= -291.864918749249     IErMin= 2 ErrMin= 4.32D-06
 ErrMax= 4.32D-06  0.00D+00 EMaxC= 1.00D-01 BMatC= 2.37D-09 BMatP= 3.41D-07
 IDIUse=1 WtCom= 1.00D+00 WtEn= 0.00D+00
 Coeff-Com: -0.410D-01 0.104D+01
 Coeff:     -0.410D-01 0.104D+01
 Gap=     0.459 Goal=   None    Shift=    0.000
 RMSDP=1.51D-06 MaxDP=1.13D-04 DE=-1.08D-07 OVMax= 1.36D-05

 Cycle   7  Pass 1  IDiag  1:
 RMSU=  3.21D-07    CP:  1.00D+00  1.11D+00
 CoulSu:  requested number of processors reduced to:  21 ShMem   1 Linda.
 E= -291.864918750720     Delta-E=       -0.000000001471 Rises=F Damp=F
 DIIS: error= 2.15D-06 at cycle   3 NSaved=   3.
 NSaved= 3 IEnMin= 3 EnMin= -291.864918750720     IErMin= 3 ErrMin= 2.15D-06
 ErrMax= 2.15D-06  0.00D+00 EMaxC= 1.00D-01 BMatC= 3.18D-10 BMatP= 2.37D-09
 IDIUse=1 WtCom= 1.00D+00 WtEn= 0.00D+00
 Coeff-Com: -0.187D-01 0.260D+00 0.759D+00
 Coeff:     -0.187D-01 0.260D+00 0.759D+00
 Gap=     0.459 Goal=   None    Shift=    0.000
 RMSDP=1.43D-07 MaxDP=8.56D-06 DE=-1.47D-09 OVMax= 4.22D-06

 Cycle   8  Pass 1  IDiag  1:
 RMSU=  4.70D-08    CP:  1.00D+00  1.12D+00  1.03D+00
 CoulSu:  requested number of processors reduced to:  21 ShMem   1 Linda.
 E= -291.864918750885     Delta-E=       -0.000000000165 Rises=F Damp=F
 DIIS: error= 2.94D-07 at cycle   4 NSaved=   4.
 NSaved= 4 IEnMin= 4 EnMin= -291.864918750885     IErMin= 4 ErrMin= 2.94D-07
 ErrMax= 2.94D-07  0.00D+00 EMaxC= 1.00D-01 BMatC= 9.75D-12 BMatP= 3.18D-10
 IDIUse=1 WtCom= 1.00D+00 WtEn= 0.00D+00
 Coeff-Com:  0.417D-03-0.464D-01 0.665D-01 0.979D+00
 Coeff:      0.417D-03-0.464D-01 0.665D-01 0.979D+00
 Gap=     0.459 Goal=   None    Shift=    0.000
 RMSDP=4.86D-08 MaxDP=2.28D-06 DE=-1.65D-10 OVMax= 9.20D-07

 Cycle   9  Pass 1  IDiag  1:
 RMSU=  1.73D-08    CP:  1.00D+00  1.12D+00  1.05D+00  1.06D+00
 CoulSu:  requested number of processors reduced to:  21 ShMem   1 Linda.
 E= -291.864918750888     Delta-E=       -0.000000000004 Rises=F Damp=F
 DIIS: error= 3.65D-08 at cycle   5 NSaved=   5.
 NSaved= 5 IEnMin= 5 EnMin= -291.864918750888     IErMin= 5 ErrMin= 3.65D-08
 ErrMax= 3.65D-08  0.00D+00 EMaxC= 1.00D-01 BMatC= 1.01D-13 BMatP= 9.75D-12
 IDIUse=1 WtCom= 1.00D+00 WtEn= 0.00D+00
 Coeff-Com:  0.155D-03-0.935D-03-0.643D-02-0.912D-01 0.110D+01
 Coeff:      0.155D-03-0.935D-03-0.643D-02-0.912D-01 0.110D+01
 Gap=     0.459 Goal=   None    Shift=    0.000
 RMSDP=4.42D-09 MaxDP=5.09D-07 DE=-3.64D-12 OVMax= 1.90D-07

 SCF Done:  E(RM062X) =  -291.864918751     A.U. after    9 cycles
            NFock=  9  Conv=0.44D-08     -V/T= 2.0021
 KE= 2.912413449804D+02 PE=-7.370918864051D+02 EE= 1.326879281083D+02
 Leave Link  502 at Sat Apr 17 05:15:03 2021, MaxMem=   104857600 cpu:           18283.0 elap:             391.4
 (Enter /s/ls4/users/knvvv/bin/g16sse/l601.exe)
 Copying SCF densities to generalized density rwf, IOpCl= 0 IROHF=0.

 **********************************************************************

            Population analysis using the SCF density.

 **********************************************************************

 Orbital symmetries:
       Occupied  (A1) (A1) (T2) (T2) (T2) (A1) (T2) (T2) (T2)
       Virtual   (T2) (T2) (T2) (A1) (T2) (T2) (T2) (E) (E) (T2)
                 (T2) (T2) (A1) (A1) (T2) (T2) (T2) (T1) (T1) (T1)
                 (T2) (T2) (T2) (E) (E) (A1) (T2) (T2) (T2) (T2)
                 (T2) (T2) (T1) (T1) (T1) (E) (E) (T2) (T2) (T2)
                 (A1) (A1) (T2) (T2) (T2) (T2) (T2) (T2) (A1) (E)
                 (E) (T1) (T1) (T1) (E) (E) (T2) (T2) (T2) (T2)
                 (T2) (T2) (T1) (T1) (T1) (A1) (T2) (T2) (T2) (T1)
                 (T1) (T1) (T2) (T2) (T2) (E) (E) (A1) (T1) (T1)
                 (T1) (T2) (T2) (T2) (T2) (T2) (T2) (E) (E) (E)
                 (E) (A1) (T2) (T2) (T2) (A1) (T2) (T2) (T2) (T1)
                 (T1) (T1) (T2) (T2) (T2) (A1) (E) (E) (T2) (T2)
                 (T2) (A2) (T1) (T1) (T1) (T2) (T2) (T2) (A1) (T2)
                 (T2) (T2) (T1) (T1) (T1) (A1) (T2) (T2) (T2) (T2)
                 (T2) (T2) (E) (E) (T1) (T1) (T1) (E) (E) (T2)
                 (T2) (T2) (A1) (E) (E) (T2) (T2) (T2) (T1) (T1)
                 (T1) (T1) (T1) (T1) (T2) (T2) (T2) (E) (E) (T1)
                 (T1) (T1) (T2) (T2) (T2) (E) (E) (T2) (T2) (T2)
                 (A1) (T2) (T2) (T2) (A1) (T2) (T2) (T2) (A1) (A1)
                 (A1)
 The electronic state is 1-A1.
 Alpha  occ. eigenvalues --  -67.00073  -5.54247  -3.85395  -3.85395  -3.85395
 Alpha  occ. eigenvalues --   -0.61958  -0.40744  -0.40744  -0.40744
 Alpha virt. eigenvalues --    0.05139   0.05139   0.05139   0.06028   0.12334
 Alpha virt. eigenvalues --    0.12334   0.12334   0.16229   0.16229   0.23230
 Alpha virt. eigenvalues --    0.23230   0.23230   0.23712   0.31796   0.38939
 Alpha virt. eigenvalues --    0.38939   0.38939   0.55113   0.55113   0.55113
 Alpha virt. eigenvalues --    0.58602   0.58602   0.58602   0.58809   0.58809
 Alpha virt. eigenvalues --    0.69834   0.71677   0.71677   0.71677   0.76828
 Alpha virt. eigenvalues --    0.76828   0.76828   0.91943   0.91943   0.91943
 Alpha virt. eigenvalues --    0.94044   0.94044   0.95564   0.95564   0.95564
 Alpha virt. eigenvalues --    1.05277   1.13979   1.26661   1.26661   1.26661
 Alpha virt. eigenvalues --    1.31610   1.31610   1.31610   1.44879   1.65818
 Alpha virt. eigenvalues --    1.65818   1.77442   1.77442   1.77442   1.85183
 Alpha virt. eigenvalues --    1.85183   1.86934   1.86934   1.86934   2.02569
 Alpha virt. eigenvalues --    2.02569   2.02569   2.05838   2.05838   2.05838
 Alpha virt. eigenvalues --    2.09190   2.19265   2.19265   2.19265   2.27222
 Alpha virt. eigenvalues --    2.27222   2.27222   2.34884   2.34884   2.34884
 Alpha virt. eigenvalues --    2.35633   2.35633   2.58108   2.59041   2.59041
 Alpha virt. eigenvalues --    2.59041   2.65964   2.65964   2.65964   2.72329
 Alpha virt. eigenvalues --    2.72329   2.72329   2.88633   2.88633   3.09433
 Alpha virt. eigenvalues --    3.09433   3.13601   3.15406   3.15406   3.15406
 Alpha virt. eigenvalues --    3.27278   3.27740   3.27740   3.27740   3.53324
 Alpha virt. eigenvalues --    3.53324   3.53324   3.69161   3.69161   3.69161
 Alpha virt. eigenvalues --    4.65854   5.34816   5.34816   5.41828   5.41828
 Alpha virt. eigenvalues --    5.41828   5.53154   5.55518   5.55518   5.55518
 Alpha virt. eigenvalues --    5.64322   5.64322   5.64322   5.71499   5.93260
 Alpha virt. eigenvalues --    5.93260   5.93260   5.95223   5.95223   5.95223
 Alpha virt. eigenvalues --    5.95961   6.17734   6.17734   6.17734   6.28434
 Alpha virt. eigenvalues --    6.28434   6.28434   6.39510   6.39510   6.67641
 Alpha virt. eigenvalues --    6.67641   6.67641   6.71055   6.71055   6.96146
 Alpha virt. eigenvalues --    6.96146   6.96146   7.03473   7.52671   7.52671
 Alpha virt. eigenvalues --    7.58920   7.58920   7.58920   7.66453   7.66453
 Alpha virt. eigenvalues --    7.66453   7.81810   7.81810   7.81810   7.85066
 Alpha virt. eigenvalues --    7.85066   7.85066   7.85600   7.85600   8.40564
 Alpha virt. eigenvalues --    8.40564   8.40564   8.50327   8.50327   8.50327
 Alpha virt. eigenvalues --    8.62692   8.62692   8.75233   8.75233   8.75233
 Alpha virt. eigenvalues --    8.82291   9.26859   9.26859   9.26859   9.36236
 Alpha virt. eigenvalues --   12.57309  12.57309  12.57309  16.75372  58.26882
 Alpha virt. eigenvalues --  315.50938
          Condensed to atoms (all electrons):
               1          2          3          4          5
     1  Si  11.953741   0.412122   0.412122   0.412122   0.412122
     2  H    0.412122   0.742974  -0.018551  -0.018551  -0.018551
     3  H    0.412122  -0.018551   0.742974  -0.018551  -0.018551
     4  H    0.412122  -0.018551  -0.018551   0.742974  -0.018551
     5  H    0.412122  -0.018551  -0.018551  -0.018551   0.742974
 Mulliken charges:
               1
     1  Si   0.397770
     2  H   -0.099442
     3  H   -0.099442
     4  H   -0.099442
     5  H   -0.099442
 Sum of Mulliken charges =   0.00000
 Mulliken charges with hydrogens summed into heavy atoms:
               1
     1  Si   0.000000
 Electronic spatial extent (au):  <R**2>=             68.3153
 Charge=             -0.0000 electrons
 Dipole moment (field-independent basis, Debye):
    X=              0.0000    Y=             -0.0000    Z=             -0.0000  Tot=              0.0000
 Quadrupole moment (field-independent basis, Debye-Ang):
   XX=            -16.5495   YY=            -16.5495   ZZ=            -16.5495
   XY=             -0.0000   XZ=              0.0000   YZ=              0.0000
 Traceless Quadrupole moment (field-independent basis, Debye-Ang):
   XX=             -0.0000   YY=              0.0000   ZZ=              0.0000
   XY=             -0.0000   XZ=              0.0000   YZ=              0.0000
 Octapole moment (field-independent basis, Debye-Ang**2):
  XXX=              0.0000  YYY=             -0.0000  ZZZ=             -0.0000  XYY=              0.0000
  XXY=              0.0000  XXZ=              0.0000  XZZ=             -0.0000  YZZ=              0.0000
  YYZ=              0.0000  XYZ=             -1.0253
 Hexadecapole moment (field-independent basis, Debye-Ang**3):
 XXXX=            -42.9940 YYYY=            -42.9940 ZZZZ=            -42.9940 XXXY=              0.0000
 XXXZ=              0.0000 YYYX=              0.0000 YYYZ=             -0.0000 ZZZX=              0.0000
 ZZZY=              0.0000 XXYY=            -13.9870 XXZZ=            -13.9870 YYZZ=            -13.9870
 XXYZ=             -0.0000 YYXZ=              0.0000 ZZXY=             -0.0000
 N-N= 2.129769456547D+01 E-N=-7.370918840529D+02  KE= 2.912413449804D+02
 PrsmSu:  requested number of processors reduced to:  21 ShMem   1 Linda.
 No NMR shielding tensors so no spin-rotation constants.
 Leave Link  601 at Sat Apr 17 05:15:14 2021, MaxMem=   104857600 cpu:             497.6 elap:              10.7
 (Enter /s/ls4/users/knvvv/bin/g16sse/l801.exe)
 DoSCS=F DFT=T ScalE2(SS,OS)=  1.000000  1.000000
 Range of M.O.s used for correlation:     1   190
 NBasis=   190 NAE=     9 NBE=     9 NFC=     0 NFV=     0
 NROrb=    190 NOA=     9 NOB=     9 NVA=   181 NVB=   181

 **** Warning!!: The largest alpha MO coefficient is  0.46118648D+02

 Leave Link  801 at Sat Apr 17 05:15:14 2021, MaxMem=   104857600 cpu:               3.9 elap:               0.1
 (Enter /s/ls4/users/knvvv/bin/g16sse/l914.exe)
 RHF ground state
 Doing stability rather than CIS.
 Two-electron integrals replicated using symmetry.
 MDV=   104857600 DFT=T DoStab=T Mixed=T DoRPA=F DoScal=F NonHer=F
 Making orbital integer symmetry assigments:
 Orbital symmetries:
       Occupied  (A1) (A1) (T2) (T2) (T2) (A1) (T2) (T2) (T2)
       Virtual   (T2) (T2) (T2) (A1) (T2) (T2) (T2) (E) (E) (T2)
                 (T2) (T2) (A1) (A1) (T2) (T2) (T2) (T1) (T1) (T1)
                 (T2) (T2) (T2) (E) (E) (A1) (T2) (T2) (T2) (T2)
                 (T2) (T2) (T1) (T1) (T1) (E) (E) (T2) (T2) (T2)
                 (A1) (A1) (T2) (T2) (T2) (T2) (T2) (T2) (A1) (E)
                 (E) (T1) (T1) (T1) (E) (E) (T2) (T2) (T2) (T2)
                 (T2) (T2) (T1) (T1) (T1) (A1) (T2) (T2) (T2) (T1)
                 (T1) (T1) (T2) (T2) (T2) (E) (E) (A1) (T1) (T1)
                 (T1) (T2) (T2) (T2) (T2) (T2) (T2) (E) (E) (E)
                 (E) (A1) (T2) (T2) (T2) (A1) (T2) (T2) (T2) (T1)
                 (T1) (T1) (T2) (T2) (T2) (A1) (E) (E) (T2) (T2)
                 (T2) (A2) (T1) (T1) (T1) (T2) (T2) (T2) (A1) (T2)
                 (T2) (T2) (T1) (T1) (T1) (A1) (T2) (T2) (T2) (T2)
                 (T2) (T2) (E) (E) (T1) (T1) (T1) (E) (E) (T2)
                 (T2) (T2) (A1) (E) (E) (T2) (T2) (T2) (T1) (T1)
                 (T1) (T1) (T1) (T1) (T2) (T2) (T2) (E) (E) (T1)
                 (T1) (T1) (T2) (T2) (T2) (E) (E) (T2) (T2) (T2)
                 (A1) (T2) (T2) (T2) (A1) (T2) (T2) (T2) (A1) (A1)
                 (A1)
    24 initial guesses have been made.
 Convergence on wavefunction:    0.001000000000000
 Davidson Disk Diagonalization:  ConvIn= 1.00D-03 SkipCon=T Conv= 1.00D-03.
 Max sub-space:  2000 roots to seek:    24 dimension of matrix:         3258
 Iteration     1 Dimension    24 NMult     0 NNew     24
 Estimated number of processors is:   19
 CISAX will form     1 AO SS matrices at one time.
 NMat=     1 NSing=     1 JSym2X= 2.
 FoFJK:  IHMeth= 1 ICntrl=       0 DoSepK=F KAlg= 0 I1Cent=           0 FoldK=F
 IRaf= 990000000 NMat=       1 IRICut=       1 DoRegI=T DoRafI=F ISym2E= 2 IDoP0=0 IntGTp=1.
 FoFCou: FMM=F IPFlag=           0 FMFlag=      100000 FMFlg1=           0
         NFxFlg=           0 DoJE=F BraDBF=F KetDBF=F FulRan=T
         wScrn=  0.000000 ICntrl=         0 IOpCl=  0 I1Cent=           0 NGrid=           0
         NMat0=    1 NMatS0=      1 NMatT0=    0 NMatD0=    1 NMtDS0=    0 NMtDT0=    0
 Integrals replicated using symmetry in FoFCou.
 CoulSu:  requested number of processors reduced to:  18 ShMem   1 Linda.
 NMat=     1 NSing=     1 JSym2X= 2.
 CoulSu:  requested number of processors reduced to:  18 ShMem   1 Linda.
 NMat=     1 NSing=     1 JSym2X= 2.
 CoulSu:  requested number of processors reduced to:  18 ShMem   1 Linda.
 NMat=     1 NSing=     1 JSym2X= 2.
 CoulSu:  requested number of processors reduced to:  18 ShMem   1 Linda.
 NMat=     1 NSing=     1 JSym2X= 2.
 CoulSu:  requested number of processors reduced to:  18 ShMem   1 Linda.
 NMat=     1 NSing=     1 JSym2X= 2.
 CoulSu:  requested number of processors reduced to:  18 ShMem   1 Linda.
 NMat=     1 NSing=     1 JSym2X= 2.
 CoulSu:  requested number of processors reduced to:  18 ShMem   1 Linda.
 NMat=     1 NSing=     1 JSym2X= 2.
 CoulSu:  requested number of processors reduced to:  18 ShMem   1 Linda.
 NMat=     1 NSing=     1 JSym2X= 2.
 CoulSu:  requested number of processors reduced to:  18 ShMem   1 Linda.
 NMat=     1 NSing=     1 JSym2X= 2.
 CoulSu:  requested number of processors reduced to:  18 ShMem   1 Linda.
 NMat=     1 NSing=     1 JSym2X= 2.
 CoulSu:  requested number of processors reduced to:  18 ShMem   1 Linda.
 NMat=     1 NSing=     1 JSym2X= 2.
 CoulSu:  requested number of processors reduced to:  18 ShMem   1 Linda.
 NMat=     1 NSing=     0 JSym2X= 2.
 CoulSu:  requested number of processors reduced to:  18 ShMem   1 Linda.
 NMat=     1 NSing=     0 JSym2X= 2.
 CoulSu:  requested number of processors reduced to:  18 ShMem   1 Linda.
 NMat=     1 NSing=     0 JSym2X= 2.
 CoulSu:  requested number of processors reduced to:  18 ShMem   1 Linda.
 NMat=     1 NSing=     0 JSym2X= 2.
 CoulSu:  requested number of processors reduced to:  18 ShMem   1 Linda.
 NMat=     1 NSing=     0 JSym2X= 2.
 CoulSu:  requested number of processors reduced to:  18 ShMem   1 Linda.
 NMat=     1 NSing=     0 JSym2X= 2.
 CoulSu:  requested number of processors reduced to:  18 ShMem   1 Linda.
 NMat=     1 NSing=     0 JSym2X= 2.
 CoulSu:  requested number of processors reduced to:  18 ShMem   1 Linda.
 NMat=     1 NSing=     0 JSym2X= 2.
 CoulSu:  requested number of processors reduced to:  18 ShMem   1 Linda.
 NMat=     1 NSing=     0 JSym2X= 2.
 CoulSu:  requested number of processors reduced to:  18 ShMem   1 Linda.
 NMat=     1 NSing=     0 JSym2X= 2.
 CoulSu:  requested number of processors reduced to:  18 ShMem   1 Linda.
 NMat=     1 NSing=     0 JSym2X= 2.
 CoulSu:  requested number of processors reduced to:  18 ShMem   1 Linda.
 NMat=     1 NSing=     0 JSym2X= 2.
 CoulSu:  requested number of processors reduced to:  18 ShMem   1 Linda.
 New state      1 was old state     14
 Excitation Energies [eV] at current iteration:
 Root      1 :     9.142473393731450
 Root      2 :     9.142473393732329
 Root      3 :     9.142473393732741
 Root      4 :     9.242661151098719
 Root      5 :     9.242661151099863
 Root      6 :     9.242661151103176
 Root      7 :     9.243667586788087
 Root      8 :     9.368680905148477
 Root      9 :     9.368680905148951
 Root     10 :     9.368680905149828
 Root     11 :     9.603958934526647
 Root     12 :     9.603958934529611
 Root     13 :     9.839477412060576
 Root     14 :     9.839477412061674
 Root     15 :     9.839477412063422
 Root     16 :     9.927192685116681
 Root     17 :     9.927192685117463
 Root     18 :    10.165595820899860
 Root     19 :    10.165595820900660
 Root     20 :    10.165595820901960
 Root     21 :    10.205391530088200
 Root     22 :    12.046692310615080
 Root     23 :    12.046692310616860
 Root     24 :    12.046692310617400
 Iteration     2 Dimension    48 NMult    24 NNew     24
 Estimated number of processors is:   19
 CISAX will form     1 AO SS matrices at one time.
 NMat=     1 NSing=     1 JSym2X= 2.
 CoulSu:  requested number of processors reduced to:  18 ShMem   1 Linda.
 NMat=     1 NSing=     1 JSym2X= 2.
 CoulSu:  requested number of processors reduced to:  18 ShMem   1 Linda.
 NMat=     1 NSing=     1 JSym2X= 2.
 CoulSu:  requested number of processors reduced to:  18 ShMem   1 Linda.
 NMat=     1 NSing=     1 JSym2X= 2.
 CoulSu:  requested number of processors reduced to:  18 ShMem   1 Linda.
 NMat=     1 NSing=     1 JSym2X= 2.
 CoulSu:  requested number of processors reduced to:  18 ShMem   1 Linda.
 NMat=     1 NSing=     1 JSym2X= 2.
 CoulSu:  requested number of processors reduced to:  18 ShMem   1 Linda.
 NMat=     1 NSing=     1 JSym2X= 2.
 CoulSu:  requested number of processors reduced to:  18 ShMem   1 Linda.
 NMat=     1 NSing=     1 JSym2X= 2.
 CoulSu:  requested number of processors reduced to:  18 ShMem   1 Linda.
 NMat=     1 NSing=     1 JSym2X= 2.
 CoulSu:  requested number of processors reduced to:  18 ShMem   1 Linda.
 NMat=     1 NSing=     1 JSym2X= 2.
 CoulSu:  requested number of processors reduced to:  18 ShMem   1 Linda.
 NMat=     1 NSing=     1 JSym2X= 2.
 CoulSu:  requested number of processors reduced to:  18 ShMem   1 Linda.
 NMat=     1 NSing=     1 JSym2X= 2.
 CoulSu:  requested number of processors reduced to:  18 ShMem   1 Linda.
 NMat=     1 NSing=     0 JSym2X= 2.
 CoulSu:  requested number of processors reduced to:  18 ShMem   1 Linda.
 NMat=     1 NSing=     0 JSym2X= 2.
 CoulSu:  requested number of processors reduced to:  18 ShMem   1 Linda.
 NMat=     1 NSing=     0 JSym2X= 2.
 CoulSu:  requested number of processors reduced to:  18 ShMem   1 Linda.
 NMat=     1 NSing=     0 JSym2X= 2.
 CoulSu:  requested number of processors reduced to:  18 ShMem   1 Linda.
 NMat=     1 NSing=     0 JSym2X= 2.
 CoulSu:  requested number of processors reduced to:  18 ShMem   1 Linda.
 NMat=     1 NSing=     0 JSym2X= 2.
 CoulSu:  requested number of processors reduced to:  18 ShMem   1 Linda.
 NMat=     1 NSing=     0 JSym2X= 2.
 CoulSu:  requested number of processors reduced to:  18 ShMem   1 Linda.
 NMat=     1 NSing=     0 JSym2X= 2.
 CoulSu:  requested number of processors reduced to:  18 ShMem   1 Linda.
 NMat=     1 NSing=     0 JSym2X= 2.
 CoulSu:  requested number of processors reduced to:  18 ShMem   1 Linda.
 NMat=     1 NSing=     0 JSym2X= 2.
 CoulSu:  requested number of processors reduced to:  18 ShMem   1 Linda.
 NMat=     1 NSing=     0 JSym2X= 2.
 CoulSu:  requested number of processors reduced to:  18 ShMem   1 Linda.
 NMat=     1 NSing=     0 JSym2X= 2.
 CoulSu:  requested number of processors reduced to:  18 ShMem   1 Linda.
 New state      1 was old state      7
 Root      1 not converged, maximum delta is    0.152220710780591
 Excitation Energies [eV] at current iteration:
 Root      1 :     7.458138243504039   Change is   -1.785529343284048
 Root      2 :     8.083138621213523   Change is   -1.159522529886339
 Root      3 :     8.083138838435449   Change is   -1.159522312667727
 Root      4 :     8.083139188803512   Change is   -1.159521962295207
 Root      5 :     8.504809939247622   Change is   -0.637663454484708
 Root      6 :     8.504810110694931   Change is   -0.637663283036517
 Root      7 :     8.504810272023125   Change is   -0.637663121709618
 Root      8 :     8.992471547960312   Change is   -0.611487386566335
 Root      9 :     8.992471937814873   Change is   -0.611486996714739
 Root     10 :     9.139107305378419   Change is   -0.229573599770058
 Root     11 :     9.139107365386234   Change is   -0.229573539762716
 Root     12 :     9.139107404656716   Change is   -0.229573500493112
 Root     13 :     9.267978054962647   Change is   -0.571499357099028
 Root     14 :     9.267978138940295   Change is   -0.571499273123127
 Root     15 :     9.267978277591919   Change is   -0.571499134468657
 Root     16 :     9.769056243305426   Change is   -0.158136441811256
 Root     17 :     9.769056249279354   Change is   -0.158136435838110
 Root     18 :     9.887483302300121   Change is   -0.317908227788084
 Root     19 :     9.979046824724271   Change is   -0.186548996175585
 Root     20 :     9.979046874433079   Change is   -0.186548946467578
 Root     21 :     9.979047124698461   Change is   -0.186548696203499
 Root     22 :    10.871521801748700   Change is   -1.175170508866377
 Root     23 :    10.871522062848610   Change is   -1.175170247768785
 Root     24 :    10.871522211740100   Change is   -1.175170098876761
 Iteration     3 Dimension    54 NMult    48 NNew      6
 Estimated number of processors is:   19
 CISAX will form     1 AO SS matrices at one time.
 NMat=     1 NSing=     1 JSym2X= 2.
 CoulSu:  requested number of processors reduced to:  18 ShMem   1 Linda.
 NMat=     1 NSing=     1 JSym2X= 2.
 CoulSu:  requested number of processors reduced to:  18 ShMem   1 Linda.
 NMat=     1 NSing=     1 JSym2X= 2.
 CoulSu:  requested number of processors reduced to:  18 ShMem   1 Linda.
 NMat=     1 NSing=     0 JSym2X= 2.
 CoulSu:  requested number of processors reduced to:  18 ShMem   1 Linda.
 NMat=     1 NSing=     0 JSym2X= 2.
 CoulSu:  requested number of processors reduced to:  18 ShMem   1 Linda.
 NMat=     1 NSing=     0 JSym2X= 2.
 CoulSu:  requested number of processors reduced to:  18 ShMem   1 Linda.
 Root      1 not converged, maximum delta is    0.032838049453365
 Excitation Energies [eV] at current iteration:
 Root      1 :     7.299220759099430   Change is   -0.158917484404609
 Root      2 :     8.001246522723420   Change is   -0.081892098490104
 Root      3 :     8.001246620499435   Change is   -0.081892217936013
 Root      4 :     9.124050665851755   Change is   -0.015056738804962
 Root      5 :     9.124050688258132   Change is   -0.015056677128103
 Root      6 :     9.124555850430745   Change is   -0.014551454947673
 Iteration     4 Dimension    60 NMult    54 NNew      6
 Estimated number of processors is:   19
 CISAX will form     1 AO SS matrices at one time.
 NMat=     1 NSing=     1 JSym2X= 2.
 CoulSu:  requested number of processors reduced to:  18 ShMem   1 Linda.
 NMat=     1 NSing=     1 JSym2X= 2.
 CoulSu:  requested number of processors reduced to:  18 ShMem   1 Linda.
 NMat=     1 NSing=     1 JSym2X= 2.
 CoulSu:  requested number of processors reduced to:  18 ShMem   1 Linda.
 NMat=     1 NSing=     0 JSym2X= 2.
 CoulSu:  requested number of processors reduced to:  18 ShMem   1 Linda.
 NMat=     1 NSing=     0 JSym2X= 2.
 CoulSu:  requested number of processors reduced to:  18 ShMem   1 Linda.
 NMat=     1 NSing=     0 JSym2X= 2.
 CoulSu:  requested number of processors reduced to:  18 ShMem   1 Linda.
 Root      1 not converged, maximum delta is    0.012697803823212
 Excitation Energies [eV] at current iteration:
 Root      1 :     7.290879598904826   Change is   -0.008341160194605
 Root      2 :     7.997417543266509   Change is   -0.003828979456911
 Root      3 :     7.997417566850520   Change is   -0.003829053648916
 Root      4 :     9.123041819257161   Change is   -0.001008846594593
 Root      5 :     9.123041824031674   Change is   -0.001008864226457
 Root      6 :     9.123052270924886   Change is   -0.001503579505860
 Iteration     5 Dimension    66 NMult    60 NNew      6
 Estimated number of processors is:   19
 CISAX will form     1 AO SS matrices at one time.
 NMat=     1 NSing=     1 JSym2X= 2.
 CoulSu:  requested number of processors reduced to:  18 ShMem   1 Linda.
 NMat=     1 NSing=     1 JSym2X= 2.
 CoulSu:  requested number of processors reduced to:  18 ShMem   1 Linda.
 NMat=     1 NSing=     1 JSym2X= 2.
 CoulSu:  requested number of processors reduced to:  18 ShMem   1 Linda.
 NMat=     1 NSing=     0 JSym2X= 2.
 CoulSu:  requested number of processors reduced to:  18 ShMem   1 Linda.
 NMat=     1 NSing=     0 JSym2X= 2.
 CoulSu:  requested number of processors reduced to:  18 ShMem   1 Linda.
 NMat=     1 NSing=     0 JSym2X= 2.
 CoulSu:  requested number of processors reduced to:  18 ShMem   1 Linda.
 Root      1 not converged, maximum delta is    0.001448949628906
 Excitation Energies [eV] at current iteration:
 Root      1 :     7.290537517343506   Change is   -0.000342081561319
 Root      2 :     7.997009029578820   Change is   -0.000408513687690
 Root      3 :     7.997009080368444   Change is   -0.000408486482076
 Root      4 :     9.123030219231346   Change is   -0.000011600025815
 Root      5 :     9.123030228088359   Change is   -0.000011595943315
 Root      6 :     9.123030727808864   Change is   -0.000021543116022
 Iteration     6 Dimension    72 NMult    66 NNew      6
 Estimated number of processors is:   19
 CISAX will form     1 AO SS matrices at one time.
 NMat=     1 NSing=     1 JSym2X= 2.
 CoulSu:  requested number of processors reduced to:  18 ShMem   1 Linda.
 NMat=     1 NSing=     1 JSym2X= 2.
 CoulSu:  requested number of processors reduced to:  18 ShMem   1 Linda.
 NMat=     1 NSing=     1 JSym2X= 2.
 CoulSu:  requested number of processors reduced to:  18 ShMem   1 Linda.
 NMat=     1 NSing=     0 JSym2X= 2.
 CoulSu:  requested number of processors reduced to:  18 ShMem   1 Linda.
 NMat=     1 NSing=     0 JSym2X= 2.
 CoulSu:  requested number of processors reduced to:  18 ShMem   1 Linda.
 NMat=     1 NSing=     0 JSym2X= 2.
 CoulSu:  requested number of processors reduced to:  18 ShMem   1 Linda.
 Root      1 has converged.
 Excitation Energies [eV] at current iteration:
 Root      1 :     7.290521746090508   Change is   -0.000015771252999
 Root      2 :     7.996984890266930   Change is   -0.000024139311890
 Root      3 :     7.996984930936998   Change is   -0.000024149431446
 Root      4 :     9.123029605061586   Change is   -0.000000614169760
 Root      5 :     9.123029612810480   Change is   -0.000000615277878
 Root      6 :     9.123029681739146   Change is   -0.000001046069718
 Convergence achieved on expansion vectors.
 ***********************************************************************
 Stability analysis using <AA,BB:AA,BB> singles matrix:
 ***********************************************************************
 1PDM for each excited state written to RWF  633
 Ground to excited state transition densities written to RWF  633

 Eigenvectors of the stability matrix:
 
 Eigenvector   1:      Triplet-T2   Eigenvalue= 0.2679217  <S**2>=2.000
       7 -> 11         0.27742
       7 -> 12        -0.17380
       7 -> 14        -0.13411
       8 -> 10        -0.25658
       8 -> 11        -0.14215
       8 -> 12        -0.15361
       8 -> 16        -0.15382
       9 -> 10         0.20332
       9 -> 11        -0.11165
       9 -> 12        -0.23628
       9 -> 15        -0.15402
 The wavefunction is stable under the perturbations considered.
 Leave Link  914 at Sat Apr 17 05:18:29 2021, MaxMem=   104857600 cpu:            7687.2 elap:             194.7
 (Enter /s/ls4/users/knvvv/bin/g16sse/l508.exe)
 The wavefunction is already stable.
 Leave Link  508 at Sat Apr 17 05:18:29 2021, MaxMem=   104857600 cpu:               2.2 elap:               0.1
 (Enter /s/ls4/users/knvvv/bin/g16sse/l601.exe)
 Copying SCF densities to generalized density rwf, IOpCl= 0 IROHF=0.

 **********************************************************************

            Population analysis using the SCF density.

 **********************************************************************

 Orbital symmetries:
       Occupied  (A1) (A1) (T2) (T2) (T2) (A1) (T2) (T2) (T2)
       Virtual   (T2) (T2) (T2) (A1) (T2) (T2) (T2) (E) (E) (T2)
                 (T2) (T2) (A1) (A1) (T2) (T2) (T2) (T1) (T1) (T1)
                 (T2) (T2) (T2) (E) (E) (A1) (T2) (T2) (T2) (T2)
                 (T2) (T2) (T1) (T1) (T1) (E) (E) (T2) (T2) (T2)
                 (A1) (A1) (T2) (T2) (T2) (T2) (T2) (T2) (A1) (E)
                 (E) (T1) (T1) (T1) (E) (E) (T2) (T2) (T2) (T2)
                 (T2) (T2) (T1) (T1) (T1) (A1) (T2) (T2) (T2) (T1)
                 (T1) (T1) (T2) (T2) (T2) (E) (E) (A1) (T1) (T1)
                 (T1) (T2) (T2) (T2) (T2) (T2) (T2) (E) (E) (E)
                 (E) (A1) (T2) (T2) (T2) (A1) (T2) (T2) (T2) (T1)
                 (T1) (T1) (T2) (T2) (T2) (A1) (E) (E) (T2) (T2)
                 (T2) (A2) (T1) (T1) (T1) (T2) (T2) (T2) (A1) (T2)
                 (T2) (T2) (T1) (T1) (T1) (A1) (T2) (T2) (T2) (T2)
                 (T2) (T2) (E) (E) (T1) (T1) (T1) (E) (E) (T2)
                 (T2) (T2) (A1) (E) (E) (T2) (T2) (T2) (T1) (T1)
                 (T1) (T1) (T1) (T1) (T2) (T2) (T2) (E) (E) (T1)
                 (T1) (T1) (T2) (T2) (T2) (E) (E) (T2) (T2) (T2)
                 (A1) (T2) (T2) (T2) (A1) (T2) (T2) (T2) (A1) (A1)
                 (A1)
 The electronic state is 1-A1.
 Alpha  occ. eigenvalues --  -67.00073  -5.54247  -3.85395  -3.85395  -3.85395
 Alpha  occ. eigenvalues --   -0.61958  -0.40744  -0.40744  -0.40744
 Alpha virt. eigenvalues --    0.05139   0.05139   0.05139   0.06028   0.12334
 Alpha virt. eigenvalues --    0.12334   0.12334   0.16229   0.16229   0.23230
 Alpha virt. eigenvalues --    0.23230   0.23230   0.23712   0.31796   0.38939
 Alpha virt. eigenvalues --    0.38939   0.38939   0.55113   0.55113   0.55113
 Alpha virt. eigenvalues --    0.58602   0.58602   0.58602   0.58809   0.58809
 Alpha virt. eigenvalues --    0.69834   0.71677   0.71677   0.71677   0.76828
 Alpha virt. eigenvalues --    0.76828   0.76828   0.91943   0.91943   0.91943
 Alpha virt. eigenvalues --    0.94044   0.94044   0.95564   0.95564   0.95564
 Alpha virt. eigenvalues --    1.05277   1.13979   1.26661   1.26661   1.26661
 Alpha virt. eigenvalues --    1.31610   1.31610   1.31610   1.44879   1.65818
 Alpha virt. eigenvalues --    1.65818   1.77442   1.77442   1.77442   1.85183
 Alpha virt. eigenvalues --    1.85183   1.86934   1.86934   1.86934   2.02569
 Alpha virt. eigenvalues --    2.02569   2.02569   2.05838   2.05838   2.05838
 Alpha virt. eigenvalues --    2.09190   2.19265   2.19265   2.19265   2.27222
 Alpha virt. eigenvalues --    2.27222   2.27222   2.34884   2.34884   2.34884
 Alpha virt. eigenvalues --    2.35633   2.35633   2.58108   2.59041   2.59041
 Alpha virt. eigenvalues --    2.59041   2.65964   2.65964   2.65964   2.72329
 Alpha virt. eigenvalues --    2.72329   2.72329   2.88633   2.88633   3.09433
 Alpha virt. eigenvalues --    3.09433   3.13601   3.15406   3.15406   3.15406
 Alpha virt. eigenvalues --    3.27278   3.27740   3.27740   3.27740   3.53324
 Alpha virt. eigenvalues --    3.53324   3.53324   3.69161   3.69161   3.69161
 Alpha virt. eigenvalues --    4.65854   5.34816   5.34816   5.41828   5.41828
 Alpha virt. eigenvalues --    5.41828   5.53154   5.55518   5.55518   5.55518
 Alpha virt. eigenvalues --    5.64322   5.64322   5.64322   5.71499   5.93260
 Alpha virt. eigenvalues --    5.93260   5.93260   5.95223   5.95223   5.95223
 Alpha virt. eigenvalues --    5.95961   6.17734   6.17734   6.17734   6.28434
 Alpha virt. eigenvalues --    6.28434   6.28434   6.39510   6.39510   6.67641
 Alpha virt. eigenvalues --    6.67641   6.67641   6.71055   6.71055   6.96146
 Alpha virt. eigenvalues --    6.96146   6.96146   7.03473   7.52671   7.52671
 Alpha virt. eigenvalues --    7.58920   7.58920   7.58920   7.66453   7.66453
 Alpha virt. eigenvalues --    7.66453   7.81810   7.81810   7.81810   7.85066
 Alpha virt. eigenvalues --    7.85066   7.85066   7.85600   7.85600   8.40564
 Alpha virt. eigenvalues --    8.40564   8.40564   8.50327   8.50327   8.50327
 Alpha virt. eigenvalues --    8.62692   8.62692   8.75233   8.75233   8.75233
 Alpha virt. eigenvalues --    8.82291   9.26859   9.26859   9.26859   9.36236
 Alpha virt. eigenvalues --   12.57309  12.57309  12.57309  16.75372  58.26882
 Alpha virt. eigenvalues --  315.50938
          Condensed to atoms (all electrons):
               1          2          3          4          5
     1  Si  11.953741   0.412122   0.412122   0.412122   0.412122
     2  H    0.412122   0.742974  -0.018551  -0.018551  -0.018551
     3  H    0.412122  -0.018551   0.742974  -0.018551  -0.018551
     4  H    0.412122  -0.018551  -0.018551   0.742974  -0.018551
     5  H    0.412122  -0.018551  -0.018551  -0.018551   0.742974
 Mulliken charges:
               1
     1  Si   0.397770
     2  H   -0.099442
     3  H   -0.099442
     4  H   -0.099442
     5  H   -0.099442
 Sum of Mulliken charges =   0.00000
 Mulliken charges with hydrogens summed into heavy atoms:
               1
     1  Si   0.000000
 Electronic spatial extent (au):  <R**2>=             68.3153
 Charge=             -0.0000 electrons
 Dipole moment (field-independent basis, Debye):
    X=              0.0000    Y=             -0.0000    Z=             -0.0000  Tot=              0.0000
 Quadrupole moment (field-independent basis, Debye-Ang):
   XX=            -16.5495   YY=            -16.5495   ZZ=            -16.5495
   XY=             -0.0000   XZ=              0.0000   YZ=              0.0000
 Traceless Quadrupole moment (field-independent basis, Debye-Ang):
   XX=             -0.0000   YY=              0.0000   ZZ=              0.0000
   XY=             -0.0000   XZ=              0.0000   YZ=              0.0000
 Octapole moment (field-independent basis, Debye-Ang**2):
  XXX=              0.0000  YYY=             -0.0000  ZZZ=             -0.0000  XYY=              0.0000
  XXY=              0.0000  XXZ=              0.0000  XZZ=             -0.0000  YZZ=              0.0000
  YYZ=              0.0000  XYZ=             -1.0253
 Hexadecapole moment (field-independent basis, Debye-Ang**3):
 XXXX=            -42.9940 YYYY=            -42.9940 ZZZZ=            -42.9940 XXXY=              0.0000
 XXXZ=              0.0000 YYYX=              0.0000 YYYZ=             -0.0000 ZZZX=              0.0000
 ZZZY=              0.0000 XXYY=            -13.9870 XXZZ=            -13.9870 YYZZ=            -13.9870
 XXYZ=             -0.0000 YYXZ=              0.0000 ZZXY=             -0.0000
 N-N= 2.129769456547D+01 E-N=-7.370918840529D+02  KE= 2.912413449804D+02
 PrsmSu:  requested number of processors reduced to:  21 ShMem   1 Linda.
 No NMR shielding tensors so no spin-rotation constants.
 Leave Link  601 at Sat Apr 17 05:18:39 2021, MaxMem=   104857600 cpu:             475.3 elap:              10.2
 (Enter /s/ls4/users/knvvv/bin/g16sse/l9999.exe)

 Test job not archived.
 1\1\GINC-N178\Stability\RM062X\def2QZVP\H4Si1\KNVVV\17-Apr-2021\0\\#P 
 M062X/Def2QZVP Integral=UltraFineGrid SCF=NoSymm Stable=(RExt, Opt) IO
 p(1/33=1)\\Database calculations.\\0,1\Si,0,0.,0.,0.\H,0,0.8560414,0.8
 560414,-0.8560414\H,0,-0.8560414,-0.8560414,-0.8560414\H,0,0.8560414,-
 0.8560414,0.8560414\H,0,-0.8560414,0.8560414,0.8560414\\Version=ES64L-
 G16RevA.03\State=1-A1\HF=-291.8649188\RMSD=4.425e-09\Dipole=0.,0.,0.\Q
 uadrupole=0.,0.,0.,0.,0.,0.\PG=TD [O(Si1),4C3(H1)]\\@


 HO!  SUCH BUGS AND GOBLINS IN MY LIFE!

                            -- HAMLET, ACT 5, SCENE 2
 Job cpu time:       0 days  8 hours  1 minutes 47.4 seconds.
 Elapsed time:       0 days  0 hours 10 minutes 49.3 seconds.
 File lengths (MBytes):  RWF=    111 Int=      0 D2E=      0 Chk=      5 Scr=      1
 Normal termination of Gaussian 16 at Sat Apr 17 05:18:39 2021.
