 Entering Gaussian System, Link 0=/s/ls4/users/knvvv/bin/g16sse/g16
 Input=data/database/M062X--def2-QZVP--ISOL24_i17p.gjf
 Output=data/database/M062X--def2-QZVP--ISOL24_i17p.log
 Initial command:
 /s/ls4/users/knvvv/bin/g16sse/l1.exe "/s/ls4/users/knvvv/bin/scratch/Gau-15771.inp" -scrdir="/s/ls4/users/knvvv/bin/scratch/"
 Entering Link 1 = /s/ls4/users/knvvv/bin/g16sse/l1.exe PID=     15772.
  
 Copyright (c) 1988,1990,1992,1993,1995,1998,2003,2009,2016,
            Gaussian, Inc.  All Rights Reserved.
  
 This is part of the Gaussian(R) 16 program.  It is based on
 the Gaussian(R) 09 system (copyright 2009, Gaussian, Inc.),
 the Gaussian(R) 03 system (copyright 2003, Gaussian, Inc.),
 the Gaussian(R) 98 system (copyright 1998, Gaussian, Inc.),
 the Gaussian(R) 94 system (copyright 1995, Gaussian, Inc.),
 the Gaussian 92(TM) system (copyright 1992, Gaussian, Inc.),
 the Gaussian 90(TM) system (copyright 1990, Gaussian, Inc.),
 the Gaussian 88(TM) system (copyright 1988, Gaussian, Inc.),
 the Gaussian 86(TM) system (copyright 1986, Carnegie Mellon
 University), and the Gaussian 82(TM) system (copyright 1983,
 Carnegie Mellon University). Gaussian is a federally registered
 trademark of Gaussian, Inc.
  
 This software contains proprietary and confidential information,
 including trade secrets, belonging to Gaussian, Inc.
  
 This software is provided under written license and may be
 used, copied, transmitted, or stored only in accord with that
 written license.
  
 The following legend is applicable only to US Government
 contracts under FAR:
  
                    RESTRICTED RIGHTS LEGEND
  
 Use, reproduction and disclosure by the US Government is
 subject to restrictions as set forth in subparagraphs (a)
 and (c) of the Commercial Computer Software - Restricted
 Rights clause in FAR 52.227-19.
  
 Gaussian, Inc.
 340 Quinnipiac St., Bldg. 40, Wallingford CT 06492
  
  
 ---------------------------------------------------------------
 Warning -- This program may not be used in any manner that
 competes with the business of Gaussian, Inc. or will provide
 assistance to any competitor of Gaussian, Inc.  The licensee
 of this program is prohibited from giving any competitor of
 Gaussian, Inc. access to this program.  By using this program,
 the user acknowledges that Gaussian, Inc. is engaged in the
 business of creating and licensing software in the field of
 computational chemistry and represents and warrants to the
 licensee that it is not a competitor of Gaussian, Inc. and that
 it will not use this program in any manner prohibited above.
 ---------------------------------------------------------------
  

 Cite this work as:
 Gaussian 16, Revision A.03,
 M. J. Frisch, G. W. Trucks, H. B. Schlegel, G. E. Scuseria, 
 M. A. Robb, J. R. Cheeseman, G. Scalmani, V. Barone, 
 G. A. Petersson, H. Nakatsuji, X. Li, M. Caricato, A. V. Marenich, 
 J. Bloino, B. G. Janesko, R. Gomperts, B. Mennucci, H. P. Hratchian, 
 J. V. Ortiz, A. F. Izmaylov, J. L. Sonnenberg, D. Williams-Young, 
 F. Ding, F. Lipparini, F. Egidi, J. Goings, B. Peng, A. Petrone, 
 T. Henderson, D. Ranasinghe, V. G. Zakrzewski, J. Gao, N. Rega, 
 G. Zheng, W. Liang, M. Hada, M. Ehara, K. Toyota, R. Fukuda, 
 J. Hasegawa, M. Ishida, T. Nakajima, Y. Honda, O. Kitao, H. Nakai, 
 T. Vreven, K. Throssell, J. A. Montgomery, Jr., J. E. Peralta, 
 F. Ogliaro, M. J. Bearpark, J. J. Heyd, E. N. Brothers, K. N. Kudin, 
 V. N. Staroverov, T. A. Keith, R. Kobayashi, J. Normand, 
 K. Raghavachari, A. P. Rendell, J. C. Burant, S. S. Iyengar, 
 J. Tomasi, M. Cossi, J. M. Millam, M. Klene, C. Adamo, R. Cammi, 
 J. W. Ochterski, R. L. Martin, K. Morokuma, O. Farkas, 
 J. B. Foresman, and D. J. Fox, Gaussian, Inc., Wallingford CT, 2016.
 
 ******************************************
 Gaussian 16:  ES64L-G16RevA.03 25-Dec-2016
                17-Apr-2021 
 ******************************************
 %RWF=temp4_66343,70GB
 %nprocshared=48
 Will use up to   48 processors via shared memory.
 Default route: MaxDisk=80GB
 ----------------------------------------------------------------------
 #P M062X/Def2QZVP Integral=UltraFineGrid SCF=NoSymm Stable=(RExt, Opt)
  IOp(1/33=1)
 ----------------------------------------------------------------------
 1/33=1,38=1,172=1/1;
 2/12=2,17=6,18=5,40=1/2;
 3/5=45,7=101,11=2,25=1,30=1,74=-55,75=-5/1,2,3;
 4/9=2/1;
 5/5=2,38=5/2;
 6/7=2,8=2,9=2,10=2,28=1/1;
 8/6=1,10=90,11=11/1;
 9/8=-3,42=1,46=1/14;
 5/5=2,8=3,17=40,38=5/8(-2);
 6/7=2,8=2,9=2,10=2,28=1/1;
 99/5=1,9=1/99;
 Leave Link    1 at Sat Apr 17 00:48:48 2021, MaxMem=           0 cpu:               9.6 elap:               0.2
 (Enter /s/ls4/users/knvvv/bin/g16sse/l101.exe)
 ONIOM data not found on unit 2.
 ----------------------
 Database calculations.
 ----------------------
 TstMul:  ICh=     0
 TstMul:  Mul=     1
 TstMul:  ICh=     0
 TstMul:  Mul=     1
 Symbolic Z-matrix:
 Charge =  0 Multiplicity = 1
 C                     4.23498  -0.88148   2.26035 
 C                     4.20666  -0.2149    3.49306 
 C                     3.13773   0.63766   3.79032 
 C                     2.11526   0.8265    2.85979 
 C                     2.14362   0.18787   1.59976 
 C                     3.21968  -0.68658   1.3263 
 C                     1.02866   0.41256   0.68247 
 C                     0.98117   0.3059   -0.68033 
 C                    -0.28273   0.40752  -1.4056 
 C                    -1.52097   0.01171  -0.99007 
 C                    -1.82703  -0.75422   0.19189 
 C                    -3.05738  -0.99241   0.72403 
 C                    -6.7798   -0.62286   0.28705 
 C                    -5.52571  -1.12988   0.62508 
 C                    -4.3439   -0.40167   0.35845 
 C                    -4.47736   0.88122  -0.21904 
 C                    -5.73356   1.38957  -0.55204 
 C                    -6.89014   0.63885  -0.31032 
 C                     4.42966   0.87328  -2.17668 
 C                     3.3052    1.00159  -1.36119 
 C                     2.19371   0.15691  -1.53305 
 C                     2.22986  -0.80376  -2.55857 
 C                     3.35959  -0.93892  -3.37138 
 C                     4.46394  -0.10212  -3.18162 
 H                     5.05147  -1.56371   2.03028 
 H                     5.00315  -0.36975   4.2183 
 H                     3.09771   1.14992   4.74993 
 H                     1.27922   1.48324   3.09741 
 H                     3.24848  -1.21813   0.38054 
 H                     0.10396   0.71908   1.17086 
 H                    -0.20796   0.82091  -2.41222 
 H                    -2.35461   0.22514  -1.65876 
 H                    -0.97966  -1.24864   0.66839 
 H                    -3.10859  -1.73437   1.5226 
 H                    -7.67369  -1.2088    0.49333 
 H                    -5.44433  -2.11094   1.09143 
 H                    -3.59278   1.49311  -0.36945 
 H                    -5.81213   2.38351  -0.98916 
 H                    -7.86817   1.03956  -0.56936 
 H                     5.28031   1.53682  -2.03188 
 H                     3.2786    1.75399  -0.57694 
 H                     1.36935  -1.45415  -2.7046 
 H                     3.37618  -1.69619  -4.15316 
 H                     5.34237  -0.20295  -3.81622 
 
 RdStrC is calling ZToCFu for IStruc=1 NZ=    44.
 PrtBox:  NBox=    10 Levels=  3 BoxLen=    8.00 SMaxX=       24.96
          Shift=           14.868681            3.989092            7.848335
 Box      1 Number                   0 centers from      1 to      4:
 Box      2 Number                   1 centers from      5 to      9:
 Box      3 Number                   2 centers from     10 to     10:
 Box      4 Number                   4 centers from     11 to     15:
 Box      5 Number                   5 centers from     16 to     20:
 Box      6 Number                  32 centers from     21 to     30:
 Box      7 Number                  33 centers from     31 to     39:
 Box      8 Number                  36 centers from     40 to     41:
 Box      9 Number                  37 centers from     42 to     43:
 Box     10 Number                  40 centers from     44 to     44:
 After GenITR:
 ITRead=  0  0  0  0  0  0  0  0  0  0  0  0  0  0  0  0  0  0  0  0
 ITRead=  0  0  0  0  0  0  0  0  0  0  0  0  0  0  0  0  0  0  0  0
 ITRead=  0  0  0  0
 MicOpt= -1 -1 -1 -1 -1 -1 -1 -1 -1 -1 -1 -1 -1 -1 -1 -1 -1 -1 -1 -1
 MicOpt= -1 -1 -1 -1 -1 -1 -1 -1 -1 -1 -1 -1 -1 -1 -1 -1 -1 -1 -1 -1
 MicOpt= -1 -1 -1 -1
 ITRead=  0  0  0  0  0  0  0  0  0  0  0  0  0  0  0  0  0  0  0  0
 ITRead=  0  0  0  0  0  0  0  0  0  0  0  0  0  0  0  0  0  0  0  0
 ITRead=  0  0  0  0
 MicOpt= -1 -1 -1 -1 -1 -1 -1 -1 -1 -1 -1 -1 -1 -1 -1 -1 -1 -1 -1 -1
 MicOpt= -1 -1 -1 -1 -1 -1 -1 -1 -1 -1 -1 -1 -1 -1 -1 -1 -1 -1 -1 -1
 MicOpt= -1 -1 -1 -1
 NAtoms=     44 NQM=       44 NQMF=       0 NMMI=      0 NMMIF=      0
                NMic=       0 NMicF=      0.
                    Isotopes and Nuclear Properties:
 (Nuclear quadrupole moments (NQMom) in fm**2, nuclear magnetic moments (NMagM)
  in nuclear magnetons)

  Atom         1           2           3           4           5           6           7           8           9          10
 IAtWgt=          12          12          12          12          12          12          12          12          12          12
 AtmWgt=  12.0000000  12.0000000  12.0000000  12.0000000  12.0000000  12.0000000  12.0000000  12.0000000  12.0000000  12.0000000
 NucSpn=           0           0           0           0           0           0           0           0           0           0
 AtZEff=  -0.0000000  -0.0000000  -0.0000000  -0.0000000  -0.0000000  -0.0000000  -0.0000000  -0.0000000  -0.0000000  -0.0000000
 NQMom=    0.0000000   0.0000000   0.0000000   0.0000000   0.0000000   0.0000000   0.0000000   0.0000000   0.0000000   0.0000000
 NMagM=    0.0000000   0.0000000   0.0000000   0.0000000   0.0000000   0.0000000   0.0000000   0.0000000   0.0000000   0.0000000
 AtZNuc=   6.0000000   6.0000000   6.0000000   6.0000000   6.0000000   6.0000000   6.0000000   6.0000000   6.0000000   6.0000000

  Atom        11          12          13          14          15          16          17          18          19          20
 IAtWgt=          12          12          12          12          12          12          12          12          12          12
 AtmWgt=  12.0000000  12.0000000  12.0000000  12.0000000  12.0000000  12.0000000  12.0000000  12.0000000  12.0000000  12.0000000
 NucSpn=           0           0           0           0           0           0           0           0           0           0
 AtZEff=  -0.0000000  -0.0000000  -0.0000000  -0.0000000  -0.0000000  -0.0000000  -0.0000000  -0.0000000  -0.0000000  -0.0000000
 NQMom=    0.0000000   0.0000000   0.0000000   0.0000000   0.0000000   0.0000000   0.0000000   0.0000000   0.0000000   0.0000000
 NMagM=    0.0000000   0.0000000   0.0000000   0.0000000   0.0000000   0.0000000   0.0000000   0.0000000   0.0000000   0.0000000
 AtZNuc=   6.0000000   6.0000000   6.0000000   6.0000000   6.0000000   6.0000000   6.0000000   6.0000000   6.0000000   6.0000000

  Atom        21          22          23          24          25          26          27          28          29          30
 IAtWgt=          12          12          12          12           1           1           1           1           1           1
 AtmWgt=  12.0000000  12.0000000  12.0000000  12.0000000   1.0078250   1.0078250   1.0078250   1.0078250   1.0078250   1.0078250
 NucSpn=           0           0           0           0           1           1           1           1           1           1
 AtZEff=  -0.0000000  -0.0000000  -0.0000000  -0.0000000  -0.0000000  -0.0000000  -0.0000000  -0.0000000  -0.0000000  -0.0000000
 NQMom=    0.0000000   0.0000000   0.0000000   0.0000000   0.0000000   0.0000000   0.0000000   0.0000000   0.0000000   0.0000000
 NMagM=    0.0000000   0.0000000   0.0000000   0.0000000   2.7928460   2.7928460   2.7928460   2.7928460   2.7928460   2.7928460
 AtZNuc=   6.0000000   6.0000000   6.0000000   6.0000000   1.0000000   1.0000000   1.0000000   1.0000000   1.0000000   1.0000000

  Atom        31          32          33          34          35          36          37          38          39          40
 IAtWgt=           1           1           1           1           1           1           1           1           1           1
 AtmWgt=   1.0078250   1.0078250   1.0078250   1.0078250   1.0078250   1.0078250   1.0078250   1.0078250   1.0078250   1.0078250
 NucSpn=           1           1           1           1           1           1           1           1           1           1
 AtZEff=  -0.0000000  -0.0000000  -0.0000000  -0.0000000  -0.0000000  -0.0000000  -0.0000000  -0.0000000  -0.0000000  -0.0000000
 NQMom=    0.0000000   0.0000000   0.0000000   0.0000000   0.0000000   0.0000000   0.0000000   0.0000000   0.0000000   0.0000000
 NMagM=    2.7928460   2.7928460   2.7928460   2.7928460   2.7928460   2.7928460   2.7928460   2.7928460   2.7928460   2.7928460
 AtZNuc=   1.0000000   1.0000000   1.0000000   1.0000000   1.0000000   1.0000000   1.0000000   1.0000000   1.0000000   1.0000000

  Atom        41          42          43          44
 IAtWgt=           1           1           1           1
 AtmWgt=   1.0078250   1.0078250   1.0078250   1.0078250
 NucSpn=           1           1           1           1
 AtZEff=  -0.0000000  -0.0000000  -0.0000000  -0.0000000
 NQMom=    0.0000000   0.0000000   0.0000000   0.0000000
 NMagM=    2.7928460   2.7928460   2.7928460   2.7928460
 AtZNuc=   1.0000000   1.0000000   1.0000000   1.0000000
 No MM parameters found.
 Leave Link  101 at Sat Apr 17 00:48:49 2021, MaxMem=   104857600 cpu:               8.8 elap:               0.2
 (Enter /s/ls4/users/knvvv/bin/g16sse/l202.exe)
                          Input orientation:                          
 ---------------------------------------------------------------------
 Center     Atomic      Atomic             Coordinates (Angstroms)
 Number     Number       Type             X           Y           Z
 ---------------------------------------------------------------------
      1          6           0        4.234984   -0.881485    2.260352
      2          6           0        4.206657   -0.214902    3.493057
      3          6           0        3.137727    0.637664    3.790318
      4          6           0        2.115265    0.826499    2.859794
      5          6           0        2.143623    0.187866    1.599761
      6          6           0        3.219683   -0.686576    1.326303
      7          6           0        1.028660    0.412562    0.682474
      8          6           0        0.981174    0.305902   -0.680329
      9          6           0       -0.282733    0.407519   -1.405600
     10          6           0       -1.520971    0.011712   -0.990065
     11          6           0       -1.827030   -0.754219    0.191885
     12          6           0       -3.057377   -0.992414    0.724025
     13          6           0       -6.779798   -0.622855    0.287049
     14          6           0       -5.525713   -1.129878    0.625082
     15          6           0       -4.343903   -0.401669    0.358447
     16          6           0       -4.477359    0.881219   -0.219039
     17          6           0       -5.733564    1.389568   -0.552036
     18          6           0       -6.890138    0.638847   -0.310323
     19          6           0        4.429664    0.873276   -2.176677
     20          6           0        3.305198    1.001591   -1.361191
     21          6           0        2.193712    0.156912   -1.533046
     22          6           0        2.229856   -0.803759   -2.558569
     23          6           0        3.359593   -0.938923   -3.371378
     24          6           0        4.463936   -0.102116   -3.181622
     25          1           0        5.051466   -1.563711    2.030280
     26          1           0        5.003148   -0.369755    4.218304
     27          1           0        3.097712    1.149923    4.749929
     28          1           0        1.279220    1.483244    3.097413
     29          1           0        3.248478   -1.218128    0.380538
     30          1           0        0.103957    0.719080    1.170856
     31          1           0       -0.207957    0.820908   -2.412223
     32          1           0       -2.354612    0.225139   -1.658765
     33          1           0       -0.979661   -1.248643    0.668394
     34          1           0       -3.108588   -1.734370    1.522598
     35          1           0       -7.673694   -1.208805    0.493329
     36          1           0       -5.444334   -2.110937    1.091428
     37          1           0       -3.592781    1.493114   -0.369448
     38          1           0       -5.812130    2.383510   -0.989156
     39          1           0       -7.868167    1.039560   -0.569355
     40          1           0        5.280306    1.536822   -2.031878
     41          1           0        3.278597    1.753995   -0.576940
     42          1           0        1.369352   -1.454146   -2.704598
     43          1           0        3.376176   -1.696189   -4.153160
     44          1           0        5.342366   -0.202954   -3.816217
 ---------------------------------------------------------------------
                    Distance matrix (angstroms):
                    1          2          3          4          5
     1  C    0.000000
     2  C    1.401676   0.000000
     3  C    2.419210   1.399230   0.000000
     4  C    2.787427   2.420632   1.395336   0.000000
     5  C    2.440017   2.828940   2.447264   1.412919   0.000000
     6  C    1.393296   2.427224   2.798516   2.420895   1.413270
     7  C    3.800627   4.288677   3.762649   2.468355   1.461179
     8  C    4.543652   5.300201   4.974683   3.753619   2.562036
     9  C    5.959069   6.673745   6.224956   4.911163   3.868804
    10  C    6.670384   7.277050   6.704278   5.357938   4.490821
    11  C    6.406462   6.898839   6.287675   5.015784   4.316911
    12  C    7.453263   7.812698   7.102015   5.884401   5.404662
    13  C   11.193134  11.451948  10.593352   9.372395   9.055823
    14  C    9.899849  10.187320   9.391385   8.197920   7.842522
    15  C    8.800270   9.108937   8.296549   7.034627   6.631470
    16  C    9.228187   9.507538   8.609518   7.276325   6.901172
    17  C   10.603733  10.851042   9.905615   8.576815   8.253750
    18  C   11.519033  11.761524  10.833897   9.548934   9.244493
    19  C    4.775387   5.777521   6.109799   5.542984   4.467355
    20  C    4.186413   5.084900   5.167062   4.388999   3.283084
    21  C    4.431132   5.426961   5.427752   4.444271   3.133360
    22  C    5.220018   6.393487   6.573454   5.659464   4.275800
    23  C    5.699648   6.954293   7.336534   6.594889   5.240272
    24  C    5.502265   6.680588   7.135408   6.548075   5.322552
    25  H    1.088581   2.161644   3.406784   3.875884   3.421830
    26  H    2.164606   1.088283   2.162836   3.408290   3.917217
    27  H    3.408518   2.161534   1.088514   2.154626   3.429198
    28  H    3.876746   3.407363   2.156194   1.089380   2.160593
    29  H    2.149471   3.407689   3.883661   3.407548   2.164261
    30  H    4.562257   4.805943   4.008986   2.628576   2.150903
    31  H    6.668645   7.445405   7.049730   5.761211   4.693259
    32  H    7.746410   8.353751   7.747803   6.384262   5.554592
    33  H    5.464582   5.995434   5.500676   4.322848   3.561727
    34  H    7.429653   7.726856   7.055887   5.969488   5.593448
    35  H   12.043509  12.293451  11.452790  10.274548   9.977704
    36  H    9.826858  10.124446   9.406943   8.300794   7.944809
    37  H    8.592349   8.869470   7.958340   6.591977   6.203852
    38  H   11.052783  11.279099  10.295207   8.948871   8.649703
    39  H   12.577119  12.801494  11.844744  10.558095  10.279415
    40  H    5.036283   5.894587   6.268739   5.869454   4.984703
    41  H    3.988816   4.615487   4.509875   3.744960   2.911864
    42  H    5.761122   6.927984   7.048883   6.059718   4.671531
    43  H    6.521843   7.832531   8.282666   7.558794   6.177778
    44  H    6.213807   7.396990   7.964072   7.486192   6.302183
                    6          7          8          9         10
     6  C    0.000000
     7  C    2.534404   0.000000
     8  C    3.165835   1.367795   0.000000
     9  C    4.574632   2.465731   1.460755   0.000000
    10  C    5.322309   3.075498   2.538348   1.364758   0.000000
    11  C    5.173083   3.123623   3.125799   2.507279   1.441294
    12  C    6.313300   4.321040   4.468526   3.767462   2.511359
    13  C   10.053544   7.886728   7.875982   6.792539   5.448758
    14  C    8.784656   6.733664   6.790076   5.828902   4.466530
    15  C    7.630580   5.443565   5.471394   4.501083   3.155680
    16  C    8.005656   5.598984   5.508117   4.384884   3.176595
    17  C    9.380787   6.943071   6.802830   5.603977   4.453796
    18  C   10.326848   7.983998   7.887034   6.701563   5.448239
    19  C    4.020954   4.466971   3.801718   4.797726   6.128654
    20  C    3.174877   3.115469   2.519652   3.637052   4.940597
    21  C    3.152772   2.516193   1.489823   2.492353   3.756964
    22  C    4.010701   3.664242   2.513632   3.018217   4.146553
    23  C    4.706534   4.867594   3.801081   4.352439   5.513099
    24  C    4.712871   5.195887   4.307270   5.093608   6.374557
    25  H    2.149506   4.680299   5.235469   6.644148   7.402795
    26  H    3.412447   5.376864   6.374119   7.757125   8.356839
    27  H    3.887006   4.622647   5.888956   7.061806   7.454883
    28  H    3.407396   2.653502   3.968161   4.886104   5.168554
    29  H    1.085287   2.770903   2.930661   4.278138   5.112602
    30  H    3.421664   1.089746   2.089763   2.623876   2.794698
    31  H    5.291295   3.357546   2.163035   1.090767   2.097936
    32  H    6.388632   4.118623   3.477258   2.095241   1.089801
    33  H    4.287569   2.606368   2.842628   2.744090   2.152208
    34  H    6.417431   4.736238   5.073632   4.598639   3.447144
    35  H   10.937652   8.854127   8.864453   7.800303   6.445628
    36  H    8.783460   6.959522   7.089949   6.262579   4.922503
    37  H    7.350938   4.861260   4.735734   3.634356   2.621471
    38  H    9.816335   7.312688   7.110612   5.886612   4.903007
    39  H   11.380399   9.006317   8.880394   7.657519   6.443630
    40  H    4.524052   5.167993   4.671658   5.710950   7.047602
    41  H    3.095512   2.906506   2.717686   3.896505   5.122702
    42  H    4.501228   3.882386   2.710372   2.807593   3.666378
    43  H    5.573897   5.774167   4.669578   5.036098   6.074877
    44  H    5.584370   6.262997   5.395621   6.150243   7.425537
                   11         12         13         14         15
    11  C    0.000000
    12  C    1.361494   0.000000
    13  C    4.955424   3.766157   0.000000
    14  C    3.742865   2.474140   1.394298   0.000000
    15  C    2.546897   1.462113   2.446959   1.413526   0.000000
    16  C    3.141299   2.533026   2.796353   2.419937   1.413189
    17  C    4.517771   3.803176   2.418370   2.788622   2.443086
    18  C    5.275217   4.291963   1.400328   2.421781   2.830767
    19  C    6.885132   8.243219  11.574127  10.534326   9.221053
    20  C    5.642223   6.986169  10.347110   9.299109   7.964612
    21  C    4.468994   5.830031   9.189378   8.118058   6.828628
    22  C    4.901610   6.226223   9.450087   8.389925   7.203122
    23  C    6.295396   7.612667  10.783842   9.744579   8.575785
    24  C    7.168126   8.521553  11.778132  10.739663   9.497359
    25  H    7.165799   8.233226  11.995952  10.678928   9.613444
    26  H    7.937959   8.807369  12.424035  11.151051  10.112708
    27  H    6.975285   7.660459  10.982953   9.827274   8.778962
    28  H    4.805946   5.528827   8.790994   7.697268   6.532560
    29  H    5.100155   6.319235  10.046363   8.778041   7.636186
    30  H    2.618721   3.622555   7.068804   5.950605   4.658277
    31  H    3.447289   4.609055   7.249801   6.427232   5.126144
    32  H    2.159257   2.766587   4.907908   4.136171   2.901605
    33  H    1.090665   2.094195   5.846249   4.547810   3.483038
    34  H    2.091383   1.091255   4.029867   2.648290   2.158087
    35  H    5.872052   4.627140   1.088548   2.153464   3.428873
    36  H    3.966705   2.661511   2.155198   1.089302   2.160973
    37  H    2.912640   2.767705   3.881417   3.406670   2.164306
    38  H    5.207805   4.681935   3.406364   3.877073   3.424756
    39  H    6.347635   5.380098   2.163700   3.408846   3.918979
    40  H    7.791547   9.138326  12.469472  11.442935  10.104296
    41  H    5.740179   7.027079  10.371461   9.342240   7.976487
    42  H    4.369940   5.618237   8.720645   7.663801   6.567438
    43  H    6.843981   8.103878  11.136036  10.119087   9.034932
    44  H    8.232194   9.580853  12.804686  11.777074  10.549460
                   16         17         18         19         20
    16  C    0.000000
    17  C    1.395477   0.000000
    18  C    2.426640   1.399882   0.000000
    19  C    9.119620  10.305204  11.475024   0.000000
    20  C    7.866842   9.083198  10.255769   1.394957   0.000000
    21  C    6.837720   8.082297   9.178434   2.434527   1.406563
    22  C    7.300636   8.500172   9.503159   2.792390   2.418546
    23  C    8.641063   9.800820  10.812789   2.420005   2.794531
    24  C    9.470512  10.636205  11.734921   1.400884   2.423801
    25  H   10.091364  11.476371  12.366551   4.901432   4.596988
    26  H   10.542057  11.879745  12.766205   6.539862   5.991192
    27  H    9.063363  10.303383  11.208234   7.058930   6.116440
    28  H    6.670794   7.906098   8.891798   6.173604   4.920948
    29  H    8.028406   9.399300  10.330401   3.508351   2.822054
    30  H    4.790256   6.123281   7.149664   5.471882   4.091335
    31  H    4.800155   5.857987   7.007330   4.643894   3.671454
    32  H    2.647510   3.741399   4.749785   6.834816   5.720566
    33  H    4.190196   5.572181   6.281262   6.469758   5.248122
    34  H    3.427556   4.577509   4.826166   8.792593   7.545752
    35  H    3.884871   3.407114   2.161858  12.568025  11.351703
    36  H    3.406664   3.877907   3.408308  10.820438   9.605076
    37  H    1.086056   2.151050   3.406734   8.246811   6.986219
    38  H    2.152109   1.088654   2.160270  10.420431   9.228965
    39  H    3.412531   2.163177   1.088214  12.403539  11.201452
    40  H    9.946267  11.113818  12.324359   1.088509   2.153449
    41  H    7.813110   9.019561  10.233173   2.158653   1.087138
    42  H    6.768749   7.948060   8.850557   3.880863   3.403364
    43  H    9.154144  10.270217  11.207899   3.408588   3.883059
    44  H   10.513901  11.656210  12.752807   2.163189   3.410005
                   21         22         23         24         25
    21  C    0.000000
    22  C    1.405665   0.000000
    23  C    2.437129   1.398296   0.000000
    24  C    2.817590   2.423140   1.398508   0.000000
    25  H    4.881045   5.440271   5.694796   5.444757   0.000000
    26  H    6.422487   7.335225   7.786430   7.424372   2.493054
    27  H    6.424878   7.614735   8.389724   8.145162   4.310157
    28  H    4.902714   6.174482   7.213883   7.216790   4.965134
    29  H    2.581680   3.138096   3.763931   3.925788   2.468166
    30  H    3.463263   4.554898   5.829239   6.215130   5.516121
    31  H    2.642320   2.933239   4.091992   4.823953   7.285861
    32  H    4.550572   4.783892   6.077847   6.994196   8.465165
    33  H    4.110014   4.572987   5.936734   6.765345   6.191000
    34  H    6.405333   6.783874   8.149914   9.062949   8.177612
    35  H   10.165484  10.371039  11.693683  12.729967  12.822553
    36  H    8.388728   8.597930   9.939788  10.975797  10.551906
    37  H    6.051685   6.631061   7.953734   8.681230   9.477651
    38  H    8.327489   8.791774  10.041616  10.797351  11.946350
    39  H   10.146387  10.455853  11.740031  12.657334  13.433244
    40  H    3.417608   3.880846   3.407742   2.162057   5.115349
    41  H    2.154481   3.401297   3.881655   3.410945   4.576880
    42  H    2.155832   1.088483   2.161275   3.410569   5.999087
    43  H    3.420117   2.157127   1.088536   2.160596   6.407736
    44  H    3.905944   3.410332   2.161231   1.088356   6.009810
                   26         27         28         29         30
    26  H    0.000000
    27  H    2.494539   0.000000
    28  H    4.307858   2.479683   0.000000
    29  H    4.304306   4.972119   4.307760   0.000000
    30  H    5.871505   4.685932   2.382606   3.776955   0.000000
    31  H    8.516876   7.895069   5.745126   4.889184   3.598071
    32  H    9.435595   8.464893   6.116272   6.134850   3.780911
    33  H    7.012011   6.247960   4.297194   4.238035   2.301875
    34  H    8.656169   7.566569   5.664445   6.479436   4.057534
    35  H   13.239401  11.819705   9.704795  10.922758   8.041619
    36  H   11.043502   9.848065   7.883419   8.767408   6.228871
    37  H    9.920067   8.431400   5.979600   7.397035   4.078913
    38  H   12.315370  10.669776   8.233940   9.845937   6.514297
    39  H   13.805020  12.188415   9.864924  11.383288   8.166137
    40  H    6.540384   7.134865   6.505473   4.187819   6.141725
    41  H    5.520756   5.364061   4.191859   3.122689   3.768843
    42  H    7.893476   8.083216   6.503824   3.620067   4.619879
    43  H    8.630636   9.351090   8.190045   4.560621   6.699708
    44  H    8.043409   8.958102   8.194553   4.798719   7.291226
                   31         32         33         34         35
    31  H    0.000000
    32  H    2.351758   0.000000
    33  H    3.790616   3.078667   0.000000
    34  H    5.515969   3.811722   2.344766   0.000000
    35  H    8.264332   5.914418   6.696440   4.709119   0.000000
    36  H    6.949168   4.750494   4.566817   2.404874   2.478227
    37  H    4.010214   2.191611   3.927180   3.772390   4.969768
    38  H    5.989458   4.130542   6.268395   5.529465   4.309049
    39  H    7.881801   5.678854   7.363383   5.892754   2.494446
    40  H    5.547812   7.755752   7.364608   9.680316  13.480402
    41  H    4.049071   5.936395   5.357186   7.574488  11.396330
    42  H    2.783749   4.216832   4.115479   6.164386   9.594978
    43  H    4.713029   6.538764   6.513140   8.617879  11.996959
    44  H    5.815976   8.005081   7.821331  10.112705  13.747790
                   36         37         38         39         40
    36  H    0.000000
    37  H    4.307156   0.000000
    38  H    4.966302   2.470295   0.000000
    39  H    4.307992   4.304021   2.491931   0.000000
    40  H   11.750706   9.027582  11.173464  13.238904   0.000000
    41  H    9.685591   6.879458   9.121817  11.169639   2.484119
    42  H    7.827357   6.225916   8.321300   9.803550   4.969305
    43  H   10.270303   8.547191  10.539442  12.114587   4.310210
    44  H   12.003261   9.725930  11.794273  13.660313   2.492897
                   41         42         43         44
    41  H    0.000000
    42  H    4.297012   0.000000
    43  H    4.970175   2.486816   0.000000
    44  H    4.310650   4.311150   2.491824   0.000000
 Stoichiometry    C24H20
 Framework group  C1[X(C24H20)]
 Deg. of freedom   126
 Full point group                 C1      NOp   1
 Largest Abelian subgroup         C1      NOp   1
 Largest concise Abelian subgroup C1      NOp   1
                         Standard orientation:                         
 ---------------------------------------------------------------------
 Center     Atomic      Atomic             Coordinates (Angstroms)
 Number     Number       Type             X           Y           Z
 ---------------------------------------------------------------------
      1          6           0       -4.217988    2.262022   -0.886607
      2          6           0       -4.189626    3.495431   -0.221329
      3          6           0       -3.120130    3.794013    0.630065
      4          6           0       -2.097137    2.864101    0.819043
      5          6           0       -2.125496    1.603394    0.181743
      6          6           0       -3.202150    1.328589   -0.691546
      7          6           0       -1.009980    0.686794    0.406493
      8          6           0       -0.962024   -0.676099    0.301212
      9          6           0        0.302260   -1.400750    0.402563
     10          6           0        1.540009   -0.985124    0.005326
     11          6           0        1.844969    0.196153   -0.762080
     12          6           0        3.074907    0.728546   -1.001821
     13          6           0        6.797802    0.293467   -0.634811
     14          6           0        5.543171    0.630463   -1.141172
     15          6           0        4.362057    0.364106   -0.411734
     16          6           0        4.496783   -0.211992    0.871646
     17          6           0        5.753533   -0.543949    1.379327
     18          6           0        6.909403   -0.302546    0.627423
     19          6           0       -4.409446   -2.173259    0.872923
     20          6           0       -3.285209   -1.357182    0.999483
     21          6           0       -2.174334   -1.529464    0.154087
     22          6           0       -2.210835   -2.556000   -0.805488
     23          6           0       -3.340349   -3.369408   -0.938895
     24          6           0       -4.444094   -3.179232   -0.101395
     25          1           0       -5.034926    2.030908   -1.567935
     26          1           0       -4.986537    4.220193   -0.376293
     27          1           0       -3.080094    4.754172    1.141293
     28          1           0       -1.260660    3.102744    1.474866
     29          1           0       -3.230988    0.382260   -1.222091
     30          1           0       -0.085228    1.175871    0.711757
     31          1           0        0.228227   -2.406973    0.817059
     32          1           0        2.374094   -1.653262    0.218776
     33          1           0        0.997007    0.671803   -1.256315
     34          1           0        3.125194    1.526367   -1.744647
     35          1           0        7.691141    0.499502   -1.221695
     36          1           0        5.460811    1.095756   -2.122650
     37          1           0        3.612759   -0.362124    1.484410
     38          1           0        5.833079   -0.980003    2.373660
     39          1           0        7.887860   -0.560764    1.027616
     40          1           0       -5.259611   -2.028115    1.537004
     41          1           0       -3.258321   -0.572138    1.751049
     42          1           0       -1.350796   -2.702356   -1.456416
     43          1           0       -3.357224   -4.151984   -1.695334
     44          1           0       -5.322347   -3.814288   -0.200865
 ---------------------------------------------------------------------
 Rotational constants (GHZ):           0.3757010           0.1063548           0.0884350
 Leave Link  202 at Sat Apr 17 00:48:49 2021, MaxMem=   104857600 cpu:               6.4 elap:               0.2
 (Enter /s/ls4/users/knvvv/bin/g16sse/l301.exe)
 Standard basis: def2QZVP (5D, 7F)
 Ernie: Thresh=  0.10000D-02 Tol=  0.10000D-05 Strict=F.
 There are  2428 symmetry adapted cartesian basis functions of A   symmetry.
 There are  1968 symmetry adapted basis functions of A   symmetry.
  1968 basis functions,  2968 primitive gaussians,  2428 cartesian basis functions
    82 alpha electrons       82 beta electrons
       nuclear repulsion energy      1719.2102275220 Hartrees.
 IExCor= 4336 DFT=T Ex+Corr=M062X ExCW=0 ScaHFX=  0.540000
 ScaDFX=  1.000000  1.000000  1.000000  1.000000 ScalE2=  1.000000  1.000000
 IRadAn=      5 IRanWt=     -1 IRanGd=            0 ICorTp=0 IEmpDi=  4
 NAtoms=   44 NActive=   44 NUniq=   44 SFac= 1.00D+00 NAtFMM=   60 NAOKFM=F Big=F
 Integral buffers will be    131072 words long.
 Raffenetti 2 integral format.
 Two-electron integral symmetry is turned on.
 Leave Link  301 at Sat Apr 17 00:48:49 2021, MaxMem=   104857600 cpu:               7.1 elap:               0.2
 (Enter /s/ls4/users/knvvv/bin/g16sse/l302.exe)
 NPDir=0 NMtPBC=     1 NCelOv=     1 NCel=       1 NClECP=     1 NCelD=      1
         NCelK=      1 NCelE2=     1 NClLst=     1 CellRange=     0.0.
 One-electron integrals computed using PRISM.
 One-electron integral symmetry used in STVInt
 PrsmSu:  requested number of processors reduced to:   2 ShMem   1 Linda.
 PrsmSu:  requested number of processors reduced to:  10 ShMem   1 Linda.
   1 Symmetry operations used in ECPInt.
 ECPInt:  NShTT=  185136 NPrTT=  458502 LenC2=  130064 LenP2D=  233026.
 LDataN:  DoStor=T MaxTD1= 8 Len=  415
 Number of processors reduced to   4 by ecpmxn.
 NBasis=  1968 RedAO= T EigKep=  5.79D-06  NBF=  1968
 NBsUse=  1968 1.00D-06 EigRej= -1.00D+00 NBFU=  1968
 Precomputing XC quadrature grid using
 IXCGrd= 4 IRadAn=           5 IRanWt=          -1 IRanGd=           0 AccXCQ= 0.00D+00.
 Generated NRdTot=       0 NPtTot=           0 NUsed=           0 NTot=          32
 NSgBfM=  2304  2304  2304  2304  2304 MxSgAt=    44 MxSgA2=    44.
 Leave Link  302 at Sat Apr 17 00:50:48 2021, MaxMem=   104857600 cpu:            5577.8 elap:             118.9
 (Enter /s/ls4/users/knvvv/bin/g16sse/l303.exe)
 DipDrv:  MaxL=1.
 Leave Link  303 at Sat Apr 17 00:51:51 2021, MaxMem=   104857600 cpu:            2969.2 elap:              63.3
 (Enter /s/ls4/users/knvvv/bin/g16sse/l401.exe)
 SCF N**3 symmetry information disabled.
 ExpMin= 7.60D-02 ExpMax= 6.70D+04 ExpMxC= 6.47D+02 IAcc=3 IRadAn=         5 AccDes= 0.00D+00
 Harris functional with IExCor= 1009 and IRadAn=       5 diagonalized for initial guess.
 HarFok:  IExCor= 1009 AccDes= 0.00D+00 IRadAn=         5 IDoV= 1 UseB2=F ITyADJ=14
 ICtDFT=  3500011 ScaDFX=  1.000000  1.000000  1.000000  1.000000
 CalDSu:  requested number of processors reduced to:  15 ShMem   1 Linda.
 FoFCou: FMM=F IPFlag=           0 FMFlag=      100000 FMFlg1=           0
         NFxFlg=           0 DoJE=T BraDBF=F KetDBF=T FulRan=T
         wScrn=  0.000000 ICntrl=       500 IOpCl=  0 I1Cent=   200000004 NGrid=           0
         NMat0=    1 NMatS0=      1 NMatT0=    0 NMatD0=    1 NMtDS0=    0 NMtDT0=    0
 Petite list used in FoFCou.
 CoulSu:  requested number of processors reduced to:   7 ShMem   1 Linda.
 CoulSu:  requested number of processors reduced to:   8 ShMem   1 Linda.
 CoulSu:  requested number of processors reduced to:  18 ShMem   1 Linda.
 CoulSu:  requested number of processors reduced to:  18 ShMem   1 Linda.
 Harris En= -926.190369205286    
 JPrj=0 DoOrth=F DoCkMO=F.
 Leave Link  401 at Sat Apr 17 00:53:12 2021, MaxMem=   104857600 cpu:            2781.0 elap:              80.2
 (Enter /s/ls4/users/knvvv/bin/g16sse/l502.exe)
 Integral symmetry usage will be decided dynamically.
 Closed shell SCF:
 Using DIIS extrapolation, IDIIS=  1040.
 NGot=   104857600 LenX=    92932096 LenY=    87034484
 Requested convergence on RMS density matrix=1.00D-08 within 128 cycles.
 Requested convergence on MAX density matrix=1.00D-06.
 Requested convergence on             energy=1.00D-06.
 No special actions if energy rises.
 Fock matrices will be formed incrementally for  20 cycles.
 Integral accuracy reduced to 1.0D-05 until final iterations.

 Cycle   1  Pass 0  IDiag  1:
 FoFJK:  IHMeth= 1 ICntrl=       0 DoSepK=F KAlg= 0 I1Cent=           0 FoldK=F
 IRaf= 620000000 NMat=       1 IRICut=       1 DoRegI=T DoRafI=F ISym2E= 0 IDoP0=0 IntGTp=1.
 FoFCou: FMM=F IPFlag=           0 FMFlag=      100000 FMFlg1=           0
         NFxFlg=           0 DoJE=F BraDBF=F KetDBF=F FulRan=T
         wScrn=  0.000000 ICntrl=         0 IOpCl=  0 I1Cent=           0 NGrid=           0
         NMat0=    1 NMatS0=      1 NMatT0=    0 NMatD0=    1 NMtDS0=    0 NMtDT0=    0
 Symmetry not used in FoFCou.
 CoulSu:  requested number of processors reduced to:   9 ShMem   1 Linda.
 CalDSu:  requested number of processors reduced to:  15 ShMem   1 Linda.
 E= -925.959130215005    
 DIIS: error= 1.57D-02 at cycle   1 NSaved=   1.
 NSaved= 1 IEnMin= 1 EnMin= -925.959130215005     IErMin= 1 ErrMin= 1.57D-02
 ErrMax= 1.57D-02  0.00D+00 EMaxC= 1.00D-01 BMatC= 1.01D+00 BMatP= 1.01D+00
 IDIUse=3 WtCom= 8.43D-01 WtEn= 1.57D-01
 Coeff-Com:  0.100D+01
 Coeff-En:   0.100D+01
 Coeff:      0.100D+01
 Gap=     0.191 Goal=   None    Shift=    0.000
 GapD=    0.191 DampG=1.000 DampE=0.500 DampFc=0.5000 IDamp=-1.
 Damping current iteration by 5.00D-01
 RMSDP=7.80D+01 MaxDP=8.49D+03              OVMax= 1.00D+00

 Problem detected with inexpensive integrals.
 Switching to full accuracy and repeating last cycle.
 Cycle   2  Pass 1  IDiag  1:
 CoulSu:  requested number of processors reduced to:   9 ShMem   1 Linda.
 CalDSu:  requested number of processors reduced to:  15 ShMem   1 Linda.
 E= -925.959103957524     Delta-E=        0.000026257480 Rises=F Damp=F
 DIIS: error= 1.57D-02 at cycle   1 NSaved=   1.
 NSaved= 1 IEnMin= 1 EnMin= -925.959103957524     IErMin= 1 ErrMin= 1.57D-02
 ErrMax= 1.57D-02  0.00D+00 EMaxC= 1.00D-01 BMatC= 1.01D+00 BMatP= 1.01D+00
 IDIUse=3 WtCom= 8.43D-01 WtEn= 1.57D-01
 Coeff-Com:  0.100D+01
 Coeff-En:   0.100D+01
 Coeff:      0.100D+01
 Gap=     0.191 Goal=   None    Shift=    0.000
 GapD=    0.191 DampG=1.000 DampE=0.500 DampFc=0.5000 IDamp=-1.
 Damping current iteration by 5.00D-01
 RMSDP=7.62D-04 MaxDP=9.92D-02 DE= 2.63D-05 OVMax= 1.48D-01

 Cycle   3  Pass 1  IDiag  1:
 RMSU=  3.58D-04    CP:  9.37D-01
 CoulSu:  requested number of processors reduced to:   9 ShMem   1 Linda.
 CalDSu:  requested number of processors reduced to:  15 ShMem   1 Linda.
 E= -926.274965664537     Delta-E=       -0.315861707013 Rises=F Damp=T
 DIIS: error= 8.03D-03 at cycle   2 NSaved=   2.
 NSaved= 2 IEnMin= 2 EnMin= -926.274965664537     IErMin= 2 ErrMin= 8.03D-03
 ErrMax= 8.03D-03  0.00D+00 EMaxC= 1.00D-01 BMatC= 1.38D-01 BMatP= 1.01D+00
 IDIUse=3 WtCom= 9.20D-01 WtEn= 8.03D-02
 Coeff-Com: -0.331D+00 0.133D+01
 Coeff-En:   0.000D+00 0.100D+01
 Coeff:     -0.305D+00 0.130D+01
 Gap=     0.208 Goal=   None    Shift=    0.000
 GapD=    0.208 DampG=1.000 DampE=1.000 DampFc=1.0000 IDamp=-1.
 RMSDP=5.48D-04 MaxDP=5.31D-02 DE=-3.16D-01 OVMax= 7.86D-02

 Cycle   4  Pass 1  IDiag  1:
 RMSU=  5.37D-04    CP:  9.03D-01  1.23D+00
 CoulSu:  requested number of processors reduced to:   9 ShMem   1 Linda.
 CalDSu:  requested number of processors reduced to:  15 ShMem   1 Linda.
 E= -926.542202581252     Delta-E=       -0.267236916715 Rises=F Damp=F
 DIIS: error= 4.33D-03 at cycle   3 NSaved=   3.
 NSaved= 3 IEnMin= 3 EnMin= -926.542202581252     IErMin= 3 ErrMin= 4.33D-03
 ErrMax= 4.33D-03  0.00D+00 EMaxC= 1.00D-01 BMatC= 2.26D-02 BMatP= 1.38D-01
 IDIUse=3 WtCom= 9.57D-01 WtEn= 4.33D-02
 Coeff-Com: -0.183D+00 0.452D+00 0.731D+00
 Coeff-En:   0.000D+00 0.000D+00 0.100D+01
 Coeff:     -0.175D+00 0.433D+00 0.743D+00
 Gap=     0.195 Goal=   None    Shift=    0.000
 RMSDP=8.52D-05 MaxDP=9.18D-03 DE=-2.67D-01 OVMax= 3.57D-02

 Cycle   5  Pass 1  IDiag  1:
 RMSU=  6.97D-05    CP:  8.91D-01  1.31D+00  9.40D-01
 CoulSu:  requested number of processors reduced to:   9 ShMem   1 Linda.
 CalDSu:  requested number of processors reduced to:  15 ShMem   1 Linda.
 E= -926.561183165266     Delta-E=       -0.018980584014 Rises=F Damp=F
 DIIS: error= 1.16D-03 at cycle   4 NSaved=   4.
 NSaved= 4 IEnMin= 4 EnMin= -926.561183165266     IErMin= 4 ErrMin= 1.16D-03
 ErrMax= 1.16D-03  0.00D+00 EMaxC= 1.00D-01 BMatC= 3.05D-03 BMatP= 2.26D-02
 IDIUse=3 WtCom= 9.88D-01 WtEn= 1.16D-02
 Coeff-Com: -0.737D-01 0.165D+00 0.364D+00 0.544D+00
 Coeff-En:   0.000D+00 0.000D+00 0.000D+00 0.100D+01
 Coeff:     -0.729D-01 0.164D+00 0.360D+00 0.549D+00
 Gap=     0.194 Goal=   None    Shift=    0.000
 RMSDP=3.34D-05 MaxDP=4.97D-03 DE=-1.90D-02 OVMax= 1.81D-02

 Cycle   6  Pass 1  IDiag  1:
 RMSU=  2.77D-05    CP:  8.89D-01  1.32D+00  9.18D-01  8.06D-01
 CoulSu:  requested number of processors reduced to:   9 ShMem   1 Linda.
 CalDSu:  requested number of processors reduced to:  15 ShMem   1 Linda.
 E= -926.564081557306     Delta-E=       -0.002898392040 Rises=F Damp=F
 DIIS: error= 4.33D-04 at cycle   5 NSaved=   5.
 NSaved= 5 IEnMin= 5 EnMin= -926.564081557306     IErMin= 5 ErrMin= 4.33D-04
 ErrMax= 4.33D-04  0.00D+00 EMaxC= 1.00D-01 BMatC= 3.14D-04 BMatP= 3.05D-03
 IDIUse=3 WtCom= 9.96D-01 WtEn= 4.33D-03
 Coeff-Com: -0.220D-01 0.474D-01 0.120D+00 0.291D+00 0.564D+00
 Coeff-En:   0.000D+00 0.000D+00 0.000D+00 0.307D-01 0.969D+00
 Coeff:     -0.219D-01 0.472D-01 0.119D+00 0.290D+00 0.566D+00
 Gap=     0.194 Goal=   None    Shift=    0.000
 RMSDP=1.20D-05 MaxDP=2.40D-03 DE=-2.90D-03 OVMax= 6.58D-03

 Cycle   7  Pass 1  IDiag  1:
 RMSU=  9.05D-06    CP:  8.88D-01  1.32D+00  9.11D-01  8.94D-01  1.04D+00
 CoulSu:  requested number of processors reduced to:   9 ShMem   1 Linda.
 CalDSu:  requested number of processors reduced to:  15 ShMem   1 Linda.
 E= -926.564404831843     Delta-E=       -0.000323274537 Rises=F Damp=F
 DIIS: error= 1.13D-04 at cycle   6 NSaved=   6.
 NSaved= 6 IEnMin= 6 EnMin= -926.564404831843     IErMin= 6 ErrMin= 1.13D-04
 ErrMax= 1.13D-04  0.00D+00 EMaxC= 1.00D-01 BMatC= 2.63D-05 BMatP= 3.14D-04
 IDIUse=3 WtCom= 9.99D-01 WtEn= 1.13D-03
 Coeff-Com: -0.333D-02 0.682D-02 0.222D-01 0.902D-01 0.282D+00 0.602D+00
 Coeff-En:   0.000D+00 0.000D+00 0.000D+00 0.000D+00 0.000D+00 0.100D+01
 Coeff:     -0.333D-02 0.682D-02 0.221D-01 0.901D-01 0.282D+00 0.602D+00
 Gap=     0.194 Goal=   None    Shift=    0.000
 RMSDP=4.38D-06 MaxDP=9.05D-04 DE=-3.23D-04 OVMax= 1.53D-03

 Cycle   8  Pass 1  IDiag  1:
 RMSU=  2.71D-06    CP:  8.88D-01  1.31D+00  9.09D-01  9.23D-01  1.12D+00
                    CP:  1.07D+00
 CoulSu:  requested number of processors reduced to:   9 ShMem   1 Linda.
 CalDSu:  requested number of processors reduced to:  15 ShMem   1 Linda.
 E= -926.564431597290     Delta-E=       -0.000026765447 Rises=F Damp=F
 DIIS: error= 4.98D-05 at cycle   7 NSaved=   7.
 NSaved= 7 IEnMin= 7 EnMin= -926.564431597290     IErMin= 7 ErrMin= 4.98D-05
 ErrMax= 4.98D-05  0.00D+00 EMaxC= 1.00D-01 BMatC= 2.14D-06 BMatP= 2.63D-05
 IDIUse=1 WtCom= 1.00D+00 WtEn= 0.00D+00
 Coeff-Com:  0.243D-02-0.530D-02-0.115D-01-0.128D-01 0.212D-01 0.229D+00
 Coeff-Com:  0.777D+00
 Coeff:      0.243D-02-0.530D-02-0.115D-01-0.128D-01 0.212D-01 0.229D+00
 Coeff:      0.777D+00
 Gap=     0.194 Goal=   None    Shift=    0.000
 RMSDP=1.73D-06 MaxDP=3.99D-04 DE=-2.68D-05 OVMax= 7.32D-04

 Cycle   9  Pass 1  IDiag  1:
 RMSU=  8.75D-07    CP:  8.88D-01  1.31D+00  9.08D-01  9.32D-01  1.16D+00
                    CP:  1.15D+00  1.03D+00
 CoulSu:  requested number of processors reduced to:   9 ShMem   1 Linda.
 CalDSu:  requested number of processors reduced to:  15 ShMem   1 Linda.
 E= -926.564434246999     Delta-E=       -0.000002649710 Rises=F Damp=F
 DIIS: error= 1.60D-05 at cycle   8 NSaved=   8.
 NSaved= 8 IEnMin= 8 EnMin= -926.564434246999     IErMin= 8 ErrMin= 1.60D-05
 ErrMax= 1.60D-05  0.00D+00 EMaxC= 1.00D-01 BMatC= 4.83D-07 BMatP= 2.14D-06
 IDIUse=1 WtCom= 1.00D+00 WtEn= 0.00D+00
 Coeff-Com:  0.145D-02-0.316D-02-0.763D-02-0.149D-01-0.157D-01 0.564D-01
 Coeff-Com:  0.400D+00 0.583D+00
 Coeff:      0.145D-02-0.316D-02-0.763D-02-0.149D-01-0.157D-01 0.564D-01
 Coeff:      0.400D+00 0.583D+00
 Gap=     0.194 Goal=   None    Shift=    0.000
 RMSDP=3.91D-07 MaxDP=4.00D-05 DE=-2.65D-06 OVMax= 3.18D-04

 Cycle  10  Pass 1  IDiag  1:
 RMSU=  3.67D-07    CP:  8.88D-01  1.31D+00  9.08D-01  9.31D-01  1.16D+00
                    CP:  1.15D+00  1.06D+00  1.10D+00
 CoulSu:  requested number of processors reduced to:   9 ShMem   1 Linda.
 CalDSu:  requested number of processors reduced to:  15 ShMem   1 Linda.
 E= -926.564434852691     Delta-E=       -0.000000605692 Rises=F Damp=F
 DIIS: error= 6.51D-06 at cycle   9 NSaved=   9.
 NSaved= 9 IEnMin= 9 EnMin= -926.564434852691     IErMin= 9 ErrMin= 6.51D-06
 ErrMax= 6.51D-06  0.00D+00 EMaxC= 1.00D-01 BMatC= 3.14D-08 BMatP= 4.83D-07
 IDIUse=1 WtCom= 1.00D+00 WtEn= 0.00D+00
 Coeff-Com: -0.466D-04 0.696D-04-0.911D-04-0.171D-02-0.706D-02-0.190D-01
 Coeff-Com: -0.783D-02 0.172D+00 0.864D+00
 Coeff:     -0.466D-04 0.696D-04-0.911D-04-0.171D-02-0.706D-02-0.190D-01
 Coeff:     -0.783D-02 0.172D+00 0.864D+00
 Gap=     0.194 Goal=   None    Shift=    0.000
 RMSDP=2.85D-07 MaxDP=3.37D-05 DE=-6.06D-07 OVMax= 1.66D-04

 Cycle  11  Pass 1  IDiag  1:
 RMSU=  1.58D-07    CP:  8.88D-01  1.31D+00  9.08D-01  9.30D-01  1.15D+00
                    CP:  1.15D+00  1.06D+00  1.26D+00  1.26D+00
 CoulSu:  requested number of processors reduced to:   9 ShMem   1 Linda.
 CalDSu:  requested number of processors reduced to:  15 ShMem   1 Linda.
 E= -926.564434917011     Delta-E=       -0.000000064320 Rises=F Damp=F
 DIIS: error= 1.69D-06 at cycle  10 NSaved=  10.
 NSaved=10 IEnMin=10 EnMin= -926.564434917011     IErMin=10 ErrMin= 1.69D-06
 ErrMax= 1.69D-06  0.00D+00 EMaxC= 1.00D-01 BMatC= 7.61D-09 BMatP= 3.14D-08
 IDIUse=1 WtCom= 1.00D+00 WtEn= 0.00D+00
 Coeff-Com: -0.176D-03 0.366D-03 0.751D-03 0.705D-03-0.202D-02-0.154D-01
 Coeff-Com: -0.482D-01 0.148D-01 0.405D+00 0.644D+00
 Coeff:     -0.176D-03 0.366D-03 0.751D-03 0.705D-03-0.202D-02-0.154D-01
 Coeff:     -0.482D-01 0.148D-01 0.405D+00 0.644D+00
 Gap=     0.194 Goal=   None    Shift=    0.000
 RMSDP=6.90D-08 MaxDP=9.55D-06 DE=-6.43D-08 OVMax= 5.83D-05

 Cycle  12  Pass 1  IDiag  1:
 RMSU=  4.22D-08    CP:  8.88D-01  1.31D+00  9.08D-01  9.30D-01  1.15D+00
                    CP:  1.15D+00  1.07D+00  1.29D+00  1.36D+00  1.12D+00
 CoulSu:  requested number of processors reduced to:   9 ShMem   1 Linda.
 CalDSu:  requested number of processors reduced to:  15 ShMem   1 Linda.
 E= -926.564434927985     Delta-E=       -0.000000010974 Rises=F Damp=F
 DIIS: error= 7.16D-07 at cycle  11 NSaved=  11.
 NSaved=11 IEnMin=11 EnMin= -926.564434927985     IErMin=11 ErrMin= 7.16D-07
 ErrMax= 7.16D-07  0.00D+00 EMaxC= 1.00D-01 BMatC= 8.01D-10 BMatP= 7.61D-09
 IDIUse=1 WtCom= 1.00D+00 WtEn= 0.00D+00
 Coeff-Com: -0.417D-04 0.926D-04 0.214D-03 0.336D-03-0.739D-04-0.286D-02
 Coeff-Com: -0.151D-01-0.208D-01 0.956D-02 0.243D+00 0.786D+00
 Coeff:     -0.417D-04 0.926D-04 0.214D-03 0.336D-03-0.739D-04-0.286D-02
 Coeff:     -0.151D-01-0.208D-01 0.956D-02 0.243D+00 0.786D+00
 Gap=     0.194 Goal=   None    Shift=    0.000
 RMSDP=3.38D-08 MaxDP=6.91D-06 DE=-1.10D-08 OVMax= 2.45D-05

 Cycle  13  Pass 1  IDiag  1:
 RMSU=  2.06D-08    CP:  8.88D-01  1.31D+00  9.08D-01  9.30D-01  1.15D+00
                    CP:  1.15D+00  1.07D+00  1.30D+00  1.39D+00  1.18D+00
                    CP:  1.12D+00
 CoulSu:  requested number of processors reduced to:   9 ShMem   1 Linda.
 CalDSu:  requested number of processors reduced to:  15 ShMem   1 Linda.
 E= -926.564434929500     Delta-E=       -0.000000001515 Rises=F Damp=F
 DIIS: error= 2.90D-07 at cycle  12 NSaved=  12.
 NSaved=12 IEnMin=12 EnMin= -926.564434929500     IErMin=12 ErrMin= 2.90D-07
 ErrMax= 2.90D-07  0.00D+00 EMaxC= 1.00D-01 BMatC= 1.47D-10 BMatP= 8.01D-10
 IDIUse=1 WtCom= 1.00D+00 WtEn= 0.00D+00
 Coeff-Com: -0.140D-06 0.362D-05 0.174D-04 0.717D-04 0.129D-03 0.239D-03
 Coeff-Com: -0.198D-02-0.111D-01-0.368D-01 0.477D-01 0.374D+00 0.628D+00
 Coeff:     -0.140D-06 0.362D-05 0.174D-04 0.717D-04 0.129D-03 0.239D-03
 Coeff:     -0.198D-02-0.111D-01-0.368D-01 0.477D-01 0.374D+00 0.628D+00
 Gap=     0.194 Goal=   None    Shift=    0.000
 RMSDP=9.93D-09 MaxDP=2.02D-06 DE=-1.52D-09 OVMax= 6.51D-06

 Cycle  14  Pass 1  IDiag  1:
 RMSU=  6.54D-09    CP:  8.88D-01  1.31D+00  9.08D-01  9.30D-01  1.15D+00
                    CP:  1.15D+00  1.07D+00  1.30D+00  1.39D+00  1.19D+00
                    CP:  1.20D+00  1.07D+00
 CoulSu:  requested number of processors reduced to:   9 ShMem   1 Linda.
 CalDSu:  requested number of processors reduced to:  15 ShMem   1 Linda.
 E= -926.564434929518     Delta-E=       -0.000000000018 Rises=F Damp=F
 DIIS: error= 7.36D-08 at cycle  13 NSaved=  13.
 NSaved=13 IEnMin=13 EnMin= -926.564434929518     IErMin=13 ErrMin= 7.36D-08
 ErrMax= 7.36D-08  0.00D+00 EMaxC= 1.00D-01 BMatC= 1.40D-11 BMatP= 1.47D-10
 IDIUse=1 WtCom= 1.00D+00 WtEn= 0.00D+00
 Coeff-Com:  0.516D-05-0.102D-04-0.187D-04-0.105D-04 0.531D-04 0.456D-03
 Coeff-Com:  0.122D-02-0.131D-02-0.146D-01-0.150D-01 0.315D-01 0.253D+00
 Coeff-Com:  0.744D+00
 Coeff:      0.516D-05-0.102D-04-0.187D-04-0.105D-04 0.531D-04 0.456D-03
 Coeff:      0.122D-02-0.131D-02-0.146D-01-0.150D-01 0.315D-01 0.253D+00
 Coeff:      0.744D+00
 Gap=     0.194 Goal=   None    Shift=    0.000
 RMSDP=3.17D-09 MaxDP=5.79D-07 DE=-1.82D-11 OVMax= 1.78D-06

 SCF Done:  E(RM062X) =  -926.564434930     A.U. after   14 cycles
            NFock= 14  Conv=0.32D-08     -V/T= 2.0053
 KE= 9.217241271983D+02 PE=-5.585994308440D+03 EE= 2.018495518790D+03
 Leave Link  502 at Sat Apr 17 05:58:13 2021, MaxMem=   104857600 cpu:          206875.0 elap:           18300.9
 (Enter /s/ls4/users/knvvv/bin/g16sse/l601.exe)
 Copying SCF densities to generalized density rwf, IOpCl= 0 IROHF=0.

 **********************************************************************

            Population analysis using the SCF density.

 **********************************************************************

 Orbital symmetries:
       Occupied  (A) (A) (A) (A) (A) (A) (A) (A) (A) (A) (A) (A)
                 (A) (A) (A) (A) (A) (A) (A) (A) (A) (A) (A) (A)
                 (A) (A) (A) (A) (A) (A) (A) (A) (A) (A) (A) (A)
                 (A) (A) (A) (A) (A) (A) (A) (A) (A) (A) (A) (A)
                 (A) (A) (A) (A) (A) (A) (A) (A) (A) (A) (A) (A)
                 (A) (A) (A) (A) (A) (A) (A) (A) (A) (A) (A) (A)
                 (A) (A) (A) (A) (A) (A) (A) (A) (A) (A)
       Virtual   (A) (A) (A) (A) (A) (A) (A) (A) (A) (A) (A) (A)
                 (A) (A) (A) (A) (A) (A) (A) (A) (A) (A) (A) (A)
                 (A) (A) (A) (A) (A) (A) (A) (A) (A) (A) (A) (A)
                 (A) (A) (A) (A) (A) (A) (A) (A) (A) (A) (A) (A)
                 (A) (A) (A) (A) (A) (A) (A) (A) (A) (A) (A) (A)
                 (A) (A) (A) (A) (A) (A) (A) (A) (A) (A) (A) (A)
                 (A) (A) (A) (A) (A) (A) (A) (A) (A) (A) (A) (A)
                 (A) (A) (A) (A) (A) (A) (A) (A) (A) (A) (A) (A)
                 (A) (A) (A) (A) (A) (A) (A) (A) (A) (A) (A) (A)
                 (A) (A) (A) (A) (A) (A) (A) (A) (A) (A) (A) (A)
                 (A) (A) (A) (A) (A) (A) (A) (A) (A) (A) (A) (A)
                 (A) (A) (A) (A) (A) (A) (A) (A) (A) (A) (A) (A)
                 (A) (A) (A) (A) (A) (A) (A) (A) (A) (A) (A) (A)
                 (A) (A) (A) (A) (A) (A) (A) (A) (A) (A) (A) (A)
                 (A) (A) (A) (A) (A) (A) (A) (A) (A) (A) (A) (A)
                 (A) (A) (A) (A) (A) (A) (A) (A) (A) (A) (A) (A)
                 (A) (A) (A) (A) (A) (A) (A) (A) (A) (A) (A) (A)
                 (A) (A) (A) (A) (A) (A) (A) (A) (A) (A) (A) (A)
                 (A) (A) (A) (A) (A) (A) (A) (A) (A) (A) (A) (A)
                 (A) (A) (A) (A) (A) (A) (A) (A) (A) (A) (A) (A)
                 (A) (A) (A) (A) (A) (A) (A) (A) (A) (A) (A) (A)
                 (A) (A) (A) (A) (A) (A) (A) (A) (A) (A) (A) (A)
                 (A) (A) (A) (A) (A) (A) (A) (A) (A) (A) (A) (A)
                 (A) (A) (A) (A) (A) (A) (A) (A) (A) (A) (A) (A)
                 (A) (A) (A) (A) (A) (A) (A) (A) (A) (A) (A) (A)
                 (A) (A) (A) (A) (A) (A) (A) (A) (A) (A) (A) (A)
                 (A) (A) (A) (A) (A) (A) (A) (A) (A) (A) (A) (A)
                 (A) (A) (A) (A) (A) (A) (A) (A) (A) (A) (A) (A)
                 (A) (A) (A) (A) (A) (A) (A) (A) (A) (A) (A) (A)
                 (A) (A) (A) (A) (A) (A) (A) (A) (A) (A) (A) (A)
                 (A) (A) (A) (A) (A) (A) (A) (A) (A) (A) (A) (A)
                 (A) (A) (A) (A) (A) (A) (A) (A) (A) (A) (A) (A)
                 (A) (A) (A) (A) (A) (A) (A) (A) (A) (A) (A) (A)
                 (A) (A) (A) (A) (A) (A) (A) (A) (A) (A) (A) (A)
                 (A) (A) (A) (A) (A) (A) (A) (A) (A) (A) (A) (A)
                 (A) (A) (A) (A) (A) (A) (A) (A) (A) (A) (A) (A)
                 (A) (A) (A) (A) (A) (A) (A) (A) (A) (A) (A) (A)
                 (A) (A) (A) (A) (A) (A) (A) (A) (A) (A) (A) (A)
                 (A) (A) (A) (A) (A) (A) (A) (A) (A) (A) (A) (A)
                 (A) (A) (A) (A) (A) (A) (A) (A) (A) (A) (A) (A)
                 (A) (A) (A) (A) (A) (A) (A) (A) (A) (A) (A) (A)
                 (A) (A) (A) (A) (A) (A) (A) (A) (A) (A) (A) (A)
                 (A) (A) (A) (A) (A) (A) (A) (A) (A) (A) (A) (A)
                 (A) (A) (A) (A) (A) (A) (A) (A) (A) (A) (A) (A)
                 (A) (A) (A) (A) (A) (A) (A) (A) (A) (A) (A) (A)
                 (A) (A) (A) (A) (A) (A) (A) (A) (A) (A) (A) (A)
                 (A) (A) (A) (A) (A) (A) (A) (A) (A) (A) (A) (A)
                 (A) (A) (A) (A) (A) (A) (A) (A) (A) (A) (A) (A)
                 (A) (A) (A) (A) (A) (A) (A) (A) (A) (A) (A) (A)
                 (A) (A) (A) (A) (A) (A) (A) (A) (A) (A) (A) (A)
                 (A) (A) (A) (A) (A) (A) (A) (A) (A) (A) (A) (A)
                 (A) (A) (A) (A) (A) (A) (A) (A) (A) (A) (A) (A)
                 (A) (A) (A) (A) (A) (A) (A) (A) (A) (A) (A) (A)
                 (A) (A) (A) (A) (A) (A) (A) (A) (A) (A) (A) (A)
                 (A) (A) (A) (A) (A) (A) (A) (A) (A) (A) (A) (A)
                 (A) (A) (A) (A) (A) (A) (A) (A) (A) (A) (A) (A)
                 (A) (A) (A) (A) (A) (A) (A) (A) (A) (A) (A) (A)
                 (A) (A) (A) (A) (A) (A) (A) (A) (A) (A) (A) (A)
                 (A) (A) (A) (A) (A) (A) (A) (A) (A) (A) (A) (A)
                 (A) (A) (A) (A) (A) (A) (A) (A) (A) (A) (A) (A)
                 (A) (A) (A) (A) (A) (A) (A) (A) (A) (A) (A) (A)
                 (A) (A) (A) (A) (A) (A) (A) (A) (A) (A) (A) (A)
                 (A) (A) (A) (A) (A) (A) (A) (A) (A) (A) (A) (A)
                 (A) (A) (A) (A) (A) (A) (A) (A) (A) (A) (A) (A)
                 (A) (A) (A) (A) (A) (A) (A) (A) (A) (A) (A) (A)
                 (A) (A) (A) (A) (A) (A) (A) (A) (A) (A) (A) (A)
                 (A) (A) (A) (A) (A) (A) (A) (A) (A) (A) (A) (A)
                 (A) (A) (A) (A) (A) (A) (A) (A) (A) (A) (A) (A)
                 (A) (A) (A) (A) (A) (A) (A) (A) (A) (A) (A) (A)
                 (A) (A) (A) (A) (A) (A) (A) (A) (A) (A) (A) (A)
                 (A) (A) (A) (A) (A) (A) (A) (A) (A) (A) (A) (A)
                 (A) (A) (A) (A) (A) (A) (A) (A) (A) (A) (A) (A)
                 (A) (A) (A) (A) (A) (A) (A) (A) (A) (A) (A) (A)
                 (A) (A) (A) (A) (A) (A) (A) (A) (A) (A) (A) (A)
                 (A) (A) (A) (A) (A) (A) (A) (A) (A) (A) (A) (A)
                 (A) (A) (A) (A) (A) (A) (A) (A) (A) (A) (A) (A)
                 (A) (A) (A) (A) (A) (A) (A) (A) (A) (A) (A) (A)
                 (A) (A) (A) (A) (A) (A) (A) (A) (A) (A) (A) (A)
                 (A) (A) (A) (A) (A) (A) (A) (A) (A) (A) (A) (A)
                 (A) (A) (A) (A) (A) (A) (A) (A) (A) (A) (A) (A)
                 (A) (A) (A) (A) (A) (A) (A) (A) (A) (A) (A) (A)
                 (A) (A) (A) (A) (A) (A) (A) (A) (A) (A) (A) (A)
                 (A) (A) (A) (A) (A) (A) (A) (A) (A) (A) (A) (A)
                 (A) (A) (A) (A) (A) (A) (A) (A) (A) (A) (A) (A)
                 (A) (A) (A) (A) (A) (A) (A) (A) (A) (A) (A) (A)
                 (A) (A) (A) (A) (A) (A) (A) (A) (A) (A) (A) (A)
                 (A) (A) (A) (A) (A) (A) (A) (A) (A) (A) (A) (A)
                 (A) (A) (A) (A) (A) (A) (A) (A) (A) (A) (A) (A)
                 (A) (A) (A) (A) (A) (A) (A) (A) (A) (A) (A) (A)
                 (A) (A) (A) (A) (A) (A) (A) (A) (A) (A) (A) (A)
                 (A) (A) (A) (A) (A) (A) (A) (A) (A) (A) (A) (A)
                 (A) (A) (A) (A) (A) (A) (A) (A) (A) (A) (A) (A)
                 (A) (A) (A) (A) (A) (A) (A) (A) (A) (A) (A) (A)
                 (A) (A) (A) (A) (A) (A) (A) (A) (A) (A) (A) (A)
                 (A) (A) (A) (A) (A) (A) (A) (A) (A) (A) (A) (A)
                 (A) (A) (A) (A) (A) (A) (A) (A) (A) (A) (A) (A)
                 (A) (A) (A) (A) (A) (A) (A) (A) (A) (A) (A) (A)
                 (A) (A) (A) (A) (A) (A) (A) (A) (A) (A) (A) (A)
                 (A) (A) (A) (A) (A) (A) (A) (A) (A) (A) (A) (A)
                 (A) (A) (A) (A) (A) (A) (A) (A) (A) (A) (A) (A)
                 (A) (A) (A) (A) (A) (A) (A) (A) (A) (A) (A) (A)
                 (A) (A) (A) (A) (A) (A) (A) (A) (A) (A) (A) (A)
                 (A) (A) (A) (A) (A) (A) (A) (A) (A) (A) (A) (A)
                 (A) (A) (A) (A) (A) (A) (A) (A) (A) (A) (A) (A)
                 (A) (A) (A) (A) (A) (A) (A) (A) (A) (A) (A) (A)
                 (A) (A) (A) (A) (A) (A) (A) (A) (A) (A) (A) (A)
                 (A) (A) (A) (A) (A) (A) (A) (A) (A) (A) (A) (A)
                 (A) (A) (A) (A) (A) (A) (A) (A) (A) (A) (A) (A)
                 (A) (A) (A) (A) (A) (A) (A) (A) (A) (A) (A) (A)
                 (A) (A) (A) (A) (A) (A) (A) (A) (A) (A) (A) (A)
                 (A) (A) (A) (A) (A) (A) (A) (A) (A) (A) (A) (A)
                 (A) (A) (A) (A) (A) (A) (A) (A) (A) (A) (A) (A)
                 (A) (A) (A) (A) (A) (A) (A) (A) (A) (A) (A) (A)
                 (A) (A) (A) (A) (A) (A) (A) (A) (A) (A) (A) (A)
                 (A) (A) (A) (A) (A) (A) (A) (A) (A) (A) (A) (A)
                 (A) (A) (A) (A) (A) (A) (A) (A) (A) (A) (A) (A)
                 (A) (A) (A) (A) (A) (A) (A) (A) (A) (A) (A) (A)
                 (A) (A) (A) (A) (A) (A) (A) (A) (A) (A) (A) (A)
                 (A) (A) (A) (A) (A) (A) (A) (A) (A) (A) (A) (A)
                 (A) (A) (A) (A) (A) (A) (A) (A) (A) (A) (A) (A)
                 (A) (A) (A) (A) (A) (A) (A) (A) (A) (A) (A) (A)
                 (A) (A) (A) (A) (A) (A) (A) (A) (A) (A) (A) (A)
                 (A) (A) (A) (A) (A) (A) (A) (A) (A) (A) (A) (A)
                 (A) (A) (A) (A) (A) (A) (A) (A) (A) (A) (A) (A)
                 (A) (A) (A) (A) (A) (A) (A) (A) (A) (A) (A) (A)
                 (A) (A) (A) (A) (A) (A) (A) (A) (A) (A) (A) (A)
                 (A) (A) (A) (A) (A) (A) (A) (A) (A) (A) (A) (A)
                 (A) (A) (A) (A) (A) (A) (A) (A) (A) (A) (A) (A)
                 (A) (A) (A) (A) (A) (A) (A) (A) (A) (A) (A) (A)
                 (A) (A) (A) (A) (A) (A) (A) (A) (A) (A) (A) (A)
                 (A) (A) (A) (A) (A) (A) (A) (A) (A) (A) (A) (A)
                 (A) (A) (A) (A) (A) (A) (A) (A) (A) (A) (A) (A)
                 (A) (A) (A) (A) (A) (A) (A) (A) (A) (A) (A) (A)
                 (A) (A) (A) (A) (A) (A) (A) (A) (A) (A) (A) (A)
                 (A) (A) (A) (A) (A) (A) (A) (A) (A) (A) (A) (A)
                 (A) (A) (A) (A) (A) (A) (A) (A) (A) (A) (A) (A)
                 (A) (A) (A) (A) (A) (A) (A) (A) (A) (A) (A) (A)
                 (A) (A) (A) (A) (A) (A) (A) (A) (A) (A) (A) (A)
                 (A) (A) (A) (A) (A) (A) (A) (A) (A) (A) (A) (A)
                 (A) (A) (A) (A) (A) (A) (A) (A) (A) (A) (A) (A)
                 (A) (A) (A) (A) (A) (A) (A) (A) (A) (A) (A) (A)
                 (A) (A) (A) (A) (A) (A) (A) (A) (A) (A) (A) (A)
                 (A) (A) (A) (A) (A) (A) (A) (A) (A) (A) (A) (A)
                 (A) (A) (A) (A) (A) (A) (A) (A) (A) (A) (A) (A)
                 (A) (A) (A) (A) (A) (A) (A) (A) (A) (A) (A) (A)
                 (A) (A) (A) (A) (A) (A) (A) (A) (A) (A) (A) (A)
                 (A) (A) (A) (A) (A) (A) (A) (A) (A) (A) (A) (A)
                 (A) (A) (A) (A) (A) (A) (A) (A) (A) (A) (A) (A)
                 (A) (A) (A) (A) (A) (A) (A) (A) (A) (A) (A) (A)
                 (A) (A) (A) (A) (A) (A) (A) (A) (A) (A) (A) (A)
                 (A) (A) (A) (A) (A) (A) (A) (A) (A) (A) (A) (A)
                 (A) (A) (A) (A) (A) (A) (A) (A) (A) (A) (A) (A)
                 (A) (A) (A) (A) (A) (A) (A) (A) (A) (A) (A) (A)
                 (A) (A) (A) (A) (A) (A) (A) (A) (A) (A) (A) (A)
                 (A) (A) (A) (A) (A) (A) (A) (A) (A) (A) (A) (A)
                 (A) (A) (A) (A) (A) (A) (A) (A) (A) (A) (A) (A)
                 (A) (A) (A) (A) (A) (A) (A) (A) (A) (A) (A) (A)
                 (A) (A)
 The electronic state is 1-A.
 Alpha  occ. eigenvalues --  -10.56446 -10.56168 -10.56133 -10.56032 -10.55522
 Alpha  occ. eigenvalues --  -10.55386 -10.55313 -10.55286 -10.55228 -10.55183
 Alpha  occ. eigenvalues --  -10.55163 -10.55155 -10.55131 -10.55111 -10.55102
 Alpha  occ. eigenvalues --  -10.55092 -10.55077 -10.55069 -10.55058 -10.55041
 Alpha  occ. eigenvalues --  -10.54995 -10.54957 -10.54937 -10.54835  -0.97422
 Alpha  occ. eigenvalues --   -0.96533  -0.96017  -0.92941  -0.90085  -0.86742
 Alpha  occ. eigenvalues --   -0.85454  -0.84484  -0.84390  -0.84189  -0.82114
 Alpha  occ. eigenvalues --   -0.79529  -0.73878  -0.70818  -0.69371  -0.68995
 Alpha  occ. eigenvalues --   -0.68644  -0.68005  -0.66557  -0.63451  -0.61535
 Alpha  occ. eigenvalues --   -0.60025  -0.57949  -0.57017  -0.55602  -0.54716
 Alpha  occ. eigenvalues --   -0.53564  -0.53115  -0.52198  -0.51710  -0.50934
 Alpha  occ. eigenvalues --   -0.50033  -0.49117  -0.48922  -0.48833  -0.48752
 Alpha  occ. eigenvalues --   -0.47225  -0.46197  -0.45091  -0.44742  -0.44401
 Alpha  occ. eigenvalues --   -0.43975  -0.42555  -0.41365  -0.40677  -0.40388
 Alpha  occ. eigenvalues --   -0.40067  -0.39787  -0.39677  -0.38220  -0.36362
 Alpha  occ. eigenvalues --   -0.32989  -0.31845  -0.31249  -0.31105  -0.30596
 Alpha  occ. eigenvalues --   -0.28372  -0.24321
 Alpha virt. eigenvalues --   -0.04900  -0.01355   0.00703   0.01530   0.01922
 Alpha virt. eigenvalues --    0.02562   0.03864   0.04103   0.04710   0.05107
 Alpha virt. eigenvalues --    0.05408   0.05674   0.06227   0.06704   0.06911
 Alpha virt. eigenvalues --    0.07437   0.07552   0.07974   0.08641   0.08998
 Alpha virt. eigenvalues --    0.09352   0.09483   0.10090   0.10852   0.11109
 Alpha virt. eigenvalues --    0.11536   0.12228   0.12628   0.13219   0.13337
 Alpha virt. eigenvalues --    0.13685   0.15267   0.15317   0.15671   0.15911
 Alpha virt. eigenvalues --    0.16168   0.16264   0.16709   0.16731   0.17380
 Alpha virt. eigenvalues --    0.17908   0.17970   0.18207   0.18267   0.18525
 Alpha virt. eigenvalues --    0.18648   0.19389   0.19793   0.19897   0.20276
 Alpha virt. eigenvalues --    0.20364   0.20923   0.21420   0.21489   0.22354
 Alpha virt. eigenvalues --    0.22686   0.23445   0.23836   0.24196   0.24416
 Alpha virt. eigenvalues --    0.24748   0.24859   0.25197   0.25713   0.26474
 Alpha virt. eigenvalues --    0.26715   0.27258   0.27494   0.27619   0.27771
 Alpha virt. eigenvalues --    0.28346   0.28378   0.28637   0.28826   0.28957
 Alpha virt. eigenvalues --    0.29325   0.29542   0.29686   0.29770   0.30262
 Alpha virt. eigenvalues --    0.30268   0.30474   0.30602   0.30944   0.31134
 Alpha virt. eigenvalues --    0.31289   0.31402   0.31616   0.31894   0.32011
 Alpha virt. eigenvalues --    0.32258   0.32568   0.32848   0.33074   0.33462
 Alpha virt. eigenvalues --    0.33893   0.34226   0.34295   0.34940   0.35167
 Alpha virt. eigenvalues --    0.35336   0.35655   0.35957   0.36149   0.36539
 Alpha virt. eigenvalues --    0.36752   0.37388   0.37730   0.37841   0.38140
 Alpha virt. eigenvalues --    0.38643   0.38883   0.39025   0.39191   0.39678
 Alpha virt. eigenvalues --    0.40086   0.40622   0.41163   0.41276   0.41511
 Alpha virt. eigenvalues --    0.41968   0.42216   0.42625   0.43035   0.43414
 Alpha virt. eigenvalues --    0.43761   0.44500   0.44744   0.44964   0.45214
 Alpha virt. eigenvalues --    0.45768   0.46019   0.46428   0.46642   0.46830
 Alpha virt. eigenvalues --    0.47253   0.47506   0.47780   0.48051   0.48851
 Alpha virt. eigenvalues --    0.49019   0.49182   0.49427   0.49631   0.50170
 Alpha virt. eigenvalues --    0.50719   0.50953   0.51007   0.51655   0.52039
 Alpha virt. eigenvalues --    0.52351   0.52847   0.53311   0.53887   0.54170
 Alpha virt. eigenvalues --    0.54591   0.54843   0.55311   0.55529   0.56087
 Alpha virt. eigenvalues --    0.56347   0.56750   0.57163   0.57674   0.57986
 Alpha virt. eigenvalues --    0.58221   0.58419   0.58881   0.59204   0.60008
 Alpha virt. eigenvalues --    0.60400   0.60869   0.61325   0.61367   0.62083
 Alpha virt. eigenvalues --    0.62384   0.62765   0.63566   0.63664   0.63977
 Alpha virt. eigenvalues --    0.64600   0.64751   0.65524   0.66026   0.66516
 Alpha virt. eigenvalues --    0.67285   0.67963   0.67973   0.68515   0.69231
 Alpha virt. eigenvalues --    0.69949   0.70248   0.70412   0.70728   0.71473
 Alpha virt. eigenvalues --    0.71667   0.71825   0.72545   0.72736   0.73007
 Alpha virt. eigenvalues --    0.73186   0.73416   0.73687   0.74346   0.74390
 Alpha virt. eigenvalues --    0.74978   0.75389   0.75614   0.76140   0.76378
 Alpha virt. eigenvalues --    0.76502   0.76930   0.77157   0.77341   0.77669
 Alpha virt. eigenvalues --    0.77999   0.78421   0.78583   0.78800   0.78976
 Alpha virt. eigenvalues --    0.79315   0.79408   0.79674   0.80250   0.80366
 Alpha virt. eigenvalues --    0.80870   0.80956   0.81397   0.81519   0.82062
 Alpha virt. eigenvalues --    0.82274   0.82537   0.83057   0.83762   0.83901
 Alpha virt. eigenvalues --    0.84115   0.84626   0.84876   0.85348   0.85614
 Alpha virt. eigenvalues --    0.86172   0.86525   0.86772   0.86858   0.87462
 Alpha virt. eigenvalues --    0.87868   0.88270   0.88518   0.88893   0.89335
 Alpha virt. eigenvalues --    0.89460   0.89967   0.90307   0.90444   0.91075
 Alpha virt. eigenvalues --    0.91382   0.91450   0.91848   0.92206   0.92404
 Alpha virt. eigenvalues --    0.92610   0.92764   0.93341   0.93652   0.93751
 Alpha virt. eigenvalues --    0.94350   0.94454   0.94711   0.95052   0.95091
 Alpha virt. eigenvalues --    0.95343   0.95926   0.96023   0.96310   0.96747
 Alpha virt. eigenvalues --    0.96943   0.97192   0.97392   0.97665   0.97759
 Alpha virt. eigenvalues --    0.98021   0.98427   0.99132   0.99512   0.99708
 Alpha virt. eigenvalues --    0.99864   1.00097   1.00832   1.01176   1.01539
 Alpha virt. eigenvalues --    1.01750   1.02104   1.02676   1.03110   1.03366
 Alpha virt. eigenvalues --    1.03635   1.03939   1.04579   1.04840   1.05070
 Alpha virt. eigenvalues --    1.05406   1.05821   1.06068   1.06566   1.06589
 Alpha virt. eigenvalues --    1.07251   1.07275   1.07758   1.08065   1.08423
 Alpha virt. eigenvalues --    1.08614   1.08978   1.09385   1.09575   1.10253
 Alpha virt. eigenvalues --    1.10604   1.11164   1.11397   1.11858   1.12159
 Alpha virt. eigenvalues --    1.12616   1.13049   1.13804   1.14221   1.14491
 Alpha virt. eigenvalues --    1.14889   1.15798   1.16585   1.17027   1.17444
 Alpha virt. eigenvalues --    1.17799   1.17837   1.18486   1.18924   1.18974
 Alpha virt. eigenvalues --    1.19496   1.19914   1.20388   1.20592   1.20842
 Alpha virt. eigenvalues --    1.20926   1.21654   1.22200   1.22624   1.23209
 Alpha virt. eigenvalues --    1.23721   1.24478   1.24718   1.25040   1.25636
 Alpha virt. eigenvalues --    1.26337   1.26527   1.26606   1.27090   1.27370
 Alpha virt. eigenvalues --    1.27952   1.28481   1.28768   1.29153   1.29391
 Alpha virt. eigenvalues --    1.29912   1.30339   1.30820   1.31874   1.31993
 Alpha virt. eigenvalues --    1.32725   1.33004   1.33496   1.34088   1.34211
 Alpha virt. eigenvalues --    1.34897   1.35097   1.35689   1.36359   1.36890
 Alpha virt. eigenvalues --    1.37611   1.37997   1.38707   1.39423   1.39550
 Alpha virt. eigenvalues --    1.40506   1.40995   1.41680   1.42266   1.42814
 Alpha virt. eigenvalues --    1.43332   1.43915   1.44699   1.45782   1.46455
 Alpha virt. eigenvalues --    1.47137   1.47463   1.48092   1.49297   1.50144
 Alpha virt. eigenvalues --    1.50383   1.50550   1.52037   1.52350   1.53450
 Alpha virt. eigenvalues --    1.54235   1.54576   1.55318   1.56002   1.56306
 Alpha virt. eigenvalues --    1.56748   1.57185   1.57291   1.58527   1.58931
 Alpha virt. eigenvalues --    1.59964   1.60292   1.60934   1.61703   1.62028
 Alpha virt. eigenvalues --    1.62399   1.62860   1.63529   1.63927   1.64342
 Alpha virt. eigenvalues --    1.65066   1.65602   1.65879   1.66141   1.67403
 Alpha virt. eigenvalues --    1.67457   1.68309   1.68713   1.69227   1.70038
 Alpha virt. eigenvalues --    1.70292   1.71001   1.71382   1.72003   1.72633
 Alpha virt. eigenvalues --    1.72776   1.73221   1.73684   1.73961   1.74572
 Alpha virt. eigenvalues --    1.74634   1.75903   1.76765   1.77389   1.77726
 Alpha virt. eigenvalues --    1.77849   1.78432   1.78781   1.78908   1.79888
 Alpha virt. eigenvalues --    1.80058   1.80308   1.80801   1.81282   1.81582
 Alpha virt. eigenvalues --    1.82577   1.82833   1.82999   1.83688   1.83998
 Alpha virt. eigenvalues --    1.84532   1.84923   1.85001   1.85314   1.85847
 Alpha virt. eigenvalues --    1.86025   1.86710   1.87352   1.87615   1.87856
 Alpha virt. eigenvalues --    1.88298   1.88688   1.89214   1.89470   1.89792
 Alpha virt. eigenvalues --    1.89854   1.90411   1.90658   1.90787   1.91433
 Alpha virt. eigenvalues --    1.92001   1.92635   1.93282   1.93409   1.93945
 Alpha virt. eigenvalues --    1.94092   1.94571   1.94611   1.95767   1.95933
 Alpha virt. eigenvalues --    1.96186   1.96372   1.96901   1.97504   1.97816
 Alpha virt. eigenvalues --    1.98161   1.98582   1.98933   1.99081   1.99607
 Alpha virt. eigenvalues --    2.00061   2.00541   2.00580   2.00806   2.00960
 Alpha virt. eigenvalues --    2.01450   2.01747   2.02120   2.02413   2.02590
 Alpha virt. eigenvalues --    2.02976   2.03352   2.03814   2.03936   2.04531
 Alpha virt. eigenvalues --    2.04749   2.05110   2.05776   2.06664   2.06836
 Alpha virt. eigenvalues --    2.07145   2.07570   2.07724   2.08422   2.08830
 Alpha virt. eigenvalues --    2.09383   2.09477   2.09592   2.10104   2.10564
 Alpha virt. eigenvalues --    2.11183   2.11430   2.11549   2.12267   2.12552
 Alpha virt. eigenvalues --    2.12872   2.13023   2.13234   2.13674   2.14418
 Alpha virt. eigenvalues --    2.14508   2.14702   2.15212   2.15396   2.16067
 Alpha virt. eigenvalues --    2.16206   2.16404   2.16897   2.17128   2.17380
 Alpha virt. eigenvalues --    2.17648   2.18264   2.18431   2.18878   2.19098
 Alpha virt. eigenvalues --    2.19802   2.20032   2.20265   2.20404   2.20829
 Alpha virt. eigenvalues --    2.20957   2.21898   2.21985   2.22189   2.22452
 Alpha virt. eigenvalues --    2.23358   2.23554   2.23771   2.24094   2.24548
 Alpha virt. eigenvalues --    2.24764   2.25189   2.25668   2.26026   2.26249
 Alpha virt. eigenvalues --    2.26519   2.26901   2.27509   2.27753   2.28109
 Alpha virt. eigenvalues --    2.28449   2.28675   2.29069   2.29305   2.29622
 Alpha virt. eigenvalues --    2.29732   2.30172   2.30863   2.31358   2.32069
 Alpha virt. eigenvalues --    2.32098   2.32489   2.32923   2.33000   2.33785
 Alpha virt. eigenvalues --    2.33929   2.34871   2.35366   2.36006   2.36233
 Alpha virt. eigenvalues --    2.36525   2.36982   2.37125   2.37552   2.38312
 Alpha virt. eigenvalues --    2.38866   2.39241   2.39516   2.39867   2.40217
 Alpha virt. eigenvalues --    2.40573   2.41127   2.41316   2.42133   2.42453
 Alpha virt. eigenvalues --    2.43170   2.43842   2.43859   2.44163   2.44381
 Alpha virt. eigenvalues --    2.44679   2.44966   2.45089   2.45734   2.46124
 Alpha virt. eigenvalues --    2.46244   2.46761   2.47256   2.47553   2.48035
 Alpha virt. eigenvalues --    2.48325   2.48529   2.48832   2.49308   2.49409
 Alpha virt. eigenvalues --    2.50189   2.50616   2.50865   2.51291   2.51522
 Alpha virt. eigenvalues --    2.52122   2.52456   2.52956   2.53128   2.53618
 Alpha virt. eigenvalues --    2.53745   2.54044   2.54309   2.54615   2.54913
 Alpha virt. eigenvalues --    2.55311   2.55675   2.55975   2.56613   2.57022
 Alpha virt. eigenvalues --    2.57292   2.57669   2.57879   2.58072   2.58584
 Alpha virt. eigenvalues --    2.59072   2.59276   2.60292   2.60462   2.60677
 Alpha virt. eigenvalues --    2.61060   2.61309   2.61582   2.61962   2.62407
 Alpha virt. eigenvalues --    2.62710   2.62886   2.63346   2.63928   2.64285
 Alpha virt. eigenvalues --    2.64577   2.64685   2.65331   2.65840   2.66080
 Alpha virt. eigenvalues --    2.66299   2.66605   2.67247   2.67757   2.68016
 Alpha virt. eigenvalues --    2.68428   2.68633   2.69137   2.69510   2.69929
 Alpha virt. eigenvalues --    2.70123   2.70378   2.70490   2.70880   2.71440
 Alpha virt. eigenvalues --    2.72044   2.72368   2.72484   2.72921   2.73348
 Alpha virt. eigenvalues --    2.73659   2.74183   2.74329   2.75134   2.75297
 Alpha virt. eigenvalues --    2.75730   2.76361   2.76481   2.76861   2.77189
 Alpha virt. eigenvalues --    2.77247   2.77485   2.77708   2.77848   2.78463
 Alpha virt. eigenvalues --    2.78883   2.79081   2.79211   2.79912   2.80109
 Alpha virt. eigenvalues --    2.80317   2.80620   2.80848   2.81189   2.81400
 Alpha virt. eigenvalues --    2.81672   2.82327   2.82459   2.83122   2.83369
 Alpha virt. eigenvalues --    2.83628   2.84354   2.84926   2.85553   2.86198
 Alpha virt. eigenvalues --    2.86685   2.87351   2.87578   2.88262   2.88920
 Alpha virt. eigenvalues --    2.89162   2.89618   2.89983   2.90174   2.91012
 Alpha virt. eigenvalues --    2.91591   2.92063   2.93364   2.94086   2.94735
 Alpha virt. eigenvalues --    2.95229   2.95562   2.96259   2.96836   2.97292
 Alpha virt. eigenvalues --    2.98161   2.98621   2.98875   2.99642   2.99958
 Alpha virt. eigenvalues --    3.00357   3.01304   3.01917   3.02235   3.03148
 Alpha virt. eigenvalues --    3.03479   3.03831   3.04354   3.05391   3.05941
 Alpha virt. eigenvalues --    3.06571   3.06734   3.07916   3.08324   3.09028
 Alpha virt. eigenvalues --    3.09363   3.10098   3.11096   3.11481   3.12143
 Alpha virt. eigenvalues --    3.12555   3.13289   3.13623   3.14036   3.14596
 Alpha virt. eigenvalues --    3.15154   3.16041   3.17160   3.17288   3.17916
 Alpha virt. eigenvalues --    3.18635   3.19355   3.20743   3.21166   3.21530
 Alpha virt. eigenvalues --    3.22700   3.23090   3.23605   3.23741   3.24612
 Alpha virt. eigenvalues --    3.25333   3.26225   3.27223   3.27832   3.28522
 Alpha virt. eigenvalues --    3.29397   3.30274   3.30743   3.31071   3.31589
 Alpha virt. eigenvalues --    3.32742   3.33437   3.33526   3.34532   3.35903
 Alpha virt. eigenvalues --    3.36079   3.36432   3.36452   3.37175   3.37949
 Alpha virt. eigenvalues --    3.38003   3.38825   3.39020   3.39455   3.40877
 Alpha virt. eigenvalues --    3.41313   3.41628   3.42116   3.42329   3.42834
 Alpha virt. eigenvalues --    3.43260   3.43732   3.43942   3.44480   3.44928
 Alpha virt. eigenvalues --    3.45349   3.45715   3.46215   3.46449   3.46487
 Alpha virt. eigenvalues --    3.47355   3.47785   3.48303   3.48756   3.49252
 Alpha virt. eigenvalues --    3.49939   3.50765   3.50847   3.51061   3.51493
 Alpha virt. eigenvalues --    3.52512   3.53019   3.53502   3.54516   3.54537
 Alpha virt. eigenvalues --    3.55252   3.56052   3.57121   3.57596   3.58091
 Alpha virt. eigenvalues --    3.58315   3.59037   3.59884   3.60287   3.60742
 Alpha virt. eigenvalues --    3.61565   3.62169   3.62752   3.63237   3.63922
 Alpha virt. eigenvalues --    3.64917   3.65779   3.66200   3.67385   3.67768
 Alpha virt. eigenvalues --    3.68252   3.69719   3.71332   3.72033   3.73103
 Alpha virt. eigenvalues --    3.74291   3.74557   3.75865   3.77059   3.77321
 Alpha virt. eigenvalues --    3.78342   3.79806   3.81845   3.82424   3.82659
 Alpha virt. eigenvalues --    3.82838   3.83445   3.83677   3.84476   3.85224
 Alpha virt. eigenvalues --    3.85817   3.86808   3.89176   3.89716   3.90826
 Alpha virt. eigenvalues --    3.91495   3.92830   3.94155   3.95359   3.96656
 Alpha virt. eigenvalues --    3.98280   3.98554   3.99722   4.00319   4.01199
 Alpha virt. eigenvalues --    4.01447   4.01871   4.02660   4.02977   4.03871
 Alpha virt. eigenvalues --    4.05122   4.06545   4.07163   4.07624   4.08308
 Alpha virt. eigenvalues --    4.08821   4.09749   4.10111   4.10893   4.11784
[...]
    21  C   -0.018762   0.377118   4.988469   0.399603  -0.027587  -0.048324
    22  C   -0.054483  -0.061332   0.399603   5.397304   0.373063  -0.018778
    23  C   -0.015237  -0.062687  -0.027587   0.373063   5.290364   0.403670
    24  C    0.394033  -0.018558  -0.048324  -0.018778   0.403670   5.269701
    25  H   -0.000145  -0.000236  -0.000018   0.000188   0.000070   0.000009
    26  H    0.000015   0.000032  -0.000019  -0.000001  -0.000001   0.000001
    27  H   -0.000002   0.000002  -0.000005  -0.000000   0.000000  -0.000000
    28  H    0.000022  -0.000125  -0.000133  -0.000007  -0.000001   0.000001
    29  H    0.001145  -0.016002   0.004600  -0.010292   0.000226  -0.000075
    30  H    0.000030  -0.000709   0.002668  -0.000901   0.000052  -0.000009
    31  H    0.000018   0.000823   0.011542   0.001744  -0.001176   0.000010
    32  H   -0.000001   0.000016  -0.000707  -0.000366   0.000027   0.000001
    33  H   -0.000002   0.000125  -0.000675   0.000367  -0.000010  -0.000002
    34  H    0.000000  -0.000001  -0.000002  -0.000001   0.000000   0.000000
    35  H   -0.000000   0.000000   0.000000  -0.000000   0.000000   0.000000
    36  H    0.000000  -0.000000  -0.000000   0.000000   0.000000  -0.000000
    37  H    0.000000  -0.000004  -0.000022  -0.000007   0.000001  -0.000000
    38  H    0.000000   0.000000  -0.000000   0.000000  -0.000000  -0.000000
    39  H    0.000000  -0.000000  -0.000000   0.000000  -0.000000   0.000000
    40  H    0.425410  -0.080130   0.004549  -0.000710   0.008365  -0.076125
    41  H   -0.088276   0.444810  -0.104364   0.006791  -0.000453   0.010119
    42  H    0.000815   0.005702  -0.089357   0.437545  -0.081541   0.008433
    43  H    0.007467  -0.000093   0.003928  -0.081299   0.422361  -0.073750
    44  H   -0.075692   0.005566   0.001057   0.006895  -0.076218   0.417304
              25         26         27         28         29         30
     1  C    0.427089  -0.076763   0.006902   0.001379  -0.083771  -0.000636
     2  C   -0.075976   0.418727  -0.073755   0.008594   0.010121   0.000177
     3  C    0.008404  -0.075422   0.421259  -0.077340   0.000041  -0.000056
     4  C   -0.000510   0.007277  -0.078766   0.432046   0.005764  -0.007759
     5  C    0.004951   0.000963   0.004134  -0.092019  -0.107061  -0.095611
     6  C   -0.083326   0.005577   0.000718   0.004546   0.437981   0.007067
     7  C   -0.000286   0.000049  -0.000395  -0.009256  -0.008443   0.466198
     8  C   -0.000233  -0.000009   0.000005   0.000705   0.006041  -0.097593
     9  C   -0.000024  -0.000001   0.000002  -0.000241   0.001320  -0.010037
    10  C    0.000002  -0.000000  -0.000001   0.000075   0.000034  -0.000533
    11  C   -0.000003   0.000001   0.000001   0.000087  -0.000158  -0.003833
    12  C   -0.000000  -0.000000   0.000001   0.000023   0.000001   0.000840
    13  C   -0.000000  -0.000000   0.000000   0.000000  -0.000000  -0.000000
    14  C   -0.000000   0.000000  -0.000000  -0.000000   0.000000  -0.000056
    15  C   -0.000000   0.000000  -0.000000  -0.000002  -0.000002  -0.000096
    16  C    0.000000  -0.000000  -0.000000   0.000002   0.000000   0.000266
    17  C   -0.000000  -0.000000   0.000000   0.000000   0.000000   0.000030
    18  C   -0.000000  -0.000000   0.000000  -0.000000   0.000000   0.000002
    19  C   -0.000145   0.000015  -0.000002   0.000022   0.001145   0.000030
    20  C   -0.000236   0.000032   0.000002  -0.000125  -0.016002  -0.000709
    21  C   -0.000018  -0.000019  -0.000005  -0.000133   0.004600   0.002668
    22  C    0.000188  -0.000001  -0.000000  -0.000007  -0.010292  -0.000901
    23  C    0.000070  -0.000001   0.000000  -0.000001   0.000226   0.000052
    24  C    0.000009   0.000001  -0.000000   0.000001  -0.000075  -0.000009
    25  H    0.508908  -0.007874  -0.000766   0.000276  -0.009266   0.000061
    26  H   -0.007874   0.512903  -0.007905  -0.000650  -0.000592  -0.000008
    27  H   -0.000766  -0.007905   0.514597  -0.009030   0.000268  -0.000201
    28  H    0.000276  -0.000650  -0.009030   0.534348  -0.000658   0.004710
    29  H   -0.009266  -0.000592   0.000268  -0.000658   0.513781  -0.000268
    30  H    0.000061  -0.000008  -0.000201   0.004710  -0.000268   0.534805
    31  H   -0.000001  -0.000000   0.000000  -0.000005   0.000084   0.000119
    32  H   -0.000000  -0.000000  -0.000000   0.000003  -0.000001  -0.000251
    33  H   -0.000004  -0.000001   0.000001  -0.000065   0.000294  -0.006256
    34  H   -0.000000   0.000000   0.000000  -0.000013  -0.000004  -0.000107
    35  H    0.000000  -0.000000   0.000000   0.000000   0.000000   0.000000
    36  H   -0.000000   0.000000   0.000000  -0.000000  -0.000000  -0.000007
    37  H   -0.000000   0.000000  -0.000000  -0.000004  -0.000001  -0.000076
    38  H    0.000000  -0.000000   0.000000   0.000000  -0.000000  -0.000003
    39  H   -0.000000  -0.000000   0.000000  -0.000000   0.000000   0.000000
    40  H   -0.000025   0.000000   0.000000  -0.000001   0.000052  -0.000005
    41  H   -0.000010   0.000015   0.000016  -0.000186  -0.001414  -0.000447
    42  H    0.000002   0.000000  -0.000000  -0.000002  -0.000921  -0.000168
    43  H    0.000002  -0.000000   0.000000  -0.000000  -0.000034  -0.000004
    44  H    0.000002   0.000000  -0.000000   0.000000   0.000008   0.000001
              31         32         33         34         35         36
     1  C   -0.000016  -0.000000  -0.000110   0.000000   0.000000   0.000000
     2  C    0.000000  -0.000000  -0.000009   0.000000  -0.000000   0.000000
     3  C   -0.000001   0.000001   0.000051   0.000002  -0.000000   0.000000
     4  C    0.000106  -0.000006   0.000221   0.000008  -0.000000   0.000000
     5  C   -0.000906   0.000055  -0.001212  -0.000056   0.000000  -0.000001
     6  C    0.000059  -0.000014   0.000159  -0.000015   0.000000  -0.000000
     7  C    0.008212  -0.001057   0.001790   0.000114  -0.000000   0.000010
     8  C   -0.103054   0.008384   0.003027  -0.000057   0.000000  -0.000010
     9  C    0.459246  -0.085951   0.001536  -0.000557   0.000001  -0.000013
    10  C   -0.099696   0.441658  -0.083502   0.008119   0.000012  -0.000102
    11  C    0.012341  -0.085596   0.437556  -0.091054   0.000030  -0.000607
    12  C   -0.000872   0.002349  -0.084749   0.452853  -0.000451  -0.008888
    13  C   -0.000001  -0.000101   0.000005   0.000473   0.422093  -0.077204
    14  C    0.000015  -0.000604  -0.000989  -0.001617  -0.079168   0.433689
    15  C    0.000208   0.003478   0.008314  -0.093822   0.007031  -0.093686
    16  C    0.000064  -0.005023  -0.000535   0.003664  -0.000467   0.004551
    17  C   -0.000016   0.000166   0.000063  -0.000630   0.007966   0.001282
    18  C   -0.000005   0.000237   0.000004   0.000141  -0.074595   0.008085
    19  C    0.000018  -0.000001  -0.000002   0.000000  -0.000000   0.000000
    20  C    0.000823   0.000016   0.000125  -0.000001   0.000000  -0.000000
    21  C    0.011542  -0.000707  -0.000675  -0.000002   0.000000  -0.000000
    22  C    0.001744  -0.000366   0.000367  -0.000001  -0.000000   0.000000
    23  C   -0.001176   0.000027  -0.000010   0.000000   0.000000   0.000000
    24  C    0.000010   0.000001  -0.000002   0.000000   0.000000  -0.000000
    25  H   -0.000001  -0.000000  -0.000004  -0.000000   0.000000  -0.000000
    26  H   -0.000000  -0.000000  -0.000001   0.000000  -0.000000   0.000000
    27  H    0.000000  -0.000000   0.000001   0.000000   0.000000   0.000000
    28  H   -0.000005   0.000003  -0.000065  -0.000013   0.000000  -0.000000
    29  H    0.000084  -0.000001   0.000294  -0.000004   0.000000  -0.000000
    30  H    0.000119  -0.000251  -0.006256  -0.000107   0.000000  -0.000007
    31  H    0.497970  -0.010268   0.000010   0.000038  -0.000000   0.000000
    32  H   -0.010268   0.500369   0.003660  -0.000180  -0.000005  -0.000017
    33  H    0.000010   0.003660   0.488559  -0.008931  -0.000004  -0.000073
    34  H    0.000038  -0.000180  -0.008931   0.523005  -0.000158   0.004168
    35  H   -0.000000  -0.000005  -0.000004  -0.000158   0.516678  -0.009755
    36  H    0.000000  -0.000017  -0.000073   0.004168  -0.009755   0.539183
    37  H   -0.000293  -0.008569  -0.000144  -0.000685   0.000225  -0.000571
    38  H    0.000004  -0.000017  -0.000004   0.000067  -0.000702   0.000251
    39  H    0.000000   0.000012   0.000001  -0.000009  -0.007817  -0.000633
    40  H    0.000014   0.000000   0.000000   0.000000  -0.000000   0.000000
    41  H   -0.000219   0.000006   0.000004  -0.000000   0.000000  -0.000000
    42  H    0.000703   0.000120   0.000191  -0.000007   0.000000  -0.000000
    43  H    0.000028   0.000000   0.000001  -0.000000  -0.000000  -0.000000
    44  H   -0.000005  -0.000000  -0.000000   0.000000   0.000000  -0.000000
              37         38         39         40         41         42
     1  C    0.000000  -0.000000  -0.000000  -0.000025   0.000021  -0.000011
     2  C    0.000000   0.000000  -0.000000  -0.000004  -0.000213  -0.000003
     3  C    0.000000   0.000000  -0.000000  -0.000011   0.000800   0.000001
     4  C   -0.000001   0.000000  -0.000000   0.000055  -0.000665   0.000002
     5  C   -0.000032  -0.000000   0.000000   0.000065   0.008267  -0.000034
     6  C   -0.000003  -0.000000   0.000000   0.000072  -0.007992   0.000042
     7  C   -0.000305   0.000004  -0.000000  -0.000135   0.004524  -0.001207
     8  C    0.000337  -0.000010  -0.000000  -0.000072  -0.005944  -0.012524
     9  C   -0.000384   0.000018  -0.000000  -0.000014  -0.000445   0.011261
    10  C   -0.003126  -0.000051   0.000005  -0.000008  -0.000010  -0.002536
    11  C    0.003155  -0.000130   0.000020   0.000001  -0.000022   0.000344
    12  C   -0.009738  -0.000315   0.000075  -0.000000   0.000001  -0.000065
    13  C    0.000468   0.008940  -0.076002   0.000000  -0.000000  -0.000000
    14  C    0.006007  -0.000838   0.007802   0.000000  -0.000000   0.000000
    15  C   -0.094385   0.006901   0.000298   0.000000  -0.000000   0.000008
    16  C    0.431900  -0.085612   0.007504  -0.000000   0.000000   0.000001
    17  C   -0.080028   0.428919  -0.077179  -0.000000  -0.000000  -0.000000
    18  C    0.008316  -0.075300   0.420789  -0.000000   0.000000   0.000000
    19  C    0.000000   0.000000   0.000000   0.425410  -0.088276   0.000815
    20  C   -0.000004   0.000000  -0.000000  -0.080130   0.444810   0.005702
    21  C   -0.000022  -0.000000  -0.000000   0.004549  -0.104364  -0.089357
    22  C   -0.000007   0.000000   0.000000  -0.000710   0.006791   0.437545
    23  C    0.000001  -0.000000  -0.000000   0.008365  -0.000453  -0.081541
    24  C   -0.000000  -0.000000   0.000000  -0.076125   0.010119   0.008433
    25  H   -0.000000   0.000000  -0.000000  -0.000025  -0.000010   0.000002
    26  H    0.000000  -0.000000  -0.000000   0.000000   0.000015   0.000000
    27  H   -0.000000   0.000000   0.000000   0.000000   0.000016  -0.000000
    28  H   -0.000004   0.000000  -0.000000  -0.000001  -0.000186  -0.000002
    29  H   -0.000001  -0.000000   0.000000   0.000052  -0.001414  -0.000921
    30  H   -0.000076  -0.000003   0.000000  -0.000005  -0.000447  -0.000168
    31  H   -0.000293   0.000004   0.000000   0.000014  -0.000219   0.000703
    32  H   -0.008569  -0.000017   0.000012   0.000000   0.000006   0.000120
    33  H   -0.000144  -0.000004   0.000001   0.000000   0.000004   0.000191
    34  H   -0.000685   0.000067  -0.000009   0.000000  -0.000000  -0.000007
    35  H    0.000225  -0.000702  -0.007817  -0.000000   0.000000   0.000000
    36  H   -0.000571   0.000251  -0.000633   0.000000  -0.000000  -0.000000
    37  H    0.528380  -0.009095  -0.000508  -0.000000  -0.000001   0.000000
    38  H   -0.009095   0.513771  -0.008186   0.000000  -0.000000  -0.000000
    39  H   -0.000508  -0.008186   0.511700   0.000000  -0.000000  -0.000000
    40  H   -0.000000   0.000000   0.000000   0.509207  -0.009708   0.000234
    41  H   -0.000001  -0.000000  -0.000000  -0.009708   0.525740  -0.000541
    42  H    0.000000  -0.000000  -0.000000   0.000234  -0.000541   0.518792
    43  H   -0.000000   0.000000   0.000000  -0.000769   0.000239  -0.008654
    44  H   -0.000000   0.000000   0.000000  -0.007662  -0.000657  -0.000591
              43         44
     1  C   -0.000004   0.000033
     2  C   -0.000000   0.000000
     3  C    0.000000  -0.000000
     4  C   -0.000002  -0.000000
     5  C    0.000014  -0.000028
     6  C    0.000014   0.000006
     7  C   -0.000034   0.000014
     8  C   -0.000549  -0.000094
     9  C   -0.000049   0.000016
    10  C    0.000042   0.000001
    11  C   -0.000008   0.000000
    12  C   -0.000001   0.000000
    13  C   -0.000000   0.000000
    14  C   -0.000000   0.000000
    15  C   -0.000000  -0.000000
    16  C    0.000000   0.000000
    17  C    0.000000   0.000000
    18  C    0.000000  -0.000000
    19  C    0.007467  -0.075692
    20  C   -0.000093   0.005566
    21  C    0.003928   0.001057
    22  C   -0.081299   0.006895
    23  C    0.422361  -0.076218
    24  C   -0.073750   0.417304
    25  H    0.000002   0.000002
    26  H   -0.000000   0.000000
    27  H    0.000000  -0.000000
    28  H   -0.000000   0.000000
    29  H   -0.000034   0.000008
    30  H   -0.000004   0.000001
    31  H    0.000028  -0.000005
    32  H    0.000000  -0.000000
    33  H    0.000001  -0.000000
    34  H   -0.000000   0.000000
    35  H   -0.000000   0.000000
    36  H   -0.000000  -0.000000
    37  H   -0.000000  -0.000000
    38  H    0.000000   0.000000
    39  H    0.000000   0.000000
    40  H   -0.000769  -0.007662
    41  H    0.000239  -0.000657
    42  H   -0.008654  -0.000591
    43  H    0.513074  -0.007906
    44  H   -0.007906   0.514119
 Mulliken charges:
               1
     1  C   -0.245701
     2  C   -0.258273
     3  C   -0.254069
     4  C   -0.295750
     5  C    0.289886
     6  C   -0.262085
     7  C   -0.408680
     8  C    0.226641
     9  C   -0.335127
    10  C   -0.239201
    11  C   -0.224691
    12  C   -0.272780
    13  C   -0.246996
    14  C   -0.285427
    15  C    0.259322
    16  C   -0.262528
    17  C   -0.247383
    18  C   -0.242377
    19  C   -0.228968
    20  C   -0.247976
    21  C    0.111575
    22  C   -0.274847
    23  C   -0.243103
    24  C   -0.267010
    25  H    0.228740
    26  H    0.223686
    27  H    0.222920
    28  H    0.202920
    29  H    0.257202
    30  H    0.208605
    31  H    0.223179
    32  H    0.238192
    33  H    0.241335
    34  H    0.205250
    35  H    0.219085
    36  H    0.200348
    37  H    0.229191
    38  H    0.221388
    39  H    0.222127
    40  H    0.227381
    41  H    0.220214
    42  H    0.213968
    43  H    0.225985
    44  H    0.223832
 Sum of Mulliken charges =  -0.00000
 Mulliken charges with hydrogens summed into heavy atoms:
               1
     1  C   -0.016961
     2  C   -0.034587
     3  C   -0.031149
     4  C   -0.092830
     5  C    0.289886
     6  C   -0.004883
     7  C   -0.200075
     8  C    0.226641
     9  C   -0.111948
    10  C   -0.001009
    11  C    0.016644
    12  C   -0.067530
    13  C   -0.027912
    14  C   -0.085078
    15  C    0.259322
    16  C   -0.033337
    17  C   -0.025995
    18  C   -0.020250
    19  C   -0.001587
    20  C   -0.027763
    21  C    0.111575
    22  C   -0.060879
    23  C   -0.017118
    24  C   -0.043178
 Electronic spatial extent (au):  <R**2>=          11762.1222
 Charge=             -0.0000 electrons
 Dipole moment (field-independent basis, Debye):
    X=             -0.3171    Y=              0.0170    Z=             -0.0291  Tot=              0.3189
 Quadrupole moment (field-independent basis, Debye-Ang):
   XX=           -125.8345   YY=           -136.8233   ZZ=           -139.2549
   XY=              0.1000   XZ=              1.1411   YZ=              0.6996
 Traceless Quadrupole moment (field-independent basis, Debye-Ang):
   XX=              8.1364   YY=             -2.8524   ZZ=             -5.2840
   XY=              0.1000   XZ=              1.1411   YZ=              0.6996
 Octapole moment (field-independent basis, Debye-Ang**2):
  XXX=             30.5829  YYY=             13.1096  ZZZ=              0.3916  XYY=            -44.0385
  XXY=             -9.6316  XXZ=             -7.9805  XZZ=             13.8013  YZZ=             -0.8279
  YYZ=             -2.8532  XYZ=            -25.5326
 Hexadecapole moment (field-independent basis, Debye-Ang**3):
 XXXX=         -11499.5997 YYYY=          -3232.3588 ZZZZ=           -726.2233 XXXY=             -0.7719
 XXXZ=              9.8472 YYYX=            -52.7038 YYYZ=            121.2379 ZZZX=              8.5344
 ZZZY=             -5.3431 XXYY=          -2575.2263 XXZZ=          -2141.2648 YYZZ=           -672.5673
 XXYZ=           -138.6260 YYXZ=             24.0435 ZZXY=             15.6914
 N-N= 1.719210227522D+03 E-N=-5.585994285399D+03  KE= 9.217241271983D+02
 PrsmSu:  requested number of processors reduced to:  14 ShMem   1 Linda.
 No NMR shielding tensors so no spin-rotation constants.
 Leave Link  601 at Mon Apr 19 11:42:24 2021, MaxMem=   104857600 cpu:            5047.5 elap:             108.8
 (Enter /s/ls4/users/knvvv/bin/g16sse/l9999.exe)

 Test job not archived.
 1\1\GINC-N150\Stability\RM062X\def2QZVP\C24H20\KNVVV\19-Apr-2021\0\\#P
  M062X/Def2QZVP Integral=UltraFineGrid SCF=NoSymm Stable=(RExt, Opt) I
 Op(1/33=1)\\Database calculations.\\0,1\C,0,4.2349837295,-0.8814849678
 ,2.2603524067\C,0,4.2066572256,-0.2149017575,3.4930569104\C,0,3.137727
 0005,0.6376635782,3.7903175352\C,0,2.1152649602,0.8264993764,2.8597937
 406\C,0,2.1436227751,0.1878655102,1.5997607885\C,0,3.2196831115,-0.686
 5764071,1.3263033288\C,0,1.0286604589,0.4125619012,0.6824735919\C,0,0.
 9811735172,0.3059022327,-0.680328898\C,0,-0.2827329385,0.4075188333,-1
 .4056001427\C,0,-1.5209706897,0.0117121675,-0.9900654116\C,0,-1.827029
 7964,-0.7542186613,0.1918851806\C,0,-3.0573772643,-0.9924139079,0.7240
 253877\C,0,-6.7797983562,-0.6228552321,0.2870487432\C,0,-5.5257130578,
 -1.1298775213,0.6250817991\C,0,-4.3439026158,-0.4016694959,0.358447321
 3\C,0,-4.4773591543,0.8812188479,-0.2190394521\C,0,-5.7335643241,1.389
 5678349,-0.5520357636\C,0,-6.8901383192,0.6388469891,-0.310322504\C,0,
 4.4296641664,0.8732758829,-2.1766774268\C,0,3.3051983851,1.0015908802,
 -1.3611909246\C,0,2.1937117892,0.1569120742,-1.5330462212\C,0,2.229856
 2154,-0.8037590821,-2.5585692283\C,0,3.3595932446,-0.9389225358,-3.371
 377774\C,0,4.4639355105,-0.1021157587,-3.1816221917\H,0,5.051465757,-1
 .5637113865,2.0302800366\H,0,5.0031476604,-0.3697545321,4.2183042994\H
 ,0,3.0977124663,1.1499226859,4.7499285163\H,0,1.2792197393,1.483244412
 ,3.0974130043\H,0,3.2484775827,-1.2181282135,0.3805382557\H,0,0.103956
 9826,0.7190799314,1.1708557952\H,0,-0.2079568938,0.8209081805,-2.41222
 2913\H,0,-2.3546115921,0.2251391024,-1.6587648317\H,0,-0.979660578,-1.
 2486425788,0.6683940059\H,0,-3.1085878776,-1.7343695923,1.5225975016\H
 ,0,-7.6736935797,-1.2088047194,0.4933289902\H,0,-5.4443342193,-2.11093
 65696,1.0914282395\H,0,-3.5927806399,1.4931136004,-0.3694484916\H,0,-5
 .8121304762,2.3835104052,-0.9891556941\H,0,-7.8681669156,1.03956044,-0
 .5693550278\H,0,5.2803057586,1.536821802,-2.0318776787\H,0,3.278597225
 5,1.7539946912,-0.5769395294\H,0,1.3693521715,-1.4541455839,-2.7045984
 41\H,0,3.3761756885,-1.6961890311,-4.1531599214\H,0,5.3423661663,-0.20
 29538253,-3.8162169116\\Version=ES64L-G16RevA.03\State=1-A\HF=-926.564
 4349\RMSD=3.170e-09\Dipole=0.1247456,-0.0115598,0.0067487\Quadrupole=6
 .0478902,-3.9260781,-2.1218121,-0.8567238,-0.0697282,0.5217239\PG=C01 
 [X(C24H20)]\\@


 REALITY IS FOR PEOPLE WHO CAN'T FACE SCIENCE FICTION.
 Job cpu time:      19 days  6 hours 10 minutes 16.0 seconds.
 Elapsed time:       2 days 10 hours 53 minutes 51.0 seconds.
 File lengths (MBytes):  RWF=   7259 Int=      0 D2E=      0 Chk=    440 Scr=      1
 Normal termination of Gaussian 16 at Mon Apr 19 11:42:43 2021.
