 Entering Gaussian System, Link 0=/s/ls4/users/knvvv/bin/g16sse/g16
 Input=data/database/M062X--cc-pVTZ-DK--39_Ru_IP23.gjf
 Output=data/database/M062X--cc-pVTZ-DK--39_Ru_IP23.log
 Initial command:
 /s/ls4/users/knvvv/bin/g16sse/l1.exe "/s/ls4/users/knvvv/bin/scratch/Gau-46444.inp" -scrdir="/s/ls4/users/knvvv/bin/scratch/"
 Entering Link 1 = /s/ls4/users/knvvv/bin/g16sse/l1.exe PID=     46445.
  
 Copyright (c) 1988,1990,1992,1993,1995,1998,2003,2009,2016,
            Gaussian, Inc.  All Rights Reserved.
  
 This is part of the Gaussian(R) 16 program.  It is based on
 the Gaussian(R) 09 system (copyright 2009, Gaussian, Inc.),
 the Gaussian(R) 03 system (copyright 2003, Gaussian, Inc.),
 the Gaussian(R) 98 system (copyright 1998, Gaussian, Inc.),
 the Gaussian(R) 94 system (copyright 1995, Gaussian, Inc.),
 the Gaussian 92(TM) system (copyright 1992, Gaussian, Inc.),
 the Gaussian 90(TM) system (copyright 1990, Gaussian, Inc.),
 the Gaussian 88(TM) system (copyright 1988, Gaussian, Inc.),
 the Gaussian 86(TM) system (copyright 1986, Carnegie Mellon
 University), and the Gaussian 82(TM) system (copyright 1983,
 Carnegie Mellon University). Gaussian is a federally registered
 trademark of Gaussian, Inc.
  
 This software contains proprietary and confidential information,
 including trade secrets, belonging to Gaussian, Inc.
  
 This software is provided under written license and may be
 used, copied, transmitted, or stored only in accord with that
 written license.
  
 The following legend is applicable only to US Government
 contracts under FAR:
  
                    RESTRICTED RIGHTS LEGEND
  
 Use, reproduction and disclosure by the US Government is
 subject to restrictions as set forth in subparagraphs (a)
 and (c) of the Commercial Computer Software - Restricted
 Rights clause in FAR 52.227-19.
  
 Gaussian, Inc.
 340 Quinnipiac St., Bldg. 40, Wallingford CT 06492
  
  
 ---------------------------------------------------------------
 Warning -- This program may not be used in any manner that
 competes with the business of Gaussian, Inc. or will provide
 assistance to any competitor of Gaussian, Inc.  The licensee
 of this program is prohibited from giving any competitor of
 Gaussian, Inc. access to this program.  By using this program,
 the user acknowledges that Gaussian, Inc. is engaged in the
 business of creating and licensing software in the field of
 computational chemistry and represents and warrants to the
 licensee that it is not a competitor of Gaussian, Inc. and that
 it will not use this program in any manner prohibited above.
 ---------------------------------------------------------------
  

 Cite this work as:
 Gaussian 16, Revision A.03,
 M. J. Frisch, G. W. Trucks, H. B. Schlegel, G. E. Scuseria, 
 M. A. Robb, J. R. Cheeseman, G. Scalmani, V. Barone, 
 G. A. Petersson, H. Nakatsuji, X. Li, M. Caricato, A. V. Marenich, 
 J. Bloino, B. G. Janesko, R. Gomperts, B. Mennucci, H. P. Hratchian, 
 J. V. Ortiz, A. F. Izmaylov, J. L. Sonnenberg, D. Williams-Young, 
 F. Ding, F. Lipparini, F. Egidi, J. Goings, B. Peng, A. Petrone, 
 T. Henderson, D. Ranasinghe, V. G. Zakrzewski, J. Gao, N. Rega, 
 G. Zheng, W. Liang, M. Hada, M. Ehara, K. Toyota, R. Fukuda, 
 J. Hasegawa, M. Ishida, T. Nakajima, Y. Honda, O. Kitao, H. Nakai, 
 T. Vreven, K. Throssell, J. A. Montgomery, Jr., J. E. Peralta, 
 F. Ogliaro, M. J. Bearpark, J. J. Heyd, E. N. Brothers, K. N. Kudin, 
 V. N. Staroverov, T. A. Keith, R. Kobayashi, J. Normand, 
 K. Raghavachari, A. P. Rendell, J. C. Burant, S. S. Iyengar, 
 J. Tomasi, M. Cossi, J. M. Millam, M. Klene, C. Adamo, R. Cammi, 
 J. W. Ochterski, R. L. Martin, K. Morokuma, O. Farkas, 
 J. B. Foresman, and D. J. Fox, Gaussian, Inc., Wallingford CT, 2016.
 
 ******************************************
 Gaussian 16:  ES64L-G16RevA.03 25-Dec-2016
                16-Apr-2021 
 ******************************************
 %RWF=temp12_61281,70GB
 %nprocshared=48
 Will use up to   48 processors via shared memory.
 Default route: MaxDisk=80GB
 ----------------------------------------------------------------------
 #P M062X/GEN Integral=UltraFineGrid SCF=NoSymm Stable=(RExt, Opt) IOp(
 1/33=1)
 ----------------------------------------------------------------------
 1/33=1,38=1,172=1/1;
 2/12=2,17=6,18=5,40=1/2;
 3/5=7,11=2,25=1,30=1,74=-55,75=-5/1,2,3;
 4/9=2/1;
 5/5=2,38=5/2;
 6/7=2,8=2,9=2,10=2,28=1/1;
 8/6=1,10=90,11=11/1;
 9/8=-3,42=1,46=1/14;
 5/5=2,8=3,17=40,38=5/8(-2);
 6/7=2,8=2,9=2,10=2,28=1/1;
 99/5=1,9=1/99;
 Leave Link    1 at Fri Apr 16 23:02:35 2021, MaxMem=           0 cpu:              11.7 elap:               0.3
 (Enter /s/ls4/users/knvvv/bin/g16sse/l101.exe)
 ONIOM data not found on unit 2.
 ----------------------
 Database calculations.
 ----------------------
 TstMul:  ICh=     0
 TstMul:  Mul=     5
 TstMul:  ICh=     0
 TstMul:  Mul=     5
 Symbolic Z-matrix:
 Charge =  0 Multiplicity = 5
 Ru                    0.        0.        0. 
 
 RdStrC is calling ZToCFu for IStruc=1 NZ=     1.
 PrtBox:  NBox=     1 Levels=  0 BoxLen=    8.00 SMaxX=        0.00
          Shift=            0.000000            0.000000            0.000000
 Box      1 Number                   0 centers from      1 to      1:
 After GenITR:
 ITRead=  0
 MicOpt= -1
 ITRead=  0
 MicOpt= -1
 NAtoms=      1 NQM=        1 NQMF=       0 NMMI=      0 NMMIF=      0
                NMic=       0 NMicF=      0.
                    Isotopes and Nuclear Properties:
 (Nuclear quadrupole moments (NQMom) in fm**2, nuclear magnetic moments (NMagM)
  in nuclear magnetons)

  Atom         1
 IAtWgt=         102
 AtmWgt= 101.9037000
 NucSpn=           0
 AtZEff=  -0.0000000
 NQMom=    0.0000000
 NMagM=    0.0000000
 AtZNuc=  44.0000000
 No MM parameters found.
 Leave Link  101 at Fri Apr 16 23:02:36 2021, MaxMem=   104857600 cpu:               6.6 elap:               0.2
 (Enter /s/ls4/users/knvvv/bin/g16sse/l202.exe)
                          Input orientation:                          
 ---------------------------------------------------------------------
 Center     Atomic      Atomic             Coordinates (Angstroms)
 Number     Number       Type             X           Y           Z
 ---------------------------------------------------------------------
      1         44           0        0.000000    0.000000    0.000000
 ---------------------------------------------------------------------
 Stoichiometry    Ru(5)
 Framework group  OH[O(Ru)]
 Deg. of freedom     0
 Full point group                 OH      NOp  48
 Largest Abelian subgroup         D2H     NOp   8
 Largest concise Abelian subgroup C1      NOp   1
                         Standard orientation:                         
 ---------------------------------------------------------------------
 Center     Atomic      Atomic             Coordinates (Angstroms)
 Number     Number       Type             X           Y           Z
 ---------------------------------------------------------------------
      1         44           0        0.000000    0.000000    0.000000
 ---------------------------------------------------------------------
 Leave Link  202 at Fri Apr 16 23:02:36 2021, MaxMem=   104857600 cpu:              29.5 elap:               0.6
 (Enter /s/ls4/users/knvvv/bin/g16sse/l301.exe)
 General basis read from cards:  (5D, 7F)
 Centers:       1
 S 25 1.00
     Exponent=  1.9270800000D+08 Coefficients=  4.3000000000D-05
     Exponent=  3.0168800000D+07 Coefficients=  1.1400000000D-04
     Exponent=  6.3390700000D+06 Coefficients=  3.1300000000D-04
     Exponent=  1.6689400000D+06 Coefficients=  7.1000000000D-04
     Exponent=  5.2045500000D+05 Coefficients=  1.5130000000D-03
     Exponent=  1.8380000000D+05 Coefficients=  3.0630000000D-03
     Exponent=  7.0986500000D+04 Coefficients=  6.1410000000D-03
     Exponent=  2.9211000000D+04 Coefficients=  1.2376000000D-02
     Exponent=  1.2572000000D+04 Coefficients=  2.5427000000D-02
     Exponent=  5.5903500000D+03 Coefficients=  5.2784000000D-02
     Exponent=  2.5499300000D+03 Coefficients=  1.0718800000D-01
     Exponent=  1.1890600000D+03 Coefficients=  1.9716800000D-01
     Exponent=  5.6638400000D+02 Coefficients=  2.8753700000D-01
     Exponent=  2.7571400000D+02 Coefficients=  2.6336600000D-01
     Exponent=  1.3724200000D+02 Coefficients=  1.1266400000D-01
     Exponent=  6.9809600000D+01 Coefficients=  5.5188000000D-02
     Exponent=  3.6175100000D+01 Coefficients=  7.3522000000D-02
     Exponent=  1.8968600000D+01 Coefficients=  3.4576000000D-02
     Exponent=  9.9474900000D+00 Coefficients=  1.1321000000D-02
     Exponent=  5.1249000000D+00 Coefficients=  1.0233000000D-02
     Exponent=  2.5290800000D+00 Coefficients=  2.5890000000D-03
     Exponent=  1.2282400000D+00 Coefficients= -5.5000000000D-05
     Exponent=  5.5766600000D-01 Coefficients=  1.9000000000D-05
     Exponent=  1.4121900000D-01 Coefficients= -1.1000000000D-05
     Exponent=  6.7797000000D-02 Coefficients=  7.0000000000D-06
 S 25 1.00
     Exponent=  1.9270800000D+08 Coefficients= -2.2000000000D-05
     Exponent=  3.0168800000D+07 Coefficients= -5.7000000000D-05
     Exponent=  6.3390700000D+06 Coefficients= -1.5600000000D-04
     Exponent=  1.6689400000D+06 Coefficients= -3.5500000000D-04
     Exponent=  5.2045500000D+05 Coefficients= -7.5800000000D-04
     Exponent=  1.8380000000D+05 Coefficients= -1.5390000000D-03
     Exponent=  7.0986500000D+04 Coefficients= -3.0990000000D-03
     Exponent=  2.9211000000D+04 Coefficients= -6.2850000000D-03
     Exponent=  1.2572000000D+04 Coefficients= -1.3061000000D-02
     Exponent=  5.5903500000D+03 Coefficients= -2.7633000000D-02
     Exponent=  2.5499300000D+03 Coefficients= -5.8225000000D-02
     Exponent=  1.1890600000D+03 Coefficients= -1.1492600000D-01
     Exponent=  5.6638400000D+02 Coefficients= -1.9350600000D-01
     Exponent=  2.7571400000D+02 Coefficients= -2.2602400000D-01
     Exponent=  1.3724200000D+02 Coefficients= -7.5190000000D-02
     Exponent=  6.9809600000D+01 Coefficients=  3.0721900000D-01
     Exponent=  3.6175100000D+01 Coefficients=  5.2831300000D-01
     Exponent=  1.8968600000D+01 Coefficients=  2.5872700000D-01
     Exponent=  9.9474900000D+00 Coefficients=  4.7955000000D-02
     Exponent=  5.1249000000D+00 Coefficients=  2.5136000000D-02
     Exponent=  2.5290800000D+00 Coefficients=  5.7370000000D-03
     Exponent=  1.2282400000D+00 Coefficients= -1.6600000000D-04
     Exponent=  5.5766600000D-01 Coefficients= -4.0000000000D-05
     Exponent=  1.4121900000D-01 Coefficients= -1.7000000000D-05
     Exponent=  6.7797000000D-02 Coefficients=  9.0000000000D-06
 S 25 1.00
     Exponent=  1.9270800000D+08 Coefficients=  7.0000000000D-06
     Exponent=  3.0168800000D+07 Coefficients=  1.8000000000D-05
     Exponent=  6.3390700000D+06 Coefficients=  4.8000000000D-05
     Exponent=  1.6689400000D+06 Coefficients=  1.1000000000D-04
     Exponent=  5.2045500000D+05 Coefficients=  2.3400000000D-04
     Exponent=  1.8380000000D+05 Coefficients=  4.7600000000D-04
     Exponent=  7.0986500000D+04 Coefficients=  9.6200000000D-04
     Exponent=  2.9211000000D+04 Coefficients=  1.9580000000D-03
     Exponent=  1.2572000000D+04 Coefficients=  4.1060000000D-03
     Exponent=  5.5903500000D+03 Coefficients=  8.7800000000D-03
     Exponent=  2.5499300000D+03 Coefficients=  1.8983000000D-02
     Exponent=  1.1890600000D+03 Coefficients=  3.8978000000D-02
     Exponent=  5.6638400000D+02 Coefficients=  7.1221000000D-02
     Exponent=  2.7571400000D+02 Coefficients=  9.2547000000D-02
     Exponent=  1.3724200000D+02 Coefficients=  3.0635000000D-02
     Exponent=  6.9809600000D+01 Coefficients= -2.2073800000D-01
     Exponent=  3.6175100000D+01 Coefficients= -5.0594100000D-01
     Exponent=  1.8968600000D+01 Coefficients= -2.9861100000D-01
     Exponent=  9.9474900000D+00 Coefficients=  4.4929400000D-01
     Exponent=  5.1249000000D+00 Coefficients=  7.3958900000D-01
     Exponent=  2.5290800000D+00 Coefficients=  1.8260200000D-01
     Exponent=  1.2282400000D+00 Coefficients=  3.4490000000D-03
     Exponent=  5.5766600000D-01 Coefficients=  2.9330000000D-03
     Exponent=  1.4121900000D-01 Coefficients= -2.3800000000D-04
     Exponent=  6.7797000000D-02 Coefficients=  2.0200000000D-04
 S 25 1.00
     Exponent=  1.9270800000D+08 Coefficients= -3.0000000000D-06
     Exponent=  3.0168800000D+07 Coefficients= -7.0000000000D-06
     Exponent=  6.3390700000D+06 Coefficients= -1.9000000000D-05
     Exponent=  1.6689400000D+06 Coefficients= -4.4000000000D-05
     Exponent=  5.2045500000D+05 Coefficients= -9.4000000000D-05
     Exponent=  1.8380000000D+05 Coefficients= -1.9100000000D-04
     Exponent=  7.0986500000D+04 Coefficients= -3.8500000000D-04
     Exponent=  2.9211000000D+04 Coefficients= -7.8300000000D-04
     Exponent=  1.2572000000D+04 Coefficients= -1.6400000000D-03
     Exponent=  5.5903500000D+03 Coefficients= -3.5080000000D-03
     Exponent=  2.5499300000D+03 Coefficients= -7.5650000000D-03
     Exponent=  1.1890600000D+03 Coefficients= -1.5534000000D-02
     Exponent=  5.6638400000D+02 Coefficients= -2.8256000000D-02
     Exponent=  2.7571400000D+02 Coefficients= -3.6927000000D-02
     Exponent=  1.3724200000D+02 Coefficients= -1.2177000000D-02
     Exponent=  6.9809600000D+01 Coefficients=  9.1845000000D-02
     Exponent=  3.6175100000D+01 Coefficients=  2.3022300000D-01
     Exponent=  1.8968600000D+01 Coefficients=  1.3963900000D-01
     Exponent=  9.9474900000D+00 Coefficients= -2.6419300000D-01
     Exponent=  5.1249000000D+00 Coefficients= -7.3963200000D-01
     Exponent=  2.5290800000D+00 Coefficients= -1.0409000000D-01
     Exponent=  1.2282400000D+00 Coefficients=  8.1856600000D-01
     Exponent=  5.5766600000D-01 Coefficients=  5.2107500000D-01
     Exponent=  1.4121900000D-01 Coefficients=  3.4706000000D-02
     Exponent=  6.7797000000D-02 Coefficients= -1.1930000000D-02
 S 25 1.00
     Exponent=  1.9270800000D+08 Coefficients=  1.0000000000D-06
     Exponent=  3.0168800000D+07 Coefficients=  2.0000000000D-06
     Exponent=  6.3390700000D+06 Coefficients=  5.0000000000D-06
     Exponent=  1.6689400000D+06 Coefficients=  1.2000000000D-05
     Exponent=  5.2045500000D+05 Coefficients=  2.5000000000D-05
     Exponent=  1.8380000000D+05 Coefficients=  5.0000000000D-05
     Exponent=  7.0986500000D+04 Coefficients=  1.0100000000D-04
     Exponent=  2.9211000000D+04 Coefficients=  2.0700000000D-04
     Exponent=  1.2572000000D+04 Coefficients=  4.3200000000D-04
     Exponent=  5.5903500000D+03 Coefficients=  9.2500000000D-04
     Exponent=  2.5499300000D+03 Coefficients=  1.9940000000D-03
     Exponent=  1.1890600000D+03 Coefficients=  4.0990000000D-03
     Exponent=  5.6638400000D+02 Coefficients=  7.4550000000D-03
     Exponent=  2.7571400000D+02 Coefficients=  9.7680000000D-03
     Exponent=  1.3724200000D+02 Coefficients=  3.2110000000D-03
     Exponent=  6.9809600000D+01 Coefficients= -2.4499000000D-02
     Exponent=  3.6175100000D+01 Coefficients= -6.2145000000D-02
     Exponent=  1.8968600000D+01 Coefficients= -3.8023000000D-02
     Exponent=  9.9474900000D+00 Coefficients=  7.4258000000D-02
     Exponent=  5.1249000000D+00 Coefficients=  2.2718800000D-01
     Exponent=  2.5290800000D+00 Coefficients=  2.3251000000D-02
     Exponent=  1.2282400000D+00 Coefficients= -3.3137000000D-01
     Exponent=  5.5766600000D-01 Coefficients= -3.3316800000D-01
     Exponent=  1.4121900000D-01 Coefficients=  2.7618900000D-01
     Exponent=  6.7797000000D-02 Coefficients=  6.2177200000D-01
 S 25 1.00
     Exponent=  1.9270800000D+08 Coefficients=  1.0000000000D-06
     Exponent=  3.0168800000D+07 Coefficients=  4.0000000000D-06
     Exponent=  6.3390700000D+06 Coefficients=  1.0000000000D-05
     Exponent=  1.6689400000D+06 Coefficients=  2.4000000000D-05
     Exponent=  5.2045500000D+05 Coefficients=  5.1000000000D-05
     Exponent=  1.8380000000D+05 Coefficients=  1.0200000000D-04
     Exponent=  7.0986500000D+04 Coefficients=  2.0900000000D-04
     Exponent=  2.9211000000D+04 Coefficients=  4.1300000000D-04
     Exponent=  1.2572000000D+04 Coefficients=  9.0300000000D-04
     Exponent=  5.5903500000D+03 Coefficients=  1.8220000000D-03
     Exponent=  2.5499300000D+03 Coefficients=  4.2320000000D-03
     Exponent=  1.1890600000D+03 Coefficients=  7.9160000000D-03
     Exponent=  5.6638400000D+02 Coefficients=  1.6324000000D-02
     Exponent=  2.7571400000D+02 Coefficients=  1.7137000000D-02
     Exponent=  1.3724200000D+02 Coefficients=  1.3387000000D-02
     Exponent=  6.9809600000D+01 Coefficients= -6.6185000000D-02
     Exponent=  3.6175100000D+01 Coefficients= -9.4292000000D-02
     Exponent=  1.8968600000D+01 Coefficients= -1.4766700000D-01
     Exponent=  9.9474900000D+00 Coefficients=  2.8968100000D-01
     Exponent=  5.1249000000D+00 Coefficients=  2.7572900000D-01
     Exponent=  2.5290800000D+00 Coefficients=  4.4518300000D-01
     Exponent=  1.2282400000D+00 Coefficients= -1.7607630000D+00
     Exponent=  5.5766600000D-01 Coefficients=  5.5542400000D-01
     Exponent=  1.4121900000D-01 Coefficients=  2.0537870000D+00
     Exponent=  6.7797000000D-02 Coefficients= -1.3630430000D+00
 S 25 1.00
     Exponent=  1.9270800000D+08 Coefficients=  2.0000000000D-06
     Exponent=  3.0168800000D+07 Coefficients=  5.0000000000D-06
     Exponent=  6.3390700000D+06 Coefficients=  1.5000000000D-05
     Exponent=  1.6689400000D+06 Coefficients=  3.4000000000D-05
     Exponent=  5.2045500000D+05 Coefficients=  7.2000000000D-05
     Exponent=  1.8380000000D+05 Coefficients=  1.4700000000D-04
     Exponent=  7.0986500000D+04 Coefficients=  2.9900000000D-04
     Exponent=  2.9211000000D+04 Coefficients=  5.9900000000D-04
     Exponent=  1.2572000000D+04 Coefficients=  1.2830000000D-03
     Exponent=  5.5903500000D+03 Coefficients=  2.6640000000D-03
     Exponent=  2.5499300000D+03 Coefficients=  5.9650000000D-03
     Exponent=  1.1890600000D+03 Coefficients=  1.1705000000D-02
     Exponent=  5.6638400000D+02 Coefficients=  2.2695000000D-02
     Exponent=  2.7571400000D+02 Coefficients=  2.6780000000D-02
     Exponent=  1.3724200000D+02 Coefficients=  1.4322000000D-02
     Exponent=  6.9809600000D+01 Coefficients= -8.4570000000D-02
     Exponent=  3.6175100000D+01 Coefficients= -1.6926200000D-01
     Exponent=  1.8968600000D+01 Coefficients= -1.5466100000D-01
     Exponent=  9.9474900000D+00 Coefficients=  3.4094100000D-01
     Exponent=  5.1249000000D+00 Coefficients=  6.7676800000D-01
     Exponent=  2.5290800000D+00 Coefficients=  2.5553800000D-01
     Exponent=  1.2282400000D+00 Coefficients= -3.5119980000D+00
     Exponent=  5.5766600000D-01 Coefficients=  3.7906500000D+00
     Exponent=  1.4121900000D-01 Coefficients= -1.5455260000D+00
     Exponent=  6.7797000000D-02 Coefficients= -6.5543900000D-01
 S 1 1.00
     Exponent=  2.9950000000D-02 Coefficients=  1.0000000000D+00
 P 20 1.00
     Exponent=  1.4520000000D+06 Coefficients=  1.6000000000D-05
     Exponent=  2.4244000000D+05 Coefficients=  5.5000000000D-05
     Exponent=  5.4514600000D+04 Coefficients=  2.0700000000D-04
     Exponent=  1.5468700000D+04 Coefficients=  7.3700000000D-04
     Exponent=  5.2483500000D+03 Coefficients=  2.5880000000D-03
     Exponent=  2.0376900000D+03 Coefficients=  8.7400000000D-03
     Exponent=  8.7406800000D+02 Coefficients=  2.7233000000D-02
     Exponent=  4.0300300000D+02 Coefficients=  7.5229000000D-02
     Exponent=  1.9557100000D+02 Coefficients=  1.7240100000D-01
     Exponent=  9.8339400000D+01 Coefficients=  3.0264500000D-01
     Exponent=  5.0649000000D+01 Coefficients=  3.5165000000D-01
     Exponent=  2.6493200000D+01 Coefficients=  2.0784400000D-01
     Exponent=  1.3980300000D+01 Coefficients=  4.1711000000D-02
     Exponent=  7.3979000000D+00 Coefficients= -6.4740000000D-03
     Exponent=  3.9002600000D+00 Coefficients= -5.4520000000D-03
     Exponent=  2.0320700000D+00 Coefficients= -7.6300000000D-04
     Exponent=  1.0086100000D+00 Coefficients=  2.4000000000D-05
     Exponent=  4.8195500000D-01 Coefficients=  8.7000000000D-05
     Exponent=  1.8504000000D-01 Coefficients= -1.0000000000D-06
     Exponent=  7.6242000000D-02 Coefficients=  3.0000000000D-06
 P 20 1.00
     Exponent=  1.4520000000D+06 Coefficients= -7.0000000000D-06
     Exponent=  2.4244000000D+05 Coefficients= -2.3000000000D-05
     Exponent=  5.4514600000D+04 Coefficients= -8.7000000000D-05
     Exponent=  1.5468700000D+04 Coefficients= -3.1100000000D-04
     Exponent=  5.2483500000D+03 Coefficients= -1.0960000000D-03
     Exponent=  2.0376900000D+03 Coefficients= -3.7280000000D-03
     Exponent=  8.7406800000D+02 Coefficients= -1.1768000000D-02
     Exponent=  4.0300300000D+02 Coefficients= -3.3329000000D-02
     Exponent=  1.9557100000D+02 Coefficients= -7.9517000000D-02
     Exponent=  9.8339400000D+01 Coefficients= -1.4746800000D-01
     Exponent=  5.0649000000D+01 Coefficients= -1.7625200000D-01
     Exponent=  2.6493200000D+01 Coefficients= -1.9699000000D-02
     Exponent=  1.3980300000D+01 Coefficients=  3.0331900000D-01
     Exponent=  7.3979000000D+00 Coefficients=  4.9809400000D-01
     Exponent=  3.9002600000D+00 Coefficients=  2.8159300000D-01
     Exponent=  2.0320700000D+00 Coefficients=  4.0423000000D-02
     Exponent=  1.0086100000D+00 Coefficients= -3.9500000000D-04
     Exponent=  4.8195500000D-01 Coefficients= -2.2270000000D-03
     Exponent=  1.8504000000D-01 Coefficients= -5.3000000000D-05
     Exponent=  7.6242000000D-02 Coefficients= -7.2000000000D-05
 P 20 1.00
     Exponent=  1.4520000000D+06 Coefficients=  3.0000000000D-06
     Exponent=  2.4244000000D+05 Coefficients=  9.0000000000D-06
     Exponent=  5.4514600000D+04 Coefficients=  3.4000000000D-05
     Exponent=  1.5468700000D+04 Coefficients=  1.2100000000D-04
     Exponent=  5.2483500000D+03 Coefficients=  4.2500000000D-04
     Exponent=  2.0376900000D+03 Coefficients=  1.4470000000D-03
     Exponent=  8.7406800000D+02 Coefficients=  4.5760000000D-03
     Exponent=  4.0300300000D+02 Coefficients=  1.2994000000D-02
     Exponent=  1.9557100000D+02 Coefficients=  3.1191000000D-02
     Exponent=  9.8339400000D+01 Coefficients=  5.8260000000D-02
     Exponent=  5.0649000000D+01 Coefficients=  7.0104000000D-02
     Exponent=  2.6493200000D+01 Coefficients= -3.6400000000D-04
     Exponent=  1.3980300000D+01 Coefficients= -1.5196700000D-01
     Exponent=  7.3979000000D+00 Coefficients= -2.8399300000D-01
     Exponent=  3.9002600000D+00 Coefficients= -1.3290900000D-01
     Exponent=  2.0320700000D+00 Coefficients=  3.3704200000D-01
     Exponent=  1.0086100000D+00 Coefficients=  5.3864100000D-01
     Exponent=  4.8195500000D-01 Coefficients=  2.9945800000D-01
     Exponent=  1.8504000000D-01 Coefficients=  4.0939000000D-02
     Exponent=  7.6242000000D-02 Coefficients= -3.1450000000D-03
 P 20 1.00
     Exponent=  1.4520000000D+06 Coefficients= -1.0000000000D-06
     Exponent=  2.4244000000D+05 Coefficients= -2.0000000000D-06
     Exponent=  5.4514600000D+04 Coefficients= -9.0000000000D-06
     Exponent=  1.5468700000D+04 Coefficients= -3.1000000000D-05
     Exponent=  5.2483500000D+03 Coefficients= -1.0900000000D-04
     Exponent=  2.0376900000D+03 Coefficients= -3.7100000000D-04
     Exponent=  8.7406800000D+02 Coefficients= -1.1790000000D-03
     Exponent=  4.0300300000D+02 Coefficients= -3.3370000000D-03
     Exponent=  1.9557100000D+02 Coefficients= -8.0470000000D-03
     Exponent=  9.8339400000D+01 Coefficients= -1.4974000000D-02
     Exponent=  5.0649000000D+01 Coefficients= -1.8195000000D-02
     Exponent=  2.6493200000D+01 Coefficients=  6.2400000000D-04
     Exponent=  1.3980300000D+01 Coefficients=  3.9940000000D-02
     Exponent=  7.3979000000D+00 Coefficients=  7.7864000000D-02
     Exponent=  3.9002600000D+00 Coefficients=  3.2127000000D-02
     Exponent=  2.0320700000D+00 Coefficients= -1.0725600000D-01
     Exponent=  1.0086100000D+00 Coefficients= -2.0392900000D-01
     Exponent=  4.8195500000D-01 Coefficients= -8.3274000000D-02
     Exponent=  1.8504000000D-01 Coefficients=  3.0003200000D-01
     Exponent=  7.6242000000D-02 Coefficients=  5.7367400000D-01
 P 20 1.00
     Exponent=  1.4520000000D+06 Coefficients= -1.0000000000D-06
     Exponent=  2.4244000000D+05 Coefficients= -4.0000000000D-06
     Exponent=  5.4514600000D+04 Coefficients= -1.6000000000D-05
     Exponent=  1.5468700000D+04 Coefficients= -5.6000000000D-05
     Exponent=  5.2483500000D+03 Coefficients= -1.9900000000D-04
     Exponent=  2.0376900000D+03 Coefficients= -6.6900000000D-04
     Exponent=  8.7406800000D+02 Coefficients= -2.1410000000D-03
     Exponent=  4.0300300000D+02 Coefficients= -6.0000000000D-03
     Exponent=  1.9557100000D+02 Coefficients= -1.4649000000D-02
     Exponent=  9.8339400000D+01 Coefficients= -2.6834000000D-02
     Exponent=  5.0649000000D+01 Coefficients= -3.3555000000D-02
     Exponent=  2.6493200000D+01 Coefficients=  2.6000000000D-03
     Exponent=  1.3980300000D+01 Coefficients=  6.9941000000D-02
     Exponent=  7.3979000000D+00 Coefficients=  1.4735200000D-01
     Exponent=  3.9002600000D+00 Coefficients=  5.0738000000D-02
     Exponent=  2.0320700000D+00 Coefficients= -1.9325500000D-01
     Exponent=  1.0086100000D+00 Coefficients= -4.4912100000D-01
     Exponent=  4.8195500000D-01 Coefficients=  5.7943000000D-02
     Exponent=  1.8504000000D-01 Coefficients=  7.1290200000D-01
     Exponent=  7.6242000000D-02 Coefficients=  3.5858300000D-01
 P 20 1.00
     Exponent=  1.4520000000D+06 Coefficients= -2.0000000000D-06
     Exponent=  2.4244000000D+05 Coefficients= -6.0000000000D-06
     Exponent=  5.4514600000D+04 Coefficients= -2.4000000000D-05
     Exponent=  1.5468700000D+04 Coefficients= -8.6000000000D-05
     Exponent=  5.2483500000D+03 Coefficients= -3.1000000000D-04
     Exponent=  2.0376900000D+03 Coefficients= -1.0280000000D-03
     Exponent=  8.7406800000D+02 Coefficients= -3.3530000000D-03
     Exponent=  4.0300300000D+02 Coefficients= -9.2050000000D-03
     Exponent=  1.9557100000D+02 Coefficients= -2.3036000000D-02
     Exponent=  9.8339400000D+01 Coefficients= -4.0939000000D-02
     Exponent=  5.0649000000D+01 Coefficients= -5.4262000000D-02
     Exponent=  2.6493200000D+01 Coefficients=  9.0420000000D-03
     Exponent=  1.3980300000D+01 Coefficients=  1.0613600000D-01
     Exponent=  7.3979000000D+00 Coefficients=  2.5032600000D-01
     Exponent=  3.9002600000D+00 Coefficients=  7.1279000000D-02
     Exponent=  2.0320700000D+00 Coefficients= -4.2983900000D-01
     Exponent=  1.0086100000D+00 Coefficients= -9.5022700000D-01
     Exponent=  4.8195500000D-01 Coefficients=  1.4174230000D+00
     Exponent=  1.8504000000D-01 Coefficients=  3.2559500000D-01
     Exponent=  7.6242000000D-02 Coefficients= -1.0012110000D+00
 P 1 1.00
     Exponent=  3.0654000000D-02 Coefficients=  1.0000000000D+00
 D 13 1.00
     Exponent=  2.5423500000D+03 Coefficients=  1.5500000000D-04
     Exponent=  7.4300800000D+02 Coefficients=  1.2990000000D-03
     Exponent=  2.7695200000D+02 Coefficients=  7.7890000000D-03
     Exponent=  1.1966900000D+02 Coefficients=  3.1919000000D-02
     Exponent=  5.6344800000D+01 Coefficients=  9.6772000000D-02
     Exponent=  2.7856800000D+01 Coefficients=  2.1476300000D-01
     Exponent=  1.4159100000D+01 Coefficients=  3.2811100000D-01
     Exponent=  7.2956800000D+00 Coefficients=  3.3753000000D-01
     Exponent=  3.7509000000D+00 Coefficients=  1.8933400000D-01
     Exponent=  1.8552600000D+00 Coefficients=  4.1793000000D-02
     Exponent=  8.8205900000D-01 Coefficients=  2.1340000000D-03
     Exponent=  4.0062200000D-01 Coefficients=  5.0900000000D-04
     Exponent=  1.7133100000D-01 Coefficients=  1.7000000000D-05
 D 13 1.00
     Exponent=  2.5423500000D+03 Coefficients= -4.5000000000D-05
     Exponent=  7.4300800000D+02 Coefficients= -3.7500000000D-04
     Exponent=  2.7695200000D+02 Coefficients= -2.2530000000D-03
     Exponent=  1.1966900000D+02 Coefficients= -9.3050000000D-03
     Exponent=  5.6344800000D+01 Coefficients= -2.8464000000D-02
     Exponent=  2.7856800000D+01 Coefficients= -6.3860000000D-02
     Exponent=  1.4159100000D+01 Coefficients= -9.4166000000D-02
     Exponent=  7.2956800000D+00 Coefficients= -8.7808000000D-02
     Exponent=  3.7509000000D+00 Coefficients=  2.7267000000D-02
     Exponent=  1.8552600000D+00 Coefficients=  2.4113600000D-01
     Exponent=  8.8205900000D-01 Coefficients=  3.7601500000D-01
     Exponent=  4.0062200000D-01 Coefficients=  3.4791900000D-01
     Exponent=  1.7133100000D-01 Coefficients=  2.0772400000D-01
 D 13 1.00
     Exponent=  2.5423500000D+03 Coefficients=  4.4000000000D-05
     Exponent=  7.4300800000D+02 Coefficients=  3.6800000000D-04
     Exponent=  2.7695200000D+02 Coefficients=  2.2170000000D-03
     Exponent=  1.1966900000D+02 Coefficients=  9.1350000000D-03
     Exponent=  5.6344800000D+01 Coefficients=  2.8138000000D-02
     Exponent=  2.7856800000D+01 Coefficients=  6.3096000000D-02
     Exponent=  1.4159100000D+01 Coefficients=  9.2046000000D-02
     Exponent=  7.2956800000D+00 Coefficients=  7.7982000000D-02
     Exponent=  3.7509000000D+00 Coefficients= -4.1517000000D-02
     Exponent=  1.8552600000D+00 Coefficients= -3.0244600000D-01
     Exponent=  8.8205900000D-01 Coefficients= -3.9084600000D-01
     Exponent=  4.0062200000D-01 Coefficients=  8.9314000000D-02
     Exponent=  1.7133100000D-01 Coefficients=  5.6648900000D-01
 D 13 1.00
     Exponent=  2.5423500000D+03 Coefficients= -6.8000000000D-05
     Exponent=  7.4300800000D+02 Coefficients= -5.6000000000D-04
     Exponent=  2.7695200000D+02 Coefficients= -3.4280000000D-03
     Exponent=  1.1966900000D+02 Coefficients= -1.3995000000D-02
     Exponent=  5.6344800000D+01 Coefficients= -4.3926000000D-02
     Exponent=  2.7856800000D+01 Coefficients= -9.7602000000D-02
     Exponent=  1.4159100000D+01 Coefficients= -1.3828300000D-01
     Exponent=  7.2956800000D+00 Coefficients= -9.1001000000D-02
     Exponent=  3.7509000000D+00 Coefficients=  1.2251500000D-01
     Exponent=  1.8552600000D+00 Coefficients=  6.4967600000D-01
     Exponent=  8.8205900000D-01 Coefficients=  3.0089000000D-02
     Exponent=  4.0062200000D-01 Coefficients= -9.1564500000D-01
     Exponent=  1.7133100000D-01 Coefficients=  7.8068000000D-02
 D 1 1.00
     Exponent=  6.6865000000D-02 Coefficients=  1.0000000000D+00
 F 1 1.00
     Exponent=  1.5074000000D+00 Coefficients=  1.0000000000D+00
 F 1 1.00
     Exponent=  4.3860000000D-01 Coefficients=  1.0000000000D+00
 G 1 1.00
     Exponent=  1.0050000000D+00 Coefficients=  1.0000000000D+00
 ****
 Ernie: Thresh=  0.10000D-02 Tol=  0.10000D-05 Strict=F.
 Ernie:  141 primitive shells out of 353 were deleted.
 There are    29 symmetry adapted cartesian basis functions of AG  symmetry.
 There are     8 symmetry adapted cartesian basis functions of B1G symmetry.
 There are     8 symmetry adapted cartesian basis functions of B2G symmetry.
 There are     8 symmetry adapted cartesian basis functions of B3G symmetry.
 There are     2 symmetry adapted cartesian basis functions of AU  symmetry.
 There are    13 symmetry adapted cartesian basis functions of B1U symmetry.
 There are    13 symmetry adapted cartesian basis functions of B2U symmetry.
 There are    13 symmetry adapted cartesian basis functions of B3U symmetry.
 There are    21 symmetry adapted basis functions of AG  symmetry.
 There are     7 symmetry adapted basis functions of B1G symmetry.
 There are     7 symmetry adapted basis functions of B2G symmetry.
 There are     7 symmetry adapted basis functions of B3G symmetry.
 There are     2 symmetry adapted basis functions of AU  symmetry.
 There are    11 symmetry adapted basis functions of B1U symmetry.
 There are    11 symmetry adapted basis functions of B2U symmetry.
 There are    11 symmetry adapted basis functions of B3U symmetry.
    77 basis functions,   578 primitive gaussians,    94 cartesian basis functions
    24 alpha electrons       20 beta electrons
       nuclear repulsion energy         0.0000000000 Hartrees.
 IExCor= 4336 DFT=T Ex+Corr=M062X ExCW=0 ScaHFX=  0.540000
 ScaDFX=  1.000000  1.000000  1.000000  1.000000 ScalE2=  1.000000  1.000000
 IRadAn=      5 IRanWt=     -1 IRanGd=            0 ICorTp=0 IEmpDi=  4
 NAtoms=    1 NActive=    1 NUniq=    1 SFac= 1.00D+00 NAtFMM=   60 NAOKFM=F Big=F
 Integral buffers will be    131072 words long.
 Raffenetti 2 integral format.
 Two-electron integral symmetry is turned on.
 Leave Link  301 at Fri Apr 16 23:02:37 2021, MaxMem=   104857600 cpu:              14.5 elap:               0.3
 (Enter /s/ls4/users/knvvv/bin/g16sse/l302.exe)
 NPDir=0 NMtPBC=     1 NCelOv=     1 NCel=       1 NClECP=     1 NCelD=      1
         NCelK=      1 NCelE2=     1 NClLst=     1 CellRange=     0.0.
 One-electron integrals computed using PRISM.
 One-electron integral symmetry used in STVInt
 PrsmSu:  requested number of processors reduced to:   1 ShMem   1 Linda.
 PrsmSu:  requested number of processors reduced to:   8 ShMem   1 Linda.
 NBasis=    77 RedAO= T EigKep=  1.20D-02  NBF=    21     7     7     7     2    11    11    11
 NBsUse=    77 1.00D-06 EigRej= -1.00D+00 NBFU=    21     7     7     7     2    11    11    11
 Precomputing XC quadrature grid using
 IXCGrd= 4 IRadAn=           5 IRanWt=          -1 IRanGd=           0 AccXCQ= 0.00D+00.
 Defaulting to unpruned grid for atomic number  44.
 Generated NRdTot=       0 NPtTot=           0 NUsed=           0 NTot=          32
 NSgBfM=    94    94    94    94    94 MxSgAt=     1 MxSgA2=     1.
 Leave Link  302 at Fri Apr 16 23:02:51 2021, MaxMem=   104857600 cpu:             653.6 elap:              14.0
 (Enter /s/ls4/users/knvvv/bin/g16sse/l303.exe)
 DipDrv:  MaxL=1.
 Leave Link  303 at Fri Apr 16 23:02:51 2021, MaxMem=   104857600 cpu:              17.1 elap:               0.4
 (Enter /s/ls4/users/knvvv/bin/g16sse/l401.exe)
 SCF N**3 symmetry information disabled.
 ExpMin= 3.00D-02 ExpMax= 1.93D+08 ExpMxC= 2.92D+04 IAcc=3 IRadAn=         5 AccDes= 0.00D+00
 Harris functional with IExCor= 1009 and IRadAn=       5 diagonalized for initial guess.
 HarFok:  IExCor= 1009 AccDes= 0.00D+00 IRadAn=         5 IDoV= 1 UseB2=F ITyADJ=14
 ICtDFT=  3500011 ScaDFX=  1.000000  1.000000  1.000000  1.000000
 Defaulting to unpruned grid for atomic number  44.
 FoFCou: FMM=F IPFlag=           0 FMFlag=      100000 FMFlg1=           0
         NFxFlg=           0 DoJE=T BraDBF=F KetDBF=T FulRan=T
         wScrn=  0.000000 ICntrl=       500 IOpCl=  0 I1Cent=   200000004 NGrid=           0
         NMat0=    1 NMatS0=      1 NMatT0=    0 NMatD0=    1 NMtDS0=    0 NMtDT0=    0
 Petite list used in FoFCou.
 CoulSu:  requested number of processors reduced to:   8 ShMem   1 Linda.
 CoulSu:  requested number of processors reduced to:   7 ShMem   1 Linda.
 CoulSu:  requested number of processors reduced to:   8 ShMem   1 Linda.
 CoulSu:  requested number of processors reduced to:   8 ShMem   1 Linda.
 Harris En= -4360.97219711892    
 JPrj=0 DoOrth=F DoCkMO=F.
 Initial guess orbital symmetries:
 Alpha Orbitals:
       Occupied  (A1G) (A1G) (T1U) (T1U) (T1U) (A1G) (T1U) (T1U)
                 (T1U) (T2G) (T2G) (T2G) (EG) (EG) (A1G) (T1U)
                 (T1U) (T1U) (T2G) (T2G) (T2G) (EG) (EG) (A1G)
       Virtual   (T1U) (T1U) (T1U) (A1G) (T1U) (T1U) (T1U) (?A)
                 (?A) (?A) (?A) (?A) (A1G) (T1U) (T1U) (T1U) (T2G)
                 (T2G) (T2G) (EG) (EG) (T2U) (T2U) (T2U) (A2U)
                 (T1U) (T1U) (T1U) (T1U) (T1U) (T1U) (T2G) (T2G)
                 (T2G) (EG) (EG) (A1G) (T2U) (T2U) (T2U) (A2U)
                 (T1U) (T1U) (T1U) (T1G) (T1G) (T1G) (T2G) (T2G)
                 (T2G) (EG) (EG) (A1G)
 Beta  Orbitals:
       Occupied  (A1G) (A1G) (T1U) (T1U) (T1U) (A1G) (T1U) (T1U)
                 (T1U) (T2G) (T2G) (T2G) (EG) (EG) (A1G) (T1U)
                 (T1U) (T1U) (T2G) (T2G)
       Virtual   (T2G) (EG) (EG) (A1G) (T1U) (T1U) (T1U) (A1G)
                 (T1U) (T1U) (T1U) (?A) (?A) (?A) (?A) (?A) (A1G)
                 (T1U) (T1U) (T1U) (T2G) (T2G) (T2G) (EG) (EG)
                 (T2U) (T2U) (T2U) (A2U) (T1U) (T1U) (T1U) (T1U)
                 (T1U) (T1U) (T2G) (T2G) (T2G) (EG) (EG) (A1G)
                 (T2U) (T2U) (T2U) (A2U) (T1U) (T1U) (T1U) (T1G)
                 (T1G) (T1G) (T2G) (T2G) (T2G) (EG) (EG) (A1G)
 Initial guess <Sx>= 0.0000 <Sy>= 0.0000 <Sz>= 2.0000 <S**2>= 6.0000 S= 2.0000
 Leave Link  401 at Fri Apr 16 23:03:02 2021, MaxMem=   104857600 cpu:             508.9 elap:              11.1
 (Enter /s/ls4/users/knvvv/bin/g16sse/l502.exe)
 Integral symmetry usage will be decided dynamically.
 UHF open shell SCF:
 Using DIIS extrapolation, IDIIS=  1040.
 NGot=   104857600 LenX=   104832277 LenY=   104823000
 Requested convergence on RMS density matrix=1.00D-08 within 128 cycles.
 Requested convergence on MAX density matrix=1.00D-06.
 Requested convergence on             energy=1.00D-06.
 No special actions if energy rises.
 Fock matrices will be formed incrementally for  20 cycles.

 Cycle   1  Pass 1  IDiag  1:
 Density matrix breaks symmetry, PCut= 1.00D-04
 Density matrix has no symmetry -- integrals replicated.
 FoFJK:  IHMeth= 1 ICntrl=       0 DoSepK=F KAlg= 0 I1Cent=           0 FoldK=F
 IRaf= 990000000 NMat=       1 IRICut=       1 DoRegI=T DoRafI=F ISym2E= 2 IDoP0=0 IntGTp=1.
 FoFCou: FMM=F IPFlag=           0 FMFlag=      100000 FMFlg1=           0
         NFxFlg=           0 DoJE=F BraDBF=F KetDBF=F FulRan=T
         wScrn=  0.000000 ICntrl=         0 IOpCl=  1 I1Cent=           0 NGrid=           0
         NMat0=    1 NMatS0=      1 NMatT0=    0 NMatD0=    1 NMtDS0=    0 NMtDT0=    0
 Integrals replicated using symmetry in FoFCou.
 CoulSu:  requested number of processors reduced to:   7 ShMem   1 Linda.
 Defaulting to unpruned grid for atomic number  44.
 Defaulting to unpruned grid for atomic number  44.
 Defaulting to unpruned grid for atomic number  44.
 Defaulting to unpruned grid for atomic number  44.
 Defaulting to unpruned grid for atomic number  44.
 Defaulting to unpruned grid for atomic number  44.
 Defaulting to unpruned grid for atomic number  44.
 Defaulting to unpruned grid for atomic number  44.
 Defaulting to unpruned grid for atomic number  44.
 Defaulting to unpruned grid for atomic number  44.
 Defaulting to unpruned grid for atomic number  44.
 Defaulting to unpruned grid for atomic number  44.
 Defaulting to unpruned grid for atomic number  44.
 Defaulting to unpruned grid for atomic number  44.
 Defaulting to unpruned grid for atomic number  44.
 Defaulting to unpruned grid for atomic number  44.
 Defaulting to unpruned grid for atomic number  44.
 Defaulting to unpruned grid for atomic number  44.
 Defaulting to unpruned grid for atomic number  44.
 Defaulting to unpruned grid for atomic number  44.
 Defaulting to unpruned grid for atomic number  44.
 Defaulting to unpruned grid for atomic number  44.
 Defaulting to unpruned grid for atomic number  44.
 Defaulting to unpruned grid for atomic number  44.
 Defaulting to unpruned grid for atomic number  44.
 Defaulting to unpruned grid for atomic number  44.
 Defaulting to unpruned grid for atomic number  44.
 Defaulting to unpruned grid for atomic number  44.
 Defaulting to unpruned grid for atomic number  44.
 Defaulting to unpruned grid for atomic number  44.
 Defaulting to unpruned grid for atomic number  44.
 Defaulting to unpruned grid for atomic number  44.
 Defaulting to unpruned grid for atomic number  44.
 Defaulting to unpruned grid for atomic number  44.
 Defaulting to unpruned grid for atomic number  44.
 Defaulting to unpruned grid for atomic number  44.
 Defaulting to unpruned grid for atomic number  44.
 Defaulting to unpruned grid for atomic number  44.
 Defaulting to unpruned grid for atomic number  44.
 Defaulting to unpruned grid for atomic number  44.
 Defaulting to unpruned grid for atomic number  44.
 Defaulting to unpruned grid for atomic number  44.
 Defaulting to unpruned grid for atomic number  44.
 Defaulting to unpruned grid for atomic number  44.
 Defaulting to unpruned grid for atomic number  44.
 Defaulting to unpruned grid for atomic number  44.
 Defaulting to unpruned grid for atomic number  44.
 Defaulting to unpruned grid for atomic number  44.
 E= -4361.76685452983    
 DIIS: error= 1.08D-01 at cycle   1 NSaved=   1.
 NSaved= 1 IEnMin= 1 EnMin= -4361.76685452983     IErMin= 1 ErrMin= 1.08D-01
 ErrMax= 1.08D-01  0.00D+00 EMaxC= 1.00D-01 BMatC= 2.40D+00 BMatP= 2.40D+00
 IDIUse=3 WtCom= 0.00D+00 WtEn= 1.00D+00
 Coeff-Com:  0.100D+01
 Coeff-En:   0.100D+01
 Coeff:      0.100D+01
 Gap=     0.197 Goal=   None    Shift=    0.000
 Gap=     0.206 Goal=   None    Shift=    0.000
 GapD=    0.197 DampG=1.000 DampE=0.125 DampFc=0.1250 IDamp=-1.
 Damping current iteration by 1.25D-01
 RMSDP=1.24D-02 MaxDP=2.88D-01              OVMax= 1.72D-01

 Cycle   2  Pass 1  IDiag  1:
 Density matrix breaks symmetry, PCut= 1.00D-04
 Density matrix has no symmetry -- integrals replicated.
 RMSU=  1.51D-03    CP:  1.00D+00
 CoulSu:  requested number of processors reduced to:   7 ShMem   1 Linda.
 E= -4361.79999473156     Delta-E=       -0.033140201727 Rises=F Damp=T
 DIIS: error= 8.54D-02 at cycle   2 NSaved=   2.
 NSaved= 2 IEnMin= 2 EnMin= -4361.79999473156     IErMin= 2 ErrMin= 8.54D-02
 ErrMax= 8.54D-02  0.00D+00 EMaxC= 1.00D-01 BMatC= 1.46D+00 BMatP= 2.40D+00
 IDIUse=3 WtCom= 1.46D-01 WtEn= 8.54D-01
 Coeff-Com: -0.340D+01 0.440D+01
 Coeff-En:   0.000D+00 0.100D+01
 Coeff:     -0.496D+00 0.150D+01
 Gap=     0.192 Goal=   None    Shift=    0.000
 Gap=     0.222 Goal=   None    Shift=    0.000
 RMSDP=8.03D-03 MaxDP=1.75D-01 DE=-3.31D-02 OVMax= 3.25D-02

 Cycle   3  Pass 1  IDiag  1:
 Density matrix breaks symmetry, PCut= 1.00D-04
 Density matrix has no symmetry -- integrals replicated.
 RMSU=  4.87D-03    CP:  1.03D+00  3.00D+00
 CoulSu:  requested number of processors reduced to:   7 ShMem   1 Linda.
 E= -4361.86450734397     Delta-E=       -0.064512612406 Rises=F Damp=F
 DIIS: error= 4.83D-02 at cycle   3 NSaved=   3.
 NSaved= 3 IEnMin= 3 EnMin= -4361.86450734397     IErMin= 3 ErrMin= 4.83D-02
 ErrMax= 4.83D-02  0.00D+00 EMaxC= 1.00D-01 BMatC= 6.23D-01 BMatP= 1.46D+00
 IDIUse=3 WtCom= 5.17D-01 WtEn= 4.83D-01
 EnCoef did   100 forward-backward iterations
 Coeff-Com:  0.492D+01-0.540D+01 0.149D+01
 Coeff-En:   0.246D+00 0.263D-02 0.751D+00
 Coeff:      0.266D+01-0.279D+01 0.113D+01
 Gap=     0.179 Goal=   None    Shift=    0.000
 Gap=     0.216 Goal=   None    Shift=    0.000
 RMSDP=5.81D-03 MaxDP=1.79D-01 DE=-6.45D-02 OVMax= 8.68D-02

 Cycle   4  Pass 1  IDiag  1:
 Density matrix breaks symmetry, PCut= 1.00D-04
 Density matrix has no symmetry -- integrals replicated.
 RMSU=  2.29D-03    CP:  1.01D+00  2.51D+00  9.31D-02
 CoulSu:  requested number of processors reduced to:   7 ShMem   1 Linda.
 E= -4361.91886811768     Delta-E=       -0.054360773717 Rises=F Damp=F
 DIIS: error= 1.11D-02 at cycle   4 NSaved=   4.
 NSaved= 4 IEnMin= 4 EnMin= -4361.91886811768     IErMin= 4 ErrMin= 1.11D-02
 ErrMax= 1.11D-02  0.00D+00 EMaxC= 1.00D-01 BMatC= 3.91D-02 BMatP= 6.23D-01
 IDIUse=3 WtCom= 8.89D-01 WtEn= 1.11D-01
 Coeff-Com: -0.105D+01 0.124D+01 0.132D-01 0.794D+00
 Coeff-En:   0.000D+00 0.000D+00 0.000D+00 0.100D+01
 Coeff:     -0.934D+00 0.111D+01 0.117D-01 0.817D+00
 Gap=     0.179 Goal=   None    Shift=    0.000
 Gap=     0.191 Goal=   None    Shift=    0.000
 RMSDP=1.17D-03 MaxDP=2.62D-02 DE=-5.44D-02 OVMax= 2.15D-02

 Cycle   5  Pass 1  IDiag  1:
 Density matrix breaks symmetry, PCut= 1.00D-04
 Density matrix has no symmetry -- integrals replicated.
 RMSU=  4.57D-04    CP:  1.01D+00  3.00D+00  1.60D-01  9.79D-01
 CoulSu:  requested number of processors reduced to:   7 ShMem   1 Linda.
 E= -4361.92342433771     Delta-E=       -0.004556220023 Rises=F Damp=F
 DIIS: error= 2.98D-03 at cycle   5 NSaved=   5.
 NSaved= 5 IEnMin= 5 EnMin= -4361.92342433771     IErMin= 5 ErrMin= 2.98D-03
 ErrMax= 2.98D-03  0.00D+00 EMaxC= 1.00D-01 BMatC= 1.74D-03 BMatP= 3.91D-02
 IDIUse=3 WtCom= 9.70D-01 WtEn= 2.98D-02
 Coeff-Com:  0.162D+00-0.199D+00-0.196D-01 0.586D-01 0.999D+00
 Coeff-En:   0.000D+00 0.000D+00 0.000D+00 0.000D+00 0.100D+01
 Coeff:      0.157D+00-0.193D+00-0.190D-01 0.568D-01 0.999D+00
 Gap=     0.178 Goal=   None    Shift=    0.000
 Gap=     0.185 Goal=   None    Shift=    0.000
 RMSDP=4.88D-04 MaxDP=1.86D-02 DE=-4.56D-03 OVMax= 1.14D-02

 Cycle   6  Pass 1  IDiag  1:
 Density matrix breaks symmetry, PCut= 1.00D-04
 Density matrix has no symmetry -- integrals replicated.
 RMSU=  2.56D-04    CP:  1.01D+00  3.00D+00  1.01D-01  1.07D+00  1.40D+00
 CoulSu:  requested number of processors reduced to:   7 ShMem   1 Linda.
 E= -4361.92368606205     Delta-E=       -0.000261724346 Rises=F Damp=F
 DIIS: error= 4.14D-04 at cycle   6 NSaved=   6.
 NSaved= 6 IEnMin= 6 EnMin= -4361.92368606205     IErMin= 6 ErrMin= 4.14D-04
 ErrMax= 4.14D-04  0.00D+00 EMaxC= 1.00D-01 BMatC= 3.23D-05 BMatP= 1.74D-03
 IDIUse=3 WtCom= 9.96D-01 WtEn= 4.14D-03
 Coeff-Com:  0.112D-01-0.118D-01-0.532D-02-0.916D-01-0.116D+00 0.121D+01
 Coeff-En:   0.000D+00 0.000D+00 0.000D+00 0.000D+00 0.000D+00 0.100D+01
 Coeff:      0.111D-01-0.117D-01-0.530D-02-0.912D-01-0.116D+00 0.121D+01
 Gap=     0.177 Goal=   None    Shift=    0.000
 Gap=     0.185 Goal=   None    Shift=    0.000
 RMSDP=1.86D-04 MaxDP=8.03D-03 DE=-2.62D-04 OVMax= 3.95D-03

 Cycle   7  Pass 1  IDiag  1:
 Density matrix breaks symmetry, PCut= 1.00D-04
 Density matrix has no symmetry -- integrals replicated.
 RMSU=  4.65D-05    CP:  1.01D+00  3.00D+00  1.02D-01  1.08D+00  1.65D+00
                    CP:  1.54D+00
 CoulSu:  requested number of processors reduced to:   7 ShMem   1 Linda.
 E= -4361.92369683760     Delta-E=       -0.000010775547 Rises=F Damp=F
 DIIS: error= 3.92D-05 at cycle   7 NSaved=   7.
 NSaved= 7 IEnMin= 7 EnMin= -4361.92369683760     IErMin= 7 ErrMin= 3.92D-05
 ErrMax= 3.92D-05  0.00D+00 EMaxC= 1.00D-01 BMatC= 2.61D-07 BMatP= 3.23D-05
 IDIUse=1 WtCom= 1.00D+00 WtEn= 0.00D+00
 Coeff-Com: -0.721D-02 0.841D-02 0.118D-02 0.140D-01-0.131D-01-0.168D+00
 Coeff-Com:  0.116D+01
 Coeff:     -0.721D-02 0.841D-02 0.118D-02 0.140D-01-0.131D-01-0.168D+00
 Coeff:      0.116D+01
 Gap=     0.177 Goal=   None    Shift=    0.000
 Gap=     0.185 Goal=   None    Shift=    0.000
 RMSDP=4.28D-05 MaxDP=1.84D-03 DE=-1.08D-05 OVMax= 6.19D-04

 Cycle   8  Pass 1  IDiag  1:
 Density matrix breaks symmetry, PCut= 1.00D-04
 Density matrix has no symmetry -- integrals replicated.
 RMSU=  3.45D-06    CP:  1.01D+00  3.00D+00  1.01D-01  1.07D+00  1.68D+00
                    CP:  1.67D+00  1.35D+00
 CoulSu:  requested number of processors reduced to:   7 ShMem   1 Linda.
 E= -4361.92369698694     Delta-E=       -0.000000149336 Rises=F Damp=F
 DIIS: error= 8.99D-06 at cycle   8 NSaved=   8.
 NSaved= 8 IEnMin= 8 EnMin= -4361.92369698694     IErMin= 8 ErrMin= 8.99D-06
 ErrMax= 8.99D-06  0.00D+00 EMaxC= 1.00D-01 BMatC= 1.72D-08 BMatP= 2.61D-07
 IDIUse=1 WtCom= 1.00D+00 WtEn= 0.00D+00
 Coeff-Com: -0.672D-03 0.774D-03 0.127D-03 0.153D-02-0.100D-02-0.113D-01
 Coeff-Com: -0.215D-01 0.103D+01
 Coeff:     -0.672D-03 0.774D-03 0.127D-03 0.153D-02-0.100D-02-0.113D-01
 Coeff:     -0.215D-01 0.103D+01
 Gap=     0.177 Goal=   None    Shift=    0.000
 Gap=     0.185 Goal=   None    Shift=    0.000
 RMSDP=6.66D-06 MaxDP=2.81D-04 DE=-1.49D-07 OVMax= 9.99D-05

 Cycle   9  Pass 1  IDiag  1:
 Density matrix breaks symmetry, PCut= 1.00D-04
 Density matrix has no symmetry -- integrals replicated.
 RMSU=  7.78D-07    CP:  1.01D+00  3.00D+00  1.01D-01  1.07D+00  1.68D+00
                    CP:  1.69D+00  1.41D+00  1.26D+00
 CoulSu:  requested number of processors reduced to:   7 ShMem   1 Linda.
 E= -4361.92369699443     Delta-E=       -0.000000007492 Rises=F Damp=F
 DIIS: error= 9.17D-06 at cycle   9 NSaved=   9.
 NSaved= 9 IEnMin= 9 EnMin= -4361.92369699443     IErMin= 8 ErrMin= 8.99D-06
 ErrMax= 9.17D-06  0.00D+00 EMaxC= 1.00D-01 BMatC= 8.86D-09 BMatP= 1.72D-08
 IDIUse=1 WtCom= 1.00D+00 WtEn= 0.00D+00
 Coeff-Com: -0.986D-05 0.126D-04-0.239D-04-0.202D-03-0.305D-03 0.188D-02
 Coeff-Com: -0.161D-01 0.383D-02 0.101D+01
 Coeff:     -0.986D-05 0.126D-04-0.239D-04-0.202D-03-0.305D-03 0.188D-02
 Coeff:     -0.161D-01 0.383D-02 0.101D+01
 Gap=     0.177 Goal=   None    Shift=    0.000
 Gap=     0.185 Goal=   None    Shift=    0.000
 RMSDP=2.01D-06 MaxDP=7.56D-05 DE=-7.49D-09 OVMax= 5.79D-05

 Cycle  10  Pass 1  IDiag  1:
 Density matrix breaks symmetry, PCut= 1.00D-04
 Density matrix has no symmetry -- integrals replicated.
 RMSU=  3.51D-07    CP:  1.01D+00  3.00D+00  1.01D-01  1.07D+00  1.68D+00
                    CP:  1.70D+00  1.42D+00  1.37D+00  2.01D+00
 CoulSu:  requested number of processors reduced to:   7 ShMem   1 Linda.
 E= -4361.92369699781     Delta-E=       -0.000000003383 Rises=F Damp=F
 DIIS: error= 9.63D-06 at cycle  10 NSaved=  10.
 NSaved=10 IEnMin=10 EnMin= -4361.92369699781     IErMin= 8 ErrMin= 8.99D-06
 ErrMax= 9.63D-06  0.00D+00 EMaxC= 1.00D-01 BMatC= 9.35D-09 BMatP= 8.86D-09
 IDIUse=1 WtCom= 1.00D+00 WtEn= 0.00D+00
 Coeff-Com:  0.731D-03-0.837D-03-0.262D-03-0.279D-02-0.759D-03 0.244D-01
 Coeff-Com: -0.101D+00-0.808D+00 0.658D+01-0.469D+01
 Coeff:      0.731D-03-0.837D-03-0.262D-03-0.279D-02-0.759D-03 0.244D-01
 Coeff:     -0.101D+00-0.808D+00 0.658D+01-0.469D+01
 Gap=     0.177 Goal=   None    Shift=    0.000
 Gap=     0.185 Goal=   None    Shift=    0.000
 RMSDP=3.93D-06 MaxDP=1.27D-04 DE=-3.38D-09 OVMax= 2.45D-04

 Cycle  11  Pass 1  IDiag  1:
 Density matrix breaks symmetry, PCut= 1.00D-04
 Density matrix has no symmetry -- integrals replicated.
 RMSU=  6.42D-07    CP:  1.01D+00  3.00D+00  1.01D-01  1.07D+00  1.68D+00
                    CP:  1.70D+00  1.41D+00  1.14D+00 -2.10D+00 -3.00D+00
 CoulSu:  requested number of processors reduced to:   7 ShMem   1 Linda.
 E= -4361.92369698702     Delta-E=        0.000000010790 Rises=F Damp=F
 DIIS: error= 7.85D-06 at cycle  11 NSaved=  11.
 NSaved=11 IEnMin=10 EnMin= -4361.92369699781     IErMin=11 ErrMin= 7.85D-06
 ErrMax= 7.85D-06  0.00D+00 EMaxC= 1.00D-01 BMatC= 7.03D-09 BMatP= 8.86D-09
 IDIUse=1 WtCom= 1.00D+00 WtEn= 0.00D+00
 Coeff-Com: -0.321D-03 0.367D-03 0.516D-04 0.939D-03 0.113D-02-0.962D-02
 Coeff-Com:  0.450D-01 0.237D-01-0.218D+01 0.230D+00 0.288D+01
 Coeff:     -0.321D-03 0.367D-03 0.516D-04 0.939D-03 0.113D-02-0.962D-02
 Coeff:      0.450D-01 0.237D-01-0.218D+01 0.230D+00 0.288D+01
 Gap=     0.177 Goal=   None    Shift=    0.000
 Gap=     0.185 Goal=   None    Shift=    0.000
 RMSDP=5.59D-06 MaxDP=1.79D-04 DE= 1.08D-08 OVMax= 3.45D-04

 Cycle  12  Pass 1  IDiag  1:
 Density matrix breaks symmetry, PCut= 1.00D-04
 Density matrix has no symmetry -- integrals replicated.
 RMSU=  4.17D-06    CP:  1.01D+00  3.00D+00  1.01D-01  1.07D+00  1.69D+00
                    CP:  1.70D+00  1.42D+00  9.13D-01 -3.00D+00 -3.00D+00
                    CP:  3.00D+00
 CoulSu:  requested number of processors reduced to:   7 ShMem   1 Linda.
 E= -4361.92369698169     Delta-E=        0.000000005333 Rises=F Damp=F
 DIIS: error= 6.35D-06 at cycle  12 NSaved=  12.
 NSaved=12 IEnMin=10 EnMin= -4361.92369699781     IErMin=12 ErrMin= 6.35D-06
 ErrMax= 6.35D-06  0.00D+00 EMaxC= 1.00D-01 BMatC= 5.65D-09 BMatP= 7.03D-09
 IDIUse=1 WtCom= 1.00D+00 WtEn= 0.00D+00
 Coeff-Com:  0.971D-05-0.106D-04 0.224D-05-0.437D-04-0.278D-03 0.787D-03
 Coeff-Com: -0.486D-03 0.221D-01-0.552D-01 0.191D+00-0.303D+00 0.115D+01
 Coeff:      0.971D-05-0.106D-04 0.224D-05-0.437D-04-0.278D-03 0.787D-03
 Coeff:     -0.486D-03 0.221D-01-0.552D-01 0.191D+00-0.303D+00 0.115D+01
 Gap=     0.177 Goal=   None    Shift=    0.000
 Gap=     0.185 Goal=   None    Shift=    0.000
 RMSDP=2.95D-07 MaxDP=9.65D-06 DE= 5.33D-09 OVMax= 1.33D-05

 Cycle  13  Pass 1  IDiag  1:
 Density matrix breaks symmetry, PCut= 1.00D-04
 Density matrix has no symmetry -- integrals replicated.
 RMSU=  8.04D-08    CP:  1.01D+00  3.00D+00  1.01D-01  1.07D+00  1.69D+00
                    CP:  1.70D+00  1.42D+00  9.10D-01 -3.00D+00 -3.00D+00
                    CP:  3.00D+00  1.05D+00
 CoulSu:  requested number of processors reduced to:   7 ShMem   1 Linda.
 E= -4361.92369698173     Delta-E=       -0.000000000038 Rises=F Damp=F
 DIIS: error= 6.30D-06 at cycle  13 NSaved=  13.
 NSaved=13 IEnMin=10 EnMin= -4361.92369699781     IErMin=13 ErrMin= 6.30D-06
 ErrMax= 6.30D-06  0.00D+00 EMaxC= 1.00D-01 BMatC= 5.64D-09 BMatP= 5.65D-09
 IDIUse=1 WtCom= 1.00D+00 WtEn= 0.00D+00
 Coeff-Com:  0.128D-04-0.122D-04 0.111D-04-0.136D-03-0.117D-02 0.286D-02
 Coeff-Com:  0.161D-02 0.868D-01-0.335D+00 0.744D+00-0.104D+01 0.512D+01
 Coeff-Com: -0.358D+01
 Coeff:      0.128D-04-0.122D-04 0.111D-04-0.136D-03-0.117D-02 0.286D-02
 Coeff:      0.161D-02 0.868D-01-0.335D+00 0.744D+00-0.104D+01 0.512D+01
 Coeff:     -0.358D+01
 Gap=     0.177 Goal=   None    Shift=    0.000
 Gap=     0.185 Goal=   None    Shift=    0.000
 RMSDP=1.87D-07 MaxDP=7.43D-06 DE=-3.82D-11 OVMax= 1.30D-05

 Cycle  14  Pass 1  IDiag  1:
 Density matrix breaks symmetry, PCut= 1.00D-04
 Density matrix has no symmetry -- integrals replicated.
 RMSU=  1.22D-07    CP:  1.01D+00  3.00D+00  1.01D-01  1.07D+00  1.69D+00
                    CP:  1.70D+00  1.42D+00  9.09D-01 -3.00D+00 -3.00D+00
                    CP:  3.00D+00  1.04D+00 -6.87D-01
 CoulSu:  requested number of processors reduced to:   7 ShMem   1 Linda.
 E= -4361.92369698169     Delta-E=        0.000000000037 Rises=F Damp=F
 DIIS: error= 6.28D-06 at cycle  14 NSaved=  14.
 NSaved=14 IEnMin=10 EnMin= -4361.92369699781     IErMin=14 ErrMin= 6.28D-06
 ErrMax= 6.28D-06  0.00D+00 EMaxC= 1.00D-01 BMatC= 5.60D-09 BMatP= 5.64D-09
 IDIUse=1 WtCom= 1.00D+00 WtEn= 0.00D+00
 Large coefficients: NSaved= 14 BigCof=   22.49 CofMax=   10.00 Det=-2.95D-13
 Inversion failed.  Reducing to 13 matrices.
 Large coefficients: NSaved= 13 BigCof=   22.40 CofMax=   10.00 Det=-2.95D-13
 Inversion failed.  Reducing to 12 matrices.
 Large coefficients: NSaved= 12 BigCof=   22.24 CofMax=   10.00 Det=-3.13D-13
 Inversion failed.  Reducing to 11 matrices.
 Large coefficients: NSaved= 11 BigCof=   21.28 CofMax=   10.00 Det=-3.35D-13
 Inversion failed.  Reducing to 10 matrices.
 Large coefficients: NSaved= 10 BigCof=   17.81 CofMax=   10.00 Det=-7.10D-13
 Inversion failed.  Reducing to  9 matrices.
 Large coefficients: NSaved=  9 BigCof=   15.42 CofMax=   10.00 Det=-1.47D-12
 Inversion failed.  Reducing to  8 matrices.
 Large coefficients: NSaved=  8 BigCof=   14.93 CofMax=   10.00 Det=-1.58D-12
 Inversion failed.  Reducing to  7 matrices.
 Large coefficients: NSaved=  7 BigCof=   14.19 CofMax=   10.00 Det=-1.58D-12
 Inversion failed.  Reducing to  6 matrices.
 Large coefficients: NSaved=  6 BigCof=   13.10 CofMax=   10.00 Det=-1.70D-12
 Inversion failed.  Reducing to  5 matrices.
 Large coefficients: NSaved=  5 BigCof=   13.08 CofMax=   10.00 Det=-1.70D-12
 Inversion failed.  Reducing to  4 matrices.
 Large coefficients: NSaved=  4 BigCof=   12.55 CofMax=   10.00 Det=-1.73D-12
 Inversion failed.  Reducing to  3 matrices.
 Large coefficients: NSaved=  3 BigCof=   12.51 CofMax=   10.00 Det=-1.74D-12
 Inversion failed.  Reducing to  2 matrices.
 Large coefficients: NSaved=  2 BigCof=   12.49 CofMax=   10.00 Det=-1.74D-12
 Coeff-Com: -0.115D+02 0.125D+02
 Coeff:     -0.115D+02 0.125D+02
 Gap=     0.177 Goal=   None    Shift=    0.000
 Gap=     0.185 Goal=   None    Shift=    0.000
 RMSDP=2.00D-06 MaxDP=8.17D-05 DE= 3.73D-11 OVMax= 1.73D-04

 Cycle  15  Pass 1  IDiag  1:
 Density matrix breaks symmetry, PCut= 1.00D-04
 Density matrix has no symmetry -- integrals replicated.
 RMSU=  1.69D-06    CP:  1.01D+00  3.00D+00  1.01D-01  1.07D+00  1.69D+00
                    CP:  1.70D+00  1.42D+00  9.06D-01 -3.00D+00 -3.00D+00
                    CP:  3.00D+00  1.02D+00 -3.00D+00  3.00D+00
 CoulSu:  requested number of processors reduced to:   7 ShMem   1 Linda.
 E= -4361.92369698122     Delta-E=        0.000000000470 Rises=F Damp=F
 DIIS: error= 5.90D-06 at cycle  15 NSaved=   3.
 NSaved= 3 IEnMin= 1 EnMin= -4361.92369698173     IErMin= 3 ErrMin= 5.90D-06
 ErrMax= 5.90D-06  0.00D+00 EMaxC= 1.00D-01 BMatC= 5.14D-09 BMatP= 5.60D-09
 IDIUse=1 WtCom= 1.00D+00 WtEn= 0.00D+00
 Large coefficients: NSaved=  3 BigCof=   12.29 CofMax=   10.00 Det=-4.61D-13
 Inversion failed.  Reducing to  2 matrices.
 Coeff-Com: -0.750D+00 0.175D+01
 Coeff:     -0.750D+00 0.175D+01
 Gap=     0.177 Goal=   None    Shift=    0.000
 Gap=     0.185 Goal=   None    Shift=    0.000
 RMSDP=1.39D-06 MaxDP=5.70D-05 DE= 4.70D-10 OVMax= 1.22D-04

 Cycle  16  Pass 1  IDiag  1:
 Density matrix breaks symmetry, PCut= 1.00D-04
 Density matrix has no symmetry -- integrals replicated.
 RMSU=  9.86D-08    CP:  1.01D+00  3.00D+00  1.01D-01  1.07D+00  1.69D+00
                    CP:  1.70D+00  1.42D+00  9.10D-01 -3.00D+00 -3.00D+00
                    CP:  3.00D+00  1.00D+00 -3.00D+00  3.00D+00  1.82D+00
 CoulSu:  requested number of processors reduced to:   7 ShMem   1 Linda.
 E= -4361.92369698078     Delta-E=        0.000000000440 Rises=F Damp=F
 DIIS: error= 6.03D-06 at cycle  16 NSaved=   3.
 NSaved= 3 IEnMin= 1 EnMin= -4361.92369698169     IErMin= 2 ErrMin= 5.90D-06
 ErrMax= 6.03D-06  0.00D+00 EMaxC= 1.00D-01 BMatC= 4.84D-09 BMatP= 5.14D-09
 IDIUse=1 WtCom= 1.00D+00 WtEn= 0.00D+00
 Coeff-Com: -0.230D+00 0.479D-01 0.118D+01
 Coeff:     -0.230D+00 0.479D-01 0.118D+01
 Gap=     0.177 Goal=   None    Shift=    0.000
 Gap=     0.185 Goal=   None    Shift=    0.000
 RMSDP=6.16D-07 MaxDP=2.48D-05 DE= 4.40D-10 OVMax= 5.32D-05

 Cycle  17  Pass 1  IDiag  1:
 Density matrix breaks symmetry, PCut= 1.00D-04
 Density matrix has no symmetry -- integrals replicated.
 RMSU=  3.98D-08    CP:  1.01D+00  3.00D+00  1.01D-01  1.07D+00  1.69D+00
                    CP:  1.70D+00  1.42D+00  9.15D-01 -3.00D+00 -3.00D+00
                    CP:  3.00D+00  9.89D-01 -3.00D+00  3.00D+00  2.17D+00
                    CP:  1.74D+00
 CoulSu:  requested number of processors reduced to:   7 ShMem   1 Linda.
 E= -4361.92369698059     Delta-E=        0.000000000186 Rises=F Damp=F
 DIIS: error= 6.07D-06 at cycle  17 NSaved=   4.
 NSaved= 4 IEnMin= 1 EnMin= -4361.92369698169     IErMin= 2 ErrMin= 5.90D-06
 ErrMax= 6.07D-06  0.00D+00 EMaxC= 1.00D-01 BMatC= 4.63D-09 BMatP= 4.84D-09
 IDIUse=1 WtCom= 1.00D+00 WtEn= 0.00D+00
 Large coefficients: NSaved=  4 BigCof=   16.62 CofMax=   10.00 Det=-5.91D-12
 Inversion failed.  Reducing to  3 matrices.
 Coeff-Com: -0.206D+00 0.319D+00 0.886D+00
 Coeff:     -0.206D+00 0.319D+00 0.886D+00
 Gap=     0.177 Goal=   None    Shift=    0.000
 Gap=     0.185 Goal=   None    Shift=    0.000
 RMSDP=5.25D-07 MaxDP=2.11D-05 DE= 1.86D-10 OVMax= 4.53D-05

 Cycle  18  Pass 1  IDiag  1:
 Density matrix breaks symmetry, PCut= 1.00D-04
 Density matrix has no symmetry -- integrals replicated.
 RMSU=  1.84D-08    CP:  1.01D+00  3.00D+00  1.01D-01  1.07D+00  1.69D+00
                    CP:  1.70D+00  1.42D+00  9.17D-01 -3.00D+00 -3.00D+00
                    CP:  3.00D+00  9.76D-01 -3.00D+00  3.00D+00  2.47D+00
                    CP:  2.33D+00  2.09D+00
 CoulSu:  requested number of processors reduced to:   7 ShMem   1 Linda.
 E= -4361.92369698043     Delta-E=        0.000000000165 Rises=F Damp=F
 DIIS: error= 6.10D-06 at cycle  18 NSaved=   4.
 NSaved= 4 IEnMin= 1 EnMin= -4361.92369698169     IErMin= 2 ErrMin= 6.03D-06
 ErrMax= 6.10D-06  0.00D+00 EMaxC= 1.00D-01 BMatC= 4.42D-09 BMatP= 4.63D-09
 IDIUse=1 WtCom= 1.00D+00 WtEn= 0.00D+00
 Large coefficients: NSaved=  4 BigCof=   24.41 CofMax=   10.00 Det=-5.65D-12
 Inversion failed.  Reducing to  3 matrices.
 Coeff-Com: -0.131D+00 0.153D+00 0.978D+00
 Coeff:     -0.131D+00 0.153D+00 0.978D+00
 Gap=     0.177 Goal=   None    Shift=    0.000
 Gap=     0.185 Goal=   None    Shift=    0.000
 RMSDP=4.09D-07 MaxDP=1.62D-05 DE= 1.65D-10 OVMax= 3.50D-05

 Cycle  19  Pass 1  IDiag  1:
 Density matrix breaks symmetry, PCut= 1.00D-04
 Density matrix has no symmetry -- integrals replicated.
 RMSU=  3.03D-08    CP:  1.01D+00  3.00D+00  1.01D-01  1.07D+00  1.69D+00
                    CP:  1.70D+00  1.42D+00  9.21D-01 -3.00D+00 -3.00D+00
                    CP:  3.00D+00  9.62D-01 -3.00D+00  3.00D+00  2.70D+00
                    CP:  2.88D+00  3.00D+00  2.10D+00
 CoulSu:  requested number of processors reduced to:   7 ShMem   1 Linda.
 E= -4361.92369698030     Delta-E=        0.000000000132 Rises=F Damp=F
 DIIS: error= 6.08D-06 at cycle  19 NSaved=   4.
 NSaved= 4 IEnMin= 1 EnMin= -4361.92369698169     IErMin= 2 ErrMin= 6.07D-06
 ErrMax= 6.08D-06  0.00D+00 EMaxC= 1.00D-01 BMatC= 4.22D-09 BMatP= 4.42D-09
 IDIUse=1 WtCom= 1.00D+00 WtEn= 0.00D+00
 Large coefficients: NSaved=  4 BigCof=   29.46 CofMax=   10.00 Det=-6.81D-12
 Inversion failed.  Reducing to  3 matrices.
 Coeff-Com: -0.433D-01-0.204D+00 0.125D+01
 Coeff:     -0.433D-01-0.204D+00 0.125D+01
 Gap=     0.177 Goal=   None    Shift=    0.000
 Gap=     0.185 Goal=   None    Shift=    0.000
 RMSDP=2.26D-07 MaxDP=7.41D-06 DE= 1.32D-10 OVMax= 1.69D-05

 Cycle  20  Pass 1  IDiag  1:
 Density matrix breaks symmetry, PCut= 1.00D-04
 Density matrix has no symmetry -- integrals replicated.
 RMSU=  5.12D-08    CP:  1.01D+00  3.00D+00  1.01D-01  1.07D+00  1.69D+00
                    CP:  1.70D+00  1.42D+00  9.24D-01 -3.00D+00 -3.00D+00
                    CP:  3.00D+00  9.47D-01 -3.00D+00  3.00D+00  2.80D+00
                    CP:  3.00D+00  3.00D+00  3.00D+00  3.00D+00
 CoulSu:  requested number of processors reduced to:   7 ShMem   1 Linda.
 E= -4361.92369698029     Delta-E=        0.000000000006 Rises=F Damp=F
 DIIS: error= 5.98D-06 at cycle  20 NSaved=   4.
 NSaved= 4 IEnMin= 1 EnMin= -4361.92369698169     IErMin= 4 ErrMin= 5.98D-06
 ErrMax= 5.98D-06  0.00D+00 EMaxC= 1.00D-01 BMatC= 4.04D-09 BMatP= 4.22D-09
 IDIUse=1 WtCom= 1.00D+00 WtEn= 0.00D+00
 Large coefficients: NSaved=  4 BigCof=   24.52 CofMax=   10.00 Det=-6.35D-12
 Inversion failed.  Reducing to  3 matrices.
 Coeff-Com: -0.660D-01 0.414D-01 0.102D+01
 Coeff:     -0.660D-01 0.414D-01 0.102D+01
 Gap=     0.177 Goal=   None    Shift=    0.000
 Gap=     0.185 Goal=   None    Shift=    0.000
 RMSDP=2.59D-07 MaxDP=8.90D-06 DE= 6.37D-12 OVMax= 1.96D-05

 Cycle  21  Pass 1  IDiag  1:
 Density matrix breaks symmetry, PCut= 1.00D-04
 Density matrix has no symmetry -- integrals replicated.
 Restarting incremental Fock formation.
 CoulSu:  requested number of processors reduced to:   7 ShMem   1 Linda.
 E= -4361.92369698026     Delta-E=        0.000000000034 Rises=F Damp=F
 DIIS: error= 5.90D-06 at cycle  21 NSaved=   4.
 NSaved= 4 IEnMin= 1 EnMin= -4361.92369698169     IErMin= 4 ErrMin= 5.90D-06
 ErrMax= 5.90D-06  0.00D+00 EMaxC= 1.00D-01 BMatC= 3.86D-09 BMatP= 4.04D-09
 IDIUse=1 WtCom= 1.00D+00 WtEn= 0.00D+00
 Large coefficients: NSaved=  4 BigCof=   23.33 CofMax=   10.00 Det=-6.73D-12
 Inversion failed.  Reducing to  3 matrices.
 Coeff-Com: -0.828D-01 0.265D+00 0.817D+00
 Coeff:     -0.828D-01 0.265D+00 0.817D+00
 Gap=     0.177 Goal=   None    Shift=    0.000
 Gap=     0.185 Goal=   None    Shift=    0.000
 RMSDP=2.99D-07 MaxDP=1.11D-05 DE= 3.37D-11 OVMax= 2.39D-05

 Cycle  22  Pass 1  IDiag  1:
 Density matrix breaks symmetry, PCut= 1.00D-04
 Density matrix has no symmetry -- integrals replicated.
 RMSU=  2.98D-07    CP:  1.00D+00
 CoulSu:  requested number of processors reduced to:   7 ShMem   1 Linda.
 E= -4361.92369698019     Delta-E=        0.000000000063 Rises=F Damp=F
 DIIS: error= 5.84D-06 at cycle  22 NSaved=   4.
 NSaved= 4 IEnMin= 1 EnMin= -4361.92369698169     IErMin= 4 ErrMin= 5.84D-06
 ErrMax= 5.84D-06  0.00D+00 EMaxC= 1.00D-01 BMatC= 3.67D-09 BMatP= 3.86D-09
 IDIUse=1 WtCom= 1.00D+00 WtEn= 0.00D+00
 Large coefficients: NSaved=  4 BigCof=   25.54 CofMax=   10.00 Det=-6.65D-12
 Inversion failed.  Reducing to  3 matrices.
 Coeff-Com: -0.539D-01 0.708D-01 0.983D+00
 Coeff:     -0.539D-01 0.708D-01 0.983D+00
 Gap=     0.177 Goal=   None    Shift=    0.000
 Gap=     0.185 Goal=   None    Shift=    0.000
 RMSDP=2.21D-07 MaxDP=7.11D-06 DE= 6.28D-11 OVMax= 1.60D-05

 Cycle  23  Pass 1  IDiag  1:
 Density matrix breaks symmetry, PCut= 1.00D-04
 Density matrix has no symmetry -- integrals replicated.
 RMSU=  1.22D-07    CP:  1.00D+00  1.62D+00
 CoulSu:  requested number of processors reduced to:   7 ShMem   1 Linda.
 E= -4361.92369698020     Delta-E=       -0.000000000005 Rises=F Damp=F
 DIIS: error= 5.74D-06 at cycle  23 NSaved=   4.
 NSaved= 4 IEnMin= 1 EnMin= -4361.92369698169     IErMin= 4 ErrMin= 5.74D-06
 ErrMax= 5.74D-06  0.00D+00 EMaxC= 1.00D-01 BMatC= 3.49D-09 BMatP= 3.67D-09
 IDIUse=1 WtCom= 1.00D+00 WtEn= 0.00D+00
 Large coefficients: NSaved=  4 BigCof=   25.16 CofMax=   10.00 Det=-8.58D-12
 Inversion failed.  Reducing to  3 matrices.
 Coeff-Com: -0.163D-01-0.243D+00 0.126D+01
 Coeff:     -0.163D-01-0.243D+00 0.126D+01
 Gap=     0.177 Goal=   None    Shift=    0.000
 Gap=     0.185 Goal=   None    Shift=    0.000
 RMSDP=1.80D-07 MaxDP=6.84D-06 DE=-4.55D-12 OVMax= 1.14D-05

 Cycle  24  Pass 1  IDiag  1:
 Density matrix breaks symmetry, PCut= 1.00D-04
 Density matrix has no symmetry -- integrals replicated.
 RMSU=  1.48D-07    CP:  1.00D+00  1.94D+00  1.22D+00
 CoulSu:  requested number of processors reduced to:   7 ShMem   1 Linda.
 E= -4361.92369698029     Delta-E=       -0.000000000088 Rises=F Damp=F
 DIIS: error= 5.58D-06 at cycle  24 NSaved=   4.
 NSaved= 4 IEnMin= 1 EnMin= -4361.92369698169     IErMin= 4 ErrMin= 5.58D-06
 ErrMax= 5.58D-06  0.00D+00 EMaxC= 1.00D-01 BMatC= 3.33D-09 BMatP= 3.49D-09
 IDIUse=1 WtCom= 1.00D+00 WtEn= 0.00D+00
 Large coefficients: NSaved=  4 BigCof=   19.79 CofMax=   10.00 Det=-7.64D-12
 Inversion failed.  Reducing to  3 matrices.
 Coeff-Com: -0.377D-01 0.866D-01 0.951D+00
 Coeff:     -0.377D-01 0.866D-01 0.951D+00
 Gap=     0.177 Goal=   None    Shift=    0.000
 DSYEVD-2 returned Info=         155 IAlg= 4 N=    77 NDim=    77 NE2=     1361336 trying  DSYEV.
 Gap=     0.185 Goal=   None    Shift=    0.000
 RMSDP=2.00D-07 MaxDP=5.83D-06 DE=-8.82D-11 OVMax= 1.16D-05

 Cycle  25  Pass 1  IDiag  1:
 Density matrix breaks symmetry, PCut= 1.00D-04
 Density matrix has no symmetry -- integrals replicated.
 RMSU=  1.22D-08    CP:  1.00D+00  2.36D+00  2.48D+00  1.14D+00
 CoulSu:  requested number of processors reduced to:   7 ShMem   1 Linda.
 E= -4361.92369698033     Delta-E=       -0.000000000047 Rises=F Damp=F
 DIIS: error= 5.47D-06 at cycle  25 NSaved=   4.
 NSaved= 4 IEnMin= 1 EnMin= -4361.92369698169     IErMin= 4 ErrMin= 5.47D-06
 ErrMax= 5.47D-06  0.00D+00 EMaxC= 1.00D-01 BMatC= 3.17D-09 BMatP= 3.33D-09
 IDIUse=1 WtCom= 1.00D+00 WtEn= 0.00D+00
 Large coefficients: NSaved=  4 BigCof=   18.12 CofMax=   10.00 Det=-8.37D-12
 Inversion failed.  Reducing to  3 matrices.
 Coeff-Com: -0.460D-01 0.254D+00 0.792D+00
 Coeff:     -0.460D-01 0.254D+00 0.792D+00
 Gap=     0.177 Goal=   None    Shift=    0.000
 Gap=     0.185 Goal=   None    Shift=    0.000
 RMSDP=2.08D-07 MaxDP=6.04D-06 DE=-4.73D-11 OVMax= 1.36D-05

 Cycle  26  Pass 1  IDiag  1:
 Density matrix breaks symmetry, PCut= 1.00D-04
 Density matrix has no symmetry -- integrals replicated.
 RMSU=  4.45D-10    CP:  1.00D+00  2.99D+00  2.65D+00  1.70D+00  2.39D+00
 CoulSu:  requested number of processors reduced to:   7 ShMem   1 Linda.
 E= -4361.92369698037     Delta-E=       -0.000000000034 Rises=F Damp=F
 DIIS: error= 5.37D-06 at cycle  26 NSaved=   4.
 NSaved= 4 IEnMin= 1 EnMin= -4361.92369698169     IErMin= 4 ErrMin= 5.37D-06
 ErrMax= 5.37D-06  0.00D+00 EMaxC= 1.00D-01 BMatC= 3.00D-09 BMatP= 3.17D-09
 IDIUse=1 WtCom= 1.00D+00 WtEn= 0.00D+00
 Large coefficients: NSaved=  4 BigCof=   21.94 CofMax=   10.00 Det=-8.13D-12
 Inversion failed.  Reducing to  3 matrices.
 Coeff-Com: -0.239D-01 0.110D-01 0.101D+01
 Coeff:     -0.239D-01 0.110D-01 0.101D+01
 Gap=     0.177 Goal=   None    Shift=    0.000
 Gap=     0.185 Goal=   None    Shift=    0.000
 RMSDP=1.82D-07 MaxDP=7.21D-06 DE=-3.37D-11 OVMax= 1.16D-05

 Cycle  27  Pass 1  IDiag  1:
 Density matrix breaks symmetry, PCut= 1.00D-04
 Density matrix has no symmetry -- integrals replicated.
 RMSU=  1.20D-07    CP:  1.00D+00  3.00D+00  3.00D+00  2.29D+00  3.00D+00
                    CP:  9.83D-01
 CoulSu:  requested number of processors reduced to:   7 ShMem   1 Linda.
 E= -4361.92369698045     Delta-E=       -0.000000000087 Rises=F Damp=F
 DIIS: error= 5.24D-06 at cycle  27 NSaved=   4.
 NSaved= 4 IEnMin= 1 EnMin= -4361.92369698169     IErMin= 4 ErrMin= 5.24D-06
 ErrMax= 5.24D-06  0.00D+00 EMaxC= 1.00D-01 BMatC= 2.85D-09 BMatP= 3.00D-09
 IDIUse=1 WtCom= 1.00D+00 WtEn= 0.00D+00
 Large coefficients: NSaved=  4 BigCof=   19.41 CofMax=   10.00 Det=-1.01D-11
 Inversion failed.  Reducing to  3 matrices.
 Coeff-Com: -0.304D-02-0.242D+00 0.125D+01
 Coeff:     -0.304D-02-0.242D+00 0.125D+01
 Gap=     0.177 Goal=   None    Shift=    0.000
 Gap=     0.185 Goal=   None    Shift=    0.000
 RMSDP=2.27D-07 MaxDP=8.88D-06 DE=-8.73D-11 OVMax= 1.83D-05

 Cycle  28  Pass 1  IDiag  1:
 Density matrix breaks symmetry, PCut= 1.00D-04
 Density matrix has no symmetry -- integrals replicated.
 RMSU=  1.17D-07    CP:  1.00D+00  3.00D+00  3.00D+00  3.00D+00  3.00D+00
                    CP:  1.66D-01  1.44D+00
 CoulSu:  requested number of processors reduced to:   7 ShMem   1 Linda.
 E= -4361.92369698062     Delta-E=       -0.000000000163 Rises=F Damp=F
 DIIS: error= 5.07D-06 at cycle  28 NSaved=   4.
 NSaved= 4 IEnMin= 1 EnMin= -4361.92369698169     IErMin= 4 ErrMin= 5.07D-06
 ErrMax= 5.07D-06  0.00D+00 EMaxC= 1.00D-01 BMatC= 2.71D-09 BMatP= 2.85D-09
 IDIUse=1 WtCom= 1.00D+00 WtEn= 0.00D+00
 Large coefficients: NSaved=  4 BigCof=   15.29 CofMax=   10.00 Det=-8.56D-12
 Inversion failed.  Reducing to  3 matrices.
 Coeff-Com: -0.202D-01 0.132D+00 0.888D+00
 Coeff:     -0.202D-01 0.132D+00 0.888D+00
 Gap=     0.177 Goal=   None    Shift=    0.000
 Gap=     0.185 Goal=   None    Shift=    0.000
 RMSDP=1.91D-07 MaxDP=7.16D-06 DE=-1.63D-10 OVMax= 1.12D-05

 Cycle  29  Pass 1  IDiag  1:
 Density matrix breaks symmetry, PCut= 1.00D-04
 Density matrix has no symmetry -- integrals replicated.
 RMSU=  3.99D-08    CP:  1.00D+00  3.00D+00  3.00D+00  3.00D+00  3.00D+00
                    CP: -7.64D-01  2.83D+00  1.68D+00
 CoulSu:  requested number of processors reduced to:   7 ShMem   1 Linda.
 E= -4361.92369698074     Delta-E=       -0.000000000123 Rises=F Damp=F
 DIIS: error= 4.96D-06 at cycle  29 NSaved=   4.
 NSaved= 4 IEnMin= 1 EnMin= -4361.92369698169     IErMin= 4 ErrMin= 4.96D-06
 ErrMax= 4.96D-06  0.00D+00 EMaxC= 1.00D-01 BMatC= 2.58D-09 BMatP= 2.71D-09
 IDIUse=1 WtCom= 1.00D+00 WtEn= 0.00D+00
 Large coefficients: NSaved=  4 BigCof=   13.64 CofMax=   10.00 Det=-9.32D-12
 Inversion failed.  Reducing to  3 matrices.
 Coeff-Com: -0.223D-01 0.242D+00 0.781D+00
 Coeff:     -0.223D-01 0.242D+00 0.781D+00
 Gap=     0.177 Goal=   None    Shift=    0.000
 Gap=     0.185 Goal=   None    Shift=    0.000
 RMSDP=1.85D-07 MaxDP=7.31D-06 DE=-1.23D-10 OVMax= 1.14D-05

 Cycle  30  Pass 1  IDiag  1:
 Density matrix breaks symmetry, PCut= 1.00D-04
 Density matrix has no symmetry -- integrals replicated.
 RMSU=  7.83D-08    CP:  1.00D+00  3.00D+00  3.00D+00  3.00D+00  3.00D+00
                    CP: -1.10D+00  3.00D+00  2.88D+00 -6.71D-01
 CoulSu:  requested number of processors reduced to:   7 ShMem   1 Linda.
 E= -4361.92369698086     Delta-E=       -0.000000000124 Rises=F Damp=F
 DIIS: error= 4.85D-06 at cycle  30 NSaved=   4.
 NSaved= 4 IEnMin= 1 EnMin= -4361.92369698169     IErMin= 4 ErrMin= 4.85D-06
 ErrMax= 4.85D-06  0.00D+00 EMaxC= 1.00D-01 BMatC= 2.45D-09 BMatP= 2.58D-09
 IDIUse=1 WtCom= 1.00D+00 WtEn= 0.00D+00
 Large coefficients: NSaved=  4 BigCof=   17.30 CofMax=   10.00 Det=-9.31D-12
 Inversion failed.  Reducing to  3 matrices.
 Coeff-Com: -0.561D-02-0.463D-01 0.105D+01
 Coeff:     -0.561D-02-0.463D-01 0.105D+01
 Gap=     0.177 Goal=   None    Shift=    0.000
 Gap=     0.185 Goal=   None    Shift=    0.000
 RMSDP=2.23D-07 MaxDP=9.08D-06 DE=-1.24D-10 OVMax= 1.75D-05

 Cycle  31  Pass 1  IDiag  1:
 Density matrix breaks symmetry, PCut= 1.00D-04
 Density matrix has no symmetry -- integrals replicated.
 RMSU=  1.60D-07    CP:  1.00D+00  3.00D+00  3.00D+00  3.00D+00  3.00D+00
                    CP: -2.66D+00  3.00D+00  3.00D+00  1.03D+00  2.55D+00
 CoulSu:  requested number of processors reduced to:   7 ShMem   1 Linda.
 E= -4361.92369698105     Delta-E=       -0.000000000186 Rises=F Damp=F
 DIIS: error= 4.71D-06 at cycle  31 NSaved=   4.
 NSaved= 4 IEnMin= 1 EnMin= -4361.92369698169     IErMin= 4 ErrMin= 4.71D-06
 ErrMax= 4.71D-06  0.00D+00 EMaxC= 1.00D-01 BMatC= 2.34D-09 BMatP= 2.45D-09
 IDIUse=1 WtCom= 1.00D+00 WtEn= 0.00D+00
 Large coefficients: NSaved=  4 BigCof=   13.33 CofMax=   10.00 Det=-1.11D-11
 Inversion failed.  Reducing to  3 matrices.
 Coeff-Com:  0.556D-02-0.212D+00 0.121D+01
 Coeff:      0.556D-02-0.212D+00 0.121D+01
 Gap=     0.177 Goal=   None    Shift=    0.000
 Gap=     0.185 Goal=   None    Shift=    0.000
 RMSDP=2.86D-07 MaxDP=1.05D-05 DE=-1.86D-10 OVMax= 2.03D-05

 Cycle  32  Pass 1  IDiag  1:
 Density matrix breaks symmetry, PCut= 1.00D-04
 Density matrix has no symmetry -- integrals replicated.
 RMSU=  2.89D-08    CP:  1.00D+00  3.00D+00  3.00D+00  3.00D+00  3.00D+00
                    CP: -3.00D+00  3.00D+00  3.00D+00  1.77D+00  3.00D+00
                    CP:  2.74D+00
 CoulSu:  requested number of processors reduced to:   7 ShMem   1 Linda.
 E= -4361.92369698131     Delta-E=       -0.000000000260 Rises=F Damp=F
 DIIS: error= 4.59D-06 at cycle  32 NSaved=   4.
 NSaved= 4 IEnMin= 1 EnMin= -4361.92369698169     IErMin= 4 ErrMin= 4.59D-06
 ErrMax= 4.59D-06  0.00D+00 EMaxC= 1.00D-01 BMatC= 2.24D-09 BMatP= 2.34D-09
 IDIUse=1 WtCom= 1.00D+00 WtEn= 0.00D+00
 Large coefficients: NSaved=  4 BigCof=   10.22 CofMax=   10.00 Det=-9.40D-12
 Inversion failed.  Reducing to  3 matrices.
 Coeff-Com: -0.618D-02 0.179D+00 0.827D+00
 Coeff:     -0.618D-02 0.179D+00 0.827D+00
 Gap=     0.177 Goal=   None    Shift=    0.000
 Gap=     0.185 Goal=   None    Shift=    0.000
 RMSDP=2.07D-07 MaxDP=8.08D-06 DE=-2.60D-10 OVMax= 1.57D-05

 Cycle  33  Pass 1  IDiag  1:
 Density matrix breaks symmetry, PCut= 1.00D-04
 Density matrix has no symmetry -- integrals replicated.
 RMSU=  1.70D-07    CP:  1.00D+00  3.00D+00  3.00D+00  3.00D+00  3.00D+00
                    CP: -3.00D+00  3.00D+00  3.00D+00  3.00D+00  3.00D+00
                    CP:  3.00D+00  1.26D+00
 CoulSu:  requested number of processors reduced to:   7 ShMem   1 Linda.
 E= -4361.92369698149     Delta-E=       -0.000000000183 Rises=F Damp=F
 DIIS: error= 4.60D-06 at cycle  33 NSaved=   4.
 NSaved= 4 IEnMin= 1 EnMin= -4361.92369698169     IErMin= 3 ErrMin= 4.59D-06
 ErrMax= 4.60D-06  0.00D+00 EMaxC= 1.00D-01 BMatC= 2.15D-09 BMatP= 2.24D-09
 IDIUse=1 WtCom= 1.00D+00 WtEn= 0.00D+00
 Coeff-Com:  0.271D+00-0.847D+01 0.794D+00 0.841D+01
 Coeff:      0.271D+00-0.847D+01 0.794D+00 0.841D+01
 Gap=     0.177 Goal=   None    Shift=    0.000
 DSYEVD-2 returned Info=         155 IAlg= 4 N=    77 NDim=    77 NE2=     1361336 trying  DSYEV.
 Gap=     0.185 Goal=   None    Shift=    0.000
 RMSDP=4.47D-06 MaxDP=1.45D-04 DE=-1.83D-10 OVMax= 3.60D-04

 Cycle  34  Pass 1  IDiag  1:
 Density matrix breaks symmetry, PCut= 1.00D-04
 Density matrix has no symmetry -- integrals replicated.
 RMSU=  3.91D-06    CP:  1.00D+00 -1.60D+00  3.00D+00  3.00D+00  3.00D+00
                    CP: -3.00D+00  3.00D+00  3.00D+00  3.00D+00  3.00D+00
                    CP:  3.00D+00  3.00D+00  3.00D+00
 CoulSu:  requested number of processors reduced to:   7 ShMem   1 Linda.
 E= -4361.92369698681     Delta-E=       -0.000000005321 Rises=F Damp=F
 DIIS: error= 3.85D-06 at cycle  34 NSaved=   5.
 NSaved= 5 IEnMin= 5 EnMin= -4361.92369698681     IErMin= 5 ErrMin= 3.85D-06
 ErrMax= 3.85D-06  0.00D+00 EMaxC= 1.00D-01 BMatC= 1.56D-09 BMatP= 2.15D-09
 IDIUse=1 WtCom= 1.00D+00 WtEn= 0.00D+00
 Large coefficients: NSaved=  5 BigCof=  181.11 CofMax=   10.00 Det=-4.71D-14
 Inversion failed.  Reducing to  4 matrices.
 Coeff-Com:  0.130D-01 0.779D-01 0.721D-01 0.837D+00
 Coeff:      0.130D-01 0.779D-01 0.721D-01 0.837D+00
 Gap=     0.177 Goal=   None    Shift=    0.000
 Gap=     0.185 Goal=   None    Shift=    0.000
 RMSDP=4.29D-07 MaxDP=1.60D-05 DE=-5.32D-09 OVMax= 3.60D-05

 Cycle  35  Pass 1  IDiag  1:
 Density matrix breaks symmetry, PCut= 1.00D-04
 Density matrix has no symmetry -- integrals replicated.
 RMSU=  1.79D-07    CP:  1.00D+00 -6.44D-01  3.00D+00  3.00D+00  3.00D+00
                    CP: -3.00D+00  3.00D+00  3.00D+00  3.00D+00  3.00D+00
                    CP:  3.00D+00  3.00D+00  3.00D+00  9.32D-01
 CoulSu:  requested number of processors reduced to:   7 ShMem   1 Linda.
 E= -4361.92369698660     Delta-E=        0.000000000210 Rises=F Damp=F
 DIIS: error= 3.96D-06 at cycle  35 NSaved=   5.
 NSaved= 5 IEnMin= 4 EnMin= -4361.92369698681     IErMin= 4 ErrMin= 3.85D-06
 ErrMax= 3.96D-06  0.00D+00 EMaxC= 1.00D-01 BMatC= 1.68D-09 BMatP= 1.56D-09
 IDIUse=1 WtCom= 1.00D+00 WtEn= 0.00D+00
 Large coefficients: NSaved=  5 BigCof=   22.65 CofMax=   10.00 Det=-3.53D-12
 Inversion failed.  Reducing to  4 matrices.
 Large coefficients: NSaved=  4 BigCof=   18.76 CofMax=   10.00 Det=-4.19D-12
 Inversion failed.  Reducing to  3 matrices.
 Coeff-Com:  0.165D+00 0.827D+01-0.744D+01
 Coeff:      0.165D+00 0.827D+01-0.744D+01
 Gap=     0.177 Goal=   None    Shift=    0.000
 Gap=     0.185 Goal=   None    Shift=    0.000
 RMSDP=3.83D-06 MaxDP=1.54D-04 DE= 2.10D-10 OVMax= 3.31D-04

 Cycle  36  Pass 1  IDiag  1:
 Density matrix breaks symmetry, PCut= 1.00D-04
 Density matrix has no symmetry -- integrals replicated.
 RMSU=  2.30D-06    CP:  1.00D+00 -3.00D+00  3.00D+00  3.00D+00  3.00D+00
                    CP: -3.00D+00  3.00D+00  3.00D+00  3.00D+00  3.00D+00
                    CP:  3.00D+00  3.00D+00  3.00D+00  1.49D+00 -3.00D+00
 CoulSu:  requested number of processors reduced to:   7 ShMem   1 Linda.
 E= -4361.92369698707     Delta-E=       -0.000000000467 Rises=F Damp=F
 DIIS: error= 3.82D-06 at cycle  36 NSaved=   4.
 NSaved= 4 IEnMin= 4 EnMin= -4361.92369698707     IErMin= 4 ErrMin= 3.82D-06
 ErrMax= 3.82D-06  0.00D+00 EMaxC= 1.00D-01 BMatC= 1.30D-09 BMatP= 1.56D-09
 IDIUse=1 WtCom= 1.00D+00 WtEn= 0.00D+00
 Large coefficients: NSaved=  4 BigCof=   24.15 CofMax=   10.00 Det=-5.52D-13
 Inversion failed.  Reducing to  3 matrices.
 Coeff-Com:  0.624D+01-0.537D+01 0.129D+00
 Coeff:      0.624D+01-0.537D+01 0.129D+00
 Gap=     0.177 Goal=   None    Shift=    0.000
 Gap=     0.185 Goal=   None    Shift=    0.000
 RMSDP=1.17D-06 MaxDP=4.34D-05 DE=-4.67D-10 OVMax= 8.02D-05

 Cycle  37  Pass 1  IDiag  1:
 Density matrix breaks symmetry, PCut= 1.00D-04
 Density matrix has no symmetry -- integrals replicated.
 RMSU=  1.54D-07    CP:  1.00D+00 -3.00D+00  3.00D+00  3.00D+00  3.00D+00
                    CP: -3.00D+00  3.00D+00  3.00D+00  3.00D+00  3.00D+00
                    CP:  3.00D+00  3.00D+00  3.00D+00  1.57D+00 -3.00D+00
                    CP:  5.19D-01
 CoulSu:  requested number of processors reduced to:   7 ShMem   1 Linda.
 E= -4361.92369698881     Delta-E=       -0.000000001742 Rises=F Damp=F
 DIIS: error= 4.23D-06 at cycle  37 NSaved=   4.
 NSaved= 4 IEnMin= 4 EnMin= -4361.92369698881     IErMin= 3 ErrMin= 3.82D-06
 ErrMax= 4.23D-06  0.00D+00 EMaxC= 1.00D-01 BMatC= 1.47D-09 BMatP= 1.30D-09
 IDIUse=1 WtCom= 1.00D+00 WtEn= 0.00D+00
 Large coefficients: NSaved=  4 BigCof=   32.84 CofMax=   10.00 Det=-5.42D-13
 Inversion failed.  Reducing to  3 matrices.
 Coeff-Com:  0.331D+00 0.137D+01-0.698D+00
 Coeff:      0.331D+00 0.137D+01-0.698D+00
 Gap=     0.177 Goal=   None    Shift=    0.000
 Gap=     0.185 Goal=   None    Shift=    0.000
 RMSDP=1.16D-06 MaxDP=4.69D-05 DE=-1.74D-09 OVMax= 8.57D-05

 Cycle  38  Pass 1  IDiag  1:
 Density matrix breaks symmetry, PCut= 1.00D-04
 Density matrix has no symmetry -- integrals replicated.
 RMSU=  2.80D-07    CP:  1.00D+00 -3.00D+00  3.00D+00  3.00D+00  3.00D+00
                    CP: -3.00D+00  3.00D+00  3.00D+00  3.00D+00  3.00D+00
[...]
                 (?C) (?C) (?C) (?C) (A1G) (?D) (?D) (?D) (?E)
                 (?E) (?E) (?E) (?E) (?D) (?D) (?D) (?D) (?D) (?D)
                 (?D) (T1U) (T1U) (T1U) (?F) (?F) (?F) (?F) (?F)
                 (?F) (?F) (?F) (?F) (?F) (?F) (?F) (?F) (?F) (?F)
                 (?F) (?F) (?F) (?F) (?F) (?F) (?F)
 Beta  Orbitals:
       Occupied  (A1G) (A1G) (T1U) (T1U) (T1U) (A1G) (T1U) (T1U)
                 (T1U) (?A) (?A) (?A) (?A) (?A) (A1G) (T1U) (T1U)
                 (T1U) (?B) (?B)
       Virtual   (A1G) (?B) (?B) (?B) (?C) (?C) (?C) (?B) (?B)
                 (?B) (?B) (?B) (?B) (?C) (?C) (?C) (A1G) (?C)
                 (?C) (?C) (?B) (?B) (?B) (?B) (?B) (?C) (?C) (?C)
                 (?C) (?C) (?C) (?C) (?C) (?C) (?C) (?D) (?D) (?D)
                 (?D) (?D) (?D) (?C) (?C) (?C) (?C) (?C) (?C) (?C)
                 (?D) (?D) (?D) (?D) (?D) (?D) (?D) (?D) (?D)
    24 initial guesses have been made.
 Convergence on wavefunction:    0.001000000000000
 Davidson Disk Diagonalization:  ConvIn= 1.00D-03 SkipCon=T Conv= 1.00D-03.
 Max sub-space:  2000 roots to seek:    24 dimension of matrix:         2412
 Iteration     1 Dimension    24 NMult     0 NNew     24
 Estimated number of processors is:    7
 CISAX will form     3 AO SS matrices at one time.
 NMat=     3 NSing=     3 JSym2X= 2.
 FoFJK:  IHMeth= 1 ICntrl=       0 DoSepK=F KAlg= 0 I1Cent=           0 FoldK=F
 IRaf= 990000000 NMat=       3 IRICut=       1 DoRegI=T DoRafI=F ISym2E= 2 IDoP0=0 IntGTp=1.
 FoFCou: FMM=F IPFlag=           0 FMFlag=      100000 FMFlg1=           0
         NFxFlg=           0 DoJE=F BraDBF=F KetDBF=F FulRan=T
         wScrn=  0.000000 ICntrl=         0 IOpCl=  1 I1Cent=           0 NGrid=           0
         NMat0=    3 NMatS0=      3 NMatT0=    0 NMatD0=    3 NMtDS0=    0 NMtDT0=    0
 Integrals replicated using symmetry in FoFCou.
 CoulSu:  requested number of processors reduced to:   8 ShMem   1 Linda.
 Defaulting to unpruned grid for atomic number  44.
 Defaulting to unpruned grid for atomic number  44.
 Defaulting to unpruned grid for atomic number  44.
 Defaulting to unpruned grid for atomic number  44.
 Defaulting to unpruned grid for atomic number  44.
 Defaulting to unpruned grid for atomic number  44.
 Defaulting to unpruned grid for atomic number  44.
 Defaulting to unpruned grid for atomic number  44.
 Defaulting to unpruned grid for atomic number  44.
 Defaulting to unpruned grid for atomic number  44.
 Defaulting to unpruned grid for atomic number  44.
 Defaulting to unpruned grid for atomic number  44.
 Defaulting to unpruned grid for atomic number  44.
 Defaulting to unpruned grid for atomic number  44.
 Defaulting to unpruned grid for atomic number  44.
 Defaulting to unpruned grid for atomic number  44.
 Defaulting to unpruned grid for atomic number  44.
 Defaulting to unpruned grid for atomic number  44.
 Defaulting to unpruned grid for atomic number  44.
 Defaulting to unpruned grid for atomic number  44.
 Defaulting to unpruned grid for atomic number  44.
 Defaulting to unpruned grid for atomic number  44.
 Defaulting to unpruned grid for atomic number  44.
 Defaulting to unpruned grid for atomic number  44.
 Defaulting to unpruned grid for atomic number  44.
 Defaulting to unpruned grid for atomic number  44.
 Defaulting to unpruned grid for atomic number  44.
 Defaulting to unpruned grid for atomic number  44.
 Defaulting to unpruned grid for atomic number  44.
 Defaulting to unpruned grid for atomic number  44.
 Defaulting to unpruned grid for atomic number  44.
 Defaulting to unpruned grid for atomic number  44.
 Defaulting to unpruned grid for atomic number  44.
 Defaulting to unpruned grid for atomic number  44.
 Defaulting to unpruned grid for atomic number  44.
 Defaulting to unpruned grid for atomic number  44.
 Defaulting to unpruned grid for atomic number  44.
 Defaulting to unpruned grid for atomic number  44.
 Defaulting to unpruned grid for atomic number  44.
 Defaulting to unpruned grid for atomic number  44.
 Defaulting to unpruned grid for atomic number  44.
 Defaulting to unpruned grid for atomic number  44.
 Defaulting to unpruned grid for atomic number  44.
 Defaulting to unpruned grid for atomic number  44.
 Defaulting to unpruned grid for atomic number  44.
 Defaulting to unpruned grid for atomic number  44.
 Defaulting to unpruned grid for atomic number  44.
 Defaulting to unpruned grid for atomic number  44.
 NMat=     3 NSing=     3 JSym2X= 2.
 CoulSu:  requested number of processors reduced to:   8 ShMem   1 Linda.
 NMat=     3 NSing=     3 JSym2X= 2.
 CoulSu:  requested number of processors reduced to:   8 ShMem   1 Linda.
 NMat=     3 NSing=     3 JSym2X= 2.
 CoulSu:  requested number of processors reduced to:   8 ShMem   1 Linda.
 NMat=     3 NSing=     3 JSym2X= 2.
 CoulSu:  requested number of processors reduced to:   8 ShMem   1 Linda.
 NMat=     3 NSing=     3 JSym2X= 2.
 CoulSu:  requested number of processors reduced to:   8 ShMem   1 Linda.
 NMat=     3 NSing=     3 JSym2X= 2.
 CoulSu:  requested number of processors reduced to:   8 ShMem   1 Linda.
 NMat=     3 NSing=     3 JSym2X= 2.
 CoulSu:  requested number of processors reduced to:   8 ShMem   1 Linda.
 New state      1 was old state      8
 Excitation Energies [eV] at current iteration:
 Root      1 :     0.975362804619967
 Root      2 :     1.060239510688518
 Root      3 :     1.070571568043815
 Root      4 :     2.096331496848328
 Root      5 :     2.184434392163336
 Root      6 :     2.196008484557191
 Root      7 :     2.823427975025616
 Root      8 :     2.849975253527199
 Root      9 :     3.310512273696501
 Root     10 :     3.321028512941367
 Root     11 :     3.321960268903086
 Root     12 :     4.853250270066957
 Root     13 :     4.940480037441553
 Root     14 :     4.942084998253633
 Root     15 :     5.049103045311722
 Root     16 :     5.088319037472995
 Root     17 :     5.332023687645212
 Root     18 :     5.377464374225713
 Root     19 :     6.929153769121664
 Root     20 :     6.929174081292198
 Root     21 :     6.929208036727102
 Root     22 :     7.389686733709424
 Root     23 :     7.404662769580863
 Root     24 :     7.406934868277395
 Iteration     2 Dimension    48 NMult    24 NNew     24
 Estimated number of processors is:    7
 CISAX will form     3 AO SS matrices at one time.
 NMat=     3 NSing=     3 JSym2X= 2.
 CoulSu:  requested number of processors reduced to:   8 ShMem   1 Linda.
 NMat=     3 NSing=     3 JSym2X= 2.
 CoulSu:  requested number of processors reduced to:   8 ShMem   1 Linda.
 NMat=     3 NSing=     3 JSym2X= 2.
 CoulSu:  requested number of processors reduced to:   8 ShMem   1 Linda.
 NMat=     3 NSing=     3 JSym2X= 2.
 CoulSu:  requested number of processors reduced to:   8 ShMem   1 Linda.
 NMat=     3 NSing=     3 JSym2X= 2.
 CoulSu:  requested number of processors reduced to:   8 ShMem   1 Linda.
 NMat=     3 NSing=     3 JSym2X= 2.
 CoulSu:  requested number of processors reduced to:   8 ShMem   1 Linda.
 NMat=     3 NSing=     3 JSym2X= 2.
 CoulSu:  requested number of processors reduced to:   8 ShMem   1 Linda.
 NMat=     3 NSing=     3 JSym2X= 2.
 CoulSu:  requested number of processors reduced to:   8 ShMem   1 Linda.
 Root      1 not converged, maximum delta is    0.186673101808395
 Excitation Energies [eV] at current iteration:
 Root      1 :     0.011742668744255   Change is   -0.963620135875712
 Root      2 :     0.030364516072135   Change is   -1.029874994616382
 Root      3 :     0.033473270527731   Change is   -1.037098297516084
 Root      4 :     0.853335068829187   Change is   -1.242996428019141
 Root      5 :     0.867470198544288   Change is   -1.316964193619049
 Root      6 :     0.869766256207793   Change is   -1.326242228349398
 Root      7 :     2.593281945517259   Change is   -0.230146029508356
 Root      8 :     2.608408947035478   Change is   -0.241566306491721
 Root      9 :     3.084530050430720   Change is   -0.225982223265780
 Root     10 :     3.090333063097237   Change is   -0.230695449844130
 Root     11 :     3.090778504793472   Change is   -0.231181764109614
 Root     12 :     4.700504673799879   Change is   -0.387814363673116
 Root     13 :     4.702753078540907   Change is   -0.239331919712726
 Root     14 :     4.706020752282939   Change is   -0.147229517784018
 Root     15 :     4.711506878487761   Change is   -0.228973158953792
 Root     16 :     4.864950518159228   Change is   -0.184152527152495
 Root     17 :     4.982121912766857   Change is   -0.349901774878355
 Root     18 :     5.023988635625775   Change is   -0.353475738599938
 Root     19 :     6.445748539540066   Change is   -0.943938194169358
 Root     20 :     6.446175041495009   Change is   -0.960759826782386
 Root     21 :     6.446359017926151   Change is   -0.958303751654713
 Root     22 :     6.770173290575087   Change is   -0.158980478546577
 Root     23 :     6.771817290820660   Change is   -0.157356790471537
 Root     24 :     6.772054324860175   Change is   -0.157153711866927
 Iteration     3 Dimension    51 NMult    48 NNew      3
 Estimated number of processors is:    7
 CISAX will form     3 AO SS matrices at one time.
 NMat=     3 NSing=     3 JSym2X= 2.
 CoulSu:  requested number of processors reduced to:   8 ShMem   1 Linda.
 Root      1 not converged, maximum delta is    0.011831190426135
 Excitation Energies [eV] at current iteration:
 Root      1 :     0.001747908540443   Change is   -0.009994760203812
 Root      2 :     0.021286261958903   Change is   -0.009078254113233
 Root      3 :     0.024376948080381   Change is   -0.009096322447351
 Iteration     4 Dimension    54 NMult    51 NNew      3
 Estimated number of processors is:    7
 CISAX will form     3 AO SS matrices at one time.
 NMat=     3 NSing=     3 JSym2X= 2.
 CoulSu:  requested number of processors reduced to:   8 ShMem   1 Linda.
 Root      1 has converged.
 Excitation Energies [eV] at current iteration:
 Root      1 :     0.001721235788269   Change is   -0.000026672752174
 Root      2 :     0.021237556762526   Change is   -0.000048705196377
 Root      3 :     0.024325058575791   Change is   -0.000051889504590
 Convergence achieved on expansion vectors.
 ***********************************************************************
 Stability analysis using <AA,BB:AA,BB> singles matrix:
 ***********************************************************************
 1PDM for each excited state written to RWF  633
 Ground to excited state transition densities written to RWF  633

 Eigenvectors of the stability matrix:
 
 Excited state symmetry could not be determined.
 Eigenvector   1:  5.004-?Sym  Eigenvalue= 0.0000633  <S**2>=6.011
     19B -> 23B       -0.15445
     19B -> 24B        0.64354
     19B -> 33B       -0.19461
     20B -> 23B        0.65673
     20B -> 24B        0.18464
     20B -> 32B       -0.19867
 The wavefunction is stable under the perturbations considered.
 Leave Link  914 at Sat Apr 17 00:38:35 2021, MaxMem=   104857600 cpu:            3188.5 elap:             198.2
 (Enter /s/ls4/users/knvvv/bin/g16sse/l508.exe)
 The wavefunction is already stable.
 Leave Link  508 at Sat Apr 17 00:38:35 2021, MaxMem=   104857600 cpu:               2.2 elap:               0.1
 (Enter /s/ls4/users/knvvv/bin/g16sse/l601.exe)
 Copying SCF densities to generalized density rwf, IOpCl= 1 IROHF=0.
 SCF density gives NOpUse=  1 NOpAll= 48.
 Marking SCF density as not fully symmetric.

 **********************************************************************

            Population analysis using the SCF density.

 **********************************************************************

 Orbital symmetries:
 Alpha Orbitals:
       Occupied  (A1G) (A1G) (T1U) (T1U) (T1U) (A1G) (T1U) (T1U)
                 (T1U) (?A) (?A) (?A) (?A) (?A) (A1G) (T1U) (T1U)
                 (T1U) (?B) (?B) (?B) (?B) (?B) (A1G)
       Virtual   (T1U) (T1U) (T1U) (A1G) (T1U) (T1U) (T1U) (?C)
                 (?C) (?C) (?C) (?C) (A1G) (?D) (?D) (?D) (?E)
                 (?E) (?E) (?E) (?E) (?D) (?D) (?D) (?D) (?D) (?D)
                 (?D) (T1U) (T1U) (T1U) (?F) (?F) (?F) (?F) (?F)
                 (?F) (?F) (?F) (?F) (?F) (?F) (?F) (?F) (?F) (?F)
                 (?F) (?F) (?F) (?F) (?F) (?F) (?F)
 Beta  Orbitals:
       Occupied  (A1G) (A1G) (T1U) (T1U) (T1U) (A1G) (T1U) (T1U)
                 (T1U) (?A) (?A) (?A) (?A) (?A) (A1G) (T1U) (T1U)
                 (T1U) (?B) (?B)
       Virtual   (A1G) (?B) (?B) (?B) (?C) (?C) (?C) (?B) (?B)
                 (?B) (?B) (?B) (?B) (?C) (?C) (?C) (A1G) (?C)
                 (?C) (?C) (?B) (?B) (?B) (?B) (?B) (?C) (?C) (?C)
                 (?C) (?C) (?C) (?C) (?C) (?C) (?C) (?D) (?D) (?D)
                 (?D) (?D) (?D) (?C) (?C) (?C) (?C) (?C) (?C) (?C)
                 (?D) (?D) (?D) (?D) (?D) (?D) (?D) (?D) (?D)
 Unable to determine electronic state:  an orbital has unidentified symmetry.
 Alpha  occ. eigenvalues -- -753.23324-106.90649-103.46518-103.46517-103.46517
 Alpha  occ. eigenvalues --  -19.00474 -16.86873 -16.86873 -16.86872 -10.82984
 Alpha  occ. eigenvalues --  -10.82984 -10.82984 -10.82248 -10.82248  -2.74097
 Alpha  occ. eigenvalues --   -1.95103  -1.95102  -1.95101  -0.37717  -0.37717
 Alpha  occ. eigenvalues --   -0.37717  -0.35661  -0.35661  -0.17915
 Alpha virt. eigenvalues --    0.00092   0.00092   0.00092   0.11432   0.14784
 Alpha virt. eigenvalues --    0.14784   0.14784   0.16965   0.16965   0.16965
 Alpha virt. eigenvalues --    0.17031   0.17031   0.49150   0.58767   0.58768
 Alpha virt. eigenvalues --    0.58768   0.73522   0.73523   0.73523   0.74518
 Alpha virt. eigenvalues --    0.74519   1.05861   1.07066   1.07067   1.07067
 Alpha virt. eigenvalues --    1.07990   1.07990   1.07990   2.33590   2.33590
 Alpha virt. eigenvalues --    2.33591   2.88785   2.88785   2.88786   2.90327
 Alpha virt. eigenvalues --    2.90327   3.10226   3.24115   3.25514   3.25515
 Alpha virt. eigenvalues --    3.25515   3.26811   3.26812   3.26812   3.70928
 Alpha virt. eigenvalues --    3.70928   3.70928   3.72111   3.72111   3.72662
 Alpha virt. eigenvalues --    3.72662   3.72662   3.72961
  Beta  occ. eigenvalues -- -753.23190-106.88657-103.44668-103.44668-103.44668
  Beta  occ. eigenvalues --  -18.98924 -16.85476 -16.85476 -16.85475 -10.81009
  Beta  occ. eigenvalues --  -10.81009 -10.79387 -10.79387 -10.79386  -2.65264
  Beta  occ. eigenvalues --   -1.83429  -1.83429  -1.83429  -0.29618  -0.29618
  Beta virt. eigenvalues --   -0.12614  -0.08048  -0.08013  -0.08010  -0.04712
  Beta virt. eigenvalues --   -0.04632  -0.04627   0.10057   0.10383   0.10383
  Beta virt. eigenvalues --    0.11250   0.11385   0.11389   0.12688   0.12690
  Beta virt. eigenvalues --    0.12691   0.46381   0.52984   0.53047   0.53048
  Beta virt. eigenvalues --    0.65281   0.65295   0.65303   0.71661   0.71663
  Beta virt. eigenvalues --    1.03737   1.09747   1.09747   1.09749   1.13267
  Beta virt. eigenvalues --    1.13268   1.13270   2.37546   2.37560   2.37562
  Beta virt. eigenvalues --    2.93063   2.93063   2.96409   2.96410   2.96412
  Beta virt. eigenvalues --    3.14370   3.27316   3.31534   3.31535   3.31535
  Beta virt. eigenvalues --    3.32955   3.32956   3.32956   3.77750   3.77750
  Beta virt. eigenvalues --    3.77750   3.78636   3.78920   3.78920   3.79179
  Beta virt. eigenvalues --    3.79179   3.79180
          Condensed to atoms (all electrons):
               1
     1  Ru  44.000000
          Atomic-Atomic Spin Densities.
               1
     1  Ru   4.000000
 Mulliken charges and spin densities:
               1          2
     1  Ru  -0.000000   4.000000
 Sum of Mulliken charges =  -0.00000   4.00000
 Mulliken charges and spin densities with hydrogens summed into heavy atoms:
               1          2
     1  Ru  -0.000000   4.000000
 Electronic spatial extent (au):  <R**2>=             55.5457
 Charge=             -0.0000 electrons
 Dipole moment (field-independent basis, Debye):
    X=              0.0000    Y=              0.0000    Z=              0.0000  Tot=              0.0000
 Quadrupole moment (field-independent basis, Debye-Ang):
   XX=            -24.9038   YY=            -24.9037   ZZ=            -24.9034
   XY=              0.0000   XZ=             -0.0001   YZ=             -0.0001
 Traceless Quadrupole moment (field-independent basis, Debye-Ang):
   XX=             -0.0002   YY=             -0.0000   ZZ=              0.0002
   XY=              0.0000   XZ=             -0.0001   YZ=             -0.0001
 Octapole moment (field-independent basis, Debye-Ang**2):
  XXX=              0.0000  YYY=              0.0000  ZZZ=              0.0000  XYY=              0.0000
  XXY=              0.0000  XXZ=              0.0000  XZZ=              0.0000  YZZ=              0.0000
  YYZ=              0.0000  XYZ=             -0.0000
 Hexadecapole moment (field-independent basis, Debye-Ang**3):
 XXXX=            -51.9758 YYYY=            -52.3674 ZZZZ=            -52.3526 XXXY=              0.0224
 XXXZ=              0.0184 YYYX=              0.1819 YYYZ=             -0.0208 ZZZX=              0.5192
 ZZZY=              0.0003 XXYY=            -17.8548 XXZZ=            -17.8685 YYZZ=            -17.4776
 XXYZ=              0.0203 YYXZ=             -0.5381 ZZXY=             -0.2044
 N-N= 0.000000000000D+00 E-N=-1.109503694141D+04  KE= 5.028346834292D+03
                          Isotropic Fermi Contact Couplings
        Atom                 a.u.       MegaHertz       Gauss      10(-4) cm-1
     1  Ru(99)            42.20875   -2166.12046    -772.92565    -722.54001
 PrsmSu:  requested number of processors reduced to:   8 ShMem   1 Linda.
 --------------------------------------------------------
       Center         ----  Spin Dipole Couplings  ----
                      3XX-RR        3YY-RR        3ZZ-RR
 --------------------------------------------------------
     1   Atom       -0.000654      0.000195      0.000459
 --------------------------------------------------------
                        XY            XZ            YZ
 --------------------------------------------------------
     1   Atom        0.000074      0.000170     -0.000245
 --------------------------------------------------------


 ---------------------------------------------------------------------------------
              Anisotropic Spin Dipole Couplings in Principal Axis System
 ---------------------------------------------------------------------------------

       Atom             a.u.   MegaHertz   Gauss  10(-4) cm-1        Axes

              Baa    -0.0007     0.017     0.006     0.006  0.9766 -0.1291 -0.1718
     1 Ru(99) Bbb     0.0001    -0.002    -0.001    -0.001  0.1962  0.8615  0.4684
              Bcc     0.0006    -0.015    -0.005    -0.005  0.0875 -0.4912  0.8667
 

 ---------------------------------------------------------------------------------

 PrsmSu:  requested number of processors reduced to:   8 ShMem   1 Linda.
 No NMR shielding tensors so no spin-rotation constants.
 Leave Link  601 at Sat Apr 17 00:38:45 2021, MaxMem=   104857600 cpu:             457.5 elap:              10.1
 (Enter /s/ls4/users/knvvv/bin/g16sse/l9999.exe)

 Test job not archived.
 1\1\GINC-N178\Stability\UM062X\Gen\Ru1(5)\KNVVV\17-Apr-2021\0\\#P M062
 X/GEN Integral=UltraFineGrid SCF=NoSymm Stable=(RExt, Opt) IOp(1/33=1)
 \\Database calculations.\\0,5\Ru,0,0.,0.,0.\\Version=ES64L-G16RevA.03\
 HF=-4361.9330858\S2=6.010385\S2-1=0.\S2A=6.000026\RMSD=5.388e-09\Dipol
 e=0.,0.,0.\Quadrupole=0.0001515,-0.0000352,-0.0001163,-0.0000672,0.000
 0584,-0.0000152\PG=OH [O(Ru1)]\\@


 THE PROGRESS OF RIVERS TO THE SEA IS NOT AS RAPID
 AS THAT OF MAN TO ERROR.
                                              -- VOLTAIRE
 Job cpu time:       0 days 22 hours 33 minutes 32.0 seconds.
 Elapsed time:       0 days  1 hours 36 minutes  9.9 seconds.
 File lengths (MBytes):  RWF=     86 Int=      0 D2E=      0 Chk=      3 Scr=      1
 Normal termination of Gaussian 16 at Sat Apr 17 00:38:45 2021.
