 Entering Gaussian System, Link 0=/s/ls4/users/knvvv/bin/g16sse/g16
 Input=data/database/M062X--def2-QZVPPD--19_Cl-_SeF2_monB_Bauza30.gjf
 Output=data/database/M062X--def2-QZVPPD--19_Cl-_SeF2_monB_Bauza30.log
 Initial command:
 /s/ls4/users/knvvv/bin/g16sse/l1.exe "/s/ls4/users/knvvv/bin/scratch/Gau-6082.inp" -scrdir="/s/ls4/users/knvvv/bin/scratch/"
 Entering Link 1 = /s/ls4/users/knvvv/bin/g16sse/l1.exe PID=      6083.
  
 Copyright (c) 1988,1990,1992,1993,1995,1998,2003,2009,2016,
            Gaussian, Inc.  All Rights Reserved.
  
 This is part of the Gaussian(R) 16 program.  It is based on
 the Gaussian(R) 09 system (copyright 2009, Gaussian, Inc.),
 the Gaussian(R) 03 system (copyright 2003, Gaussian, Inc.),
 the Gaussian(R) 98 system (copyright 1998, Gaussian, Inc.),
 the Gaussian(R) 94 system (copyright 1995, Gaussian, Inc.),
 the Gaussian 92(TM) system (copyright 1992, Gaussian, Inc.),
 the Gaussian 90(TM) system (copyright 1990, Gaussian, Inc.),
 the Gaussian 88(TM) system (copyright 1988, Gaussian, Inc.),
 the Gaussian 86(TM) system (copyright 1986, Carnegie Mellon
 University), and the Gaussian 82(TM) system (copyright 1983,
 Carnegie Mellon University). Gaussian is a federally registered
 trademark of Gaussian, Inc.
  
 This software contains proprietary and confidential information,
 including trade secrets, belonging to Gaussian, Inc.
  
 This software is provided under written license and may be
 used, copied, transmitted, or stored only in accord with that
 written license.
  
 The following legend is applicable only to US Government
 contracts under FAR:
  
                    RESTRICTED RIGHTS LEGEND
  
 Use, reproduction and disclosure by the US Government is
 subject to restrictions as set forth in subparagraphs (a)
 and (c) of the Commercial Computer Software - Restricted
 Rights clause in FAR 52.227-19.
  
 Gaussian, Inc.
 340 Quinnipiac St., Bldg. 40, Wallingford CT 06492
  
  
 ---------------------------------------------------------------
 Warning -- This program may not be used in any manner that
 competes with the business of Gaussian, Inc. or will provide
 assistance to any competitor of Gaussian, Inc.  The licensee
 of this program is prohibited from giving any competitor of
 Gaussian, Inc. access to this program.  By using this program,
 the user acknowledges that Gaussian, Inc. is engaged in the
 business of creating and licensing software in the field of
 computational chemistry and represents and warrants to the
 licensee that it is not a competitor of Gaussian, Inc. and that
 it will not use this program in any manner prohibited above.
 ---------------------------------------------------------------
  

 Cite this work as:
 Gaussian 16, Revision A.03,
 M. J. Frisch, G. W. Trucks, H. B. Schlegel, G. E. Scuseria, 
 M. A. Robb, J. R. Cheeseman, G. Scalmani, V. Barone, 
 G. A. Petersson, H. Nakatsuji, X. Li, M. Caricato, A. V. Marenich, 
 J. Bloino, B. G. Janesko, R. Gomperts, B. Mennucci, H. P. Hratchian, 
 J. V. Ortiz, A. F. Izmaylov, J. L. Sonnenberg, D. Williams-Young, 
 F. Ding, F. Lipparini, F. Egidi, J. Goings, B. Peng, A. Petrone, 
 T. Henderson, D. Ranasinghe, V. G. Zakrzewski, J. Gao, N. Rega, 
 G. Zheng, W. Liang, M. Hada, M. Ehara, K. Toyota, R. Fukuda, 
 J. Hasegawa, M. Ishida, T. Nakajima, Y. Honda, O. Kitao, H. Nakai, 
 T. Vreven, K. Throssell, J. A. Montgomery, Jr., J. E. Peralta, 
 F. Ogliaro, M. J. Bearpark, J. J. Heyd, E. N. Brothers, K. N. Kudin, 
 V. N. Staroverov, T. A. Keith, R. Kobayashi, J. Normand, 
 K. Raghavachari, A. P. Rendell, J. C. Burant, S. S. Iyengar, 
 J. Tomasi, M. Cossi, J. M. Millam, M. Klene, C. Adamo, R. Cammi, 
 J. W. Ochterski, R. L. Martin, K. Morokuma, O. Farkas, 
 J. B. Foresman, and D. J. Fox, Gaussian, Inc., Wallingford CT, 2016.
 
 ******************************************
 Gaussian 16:  ES64L-G16RevA.03 25-Dec-2016
                17-Apr-2021 
 ******************************************
 %RWF=temp2_55626,70GB
 %nprocshared=48
 Will use up to   48 processors via shared memory.
 Default route: MaxDisk=80GB
 ----------------------------------------------------------------------
 #P M062X/GEN Integral=UltraFineGrid SCF=NoSymm Stable=(RExt, Opt) IOp(
 1/33=1)
 ----------------------------------------------------------------------
 1/33=1,38=1,172=1/1;
 2/12=2,17=6,18=5,40=1/2;
 3/5=7,11=2,25=1,30=1,74=-55,75=-5/1,2,3;
 4/9=2/1;
 5/5=2,38=5/2;
 6/7=2,8=2,9=2,10=2,28=1/1;
 8/6=1,10=90,11=11/1;
 9/8=-3,42=1,46=1/14;
 5/5=2,8=3,17=40,38=5/8(-2);
 6/7=2,8=2,9=2,10=2,28=1/1;
 99/5=1,9=1/99;
 Leave Link    1 at Sat Apr 17 19:29:21 2021, MaxMem=           0 cpu:              10.7 elap:               0.3
 (Enter /s/ls4/users/knvvv/bin/g16sse/l101.exe)
 ONIOM data not found on unit 2.
 ----------------------
 Database calculations.
 ----------------------
 TstMul:  ICh=     0
 TstMul:  Mul=     1
 TstMul:  ICh=     0
 TstMul:  Mul=     1
 Symbolic Z-matrix:
 Charge =  0 Multiplicity = 1
 Se                    0.36368  -0.29764   0. 
 F                     2.24155  -0.29162   0. 
 F                     0.45375   1.46861   0. 
 
 RdStrC is calling ZToCFu for IStruc=1 NZ=     3.
 PrtBox:  NBox=     1 Levels=  1 BoxLen=    8.00 SMaxX=        3.55
          Shift=           -0.687257            0.562449            0.000000
 Box      1 Number                   0 centers from      1 to      3:
 After GenITR:
 ITRead=  0  0  0
 MicOpt= -1 -1 -1
 ITRead=  0  0  0
 MicOpt= -1 -1 -1
 NAtoms=      3 NQM=        3 NQMF=       0 NMMI=      0 NMMIF=      0
                NMic=       0 NMicF=      0.
                    Isotopes and Nuclear Properties:
 (Nuclear quadrupole moments (NQMom) in fm**2, nuclear magnetic moments (NMagM)
  in nuclear magnetons)

  Atom         1           2           3
 IAtWgt=          80          19          19
 AtmWgt=  79.9165205  18.9984033  18.9984033
 NucSpn=           0           1           1
 AtZEff=  -0.0000000  -0.0000000  -0.0000000
 NQMom=    0.0000000   0.0000000   0.0000000
 NMagM=    0.0000000   2.6288670   2.6288670
 AtZNuc=  34.0000000   9.0000000   9.0000000
 No MM parameters found.
 Leave Link  101 at Sat Apr 17 19:29:22 2021, MaxMem=   104857600 cpu:               8.2 elap:               0.2
 (Enter /s/ls4/users/knvvv/bin/g16sse/l202.exe)
                          Input orientation:                          
 ---------------------------------------------------------------------
 Center     Atomic      Atomic             Coordinates (Angstroms)
 Number     Number       Type             X           Y           Z
 ---------------------------------------------------------------------
      1         34           0        0.363681   -0.297635    0.000000
      2          9           0        2.241548   -0.291619    0.000000
      3          9           0        0.453755    1.468605    0.000000
 ---------------------------------------------------------------------
                    Distance matrix (angstroms):
                    1          2          3
     1  Se   0.000000
     2  F    1.877877   0.000000
     3  F    1.768536   2.508903   0.000000
 Stoichiometry    F2Se
 Framework group  CS[SG(F2Se)]
 Deg. of freedom     3
 Full point group                 CS      NOp   2
 Largest Abelian subgroup         CS      NOp   2
 Largest concise Abelian subgroup C1      NOp   1
                         Standard orientation:                         
 ---------------------------------------------------------------------
 Center     Atomic      Atomic             Coordinates (Angstroms)
 Number     Number       Type             X           Y           Z
 ---------------------------------------------------------------------
      1         34           0        0.000000    0.458366    0.000000
      2          9           0        1.252191   -0.941076    0.000000
      3          9           0       -1.252191   -0.790528    0.000000
 ---------------------------------------------------------------------
 Rotational constants (GHZ):          11.3520659           8.3630356           4.8154827
 Leave Link  202 at Sat Apr 17 19:29:22 2021, MaxMem=   104857600 cpu:               5.9 elap:               0.2
 (Enter /s/ls4/users/knvvv/bin/g16sse/l301.exe)
 General basis read from cards:  (5D, 7F)
 Centers:       2      3
 S 8 1.00
     Exponent=  1.3253597345D+05 Coefficients=  4.7387482743D-05
     Exponent=  1.9758112588D+04 Coefficients=  3.7070120897D-04
     Exponent=  4.4851996947D+03 Coefficients=  1.9450784713D-03
     Exponent=  1.2738151020D+03 Coefficients=  8.0573291994D-03
     Exponent=  4.1893831236D+02 Coefficients=  2.7992880781D-02
     Exponent=  1.5255721985D+02 Coefficients=  8.2735120175D-02
     Exponent=  5.9821524823D+01 Coefficients=  1.9854169012D-01
     Exponent=  2.4819076932D+01 Coefficients=  3.4860632233D-01
 S 2 1.00
     Exponent=  1.0074446673D+02 Coefficients=  1.0505068816D-01
     Exponent=  3.0103728290D+01 Coefficients=  9.4068472434D-01
 S 1 1.00
     Exponent=  1.0814283272D+01 Coefficients=  1.0000000000D+00
 S 1 1.00
     Exponent=  4.8172886770D+00 Coefficients=  1.0000000000D+00
 S 1 1.00
     Exponent=  1.6559334213D+00 Coefficients=  1.0000000000D+00
 S 1 1.00
     Exponent=  6.4893519582D-01 Coefficients=  1.0000000000D+00
 S 1 1.00
     Exponent=  2.4778104545D-01 Coefficients=  1.0000000000D+00
 S 1 1.00
     Exponent=  8.7626236800D-02 Coefficients=  1.0000000000D+00
 P 5 1.00
     Exponent=  2.4096654114D+02 Coefficients=  3.0389933451D-03
     Exponent=  5.7020699781D+01 Coefficients=  2.4357738582D-02
     Exponent=  1.8126952120D+01 Coefficients=  1.1442925768D-01
     Exponent=  6.6457404621D+00 Coefficients=  3.7064659853D-01
     Exponent=  2.6375722892D+00 Coefficients=  7.9791551766D-01
 P 1 1.00
     Exponent=  1.0638217200D+00 Coefficients=  1.0000000000D+00
 P 1 1.00
     Exponent=  4.1932562750D-01 Coefficients=  1.0000000000D+00
 P 1 1.00
     Exponent=  1.5747588299D-01 Coefficients=  1.0000000000D+00
 P 1 1.00
     Exponent=  4.6772400332D-02 Coefficients=  1.0000000000D+00
 D 1 1.00
     Exponent=  5.0140000000D+00 Coefficients=  1.0000000000D+00
 D 1 1.00
     Exponent=  1.7250000000D+00 Coefficients=  1.0000000000D+00
 D 1 1.00
     Exponent=  5.8600000000D-01 Coefficients=  1.0000000000D+00
 D 1 1.00
     Exponent=  1.5967986245D-01 Coefficients=  1.0000000000D+00
 F 1 1.00
     Exponent=  3.5620000000D+00 Coefficients=  1.0000000000D+00
 F 1 1.00
     Exponent=  1.1480000000D+00 Coefficients=  1.0000000000D+00
 G 1 1.00
     Exponent=  2.3760000000D+00 Coefficients=  1.0000000000D+00
 ****
 Centers:       1
 S 11 1.00
     Exponent=  9.5204467743D+06 Coefficients=  6.3309690150D-06
     Exponent=  1.4249840802D+06 Coefficients=  4.9267697990D-05
     Exponent=  3.2412757682D+05 Coefficients=  2.5920249744D-04
     Exponent=  9.1774876950D+04 Coefficients=  1.0943145743D-03
     Exponent=  2.9932725725D+04 Coefficients=  3.9706139067D-03
     Exponent=  1.0804617905D+04 Coefficients=  1.2801187916D-02
     Exponent=  4.2140134779D+03 Coefficients=  3.6980379417D-02
     Exponent=  1.7478116633D+03 Coefficients=  9.4461349896D-02
     Exponent=  7.6212160878D+02 Coefficients=  2.0274705434D-01
     Exponent=  3.4645604141D+02 Coefficients=  3.2878956424D-01
     Exponent=  1.6311569304D+02 Coefficients=  3.2300252609D-01
 S 4 1.00
     Exponent=  2.6145153067D+03 Coefficients=  7.9113928518D-03
     Exponent=  8.1868552756D+02 Coefficients=  7.7187739408D-02
     Exponent=  3.1863398991D+02 Coefficients=  3.5672061949D-01
     Exponent=  1.3904844125D+02 Coefficients=  7.5846750004D-01
 S 1 1.00
     Exponent=  7.8348734788D+01 Coefficients=  1.0000000000D+00
 S 1 1.00
     Exponent=  3.1704290663D+01 Coefficients=  1.0000000000D+00
 S 1 1.00
     Exponent=  1.5505859269D+01 Coefficients=  1.0000000000D+00
 S 1 1.00
     Exponent=  7.3227423625D+00 Coefficients=  1.0000000000D+00
 S 1 1.00
     Exponent=  3.4969483549D+00 Coefficients=  1.0000000000D+00
 S 1 1.00
     Exponent=  1.6121546085D+00 Coefficients=  1.0000000000D+00
 S 1 1.00
     Exponent=  4.9587158541D-01 Coefficients=  1.0000000000D+00
 S 1 1.00
     Exponent=  2.4092138175D-01 Coefficients=  1.0000000000D+00
 S 1 1.00
     Exponent=  1.0231739397D-01 Coefficients=  1.0000000000D+00
 S 1 1.00
     Exponent=  4.0316301954D-02 Coefficients=  1.0000000000D+00
 P 10 1.00
     Exponent=  2.5360215615D+04 Coefficients=  6.0531790911D-05
     Exponent=  5.9937896610D+03 Coefficients=  5.3987774437D-04
     Exponent=  1.9430741755D+03 Coefficients=  3.1130456170D-03
     Exponent=  7.4235316156D+02 Coefficients=  1.3599674694D-02
     Exponent=  3.1462114597D+02 Coefficients=  4.7298958377D-02
     Exponent=  1.4334748044D+02 Coefficients=  1.2981487726D-01
     Exponent=  6.8673617552D+01 Coefficients=  2.6569982215D-01
     Exponent=  3.4013554117D+01 Coefficients=  3.6723195311D-01
     Exponent=  1.7198099621D+01 Coefficients=  2.7478356345D-01
     Exponent=  8.5830329629D+00 Coefficients=  7.9256169683D-02
 P 5 1.00
     Exponent=  2.3658209146D+02 Coefficients= -1.2271649354D-03
     Exponent=  9.0576183214D+01 Coefficients= -9.2584627774D-03
     Exponent=  3.9086689301D+01 Coefficients= -2.8428728384D-02
     Exponent=  9.3084344018D+00 Coefficients=  2.1201102192D-01
     Exponent=  4.6169923084D+00 Coefficients=  4.7117589805D-01
 P 1 1.00
     Exponent=  2.2653477506D+00 Coefficients=  1.0000000000D+00
 P 1 1.00
     Exponent=  1.0800000000D+00 Coefficients=  1.0000000000D+00
 P 1 1.00
     Exponent=  4.7939328581D-01 Coefficients=  1.0000000000D+00
 P 1 1.00
     Exponent=  1.9619983845D-01 Coefficients=  1.0000000000D+00
 P 1 1.00
     Exponent=  7.6256339275D-02 Coefficients=  1.0000000000D+00
 P 1 1.00
     Exponent=  2.5031496127D-02 Coefficients=  1.0000000000D+00
 D 7 1.00
     Exponent=  5.3948700124D+02 Coefficients=  6.6722955533D-04
     Exponent=  1.6213394435D+02 Coefficients=  6.0399330928D-03
     Exponent=  6.2661795641D+01 Coefficients=  3.0238666507D-02
     Exponent=  2.7077272889D+01 Coefficients=  9.9267892065D-02
     Exponent=  1.2483003929D+01 Coefficients=  2.2358036310D-01
     Exponent=  5.8864623136D+00 Coefficients=  3.3574682762D-01
     Exponent=  2.7519131105D+00 Coefficients=  3.4554856483D-01
 D 1 1.00
     Exponent=  1.2500769617D+00 Coefficients=  2.1216654622D-01
 D 1 1.00
     Exponent=  5.1172841843D-01 Coefficients=  1.0000000000D+00
 D 1 1.00
     Exponent=  2.0000000000D-01 Coefficients=  1.0000000000D+00
 D 1 1.00
     Exponent=  6.5822945067D-02 Coefficients=  1.0000000000D+00
 F 1 1.00
     Exponent=  1.1333391939D+01 Coefficients=  1.0000000000D+00
 F 1 1.00
     Exponent=  3.5185505690D+00 Coefficients=  1.0000000000D+00
 F 1 1.00
     Exponent=  7.0970000000D-01 Coefficients=  1.0000000000D+00
 F 1 1.00
     Exponent=  2.8400000000D-01 Coefficients=  1.0000000000D+00
 G 1 1.00
     Exponent=  5.7300000000D-01 Coefficients=  1.0000000000D+00
 ****
 Ernie: Thresh=  0.10000D-02 Tol=  0.10000D-05 Strict=F.
 There are   191 symmetry adapted cartesian basis functions of A'  symmetry.
 There are    94 symmetry adapted cartesian basis functions of A"  symmetry.
 There are   150 symmetry adapted basis functions of A'  symmetry.
 There are    80 symmetry adapted basis functions of A"  symmetry.
   230 basis functions,   413 primitive gaussians,   285 cartesian basis functions
    26 alpha electrons       26 beta electrons
       nuclear repulsion energy       194.8745144370 Hartrees.
 IExCor= 4336 DFT=T Ex+Corr=M062X ExCW=0 ScaHFX=  0.540000
 ScaDFX=  1.000000  1.000000  1.000000  1.000000 ScalE2=  1.000000  1.000000
 IRadAn=      5 IRanWt=     -1 IRanGd=            0 ICorTp=0 IEmpDi=  4
 NAtoms=    3 NActive=    3 NUniq=    3 SFac= 1.00D+00 NAtFMM=   60 NAOKFM=F Big=F
 Integral buffers will be    131072 words long.
 Raffenetti 2 integral format.
 Two-electron integral symmetry is turned on.
 Leave Link  301 at Sat Apr 17 19:29:22 2021, MaxMem=   104857600 cpu:              11.6 elap:               0.3
 (Enter /s/ls4/users/knvvv/bin/g16sse/l302.exe)
 NPDir=0 NMtPBC=     1 NCelOv=     1 NCel=       1 NClECP=     1 NCelD=      1
         NCelK=      1 NCelE2=     1 NClLst=     1 CellRange=     0.0.
 One-electron integrals computed using PRISM.
 One-electron integral symmetry used in STVInt
 PrsmSu:  requested number of processors reduced to:   4 ShMem   1 Linda.
 PrsmSu:  requested number of processors reduced to:  21 ShMem   1 Linda.
 NBasis=   230 RedAO= T EigKep=  2.82D-04  NBF=   150    80
 NBsUse=   230 1.00D-06 EigRej= -1.00D+00 NBFU=   150    80
 Precomputing XC quadrature grid using
 IXCGrd= 4 IRadAn=           5 IRanWt=          -1 IRanGd=           0 AccXCQ= 0.00D+00.
 Generated NRdTot=       0 NPtTot=           0 NUsed=           0 NTot=          32
 NSgBfM=   280   280   280   280   280 MxSgAt=     3 MxSgA2=     3.
 Leave Link  302 at Sat Apr 17 19:29:28 2021, MaxMem=   104857600 cpu:             278.3 elap:               6.0
 (Enter /s/ls4/users/knvvv/bin/g16sse/l303.exe)
 DipDrv:  MaxL=1.
 Leave Link  303 at Sat Apr 17 19:29:29 2021, MaxMem=   104857600 cpu:              54.0 elap:               1.2
 (Enter /s/ls4/users/knvvv/bin/g16sse/l401.exe)
 SCF N**3 symmetry information disabled.
 ExpMin= 2.50D-02 ExpMax= 9.52D+06 ExpMxC= 1.08D+04 IAcc=3 IRadAn=         5 AccDes= 0.00D+00
 Harris functional with IExCor= 1009 and IRadAn=       5 diagonalized for initial guess.
 HarFok:  IExCor= 1009 AccDes= 0.00D+00 IRadAn=         5 IDoV= 1 UseB2=F ITyADJ=14
 ICtDFT=  3500011 ScaDFX=  1.000000  1.000000  1.000000  1.000000
 FoFCou: FMM=F IPFlag=           0 FMFlag=      100000 FMFlg1=           0
         NFxFlg=           0 DoJE=T BraDBF=F KetDBF=T FulRan=T
         wScrn=  0.000000 ICntrl=       500 IOpCl=  0 I1Cent=   200000004 NGrid=           0
         NMat0=    1 NMatS0=      1 NMatT0=    0 NMatD0=    1 NMtDS0=    0 NMtDT0=    0
 Petite list used in FoFCou.
 CoulSu:  requested number of processors reduced to:  21 ShMem   1 Linda.
 CoulSu:  requested number of processors reduced to:  21 ShMem   1 Linda.
 CoulSu:  requested number of processors reduced to:  21 ShMem   1 Linda.
 CoulSu:  requested number of processors reduced to:  21 ShMem   1 Linda.
 Harris En= -2600.80091731508    
 JPrj=0 DoOrth=F DoCkMO=F.
 Initial guess orbital symmetries:
       Occupied  (A') (A') (A') (A') (A") (A') (A') (A') (A') (A')
                 (A") (A') (A') (A") (A') (A") (A') (A') (A') (A')
                 (A') (A") (A") (A') (A') (A")
       Virtual   (A') (A') (A') (A") (A') (A') (A') (A') (A') (A")
                 (A") (A') (A') (A") (A") (A') (A') (A') (A') (A")
                 (A') (A') (A') (A") (A') (A") (A") (A') (A") (A')
                 (A") (A') (A') (A') (A') (A") (A') (A') (A") (A")
                 (A') (A') (A') (A') (A") (A') (A') (A") (A') (A")
                 (A') (A") (A') (A') (A') (A') (A') (A") (A") (A')
                 (A') (A") (A") (A') (A') (A") (A") (A') (A') (A")
                 (A') (A") (A') (A') (A') (A') (A') (A') (A") (A")
                 (A') (A') (A") (A') (A") (A") (A') (A') (A") (A")
                 (A') (A') (A') (A') (A') (A") (A') (A') (A") (A")
                 (A') (A") (A') (A') (A') (A') (A") (A') (A") (A")
                 (A') (A') (A') (A") (A") (A') (A") (A") (A') (A')
                 (A') (A') (A") (A') (A") (A') (A') (A') (A") (A")
                 (A') (A') (A') (A') (A') (A") (A') (A") (A') (A")
                 (A') (A') (A") (A') (A") (A') (A') (A") (A") (A')
                 (A") (A') (A") (A') (A") (A') (A") (A') (A') (A')
                 (A") (A') (A') (A") (A') (A") (A') (A") (A') (A')
                 (A") (A") (A') (A") (A') (A') (A') (A') (A') (A")
                 (A") (A') (A') (A") (A') (A") (A') (A') (A') (A')
                 (A") (A') (A") (A') (A") (A') (A') (A') (A') (A')
                 (A') (A') (A') (A')
 The electronic state of the initial guess is 1-A'.
 Leave Link  401 at Sat Apr 17 19:29:30 2021, MaxMem=   104857600 cpu:              43.9 elap:               1.1
 (Enter /s/ls4/users/knvvv/bin/g16sse/l502.exe)
 Integral symmetry usage will be decided dynamically.
 Closed shell SCF:
 Using DIIS extrapolation, IDIIS=  1040.
 NGot=   104857600 LenX=   104678622 LenY=   104596956
 Requested convergence on RMS density matrix=1.00D-08 within 128 cycles.
 Requested convergence on MAX density matrix=1.00D-06.
 Requested convergence on             energy=1.00D-06.
 No special actions if energy rises.
 Fock matrices will be formed incrementally for  20 cycles.

 Cycle   1  Pass 1  IDiag  1:
 FoFJK:  IHMeth= 1 ICntrl=       0 DoSepK=F KAlg= 0 I1Cent=           0 FoldK=F
 IRaf= 960000000 NMat=       1 IRICut=       1 DoRegI=T DoRafI=F ISym2E= 1 IDoP0=0 IntGTp=1.
 FoFCou: FMM=F IPFlag=           0 FMFlag=      100000 FMFlg1=           0
         NFxFlg=           0 DoJE=F BraDBF=F KetDBF=F FulRan=T
         wScrn=  0.000000 ICntrl=         0 IOpCl=  0 I1Cent=           0 NGrid=           0
         NMat0=    1 NMatS0=      1 NMatT0=    0 NMatD0=    1 NMtDS0=    0 NMtDT0=    0
 Petite list used in FoFCou.
 CoulSu:  requested number of processors reduced to:  21 ShMem   1 Linda.
 E= -2601.14319026150    
 DIIS: error= 6.64D-02 at cycle   1 NSaved=   1.
 NSaved= 1 IEnMin= 1 EnMin= -2601.14319026150     IErMin= 1 ErrMin= 6.64D-02
 ErrMax= 6.64D-02  0.00D+00 EMaxC= 1.00D-01 BMatC= 1.12D+00 BMatP= 1.12D+00
 IDIUse=3 WtCom= 3.36D-01 WtEn= 6.64D-01
 Coeff-Com:  0.100D+01
 Coeff-En:   0.100D+01
 Coeff:      0.100D+01
 Gap=     0.248 Goal=   None    Shift=    0.000
 GapD=    0.248 DampG=1.000 DampE=0.500 DampFc=0.5000 IDamp=-1.
 Damping current iteration by 5.00D-01
 RMSDP=2.23D-03 MaxDP=8.48D-02              OVMax= 2.10D-01

 Cycle   2  Pass 1  IDiag  1:
 RMSU=  1.10D-03    CP:  1.01D+00
 CoulSu:  requested number of processors reduced to:  21 ShMem   1 Linda.
 E= -2601.20600315494     Delta-E=       -0.062812893441 Rises=F Damp=T
 DIIS: error= 3.48D-02 at cycle   2 NSaved=   2.
 NSaved= 2 IEnMin= 2 EnMin= -2601.20600315494     IErMin= 2 ErrMin= 3.48D-02
 ErrMax= 3.48D-02  0.00D+00 EMaxC= 1.00D-01 BMatC= 1.48D-01 BMatP= 1.12D+00
 IDIUse=3 WtCom= 6.52D-01 WtEn= 3.48D-01
 Coeff-Com: -0.166D+00 0.117D+01
 Coeff-En:   0.188D+00 0.812D+00
 Coeff:     -0.429D-01 0.104D+01
 Gap=     0.312 Goal=   None    Shift=    0.000
 RMSDP=7.68D-04 MaxDP=4.82D-02 DE=-6.28D-02 OVMax= 1.73D-01

 Cycle   3  Pass 1  IDiag  1:
 RMSU=  7.63D-04    CP:  1.01D+00  9.31D-01
 CoulSu:  requested number of processors reduced to:  21 ShMem   1 Linda.
 E= -2601.28308940847     Delta-E=       -0.077086253528 Rises=F Damp=F
 DIIS: error= 1.15D-02 at cycle   3 NSaved=   3.
 NSaved= 3 IEnMin= 3 EnMin= -2601.28308940847     IErMin= 3 ErrMin= 1.15D-02
 ErrMax= 1.15D-02  0.00D+00 EMaxC= 1.00D-01 BMatC= 4.05D-02 BMatP= 1.48D-01
 IDIUse=3 WtCom= 8.85D-01 WtEn= 1.15D-01
 Coeff-Com: -0.130D+00 0.424D+00 0.707D+00
 Coeff-En:   0.000D+00 0.000D+00 0.100D+01
 Coeff:     -0.115D+00 0.375D+00 0.740D+00
 Gap=     0.242 Goal=   None    Shift=    0.000
 RMSDP=4.70D-04 MaxDP=1.94D-02 DE=-7.71D-02 OVMax= 6.43D-02

 Cycle   4  Pass 1  IDiag  1:
 RMSU=  2.83D-04    CP:  1.01D+00  1.22D+00  7.38D-01
 CoulSu:  requested number of processors reduced to:  21 ShMem   1 Linda.
 E= -2601.30052668999     Delta-E=       -0.017437281515 Rises=F Damp=F
 DIIS: error= 6.42D-03 at cycle   4 NSaved=   4.
 NSaved= 4 IEnMin= 4 EnMin= -2601.30052668999     IErMin= 4 ErrMin= 6.42D-03
 ErrMax= 6.42D-03  0.00D+00 EMaxC= 1.00D-01 BMatC= 1.15D-02 BMatP= 4.05D-02
 IDIUse=3 WtCom= 9.36D-01 WtEn= 6.42D-02
 Coeff-Com: -0.421D-01 0.850D-01 0.389D+00 0.568D+00
 Coeff-En:   0.000D+00 0.000D+00 0.215D+00 0.785D+00
 Coeff:     -0.394D-01 0.795D-01 0.378D+00 0.582D+00
 Gap=     0.239 Goal=   None    Shift=    0.000
 RMSDP=1.60D-04 MaxDP=6.33D-03 DE=-1.74D-02 OVMax= 2.12D-02

 Cycle   5  Pass 1  IDiag  1:
 RMSU=  6.08D-05    CP:  1.01D+00  1.14D+00  8.28D-01  6.37D-01
 CoulSu:  requested number of processors reduced to:  21 ShMem   1 Linda.
 E= -2601.30641124939     Delta-E=       -0.005884559401 Rises=F Damp=F
 DIIS: error= 6.24D-04 at cycle   5 NSaved=   5.
 NSaved= 5 IEnMin= 5 EnMin= -2601.30641124939     IErMin= 5 ErrMin= 6.24D-04
 ErrMax= 6.24D-04  0.00D+00 EMaxC= 1.00D-01 BMatC= 1.18D-04 BMatP= 1.15D-02
 IDIUse=3 WtCom= 9.94D-01 WtEn= 6.24D-03
 Coeff-Com: -0.126D-01 0.237D-01 0.128D+00 0.232D+00 0.629D+00
 Coeff-En:   0.000D+00 0.000D+00 0.000D+00 0.000D+00 0.100D+01
 Coeff:     -0.125D-01 0.236D-01 0.127D+00 0.230D+00 0.632D+00
 Gap=     0.239 Goal=   None    Shift=    0.000
 RMSDP=2.44D-05 MaxDP=6.93D-04 DE=-5.88D-03 OVMax= 4.06D-03

 Cycle   6  Pass 1  IDiag  1:
 RMSU=  1.99D-05    CP:  1.01D+00  1.15D+00  8.23D-01  6.79D-01  9.74D-01
 CoulSu:  requested number of processors reduced to:  21 ShMem   1 Linda.
 E= -2601.30647167730     Delta-E=       -0.000060427914 Rises=F Damp=F
 DIIS: error= 2.98D-04 at cycle   6 NSaved=   6.
 NSaved= 6 IEnMin= 6 EnMin= -2601.30647167730     IErMin= 6 ErrMin= 2.98D-04
 ErrMax= 2.98D-04  0.00D+00 EMaxC= 1.00D-01 BMatC= 2.31D-05 BMatP= 1.18D-04
 IDIUse=3 WtCom= 9.97D-01 WtEn= 2.98D-03
 Coeff-Com:  0.496D-02-0.108D-01-0.370D-01-0.260D-01 0.357D+00 0.712D+00
 Coeff-En:   0.000D+00 0.000D+00 0.000D+00 0.000D+00 0.670D-01 0.933D+00
 Coeff:      0.495D-02-0.108D-01-0.369D-01-0.259D-01 0.356D+00 0.713D+00
 Gap=     0.239 Goal=   None    Shift=    0.000
 RMSDP=1.16D-05 MaxDP=5.83D-04 DE=-6.04D-05 OVMax= 1.59D-03

 Cycle   7  Pass 1  IDiag  1:
 RMSU=  4.76D-06    CP:  1.01D+00  1.15D+00  8.23D-01  6.93D-01  1.12D+00
                    CP:  8.50D-01
 CoulSu:  requested number of processors reduced to:  21 ShMem   1 Linda.
 E= -2601.30648612748     Delta-E=       -0.000014450180 Rises=F Damp=F
 DIIS: error= 5.87D-05 at cycle   7 NSaved=   7.
 NSaved= 7 IEnMin= 7 EnMin= -2601.30648612748     IErMin= 7 ErrMin= 5.87D-05
 ErrMax= 5.87D-05  0.00D+00 EMaxC= 1.00D-01 BMatC= 4.45D-07 BMatP= 2.31D-05
 IDIUse=1 WtCom= 1.00D+00 WtEn= 0.00D+00
 Coeff-Com:  0.980D-03-0.197D-02-0.728D-02-0.131D-01 0.215D-01 0.733D-01
 Coeff-Com:  0.927D+00
 Coeff:      0.980D-03-0.197D-02-0.728D-02-0.131D-01 0.215D-01 0.733D-01
 Coeff:      0.927D+00
 Gap=     0.239 Goal=   None    Shift=    0.000
 RMSDP=2.53D-06 MaxDP=1.83D-04 DE=-1.45D-05 OVMax= 3.07D-04

 Cycle   8  Pass 1  IDiag  1:
 RMSU=  1.37D-06    CP:  1.01D+00  1.15D+00  8.23D-01  6.93D-01  1.14D+00
                    CP:  8.88D-01  1.23D+00
 CoulSu:  requested number of processors reduced to:  21 ShMem   1 Linda.
 E= -2601.30648666276     Delta-E=       -0.000000535275 Rises=F Damp=F
 DIIS: error= 8.33D-06 at cycle   8 NSaved=   8.
 NSaved= 8 IEnMin= 8 EnMin= -2601.30648666276     IErMin= 8 ErrMin= 8.33D-06
 ErrMax= 8.33D-06  0.00D+00 EMaxC= 1.00D-01 BMatC= 2.12D-08 BMatP= 4.45D-07
 IDIUse=1 WtCom= 1.00D+00 WtEn= 0.00D+00
 Coeff-Com: -0.226D-03 0.513D-03 0.740D-03-0.545D-03-0.173D-01-0.338D-01
 Coeff-Com:  0.277D-01 0.102D+01
 Coeff:     -0.226D-03 0.513D-03 0.740D-03-0.545D-03-0.173D-01-0.338D-01
 Coeff:      0.277D-01 0.102D+01
 Gap=     0.239 Goal=   None    Shift=    0.000
 RMSDP=8.76D-07 MaxDP=5.79D-05 DE=-5.35D-07 OVMax= 1.48D-04

 Cycle   9  Pass 1  IDiag  1:
 RMSU=  4.10D-07    CP:  1.01D+00  1.15D+00  8.23D-01  6.93D-01  1.15D+00
                    CP:  8.98D-01  1.33D+00  1.21D+00
 CoulSu:  requested number of processors reduced to:  21 ShMem   1 Linda.
 E= -2601.30648671084     Delta-E=       -0.000000048083 Rises=F Damp=F
 DIIS: error= 2.49D-06 at cycle   9 NSaved=   9.
 NSaved= 9 IEnMin= 9 EnMin= -2601.30648671084     IErMin= 9 ErrMin= 2.49D-06
 ErrMax= 2.49D-06  0.00D+00 EMaxC= 1.00D-01 BMatC= 1.43D-09 BMatP= 2.12D-08
 IDIUse=1 WtCom= 1.00D+00 WtEn= 0.00D+00
 Coeff-Com: -0.307D-04 0.556D-04 0.394D-03 0.103D-02-0.813D-03-0.270D-02
 Coeff-Com: -0.734D-01-0.819D-01 0.116D+01
 Coeff:     -0.307D-04 0.556D-04 0.394D-03 0.103D-02-0.813D-03-0.270D-02
 Coeff:     -0.734D-01-0.819D-01 0.116D+01
 Gap=     0.239 Goal=   None    Shift=    0.000
 RMSDP=2.87D-07 MaxDP=1.01D-05 DE=-4.81D-08 OVMax= 5.56D-05

 Cycle  10  Pass 1  IDiag  1:
 RMSU=  9.65D-08    CP:  1.01D+00  1.15D+00  8.23D-01  6.93D-01  1.15D+00
                    CP:  9.01D-01  1.37D+00  1.32D+00  1.31D+00
 CoulSu:  requested number of processors reduced to:  21 ShMem   1 Linda.
 E= -2601.30648671503     Delta-E=       -0.000000004190 Rises=F Damp=F
 DIIS: error= 4.81D-07 at cycle  10 NSaved=  10.
 NSaved=10 IEnMin=10 EnMin= -2601.30648671503     IErMin=10 ErrMin= 4.81D-07
 ErrMax= 4.81D-07  0.00D+00 EMaxC= 1.00D-01 BMatC= 1.04D-10 BMatP= 1.43D-09
 IDIUse=1 WtCom= 1.00D+00 WtEn= 0.00D+00
 Coeff-Com:  0.102D-04-0.238D-04 0.829D-05 0.876D-04 0.987D-03 0.128D-02
 Coeff-Com: -0.548D-02-0.472D-01 0.635D-01 0.987D+00
 Coeff:      0.102D-04-0.238D-04 0.829D-05 0.876D-04 0.987D-03 0.128D-02
 Coeff:     -0.548D-02-0.472D-01 0.635D-01 0.987D+00
 Gap=     0.239 Goal=   None    Shift=    0.000
 RMSDP=4.96D-08 MaxDP=3.15D-06 DE=-4.19D-09 OVMax= 7.07D-06

 Cycle  11  Pass 1  IDiag  1:
 RMSU=  2.19D-08    CP:  1.01D+00  1.15D+00  8.23D-01  6.93D-01  1.15D+00
                    CP:  9.01D-01  1.37D+00  1.33D+00  1.37D+00  1.27D+00
 CoulSu:  requested number of processors reduced to:  21 ShMem   1 Linda.
 E= -2601.30648671518     Delta-E=       -0.000000000152 Rises=F Damp=F
 DIIS: error= 1.30D-07 at cycle  11 NSaved=  11.
 NSaved=11 IEnMin=11 EnMin= -2601.30648671518     IErMin=11 ErrMin= 1.30D-07
 ErrMax= 1.30D-07  0.00D+00 EMaxC= 1.00D-01 BMatC= 7.70D-12 BMatP= 1.04D-10
 IDIUse=1 WtCom= 1.00D+00 WtEn= 0.00D+00
 Coeff-Com:  0.405D-05-0.833D-05-0.257D-04-0.580D-04 0.283D-03 0.432D-03
 Coeff-Com:  0.417D-02-0.436D-02-0.712D-01 0.168D+00 0.902D+00
 Coeff:      0.405D-05-0.833D-05-0.257D-04-0.580D-04 0.283D-03 0.432D-03
 Coeff:      0.417D-02-0.436D-02-0.712D-01 0.168D+00 0.902D+00
 Gap=     0.239 Goal=   None    Shift=    0.000
 RMSDP=1.54D-08 MaxDP=1.10D-06 DE=-1.52D-10 OVMax= 2.56D-06

 Cycle  12  Pass 1  IDiag  1:
 RMSU=  7.89D-09    CP:  1.01D+00  1.15D+00  8.23D-01  6.93D-01  1.15D+00
                    CP:  9.01D-01  1.37D+00  1.33D+00  1.38D+00  1.37D+00
                    CP:  1.17D+00
 CoulSu:  requested number of processors reduced to:  21 ShMem   1 Linda.
 E= -2601.30648671518     Delta-E=        0.000000000000 Rises=F Damp=F
 DIIS: error= 4.15D-08 at cycle  12 NSaved=  12.
 NSaved=12 IEnMin=11 EnMin= -2601.30648671518     IErMin=12 ErrMin= 4.15D-08
 ErrMax= 4.15D-08  0.00D+00 EMaxC= 1.00D-01 BMatC= 8.65D-13 BMatP= 7.70D-12
 IDIUse=1 WtCom= 1.00D+00 WtEn= 0.00D+00
 Coeff-Com: -0.512D-06 0.126D-05-0.408D-05-0.132D-04-0.500D-04-0.202D-04
 Coeff-Com:  0.106D-02 0.325D-02-0.145D-01-0.672D-01 0.159D+00 0.918D+00
 Coeff:     -0.512D-06 0.126D-05-0.408D-05-0.132D-04-0.500D-04-0.202D-04
 Coeff:      0.106D-02 0.325D-02-0.145D-01-0.672D-01 0.159D+00 0.918D+00
 Gap=     0.239 Goal=   None    Shift=    0.000
 RMSDP=4.35D-09 MaxDP=2.64D-07 DE= 0.00D+00 OVMax= 7.15D-07

 SCF Done:  E(RM062X) =  -2601.30648672     A.U. after   12 cycles
            NFock= 12  Conv=0.44D-08     -V/T= 2.0023
 KE= 2.595458618577D+03 PE=-6.604559743647D+03 EE= 1.212920123918D+03
 Leave Link  502 at Sat Apr 17 19:30:03 2021, MaxMem=   104857600 cpu:            1052.2 elap:              32.2
 (Enter /s/ls4/users/knvvv/bin/g16sse/l601.exe)
 Copying SCF densities to generalized density rwf, IOpCl= 0 IROHF=0.

 **********************************************************************

            Population analysis using the SCF density.

 **********************************************************************

 Orbital symmetries:
       Occupied  (A') (A') (A') (A') (A") (A') (A') (A') (A') (A')
                 (A") (A') (A') (A") (A") (A') (A') (A') (A') (A')
                 (A') (A") (A") (A') (A') (A")
       Virtual   (A') (A') (A') (A") (A') (A') (A') (A') (A") (A')
                 (A") (A') (A') (A") (A") (A') (A') (A') (A") (A')
                 (A') (A') (A') (A") (A") (A') (A") (A') (A') (A')
                 (A") (A") (A') (A') (A') (A") (A') (A') (A") (A")
                 (A') (A') (A') (A') (A") (A') (A') (A") (A") (A')
                 (A') (A") (A') (A') (A') (A') (A') (A") (A") (A')
                 (A') (A") (A') (A") (A') (A') (A") (A") (A') (A')
                 (A") (A") (A') (A') (A') (A') (A') (A') (A") (A")
                 (A') (A') (A") (A') (A") (A") (A') (A') (A") (A")
                 (A') (A') (A') (A') (A') (A") (A') (A') (A") (A')
                 (A") (A') (A") (A') (A') (A') (A") (A') (A") (A")
                 (A') (A') (A') (A") (A") (A') (A') (A") (A") (A')
                 (A') (A') (A') (A") (A") (A') (A') (A') (A") (A")
                 (A') (A') (A') (A') (A') (A") (A') (A') (A") (A")
                 (A') (A') (A') (A") (A") (A') (A") (A') (A") (A')
                 (A') (A") (A") (A') (A") (A') (A") (A') (A') (A')
                 (A") (A') (A') (A") (A') (A") (A') (A") (A') (A')
                 (A") (A") (A') (A") (A') (A') (A') (A') (A') (A")
                 (A") (A') (A') (A") (A') (A") (A') (A') (A') (A')
                 (A") (A') (A') (A") (A") (A') (A') (A') (A') (A')
                 (A') (A') (A') (A')
 The electronic state is 1-A'.
 Alpha  occ. eigenvalues -- -456.48149 -59.01125 -53.07355 -53.07245 -53.06860
 Alpha  occ. eigenvalues --  -25.27005 -25.24844  -8.25191  -6.19391  -6.18976
 Alpha  occ. eigenvalues --   -6.17571  -2.46771  -2.46711  -2.45251  -2.44893
 Alpha  occ. eigenvalues --   -2.44597  -1.35292  -1.30542  -0.80935  -0.58687
 Alpha  occ. eigenvalues --   -0.57685  -0.56753  -0.52257  -0.50531  -0.50294
 Alpha  occ. eigenvalues --   -0.33233
 Alpha virt. eigenvalues --   -0.09327  -0.04095   0.00855   0.02504   0.03137
 Alpha virt. eigenvalues --    0.04292   0.07592   0.09126   0.09628   0.09740
 Alpha virt. eigenvalues --    0.09956   0.13934   0.16262   0.16722   0.17066
 Alpha virt. eigenvalues --    0.18568   0.19102   0.25102   0.27525   0.28354
 Alpha virt. eigenvalues --    0.29070   0.31539   0.36583   0.39518   0.41312
 Alpha virt. eigenvalues --    0.42565   0.43961   0.46337   0.49979   0.51009
 Alpha virt. eigenvalues --    0.51951   0.53156   0.54599   0.55497   0.56039
 Alpha virt. eigenvalues --    0.58763   0.62062   0.64271   0.66391   0.68466
 Alpha virt. eigenvalues --    0.72194   0.79504   0.82039   0.87413   0.92109
 Alpha virt. eigenvalues --    0.96456   0.97253   0.98562   1.05112   1.06066
 Alpha virt. eigenvalues --    1.12240   1.12724   1.13793   1.22214   1.31520
 Alpha virt. eigenvalues --    1.37155   1.42965   1.47456   1.49223   1.55504
 Alpha virt. eigenvalues --    1.65109   1.67627   1.70320   1.71254   1.74051
 Alpha virt. eigenvalues --    1.78580   1.78811   1.80609   1.83446   1.85146
 Alpha virt. eigenvalues --    1.85811   1.88350   1.91896   1.99534   2.01792
 Alpha virt. eigenvalues --    2.03969   2.22521   2.27623   2.32175   2.36012
 Alpha virt. eigenvalues --    2.39112   2.41509   2.41863   2.43832   2.44423
 Alpha virt. eigenvalues --    2.46836   2.64426   2.71548   2.78133   2.87837
 Alpha virt. eigenvalues --    2.90113   2.91727   3.11873   3.29690   3.76387
 Alpha virt. eigenvalues --    3.78088   3.81565   4.15976   4.18196   4.20158
 Alpha virt. eigenvalues --    4.20388   4.22847   4.25877   4.26065   4.27753
 Alpha virt. eigenvalues --    4.34601   4.36334   4.38936   4.39578   4.42584
 Alpha virt. eigenvalues --    4.48092   4.56134   4.73640   4.74003   4.84074
 Alpha virt. eigenvalues --    4.87282   5.20897   5.27418   5.28731   5.30554
 Alpha virt. eigenvalues --    5.31435   5.44498   5.51686   5.51705   5.57696
 Alpha virt. eigenvalues --    5.65890   6.02410   6.20081   6.40816   6.43549
 Alpha virt. eigenvalues --    6.50029   6.52684   6.90423   7.15021   7.18883
 Alpha virt. eigenvalues --    8.45724   8.48826   8.50942   8.51009   8.53413
 Alpha virt. eigenvalues --    8.72873   8.86882  11.29395  11.29492  11.29950
 Alpha virt. eigenvalues --   11.30121  11.32390  11.32423  11.32429  11.32760
 Alpha virt. eigenvalues --   11.33076  11.33249  11.34041  11.34203  11.35160
 Alpha virt. eigenvalues --   11.35184  11.35641  11.35741  11.41242  11.46252
 Alpha virt. eigenvalues --   12.81637  13.14019  13.16840  14.41124  14.41351
 Alpha virt. eigenvalues --   14.43436  14.43510  14.43976  14.47420  14.48886
 Alpha virt. eigenvalues --   14.50162  14.63215  14.65469  14.68688  14.70284
 Alpha virt. eigenvalues --   14.83196  14.87869  15.19599  15.43606  15.83421
 Alpha virt. eigenvalues --   15.85289  15.85296  15.86888  15.97100  15.97502
 Alpha virt. eigenvalues --   15.99242  16.06776  16.40388  16.45629  24.95054
 Alpha virt. eigenvalues --   30.64881  30.66402  30.67834  30.67853  30.69251
 Alpha virt. eigenvalues --   30.76367  30.83937  54.19030  54.30292  81.46753
 Alpha virt. eigenvalues --  278.62565 283.03425 283.177101599.95208
          Condensed to atoms (all electrons):
               1          2          3
     1  Se  33.214302   0.107318   0.096406
     2  F    0.107318   9.211484  -0.010107
     3  F    0.096406  -0.010107   9.186978
 Mulliken charges:
               1
     1  Se   0.581974
     2  F   -0.308696
     3  F   -0.273278
 Sum of Mulliken charges =  -0.00000
 Mulliken charges with hydrogens summed into heavy atoms:
               1
     1  Se   0.581974
     2  F   -0.308696
     3  F   -0.273278
 Electronic spatial extent (au):  <R**2>=            238.2278
 Charge=             -0.0000 electrons
 Dipole moment (field-independent basis, Debye):
    X=             -0.3323    Y=              2.8979    Z=              0.0000  Tot=              2.9169
 Quadrupole moment (field-independent basis, Debye-Ang):
   XX=            -29.2364   YY=            -27.2810   ZZ=            -28.7322
   XY=              0.3992   XZ=              0.0000   YZ=              0.0000
 Traceless Quadrupole moment (field-independent basis, Debye-Ang):
   XX=             -0.8199   YY=              1.1355   ZZ=             -0.3156
   XY=              0.3992   XZ=              0.0000   YZ=              0.0000
 Octapole moment (field-independent basis, Debye-Ang**2):
  XXX=             -0.9320  YYY=              5.7295  ZZZ=              0.0000  XYY=             -0.7587
  XXY=              5.5235  XXZ=              0.0000  XZZ=             -0.2891  YZZ=             -0.7569
  YYZ=              0.0000  XYZ=              0.0000
 Hexadecapole moment (field-independent basis, Debye-Ang**3):
 XXXX=           -124.3677 YYYY=            -89.8427 ZZZZ=            -32.5394 XXXY=              3.8958
 XXXZ=              0.0000 YYYX=              3.5697 YYYZ=              0.0000 ZZZX=              0.0000
 ZZZY=              0.0000 XXYY=            -35.2772 XXZZ=            -25.1342 YYZZ=            -21.9725
 XXYZ=              0.0000 YYXZ=              0.0000 ZZXY=              1.0939
 N-N= 1.948745144370D+02 E-N=-6.604559744755D+03  KE= 2.595458618577D+03
 PrsmSu:  requested number of processors reduced to:  21 ShMem   1 Linda.
 No NMR shielding tensors so no spin-rotation constants.
 Leave Link  601 at Sat Apr 17 19:30:06 2021, MaxMem=   104857600 cpu:             140.0 elap:               3.1
 (Enter /s/ls4/users/knvvv/bin/g16sse/l801.exe)
 DoSCS=F DFT=T ScalE2(SS,OS)=  1.000000  1.000000
 Range of M.O.s used for correlation:     1   230
 NBasis=   230 NAE=    26 NBE=    26 NFC=     0 NFV=     0
 NROrb=    230 NOA=    26 NOB=    26 NVA=   204 NVB=   204

 **** Warning!!: The largest alpha MO coefficient is  0.15171327D+02

 Leave Link  801 at Sat Apr 17 19:30:06 2021, MaxMem=   104857600 cpu:               3.7 elap:               0.1
 (Enter /s/ls4/users/knvvv/bin/g16sse/l914.exe)
 RHF ground state
 Doing stability rather than CIS.
 Two-electron integrals replicated using symmetry.
 MDV=   104857600 DFT=T DoStab=T Mixed=T DoRPA=F DoScal=F NonHer=F
 Making orbital integer symmetry assigments:
 Orbital symmetries:
       Occupied  (A') (A') (A') (A') (A") (A') (A') (A') (A') (A')
                 (A") (A') (A') (A") (A") (A') (A') (A') (A') (A')
                 (A') (A") (A") (A') (A') (A")
       Virtual   (A') (A') (A') (A") (A') (A') (A') (A') (A") (A')
                 (A") (A') (A') (A") (A") (A') (A') (A') (A") (A')
                 (A') (A') (A') (A") (A") (A') (A") (A') (A') (A')
                 (A") (A") (A') (A') (A') (A") (A') (A') (A") (A")
                 (A') (A') (A') (A') (A") (A') (A') (A") (A") (A')
                 (A') (A") (A') (A') (A') (A') (A') (A") (A") (A')
                 (A') (A") (A') (A") (A') (A') (A") (A") (A') (A')
                 (A") (A") (A') (A') (A') (A') (A') (A') (A") (A")
                 (A') (A') (A") (A') (A") (A") (A') (A') (A") (A")
                 (A') (A') (A') (A') (A') (A") (A') (A') (A") (A')
                 (A") (A') (A") (A') (A') (A') (A") (A') (A") (A")
                 (A') (A') (A') (A") (A") (A') (A') (A") (A") (A')
                 (A') (A') (A') (A") (A") (A') (A') (A') (A") (A")
                 (A') (A') (A') (A') (A') (A") (A') (A') (A") (A")
                 (A') (A') (A') (A") (A") (A') (A") (A') (A") (A')
                 (A') (A") (A") (A') (A") (A') (A") (A') (A') (A')
                 (A") (A') (A') (A") (A') (A") (A') (A") (A') (A')
                 (A") (A") (A') (A") (A') (A') (A') (A') (A') (A")
                 (A") (A') (A') (A") (A') (A") (A') (A') (A') (A')
                 (A") (A') (A') (A") (A") (A') (A') (A') (A') (A')
                 (A') (A') (A') (A')
    24 initial guesses have been made.
 Convergence on wavefunction:    0.001000000000000
 Davidson Disk Diagonalization:  ConvIn= 1.00D-03 SkipCon=T Conv= 1.00D-03.
 Max sub-space:  2000 roots to seek:    24 dimension of matrix:        10608
 Iteration     1 Dimension    24 NMult     0 NNew     24
 Estimated number of processors is:   19
 CISAX will form     1 AO SS matrices at one time.
 NMat=     1 NSing=     1 JSym2X= 2.
 FoFJK:  IHMeth= 1 ICntrl=       0 DoSepK=F KAlg= 0 I1Cent=           0 FoldK=F
 IRaf= 960000000 NMat=       1 IRICut=       1 DoRegI=T DoRafI=F ISym2E= 2 IDoP0=0 IntGTp=1.
 FoFCou: FMM=F IPFlag=           0 FMFlag=      100000 FMFlg1=           0
         NFxFlg=           0 DoJE=F BraDBF=F KetDBF=F FulRan=T
         wScrn=  0.000000 ICntrl=         0 IOpCl=  0 I1Cent=           0 NGrid=           0
         NMat0=    1 NMatS0=      1 NMatT0=    0 NMatD0=    1 NMtDS0=    0 NMtDT0=    0
 Integrals replicated using symmetry in FoFCou.
 CoulSu:  requested number of processors reduced to:  21 ShMem   1 Linda.
 NMat=     1 NSing=     1 JSym2X= 2.
 CoulSu:  requested number of processors reduced to:  21 ShMem   1 Linda.
 NMat=     1 NSing=     1 JSym2X= 2.
 CoulSu:  requested number of processors reduced to:  21 ShMem   1 Linda.
 NMat=     1 NSing=     1 JSym2X= 2.
 CoulSu:  requested number of processors reduced to:  21 ShMem   1 Linda.
 NMat=     1 NSing=     1 JSym2X= 2.
 CoulSu:  requested number of processors reduced to:  21 ShMem   1 Linda.
 NMat=     1 NSing=     1 JSym2X= 2.
 CoulSu:  requested number of processors reduced to:  21 ShMem   1 Linda.
 NMat=     1 NSing=     1 JSym2X= 2.
 CoulSu:  requested number of processors reduced to:  21 ShMem   1 Linda.
 NMat=     1 NSing=     1 JSym2X= 2.
 CoulSu:  requested number of processors reduced to:  21 ShMem   1 Linda.
 NMat=     1 NSing=     1 JSym2X= 2.
 CoulSu:  requested number of processors reduced to:  21 ShMem   1 Linda.
 NMat=     1 NSing=     1 JSym2X= 2.
 CoulSu:  requested number of processors reduced to:  21 ShMem   1 Linda.
 NMat=     1 NSing=     1 JSym2X= 2.
 CoulSu:  requested number of processors reduced to:  21 ShMem   1 Linda.
 NMat=     1 NSing=     1 JSym2X= 2.
 CoulSu:  requested number of processors reduced to:  21 ShMem   1 Linda.
 NMat=     1 NSing=     0 JSym2X= 2.
 CoulSu:  requested number of processors reduced to:  21 ShMem   1 Linda.
 NMat=     1 NSing=     0 JSym2X= 2.
 CoulSu:  requested number of processors reduced to:  21 ShMem   1 Linda.
 NMat=     1 NSing=     0 JSym2X= 2.
 CoulSu:  requested number of processors reduced to:  21 ShMem   1 Linda.
 NMat=     1 NSing=     0 JSym2X= 2.
 CoulSu:  requested number of processors reduced to:  21 ShMem   1 Linda.
 NMat=     1 NSing=     0 JSym2X= 2.
 CoulSu:  requested number of processors reduced to:  21 ShMem   1 Linda.
 NMat=     1 NSing=     0 JSym2X= 2.
 CoulSu:  requested number of processors reduced to:  21 ShMem   1 Linda.
 NMat=     1 NSing=     0 JSym2X= 2.
 CoulSu:  requested number of processors reduced to:  21 ShMem   1 Linda.
 NMat=     1 NSing=     0 JSym2X= 2.
 CoulSu:  requested number of processors reduced to:  21 ShMem   1 Linda.
 NMat=     1 NSing=     0 JSym2X= 2.
 CoulSu:  requested number of processors reduced to:  21 ShMem   1 Linda.
 NMat=     1 NSing=     0 JSym2X= 2.
 CoulSu:  requested number of processors reduced to:  21 ShMem   1 Linda.
 NMat=     1 NSing=     0 JSym2X= 2.
 CoulSu:  requested number of processors reduced to:  21 ShMem   1 Linda.
 NMat=     1 NSing=     0 JSym2X= 2.
 CoulSu:  requested number of processors reduced to:  21 ShMem   1 Linda.
 New state      1 was old state      2
 Excitation Energies [eV] at current iteration:
 Root      1 :     1.358849097018834
 Root      2 :     2.913430157339806
 Root      3 :     2.916050824706253
 Root      4 :     5.257939364202697
 Root      5 :     5.470062480527865
 Root      6 :     6.832271288104226
 Root      7 :     7.070617216756309
 Root      8 :     7.156580897428234
 Root      9 :     7.309198774427434
 Root     10 :     7.452123035100052
 Root     11 :     7.784702411949132
 Root     12 :     7.850421595935210
 Root     13 :     7.864333292544506
 Root     14 :     8.015081438237669
 Root     15 :     8.079312608549852
 Root     16 :     8.200873685123693
 Root     17 :     8.307452551340017
 Root     18 :     9.200193538090650
 Root     19 :     9.255051049968349
 Root     20 :     9.433437801457080
 Root     21 :     9.480970580909620
 Root     22 :     9.543204984034576
 Root     23 :     9.609230205410030
 Root     24 :    12.140455523924690
 Iteration     2 Dimension    48 NMult    24 NNew     24
 Estimated number of processors is:   19
 CISAX will form     1 AO SS matrices at one time.
 NMat=     1 NSing=     1 JSym2X= 2.
 CoulSu:  requested number of processors reduced to:  21 ShMem   1 Linda.
 NMat=     1 NSing=     1 JSym2X= 2.
 CoulSu:  requested number of processors reduced to:  21 ShMem   1 Linda.
 NMat=     1 NSing=     1 JSym2X= 2.
 CoulSu:  requested number of processors reduced to:  21 ShMem   1 Linda.
 NMat=     1 NSing=     1 JSym2X= 2.
 CoulSu:  requested number of processors reduced to:  21 ShMem   1 Linda.
 NMat=     1 NSing=     1 JSym2X= 2.
 CoulSu:  requested number of processors reduced to:  21 ShMem   1 Linda.
 NMat=     1 NSing=     1 JSym2X= 2.
 CoulSu:  requested number of processors reduced to:  21 ShMem   1 Linda.
 NMat=     1 NSing=     1 JSym2X= 2.
 CoulSu:  requested number of processors reduced to:  21 ShMem   1 Linda.
 NMat=     1 NSing=     1 JSym2X= 2.
 CoulSu:  requested number of processors reduced to:  21 ShMem   1 Linda.
 NMat=     1 NSing=     1 JSym2X= 2.
 CoulSu:  requested number of processors reduced to:  21 ShMem   1 Linda.
 NMat=     1 NSing=     1 JSym2X= 2.
 CoulSu:  requested number of processors reduced to:  21 ShMem   1 Linda.
 NMat=     1 NSing=     1 JSym2X= 2.
 CoulSu:  requested number of processors reduced to:  21 ShMem   1 Linda.
 NMat=     1 NSing=     1 JSym2X= 2.
 CoulSu:  requested number of processors reduced to:  21 ShMem   1 Linda.
 NMat=     1 NSing=     0 JSym2X= 2.
 CoulSu:  requested number of processors reduced to:  21 ShMem   1 Linda.
 NMat=     1 NSing=     0 JSym2X= 2.
 CoulSu:  requested number of processors reduced to:  21 ShMem   1 Linda.
 NMat=     1 NSing=     0 JSym2X= 2.
 CoulSu:  requested number of processors reduced to:  21 ShMem   1 Linda.
 NMat=     1 NSing=     0 JSym2X= 2.
 CoulSu:  requested number of processors reduced to:  21 ShMem   1 Linda.
 NMat=     1 NSing=     0 JSym2X= 2.
 CoulSu:  requested number of processors reduced to:  21 ShMem   1 Linda.
 NMat=     1 NSing=     0 JSym2X= 2.
 CoulSu:  requested number of processors reduced to:  21 ShMem   1 Linda.
 NMat=     1 NSing=     0 JSym2X= 2.
 CoulSu:  requested number of processors reduced to:  21 ShMem   1 Linda.
 NMat=     1 NSing=     0 JSym2X= 2.
 CoulSu:  requested number of processors reduced to:  21 ShMem   1 Linda.
 NMat=     1 NSing=     0 JSym2X= 2.
 CoulSu:  requested number of processors reduced to:  21 ShMem   1 Linda.
 NMat=     1 NSing=     0 JSym2X= 2.
 CoulSu:  requested number of processors reduced to:  21 ShMem   1 Linda.
 NMat=     1 NSing=     0 JSym2X= 2.
 CoulSu:  requested number of processors reduced to:  21 ShMem   1 Linda.
 NMat=     1 NSing=     0 JSym2X= 2.
 CoulSu:  requested number of processors reduced to:  21 ShMem   1 Linda.
 Root      1 not converged, maximum delta is    0.053137977229248
 Excitation Energies [eV] at current iteration:
 Root      1 :     0.984524611766429   Change is   -0.374324485252406
 Root      2 :     2.556506278013650   Change is   -0.359544546692603
 Root      3 :     2.658475489936337   Change is   -0.254954667403468
 Root      4 :     4.101723001732590   Change is   -1.368339478795275
 Root      5 :     4.583450792223565   Change is   -0.674488571979131
 Root      6 :     5.978093176012178   Change is   -0.854178112092048
 Root      7 :     6.366674919967179   Change is   -0.942523854460255
 Root      8 :     6.913942358937816   Change is   -0.156674857818494
 Root      9 :     7.018492824738945   Change is   -0.138088072689289
 Root     10 :     7.067410976502236   Change is   -0.384712058597816
 Root     11 :     7.514120343211207   Change is   -0.336301252724004
 Root     12 :     7.683680335457506   Change is   -0.101022076491626
 Root     13 :     7.784395576603636   Change is   -0.079937715940871
 Root     14 :     7.914275046974457   Change is   -0.100806391263211
 Root     15 :     7.926907355661088   Change is   -4.213548168263607
 Root     16 :     7.967643473407494   Change is   -0.111669135142359
 Root     17 :     8.079178784386260   Change is   -0.121694900737433
 Root     18 :     8.144386723472696   Change is   -0.163065827867321
 Root     19 :     9.133280670065286   Change is   -0.066912868025363
 Root     20 :     9.183002077551688   Change is   -0.072048972416662
 Root     21 :     9.293465948986974   Change is   -0.187504631922647
 Root     22 :     9.309116963402753   Change is   -0.300113242007278
 Root     23 :     9.404741986210119   Change is   -0.028695815246961
 Root     24 :     9.428185675745121   Change is   -0.115019308289454
 Iteration     3 Dimension    54 NMult    48 NNew      6
 Estimated number of processors is:   19
 CISAX will form     1 AO SS matrices at one time.
 NMat=     1 NSing=     1 JSym2X= 2.
 CoulSu:  requested number of processors reduced to:  21 ShMem   1 Linda.
 NMat=     1 NSing=     1 JSym2X= 2.
 CoulSu:  requested number of processors reduced to:  21 ShMem   1 Linda.
 NMat=     1 NSing=     1 JSym2X= 2.
 CoulSu:  requested number of processors reduced to:  21 ShMem   1 Linda.
 NMat=     1 NSing=     0 JSym2X= 2.
 CoulSu:  requested number of processors reduced to:  21 ShMem   1 Linda.
 NMat=     1 NSing=     0 JSym2X= 2.
 CoulSu:  requested number of processors reduced to:  21 ShMem   1 Linda.
 NMat=     1 NSing=     0 JSym2X= 2.
 CoulSu:  requested number of processors reduced to:  21 ShMem   1 Linda.
 Root      1 not converged, maximum delta is    0.003978058391483
 Excitation Energies [eV] at current iteration:
 Root      1 :     0.981427082025900   Change is   -0.003097529740529
 Root      2 :     2.553151599417950   Change is   -0.003354678595701
 Root      3 :     2.650391238242234   Change is   -0.008084251694103
 Root      4 :     3.998515429076561   Change is   -0.103207572656029
 Root      5 :     4.559264089131461   Change is   -0.024186703092104
 Root      6 :     7.010237941294761   Change is   -0.008254883444183
 Iteration     4 Dimension    60 NMult    54 NNew      6
 Estimated number of processors is:   19
 CISAX will form     1 AO SS matrices at one time.
 NMat=     1 NSing=     1 JSym2X= 2.
 CoulSu:  requested number of processors reduced to:  21 ShMem   1 Linda.
 NMat=     1 NSing=     1 JSym2X= 2.
 CoulSu:  requested number of processors reduced to:  21 ShMem   1 Linda.
 NMat=     1 NSing=     1 JSym2X= 2.
 CoulSu:  requested number of processors reduced to:  21 ShMem   1 Linda.
 NMat=     1 NSing=     0 JSym2X= 2.
 CoulSu:  requested number of processors reduced to:  21 ShMem   1 Linda.
 NMat=     1 NSing=     0 JSym2X= 2.
 CoulSu:  requested number of processors reduced to:  21 ShMem   1 Linda.
 NMat=     1 NSing=     0 JSym2X= 2.
 CoulSu:  requested number of processors reduced to:  21 ShMem   1 Linda.
 Root      1 has converged.
 Excitation Energies [eV] at current iteration:
 Root      1 :     0.981360047934523   Change is   -0.000067034091377
 Root      2 :     2.553016995865676   Change is   -0.000134603552273
 Root      3 :     2.649942903943018   Change is   -0.000448334299216
 Root      4 :     3.975118732917911   Change is   -0.023396696158651
 Root      5 :     4.557646700953145   Change is   -0.001617388178316
 Root      6 :     7.008815088612129   Change is   -0.001422852682632
 Convergence achieved on expansion vectors.
 ***********************************************************************
 Stability analysis using <AA,BB:AA,BB> singles matrix:
 ***********************************************************************
 1PDM for each excited state written to RWF  633
 Ground to excited state transition densities written to RWF  633

 Eigenvectors of the stability matrix:
 
 Eigenvector   1:      Triplet-A"   Eigenvalue= 0.0360643  <S**2>=2.000
      26 -> 27         0.69094
 The wavefunction is stable under the perturbations considered.
 Leave Link  914 at Sat Apr 17 19:33:34 2021, MaxMem=   104857600 cpu:            7489.5 elap:             207.8
 (Enter /s/ls4/users/knvvv/bin/g16sse/l508.exe)
 The wavefunction is already stable.
 Leave Link  508 at Sat Apr 17 19:33:34 2021, MaxMem=   104857600 cpu:               2.2 elap:               0.1
 (Enter /s/ls4/users/knvvv/bin/g16sse/l601.exe)
 Copying SCF densities to generalized density rwf, IOpCl= 0 IROHF=0.

 **********************************************************************

            Population analysis using the SCF density.

 **********************************************************************

 Orbital symmetries:
       Occupied  (A') (A') (A') (A') (A") (A') (A') (A') (A') (A')
                 (A") (A') (A') (A") (A") (A') (A') (A') (A') (A')
                 (A') (A") (A") (A') (A') (A")
       Virtual   (A') (A') (A') (A") (A') (A') (A') (A') (A") (A')
                 (A") (A') (A') (A") (A") (A') (A') (A') (A") (A')
                 (A') (A') (A') (A") (A") (A') (A") (A') (A') (A')
                 (A") (A") (A') (A') (A') (A") (A') (A') (A") (A")
                 (A') (A') (A') (A') (A") (A') (A') (A") (A") (A')
                 (A') (A") (A') (A') (A') (A') (A') (A") (A") (A')
                 (A') (A") (A') (A") (A') (A') (A") (A") (A') (A')
                 (A") (A") (A') (A') (A') (A') (A') (A') (A") (A")
                 (A') (A') (A") (A') (A") (A") (A') (A') (A") (A")
                 (A') (A') (A') (A') (A') (A") (A') (A') (A") (A')
                 (A") (A') (A") (A') (A') (A') (A") (A') (A") (A")
                 (A') (A') (A') (A") (A") (A') (A') (A") (A") (A')
                 (A') (A') (A') (A") (A") (A') (A') (A') (A") (A")
                 (A') (A') (A') (A') (A') (A") (A') (A') (A") (A")
                 (A') (A') (A') (A") (A") (A') (A") (A') (A") (A')
                 (A') (A") (A") (A') (A") (A') (A") (A') (A') (A')
                 (A") (A') (A') (A") (A') (A") (A') (A") (A') (A')
                 (A") (A") (A') (A") (A') (A') (A') (A') (A') (A")
                 (A") (A') (A') (A") (A') (A") (A') (A') (A') (A')
                 (A") (A') (A') (A") (A") (A') (A') (A') (A') (A')
                 (A') (A') (A') (A')
 The electronic state is 1-A'.
 Alpha  occ. eigenvalues -- -456.48149 -59.01125 -53.07355 -53.07245 -53.06860
 Alpha  occ. eigenvalues --  -25.27005 -25.24844  -8.25191  -6.19391  -6.18976
 Alpha  occ. eigenvalues --   -6.17571  -2.46771  -2.46711  -2.45251  -2.44893
 Alpha  occ. eigenvalues --   -2.44597  -1.35292  -1.30542  -0.80935  -0.58687
 Alpha  occ. eigenvalues --   -0.57685  -0.56753  -0.52257  -0.50531  -0.50294
 Alpha  occ. eigenvalues --   -0.33233
 Alpha virt. eigenvalues --   -0.09327  -0.04095   0.00855   0.02504   0.03137
 Alpha virt. eigenvalues --    0.04292   0.07592   0.09126   0.09628   0.09740
 Alpha virt. eigenvalues --    0.09956   0.13934   0.16262   0.16722   0.17066
 Alpha virt. eigenvalues --    0.18568   0.19102   0.25102   0.27525   0.28354
 Alpha virt. eigenvalues --    0.29070   0.31539   0.36583   0.39518   0.41312
 Alpha virt. eigenvalues --    0.42565   0.43961   0.46337   0.49979   0.51009
 Alpha virt. eigenvalues --    0.51951   0.53156   0.54599   0.55497   0.56039
 Alpha virt. eigenvalues --    0.58763   0.62062   0.64271   0.66391   0.68466
 Alpha virt. eigenvalues --    0.72194   0.79504   0.82039   0.87413   0.92109
 Alpha virt. eigenvalues --    0.96456   0.97253   0.98562   1.05112   1.06066
 Alpha virt. eigenvalues --    1.12240   1.12724   1.13793   1.22214   1.31520
 Alpha virt. eigenvalues --    1.37155   1.42965   1.47456   1.49223   1.55504
 Alpha virt. eigenvalues --    1.65109   1.67627   1.70320   1.71254   1.74051
 Alpha virt. eigenvalues --    1.78580   1.78811   1.80609   1.83446   1.85146
 Alpha virt. eigenvalues --    1.85811   1.88350   1.91896   1.99534   2.01792
 Alpha virt. eigenvalues --    2.03969   2.22521   2.27623   2.32175   2.36012
 Alpha virt. eigenvalues --    2.39112   2.41509   2.41863   2.43832   2.44423
 Alpha virt. eigenvalues --    2.46836   2.64426   2.71548   2.78133   2.87837
 Alpha virt. eigenvalues --    2.90113   2.91727   3.11873   3.29690   3.76387
 Alpha virt. eigenvalues --    3.78088   3.81565   4.15976   4.18196   4.20158
 Alpha virt. eigenvalues --    4.20388   4.22847   4.25877   4.26065   4.27753
 Alpha virt. eigenvalues --    4.34601   4.36334   4.38936   4.39578   4.42584
 Alpha virt. eigenvalues --    4.48092   4.56134   4.73640   4.74003   4.84074
 Alpha virt. eigenvalues --    4.87282   5.20897   5.27418   5.28731   5.30554
 Alpha virt. eigenvalues --    5.31435   5.44498   5.51686   5.51705   5.57696
 Alpha virt. eigenvalues --    5.65890   6.02410   6.20081   6.40816   6.43549
 Alpha virt. eigenvalues --    6.50029   6.52684   6.90423   7.15021   7.18883
 Alpha virt. eigenvalues --    8.45724   8.48826   8.50942   8.51009   8.53413
 Alpha virt. eigenvalues --    8.72873   8.86882  11.29395  11.29492  11.29950
 Alpha virt. eigenvalues --   11.30121  11.32390  11.32423  11.32429  11.32760
 Alpha virt. eigenvalues --   11.33076  11.33249  11.34041  11.34203  11.35160
 Alpha virt. eigenvalues --   11.35184  11.35641  11.35741  11.41242  11.46252
 Alpha virt. eigenvalues --   12.81637  13.14019  13.16840  14.41124  14.41351
 Alpha virt. eigenvalues --   14.43436  14.43510  14.43976  14.47420  14.48886
 Alpha virt. eigenvalues --   14.50162  14.63215  14.65469  14.68688  14.70284
 Alpha virt. eigenvalues --   14.83196  14.87869  15.19599  15.43606  15.83421
 Alpha virt. eigenvalues --   15.85289  15.85296  15.86888  15.97100  15.97502
 Alpha virt. eigenvalues --   15.99242  16.06776  16.40388  16.45629  24.95054
 Alpha virt. eigenvalues --   30.64881  30.66402  30.67834  30.67853  30.69251
 Alpha virt. eigenvalues --   30.76367  30.83937  54.19030  54.30292  81.46753
 Alpha virt. eigenvalues --  278.62565 283.03425 283.177101599.95208
          Condensed to atoms (all electrons):
               1          2          3
     1  Se  33.214302   0.107318   0.096406
     2  F    0.107318   9.211484  -0.010107
     3  F    0.096406  -0.010107   9.186978
 Mulliken charges:
               1
     1  Se   0.581974
     2  F   -0.308696
     3  F   -0.273278
 Sum of Mulliken charges =  -0.00000
 Mulliken charges with hydrogens summed into heavy atoms:
               1
     1  Se   0.581974
     2  F   -0.308696
     3  F   -0.273278
 Electronic spatial extent (au):  <R**2>=            238.2278
 Charge=             -0.0000 electrons
 Dipole moment (field-independent basis, Debye):
    X=             -0.3323    Y=              2.8979    Z=              0.0000  Tot=              2.9169
 Quadrupole moment (field-independent basis, Debye-Ang):
   XX=            -29.2364   YY=            -27.2810   ZZ=            -28.7322
   XY=              0.3992   XZ=              0.0000   YZ=              0.0000
 Traceless Quadrupole moment (field-independent basis, Debye-Ang):
   XX=             -0.8199   YY=              1.1355   ZZ=             -0.3156
   XY=              0.3992   XZ=              0.0000   YZ=              0.0000
 Octapole moment (field-independent basis, Debye-Ang**2):
  XXX=             -0.9320  YYY=              5.7295  ZZZ=              0.0000  XYY=             -0.7587
  XXY=              5.5235  XXZ=              0.0000  XZZ=             -0.2891  YZZ=             -0.7569
  YYZ=              0.0000  XYZ=              0.0000
 Hexadecapole moment (field-independent basis, Debye-Ang**3):
 XXXX=           -124.3677 YYYY=            -89.8427 ZZZZ=            -32.5394 XXXY=              3.8958
 XXXZ=              0.0000 YYYX=              3.5697 YYYZ=              0.0000 ZZZX=              0.0000
 ZZZY=              0.0000 XXYY=            -35.2772 XXZZ=            -25.1342 YYZZ=            -21.9725
 XXYZ=              0.0000 YYXZ=              0.0000 ZZXY=              1.0939
 N-N= 1.948745144370D+02 E-N=-6.604559744755D+03  KE= 2.595458618577D+03
 PrsmSu:  requested number of processors reduced to:  21 ShMem   1 Linda.
 No NMR shielding tensors so no spin-rotation constants.
 Leave Link  601 at Sat Apr 17 19:33:37 2021, MaxMem=   104857600 cpu:             135.5 elap:               3.0
 (Enter /s/ls4/users/knvvv/bin/g16sse/l9999.exe)

 Test job not archived.
 1\1\GINC-N148\Stability\RM062X\Gen\F2Se1\KNVVV\17-Apr-2021\0\\#P M062X
 /GEN Integral=UltraFineGrid SCF=NoSymm Stable=(RExt, Opt) IOp(1/33=1)\
 \Database calculations.\\0,1\Se,0,0.3636809596,-0.2976354279,0.\F,0,2.
 2415481922,-0.2916192381,0.\F,0,0.4537546008,1.4686053863,0.\\Version=
 ES64L-G16RevA.03\State=1-A'\HF=-2601.3064867\RMSD=4.350e-09\Dipole=-0.
 9346858,-0.6658244,0.\Quadrupole=-0.102021,0.3366904,-0.2346694,0.7539
 225,0.,0.\PG=CS [SG(F2Se1)]\\@


 THE ATTENTION SPAN OF A COMPUTER IS AS LONG
 AS ITS EXTENSION CORD.
 Job cpu time:       0 days  2 hours 34 minutes  2.3 seconds.
 Elapsed time:       0 days  0 hours  4 minutes 15.7 seconds.
 File lengths (MBytes):  RWF=    269 Int=      0 D2E=      0 Chk=      9 Scr=      1
 Normal termination of Gaussian 16 at Sat Apr 17 19:33:37 2021.
