 Entering Gaussian System, Link 0=/s/ls4/users/knvvv/bin/g16sse/g16
 Input=data/database/M062X--def2-QZVP--DARC_butadiene.gjf
 Output=data/database/M062X--def2-QZVP--DARC_butadiene.log
 Initial command:
 /s/ls4/users/knvvv/bin/g16sse/l1.exe "/s/ls4/users/knvvv/bin/scratch/Gau-47115.inp" -scrdir="/s/ls4/users/knvvv/bin/scratch/"
 Entering Link 1 = /s/ls4/users/knvvv/bin/g16sse/l1.exe PID=     47116.
  
 Copyright (c) 1988,1990,1992,1993,1995,1998,2003,2009,2016,
            Gaussian, Inc.  All Rights Reserved.
  
 This is part of the Gaussian(R) 16 program.  It is based on
 the Gaussian(R) 09 system (copyright 2009, Gaussian, Inc.),
 the Gaussian(R) 03 system (copyright 2003, Gaussian, Inc.),
 the Gaussian(R) 98 system (copyright 1998, Gaussian, Inc.),
 the Gaussian(R) 94 system (copyright 1995, Gaussian, Inc.),
 the Gaussian 92(TM) system (copyright 1992, Gaussian, Inc.),
 the Gaussian 90(TM) system (copyright 1990, Gaussian, Inc.),
 the Gaussian 88(TM) system (copyright 1988, Gaussian, Inc.),
 the Gaussian 86(TM) system (copyright 1986, Carnegie Mellon
 University), and the Gaussian 82(TM) system (copyright 1983,
 Carnegie Mellon University). Gaussian is a federally registered
 trademark of Gaussian, Inc.
  
 This software contains proprietary and confidential information,
 including trade secrets, belonging to Gaussian, Inc.
  
 This software is provided under written license and may be
 used, copied, transmitted, or stored only in accord with that
 written license.
  
 The following legend is applicable only to US Government
 contracts under FAR:
  
                    RESTRICTED RIGHTS LEGEND
  
 Use, reproduction and disclosure by the US Government is
 subject to restrictions as set forth in subparagraphs (a)
 and (c) of the Commercial Computer Software - Restricted
 Rights clause in FAR 52.227-19.
  
 Gaussian, Inc.
 340 Quinnipiac St., Bldg. 40, Wallingford CT 06492
  
  
 ---------------------------------------------------------------
 Warning -- This program may not be used in any manner that
 competes with the business of Gaussian, Inc. or will provide
 assistance to any competitor of Gaussian, Inc.  The licensee
 of this program is prohibited from giving any competitor of
 Gaussian, Inc. access to this program.  By using this program,
 the user acknowledges that Gaussian, Inc. is engaged in the
 business of creating and licensing software in the field of
 computational chemistry and represents and warrants to the
 licensee that it is not a competitor of Gaussian, Inc. and that
 it will not use this program in any manner prohibited above.
 ---------------------------------------------------------------
  

 Cite this work as:
 Gaussian 16, Revision A.03,
 M. J. Frisch, G. W. Trucks, H. B. Schlegel, G. E. Scuseria, 
 M. A. Robb, J. R. Cheeseman, G. Scalmani, V. Barone, 
 G. A. Petersson, H. Nakatsuji, X. Li, M. Caricato, A. V. Marenich, 
 J. Bloino, B. G. Janesko, R. Gomperts, B. Mennucci, H. P. Hratchian, 
 J. V. Ortiz, A. F. Izmaylov, J. L. Sonnenberg, D. Williams-Young, 
 F. Ding, F. Lipparini, F. Egidi, J. Goings, B. Peng, A. Petrone, 
 T. Henderson, D. Ranasinghe, V. G. Zakrzewski, J. Gao, N. Rega, 
 G. Zheng, W. Liang, M. Hada, M. Ehara, K. Toyota, R. Fukuda, 
 J. Hasegawa, M. Ishida, T. Nakajima, Y. Honda, O. Kitao, H. Nakai, 
 T. Vreven, K. Throssell, J. A. Montgomery, Jr., J. E. Peralta, 
 F. Ogliaro, M. J. Bearpark, J. J. Heyd, E. N. Brothers, K. N. Kudin, 
 V. N. Staroverov, T. A. Keith, R. Kobayashi, J. Normand, 
 K. Raghavachari, A. P. Rendell, J. C. Burant, S. S. Iyengar, 
 J. Tomasi, M. Cossi, J. M. Millam, M. Klene, C. Adamo, R. Cammi, 
 J. W. Ochterski, R. L. Martin, K. Morokuma, O. Farkas, 
 J. B. Foresman, and D. J. Fox, Gaussian, Inc., Wallingford CT, 2016.
 
 ******************************************
 Gaussian 16:  ES64L-G16RevA.03 25-Dec-2016
                16-Apr-2021 
 ******************************************
 %RWF=temp13_75101,70GB
 %nprocshared=48
 Will use up to   48 processors via shared memory.
 Default route: MaxDisk=80GB
 ----------------------------------------------------------------------
 #P M062X/Def2QZVP Integral=UltraFineGrid SCF=NoSymm Stable=(RExt, Opt)
  IOp(1/33=1)
 ----------------------------------------------------------------------
 1/33=1,38=1,172=1/1;
 2/12=2,17=6,18=5,40=1/2;
 3/5=45,7=101,11=2,25=1,30=1,74=-55,75=-5/1,2,3;
 4/9=2/1;
 5/5=2,38=5/2;
 6/7=2,8=2,9=2,10=2,28=1/1;
 8/6=1,10=90,11=11/1;
 9/8=-3,42=1,46=1/14;
 5/5=2,8=3,17=40,38=5/8(-2);
 6/7=2,8=2,9=2,10=2,28=1/1;
 99/5=1,9=1/99;
 Leave Link    1 at Fri Apr 16 23:03:20 2021, MaxMem=           0 cpu:              10.8 elap:               0.3
 (Enter /s/ls4/users/knvvv/bin/g16sse/l101.exe)
 ONIOM data not found on unit 2.
 ----------------------
 Database calculations.
 ----------------------
 TstMul:  ICh=     0
 TstMul:  Mul=     1
 TstMul:  ICh=     0
 TstMul:  Mul=     1
 Symbolic Z-matrix:
 Charge =  0 Multiplicity = 1
 C                    -1.8353   -0.11816   0. 
 C                    -0.60658   0.39648   0. 
 C                     0.60658  -0.39648   0. 
 C                     1.8353    0.11816   0. 
 H                    -1.9961   -1.19154   0. 
 H                    -2.716     0.51217   0. 
 H                    -0.47787   1.47682   0. 
 H                     0.47787  -1.47682   0. 
 H                     1.9961    1.19154   0. 
 H                     2.716    -0.51217   0. 
 
 RdStrC is calling ZToCFu for IStruc=1 NZ=    10.
 PrtBox:  NBox=     2 Levels=  1 BoxLen=    8.00 SMaxX=       10.26
          Shift=            5.132487            2.790789            0.000000
 Box      1 Number                   0 centers from      1 to      7:
 Box      2 Number                   4 centers from      8 to     10:
 After GenITR:
 ITRead=  0  0  0  0  0  0  0  0  0  0
 MicOpt= -1 -1 -1 -1 -1 -1 -1 -1 -1 -1
 ITRead=  0  0  0  0  0  0  0  0  0  0
 MicOpt= -1 -1 -1 -1 -1 -1 -1 -1 -1 -1
 NAtoms=     10 NQM=       10 NQMF=       0 NMMI=      0 NMMIF=      0
                NMic=       0 NMicF=      0.
                    Isotopes and Nuclear Properties:
 (Nuclear quadrupole moments (NQMom) in fm**2, nuclear magnetic moments (NMagM)
  in nuclear magnetons)

  Atom         1           2           3           4           5           6           7           8           9          10
 IAtWgt=          12          12          12          12           1           1           1           1           1           1
 AtmWgt=  12.0000000  12.0000000  12.0000000  12.0000000   1.0078250   1.0078250   1.0078250   1.0078250   1.0078250   1.0078250
 NucSpn=           0           0           0           0           1           1           1           1           1           1
 AtZEff=  -0.0000000  -0.0000000  -0.0000000  -0.0000000  -0.0000000  -0.0000000  -0.0000000  -0.0000000  -0.0000000  -0.0000000
 NQMom=    0.0000000   0.0000000   0.0000000   0.0000000   0.0000000   0.0000000   0.0000000   0.0000000   0.0000000   0.0000000
 NMagM=    0.0000000   0.0000000   0.0000000   0.0000000   2.7928460   2.7928460   2.7928460   2.7928460   2.7928460   2.7928460
 AtZNuc=   6.0000000   6.0000000   6.0000000   6.0000000   1.0000000   1.0000000   1.0000000   1.0000000   1.0000000   1.0000000
 No MM parameters found.
 Leave Link  101 at Fri Apr 16 23:03:20 2021, MaxMem=   104857600 cpu:               7.3 elap:               0.2
 (Enter /s/ls4/users/knvvv/bin/g16sse/l202.exe)
                          Input orientation:                          
 ---------------------------------------------------------------------
 Center     Atomic      Atomic             Coordinates (Angstroms)
 Number     Number       Type             X           Y           Z
 ---------------------------------------------------------------------
      1          6           0       -1.835301   -0.118161    0.000000
      2          6           0       -0.606581    0.396480    0.000000
      3          6           0        0.606581   -0.396480    0.000000
      4          6           0        1.835301    0.118161    0.000000
      5          1           0       -1.996102   -1.191537    0.000000
      6          1           0       -2.715995    0.512168    0.000000
      7          1           0       -0.477873    1.476822    0.000000
      8          1           0        0.477873   -1.476822    0.000000
      9          1           0        1.996102    1.191537    0.000000
     10          1           0        2.715995   -0.512168    0.000000
 ---------------------------------------------------------------------
                    Distance matrix (angstroms):
                    1          2          3          4          5
     1  C    0.000000
     2  C    1.332144   0.000000
     3  C    2.457692   1.449327   0.000000
     4  C    3.678202   2.457692   1.332144   0.000000
     5  H    1.085354   2.110110   2.721411   4.049069   0.000000
     6  H    1.083022   2.112584   3.444583   4.568319   1.849556
     7  H    2.094417   1.087982   2.164555   2.682673   3.070043
     8  H    2.682673   2.164555   1.087982   2.094417   2.490369
     9  H    4.049069   2.721411   2.110110   1.085354   4.649380
    10  H    4.568319   3.444583   2.112584   1.083022   4.760820
                    6          7          8          9         10
     6  H    0.000000
     7  H    2.437160   0.000000
     8  H    3.762562   3.104426   0.000000
     9  H    4.760820   2.490369   3.070043   0.000000
    10  H    5.527728   3.762562   2.437160   1.849556   0.000000
 Stoichiometry    C4H6
 Framework group  C2H[SGH(C4H6)]
 Deg. of freedom     9
 Full point group                 C2H     NOp   4
 Largest Abelian subgroup         C2H     NOp   4
 Largest concise Abelian subgroup C2      NOp   2
                         Standard orientation:                         
 ---------------------------------------------------------------------
 Center     Atomic      Atomic             Coordinates (Angstroms)
 Number     Number       Type             X           Y           Z
 ---------------------------------------------------------------------
      1          6           0        0.600035    1.738462    0.000000
      2          6           0        0.600035    0.406318    0.000000
      3          6           0       -0.600035   -0.406318    0.000000
      4          6           0       -0.600035   -1.738462    0.000000
      5          1           0       -0.327886    2.301451    0.000000
      6          1           0        1.521661    2.307270    0.000000
      7          1           0        1.546780   -0.129761    0.000000
      8          1           0       -1.546780    0.129761    0.000000
      9          1           0        0.327886   -2.301451    0.000000
     10          1           0       -1.521661   -2.307270    0.000000
 ---------------------------------------------------------------------
 Rotational constants (GHZ):          42.4887811           4.4711651           4.0454551
 Leave Link  202 at Fri Apr 16 23:03:20 2021, MaxMem=   104857600 cpu:               7.7 elap:               0.2
 (Enter /s/ls4/users/knvvv/bin/g16sse/l301.exe)
 Standard basis: def2QZVP (5D, 7F)
 Ernie: Thresh=  0.10000D-02 Tol=  0.10000D-05 Strict=F.
 There are   168 symmetry adapted cartesian basis functions of AG  symmetry.
 There are    81 symmetry adapted cartesian basis functions of BG  symmetry.
 There are    81 symmetry adapted cartesian basis functions of AU  symmetry.
 There are   168 symmetry adapted cartesian basis functions of BU  symmetry.
 There are   134 symmetry adapted basis functions of AG  symmetry.
 There are    70 symmetry adapted basis functions of BG  symmetry.
 There are    70 symmetry adapted basis functions of AU  symmetry.
 There are   134 symmetry adapted basis functions of BU  symmetry.
   408 basis functions,   596 primitive gaussians,   498 cartesian basis functions
    15 alpha electrons       15 beta electrons
       nuclear repulsion energy       104.1209625348 Hartrees.
 IExCor= 4336 DFT=T Ex+Corr=M062X ExCW=0 ScaHFX=  0.540000
 ScaDFX=  1.000000  1.000000  1.000000  1.000000 ScalE2=  1.000000  1.000000
 IRadAn=      5 IRanWt=     -1 IRanGd=            0 ICorTp=0 IEmpDi=  4
 NAtoms=   10 NActive=   10 NUniq=    5 SFac= 4.00D+00 NAtFMM=   60 NAOKFM=F Big=F
 Integral buffers will be    131072 words long.
 Raffenetti 2 integral format.
 Two-electron integral symmetry is turned on.
 Leave Link  301 at Fri Apr 16 23:03:20 2021, MaxMem=   104857600 cpu:               6.1 elap:               0.2
 (Enter /s/ls4/users/knvvv/bin/g16sse/l302.exe)
 NPDir=0 NMtPBC=     1 NCelOv=     1 NCel=       1 NClECP=     1 NCelD=      1
         NCelK=      1 NCelE2=     1 NClLst=     1 CellRange=     0.0.
 One-electron integrals computed using PRISM.
 One-electron integral symmetry used in STVInt
 PrsmSu:  requested number of processors reduced to:   4 ShMem   1 Linda.
 PrsmSu:  requested number of processors reduced to:  20 ShMem   1 Linda.
   4 Symmetry operations used in ECPInt.
 ECPInt:  NShTT=    8256 NPrTT=   19107 LenC2=    8057 LenP2D=   16122.
 LDataN:  DoStor=T MaxTD1= 8 Len=  415
 Number of processors reduced to  19 by ecpmxn.
 NBasis=   408 RedAO= T EigKep=  4.24D-05  NBF=   134    70    70   134
 NBsUse=   408 1.00D-06 EigRej= -1.00D+00 NBFU=   134    70    70   134
 Precomputing XC quadrature grid using
 IXCGrd= 4 IRadAn=           5 IRanWt=          -1 IRanGd=           0 AccXCQ= 0.00D+00.
 Generated NRdTot=       0 NPtTot=           0 NUsed=           0 NTot=          32
 NSgBfM=   498   498   498   498   498 MxSgAt=    10 MxSgA2=    10.
 Leave Link  302 at Fri Apr 16 23:03:40 2021, MaxMem=   104857600 cpu:             925.6 elap:              19.8
 (Enter /s/ls4/users/knvvv/bin/g16sse/l303.exe)
 DipDrv:  MaxL=1.
 Leave Link  303 at Fri Apr 16 23:03:42 2021, MaxMem=   104857600 cpu:             112.5 elap:               2.4
 (Enter /s/ls4/users/knvvv/bin/g16sse/l401.exe)
 SCF N**3 symmetry information disabled.
 ExpMin= 7.60D-02 ExpMax= 6.70D+04 ExpMxC= 6.47D+02 IAcc=3 IRadAn=         5 AccDes= 0.00D+00
 Harris functional with IExCor= 1009 and IRadAn=       5 diagonalized for initial guess.
 HarFok:  IExCor= 1009 AccDes= 0.00D+00 IRadAn=         5 IDoV= 1 UseB2=F ITyADJ=14
 ICtDFT=  3500011 ScaDFX=  1.000000  1.000000  1.000000  1.000000
 FoFCou: FMM=F IPFlag=           0 FMFlag=      100000 FMFlg1=           0
         NFxFlg=           0 DoJE=T BraDBF=F KetDBF=T FulRan=T
         wScrn=  0.000000 ICntrl=       500 IOpCl=  0 I1Cent=   200000004 NGrid=           0
         NMat0=    1 NMatS0=      1 NMatT0=    0 NMatD0=    1 NMtDS0=    0 NMtDT0=    0
 Petite list used in FoFCou.
 CoulSu:  requested number of processors reduced to:  19 ShMem   1 Linda.
 CoulSu:  requested number of processors reduced to:  20 ShMem   1 Linda.
 CoulSu:  requested number of processors reduced to:  21 ShMem   1 Linda.
 CoulSu:  requested number of processors reduced to:  21 ShMem   1 Linda.
 Harris En= -155.969689508047    
 JPrj=0 DoOrth=F DoCkMO=F.
 Initial guess orbital symmetries:
       Occupied  (AG) (BU) (AG) (BU) (AG) (BU) (AG) (BU) (BU) (AG)
                 (AG) (BU) (AG) (AU) (BG)
       Virtual   (AU) (BG) (BU) (AG) (BU) (AG) (BU) (AG) (AU) (AG)
                 (BU) (BG) (AG) (AG) (BG) (BU) (BU) (AU) (BU) (BU)
                 (BU) (AG) (AG) (BU) (AG) (BU) (AU) (AG) (BG) (BU)
                 (AG) (AG) (BU) (BU) (AG) (BG) (AU) (BU) (AG) (AU)
                 (AG) (BU) (AG) (BG) (BU) (AU) (AG) (BG) (AU) (AU)
                 (BG) (BU) (AG) (BG) (BU) (BU) (AU) (AG) (AG) (BU)
                 (AG) (BU) (BG) (AG) (BU) (BG) (AU) (BU) (AG) (BU)
                 (AG) (AG) (BU) (AU) (AG) (BU) (BG) (BU) (AG) (BU)
                 (AG) (AG) (BU) (AU) (BU) (AG) (BG) (AG) (BU) (AG)
                 (BU) (BG) (AU) (AG) (AU) (AG) (BU) (BG) (BU) (AU)
                 (AG) (BU) (AU) (BG) (BU) (AG) (BG) (AU) (AG) (BG)
                 (BU) (AG) (AU) (AG) (BU) (BG) (BU) (AU) (BU) (AU)
                 (BG) (AG) (BU) (AG) (BU) (BG) (AG) (BU) (AU) (AG)
                 (BG) (AU) (AG) (BG) (BU) (AU) (BG) (BU) (AG) (AU)
                 (BG) (AG) (BG) (BU) (AG) (AU) (BU) (AG) (AG) (BU)
                 (BU) (AG) (BU) (BG) (AG) (AU) (AG) (AG) (AU) (BU)
                 (BG) (BU) (BU) (AU) (AG) (BU) (AG) (BU) (BG) (AU)
                 (BU) (AG) (BG) (AG) (BU) (AG) (BU) (AU) (BG) (AU)
                 (AG) (BG) (AG) (BU) (AG) (BU) (AG) (AU) (BU) (BU)
                 (AG) (BG) (BU) (AG) (BU) (AG) (BU) (AG) (BU) (BU)
                 (AG) (BG) (AU) (BG) (AG) (AG) (BU) (AU) (BG) (BU)
                 (AU) (AG) (BU) (AU) (AG) (BG) (BU) (AU) (AU) (BG)
                 (BG) (AU) (BU) (AG) (BG) (AG) (BG) (AU) (BU) (BG)
                 (AG) (BU) (AG) (AU) (BU) (AG) (AU) (BU) (BG) (AG)
                 (AU) (BU) (AG) (BG) (BG) (AU) (BU) (AG) (AU) (BU)
                 (BG) (AG) (BU) (AU) (BG) (AG) (BU) (AG) (BU) (AU)
                 (BG) (AG) (AG) (BU) (AG) (AU) (BU) (AG) (BU) (BU)
                 (AG) (AU) (BG) (BG) (AU) (BU) (AG) (BG) (BU) (AG)
                 (AU) (BG) (AG) (BU) (AG) (AU) (BU) (BU) (AG) (AU)
                 (BU) (BG) (AG) (AU) (BU) (BU) (BG) (AG) (BG) (AU)
                 (BG) (AU) (AG) (BU) (BG) (AG) (BU) (AG) (BU) (AU)
                 (AG) (BU) (AG) (BG) (AG) (BU) (AU) (AG) (BU) (BU)
                 (AG) (BG) (BU) (BG) (AG) (AU) (BU) (AG) (BG) (AU)
                 (BU) (AG) (BU) (BU) (AG) (BG) (AU) (BU) (AG) (AU)
                 (BU) (AG) (BG) (AU) (BG) (AG) (BG) (AU) (BG) (AU)
                 (BU) (AG) (BU) (AG) (BU) (AG) (BU) (AG) (BU) (AG)
                 (AU) (BU) (BG) (AG) (BU) (AU) (BG) (AU) (BG) (BU)
                 (AG) (AG) (BU) (BU) (AG) (AG) (BU) (AG) (BU) (BU)
                 (AG) (BU) (AG) (AG) (BU) (AG) (BU) (AG) (BU) (AG)
                 (BU) (AG) (BU)
 The electronic state of the initial guess is 1-AG.
 Leave Link  401 at Fri Apr 16 23:03:50 2021, MaxMem=   104857600 cpu:             340.9 elap:               7.5
 (Enter /s/ls4/users/knvvv/bin/g16sse/l502.exe)
 Integral symmetry usage will be decided dynamically.
 Closed shell SCF:
 Using DIIS extrapolation, IDIIS=  1040.
 NGot=   104857600 LenX=   104330600 LenY=   104082098
 Requested convergence on RMS density matrix=1.00D-08 within 128 cycles.
 Requested convergence on MAX density matrix=1.00D-06.
 Requested convergence on             energy=1.00D-06.
 No special actions if energy rises.
 Fock matrices will be formed incrementally for  20 cycles.
 Integral accuracy reduced to 1.0D-05 until final iterations.

 Cycle   1  Pass 0  IDiag  1:
 FoFJK:  IHMeth= 1 ICntrl=       0 DoSepK=F KAlg= 0 I1Cent=           0 FoldK=F
 IRaf= 950000000 NMat=       1 IRICut=       1 DoRegI=T DoRafI=F ISym2E= 1 IDoP0=0 IntGTp=1.
 FoFCou: FMM=F IPFlag=           0 FMFlag=      100000 FMFlg1=           0
         NFxFlg=           0 DoJE=F BraDBF=F KetDBF=F FulRan=T
         wScrn=  0.000000 ICntrl=         0 IOpCl=  0 I1Cent=           0 NGrid=           0
         NMat0=    1 NMatS0=      1 NMatT0=    0 NMatD0=    1 NMtDS0=    0 NMtDT0=    0
 Petite list used in FoFCou.
 CoulSu:  requested number of processors reduced to:  20 ShMem   1 Linda.
 E= -155.822668865444    
 DIIS: error= 3.92D-02 at cycle   1 NSaved=   1.
 NSaved= 1 IEnMin= 1 EnMin= -155.822668865444     IErMin= 1 ErrMin= 3.92D-02
 ErrMax= 3.92D-02  0.00D+00 EMaxC= 1.00D-01 BMatC= 2.27D-01 BMatP= 2.27D-01
 IDIUse=3 WtCom= 6.08D-01 WtEn= 3.92D-01
 Coeff-Com:  0.100D+01
 Coeff-En:   0.100D+01
 Coeff:      0.100D+01
 Gap=     0.293 Goal=   None    Shift=    0.000
 GapD=    0.293 DampG=1.000 DampE=0.500 DampFc=0.5000 IDamp=-1.
 Damping current iteration by 5.00D-01
 RMSDP=1.06D-03 MaxDP=6.01D-02              OVMax= 1.75D-01

 Cycle   2  Pass 0  IDiag  1:
 RMSU=  4.99D-04    CP:  9.53D-01
 CoulSu:  requested number of processors reduced to:  20 ShMem   1 Linda.
 E= -155.907783012785     Delta-E=       -0.085114147341 Rises=F Damp=T
 DIIS: error= 1.31D-02 at cycle   2 NSaved=   2.
 NSaved= 2 IEnMin= 2 EnMin= -155.907783012785     IErMin= 2 ErrMin= 1.31D-02
 ErrMax= 1.31D-02  0.00D+00 EMaxC= 1.00D-01 BMatC= 2.37D-02 BMatP= 2.27D-01
 IDIUse=3 WtCom= 8.69D-01 WtEn= 1.31D-01
 Coeff-Com: -0.253D+00 0.125D+01
 Coeff-En:   0.000D+00 0.100D+01
 Coeff:     -0.220D+00 0.122D+01
 Gap=     0.362 Goal=   None    Shift=    0.000
 RMSDP=5.70D-04 MaxDP=2.82D-02 DE=-8.51D-02 OVMax= 8.94D-02

 Cycle   3  Pass 0  IDiag  1:
 RMSU=  5.65D-04    CP:  9.54D-01  1.16D+00
 CoulSu:  requested number of processors reduced to:  20 ShMem   1 Linda.
 E= -155.982103954736     Delta-E=       -0.074320941951 Rises=F Damp=F
 DIIS: error= 4.38D-03 at cycle   3 NSaved=   3.
 NSaved= 3 IEnMin= 3 EnMin= -155.982103954736     IErMin= 3 ErrMin= 4.38D-03
 ErrMax= 4.38D-03  0.00D+00 EMaxC= 1.00D-01 BMatC= 1.72D-03 BMatP= 2.37D-02
 IDIUse=3 WtCom= 9.56D-01 WtEn= 4.38D-02
 Coeff-Com: -0.101D+00 0.257D+00 0.844D+00
 Coeff-En:   0.000D+00 0.000D+00 0.100D+01
 Coeff:     -0.961D-01 0.245D+00 0.851D+00
 Gap=     0.290 Goal=   None    Shift=    0.000
 RMSDP=8.38D-05 MaxDP=3.76D-03 DE=-7.43D-02 OVMax= 2.31D-02

 Cycle   4  Pass 0  IDiag  1:
 RMSU=  6.73D-05    CP:  9.48D-01  1.23D+00  9.54D-01
 CoulSu:  requested number of processors reduced to:  20 ShMem   1 Linda.
 E= -155.983265962079     Delta-E=       -0.001162007343 Rises=F Damp=F
 DIIS: error= 3.24D-03 at cycle   4 NSaved=   4.
 NSaved= 4 IEnMin= 4 EnMin= -155.983265962079     IErMin= 4 ErrMin= 3.24D-03
 ErrMax= 3.24D-03  0.00D+00 EMaxC= 1.00D-01 BMatC= 6.91D-04 BMatP= 1.72D-03
 IDIUse=3 WtCom= 9.68D-01 WtEn= 3.24D-02
 Coeff-Com: -0.466D-01 0.104D+00 0.470D+00 0.473D+00
 Coeff-En:   0.000D+00 0.000D+00 0.225D+00 0.775D+00
 Coeff:     -0.451D-01 0.101D+00 0.462D+00 0.482D+00
 Gap=     0.290 Goal=   None    Shift=    0.000
 RMSDP=3.26D-05 MaxDP=1.37D-03 DE=-1.16D-03 OVMax= 9.72D-03

 Cycle   5  Pass 0  IDiag  1:
 RMSU=  2.70D-05    CP:  9.48D-01  1.22D+00  9.61D-01  7.44D-01
 CoulSu:  requested number of processors reduced to:  20 ShMem   1 Linda.
 E= -155.983922983390     Delta-E=       -0.000657021312 Rises=F Damp=F
 DIIS: error= 3.67D-04 at cycle   5 NSaved=   5.
 NSaved= 5 IEnMin= 5 EnMin= -155.983922983390     IErMin= 5 ErrMin= 3.67D-04
 ErrMax= 3.67D-04  0.00D+00 EMaxC= 1.00D-01 BMatC= 7.87D-06 BMatP= 6.91D-04
 IDIUse=3 WtCom= 9.96D-01 WtEn= 3.67D-03
 Coeff-Com:  0.158D-02-0.343D-02 0.131D-01 0.947D-01 0.894D+00
 Coeff-En:   0.000D+00 0.000D+00 0.000D+00 0.000D+00 0.100D+01
 Coeff:      0.157D-02-0.342D-02 0.130D-01 0.943D-01 0.894D+00
 Gap=     0.291 Goal=   None    Shift=    0.000
 RMSDP=9.71D-06 MaxDP=4.57D-04 DE=-6.57D-04 OVMax= 1.43D-03

 Initial convergence to 1.0D-05 achieved.  Increase integral accuracy.
 Cycle   6  Pass 1  IDiag  1:
 CoulSu:  requested number of processors reduced to:  20 ShMem   1 Linda.
 E= -155.983944074761     Delta-E=       -0.000021091371 Rises=F Damp=F
 DIIS: error= 9.21D-05 at cycle   1 NSaved=   1.
 NSaved= 1 IEnMin= 1 EnMin= -155.983944074761     IErMin= 1 ErrMin= 9.21D-05
 ErrMax= 9.21D-05  0.00D+00 EMaxC= 1.00D-01 BMatC= 2.07D-06 BMatP= 2.07D-06
 IDIUse=1 WtCom= 1.00D+00 WtEn= 0.00D+00
 Coeff-Com:  0.100D+01
 Coeff:      0.100D+01
 Gap=     0.291 Goal=   None    Shift=    0.000
 RMSDP=9.71D-06 MaxDP=4.57D-04 DE=-2.11D-05 OVMax= 2.92D-04

 Cycle   7  Pass 1  IDiag  1:
 RMSU=  3.48D-05    CP:  1.00D+00
 CoulSu:  requested number of processors reduced to:  20 ShMem   1 Linda.
 E= -155.983944870361     Delta-E=       -0.000000795600 Rises=F Damp=F
 DIIS: error= 1.73D-05 at cycle   2 NSaved=   2.
 NSaved= 2 IEnMin= 2 EnMin= -155.983944870361     IErMin= 2 ErrMin= 1.73D-05
 ErrMax= 1.73D-05  0.00D+00 EMaxC= 1.00D-01 BMatC= 2.78D-08 BMatP= 2.07D-06
 IDIUse=1 WtCom= 1.00D+00 WtEn= 0.00D+00
 Coeff-Com: -0.575D-02 0.101D+01
 Coeff:     -0.575D-02 0.101D+01
 Gap=     0.291 Goal=   None    Shift=    0.000
 RMSDP=1.28D-06 MaxDP=7.33D-05 DE=-7.96D-07 OVMax= 1.24D-04

 Cycle   8  Pass 1  IDiag  1:
 RMSU=  5.93D-07    CP:  1.00D+00  1.03D+00
 CoulSu:  requested number of processors reduced to:  20 ShMem   1 Linda.
 E= -155.983944888361     Delta-E=       -0.000000017999 Rises=F Damp=F
 DIIS: error= 1.19D-05 at cycle   3 NSaved=   3.
 NSaved= 3 IEnMin= 3 EnMin= -155.983944888361     IErMin= 3 ErrMin= 1.19D-05
 ErrMax= 1.19D-05  0.00D+00 EMaxC= 1.00D-01 BMatC= 1.37D-08 BMatP= 2.78D-08
 IDIUse=1 WtCom= 1.00D+00 WtEn= 0.00D+00
 Coeff-Com: -0.149D-01 0.401D+00 0.614D+00
 Coeff:     -0.149D-01 0.401D+00 0.614D+00
 Gap=     0.291 Goal=   None    Shift=    0.000
 RMSDP=1.97D-07 MaxDP=7.82D-06 DE=-1.80D-08 OVMax= 6.21D-05

 Cycle   9  Pass 1  IDiag  1:
 RMSU=  1.86D-07    CP:  1.00D+00  1.03D+00  9.27D-01
 CoulSu:  requested number of processors reduced to:  20 ShMem   1 Linda.
 E= -155.983944899671     Delta-E=       -0.000000011310 Rises=F Damp=F
 DIIS: error= 7.69D-06 at cycle   4 NSaved=   4.
 NSaved= 4 IEnMin= 4 EnMin= -155.983944899671     IErMin= 4 ErrMin= 7.69D-06
 ErrMax= 7.69D-06  0.00D+00 EMaxC= 1.00D-01 BMatC= 2.13D-09 BMatP= 1.37D-08
 IDIUse=1 WtCom= 1.00D+00 WtEn= 0.00D+00
 Coeff-Com: -0.698D-02 0.940D-01 0.304D+00 0.609D+00
 Coeff:     -0.698D-02 0.940D-01 0.304D+00 0.609D+00
 Gap=     0.291 Goal=   None    Shift=    0.000
 RMSDP=5.94D-08 MaxDP=2.50D-06 DE=-1.13D-08 OVMax= 2.56D-05

 Cycle  10  Pass 1  IDiag  1:
 RMSU=  4.63D-08    CP:  1.00D+00  1.03D+00  9.75D-01  8.86D-01
 CoulSu:  requested number of processors reduced to:  20 ShMem   1 Linda.
 E= -155.983944901885     Delta-E=       -0.000000002213 Rises=F Damp=F
 DIIS: error= 8.44D-07 at cycle   5 NSaved=   5.
 NSaved= 5 IEnMin= 5 EnMin= -155.983944901885     IErMin= 5 ErrMin= 8.44D-07
 ErrMax= 8.44D-07  0.00D+00 EMaxC= 1.00D-01 BMatC= 5.43D-11 BMatP= 2.13D-09
 IDIUse=1 WtCom= 1.00D+00 WtEn= 0.00D+00
 Coeff-Com:  0.110D-02-0.428D-01-0.506D-01 0.649D-01 0.103D+01
 Coeff:      0.110D-02-0.428D-01-0.506D-01 0.649D-01 0.103D+01
 Gap=     0.291 Goal=   None    Shift=    0.000
 RMSDP=2.95D-08 MaxDP=1.56D-06 DE=-2.21D-09 OVMax= 6.97D-06

 Cycle  11  Pass 1  IDiag  1:
 RMSU=  1.92D-08    CP:  1.00D+00  1.03D+00  9.98D-01  9.76D-01  1.11D+00
 CoulSu:  requested number of processors reduced to:  20 ShMem   1 Linda.
 E= -155.983944901988     Delta-E=       -0.000000000103 Rises=F Damp=F
 DIIS: error= 1.06D-07 at cycle   6 NSaved=   6.
 NSaved= 6 IEnMin= 6 EnMin= -155.983944901988     IErMin= 6 ErrMin= 1.06D-07
 ErrMax= 1.06D-07  0.00D+00 EMaxC= 1.00D-01 BMatC= 7.41D-13 BMatP= 5.43D-11
 IDIUse=1 WtCom= 1.00D+00 WtEn= 0.00D+00
 Coeff-Com:  0.228D-03-0.318D-02-0.781D-02-0.620D-02 0.130D-01 0.100D+01
 Coeff:      0.228D-03-0.318D-02-0.781D-02-0.620D-02 0.130D-01 0.100D+01
 Gap=     0.291 Goal=   None    Shift=    0.000
 RMSDP=4.14D-09 MaxDP=1.52D-07 DE=-1.03D-10 OVMax= 1.04D-06

 SCF Done:  E(RM062X) =  -155.983944902     A.U. after   11 cycles
            NFock= 11  Conv=0.41D-08     -V/T= 2.0046
 KE= 1.552681014917D+02 PE=-5.693507280121D+02 EE= 1.539777190836D+02
 Leave Link  502 at Fri Apr 16 23:04:46 2021, MaxMem=   104857600 cpu:            1867.9 elap:              56.3
 (Enter /s/ls4/users/knvvv/bin/g16sse/l601.exe)
 Copying SCF densities to generalized density rwf, IOpCl= 0 IROHF=0.

 **********************************************************************

            Population analysis using the SCF density.

 **********************************************************************

 Orbital symmetries:
       Occupied  (AG) (BU) (AG) (BU) (AG) (BU) (AG) (BU) (BU) (AG)
                 (AG) (BU) (AG) (AU) (BG)
       Virtual   (AU) (AG) (BU) (BU) (BG) (AG) (AG) (BU) (BU) (AU)
                 (AG) (AG) (BG) (BU) (AG) (BG) (AU) (BU) (BU) (BU)
                 (AG) (BU) (AG) (BU) (AG) (BU) (AG) (AU) (AG) (BU)
                 (BG) (AG) (BU) (AG) (BG) (BU) (AU) (BU) (AG) (AU)
                 (AG) (BU) (BG) (AG) (AG) (BU) (AU) (BG) (AU) (BU)
                 (AU) (AG) (BG) (BG) (BU) (BU) (AU) (AG) (AG) (BU)
                 (AG) (BU) (BG) (AG) (BU) (BG) (BU) (AU) (AG) (BU)
                 (AG) (AG) (BU) (AU) (BU) (AG) (BG) (AG) (BU) (BU)
                 (AG) (AG) (BU) (AG) (BU) (AU) (BU) (AG) (BG) (AG)
                 (BU) (BG) (AG) (AU) (AG) (AU) (BG) (BU) (AU) (BU)
                 (AG) (BU) (AU) (BG) (BU) (AG) (BG) (AU) (AG) (BU)
                 (AG) (BG) (AU) (AG) (BG) (BU) (BU) (AU) (BU) (AU)
                 (BG) (AG) (BU) (AG) (BG) (BU) (BU) (AG) (AU) (AG)
                 (BG) (AU) (AG) (BU) (BG) (AU) (BG) (BU) (AG) (BG)
                 (AG) (BU) (AG) (AU) (BG) (BU) (AG) (AG) (AU) (BU)
                 (BU) (AG) (BG) (BU) (AU) (AG) (AG) (AG) (BU) (AU)
                 (BU) (BG) (BU) (AU) (BU) (AG) (AG) (BU) (BU) (AG)
                 (AU) (BG) (BG) (AG) (BU) (AG) (AU) (BU) (BG) (AG)
                 (AU) (BG) (BU) (AG) (AG) (BU) (AG) (AU) (BU) (BU)
                 (AG) (BG) (BU) (AG) (BU) (AG) (AG) (BU) (BU) (BU)
                 (AG) (BG) (AU) (BG) (AG) (AG) (AU) (BU) (BG) (BU)
                 (AU) (AG) (BU) (AU) (AG) (BG) (BU) (AU) (AU) (BG)
                 (BG) (AU) (BU) (BG) (AG) (AG) (BG) (AU) (BU) (BG)
                 (AG) (BU) (AU) (AG) (BU) (BU) (AU) (BG) (AG) (AU)
                 (BG) (AG) (BG) (BU) (AU) (BU) (AG) (AG) (AU) (BG)
                 (AG) (AG) (BU) (BU) (BG) (AU) (AG) (BU) (AU) (BU)
                 (AG) (BG) (AG) (BU) (BU) (AU) (AG) (BU) (AG) (AG)
                 (BU) (BG) (AU) (BG) (AU) (BU) (AG) (BG) (BU) (AG)
                 (AU) (BG) (AG) (BU) (AU) (AG) (BU) (BU) (AG) (AU)
                 (BU) (BG) (AU) (AG) (BU) (BG) (BG) (AU) (BU) (AG)
                 (BG) (AU) (BG) (AG) (AG) (BU) (BU) (AG) (BU) (AU)
                 (AG) (BU) (BG) (AG) (AU) (BU) (AG) (BU) (AG) (BU)
                 (AG) (BG) (AU) (AG) (BU) (BG) (BG) (BU) (AU) (AG)
                 (BU) (AG) (BG) (BU) (AU) (AG) (BU) (BU) (AG) (AU)
                 (BG) (AG) (BU) (BG) (AU) (AG) (BG) (AU) (BG) (AU)
                 (BU) (AG) (BU) (AG) (BU) (AG) (BU) (AG) (AU) (BU)
                 (AG) (BG) (BU) (AG) (AU) (BG) (BU) (AU) (BG) (AG)
                 (BU) (AG) (BU) (BU) (AG) (BU) (AG) (AG) (BU) (BU)
                 (AG) (BU) (AG) (AG) (BU) (AG) (BU) (AG) (BU) (AG)
                 (BU) (AG) (BU)
 The electronic state is 1-AG.
 Alpha  occ. eigenvalues --  -10.54969 -10.54913 -10.54093 -10.54093  -0.91252
 Alpha  occ. eigenvalues --   -0.83302  -0.69157  -0.63437  -0.54017  -0.53666
 Alpha  occ. eigenvalues --   -0.45886  -0.45226  -0.40762  -0.39592  -0.29268
 Alpha virt. eigenvalues --   -0.00192   0.05940   0.06061   0.06827   0.08026
 Alpha virt. eigenvalues --    0.10264   0.10999   0.13128   0.14359   0.15063
 Alpha virt. eigenvalues --    0.17739   0.19648   0.19724   0.21312   0.22201
 Alpha virt. eigenvalues --    0.24555   0.25310   0.27113   0.28734   0.32324
 Alpha virt. eigenvalues --    0.33445   0.34883   0.35060   0.36306   0.37448
 Alpha virt. eigenvalues --    0.40734   0.40896   0.42711   0.44837   0.45667
 Alpha virt. eigenvalues --    0.46274   0.46411   0.48188   0.52974   0.54501
 Alpha virt. eigenvalues --    0.54710   0.57050   0.61115   0.63137   0.65217
 Alpha virt. eigenvalues --    0.66353   0.69065   0.73615   0.74409   0.75422
 Alpha virt. eigenvalues --    0.76491   0.77472   0.78145   0.78176   0.80385
 Alpha virt. eigenvalues --    0.81188   0.82588   0.82722   0.83049   0.87387
 Alpha virt. eigenvalues --    0.89082   0.89325   0.90266   0.92771   0.93003
 Alpha virt. eigenvalues --    0.95046   0.95736   0.96075   0.98585   1.01293
 Alpha virt. eigenvalues --    1.01708   1.05330   1.07216   1.07590   1.08854
 Alpha virt. eigenvalues --    1.09695   1.14283   1.14923   1.16373   1.19173
 Alpha virt. eigenvalues --    1.19859   1.20865   1.29837   1.30075   1.30973
 Alpha virt. eigenvalues --    1.32843   1.36157   1.43007   1.58794   1.59893
 Alpha virt. eigenvalues --    1.61606   1.62063   1.62153   1.64649   1.66514
 Alpha virt. eigenvalues --    1.67196   1.73352   1.74833   1.76929   1.80719
 Alpha virt. eigenvalues --    1.82569   1.83321   1.83652   1.86778   1.86796
 Alpha virt. eigenvalues --    1.86966   1.91746   1.93101   1.93119   1.94333
 Alpha virt. eigenvalues --    1.95322   1.98058   1.99529   1.99751   2.01806
 Alpha virt. eigenvalues --    2.02775   2.02949   2.05277   2.09147   2.10414
 Alpha virt. eigenvalues --    2.10914   2.12421   2.15028   2.18088   2.20331
 Alpha virt. eigenvalues --    2.22018   2.23030   2.24122   2.28507   2.34595
 Alpha virt. eigenvalues --    2.35039   2.36799   2.36869   2.40271   2.40594
 Alpha virt. eigenvalues --    2.43327   2.45705   2.47338   2.47602   2.47743
 Alpha virt. eigenvalues --    2.49508   2.53793   2.54718   2.54934   2.54976
 Alpha virt. eigenvalues --    2.58674   2.60089   2.60178   2.61456   2.62159
 Alpha virt. eigenvalues --    2.63625   2.65624   2.66697   2.68331   2.68671
 Alpha virt. eigenvalues --    2.71358   2.78431   2.81118   2.82451   2.82743
 Alpha virt. eigenvalues --    2.84830   2.94220   2.95705   2.96593   2.98583
 Alpha virt. eigenvalues --    3.02056   3.03439   3.13875   3.23363   3.25593
 Alpha virt. eigenvalues --    3.26905   3.28075   3.30416   3.32826   3.36450
 Alpha virt. eigenvalues --    3.36724   3.36874   3.39709   3.42915   3.46365
 Alpha virt. eigenvalues --    3.47028   3.48477   3.50008   3.57399   3.66871
 Alpha virt. eigenvalues --    3.67916   3.70523   3.73499   3.75140   3.79332
 Alpha virt. eigenvalues --    3.80930   3.82403   3.83571   3.90549   3.99866
 Alpha virt. eigenvalues --    4.00929   4.05094   4.07575   4.09898   4.29858
 Alpha virt. eigenvalues --    4.39847   4.41482   4.41803   4.70651   4.80261
 Alpha virt. eigenvalues --    4.80893   4.82471   4.84337   4.85767   4.87544
 Alpha virt. eigenvalues --    4.92911   4.98690   5.00061   5.07499   5.10228
 Alpha virt. eigenvalues --    5.10518   5.18559   5.23282   5.24226   5.29194
 Alpha virt. eigenvalues --    5.31108   5.33428   5.36157   5.37763   5.40580
 Alpha virt. eigenvalues --    5.42656   5.47110   5.53636   5.54246   5.54373
 Alpha virt. eigenvalues --    5.56848   5.58616   5.59878   5.62972   5.63158
 Alpha virt. eigenvalues --    5.65706   5.67084   5.77483   5.78622   5.80454
 Alpha virt. eigenvalues --    5.82836   5.82926   5.83605   5.83923   5.85370
 Alpha virt. eigenvalues --    5.89193   5.90037   5.92130   5.93976   5.96483
 Alpha virt. eigenvalues --    5.97527   5.98717   6.03407   6.04740   6.11328
 Alpha virt. eigenvalues --    6.11940   6.12233   6.13310   6.13550   6.15572
 Alpha virt. eigenvalues --    6.15980   6.15989   6.19064   6.26978   6.28661
 Alpha virt. eigenvalues --    6.28736   6.29559   6.30899   6.31326   6.39015
 Alpha virt. eigenvalues --    6.39953   6.40320   6.45440   6.45908   6.55542
 Alpha virt. eigenvalues --    6.56331   6.59806   6.61470   6.65871   6.67216
 Alpha virt. eigenvalues --    6.68248   6.68491   6.74039   6.78600   6.84559
 Alpha virt. eigenvalues --    6.86615   6.89443   6.92055   6.93316   6.97888
 Alpha virt. eigenvalues --    7.00315   7.01960   7.09988   7.12392   7.13713
 Alpha virt. eigenvalues --    7.20334   7.20612   7.24948   7.27751   7.29544
 Alpha virt. eigenvalues --    7.31130   7.35200   7.35904   7.36394   7.36427
 Alpha virt. eigenvalues --    7.37351   7.39558   7.44575   7.45953   7.47196
 Alpha virt. eigenvalues --    7.48536   7.52153   7.56652   7.61921   7.62108
 Alpha virt. eigenvalues --    7.63679   7.65869   7.73854   7.79882   7.80149
 Alpha virt. eigenvalues --    7.81322   7.85634   7.86882   7.90005   7.93551
 Alpha virt. eigenvalues --    7.96033   7.98021   7.99655   8.00405   8.00793
 Alpha virt. eigenvalues --    8.01444   8.04010   8.04474   8.04948   8.12693
 Alpha virt. eigenvalues --    8.14412   8.18538   8.22303   8.23386   8.25029
 Alpha virt. eigenvalues --    8.25339   8.25832   8.27907   8.33225   8.35726
 Alpha virt. eigenvalues --    8.40362   8.42873   8.45443   8.46302   8.47667
 Alpha virt. eigenvalues --    8.53312   8.54728   8.58581   8.67454   8.78340
 Alpha virt. eigenvalues --    8.85753   8.85929   8.95092   8.99331   9.09523
 Alpha virt. eigenvalues --    9.21247   9.31503   9.38227   9.50265   9.50416
 Alpha virt. eigenvalues --    9.51167   9.53148   9.59415   9.62761   9.63963
 Alpha virt. eigenvalues --    9.67339   9.71896   9.84162   9.88338   9.93067
 Alpha virt. eigenvalues --    9.94158  10.01563  10.05264  10.33367  10.43970
 Alpha virt. eigenvalues --   10.63657  10.64225  11.03666  11.24242  11.51168
 Alpha virt. eigenvalues --   11.51491  12.50293  12.68602  12.78551  12.81254
 Alpha virt. eigenvalues --   28.28601  28.42958  29.12382  29.30577 145.74474
 Alpha virt. eigenvalues --  145.88116 146.59846 146.79450
          Condensed to atoms (all electrons):
               1          2          3          4          5          6
     1  C    5.283275   0.545215  -0.057788  -0.001579   0.388871   0.397276
     2  C    0.545215   4.959854   0.396341  -0.057788  -0.054790  -0.045734
     3  C   -0.057788   0.396341   4.959854   0.545215  -0.011707   0.006250
     4  C   -0.001579  -0.057788   0.545215   5.283275  -0.000067  -0.000674
     5  H    0.388871  -0.054790  -0.011707  -0.000067   0.541019  -0.045326
     6  H    0.397276  -0.045734   0.006250  -0.000674  -0.045326   0.483796
     7  H   -0.066279   0.404816  -0.077185  -0.003897   0.009186  -0.009322
     8  H   -0.003897  -0.077185   0.404816  -0.066279   0.005385  -0.000496
     9  H   -0.000067  -0.011707  -0.054790   0.388871   0.000041  -0.000117
    10  H   -0.000674   0.006250  -0.045734   0.397276  -0.000117   0.000046
               7          8          9         10
     1  C   -0.066279  -0.003897  -0.000067  -0.000674
     2  C    0.404816  -0.077185  -0.011707   0.006250
     3  C   -0.077185   0.404816  -0.054790  -0.045734
     4  C   -0.003897  -0.066279   0.388871   0.397276
     5  H    0.009186   0.005385   0.000041  -0.000117
     6  H   -0.009322  -0.000496  -0.000117   0.000046
     7  H    0.562342   0.007629   0.005385  -0.000496
     8  H    0.007629   0.562342   0.009186  -0.009322
     9  H    0.005385   0.009186   0.541019  -0.045326
    10  H   -0.000496  -0.009322  -0.045326   0.483796
 Mulliken charges:
               1
     1  C   -0.484354
     2  C   -0.065274
     3  C   -0.065274
     4  C   -0.484354
     5  H    0.167504
     6  H    0.214301
     7  H    0.167822
     8  H    0.167822
     9  H    0.167504
    10  H    0.214301
 Sum of Mulliken charges =  -0.00000
 Mulliken charges with hydrogens summed into heavy atoms:
               1
     1  C   -0.102548
     2  C    0.102548
     3  C    0.102548
     4  C   -0.102548
 Electronic spatial extent (au):  <R**2>=            333.7970
 Charge=             -0.0000 electrons
 Dipole moment (field-independent basis, Debye):
    X=             -0.0000    Y=              0.0000    Z=              0.0000  Tot=              0.0000
 Quadrupole moment (field-independent basis, Debye-Ang):
   XX=            -23.1405   YY=            -23.0891   ZZ=            -29.0777
   XY=             -0.1349   XZ=              0.0000   YZ=              0.0000
 Traceless Quadrupole moment (field-independent basis, Debye-Ang):
   XX=              1.9619   YY=              2.0134   ZZ=             -3.9753
   XY=             -0.1349   XZ=              0.0000   YZ=              0.0000
 Octapole moment (field-independent basis, Debye-Ang**2):
  XXX=              0.0000  YYY=              0.0000  ZZZ=              0.0000  XYY=             -0.0000
  XXY=              0.0000  XXZ=              0.0000  XZZ=              0.0000  YZZ=              0.0000
  YYZ=              0.0000  XYZ=              0.0000
 Hexadecapole moment (field-independent basis, Debye-Ang**3):
 XXXX=           -106.4624 YYYY=           -307.7871 ZZZZ=            -35.3982 XXXY=            -47.2113
 XXXZ=              0.0000 YYYX=            -47.0869 YYYZ=              0.0000 ZZZX=              0.0000
 ZZZY=              0.0000 XXYY=            -63.5743 XXZZ=            -27.6083 YYZZ=            -67.5027
 XXYZ=              0.0000 YYXZ=              0.0000 ZZXY=            -20.4172
 N-N= 1.041209625348D+02 E-N=-5.693507405001D+02  KE= 1.552681014917D+02
 PrsmSu:  requested number of processors reduced to:  21 ShMem   1 Linda.
 No NMR shielding tensors so no spin-rotation constants.
 Leave Link  601 at Fri Apr 16 23:04:54 2021, MaxMem=   104857600 cpu:             354.6 elap:               7.7
 (Enter /s/ls4/users/knvvv/bin/g16sse/l801.exe)
 DoSCS=F DFT=T ScalE2(SS,OS)=  1.000000  1.000000
 Range of M.O.s used for correlation:     1   408
 NBasis=   408 NAE=    15 NBE=    15 NFC=     0 NFV=     0
 NROrb=    408 NOA=    15 NOB=    15 NVA=   393 NVB=   393

 **** Warning!!: The largest alpha MO coefficient is  0.30319758D+02

 Leave Link  801 at Fri Apr 16 23:04:54 2021, MaxMem=   104857600 cpu:               3.9 elap:               0.1
 (Enter /s/ls4/users/knvvv/bin/g16sse/l914.exe)
 RHF ground state
 Doing stability rather than CIS.
 Two-electron integrals replicated using symmetry.
 MDV=   104857600 DFT=T DoStab=T Mixed=T DoRPA=F DoScal=F NonHer=F
 Making orbital integer symmetry assigments:
 Orbital symmetries:
       Occupied  (AG) (BU) (AG) (BU) (AG) (BU) (AG) (BU) (BU) (AG)
                 (AG) (BU) (AG) (AU) (BG)
       Virtual   (AU) (AG) (BU) (BU) (BG) (AG) (AG) (BU) (BU) (AU)
                 (AG) (AG) (BG) (BU) (AG) (BG) (AU) (BU) (BU) (BU)
                 (AG) (BU) (AG) (BU) (AG) (BU) (AG) (AU) (AG) (BU)
                 (BG) (AG) (BU) (AG) (BG) (BU) (AU) (BU) (AG) (AU)
                 (AG) (BU) (BG) (AG) (AG) (BU) (AU) (BG) (AU) (BU)
                 (AU) (AG) (BG) (BG) (BU) (BU) (AU) (AG) (AG) (BU)
                 (AG) (BU) (BG) (AG) (BU) (BG) (BU) (AU) (AG) (BU)
                 (AG) (AG) (BU) (AU) (BU) (AG) (BG) (AG) (BU) (BU)
                 (AG) (AG) (BU) (AG) (BU) (AU) (BU) (AG) (BG) (AG)
                 (BU) (BG) (AG) (AU) (AG) (AU) (BG) (BU) (AU) (BU)
                 (AG) (BU) (AU) (BG) (BU) (AG) (BG) (AU) (AG) (BU)
                 (AG) (BG) (AU) (AG) (BG) (BU) (BU) (AU) (BU) (AU)
                 (BG) (AG) (BU) (AG) (BG) (BU) (BU) (AG) (AU) (AG)
                 (BG) (AU) (AG) (BU) (BG) (AU) (BG) (BU) (AG) (BG)
                 (AG) (BU) (AG) (AU) (BG) (BU) (AG) (AG) (AU) (BU)
                 (BU) (AG) (BG) (BU) (AU) (AG) (AG) (AG) (BU) (AU)
                 (BU) (BG) (BU) (AU) (BU) (AG) (AG) (BU) (BU) (AG)
                 (AU) (BG) (BG) (AG) (BU) (AG) (AU) (BU) (BG) (AG)
                 (AU) (BG) (BU) (AG) (AG) (BU) (AG) (AU) (BU) (BU)
                 (AG) (BG) (BU) (AG) (BU) (AG) (AG) (BU) (BU) (BU)
                 (AG) (BG) (AU) (BG) (AG) (AG) (AU) (BU) (BG) (BU)
                 (AU) (AG) (BU) (AU) (AG) (BG) (BU) (AU) (AU) (BG)
                 (BG) (AU) (BU) (BG) (AG) (AG) (BG) (AU) (BU) (BG)
                 (AG) (BU) (AU) (AG) (BU) (BU) (AU) (BG) (AG) (AU)
                 (BG) (AG) (BG) (BU) (AU) (BU) (AG) (AG) (AU) (BG)
                 (AG) (AG) (BU) (BU) (BG) (AU) (AG) (BU) (AU) (BU)
                 (AG) (BG) (AG) (BU) (BU) (AU) (AG) (BU) (AG) (AG)
                 (BU) (BG) (AU) (BG) (AU) (BU) (AG) (BG) (BU) (AG)
                 (AU) (BG) (AG) (BU) (AU) (AG) (BU) (BU) (AG) (AU)
                 (BU) (BG) (AU) (AG) (BU) (BG) (BG) (AU) (BU) (AG)
                 (BG) (AU) (BG) (AG) (AG) (BU) (BU) (AG) (BU) (AU)
                 (AG) (BU) (BG) (AG) (AU) (BU) (AG) (BU) (AG) (BU)
                 (AG) (BG) (AU) (AG) (BU) (BG) (BG) (BU) (AU) (AG)
                 (BU) (AG) (BG) (BU) (AU) (AG) (BU) (BU) (AG) (AU)
                 (BG) (AG) (BU) (BG) (AU) (AG) (BG) (AU) (BG) (AU)
                 (BU) (AG) (BU) (AG) (BU) (AG) (BU) (AG) (AU) (BU)
                 (AG) (BG) (BU) (AG) (AU) (BG) (BU) (AU) (BG) (AG)
                 (BU) (AG) (BU) (BU) (AG) (BU) (AG) (AG) (BU) (BU)
                 (AG) (BU) (AG) (AG) (BU) (AG) (BU) (AG) (BU) (AG)
                 (BU) (AG) (BU)
    24 initial guesses have been made.
 Convergence on wavefunction:    0.001000000000000
 Davidson Disk Diagonalization:  ConvIn= 1.00D-03 SkipCon=T Conv= 1.00D-03.
 Max sub-space:  2000 roots to seek:    24 dimension of matrix:        11790
 Iteration     1 Dimension    24 NMult     0 NNew     24
 Estimated number of processors is:   16
 CISAX will form     1 AO SS matrices at one time.
 NMat=     1 NSing=     1 JSym2X= 2.
 FoFJK:  IHMeth= 1 ICntrl=       0 DoSepK=F KAlg= 0 I1Cent=           0 FoldK=F
 IRaf= 950000000 NMat=       1 IRICut=       1 DoRegI=T DoRafI=F ISym2E= 2 IDoP0=0 IntGTp=1.
 FoFCou: FMM=F IPFlag=           0 FMFlag=      100000 FMFlg1=           0
         NFxFlg=           0 DoJE=F BraDBF=F KetDBF=F FulRan=T
         wScrn=  0.000000 ICntrl=         0 IOpCl=  0 I1Cent=           0 NGrid=           0
         NMat0=    1 NMatS0=      1 NMatT0=    0 NMatD0=    1 NMtDS0=    0 NMtDT0=    0
 Integrals replicated using symmetry in FoFCou.
 CoulSu:  requested number of processors reduced to:  19 ShMem   1 Linda.
 NMat=     1 NSing=     1 JSym2X= 2.
 CoulSu:  requested number of processors reduced to:  19 ShMem   1 Linda.
 NMat=     1 NSing=     1 JSym2X= 2.
 CoulSu:  requested number of processors reduced to:  19 ShMem   1 Linda.
 NMat=     1 NSing=     1 JSym2X= 2.
 CoulSu:  requested number of processors reduced to:  19 ShMem   1 Linda.
 NMat=     1 NSing=     1 JSym2X= 2.
 CoulSu:  requested number of processors reduced to:  19 ShMem   1 Linda.
 NMat=     1 NSing=     1 JSym2X= 2.
 CoulSu:  requested number of processors reduced to:  19 ShMem   1 Linda.
 NMat=     1 NSing=     1 JSym2X= 2.
 CoulSu:  requested number of processors reduced to:  19 ShMem   1 Linda.
 NMat=     1 NSing=     1 JSym2X= 2.
 CoulSu:  requested number of processors reduced to:  19 ShMem   1 Linda.
 NMat=     1 NSing=     1 JSym2X= 2.
 CoulSu:  requested number of processors reduced to:  19 ShMem   1 Linda.
 NMat=     1 NSing=     1 JSym2X= 2.
 CoulSu:  requested number of processors reduced to:  19 ShMem   1 Linda.
 NMat=     1 NSing=     1 JSym2X= 2.
 CoulSu:  requested number of processors reduced to:  19 ShMem   1 Linda.
 NMat=     1 NSing=     1 JSym2X= 2.
 CoulSu:  requested number of processors reduced to:  19 ShMem   1 Linda.
 NMat=     1 NSing=     0 JSym2X= 2.
 CoulSu:  requested number of processors reduced to:  19 ShMem   1 Linda.
 NMat=     1 NSing=     0 JSym2X= 2.
 CoulSu:  requested number of processors reduced to:  19 ShMem   1 Linda.
 NMat=     1 NSing=     0 JSym2X= 2.
 CoulSu:  requested number of processors reduced to:  19 ShMem   1 Linda.
 NMat=     1 NSing=     0 JSym2X= 2.
 CoulSu:  requested number of processors reduced to:  19 ShMem   1 Linda.
 NMat=     1 NSing=     0 JSym2X= 2.
 CoulSu:  requested number of processors reduced to:  19 ShMem   1 Linda.
 NMat=     1 NSing=     0 JSym2X= 2.
 CoulSu:  requested number of processors reduced to:  19 ShMem   1 Linda.
 NMat=     1 NSing=     0 JSym2X= 2.
 CoulSu:  requested number of processors reduced to:  19 ShMem   1 Linda.
 NMat=     1 NSing=     0 JSym2X= 2.
 CoulSu:  requested number of processors reduced to:  19 ShMem   1 Linda.
 NMat=     1 NSing=     0 JSym2X= 2.
 CoulSu:  requested number of processors reduced to:  19 ShMem   1 Linda.
 NMat=     1 NSing=     0 JSym2X= 2.
 CoulSu:  requested number of processors reduced to:  19 ShMem   1 Linda.
 NMat=     1 NSing=     0 JSym2X= 2.
 CoulSu:  requested number of processors reduced to:  19 ShMem   1 Linda.
 NMat=     1 NSing=     0 JSym2X= 2.
 CoulSu:  requested number of processors reduced to:  19 ShMem   1 Linda.
 New state      1 was old state      2
 Excitation Energies [eV] at current iteration:
 Root      1 :     3.139927804848506
 Root      2 :     5.279417069439471
 Root      3 :     7.247733662356626
 Root      4 :     7.248988962609737
 Root      5 :     7.263496579431134
 Root      6 :     7.322166582425326
 Root      7 :     7.354326477614602
 Root      8 :     7.372505756391171
 Root      9 :     7.549298906162364
 Root     10 :     7.663273591380188
 Root     11 :     7.704181443554750
 Root     12 :     7.806049243041316
 Root     13 :     8.595109837393517
 Root     14 :     8.625372062480444
 Root     15 :     8.701470195831217
 Root     16 :     8.801424275481400
 Root     17 :     8.842094163555236
 Root     18 :     9.261978019534578
 Root     19 :     9.270798132007149
 Root     20 :     9.723612083970703
 Root     21 :     9.754977216153014
 Root     22 :     9.828188792049001
 Root     23 :    12.078715621172510
 Root     24 :    13.702646059893630
 Iteration     2 Dimension    48 NMult    24 NNew     24
 Estimated number of processors is:   16
 CISAX will form     1 AO SS matrices at one time.
 NMat=     1 NSing=     1 JSym2X= 2.
 CoulSu:  requested number of processors reduced to:  19 ShMem   1 Linda.
 NMat=     1 NSing=     1 JSym2X= 2.
 CoulSu:  requested number of processors reduced to:  19 ShMem   1 Linda.
 NMat=     1 NSing=     1 JSym2X= 2.
 CoulSu:  requested number of processors reduced to:  19 ShMem   1 Linda.
 NMat=     1 NSing=     1 JSym2X= 2.
 CoulSu:  requested number of processors reduced to:  19 ShMem   1 Linda.
 NMat=     1 NSing=     1 JSym2X= 2.
 CoulSu:  requested number of processors reduced to:  19 ShMem   1 Linda.
 NMat=     1 NSing=     1 JSym2X= 2.
 CoulSu:  requested number of processors reduced to:  19 ShMem   1 Linda.
 NMat=     1 NSing=     1 JSym2X= 2.
 CoulSu:  requested number of processors reduced to:  19 ShMem   1 Linda.
 NMat=     1 NSing=     1 JSym2X= 2.
 CoulSu:  requested number of processors reduced to:  19 ShMem   1 Linda.
 NMat=     1 NSing=     1 JSym2X= 2.
 CoulSu:  requested number of processors reduced to:  19 ShMem   1 Linda.
 NMat=     1 NSing=     1 JSym2X= 2.
 CoulSu:  requested number of processors reduced to:  19 ShMem   1 Linda.
 NMat=     1 NSing=     1 JSym2X= 2.
 CoulSu:  requested number of processors reduced to:  19 ShMem   1 Linda.
 NMat=     1 NSing=     1 JSym2X= 2.
 CoulSu:  requested number of processors reduced to:  19 ShMem   1 Linda.
 NMat=     1 NSing=     0 JSym2X= 2.
 CoulSu:  requested number of processors reduced to:  19 ShMem   1 Linda.
 NMat=     1 NSing=     0 JSym2X= 2.
 CoulSu:  requested number of processors reduced to:  19 ShMem   1 Linda.
 NMat=     1 NSing=     0 JSym2X= 2.
 CoulSu:  requested number of processors reduced to:  19 ShMem   1 Linda.
 NMat=     1 NSing=     0 JSym2X= 2.
 CoulSu:  requested number of processors reduced to:  19 ShMem   1 Linda.
 NMat=     1 NSing=     0 JSym2X= 2.
 CoulSu:  requested number of processors reduced to:  19 ShMem   1 Linda.
 NMat=     1 NSing=     0 JSym2X= 2.
 CoulSu:  requested number of processors reduced to:  19 ShMem   1 Linda.
 NMat=     1 NSing=     0 JSym2X= 2.
 CoulSu:  requested number of processors reduced to:  19 ShMem   1 Linda.
 NMat=     1 NSing=     0 JSym2X= 2.
 CoulSu:  requested number of processors reduced to:  19 ShMem   1 Linda.
 NMat=     1 NSing=     0 JSym2X= 2.
 CoulSu:  requested number of processors reduced to:  19 ShMem   1 Linda.
 NMat=     1 NSing=     0 JSym2X= 2.
 CoulSu:  requested number of processors reduced to:  19 ShMem   1 Linda.
 NMat=     1 NSing=     0 JSym2X= 2.
 CoulSu:  requested number of processors reduced to:  19 ShMem   1 Linda.
 NMat=     1 NSing=     0 JSym2X= 2.
 CoulSu:  requested number of processors reduced to:  19 ShMem   1 Linda.
 Root      1 not converged, maximum delta is    0.125172539595557
 Excitation Energies [eV] at current iteration:
 Root      1 :     2.428745297725964   Change is   -0.711182507122541
 Root      2 :     4.477021376585251   Change is   -0.802395692854221
 Root      3 :     7.027794379851247   Change is   -0.221194582758490
 Root      4 :     7.140219546361257   Change is   -0.107514115995369
 Root      5 :     7.143268608945448   Change is   -0.120227970485687
 Root      6 :     7.161913508139123   Change is   -0.192412969475479
 Root      7 :     7.171507094847533   Change is   -0.150659487577793
 Root      8 :     7.187048767352486   Change is   -0.185456989038685
 Root      9 :     7.319144785457295   Change is   -1.382325410373922
 Root     10 :     7.404209950691680   Change is   -0.145088955470684
 Root     11 :     7.477483758964272   Change is   -0.226697684590477
 Root     12 :     7.533604157544919   Change is   -0.129669433835269
 Root     13 :     7.585741200300197   Change is   -0.220308042741118
 Root     14 :     8.430939398333551   Change is   -0.194432664146894
 Root     15 :     8.479972877936325   Change is   -0.115136959457194
 Root     16 :     8.638135516154930   Change is   -0.163288759326470
 Root     17 :     8.640673456982540   Change is   -0.201420706572696
 Root     18 :     9.014256476861048   Change is   -0.256541655146101
 Root     19 :     9.106565469020577   Change is   -0.155412550514000
 Root     20 :     9.417529688778258   Change is   -0.306082395192446
 Root     21 :     9.608156528871101   Change is   -0.146820687281914
 Root     22 :     9.621348207774405   Change is   -2.457367413398102
 Root     23 :     9.664091222134184   Change is   -0.164097569914818
 Root     24 :     9.736697696704557   Change is   -3.965948363189070
 Iteration     3 Dimension    54 NMult    48 NNew      6
 Estimated number of processors is:   16
 CISAX will form     1 AO SS matrices at one time.
 NMat=     1 NSing=     1 JSym2X= 2.
 CoulSu:  requested number of processors reduced to:  19 ShMem   1 Linda.
 NMat=     1 NSing=     1 JSym2X= 2.
 CoulSu:  requested number of processors reduced to:  19 ShMem   1 Linda.
 NMat=     1 NSing=     1 JSym2X= 2.
 CoulSu:  requested number of processors reduced to:  19 ShMem   1 Linda.
 NMat=     1 NSing=     0 JSym2X= 2.
 CoulSu:  requested number of processors reduced to:  19 ShMem   1 Linda.
 NMat=     1 NSing=     0 JSym2X= 2.
 CoulSu:  requested number of processors reduced to:  19 ShMem   1 Linda.
 NMat=     1 NSing=     0 JSym2X= 2.
 CoulSu:  requested number of processors reduced to:  19 ShMem   1 Linda.
 Root      1 not converged, maximum delta is    0.025812523376079
 Excitation Energies [eV] at current iteration:
 Root      1 :     2.385725275005267   Change is   -0.043020022720697
 Root      2 :     4.434158939237112   Change is   -0.042862437348138
 Root      3 :     7.017809268084285   Change is   -0.009985111766962
 Root      4 :     7.068418904382257   Change is   -0.250725881075038
 Root      5 :     7.134752788218333   Change is   -0.008515820727114
 Root      6 :     7.135666586460502   Change is   -0.004552959900755
 Iteration     4 Dimension    60 NMult    54 NNew      6
 Estimated number of processors is:   16
 CISAX will form     1 AO SS matrices at one time.
 NMat=     1 NSing=     1 JSym2X= 2.
 CoulSu:  requested number of processors reduced to:  19 ShMem   1 Linda.
 NMat=     1 NSing=     1 JSym2X= 2.
 CoulSu:  requested number of processors reduced to:  19 ShMem   1 Linda.
 NMat=     1 NSing=     1 JSym2X= 2.
 CoulSu:  requested number of processors reduced to:  19 ShMem   1 Linda.
 NMat=     1 NSing=     0 JSym2X= 2.
 CoulSu:  requested number of processors reduced to:  19 ShMem   1 Linda.
 NMat=     1 NSing=     0 JSym2X= 2.
 CoulSu:  requested number of processors reduced to:  19 ShMem   1 Linda.
 NMat=     1 NSing=     0 JSym2X= 2.
 CoulSu:  requested number of processors reduced to:  19 ShMem   1 Linda.
 Root      1 not converged, maximum delta is    0.002793546707420
 Excitation Energies [eV] at current iteration:
 Root      1 :     2.383636590360778   Change is   -0.002088684644489
 Root      2 :     4.431285246224661   Change is   -0.002873693012451
 Root      3 :     7.016752827543908   Change is   -0.001056440540378
 Root      4 :     7.049719217441475   Change is   -0.018699686940782
 Root      5 :     7.134321424514937   Change is   -0.000431363703397
 Root      6 :     7.135061428103527   Change is   -0.000605158356975
 Iteration     5 Dimension    66 NMult    60 NNew      6
 Estimated number of processors is:   16
 CISAX will form     1 AO SS matrices at one time.
 NMat=     1 NSing=     1 JSym2X= 2.
 CoulSu:  requested number of processors reduced to:  19 ShMem   1 Linda.
 NMat=     1 NSing=     1 JSym2X= 2.
 CoulSu:  requested number of processors reduced to:  19 ShMem   1 Linda.
 NMat=     1 NSing=     1 JSym2X= 2.
 CoulSu:  requested number of processors reduced to:  19 ShMem   1 Linda.
 NMat=     1 NSing=     0 JSym2X= 2.
 CoulSu:  requested number of processors reduced to:  19 ShMem   1 Linda.
 NMat=     1 NSing=     0 JSym2X= 2.
 CoulSu:  requested number of processors reduced to:  19 ShMem   1 Linda.
 NMat=     1 NSing=     0 JSym2X= 2.
 CoulSu:  requested number of processors reduced to:  19 ShMem   1 Linda.
 Root      1 has converged.
 Excitation Energies [eV] at current iteration:
 Root      1 :     2.383549171759900   Change is   -0.000087418600878
 Root      2 :     4.431125826773314   Change is   -0.000159419451348
 Root      3 :     7.016494980594310   Change is   -0.000257846949597
 Root      4 :     7.047128009210772   Change is   -0.002591208230703
 Root      5 :     7.134277215103413   Change is   -0.000044209411524
 Root      6 :     7.134884157867133   Change is   -0.000177270236394
 Convergence achieved on expansion vectors.
 ***********************************************************************
 Stability analysis using <AA,BB:AA,BB> singles matrix:
 ***********************************************************************
 1PDM for each excited state written to RWF  633
 Ground to excited state transition densities written to RWF  633

 Eigenvectors of the stability matrix:
 
 Eigenvector   1:      Triplet-BU   Eigenvalue= 0.0875938  <S**2>=2.000
      14 -> 20        -0.15128
      14 -> 31         0.10037
      15 -> 16         0.67030
 The wavefunction is stable under the perturbations considered.
 Leave Link  914 at Fri Apr 16 23:21:29 2021, MaxMem=   104857600 cpu:           38473.0 elap:             994.5
 (Enter /s/ls4/users/knvvv/bin/g16sse/l508.exe)
 The wavefunction is already stable.
 Leave Link  508 at Fri Apr 16 23:21:29 2021, MaxMem=   104857600 cpu:               2.2 elap:               0.1
 (Enter /s/ls4/users/knvvv/bin/g16sse/l601.exe)
 Copying SCF densities to generalized density rwf, IOpCl= 0 IROHF=0.

 **********************************************************************

            Population analysis using the SCF density.

 **********************************************************************

 Orbital symmetries:
       Occupied  (AG) (BU) (AG) (BU) (AG) (BU) (AG) (BU) (BU) (AG)
                 (AG) (BU) (AG) (AU) (BG)
       Virtual   (AU) (AG) (BU) (BU) (BG) (AG) (AG) (BU) (BU) (AU)
                 (AG) (AG) (BG) (BU) (AG) (BG) (AU) (BU) (BU) (BU)
                 (AG) (BU) (AG) (BU) (AG) (BU) (AG) (AU) (AG) (BU)
                 (BG) (AG) (BU) (AG) (BG) (BU) (AU) (BU) (AG) (AU)
                 (AG) (BU) (BG) (AG) (AG) (BU) (AU) (BG) (AU) (BU)
                 (AU) (AG) (BG) (BG) (BU) (BU) (AU) (AG) (AG) (BU)
                 (AG) (BU) (BG) (AG) (BU) (BG) (BU) (AU) (AG) (BU)
                 (AG) (AG) (BU) (AU) (BU) (AG) (BG) (AG) (BU) (BU)
                 (AG) (AG) (BU) (AG) (BU) (AU) (BU) (AG) (BG) (AG)
                 (BU) (BG) (AG) (AU) (AG) (AU) (BG) (BU) (AU) (BU)
                 (AG) (BU) (AU) (BG) (BU) (AG) (BG) (AU) (AG) (BU)
                 (AG) (BG) (AU) (AG) (BG) (BU) (BU) (AU) (BU) (AU)
                 (BG) (AG) (BU) (AG) (BG) (BU) (BU) (AG) (AU) (AG)
                 (BG) (AU) (AG) (BU) (BG) (AU) (BG) (BU) (AG) (BG)
                 (AG) (BU) (AG) (AU) (BG) (BU) (AG) (AG) (AU) (BU)
                 (BU) (AG) (BG) (BU) (AU) (AG) (AG) (AG) (BU) (AU)
                 (BU) (BG) (BU) (AU) (BU) (AG) (AG) (BU) (BU) (AG)
                 (AU) (BG) (BG) (AG) (BU) (AG) (AU) (BU) (BG) (AG)
                 (AU) (BG) (BU) (AG) (AG) (BU) (AG) (AU) (BU) (BU)
                 (AG) (BG) (BU) (AG) (BU) (AG) (AG) (BU) (BU) (BU)
                 (AG) (BG) (AU) (BG) (AG) (AG) (AU) (BU) (BG) (BU)
                 (AU) (AG) (BU) (AU) (AG) (BG) (BU) (AU) (AU) (BG)
                 (BG) (AU) (BU) (BG) (AG) (AG) (BG) (AU) (BU) (BG)
                 (AG) (BU) (AU) (AG) (BU) (BU) (AU) (BG) (AG) (AU)
                 (BG) (AG) (BG) (BU) (AU) (BU) (AG) (AG) (AU) (BG)
                 (AG) (AG) (BU) (BU) (BG) (AU) (AG) (BU) (AU) (BU)
                 (AG) (BG) (AG) (BU) (BU) (AU) (AG) (BU) (AG) (AG)
                 (BU) (BG) (AU) (BG) (AU) (BU) (AG) (BG) (BU) (AG)
                 (AU) (BG) (AG) (BU) (AU) (AG) (BU) (BU) (AG) (AU)
                 (BU) (BG) (AU) (AG) (BU) (BG) (BG) (AU) (BU) (AG)
                 (BG) (AU) (BG) (AG) (AG) (BU) (BU) (AG) (BU) (AU)
                 (AG) (BU) (BG) (AG) (AU) (BU) (AG) (BU) (AG) (BU)
                 (AG) (BG) (AU) (AG) (BU) (BG) (BG) (BU) (AU) (AG)
                 (BU) (AG) (BG) (BU) (AU) (AG) (BU) (BU) (AG) (AU)
                 (BG) (AG) (BU) (BG) (AU) (AG) (BG) (AU) (BG) (AU)
                 (BU) (AG) (BU) (AG) (BU) (AG) (BU) (AG) (AU) (BU)
                 (AG) (BG) (BU) (AG) (AU) (BG) (BU) (AU) (BG) (AG)
                 (BU) (AG) (BU) (BU) (AG) (BU) (AG) (AG) (BU) (BU)
                 (AG) (BU) (AG) (AG) (BU) (AG) (BU) (AG) (BU) (AG)
                 (BU) (AG) (BU)
 The electronic state is 1-AG.
 Alpha  occ. eigenvalues --  -10.54969 -10.54913 -10.54093 -10.54093  -0.91252
 Alpha  occ. eigenvalues --   -0.83302  -0.69157  -0.63437  -0.54017  -0.53666
 Alpha  occ. eigenvalues --   -0.45886  -0.45226  -0.40762  -0.39592  -0.29268
 Alpha virt. eigenvalues --   -0.00192   0.05940   0.06061   0.06827   0.08026
 Alpha virt. eigenvalues --    0.10264   0.10999   0.13128   0.14359   0.15063
 Alpha virt. eigenvalues --    0.17739   0.19648   0.19724   0.21312   0.22201
 Alpha virt. eigenvalues --    0.24555   0.25310   0.27113   0.28734   0.32324
 Alpha virt. eigenvalues --    0.33445   0.34883   0.35060   0.36306   0.37448
 Alpha virt. eigenvalues --    0.40734   0.40896   0.42711   0.44837   0.45667
 Alpha virt. eigenvalues --    0.46274   0.46411   0.48188   0.52974   0.54501
 Alpha virt. eigenvalues --    0.54710   0.57050   0.61115   0.63137   0.65217
 Alpha virt. eigenvalues --    0.66353   0.69065   0.73615   0.74409   0.75422
 Alpha virt. eigenvalues --    0.76491   0.77472   0.78145   0.78176   0.80385
 Alpha virt. eigenvalues --    0.81188   0.82588   0.82722   0.83049   0.87387
 Alpha virt. eigenvalues --    0.89082   0.89325   0.90266   0.92771   0.93003
 Alpha virt. eigenvalues --    0.95046   0.95736   0.96075   0.98585   1.01293
 Alpha virt. eigenvalues --    1.01708   1.05330   1.07216   1.07590   1.08854
 Alpha virt. eigenvalues --    1.09695   1.14283   1.14923   1.16373   1.19173
 Alpha virt. eigenvalues --    1.19859   1.20865   1.29837   1.30075   1.30973
 Alpha virt. eigenvalues --    1.32843   1.36157   1.43007   1.58794   1.59893
 Alpha virt. eigenvalues --    1.61606   1.62063   1.62153   1.64649   1.66514
 Alpha virt. eigenvalues --    1.67196   1.73352   1.74833   1.76929   1.80719
 Alpha virt. eigenvalues --    1.82569   1.83321   1.83652   1.86778   1.86796
 Alpha virt. eigenvalues --    1.86966   1.91746   1.93101   1.93119   1.94333
 Alpha virt. eigenvalues --    1.95322   1.98058   1.99529   1.99751   2.01806
 Alpha virt. eigenvalues --    2.02775   2.02949   2.05277   2.09147   2.10414
 Alpha virt. eigenvalues --    2.10914   2.12421   2.15028   2.18088   2.20331
 Alpha virt. eigenvalues --    2.22018   2.23030   2.24122   2.28507   2.34595
 Alpha virt. eigenvalues --    2.35039   2.36799   2.36869   2.40271   2.40594
 Alpha virt. eigenvalues --    2.43327   2.45705   2.47338   2.47602   2.47743
 Alpha virt. eigenvalues --    2.49508   2.53793   2.54718   2.54934   2.54976
 Alpha virt. eigenvalues --    2.58674   2.60089   2.60178   2.61456   2.62159
 Alpha virt. eigenvalues --    2.63625   2.65624   2.66697   2.68331   2.68671
 Alpha virt. eigenvalues --    2.71358   2.78431   2.81118   2.82451   2.82743
 Alpha virt. eigenvalues --    2.84830   2.94220   2.95705   2.96593   2.98583
 Alpha virt. eigenvalues --    3.02056   3.03439   3.13875   3.23363   3.25593
 Alpha virt. eigenvalues --    3.26905   3.28075   3.30416   3.32826   3.36450
 Alpha virt. eigenvalues --    3.36724   3.36874   3.39709   3.42915   3.46365
 Alpha virt. eigenvalues --    3.47028   3.48477   3.50008   3.57399   3.66871
 Alpha virt. eigenvalues --    3.67916   3.70523   3.73499   3.75140   3.79332
 Alpha virt. eigenvalues --    3.80930   3.82403   3.83571   3.90549   3.99866
 Alpha virt. eigenvalues --    4.00929   4.05094   4.07575   4.09898   4.29858
 Alpha virt. eigenvalues --    4.39847   4.41482   4.41803   4.70651   4.80261
 Alpha virt. eigenvalues --    4.80893   4.82471   4.84337   4.85767   4.87544
 Alpha virt. eigenvalues --    4.92911   4.98690   5.00061   5.07499   5.10228
 Alpha virt. eigenvalues --    5.10518   5.18559   5.23282   5.24226   5.29194
 Alpha virt. eigenvalues --    5.31108   5.33428   5.36157   5.37763   5.40580
 Alpha virt. eigenvalues --    5.42656   5.47110   5.53636   5.54246   5.54373
 Alpha virt. eigenvalues --    5.56848   5.58616   5.59878   5.62972   5.63158
 Alpha virt. eigenvalues --    5.65706   5.67084   5.77483   5.78622   5.80454
 Alpha virt. eigenvalues --    5.82836   5.82926   5.83605   5.83923   5.85370
 Alpha virt. eigenvalues --    5.89193   5.90037   5.92130   5.93976   5.96483
 Alpha virt. eigenvalues --    5.97527   5.98717   6.03407   6.04740   6.11328
 Alpha virt. eigenvalues --    6.11940   6.12233   6.13310   6.13550   6.15572
 Alpha virt. eigenvalues --    6.15980   6.15989   6.19064   6.26978   6.28661
 Alpha virt. eigenvalues --    6.28736   6.29559   6.30899   6.31326   6.39015
 Alpha virt. eigenvalues --    6.39953   6.40320   6.45440   6.45908   6.55542
 Alpha virt. eigenvalues --    6.56331   6.59806   6.61470   6.65871   6.67216
 Alpha virt. eigenvalues --    6.68248   6.68491   6.74039   6.78600   6.84559
 Alpha virt. eigenvalues --    6.86615   6.89443   6.92055   6.93316   6.97888
 Alpha virt. eigenvalues --    7.00315   7.01960   7.09988   7.12392   7.13713
 Alpha virt. eigenvalues --    7.20334   7.20612   7.24948   7.27751   7.29544
 Alpha virt. eigenvalues --    7.31130   7.35200   7.35904   7.36394   7.36427
 Alpha virt. eigenvalues --    7.37351   7.39558   7.44575   7.45953   7.47196
 Alpha virt. eigenvalues --    7.48536   7.52153   7.56652   7.61921   7.62108
 Alpha virt. eigenvalues --    7.63679   7.65869   7.73854   7.79882   7.80149
 Alpha virt. eigenvalues --    7.81322   7.85634   7.86882   7.90005   7.93551
 Alpha virt. eigenvalues --    7.96033   7.98021   7.99655   8.00405   8.00793
 Alpha virt. eigenvalues --    8.01444   8.04010   8.04474   8.04948   8.12693
 Alpha virt. eigenvalues --    8.14412   8.18538   8.22303   8.23386   8.25029
 Alpha virt. eigenvalues --    8.25339   8.25832   8.27907   8.33225   8.35726
 Alpha virt. eigenvalues --    8.40362   8.42873   8.45443   8.46302   8.47667
 Alpha virt. eigenvalues --    8.53312   8.54728   8.58581   8.67454   8.78340
 Alpha virt. eigenvalues --    8.85753   8.85929   8.95092   8.99331   9.09523
 Alpha virt. eigenvalues --    9.21247   9.31503   9.38227   9.50265   9.50416
 Alpha virt. eigenvalues --    9.51167   9.53148   9.59415   9.62761   9.63963
 Alpha virt. eigenvalues --    9.67339   9.71896   9.84162   9.88338   9.93067
 Alpha virt. eigenvalues --    9.94158  10.01563  10.05264  10.33367  10.43970
 Alpha virt. eigenvalues --   10.63657  10.64225  11.03666  11.24242  11.51168
 Alpha virt. eigenvalues --   11.51491  12.50293  12.68602  12.78551  12.81254
 Alpha virt. eigenvalues --   28.28601  28.42958  29.12382  29.30577 145.74474
 Alpha virt. eigenvalues --  145.88116 146.59846 146.79450
          Condensed to atoms (all electrons):
               1          2          3          4          5          6
     1  C    5.283275   0.545215  -0.057788  -0.001579   0.388871   0.397276
     2  C    0.545215   4.959854   0.396341  -0.057788  -0.054790  -0.045734
     3  C   -0.057788   0.396341   4.959854   0.545215  -0.011707   0.006250
     4  C   -0.001579  -0.057788   0.545215   5.283275  -0.000067  -0.000674
     5  H    0.388871  -0.054790  -0.011707  -0.000067   0.541019  -0.045326
     6  H    0.397276  -0.045734   0.006250  -0.000674  -0.045326   0.483796
     7  H   -0.066279   0.404816  -0.077185  -0.003897   0.009186  -0.009322
     8  H   -0.003897  -0.077185   0.404816  -0.066279   0.005385  -0.000496
     9  H   -0.000067  -0.011707  -0.054790   0.388871   0.000041  -0.000117
    10  H   -0.000674   0.006250  -0.045734   0.397276  -0.000117   0.000046
               7          8          9         10
     1  C   -0.066279  -0.003897  -0.000067  -0.000674
     2  C    0.404816  -0.077185  -0.011707   0.006250
     3  C   -0.077185   0.404816  -0.054790  -0.045734
     4  C   -0.003897  -0.066279   0.388871   0.397276
     5  H    0.009186   0.005385   0.000041  -0.000117
     6  H   -0.009322  -0.000496  -0.000117   0.000046
     7  H    0.562342   0.007629   0.005385  -0.000496
     8  H    0.007629   0.562342   0.009186  -0.009322
     9  H    0.005385   0.009186   0.541019  -0.045326
    10  H   -0.000496  -0.009322  -0.045326   0.483796
 Mulliken charges:
               1
     1  C   -0.484354
     2  C   -0.065274
     3  C   -0.065274
     4  C   -0.484354
     5  H    0.167504
     6  H    0.214301
     7  H    0.167822
     8  H    0.167822
     9  H    0.167504
    10  H    0.214301
 Sum of Mulliken charges =  -0.00000
 Mulliken charges with hydrogens summed into heavy atoms:
               1
     1  C   -0.102548
     2  C    0.102548
     3  C    0.102548
     4  C   -0.102548
 Electronic spatial extent (au):  <R**2>=            333.7970
 Charge=             -0.0000 electrons
 Dipole moment (field-independent basis, Debye):
    X=             -0.0000    Y=              0.0000    Z=              0.0000  Tot=              0.0000
 Quadrupole moment (field-independent basis, Debye-Ang):
   XX=            -23.1405   YY=            -23.0891   ZZ=            -29.0777
   XY=             -0.1349   XZ=              0.0000   YZ=              0.0000
 Traceless Quadrupole moment (field-independent basis, Debye-Ang):
   XX=              1.9619   YY=              2.0134   ZZ=             -3.9753
   XY=             -0.1349   XZ=              0.0000   YZ=              0.0000
 Octapole moment (field-independent basis, Debye-Ang**2):
  XXX=              0.0000  YYY=              0.0000  ZZZ=              0.0000  XYY=             -0.0000
  XXY=              0.0000  XXZ=              0.0000  XZZ=              0.0000  YZZ=              0.0000
  YYZ=              0.0000  XYZ=              0.0000
 Hexadecapole moment (field-independent basis, Debye-Ang**3):
 XXXX=           -106.4624 YYYY=           -307.7871 ZZZZ=            -35.3982 XXXY=            -47.2113
 XXXZ=              0.0000 YYYX=            -47.0869 YYYZ=              0.0000 ZZZX=              0.0000
 ZZZY=              0.0000 XXYY=            -63.5743 XXZZ=            -27.6083 YYZZ=            -67.5027
 XXYZ=              0.0000 YYXZ=              0.0000 ZZXY=            -20.4172
 N-N= 1.041209625348D+02 E-N=-5.693507405001D+02  KE= 1.552681014917D+02
 PrsmSu:  requested number of processors reduced to:  21 ShMem   1 Linda.
 No NMR shielding tensors so no spin-rotation constants.
 Leave Link  601 at Fri Apr 16 23:21:37 2021, MaxMem=   104857600 cpu:             368.4 elap:               8.0
 (Enter /s/ls4/users/knvvv/bin/g16sse/l9999.exe)

 Test job not archived.
 1\1\GINC-N179\Stability\RM062X\def2QZVP\C4H6\KNVVV\16-Apr-2021\0\\#P M
 062X/Def2QZVP Integral=UltraFineGrid SCF=NoSymm Stable=(RExt, Opt) IOp
 (1/33=1)\\Database calculations.\\0,1\C,0,-1.8353011953,-0.1181609656,
 0.\C,0,-0.6065813739,0.3964795289,0.\C,0,0.6065813739,-0.3964795289,0.
 \C,0,1.8353011953,0.1181609656,0.\H,0,-1.9961018782,-1.1915374835,0.\H
 ,0,-2.7159951976,0.5121675419,0.\H,0,-0.4778729252,1.4768219374,0.\H,0
 ,0.4778729252,-1.4768219374,0.\H,0,1.9961018782,1.1915374835,0.\H,0,2.
 7159951976,-0.5121675419,0.\\Version=ES64L-G16RevA.03\State=1-AG\HF=-1
 55.9839449\RMSD=4.145e-09\Dipole=0.,0.,0.\Quadrupole=1.4197208,1.53578
 34,-2.9555042,0.0839655,0.,0.\PG=C02H [SGH(C4H6)]\\@


 Boundary, n.  In political geography, an imaginary
 line between two nations, separating the imaginary
 rights of one from the imaginary rights of another.
                               -- Ambrose Bierce
 Job cpu time:       0 days 11 hours 48 minutes  6.5 seconds.
 Elapsed time:       0 days  0 hours 18 minutes 17.3 seconds.
 File lengths (MBytes):  RWF=    320 Int=      0 D2E=      0 Chk=     19 Scr=      1
 Normal termination of Gaussian 16 at Fri Apr 16 23:21:37 2021.
