 Entering Gaussian System, Link 0=/s/ls4/users/knvvv/bin/g16sse/g16
 Input=data/database/M062X--def2-QZVPPD--19_Cl-_SeF2_monA_Bauza30.gjf
 Output=data/database/M062X--def2-QZVPPD--19_Cl-_SeF2_monA_Bauza30.log
 Initial command:
 /s/ls4/users/knvvv/bin/g16sse/l1.exe "/s/ls4/users/knvvv/bin/scratch/Gau-4856.inp" -scrdir="/s/ls4/users/knvvv/bin/scratch/"
 Entering Link 1 = /s/ls4/users/knvvv/bin/g16sse/l1.exe PID=      4857.
  
 Copyright (c) 1988,1990,1992,1993,1995,1998,2003,2009,2016,
            Gaussian, Inc.  All Rights Reserved.
  
 This is part of the Gaussian(R) 16 program.  It is based on
 the Gaussian(R) 09 system (copyright 2009, Gaussian, Inc.),
 the Gaussian(R) 03 system (copyright 2003, Gaussian, Inc.),
 the Gaussian(R) 98 system (copyright 1998, Gaussian, Inc.),
 the Gaussian(R) 94 system (copyright 1995, Gaussian, Inc.),
 the Gaussian 92(TM) system (copyright 1992, Gaussian, Inc.),
 the Gaussian 90(TM) system (copyright 1990, Gaussian, Inc.),
 the Gaussian 88(TM) system (copyright 1988, Gaussian, Inc.),
 the Gaussian 86(TM) system (copyright 1986, Carnegie Mellon
 University), and the Gaussian 82(TM) system (copyright 1983,
 Carnegie Mellon University). Gaussian is a federally registered
 trademark of Gaussian, Inc.
  
 This software contains proprietary and confidential information,
 including trade secrets, belonging to Gaussian, Inc.
  
 This software is provided under written license and may be
 used, copied, transmitted, or stored only in accord with that
 written license.
  
 The following legend is applicable only to US Government
 contracts under FAR:
  
                    RESTRICTED RIGHTS LEGEND
  
 Use, reproduction and disclosure by the US Government is
 subject to restrictions as set forth in subparagraphs (a)
 and (c) of the Commercial Computer Software - Restricted
 Rights clause in FAR 52.227-19.
  
 Gaussian, Inc.
 340 Quinnipiac St., Bldg. 40, Wallingford CT 06492
  
  
 ---------------------------------------------------------------
 Warning -- This program may not be used in any manner that
 competes with the business of Gaussian, Inc. or will provide
 assistance to any competitor of Gaussian, Inc.  The licensee
 of this program is prohibited from giving any competitor of
 Gaussian, Inc. access to this program.  By using this program,
 the user acknowledges that Gaussian, Inc. is engaged in the
 business of creating and licensing software in the field of
 computational chemistry and represents and warrants to the
 licensee that it is not a competitor of Gaussian, Inc. and that
 it will not use this program in any manner prohibited above.
 ---------------------------------------------------------------
  

 Cite this work as:
 Gaussian 16, Revision A.03,
 M. J. Frisch, G. W. Trucks, H. B. Schlegel, G. E. Scuseria, 
 M. A. Robb, J. R. Cheeseman, G. Scalmani, V. Barone, 
 G. A. Petersson, H. Nakatsuji, X. Li, M. Caricato, A. V. Marenich, 
 J. Bloino, B. G. Janesko, R. Gomperts, B. Mennucci, H. P. Hratchian, 
 J. V. Ortiz, A. F. Izmaylov, J. L. Sonnenberg, D. Williams-Young, 
 F. Ding, F. Lipparini, F. Egidi, J. Goings, B. Peng, A. Petrone, 
 T. Henderson, D. Ranasinghe, V. G. Zakrzewski, J. Gao, N. Rega, 
 G. Zheng, W. Liang, M. Hada, M. Ehara, K. Toyota, R. Fukuda, 
 J. Hasegawa, M. Ishida, T. Nakajima, Y. Honda, O. Kitao, H. Nakai, 
 T. Vreven, K. Throssell, J. A. Montgomery, Jr., J. E. Peralta, 
 F. Ogliaro, M. J. Bearpark, J. J. Heyd, E. N. Brothers, K. N. Kudin, 
 V. N. Staroverov, T. A. Keith, R. Kobayashi, J. Normand, 
 K. Raghavachari, A. P. Rendell, J. C. Burant, S. S. Iyengar, 
 J. Tomasi, M. Cossi, J. M. Millam, M. Klene, C. Adamo, R. Cammi, 
 J. W. Ochterski, R. L. Martin, K. Morokuma, O. Farkas, 
 J. B. Foresman, and D. J. Fox, Gaussian, Inc., Wallingford CT, 2016.
 
 ******************************************
 Gaussian 16:  ES64L-G16RevA.03 25-Dec-2016
                17-Apr-2021 
 ******************************************
 %RWF=temp2_6657,70GB
 %nprocshared=48
 Will use up to   48 processors via shared memory.
 Default route: MaxDisk=80GB
 ----------------------------------------------------------------------
 #P M062X/GEN Integral=UltraFineGrid SCF=NoSymm Stable=(RExt, Opt) IOp(
 1/33=1)
 ----------------------------------------------------------------------
 1/33=1,38=1,172=1/1;
 2/12=2,17=6,18=5,40=1/2;
 3/5=7,11=2,25=1,30=1,74=-55,75=-5/1,2,3;
 4/9=2/1;
 5/5=2,38=5/2;
 6/7=2,8=2,9=2,10=2,28=1/1;
 8/6=1,10=90,11=11/1;
 9/8=-3,42=1,46=1/14;
 5/5=2,8=3,17=40,38=5/8(-2);
 6/7=2,8=2,9=2,10=2,28=1/1;
 99/5=1,9=1/99;
 Leave Link    1 at Sat Apr 17 19:26:35 2021, MaxMem=           0 cpu:              11.0 elap:               0.2
 (Enter /s/ls4/users/knvvv/bin/g16sse/l101.exe)
 ONIOM data not found on unit 2.
 ----------------------
 Database calculations.
 ----------------------
 TstMul:  ICh=    -1
 TstMul:  Mul=     1
 TstMul:  ICh=    -1
 TstMul:  Mul=     1
 Symbolic Z-matrix:
 Charge = -1 Multiplicity = 1
 Cl                   -2.11409  -0.05575   0. 
 
 RdStrC is calling ZToCFu for IStruc=1 NZ=     1.
 PrtBox:  NBox=     1 Levels=  0 BoxLen=    8.00 SMaxX=        0.00
          Shift=            3.995058            0.105354            0.000000
 Box      1 Number                   0 centers from      1 to      1:
 After GenITR:
 ITRead=  0
 MicOpt= -1
 ITRead=  0
 MicOpt= -1
 NAtoms=      1 NQM=        1 NQMF=       0 NMMI=      0 NMMIF=      0
                NMic=       0 NMicF=      0.
                    Isotopes and Nuclear Properties:
 (Nuclear quadrupole moments (NQMom) in fm**2, nuclear magnetic moments (NMagM)
  in nuclear magnetons)

  Atom         1
 IAtWgt=          35
 AtmWgt=  34.9688527
 NucSpn=           3
 AtZEff=  -0.0000000
 NQMom=   -8.1650000
 NMagM=    0.8218740
 AtZNuc=  17.0000000
 No MM parameters found.
 Leave Link  101 at Sat Apr 17 19:26:35 2021, MaxMem=   104857600 cpu:               6.8 elap:               0.2
 (Enter /s/ls4/users/knvvv/bin/g16sse/l202.exe)
                          Input orientation:                          
 ---------------------------------------------------------------------
 Center     Atomic      Atomic             Coordinates (Angstroms)
 Number     Number       Type             X           Y           Z
 ---------------------------------------------------------------------
      1         17           0       -2.114094   -0.055751    0.000000
 ---------------------------------------------------------------------
 Stoichiometry    Cl(1-)
 Framework group  OH[O(Cl)]
 Deg. of freedom     0
 Full point group                 OH      NOp  48
 Largest Abelian subgroup         D2H     NOp   8
 Largest concise Abelian subgroup C1      NOp   1
                         Standard orientation:                         
 ---------------------------------------------------------------------
 Center     Atomic      Atomic             Coordinates (Angstroms)
 Number     Number       Type             X           Y           Z
 ---------------------------------------------------------------------
      1         17           0        0.000000    0.000000    0.000000
 ---------------------------------------------------------------------
 Leave Link  202 at Sat Apr 17 19:26:36 2021, MaxMem=   104857600 cpu:              44.5 elap:               1.0
 (Enter /s/ls4/users/knvvv/bin/g16sse/l301.exe)
 General basis read from cards:  (5D, 7F)
 Centers:       1
 S 10 1.00
     Exponent=  1.4674590095D+06 Coefficients=  1.1478257194D-05
     Exponent=  2.1975616433D+05 Coefficients=  8.9234299775D-05
     Exponent=  5.0010770301D+04 Coefficients=  4.6911086186D-04
     Exponent=  1.4164823918D+04 Coefficients=  1.9762446133D-03
     Exponent=  4.6207465525D+03 Coefficients=  7.1419937783D-03
     Exponent=  1.6678991635D+03 Coefficients=  2.2753219445D-02
     Exponent=  6.5029199265D+02 Coefficients=  6.3959782953D-02
     Exponent=  2.6938037376D+02 Coefficients=  1.5331059238D-01
     Exponent=  1.1706752106D+02 Coefficients=  2.8986952417D-01
     Exponent=  5.2811766843D+01 Coefficients=  3.6348071452D-01
 S 3 1.00
     Exponent=  4.6142769988D+02 Coefficients=  1.8019457578D-02
     Exponent=  1.4212665355D+02 Coefficients=  1.6489442314D-01
     Exponent=  5.4437838768D+01 Coefficients=  6.3891587584D-01
 S 1 1.00
     Exponent=  2.4160770219D+01 Coefficients=  1.0000000000D+00
 S 1 1.00
     Exponent=  9.7083540306D+00 Coefficients=  1.0000000000D+00
 S 1 1.00
     Exponent=  4.5640696733D+00 Coefficients=  1.0000000000D+00
 S 1 1.00
     Exponent=  2.1194744832D+00 Coefficients=  1.0000000000D+00
 S 1 1.00
     Exponent=  7.5722365394D-01 Coefficients=  1.0000000000D+00
 S 1 1.00
     Exponent=  3.3747224597D-01 Coefficients=  1.0000000000D+00
 S 1 1.00
     Exponent=  1.3860775149D-01 Coefficients=  1.0000000000D+00
 S 1 1.00
     Exponent=  5.4234565513D-02 Coefficients=  1.0000000000D+00
 P 8 1.00
     Exponent=  2.5019457890D+03 Coefficients=  2.4242618410D-04
     Exponent=  5.9288059285D+02 Coefficients=  2.1079961749D-03
     Exponent=  1.9218089186D+02 Coefficients=  1.1432693869D-02
     Exponent=  7.2875710488D+01 Coefficients=  4.4956698060D-02
     Exponent=  3.0436358370D+01 Coefficients=  1.3197476145D-01
     Exponent=  1.3490178902D+01 Coefficients=  2.7493639225D-01
     Exponent=  6.1478071413D+00 Coefficients=  3.8347236372D-01
     Exponent=  2.8450944820D+00 Coefficients=  2.8871943885D-01
 P 2 1.00
     Exponent=  1.0539397936D+02 Coefficients= -3.4311760144D-02
     Exponent=  6.7369738513D+00 Coefficients=  6.4060818902D-01
 P 1 1.00
     Exponent=  1.2421095772D+00 Coefficients=  1.0000000000D+00
 P 1 1.00
     Exponent=  5.5669714254D-01 Coefficients=  1.0000000000D+00
 P 1 1.00
     Exponent=  2.3387801464D-01 Coefficients=  1.0000000000D+00
 P 1 1.00
     Exponent=  9.3164490890D-02 Coefficients=  1.0000000000D+00
 P 1 1.00
     Exponent=  2.7256146018D-02 Coefficients=  1.0000000000D+00
 D 1 1.00
     Exponent=  5.1910000000D+00 Coefficients=  1.0000000000D+00
 D 1 1.00
     Exponent=  1.2760000000D+00 Coefficients=  1.0000000000D+00
 D 1 1.00
     Exponent=  5.8300000000D-01 Coefficients=  1.0000000000D+00
 D 1 1.00
     Exponent=  2.4300000000D-01 Coefficients=  1.0000000000D+00
 D 1 1.00
     Exponent=  8.3456538402D-02 Coefficients=  1.0000000000D+00
 F 1 1.00
     Exponent=  1.0890000000D+00 Coefficients=  1.0000000000D+00
 F 1 1.00
     Exponent=  4.2300000000D-01 Coefficients=  1.0000000000D+00
 G 1 1.00
     Exponent=  8.2700000000D-01 Coefficients=  1.0000000000D+00
 ****
 Ernie: Thresh=  0.10000D-02 Tol=  0.10000D-05 Strict=F.
 There are    31 symmetry adapted cartesian basis functions of AG  symmetry.
 There are     8 symmetry adapted cartesian basis functions of B1G symmetry.
 There are     8 symmetry adapted cartesian basis functions of B2G symmetry.
 There are     8 symmetry adapted cartesian basis functions of B3G symmetry.
 There are     2 symmetry adapted cartesian basis functions of AU  symmetry.
 There are    13 symmetry adapted cartesian basis functions of B1U symmetry.
 There are    13 symmetry adapted cartesian basis functions of B2U symmetry.
 There are    13 symmetry adapted cartesian basis functions of B3U symmetry.
 There are    23 symmetry adapted basis functions of AG  symmetry.
 There are     7 symmetry adapted basis functions of B1G symmetry.
 There are     7 symmetry adapted basis functions of B2G symmetry.
 There are     7 symmetry adapted basis functions of B3G symmetry.
 There are     2 symmetry adapted basis functions of AU  symmetry.
 There are    11 symmetry adapted basis functions of B1U symmetry.
 There are    11 symmetry adapted basis functions of B2U symmetry.
 There are    11 symmetry adapted basis functions of B3U symmetry.
    79 basis functions,   131 primitive gaussians,    96 cartesian basis functions
     9 alpha electrons        9 beta electrons
       nuclear repulsion energy         0.0000000000 Hartrees.
 IExCor= 4336 DFT=T Ex+Corr=M062X ExCW=0 ScaHFX=  0.540000
 ScaDFX=  1.000000  1.000000  1.000000  1.000000 ScalE2=  1.000000  1.000000
 IRadAn=      5 IRanWt=     -1 IRanGd=            0 ICorTp=0 IEmpDi=  4
 NAtoms=    1 NActive=    1 NUniq=    1 SFac= 1.00D+00 NAtFMM=   60 NAOKFM=F Big=F
 Integral buffers will be    131072 words long.
 Raffenetti 2 integral format.
 Two-electron integral symmetry is turned on.
 Leave Link  301 at Sat Apr 17 19:26:36 2021, MaxMem=   104857600 cpu:               7.9 elap:               0.2
 (Enter /s/ls4/users/knvvv/bin/g16sse/l302.exe)
 NPDir=0 NMtPBC=     1 NCelOv=     1 NCel=       1 NClECP=     1 NCelD=      1
         NCelK=      1 NCelE2=     1 NClLst=     1 CellRange=     0.0.
 One-electron integrals computed using PRISM.
 One-electron integral symmetry used in STVInt
 PrsmSu:  requested number of processors reduced to:   4 ShMem   1 Linda.
 PrsmSu:  requested number of processors reduced to:  21 ShMem   1 Linda.
 NBasis=    79 RedAO= T EigKep=  1.69D-03  NBF=    23     7     7     7     2    11    11    11
 NBsUse=    79 1.00D-06 EigRej= -1.00D+00 NBFU=    23     7     7     7     2    11    11    11
 Precomputing XC quadrature grid using
 IXCGrd= 4 IRadAn=           5 IRanWt=          -1 IRanGd=           0 AccXCQ= 0.00D+00.
 Generated NRdTot=       0 NPtTot=           0 NUsed=           0 NTot=          32
 NSgBfM=    96    96    96    96    96 MxSgAt=     1 MxSgA2=     1.
 Leave Link  302 at Sat Apr 17 19:26:51 2021, MaxMem=   104857600 cpu:             664.8 elap:              14.2
 (Enter /s/ls4/users/knvvv/bin/g16sse/l303.exe)
 DipDrv:  MaxL=1.
 Leave Link  303 at Sat Apr 17 19:26:51 2021, MaxMem=   104857600 cpu:              20.6 elap:               0.5
 (Enter /s/ls4/users/knvvv/bin/g16sse/l401.exe)
 SCF N**3 symmetry information disabled.
 ExpMin= 2.73D-02 ExpMax= 1.47D+06 ExpMxC= 1.67D+03 IAcc=3 IRadAn=         5 AccDes= 0.00D+00
 Harris functional with IExCor= 1009 and IRadAn=       5 diagonalized for initial guess.
 HarFok:  IExCor= 1009 AccDes= 0.00D+00 IRadAn=         5 IDoV= 1 UseB2=F ITyADJ=14
 ICtDFT=  3500011 ScaDFX=  1.000000  1.000000  1.000000  1.000000
 FoFCou: FMM=F IPFlag=           0 FMFlag=      100000 FMFlg1=           0
         NFxFlg=           0 DoJE=T BraDBF=F KetDBF=T FulRan=T
         wScrn=  0.000000 ICntrl=       500 IOpCl=  0 I1Cent=   200000004 NGrid=           0
         NMat0=    1 NMatS0=      1 NMatT0=    0 NMatD0=    1 NMtDS0=    0 NMtDT0=    0
 Petite list used in FoFCou.
 CoulSu:  requested number of processors reduced to:  21 ShMem   1 Linda.
 CoulSu:  requested number of processors reduced to:  21 ShMem   1 Linda.
 CoulSu:  requested number of processors reduced to:  21 ShMem   1 Linda.
 CoulSu:  requested number of processors reduced to:  21 ShMem   1 Linda.
 Harris En= -460.172235043453    
 JPrj=0 DoOrth=F DoCkMO=F.
 Initial guess orbital symmetries:
       Occupied  (A1G) (A1G) (T1U) (T1U) (T1U) (A1G) (T1U) (T1U)
                 (T1U)
       Virtual   (A1G) (T1U) (T1U) (T1U) (T2G) (T2G) (T2G) (EG)
                 (EG) (T1U) (T1U) (T1U) (T2G) (T2G) (T2G) (EG)
                 (EG) (A1G) (T1U) (T1U) (T1U) (T2G) (T2G) (T2G)
                 (EG) (EG) (T2U) (T2U) (T2U) (A2U) (T1U) (T1U)
                 (T1U) (A1G) (T2G) (T2G) (T2G) (EG) (EG) (T1G)
                 (T1G) (T1G) (T2G) (T2G) (T2G) (EG) (EG) (A1G)
                 (T1U) (T1U) (T1U) (T2U) (T2U) (T2U) (A2U) (T1U)
                 (T1U) (T1U) (A1G) (T2G) (T2G) (T2G) (EG) (EG)
                 (A1G) (T1U) (T1U) (T1U) (A1G) (A1G)
 The electronic state of the initial guess is 1-A1G.
 Leave Link  401 at Sat Apr 17 19:27:02 2021, MaxMem=   104857600 cpu:             496.9 elap:              10.7
 (Enter /s/ls4/users/knvvv/bin/g16sse/l502.exe)
 Keep R1 ints in memory in symmetry-blocked form, NReq=59211965.
 FoFCou: FMM=F IPFlag=           0 FMFlag=           0 FMFlg1=           0
         NFxFlg=           0 DoJE=F BraDBF=F KetDBF=F FulRan=T
         wScrn=  0.000000 ICntrl=       600 IOpCl=  0 I1Cent=           0 NGrid=           0
         NMat0=    1 NMatS0=   3160 NMatT0=    0 NMatD0=    1 NMtDS0=    0 NMtDT0=    0
 Petite list used in FoFCou.
 CoulSu:  requested number of processors reduced to:  22 ShMem   1 Linda.
 Closed shell SCF:
 Using DIIS extrapolation, IDIIS=  1040.
 NGot=   104857600 LenX=   104166746 LenY=   104157089
 Requested convergence on RMS density matrix=1.00D-08 within 128 cycles.
 Requested convergence on MAX density matrix=1.00D-06.
 Requested convergence on             energy=1.00D-06.
 No special actions if energy rises.

 Cycle   1  Pass 1  IDiag  1:
 E= -460.248392814427    
 DIIS: error= 4.30D-02 at cycle   1 NSaved=   1.
 NSaved= 1 IEnMin= 1 EnMin= -460.248392814427     IErMin= 1 ErrMin= 4.30D-02
 ErrMax= 4.30D-02  0.00D+00 EMaxC= 1.00D-01 BMatC= 6.49D-02 BMatP= 6.49D-02
 IDIUse=3 WtCom= 5.70D-01 WtEn= 4.30D-01
 Coeff-Com:  0.100D+01
 Coeff-En:   0.100D+01
 Coeff:      0.100D+01
 Gap=     0.277 Goal=   None    Shift=    0.000
 GapD=    0.277 DampG=1.000 DampE=0.500 DampFc=0.5000 IDamp=-1.
 Damping current iteration by 5.00D-01
 RMSDP=3.64D-03 MaxDP=1.33D-01              OVMax= 1.31D-01

 Cycle   2  Pass 1  IDiag  1:
 E= -460.264587555321     Delta-E=       -0.016194740894 Rises=F Damp=T
 DIIS: error= 2.26D-02 at cycle   2 NSaved=   2.
 NSaved= 2 IEnMin= 2 EnMin= -460.264587555321     IErMin= 2 ErrMin= 2.26D-02
 ErrMax= 2.26D-02  0.00D+00 EMaxC= 1.00D-01 BMatC= 1.42D-02 BMatP= 6.49D-02
 IDIUse=3 WtCom= 7.74D-01 WtEn= 2.26D-01
 Coeff-Com: -0.477D+00 0.148D+01
 Coeff-En:   0.000D+00 0.100D+01
 Coeff:     -0.370D+00 0.137D+01
 Gap=     0.276 Goal=   None    Shift=    0.000
 DSYEVD-2 returned Info=         159 IAlg= 4 N=    79 NDim=    79 NE2=     1318443 trying  DSYEV.
 RMSDP=1.32D-03 MaxDP=5.20D-02 DE=-1.62D-02 OVMax= 6.78D-02

 Cycle   3  Pass 1  IDiag  1:
 E= -460.278887784097     Delta-E=       -0.014300228776 Rises=F Damp=F
 DIIS: error= 8.81D-03 at cycle   3 NSaved=   3.
 NSaved= 3 IEnMin= 3 EnMin= -460.278887784097     IErMin= 3 ErrMin= 8.81D-03
 ErrMax= 8.81D-03  0.00D+00 EMaxC= 1.00D-01 BMatC= 2.72D-03 BMatP= 1.42D-02
 IDIUse=3 WtCom= 9.12D-01 WtEn= 8.81D-02
 Coeff-Com: -0.246D+00 0.579D+00 0.667D+00
 Coeff-En:   0.000D+00 0.000D+00 0.100D+01
 Coeff:     -0.225D+00 0.528D+00 0.697D+00
 Gap=     0.260 Goal=   None    Shift=    0.000
 RMSDP=3.76D-04 MaxDP=6.93D-03 DE=-1.43D-02 OVMax= 1.46D-02

 Cycle   4  Pass 1  IDiag  1:
 E= -460.280606316066     Delta-E=       -0.001718531970 Rises=F Damp=F
 DIIS: error= 5.31D-04 at cycle   4 NSaved=   4.
 NSaved= 4 IEnMin= 4 EnMin= -460.280606316066     IErMin= 4 ErrMin= 5.31D-04
 ErrMax= 5.31D-04  0.00D+00 EMaxC= 1.00D-01 BMatC= 7.17D-06 BMatP= 2.72D-03
 IDIUse=3 WtCom= 9.95D-01 WtEn= 5.31D-03
 Coeff-Com: -0.310D-01 0.609D-01 0.801D-01 0.890D+00
 Coeff-En:   0.000D+00 0.000D+00 0.000D+00 0.100D+01
 Coeff:     -0.309D-01 0.606D-01 0.796D-01 0.891D+00
 Gap=     0.260 Goal=   None    Shift=    0.000
 RMSDP=3.42D-05 MaxDP=9.24D-04 DE=-1.72D-03 OVMax= 8.72D-04

 Cycle   5  Pass 1  IDiag  1:
 E= -460.280609030824     Delta-E=       -0.000002714758 Rises=F Damp=F
 DIIS: error= 1.72D-05 at cycle   5 NSaved=   5.
 NSaved= 5 IEnMin= 5 EnMin= -460.280609030824     IErMin= 5 ErrMin= 1.72D-05
 ErrMax= 1.72D-05  0.00D+00 EMaxC= 1.00D-01 BMatC= 1.83D-08 BMatP= 7.17D-06
 IDIUse=1 WtCom= 1.00D+00 WtEn= 0.00D+00
 Coeff-Com:  0.368D-02-0.713D-02-0.762D-02-0.988D-01 0.111D+01
 Coeff:      0.368D-02-0.713D-02-0.762D-02-0.988D-01 0.111D+01
 Gap=     0.260 Goal=   None    Shift=    0.000
 RMSDP=7.66D-06 MaxDP=1.64D-04 DE=-2.71D-06 OVMax= 1.42D-04

 Cycle   6  Pass 1  IDiag  1:
 E= -460.280609066738     Delta-E=       -0.000000035914 Rises=F Damp=F
 DIIS: error= 5.30D-06 at cycle   6 NSaved=   6.
 NSaved= 6 IEnMin= 6 EnMin= -460.280609066738     IErMin= 6 ErrMin= 5.30D-06
 ErrMax= 5.30D-06  0.00D+00 EMaxC= 1.00D-01 BMatC= 1.48D-09 BMatP= 1.83D-08
 IDIUse=1 WtCom= 1.00D+00 WtEn= 0.00D+00
 Coeff-Com:  0.219D-03-0.435D-03 0.244D-03 0.227D-02 0.439D-01 0.954D+00
 Coeff:      0.219D-03-0.435D-03 0.244D-03 0.227D-02 0.439D-01 0.954D+00
 Gap=     0.260 Goal=   None    Shift=    0.000
 RMSDP=5.46D-07 MaxDP=1.89D-05 DE=-3.59D-08 OVMax= 1.33D-05

 Cycle   7  Pass 1  IDiag  1:
 E= -460.280609068386     Delta-E=       -0.000000001648 Rises=F Damp=F
 DIIS: error= 4.79D-07 at cycle   7 NSaved=   7.
 NSaved= 7 IEnMin= 7 EnMin= -460.280609068386     IErMin= 7 ErrMin= 4.79D-07
 ErrMax= 4.79D-07  0.00D+00 EMaxC= 1.00D-01 BMatC= 1.01D-11 BMatP= 1.48D-09
 IDIUse=1 WtCom= 1.00D+00 WtEn= 0.00D+00
 Coeff-Com: -0.351D-05 0.896D-05-0.602D-04-0.938D-03 0.563D-02-0.185D+00
 Coeff-Com:  0.118D+01
 Coeff:     -0.351D-05 0.896D-05-0.602D-04-0.938D-03 0.563D-02-0.185D+00
 Coeff:      0.118D+01
 Gap=     0.260 Goal=   None    Shift=    0.000
 DSYEVD-2 returned Info=         159 IAlg= 4 N=    79 NDim=    79 NE2=     1318443 trying  DSYEV.
 RMSDP=1.15D-07 MaxDP=5.05D-06 DE=-1.65D-09 OVMax= 1.03D-06

 Cycle   8  Pass 1  IDiag  1:
 E= -460.280609068397     Delta-E=       -0.000000000011 Rises=F Damp=F
 DIIS: error= 4.68D-08 at cycle   8 NSaved=   8.
 NSaved= 8 IEnMin= 8 EnMin= -460.280609068397     IErMin= 8 ErrMin= 4.68D-08
 ErrMax= 4.68D-08  0.00D+00 EMaxC= 1.00D-01 BMatC= 1.13D-13 BMatP= 1.01D-11
 IDIUse=1 WtCom= 1.00D+00 WtEn= 0.00D+00
 Coeff-Com:  0.247D-05-0.480D-05-0.390D-05-0.181D-04-0.187D-03 0.170D-02
 Coeff-Com: -0.992D-01 0.110D+01
 Coeff:      0.247D-05-0.480D-05-0.390D-05-0.181D-04-0.187D-03 0.170D-02
 Coeff:     -0.992D-01 0.110D+01
 Gap=     0.260 Goal=   None    Shift=    0.000
 RMSDP=1.19D-08 MaxDP=5.01D-07 DE=-1.07D-11 OVMax= 1.60D-07

 Cycle   9  Pass 1  IDiag  1:
 E= -460.280609068398     Delta-E=       -0.000000000001 Rises=F Damp=F
 DIIS: error= 3.88D-09 at cycle   9 NSaved=   9.
 NSaved= 9 IEnMin= 9 EnMin= -460.280609068398     IErMin= 9 ErrMin= 3.88D-09
 ErrMax= 3.88D-09  0.00D+00 EMaxC= 1.00D-01 BMatC= 6.37D-16 BMatP= 1.13D-13
 IDIUse=1 WtCom= 1.00D+00 WtEn= 0.00D+00
 Coeff-Com: -0.114D-06 0.221D-06 0.375D-06 0.227D-05 0.444D-04-0.248D-03
 Coeff-Com:  0.138D-02-0.600D-01 0.106D+01
 Coeff:     -0.114D-06 0.221D-06 0.375D-06 0.227D-05 0.444D-04-0.248D-03
 Coeff:      0.138D-02-0.600D-01 0.106D+01
 Gap=     0.260 Goal=   None    Shift=    0.000
 RMSDP=7.95D-10 MaxDP=3.73D-08 DE=-1.02D-12 OVMax= 8.60D-09

 SCF Done:  E(RM062X) =  -460.280609068     A.U. after    9 cycles
            NFock=  9  Conv=0.79D-09     -V/T= 2.0014
 KE= 4.596534398425D+02 PE=-1.100952501480D+03 EE= 1.810184525688D+02
 Leave Link  502 at Sat Apr 17 19:27:13 2021, MaxMem=   104857600 cpu:             500.5 elap:              11.0
 (Enter /s/ls4/users/knvvv/bin/g16sse/l601.exe)
 Copying SCF densities to generalized density rwf, IOpCl= 0 IROHF=0.

 **********************************************************************

            Population analysis using the SCF density.

 **********************************************************************

 Orbital symmetries:
       Occupied  (A1G) (A1G) (T1U) (T1U) (T1U) (A1G) (T1U) (T1U)
                 (T1U)
       Virtual   (T1U) (T1U) (T1U) (A1G) (T2G) (T2G) (T2G) (EG)
                 (EG) (T1U) (T1U) (T1U) (A1G) (T2G) (T2G) (T2G)
                 (EG) (EG) (T1U) (T1U) (T1U) (?A) (?A) (?A) (?A)
                 (T1U) (T1U) (T1U) (T2G) (T2G) (T2G) (EG) (EG)
                 (A1G) (T2G) (T2G) (T2G) (EG) (EG) (?B) (?B) (?B)
                 (?B) (?B) (?B) (EG) (EG) (A1G) (?A) (?A) (?A)
                 (?A) (T1U) (T1U) (T1U) (T1U) (T1U) (T1U) (A1G)
                 (T2G) (T2G) (T2G) (EG) (EG) (A1G) (T1U) (T1U)
                 (T1U) (A1G) (A1G)
 The electronic state is 1-A1G.
 Alpha  occ. eigenvalues -- -102.32087  -9.47545  -7.19706  -7.19706  -7.19706
 Alpha  occ. eigenvalues --   -0.56751  -0.08155  -0.08155  -0.08155
 Alpha virt. eigenvalues --    0.17822   0.17822   0.17822   0.25587   0.39168
 Alpha virt. eigenvalues --    0.39168   0.39168   0.39168   0.39168   0.51205
 Alpha virt. eigenvalues --    0.51205   0.51205   0.77339   0.78158   0.78158
 Alpha virt. eigenvalues --    0.78158   0.78158   0.78158   1.45402   1.45402
 Alpha virt. eigenvalues --    1.45402   1.63521   1.63521   1.63521   1.63521
 Alpha virt. eigenvalues --    1.63521   1.63521   1.63521   1.65320   1.65320
 Alpha virt. eigenvalues --    1.65320   1.65320   1.65320   2.40458   3.67950
 Alpha virt. eigenvalues --    3.67950   3.67950   3.67950   3.67950   3.87725
 Alpha virt. eigenvalues --    3.87725   3.87725   3.87725   3.87725   3.87725
 Alpha virt. eigenvalues --    3.87725   3.87725   3.87725   4.19383   4.19383
 Alpha virt. eigenvalues --    4.19383   4.19383   4.19383   4.19383   4.19383
 Alpha virt. eigenvalues --    4.28481   4.28481   4.28481   8.55695  11.07460
 Alpha virt. eigenvalues --   11.07460  11.07460  11.07460  11.07460  28.70665
 Alpha virt. eigenvalues --   42.37079  42.37079  42.37079  98.50397 524.21816
          Condensed to atoms (all electrons):
               1
     1  Cl  18.000000
 Mulliken charges:
               1
     1  Cl  -1.000000
 Sum of Mulliken charges =  -1.00000
 Mulliken charges with hydrogens summed into heavy atoms:
               1
     1  Cl  -1.000000
 Electronic spatial extent (au):  <R**2>=             38.9943
 Charge=             -1.0000 electrons
 Dipole moment (field-independent basis, Debye):
    X=             -0.0000    Y=              0.0000    Z=             -0.0000  Tot=              0.0000
 Quadrupole moment (field-independent basis, Debye-Ang):
   XX=            -17.4829   YY=            -17.4829   ZZ=            -17.4829
   XY=             -0.0000   XZ=              0.0000   YZ=             -0.0000
 Traceless Quadrupole moment (field-independent basis, Debye-Ang):
   XX=              0.0000   YY=             -0.0000   ZZ=             -0.0000
   XY=             -0.0000   XZ=              0.0000   YZ=             -0.0000
 Octapole moment (field-independent basis, Debye-Ang**2):
  XXX=              0.0000  YYY=              0.0000  ZZZ=             -0.0000  XYY=              0.0000
  XXY=             -0.0000  XXZ=             -0.0000  XZZ=             -0.0000  YZZ=              0.0000
  YYZ=              0.0000  XYZ=             -0.0000
 Hexadecapole moment (field-independent basis, Debye-Ang**3):
 XXXX=            -32.6059 YYYY=            -32.6059 ZZZZ=            -32.6059 XXXY=              0.0000
 XXXZ=             -0.0000 YYYX=             -0.0000 YYYZ=              0.0000 ZZZX=              0.0000
 ZZZY=             -0.0000 XXYY=            -10.8686 XXZZ=            -10.8686 YYZZ=            -10.8686
 XXYZ=             -0.0000 YYXZ=              0.0000 ZZXY=             -0.0000
 N-N= 0.000000000000D+00 E-N=-1.100952501872D+03  KE= 4.596534398425D+02
 PrsmSu:  requested number of processors reduced to:  21 ShMem   1 Linda.
 No NMR shielding tensors so no spin-rotation constants.
 Leave Link  601 at Sat Apr 17 19:27:18 2021, MaxMem=   104857600 cpu:             230.5 elap:               5.0
 (Enter /s/ls4/users/knvvv/bin/g16sse/l801.exe)
 DoSCS=F DFT=T ScalE2(SS,OS)=  1.000000  1.000000
 Range of M.O.s used for correlation:     1    79
 NBasis=    79 NAE=     9 NBE=     9 NFC=     0 NFV=     0
 NROrb=     79 NOA=     9 NOB=     9 NVA=    70 NVB=    70

 **** Warning!!: The largest alpha MO coefficient is  0.10131981D+02

 Leave Link  801 at Sat Apr 17 19:27:18 2021, MaxMem=   104857600 cpu:               4.6 elap:               0.1
 (Enter /s/ls4/users/knvvv/bin/g16sse/l914.exe)
 RHF ground state
 Doing stability rather than CIS.
 Two-electron integrals replicated using symmetry.
 MDV=   104857600 DFT=T DoStab=T Mixed=T DoRPA=F DoScal=F NonHer=F
 Making orbital integer symmetry assigments:
 Orbital symmetries:
       Occupied  (A1G) (A1G) (T1U) (T1U) (T1U) (A1G) (T1U) (T1U)
                 (T1U)
       Virtual   (T1U) (T1U) (T1U) (A1G) (T2G) (T2G) (T2G) (EG)
                 (EG) (T1U) (T1U) (T1U) (A1G) (T2G) (T2G) (T2G)
                 (EG) (EG) (T1U) (T1U) (T1U) (?A) (?A) (?A) (?A)
                 (T1U) (T1U) (T1U) (T2G) (T2G) (T2G) (EG) (EG)
                 (A1G) (T2G) (T2G) (T2G) (EG) (EG) (?B) (?B) (?B)
                 (?B) (?B) (?B) (EG) (EG) (A1G) (?A) (?A) (?A)
                 (?A) (T1U) (T1U) (T1U) (T1U) (T1U) (T1U) (A1G)
                 (T2G) (T2G) (T2G) (EG) (EG) (A1G) (T1U) (T1U)
                 (T1U) (A1G) (A1G)
    48 initial guesses have been made.
 Convergence on wavefunction:    0.001000000000000
 Davidson Disk Diagonalization:  ConvIn= 1.00D-03 SkipCon=T Conv= 1.00D-03.
 Max sub-space:  2000 roots to seek:    48 dimension of matrix:         1260
 Iteration     1 Dimension    48 NMult     0 NNew     48
 Estimated number of processors is:   20
 CISAX will form     1 AO SS matrices at one time.
 NMat=     1 NSing=     1 JSym2X= 2.
 FoFJK:  IHMeth= 1 ICntrl=       0 DoSepK=F KAlg= 0 I1Cent=           0 FoldK=F
 IRaf= 990000000 NMat=       1 IRICut=       1 DoRegI=T DoRafI=F ISym2E= 2 IDoP0=0 IntGTp=1.
 FoFCou: FMM=F IPFlag=           0 FMFlag=      100000 FMFlg1=           0
         NFxFlg=           0 DoJE=F BraDBF=F KetDBF=F FulRan=T
         wScrn=  0.000000 ICntrl=         0 IOpCl=  0 I1Cent=           0 NGrid=           0
         NMat0=    1 NMatS0=      1 NMatT0=    0 NMatD0=    1 NMtDS0=    0 NMtDT0=    0
 Integrals replicated using symmetry in FoFCou.
 CoulSu:  requested number of processors reduced to:  21 ShMem   1 Linda.
 NMat=     1 NSing=     1 JSym2X= 2.
 CoulSu:  requested number of processors reduced to:  21 ShMem   1 Linda.
 NMat=     1 NSing=     1 JSym2X= 2.
 CoulSu:  requested number of processors reduced to:  21 ShMem   1 Linda.
 NMat=     1 NSing=     1 JSym2X= 2.
 CoulSu:  requested number of processors reduced to:  21 ShMem   1 Linda.
 NMat=     1 NSing=     1 JSym2X= 2.
 CoulSu:  requested number of processors reduced to:  21 ShMem   1 Linda.
 NMat=     1 NSing=     1 JSym2X= 2.
 CoulSu:  requested number of processors reduced to:  21 ShMem   1 Linda.
 NMat=     1 NSing=     1 JSym2X= 2.
 CoulSu:  requested number of processors reduced to:  21 ShMem   1 Linda.
 NMat=     1 NSing=     1 JSym2X= 2.
 CoulSu:  requested number of processors reduced to:  21 ShMem   1 Linda.
 NMat=     1 NSing=     1 JSym2X= 2.
 CoulSu:  requested number of processors reduced to:  21 ShMem   1 Linda.
 NMat=     1 NSing=     1 JSym2X= 2.
 CoulSu:  requested number of processors reduced to:  21 ShMem   1 Linda.
 NMat=     1 NSing=     1 JSym2X= 2.
 CoulSu:  requested number of processors reduced to:  21 ShMem   1 Linda.
 NMat=     1 NSing=     1 JSym2X= 2.
 CoulSu:  requested number of processors reduced to:  21 ShMem   1 Linda.
 NMat=     1 NSing=     1 JSym2X= 2.
 CoulSu:  requested number of processors reduced to:  21 ShMem   1 Linda.
 NMat=     1 NSing=     1 JSym2X= 2.
 CoulSu:  requested number of processors reduced to:  21 ShMem   1 Linda.
 NMat=     1 NSing=     1 JSym2X= 2.
 CoulSu:  requested number of processors reduced to:  21 ShMem   1 Linda.
 NMat=     1 NSing=     1 JSym2X= 2.
 CoulSu:  requested number of processors reduced to:  21 ShMem   1 Linda.
 NMat=     1 NSing=     1 JSym2X= 2.
 CoulSu:  requested number of processors reduced to:  21 ShMem   1 Linda.
 NMat=     1 NSing=     1 JSym2X= 2.
 CoulSu:  requested number of processors reduced to:  21 ShMem   1 Linda.
 NMat=     1 NSing=     1 JSym2X= 2.
 CoulSu:  requested number of processors reduced to:  21 ShMem   1 Linda.
 NMat=     1 NSing=     1 JSym2X= 2.
 CoulSu:  requested number of processors reduced to:  21 ShMem   1 Linda.
 NMat=     1 NSing=     1 JSym2X= 2.
 CoulSu:  requested number of processors reduced to:  21 ShMem   1 Linda.
 NMat=     1 NSing=     1 JSym2X= 2.
 CoulSu:  requested number of processors reduced to:  21 ShMem   1 Linda.
 NMat=     1 NSing=     1 JSym2X= 2.
 CoulSu:  requested number of processors reduced to:  21 ShMem   1 Linda.
 NMat=     1 NSing=     1 JSym2X= 2.
 CoulSu:  requested number of processors reduced to:  21 ShMem   1 Linda.
 NMat=     1 NSing=     0 JSym2X= 2.
 CoulSu:  requested number of processors reduced to:  21 ShMem   1 Linda.
 NMat=     1 NSing=     0 JSym2X= 2.
 CoulSu:  requested number of processors reduced to:  21 ShMem   1 Linda.
 NMat=     1 NSing=     0 JSym2X= 2.
 CoulSu:  requested number of processors reduced to:  21 ShMem   1 Linda.
 NMat=     1 NSing=     0 JSym2X= 2.
 CoulSu:  requested number of processors reduced to:  21 ShMem   1 Linda.
 NMat=     1 NSing=     0 JSym2X= 2.
 CoulSu:  requested number of processors reduced to:  21 ShMem   1 Linda.
 NMat=     1 NSing=     0 JSym2X= 2.
 CoulSu:  requested number of processors reduced to:  21 ShMem   1 Linda.
 NMat=     1 NSing=     0 JSym2X= 2.
 CoulSu:  requested number of processors reduced to:  21 ShMem   1 Linda.
 NMat=     1 NSing=     0 JSym2X= 2.
 CoulSu:  requested number of processors reduced to:  21 ShMem   1 Linda.
 NMat=     1 NSing=     0 JSym2X= 2.
 CoulSu:  requested number of processors reduced to:  21 ShMem   1 Linda.
 NMat=     1 NSing=     0 JSym2X= 2.
 CoulSu:  requested number of processors reduced to:  21 ShMem   1 Linda.
 NMat=     1 NSing=     0 JSym2X= 2.
 CoulSu:  requested number of processors reduced to:  21 ShMem   1 Linda.
 NMat=     1 NSing=     0 JSym2X= 2.
 CoulSu:  requested number of processors reduced to:  21 ShMem   1 Linda.
 NMat=     1 NSing=     0 JSym2X= 2.
 CoulSu:  requested number of processors reduced to:  21 ShMem   1 Linda.
 NMat=     1 NSing=     0 JSym2X= 2.
 CoulSu:  requested number of processors reduced to:  21 ShMem   1 Linda.
 NMat=     1 NSing=     0 JSym2X= 2.
 CoulSu:  requested number of processors reduced to:  21 ShMem   1 Linda.
 NMat=     1 NSing=     0 JSym2X= 2.
 CoulSu:  requested number of processors reduced to:  21 ShMem   1 Linda.
 NMat=     1 NSing=     0 JSym2X= 2.
 CoulSu:  requested number of processors reduced to:  21 ShMem   1 Linda.
 NMat=     1 NSing=     0 JSym2X= 2.
 CoulSu:  requested number of processors reduced to:  21 ShMem   1 Linda.
 NMat=     1 NSing=     0 JSym2X= 2.
 CoulSu:  requested number of processors reduced to:  21 ShMem   1 Linda.
 NMat=     1 NSing=     0 JSym2X= 2.
 CoulSu:  requested number of processors reduced to:  21 ShMem   1 Linda.
 NMat=     1 NSing=     0 JSym2X= 2.
 CoulSu:  requested number of processors reduced to:  21 ShMem   1 Linda.
 NMat=     1 NSing=     0 JSym2X= 2.
 CoulSu:  requested number of processors reduced to:  21 ShMem   1 Linda.
 NMat=     1 NSing=     0 JSym2X= 2.
 CoulSu:  requested number of processors reduced to:  21 ShMem   1 Linda.
 NMat=     1 NSing=     0 JSym2X= 2.
 CoulSu:  requested number of processors reduced to:  21 ShMem   1 Linda.
 New state      1 was old state     18
 Excitation Energies [eV] at current iteration:
 Root      1 :     5.054645812164629
 Root      2 :     5.054645812169257
 Root      3 :     5.054645812169788
 Root      4 :     5.054645812170870
 Root      5 :     5.054645812171359
 Root      6 :     5.054645812179063
 Root      7 :     5.167033732620028
 Root      8 :     5.167033732624644
 Root      9 :     5.167033732626806
 Root     10 :     5.167033732631380
 Root     11 :     5.167033732633713
 Root     12 :     5.415194672375426
 Root     13 :     5.415194672379842
 Root     14 :     5.415194672384924
 Root     15 :     5.415194672400482
 Root     16 :     5.415194672405365
 Root     17 :     6.142625775142577
 Root     18 :     6.146642951428876
 Root     19 :     6.152145473472765
 Root     20 :     6.213681617382548
 Root     21 :     6.282114453940369
 Root     22 :     6.282661402605057
 Root     23 :     6.283501071647036
 Root     24 :     7.256229599989975
 Root     25 :     9.045348905657326
 Root     26 :     9.045348905717800
 Root     27 :     9.045348905740145
 Root     28 :     9.045348905760417
 Root     29 :     9.159181172674140
 Root     30 :     9.159181172703311
 Root     31 :     9.159181172735092
 Root     32 :     9.159181172761254
 Root     33 :     9.299839946672014
 Root     34 :     9.374598798401660
 Root     35 :     9.402892027326180
 Root     36 :     9.476482746935860
 Root     37 :     9.660909445535111
 Root     38 :     9.708943509634285
 Root     39 :     9.741705765106758
 Root     40 :     9.741705765107278
 Root     41 :     9.741705765107550
 Root     42 :     9.741705765107719
 Root     43 :     9.893516695432137
 Root     44 :    10.172134425646250
 Root     45 :    10.290140397888060
 Root     46 :    11.244303036296960
 Root     47 :    11.951401836033550
 Root     48 :    12.397048387346680
 Iteration     2 Dimension    96 NMult    48 NNew     48
 Estimated number of processors is:   20
 CISAX will form     1 AO SS matrices at one time.
 NMat=     1 NSing=     1 JSym2X= 2.
 CoulSu:  requested number of processors reduced to:  21 ShMem   1 Linda.
 NMat=     1 NSing=     1 JSym2X= 2.
 CoulSu:  requested number of processors reduced to:  21 ShMem   1 Linda.
 NMat=     1 NSing=     1 JSym2X= 2.
 CoulSu:  requested number of processors reduced to:  21 ShMem   1 Linda.
 NMat=     1 NSing=     1 JSym2X= 2.
 CoulSu:  requested number of processors reduced to:  21 ShMem   1 Linda.
 NMat=     1 NSing=     1 JSym2X= 2.
 CoulSu:  requested number of processors reduced to:  21 ShMem   1 Linda.
 NMat=     1 NSing=     1 JSym2X= 2.
 CoulSu:  requested number of processors reduced to:  21 ShMem   1 Linda.
 NMat=     1 NSing=     1 JSym2X= 2.
 CoulSu:  requested number of processors reduced to:  21 ShMem   1 Linda.
 NMat=     1 NSing=     1 JSym2X= 2.
 CoulSu:  requested number of processors reduced to:  21 ShMem   1 Linda.
 NMat=     1 NSing=     1 JSym2X= 2.
 CoulSu:  requested number of processors reduced to:  21 ShMem   1 Linda.
 NMat=     1 NSing=     1 JSym2X= 2.
 CoulSu:  requested number of processors reduced to:  21 ShMem   1 Linda.
 NMat=     1 NSing=     1 JSym2X= 2.
 CoulSu:  requested number of processors reduced to:  21 ShMem   1 Linda.
 NMat=     1 NSing=     1 JSym2X= 2.
 CoulSu:  requested number of processors reduced to:  21 ShMem   1 Linda.
 NMat=     1 NSing=     1 JSym2X= 2.
 CoulSu:  requested number of processors reduced to:  21 ShMem   1 Linda.
 NMat=     1 NSing=     1 JSym2X= 2.
 CoulSu:  requested number of processors reduced to:  21 ShMem   1 Linda.
 NMat=     1 NSing=     1 JSym2X= 2.
 CoulSu:  requested number of processors reduced to:  21 ShMem   1 Linda.
 NMat=     1 NSing=     1 JSym2X= 2.
 CoulSu:  requested number of processors reduced to:  21 ShMem   1 Linda.
 NMat=     1 NSing=     1 JSym2X= 2.
 CoulSu:  requested number of processors reduced to:  21 ShMem   1 Linda.
 NMat=     1 NSing=     1 JSym2X= 2.
 CoulSu:  requested number of processors reduced to:  21 ShMem   1 Linda.
 NMat=     1 NSing=     1 JSym2X= 2.
 CoulSu:  requested number of processors reduced to:  21 ShMem   1 Linda.
 NMat=     1 NSing=     1 JSym2X= 2.
 CoulSu:  requested number of processors reduced to:  21 ShMem   1 Linda.
 NMat=     1 NSing=     1 JSym2X= 2.
 CoulSu:  requested number of processors reduced to:  21 ShMem   1 Linda.
 NMat=     1 NSing=     1 JSym2X= 2.
 CoulSu:  requested number of processors reduced to:  21 ShMem   1 Linda.
 NMat=     1 NSing=     1 JSym2X= 2.
 CoulSu:  requested number of processors reduced to:  21 ShMem   1 Linda.
 NMat=     1 NSing=     1 JSym2X= 2.
 CoulSu:  requested number of processors reduced to:  21 ShMem   1 Linda.
 NMat=     1 NSing=     0 JSym2X= 2.
 CoulSu:  requested number of processors reduced to:  21 ShMem   1 Linda.
 NMat=     1 NSing=     0 JSym2X= 2.
 CoulSu:  requested number of processors reduced to:  21 ShMem   1 Linda.
 NMat=     1 NSing=     0 JSym2X= 2.
 CoulSu:  requested number of processors reduced to:  21 ShMem   1 Linda.
 NMat=     1 NSing=     0 JSym2X= 2.
 CoulSu:  requested number of processors reduced to:  21 ShMem   1 Linda.
 NMat=     1 NSing=     0 JSym2X= 2.
 CoulSu:  requested number of processors reduced to:  21 ShMem   1 Linda.
 NMat=     1 NSing=     0 JSym2X= 2.
 CoulSu:  requested number of processors reduced to:  21 ShMem   1 Linda.
 NMat=     1 NSing=     0 JSym2X= 2.
 CoulSu:  requested number of processors reduced to:  21 ShMem   1 Linda.
 NMat=     1 NSing=     0 JSym2X= 2.
 CoulSu:  requested number of processors reduced to:  21 ShMem   1 Linda.
 NMat=     1 NSing=     0 JSym2X= 2.
 CoulSu:  requested number of processors reduced to:  21 ShMem   1 Linda.
 NMat=     1 NSing=     0 JSym2X= 2.
 CoulSu:  requested number of processors reduced to:  21 ShMem   1 Linda.
 NMat=     1 NSing=     0 JSym2X= 2.
 CoulSu:  requested number of processors reduced to:  21 ShMem   1 Linda.
 NMat=     1 NSing=     0 JSym2X= 2.
 CoulSu:  requested number of processors reduced to:  21 ShMem   1 Linda.
 NMat=     1 NSing=     0 JSym2X= 2.
 CoulSu:  requested number of processors reduced to:  21 ShMem   1 Linda.
 NMat=     1 NSing=     0 JSym2X= 2.
 CoulSu:  requested number of processors reduced to:  21 ShMem   1 Linda.
 NMat=     1 NSing=     0 JSym2X= 2.
 CoulSu:  requested number of processors reduced to:  21 ShMem   1 Linda.
 NMat=     1 NSing=     0 JSym2X= 2.
 CoulSu:  requested number of processors reduced to:  21 ShMem   1 Linda.
 NMat=     1 NSing=     0 JSym2X= 2.
 CoulSu:  requested number of processors reduced to:  21 ShMem   1 Linda.
 NMat=     1 NSing=     0 JSym2X= 2.
 CoulSu:  requested number of processors reduced to:  21 ShMem   1 Linda.
 NMat=     1 NSing=     0 JSym2X= 2.
 CoulSu:  requested number of processors reduced to:  21 ShMem   1 Linda.
 NMat=     1 NSing=     0 JSym2X= 2.
 CoulSu:  requested number of processors reduced to:  21 ShMem   1 Linda.
 NMat=     1 NSing=     0 JSym2X= 2.
 CoulSu:  requested number of processors reduced to:  21 ShMem   1 Linda.
 NMat=     1 NSing=     0 JSym2X= 2.
 CoulSu:  requested number of processors reduced to:  21 ShMem   1 Linda.
 NMat=     1 NSing=     0 JSym2X= 2.
 CoulSu:  requested number of processors reduced to:  21 ShMem   1 Linda.
 NMat=     1 NSing=     0 JSym2X= 2.
 CoulSu:  requested number of processors reduced to:  21 ShMem   1 Linda.
 Root      1 not converged, maximum delta is    0.311912902843402
 Excitation Energies [eV] at current iteration:
 Root      1 :     5.034604627134012   Change is   -0.020041185030616
 Root      2 :     5.034604630630750   Change is   -0.020041181538506
 Root      3 :     5.034604633149707   Change is   -0.020041179021163
 Root      4 :     5.034604637130995   Change is   -0.020041175038794
 Root      5 :     5.034604649212897   Change is   -0.020041162966167
 Root      6 :     5.034604650516428   Change is   -0.020041161654931
 Root      7 :     5.045062697664194   Change is   -0.121971034955833
 Root      8 :     5.045062707183974   Change is   -0.121971025447406
 Root      9 :     5.045062717037643   Change is   -0.121971015587001
 Root     10 :     5.045062729638849   Change is   -0.121971002994864
 Root     11 :     5.045062770520768   Change is   -0.121970962106039
 Root     12 :     5.220182004321104   Change is   -0.195012668084261
 Root     13 :     5.220182022240730   Change is   -0.195012650139113
 Root     14 :     5.220182024001796   Change is   -0.195012648383128
 Root     15 :     5.220182039618079   Change is   -0.195012632757347
 Root     16 :     5.220182091356928   Change is   -0.195012581043554
 Root     17 :     5.916558546453873   Change is   -0.226067228688703
 Root     18 :     5.916910456625393   Change is   -0.229732494803483
 Root     19 :     5.917516084613820   Change is   -0.234629388858945
 Root     20 :     5.924042165921765   Change is   -0.289639451460783
 Root     21 :     6.237677335865075   Change is   -0.045823735781961
 Root     22 :     6.237761352876566   Change is   -0.044900049728491
 Root     23 :     6.237837030597115   Change is   -0.044277423343254
 Root     24 :     6.536848475999537   Change is   -0.719381123990439
 Root     25 :     8.768491291205823   Change is   -0.276857614451502
 Root     26 :     8.768491373540909   Change is   -0.276857532176891
 Root     27 :     8.768491399589239   Change is   -0.276857506171177
 Root     28 :     8.768491423468435   Change is   -0.276857482271710
 Root     29 :     8.936875931397807   Change is   -0.362964015274208
 Root     30 :     8.968686923708807   Change is   -0.434205103617372
 Root     31 :     9.034854645896248   Change is   -0.858662049535889
 Root     32 :     9.126275363746975   Change is   -0.032905808927165
 Root     33 :     9.126275436233257   Change is   -0.032905736527999
 Root     34 :     9.126275458491925   Change is   -0.032905714243168
 Root     35 :     9.126275536357397   Change is   -0.032905636345913
 Root     36 :     9.245961841742428   Change is   -0.128636956659232
 Root     37 :     9.309433548377472   Change is   -0.167049198558387
 Root     38 :     9.510145813541552   Change is   -1.734157222755405
 Root     39 :     9.609365002836400   Change is   -0.680775395051658
 Root     40 :     9.643224371746506   Change is   -0.528910053899744
 Root     41 :     9.687476658312569   Change is    0.026567212777457
 Root     42 :     9.691435225473699   Change is   -0.050270539634020
 Root     43 :     9.691435245751524   Change is   -0.050270519355754
 Root     44 :     9.691435271357449   Change is   -0.050270493750102
 Root     45 :     9.691435324583226   Change is   -0.050270440523533
 Root     46 :     9.755382666593608   Change is    0.046439156959323
 Root     47 :    10.046461079921770   Change is   -1.904940756111774
 Root     48 :    10.360893245125000   Change is   -2.036155142221681
 Iteration     3 Dimension   102 NMult    96 NNew      6
 Estimated number of processors is:   20
 CISAX will form     1 AO SS matrices at one time.
 NMat=     1 NSing=     1 JSym2X= 2.
 CoulSu:  requested number of processors reduced to:  21 ShMem   1 Linda.
 NMat=     1 NSing=     1 JSym2X= 2.
 CoulSu:  requested number of processors reduced to:  21 ShMem   1 Linda.
 NMat=     1 NSing=     1 JSym2X= 2.
 CoulSu:  requested number of processors reduced to:  21 ShMem   1 Linda.
 NMat=     1 NSing=     0 JSym2X= 2.
 CoulSu:  requested number of processors reduced to:  21 ShMem   1 Linda.
 NMat=     1 NSing=     0 JSym2X= 2.
 CoulSu:  requested number of processors reduced to:  21 ShMem   1 Linda.
 NMat=     1 NSing=     0 JSym2X= 2.
 CoulSu:  requested number of processors reduced to:  21 ShMem   1 Linda.
 Root      1 not converged, maximum delta is    0.155354587195765
 Excitation Energies [eV] at current iteration:
 Root      1 :     5.034536218979127   Change is   -0.000068408154885
 Root      2 :     5.034536219012359   Change is   -0.000068411618391
 Root      3 :     5.034536219131456   Change is   -0.000068417999539
 Root      4 :     5.034536219985875   Change is   -0.000068430530553
 Root      5 :     5.034536222916942   Change is   -0.000068426295955
 Root      6 :     5.034536224800622   Change is   -0.000068408349085
 Iteration     4 Dimension   108 NMult   102 NNew      6
 Estimated number of processors is:   20
 CISAX will form     1 AO SS matrices at one time.
 NMat=     1 NSing=     1 JSym2X= 2.
 CoulSu:  requested number of processors reduced to:  21 ShMem   1 Linda.
 NMat=     1 NSing=     1 JSym2X= 2.
 CoulSu:  requested number of processors reduced to:  21 ShMem   1 Linda.
 NMat=     1 NSing=     1 JSym2X= 2.
 CoulSu:  requested number of processors reduced to:  21 ShMem   1 Linda.
 NMat=     1 NSing=     0 JSym2X= 2.
 CoulSu:  requested number of processors reduced to:  21 ShMem   1 Linda.
 NMat=     1 NSing=     0 JSym2X= 2.
 CoulSu:  requested number of processors reduced to:  21 ShMem   1 Linda.
 NMat=     1 NSing=     0 JSym2X= 2.
 CoulSu:  requested number of processors reduced to:  21 ShMem   1 Linda.
 Root      1 not converged, maximum delta is    0.099365730970146
 Excitation Energies [eV] at current iteration:
 Root      1 :     5.034536137053964   Change is   -0.000000081925163
 Root      2 :     5.034536137550024   Change is   -0.000000081462335
 Root      3 :     5.034536137945482   Change is   -0.000000081185974
 Root      4 :     5.034536138986126   Change is   -0.000000080999749
 Root      5 :     5.034536141228268   Change is   -0.000000083572354
 Root      6 :     5.034536141774478   Change is   -0.000000081142464
 Iteration     5 Dimension   111 NMult   108 NNew      3
 Estimated number of processors is:   20
 CISAX will form     1 AO SS matrices at one time.
 NMat=     1 NSing=     1 JSym2X= 2.
 CoulSu:  requested number of processors reduced to:  21 ShMem   1 Linda.
 NMat=     1 NSing=     1 JSym2X= 2.
 CoulSu:  requested number of processors reduced to:  21 ShMem   1 Linda.
 NMat=     1 NSing=     0 JSym2X= 2.
 CoulSu:  requested number of processors reduced to:  21 ShMem   1 Linda.
 Root      1 not converged, maximum delta is    0.230464168009377
 Excitation Energies [eV] at current iteration:
 Root      1 :     5.034536136291222   Change is   -0.000000000762742
 Root      2 :     5.034536136424995   Change is   -0.000000001125029
 Root      3 :     5.034536137408831   Change is   -0.000000003819437
 Root      4 :     5.034536137583539   Change is   -0.000000000361942
 Root      5 :     5.034536139313012   Change is    0.000000000326886
 Root      6 :     5.034536139764143   Change is   -0.000000002010335
 Iteration     6 Dimension   115 NMult   111 NNew      4
 Estimated number of processors is:   20
 CISAX will form     1 AO SS matrices at one time.
 NMat=     1 NSing=     1 JSym2X= 2.
 CoulSu:  requested number of processors reduced to:  21 ShMem   1 Linda.
 NMat=     1 NSing=     1 JSym2X= 2.
 CoulSu:  requested number of processors reduced to:  21 ShMem   1 Linda.
 NMat=     1 NSing=     0 JSym2X= 2.
 CoulSu:  requested number of processors reduced to:  21 ShMem   1 Linda.
 NMat=     1 NSing=     0 JSym2X= 2.
 CoulSu:  requested number of processors reduced to:  21 ShMem   1 Linda.
 Root      1 not converged, maximum delta is    0.015872710366363
 Excitation Energies [eV] at current iteration:
 Root      1 :     5.034536135312837   Change is   -0.000000000978386
 Root      2 :     5.034536135792667   Change is   -0.000000001616164
 Root      3 :     5.034536136287906   Change is   -0.000000000137090
 Root      4 :     5.034536136835613   Change is   -0.000000000747926
 Root      5 :     5.034536137894432   Change is   -0.000000001418580
 Root      6 :     5.034536139613760   Change is   -0.000000000150383
 Convergence achieved on expansion vectors.
 ***********************************************************************
 Stability analysis using <AA,BB:AA,BB> singles matrix:
 ***********************************************************************
 1PDM for each excited state written to RWF  633
 Ground to excited state transition densities written to RWF  633

 Eigenvectors of the stability matrix:
 
 Excited state symmetry could not be determined.
 Eigenvector   1:      Triplet-?Sym  Eigenvalue= 0.1850158  <S**2>=2.000
       7 -> 12         0.48896
       8 -> 10        -0.19598
       8 -> 11        -0.24555
       9 -> 10         0.24454
       9 -> 11         0.30125
 
 Excited state symmetry could not be determined.
 Eigenvector   2:      Singlet-?Sym  Eigenvalue= 0.1850158  <S**2>=0.000
       7 -> 10         0.44299
       7 -> 11        -0.22831
       8 -> 10        -0.19925
       8 -> 11        -0.34656
       9 -> 10        -0.11554
       9 -> 11        -0.27508
 
 Excited state symmetry could not be determined.
 Eigenvector   3:      Singlet-?Sym  Eigenvalue= 0.1850158  <S**2>=0.000
       7 -> 12         0.46829
       8 -> 11        -0.30658
       8 -> 12        -0.13215
       9 -> 11         0.38939
       9 -> 12        -0.11219
 
 Excited state symmetry could not be determined.
 Eigenvector   4:      Triplet-?Sym  Eigenvalue= 0.1850158  <S**2>=2.000
       7 -> 10        -0.33123
       7 -> 11         0.16980
       8 -> 11         0.38885
       8 -> 12         0.25342
       9 -> 10         0.31498
       9 -> 12         0.19824
 
 Excited state symmetry could not be determined.
 Eigenvector   5:      Singlet-?Sym  Eigenvalue= 0.1850158  <S**2>=0.000
       7 -> 12         0.17289
       8 -> 10        -0.28959
       8 -> 12         0.37021
       9 -> 10         0.40142
       9 -> 12         0.28441
 
 Excited state symmetry could not be determined.
 Eigenvector   6:      Triplet-?Sym  Eigenvalue= 0.1850158  <S**2>=2.000
       7 -> 10        -0.29506
       7 -> 11         0.15367
       8 -> 10         0.29321
       8 -> 12        -0.29002
       9 -> 10        -0.13297
       9 -> 11         0.36757
       9 -> 12        -0.22719
 The wavefunction is stable under the perturbations considered.
 Leave Link  914 at Sat Apr 17 19:29:00 2021, MaxMem=   104857600 cpu:            3120.8 elap:             101.5
 (Enter /s/ls4/users/knvvv/bin/g16sse/l508.exe)
 The wavefunction is already stable.
 Leave Link  508 at Sat Apr 17 19:29:00 2021, MaxMem=   104857600 cpu:               2.2 elap:               0.1
 (Enter /s/ls4/users/knvvv/bin/g16sse/l601.exe)
 Copying SCF densities to generalized density rwf, IOpCl= 0 IROHF=0.

 **********************************************************************

            Population analysis using the SCF density.

 **********************************************************************

 Orbital symmetries:
       Occupied  (A1G) (A1G) (T1U) (T1U) (T1U) (A1G) (T1U) (T1U)
                 (T1U)
       Virtual   (T1U) (T1U) (T1U) (A1G) (T2G) (T2G) (T2G) (EG)
                 (EG) (T1U) (T1U) (T1U) (A1G) (T2G) (T2G) (T2G)
                 (EG) (EG) (T1U) (T1U) (T1U) (?A) (?A) (?A) (?A)
                 (T1U) (T1U) (T1U) (T2G) (T2G) (T2G) (EG) (EG)
                 (A1G) (T2G) (T2G) (T2G) (EG) (EG) (?B) (?B) (?B)
                 (?B) (?B) (?B) (EG) (EG) (A1G) (?A) (?A) (?A)
                 (?A) (T1U) (T1U) (T1U) (T1U) (T1U) (T1U) (A1G)
                 (T2G) (T2G) (T2G) (EG) (EG) (A1G) (T1U) (T1U)
                 (T1U) (A1G) (A1G)
 The electronic state is 1-A1G.
 Alpha  occ. eigenvalues -- -102.32087  -9.47545  -7.19706  -7.19706  -7.19706
 Alpha  occ. eigenvalues --   -0.56751  -0.08155  -0.08155  -0.08155
 Alpha virt. eigenvalues --    0.17822   0.17822   0.17822   0.25587   0.39168
 Alpha virt. eigenvalues --    0.39168   0.39168   0.39168   0.39168   0.51205
 Alpha virt. eigenvalues --    0.51205   0.51205   0.77339   0.78158   0.78158
 Alpha virt. eigenvalues --    0.78158   0.78158   0.78158   1.45402   1.45402
 Alpha virt. eigenvalues --    1.45402   1.63521   1.63521   1.63521   1.63521
 Alpha virt. eigenvalues --    1.63521   1.63521   1.63521   1.65320   1.65320
 Alpha virt. eigenvalues --    1.65320   1.65320   1.65320   2.40458   3.67950
 Alpha virt. eigenvalues --    3.67950   3.67950   3.67950   3.67950   3.87725
 Alpha virt. eigenvalues --    3.87725   3.87725   3.87725   3.87725   3.87725
 Alpha virt. eigenvalues --    3.87725   3.87725   3.87725   4.19383   4.19383
 Alpha virt. eigenvalues --    4.19383   4.19383   4.19383   4.19383   4.19383
 Alpha virt. eigenvalues --    4.28481   4.28481   4.28481   8.55695  11.07460
 Alpha virt. eigenvalues --   11.07460  11.07460  11.07460  11.07460  28.70665
 Alpha virt. eigenvalues --   42.37079  42.37079  42.37079  98.50397 524.21816
          Condensed to atoms (all electrons):
               1
     1  Cl  18.000000
 Mulliken charges:
               1
     1  Cl  -1.000000
 Sum of Mulliken charges =  -1.00000
 Mulliken charges with hydrogens summed into heavy atoms:
               1
     1  Cl  -1.000000
 Electronic spatial extent (au):  <R**2>=             38.9943
 Charge=             -1.0000 electrons
 Dipole moment (field-independent basis, Debye):
    X=             -0.0000    Y=              0.0000    Z=             -0.0000  Tot=              0.0000
 Quadrupole moment (field-independent basis, Debye-Ang):
   XX=            -17.4829   YY=            -17.4829   ZZ=            -17.4829
   XY=             -0.0000   XZ=              0.0000   YZ=             -0.0000
 Traceless Quadrupole moment (field-independent basis, Debye-Ang):
   XX=              0.0000   YY=             -0.0000   ZZ=             -0.0000
   XY=             -0.0000   XZ=              0.0000   YZ=             -0.0000
 Octapole moment (field-independent basis, Debye-Ang**2):
  XXX=              0.0000  YYY=              0.0000  ZZZ=             -0.0000  XYY=              0.0000
  XXY=             -0.0000  XXZ=             -0.0000  XZZ=             -0.0000  YZZ=              0.0000
  YYZ=              0.0000  XYZ=             -0.0000
 Hexadecapole moment (field-independent basis, Debye-Ang**3):
 XXXX=            -32.6059 YYYY=            -32.6059 ZZZZ=            -32.6059 XXXY=              0.0000
 XXXZ=             -0.0000 YYYX=             -0.0000 YYYZ=              0.0000 ZZZX=              0.0000
 ZZZY=             -0.0000 XXYY=            -10.8686 XXZZ=            -10.8686 YYZZ=            -10.8686
 XXYZ=             -0.0000 YYXZ=              0.0000 ZZXY=             -0.0000
 N-N= 0.000000000000D+00 E-N=-1.100952501872D+03  KE= 4.596534398425D+02
 PrsmSu:  requested number of processors reduced to:  21 ShMem   1 Linda.
 No NMR shielding tensors so no spin-rotation constants.
 Leave Link  601 at Sat Apr 17 19:29:06 2021, MaxMem=   104857600 cpu:             281.5 elap:               6.1
 (Enter /s/ls4/users/knvvv/bin/g16sse/l9999.exe)

 Test job not archived.
 1\1\GINC-N148\Stability\RM062X\Gen\Cl1(1-)\KNVVV\17-Apr-2021\0\\#P M06
 2X/GEN Integral=UltraFineGrid SCF=NoSymm Stable=(RExt, Opt) IOp(1/33=1
 )\\Database calculations.\\-1,1\Cl,0,-2.1140937526,-0.0557507204,0.\\V
 ersion=ES64L-G16RevA.03\State=1-A1G\HF=-460.2806091\RMSD=7.949e-10\Dip
 ole=0.,0.,0.\Quadrupole=0.,0.,0.,0.,0.,0.\PG=OH [O(Cl1)]\\@


 CHEMISTRY BEGAN BY SAYING IT WOULD CHANGE THE BASER
 METALS INTO GOLD.  BY NOT DOING THAT IT HAS DONE MUCH
 GREATER THINGS.  --  RALPH WALDO EMERSON
 Job cpu time:       0 days  1 hours 30 minutes  1.5 seconds.
 Elapsed time:       0 days  0 hours  2 minutes 31.0 seconds.
 File lengths (MBytes):  RWF=     62 Int=      0 D2E=      0 Chk=      3 Scr=      1
 Normal termination of Gaussian 16 at Sat Apr 17 19:29:06 2021.
