 Entering Gaussian System, Link 0=/s/ls4/users/knvvv/bin/g16sse/g16
 Input=data/database/M062X--def2-QZVPPD--244_sio_W4-11.gjf
 Output=data/database/M062X--def2-QZVPPD--244_sio_W4-11.log
 Initial command:
 /s/ls4/users/knvvv/bin/g16sse/l1.exe "/s/ls4/users/knvvv/bin/scratch/Gau-28124.inp" -scrdir="/s/ls4/users/knvvv/bin/scratch/"
 Entering Link 1 = /s/ls4/users/knvvv/bin/g16sse/l1.exe PID=     28125.
  
 Copyright (c) 1988,1990,1992,1993,1995,1998,2003,2009,2016,
            Gaussian, Inc.  All Rights Reserved.
  
 This is part of the Gaussian(R) 16 program.  It is based on
 the Gaussian(R) 09 system (copyright 2009, Gaussian, Inc.),
 the Gaussian(R) 03 system (copyright 2003, Gaussian, Inc.),
 the Gaussian(R) 98 system (copyright 1998, Gaussian, Inc.),
 the Gaussian(R) 94 system (copyright 1995, Gaussian, Inc.),
 the Gaussian 92(TM) system (copyright 1992, Gaussian, Inc.),
 the Gaussian 90(TM) system (copyright 1990, Gaussian, Inc.),
 the Gaussian 88(TM) system (copyright 1988, Gaussian, Inc.),
 the Gaussian 86(TM) system (copyright 1986, Carnegie Mellon
 University), and the Gaussian 82(TM) system (copyright 1983,
 Carnegie Mellon University). Gaussian is a federally registered
 trademark of Gaussian, Inc.
  
 This software contains proprietary and confidential information,
 including trade secrets, belonging to Gaussian, Inc.
  
 This software is provided under written license and may be
 used, copied, transmitted, or stored only in accord with that
 written license.
  
 The following legend is applicable only to US Government
 contracts under FAR:
  
                    RESTRICTED RIGHTS LEGEND
  
 Use, reproduction and disclosure by the US Government is
 subject to restrictions as set forth in subparagraphs (a)
 and (c) of the Commercial Computer Software - Restricted
 Rights clause in FAR 52.227-19.
  
 Gaussian, Inc.
 340 Quinnipiac St., Bldg. 40, Wallingford CT 06492
  
  
 ---------------------------------------------------------------
 Warning -- This program may not be used in any manner that
 competes with the business of Gaussian, Inc. or will provide
 assistance to any competitor of Gaussian, Inc.  The licensee
 of this program is prohibited from giving any competitor of
 Gaussian, Inc. access to this program.  By using this program,
 the user acknowledges that Gaussian, Inc. is engaged in the
 business of creating and licensing software in the field of
 computational chemistry and represents and warrants to the
 licensee that it is not a competitor of Gaussian, Inc. and that
 it will not use this program in any manner prohibited above.
 ---------------------------------------------------------------
  

 Cite this work as:
 Gaussian 16, Revision A.03,
 M. J. Frisch, G. W. Trucks, H. B. Schlegel, G. E. Scuseria, 
 M. A. Robb, J. R. Cheeseman, G. Scalmani, V. Barone, 
 G. A. Petersson, H. Nakatsuji, X. Li, M. Caricato, A. V. Marenich, 
 J. Bloino, B. G. Janesko, R. Gomperts, B. Mennucci, H. P. Hratchian, 
 J. V. Ortiz, A. F. Izmaylov, J. L. Sonnenberg, D. Williams-Young, 
 F. Ding, F. Lipparini, F. Egidi, J. Goings, B. Peng, A. Petrone, 
 T. Henderson, D. Ranasinghe, V. G. Zakrzewski, J. Gao, N. Rega, 
 G. Zheng, W. Liang, M. Hada, M. Ehara, K. Toyota, R. Fukuda, 
 J. Hasegawa, M. Ishida, T. Nakajima, Y. Honda, O. Kitao, H. Nakai, 
 T. Vreven, K. Throssell, J. A. Montgomery, Jr., J. E. Peralta, 
 F. Ogliaro, M. J. Bearpark, J. J. Heyd, E. N. Brothers, K. N. Kudin, 
 V. N. Staroverov, T. A. Keith, R. Kobayashi, J. Normand, 
 K. Raghavachari, A. P. Rendell, J. C. Burant, S. S. Iyengar, 
 J. Tomasi, M. Cossi, J. M. Millam, M. Klene, C. Adamo, R. Cammi, 
 J. W. Ochterski, R. L. Martin, K. Morokuma, O. Farkas, 
 J. B. Foresman, and D. J. Fox, Gaussian, Inc., Wallingford CT, 2016.
 
 ******************************************
 Gaussian 16:  ES64L-G16RevA.03 25-Dec-2016
                17-Apr-2021 
 ******************************************
 %RWF=temp5_52893,70GB
 %nprocshared=48
 Will use up to   48 processors via shared memory.
 Default route: MaxDisk=80GB
 ----------------------------------------------------------------------
 #P M062X/GEN Integral=UltraFineGrid SCF=NoSymm Stable=(RExt, Opt) IOp(
 1/33=1)
 ----------------------------------------------------------------------
 1/33=1,38=1,172=1/1;
 2/12=2,17=6,18=5,40=1/2;
 3/5=7,11=2,25=1,30=1,74=-55,75=-5/1,2,3;
 4/9=2/1;
 5/5=2,38=5/2;
 6/7=2,8=2,9=2,10=2,28=1/1;
 8/6=1,10=90,11=11/1;
 9/8=-3,42=1,46=1/14;
 5/5=2,8=3,17=40,38=5/8(-2);
 6/7=2,8=2,9=2,10=2,28=1/1;
 99/5=1,9=1/99;
 Leave Link    1 at Sat Apr 17 20:53:45 2021, MaxMem=           0 cpu:               8.3 elap:               0.2
 (Enter /s/ls4/users/knvvv/bin/g16sse/l101.exe)
 ONIOM data not found on unit 2.
 ----------------------
 Database calculations.
 ----------------------
 TstMul:  ICh=     0
 TstMul:  Mul=     1
 TstMul:  ICh=     0
 TstMul:  Mul=     1
 Symbolic Z-matrix:
 Charge =  0 Multiplicity = 1
 Si                    0.        0.        0. 
 O                     0.        0.        1.51704 
 
 RdStrC is calling ZToCFu for IStruc=1 NZ=     2.
 PrtBox:  NBox=     1 Levels=  1 BoxLen=    8.00 SMaxX=        2.87
          Shift=            0.000000            0.000000            0.000000
 Box      1 Number                   0 centers from      1 to      2:
 After GenITR:
 ITRead=  0  0
 MicOpt= -1 -1
 ITRead=  0  0
 MicOpt= -1 -1
 NAtoms=      2 NQM=        2 NQMF=       0 NMMI=      0 NMMIF=      0
                NMic=       0 NMicF=      0.
                    Isotopes and Nuclear Properties:
 (Nuclear quadrupole moments (NQMom) in fm**2, nuclear magnetic moments (NMagM)
  in nuclear magnetons)

  Atom         1           2
 IAtWgt=          28          16
 AtmWgt=  27.9769284  15.9949146
 NucSpn=           0           0
 AtZEff=  -0.0000000  -0.0000000
 NQMom=    0.0000000   0.0000000
 NMagM=    0.0000000   0.0000000
 AtZNuc=  14.0000000   8.0000000
 No MM parameters found.
 Leave Link  101 at Sat Apr 17 20:53:45 2021, MaxMem=   104857600 cpu:               6.5 elap:               0.2
 (Enter /s/ls4/users/knvvv/bin/g16sse/l202.exe)
                          Input orientation:                          
 ---------------------------------------------------------------------
 Center     Atomic      Atomic             Coordinates (Angstroms)
 Number     Number       Type             X           Y           Z
 ---------------------------------------------------------------------
      1         14           0        0.000000    0.000000    0.000000
      2          8           0        0.000000    0.000000    1.517041
 ---------------------------------------------------------------------
 Stoichiometry    OSi
 Framework group  C*V[C*(OSi)]
 Deg. of freedom     1
 Full point group                 C*V     NOp   4
 Largest Abelian subgroup         C2V     NOp   4
 Largest concise Abelian subgroup C1      NOp   1
                         Standard orientation:                         
 ---------------------------------------------------------------------
 Center     Atomic      Atomic             Coordinates (Angstroms)
 Number     Number       Type             X           Y           Z
 ---------------------------------------------------------------------
      1         14           0        0.000000    0.000000    0.551651
      2          8           0        0.000000    0.000000   -0.965390
 ---------------------------------------------------------------------
 Rotational constants (GHZ):           0.0000000          21.5782124          21.5782124
 Leave Link  202 at Sat Apr 17 20:53:45 2021, MaxMem=   104857600 cpu:               6.0 elap:               0.1
 (Enter /s/ls4/users/knvvv/bin/g16sse/l301.exe)
 General basis read from cards:  (5D, 7F)
 Centers:       2
 S 8 1.00
     Exponent=  1.1650646908D+05 Coefficients=  4.0383857939D-05
     Exponent=  1.7504349724D+04 Coefficients=  3.1255139004D-04
     Exponent=  3.9934513230D+03 Coefficients=  1.6341473495D-03
     Exponent=  1.1330063186D+03 Coefficients=  6.8283224757D-03
     Exponent=  3.6999569594D+02 Coefficients=  2.4124410221D-02
     Exponent=  1.3362074349D+02 Coefficients=  7.2730206154D-02
     Exponent=  5.2035643649D+01 Coefficients=  1.7934429892D-01
     Exponent=  2.1461939313D+01 Coefficients=  3.3059588895D-01
 S 2 1.00
     Exponent=  8.9835051252D+01 Coefficients=  9.6468652996D-02
     Exponent=  2.6428010844D+01 Coefficients=  9.4117481120D-01
 S 1 1.00
     Exponent=  9.2822824649D+00 Coefficients=  1.0000000000D+00
 S 1 1.00
     Exponent=  4.0947728533D+00 Coefficients=  1.0000000000D+00
 S 1 1.00
     Exponent=  1.3255349078D+00 Coefficients=  1.0000000000D+00
 S 1 1.00
     Exponent=  5.1877230787D-01 Coefficients=  1.0000000000D+00
 S 1 1.00
     Exponent=  1.9772676454D-01 Coefficients=  1.0000000000D+00
 S 1 1.00
     Exponent=  6.9638535104D-02 Coefficients=  1.0000000000D+00
 P 5 1.00
     Exponent=  1.9115255810D+02 Coefficients=  2.5115697705D-03
     Exponent=  4.5233356739D+01 Coefficients=  2.0039240864D-02
     Exponent=  1.4353465922D+01 Coefficients=  9.3609064762D-02
     Exponent=  5.2422371832D+00 Coefficients=  3.0618127124D-01
     Exponent=  2.0792418599D+00 Coefficients=  6.7810501439D-01
 P 1 1.00
     Exponent=  8.4282371424D-01 Coefficients=  1.0000000000D+00
 P 1 1.00
     Exponent=  3.3617694891D-01 Coefficients=  1.0000000000D+00
 P 1 1.00
     Exponent=  1.2863997974D-01 Coefficients=  1.0000000000D+00
 P 1 1.00
     Exponent=  4.3598162776D-02 Coefficients=  1.0000000000D+00
 D 1 1.00
     Exponent=  3.7750000000D+00 Coefficients=  1.0000000000D+00
 D 1 1.00
     Exponent=  1.3000000000D+00 Coefficients=  1.0000000000D+00
 D 1 1.00
     Exponent=  4.4400000000D-01 Coefficients=  1.0000000000D+00
 D 1 1.00
     Exponent=  1.2546378695D-01 Coefficients=  1.0000000000D+00
 F 1 1.00
     Exponent=  2.6660000000D+00 Coefficients=  1.0000000000D+00
 F 1 1.00
     Exponent=  8.5900000000D-01 Coefficients=  1.0000000000D+00
 G 1 1.00
     Exponent=  1.8460000000D+00 Coefficients=  1.0000000000D+00
 ****
 Centers:       1
 S 10 1.00
     Exponent=  9.1807069565D+05 Coefficients=  1.2658787192D-05
     Exponent=  1.3748525386D+05 Coefficients=  9.8408387461D-05
     Exponent=  3.1287772714D+04 Coefficients=  5.1731398244D-04
     Exponent=  8.8616105697D+03 Coefficients=  2.1785441933D-03
     Exponent=  2.8906943156D+03 Coefficients=  7.8656853716D-03
     Exponent=  1.0434063979D+03 Coefficients=  2.4987553674D-02
     Exponent=  4.0680160276D+02 Coefficients=  6.9761818844D-02
     Exponent=  1.6848360207D+02 Coefficients=  1.6473362733D-01
     Exponent=  7.3185628823D+01 Coefficients=  3.0285602647D-01
     Exponent=  3.2998485420D+01 Coefficients=  3.6007260439D-01
 S 3 1.00
     Exponent=  2.7878751325D+02 Coefficients=  2.0185463814D-02
     Exponent=  8.5910228722D+01 Coefficients=  1.7720406747D-01
     Exponent=  3.2992604031D+01 Coefficients=  6.3587860906D-01
 S 1 1.00
     Exponent=  1.5033693254D+01 Coefficients=  1.0000000000D+00
 S 1 1.00
     Exponent=  5.7257514773D+00 Coefficients=  1.0000000000D+00
 S 1 1.00
     Exponent=  2.6146521029D+00 Coefficients=  1.0000000000D+00
 S 1 1.00
     Exponent=  1.1757833152D+00 Coefficients=  1.0000000000D+00
 S 1 1.00
     Exponent=  3.5432330868D-01 Coefficients=  1.0000000000D+00
 S 1 1.00
     Exponent=  1.6248335806D-01 Coefficients=  1.0000000000D+00
 S 1 1.00
     Exponent=  6.8332457181D-02 Coefficients=  1.0000000000D+00
 S 1 1.00
     Exponent=  3.0521078871D-02 Coefficients=  1.0000000000D+00
 P 8 1.00
     Exponent=  1.7758850516D+03 Coefficients=  2.0186971126D-04
     Exponent=  4.2083786849D+02 Coefficients=  1.7544314655D-03
     Exponent=  1.3642290243D+02 Coefficients=  9.5039532290D-03
     Exponent=  5.1700991737D+01 Coefficients=  3.7325741590D-02
     Exponent=  2.1559456002D+01 Coefficients=  1.1085396329D-01
     Exponent=  9.5559200095D+00 Coefficients=  2.3756407046D-01
     Exponent=  4.3529819473D+00 Coefficients=  3.5295783750D-01
     Exponent=  2.0096964381D+00 Coefficients=  3.2885931947D-01
 P 2 1.00
     Exponent=  4.6418153780D+01 Coefficients=  2.5858819154D-02
     Exponent=  1.9076417796D+00 Coefficients= -5.9874865899D-01
 P 1 1.00
     Exponent=  9.2337221587D-01 Coefficients=  1.0000000000D+00
 P 1 1.00
     Exponent=  3.4515720370D-01 Coefficients=  1.0000000000D+00
 P 1 1.00
     Exponent=  1.3656834761D-01 Coefficients=  1.0000000000D+00
 P 1 1.00
     Exponent=  5.2987060586D-02 Coefficients=  1.0000000000D+00
 D 1 1.00
     Exponent=  2.6450000000D+00 Coefficients=  1.0000000000D+00
 D 1 1.00
     Exponent=  6.0800000000D-01 Coefficients=  1.0000000000D+00
 D 1 1.00
     Exponent=  2.7200000000D-01 Coefficients=  1.0000000000D+00
 D 1 1.00
     Exponent=  1.1300000000D-01 Coefficients=  1.0000000000D+00
 D 1 1.00
     Exponent=  4.4018904228D-02 Coefficients=  1.0000000000D+00
 F 1 1.00
     Exponent=  5.4100000000D-01 Coefficients=  1.0000000000D+00
 F 1 1.00
     Exponent=  2.1200000000D-01 Coefficients=  1.0000000000D+00
 G 1 1.00
     Exponent=  4.6100000000D-01 Coefficients=  1.0000000000D+00
 ****
 Ernie: Thresh=  0.10000D-02 Tol=  0.10000D-05 Strict=F.
 There are    80 symmetry adapted cartesian basis functions of A1  symmetry.
 There are    19 symmetry adapted cartesian basis functions of A2  symmetry.
 There are    38 symmetry adapted cartesian basis functions of B1  symmetry.
 There are    38 symmetry adapted cartesian basis functions of B2  symmetry.
 There are    61 symmetry adapted basis functions of A1  symmetry.
 There are    17 symmetry adapted basis functions of A2  symmetry.
 There are    32 symmetry adapted basis functions of B1  symmetry.
 There are    32 symmetry adapted basis functions of B2  symmetry.
   142 basis functions,   230 primitive gaussians,   175 cartesian basis functions
    11 alpha electrons       11 beta electrons
       nuclear repulsion energy        39.0680677157 Hartrees.
 IExCor= 4336 DFT=T Ex+Corr=M062X ExCW=0 ScaHFX=  0.540000
 ScaDFX=  1.000000  1.000000  1.000000  1.000000 ScalE2=  1.000000  1.000000
 IRadAn=      5 IRanWt=     -1 IRanGd=            0 ICorTp=0 IEmpDi=  4
 NAtoms=    2 NActive=    2 NUniq=    2 SFac= 1.00D+00 NAtFMM=   60 NAOKFM=F Big=F
 Integral buffers will be    131072 words long.
 Raffenetti 2 integral format.
 Two-electron integral symmetry is turned on.
 Leave Link  301 at Sat Apr 17 20:53:45 2021, MaxMem=   104857600 cpu:               8.0 elap:               0.2
 (Enter /s/ls4/users/knvvv/bin/g16sse/l302.exe)
 NPDir=0 NMtPBC=     1 NCelOv=     1 NCel=       1 NClECP=     1 NCelD=      1
         NCelK=      1 NCelE2=     1 NClLst=     1 CellRange=     0.0.
 One-electron integrals computed using PRISM.
 One-electron integral symmetry used in STVInt
 PrsmSu:  requested number of processors reduced to:   4 ShMem   1 Linda.
 PrsmSu:  requested number of processors reduced to:  21 ShMem   1 Linda.
 NBasis=   142 RedAO= T EigKep=  7.17D-05  NBF=    61    17    32    32
 NBsUse=   142 1.00D-06 EigRej= -1.00D+00 NBFU=    61    17    32    32
 Precomputing XC quadrature grid using
 IXCGrd= 4 IRadAn=           5 IRanWt=          -1 IRanGd=           0 AccXCQ= 0.00D+00.
 Generated NRdTot=       0 NPtTot=           0 NUsed=           0 NTot=          32
 NSgBfM=   173   173   173   173   173 MxSgAt=     2 MxSgA2=     2.
 Leave Link  302 at Sat Apr 17 20:53:50 2021, MaxMem=   104857600 cpu:             213.0 elap:               4.6
 (Enter /s/ls4/users/knvvv/bin/g16sse/l303.exe)
 DipDrv:  MaxL=1.
 Leave Link  303 at Sat Apr 17 20:53:51 2021, MaxMem=   104857600 cpu:              28.4 elap:               0.6
 (Enter /s/ls4/users/knvvv/bin/g16sse/l401.exe)
 SCF N**3 symmetry information disabled.
 ExpMin= 3.05D-02 ExpMax= 9.18D+05 ExpMxC= 1.13D+03 IAcc=3 IRadAn=         5 AccDes= 0.00D+00
 Harris functional with IExCor= 1009 and IRadAn=       5 diagonalized for initial guess.
 HarFok:  IExCor= 1009 AccDes= 0.00D+00 IRadAn=         5 IDoV= 1 UseB2=F ITyADJ=14
 ICtDFT=  3500011 ScaDFX=  1.000000  1.000000  1.000000  1.000000
 FoFCou: FMM=F IPFlag=           0 FMFlag=      100000 FMFlg1=           0
         NFxFlg=           0 DoJE=T BraDBF=F KetDBF=T FulRan=T
         wScrn=  0.000000 ICntrl=       500 IOpCl=  0 I1Cent=   200000004 NGrid=           0
         NMat0=    1 NMatS0=      1 NMatT0=    0 NMatD0=    1 NMtDS0=    0 NMtDT0=    0
 Petite list used in FoFCou.
 CoulSu:  requested number of processors reduced to:  21 ShMem   1 Linda.
 CoulSu:  requested number of processors reduced to:  21 ShMem   1 Linda.
 CoulSu:  requested number of processors reduced to:  21 ShMem   1 Linda.
 CoulSu:  requested number of processors reduced to:  21 ShMem   1 Linda.
 Harris En= -364.601346804761    
 JPrj=0 DoOrth=F DoCkMO=F.
 Initial guess orbital symmetries:
       Occupied  (SG) (SG) (SG) (SG) (PI) (PI) (SG) (SG) (PI) (PI)
                 (SG)
       Virtual   (PI) (PI) (SG) (SG) (SG) (PI) (PI) (DLTA) (DLTA)
                 (PI) (PI) (SG) (SG) (PI) (PI) (SG) (DLTA) (DLTA)
                 (SG) (PI) (PI) (DLTA) (DLTA) (PI) (PI) (SG) (SG)
                 (PI) (PI) (SG) (PHI) (PHI) (DLTA) (DLTA) (PI)
                 (PI) (SG) (PI) (PI) (DLTA) (DLTA) (SG) (SG) (PI)
                 (PI) (SG) (DLTA) (DLTA) (SG) (PI) (PI) (SG) (PI)
                 (PI) (DLTA) (DLTA) (PI) (PI) (SG) (PHI) (PHI)
                 (?A) (?A) (PHI) (PHI) (DLTA) (DLTA) (SG) (DLTA)
                 (DLTA) (SG) (PI) (PI) (PI) (PI) (SG) (PI) (PI)
                 (PHI) (PHI) (SG) (DLTA) (DLTA) (SG) (DLTA) (DLTA)
                 (PI) (PI) (SG) (PI) (PI) (SG) (SG) (PI) (PI) (SG)
                 (DLTA) (DLTA) (PI) (PI) (SG) (?A) (?A) (PHI) (PHI)
                 (DLTA) (DLTA) (SG) (PI) (PI) (PHI) (PHI) (DLTA)
                 (DLTA) (PI) (PI) (SG) (PI) (PI) (DLTA) (DLTA)
                 (PI) (PI) (SG) (SG) (SG) (SG) (SG) (SG) (SG) (SG)
 The electronic state of the initial guess is 1-SG.
 Leave Link  401 at Sat Apr 17 20:53:53 2021, MaxMem=   104857600 cpu:             108.2 elap:               2.5
 (Enter /s/ls4/users/knvvv/bin/g16sse/l502.exe)
 Integral symmetry usage will be decided dynamically.
 Closed shell SCF:
 Using DIIS extrapolation, IDIIS=  1040.
 NGot=   104857600 LenX=   104785409 LenY=   104754343
 Requested convergence on RMS density matrix=1.00D-08 within 128 cycles.
 Requested convergence on MAX density matrix=1.00D-06.
 Requested convergence on             energy=1.00D-06.
 No special actions if energy rises.
 Fock matrices will be formed incrementally for  20 cycles.

 Cycle   1  Pass 1  IDiag  1:
 FoFJK:  IHMeth= 1 ICntrl=       0 DoSepK=F KAlg= 0 I1Cent=           0 FoldK=F
 IRaf= 990000000 NMat=       1 IRICut=       1 DoRegI=T DoRafI=F ISym2E= 1 IDoP0=0 IntGTp=1.
 FoFCou: FMM=F IPFlag=           0 FMFlag=      100000 FMFlg1=           0
         NFxFlg=           0 DoJE=F BraDBF=F KetDBF=F FulRan=T
         wScrn=  0.000000 ICntrl=         0 IOpCl=  0 I1Cent=           0 NGrid=           0
         NMat0=    1 NMatS0=      1 NMatT0=    0 NMatD0=    1 NMtDS0=    0 NMtDT0=    0
 Petite list used in FoFCou.
 CoulSu:  requested number of processors reduced to:  21 ShMem   1 Linda.
 E= -364.526879162461    
 DIIS: error= 5.67D-02 at cycle   1 NSaved=   1.
 NSaved= 1 IEnMin= 1 EnMin= -364.526879162461     IErMin= 1 ErrMin= 5.67D-02
 ErrMax= 5.67D-02  0.00D+00 EMaxC= 1.00D-01 BMatC= 2.98D-01 BMatP= 2.98D-01
 IDIUse=3 WtCom= 4.33D-01 WtEn= 5.67D-01
 Coeff-Com:  0.100D+01
 Coeff-En:   0.100D+01
 Coeff:      0.100D+01
 Gap=     0.343 Goal=   None    Shift=    0.000
 GapD=    0.343 DampG=1.000 DampE=0.500 DampFc=0.5000 IDamp=-1.
 Damping current iteration by 5.00D-01
 RMSDP=5.21D-03 MaxDP=1.21D-01              OVMax= 5.85D-01

 Cycle   2  Pass 1  IDiag  1:
 RMSU=  2.59D-03    CP:  9.84D-01
 CoulSu:  requested number of processors reduced to:  21 ShMem   1 Linda.
 E= -364.387051726887     Delta-E=        0.139827435574 Rises=F Damp=T
 DIIS: error= 4.25D-02 at cycle   2 NSaved=   2.
 NSaved= 2 IEnMin= 1 EnMin= -364.526879162461     IErMin= 2 ErrMin= 4.25D-02
 ErrMax= 4.25D-02  0.00D+00 EMaxC= 1.00D-01 BMatC= 1.43D-01 BMatP= 2.98D-01
 IDIUse=3 WtCom= 5.75D-01 WtEn= 4.25D-01
 Coeff-Com:  0.388D+00 0.612D+00
 Coeff-En:   0.651D+00 0.349D+00
 Coeff:      0.500D+00 0.500D+00
 Gap=     0.311 Goal=   None    Shift=    0.000
 RMSDP=1.66D-03 MaxDP=6.02D-02 DE= 1.40D-01 OVMax= 4.42D-01

 Cycle   3  Pass 1  IDiag  1:
 RMSU=  1.32D-03    CP:  9.82D-01  6.11D-01
 CoulSu:  requested number of processors reduced to:  21 ShMem   1 Linda.
 E= -364.732333584424     Delta-E=       -0.345281857537 Rises=F Damp=F
 DIIS: error= 6.73D-03 at cycle   3 NSaved=   3.
 NSaved= 3 IEnMin= 3 EnMin= -364.732333584424     IErMin= 3 ErrMin= 6.73D-03
 ErrMax= 6.73D-03  0.00D+00 EMaxC= 1.00D-01 BMatC= 4.12D-03 BMatP= 1.43D-01
 IDIUse=3 WtCom= 9.33D-01 WtEn= 6.73D-02
 Coeff-Com:  0.684D-01-0.376D-01 0.969D+00
 Coeff-En:   0.000D+00 0.000D+00 0.100D+01
 Coeff:      0.638D-01-0.351D-01 0.971D+00
 Gap=     0.322 Goal=   None    Shift=    0.000
 RMSDP=4.07D-04 MaxDP=1.71D-02 DE=-3.45D-01 OVMax= 1.91D-02

 Cycle   4  Pass 1  IDiag  1:
 RMSU=  4.06D-04    CP:  9.81D-01  5.98D-01  1.01D+00
 CoulSu:  requested number of processors reduced to:  21 ShMem   1 Linda.
 E= -364.733494732037     Delta-E=       -0.001161147613 Rises=F Damp=F
 DIIS: error= 3.48D-03 at cycle   4 NSaved=   4.
 NSaved= 4 IEnMin= 4 EnMin= -364.733494732037     IErMin= 4 ErrMin= 3.48D-03
 ErrMax= 3.48D-03  0.00D+00 EMaxC= 1.00D-01 BMatC= 1.01D-03 BMatP= 4.12D-03
 IDIUse=3 WtCom= 9.65D-01 WtEn= 3.48D-02
 Coeff-Com:  0.300D-01-0.558D-01 0.150D+00 0.876D+00
 Coeff-En:   0.000D+00 0.000D+00 0.000D+00 0.100D+01
 Coeff:      0.289D-01-0.539D-01 0.145D+00 0.880D+00
 Gap=     0.326 Goal=   None    Shift=    0.000
 RMSDP=9.98D-05 MaxDP=3.64D-03 DE=-1.16D-03 OVMax= 7.30D-03

 Cycle   5  Pass 1  IDiag  1:
 RMSU=  8.13D-05    CP:  9.81D-01  5.77D-01  1.01D+00  9.71D-01
 CoulSu:  requested number of processors reduced to:  21 ShMem   1 Linda.
 E= -364.734270722349     Delta-E=       -0.000775990312 Rises=F Damp=F
 DIIS: error= 1.35D-03 at cycle   5 NSaved=   5.
 NSaved= 5 IEnMin= 5 EnMin= -364.734270722349     IErMin= 5 ErrMin= 1.35D-03
 ErrMax= 1.35D-03  0.00D+00 EMaxC= 1.00D-01 BMatC= 1.21D-04 BMatP= 1.01D-03
 IDIUse=3 WtCom= 9.87D-01 WtEn= 1.35D-02
 Coeff-Com:  0.985D-02-0.168D-01 0.191D-01-0.566D-01 0.104D+01
 Coeff-En:   0.000D+00 0.000D+00 0.000D+00 0.000D+00 0.100D+01
 Coeff:      0.971D-02-0.166D-01 0.188D-01-0.559D-01 0.104D+01
 Gap=     0.326 Goal=   None    Shift=    0.000
 RMSDP=2.98D-05 MaxDP=1.10D-03 DE=-7.76D-04 OVMax= 2.80D-03

 Cycle   6  Pass 1  IDiag  1:
 RMSU=  1.26D-05    CP:  9.81D-01  5.68D-01  1.01D+00  9.44D-01  1.12D+00
 CoulSu:  requested number of processors reduced to:  21 ShMem   1 Linda.
 E= -364.734369781228     Delta-E=       -0.000099058880 Rises=F Damp=F
 DIIS: error= 3.87D-04 at cycle   6 NSaved=   6.
 NSaved= 6 IEnMin= 6 EnMin= -364.734369781228     IErMin= 6 ErrMin= 3.87D-04
 ErrMax= 3.87D-04  0.00D+00 EMaxC= 1.00D-01 BMatC= 8.90D-06 BMatP= 1.21D-04
 IDIUse=3 WtCom= 9.96D-01 WtEn= 3.87D-03
 Coeff-Com:  0.948D-03-0.168D-02 0.473D-02-0.139D-01-0.218D+00 0.123D+01
 Coeff-En:   0.000D+00 0.000D+00 0.000D+00 0.000D+00 0.000D+00 0.100D+01
 Coeff:      0.945D-03-0.167D-02 0.471D-02-0.138D-01-0.217D+00 0.123D+01
 Gap=     0.326 Goal=   None    Shift=    0.000
 RMSDP=1.22D-05 MaxDP=3.89D-04 DE=-9.91D-05 OVMax= 9.35D-04

 Cycle   7  Pass 1  IDiag  1:
 RMSU=  2.88D-06    CP:  9.81D-01  5.65D-01  1.01D+00  9.31D-01  1.11D+00
                    CP:  1.43D+00
 CoulSu:  requested number of processors reduced to:  21 ShMem   1 Linda.
 E= -364.734377725675     Delta-E=       -0.000007944446 Rises=F Damp=F
 DIIS: error= 4.60D-05 at cycle   7 NSaved=   7.
 NSaved= 7 IEnMin= 7 EnMin= -364.734377725675     IErMin= 7 ErrMin= 4.60D-05
 ErrMax= 4.60D-05  0.00D+00 EMaxC= 1.00D-01 BMatC= 1.13D-07 BMatP= 8.90D-06
 IDIUse=1 WtCom= 1.00D+00 WtEn= 0.00D+00
 Coeff-Com:  0.670D-05 0.835D-04 0.403D-03 0.343D-02-0.397D-01-0.206D-01
 Coeff-Com:  0.106D+01
 Coeff:      0.670D-05 0.835D-04 0.403D-03 0.343D-02-0.397D-01-0.206D-01
 Coeff:      0.106D+01
 Gap=     0.326 Goal=   None    Shift=    0.000
 RMSDP=1.83D-06 MaxDP=6.23D-05 DE=-7.94D-06 OVMax= 1.16D-04

 Cycle   8  Pass 1  IDiag  1:
 RMSU=  5.44D-07    CP:  9.81D-01  5.64D-01  1.01D+00  9.28D-01  1.10D+00
                    CP:  1.49D+00  1.10D+00
 CoulSu:  requested number of processors reduced to:  21 ShMem   1 Linda.
 E= -364.734377829184     Delta-E=       -0.000000103509 Rises=F Damp=F
 DIIS: error= 3.06D-06 at cycle   8 NSaved=   8.
 NSaved= 8 IEnMin= 8 EnMin= -364.734377829184     IErMin= 8 ErrMin= 3.06D-06
 ErrMax= 3.06D-06  0.00D+00 EMaxC= 1.00D-01 BMatC= 4.59D-10 BMatP= 1.13D-07
 IDIUse=1 WtCom= 1.00D+00 WtEn= 0.00D+00
 Coeff-Com:  0.326D-05 0.914D-05 0.279D-05 0.180D-02 0.395D-02-0.498D-01
 Coeff-Com:  0.161D+00 0.883D+00
 Coeff:      0.326D-05 0.914D-05 0.279D-05 0.180D-02 0.395D-02-0.498D-01
 Coeff:      0.161D+00 0.883D+00
 Gap=     0.326 Goal=   None    Shift=    0.000
 RMSDP=1.73D-07 MaxDP=4.47D-06 DE=-1.04D-07 OVMax= 7.82D-06

 Cycle   9  Pass 1  IDiag  1:
 RMSU=  8.46D-08    CP:  9.81D-01  5.64D-01  1.01D+00  9.28D-01  1.10D+00
                    CP:  1.49D+00  1.11D+00  1.17D+00
 CoulSu:  requested number of processors reduced to:  21 ShMem   1 Linda.
 E= -364.734377829597     Delta-E=       -0.000000000413 Rises=F Damp=F
 DIIS: error= 3.07D-07 at cycle   9 NSaved=   9.
 NSaved= 9 IEnMin= 9 EnMin= -364.734377829597     IErMin= 9 ErrMin= 3.07D-07
 ErrMax= 3.07D-07  0.00D+00 EMaxC= 1.00D-01 BMatC= 8.36D-12 BMatP= 4.59D-10
 IDIUse=1 WtCom= 1.00D+00 WtEn= 0.00D+00
 Coeff-Com:  0.208D-06-0.110D-05-0.399D-05-0.122D-03 0.144D-02-0.278D-03
 Coeff-Com: -0.270D-01-0.857D-02 0.103D+01
 Coeff:      0.208D-06-0.110D-05-0.399D-05-0.122D-03 0.144D-02-0.278D-03
 Coeff:     -0.270D-01-0.857D-02 0.103D+01
 Gap=     0.326 Goal=   None    Shift=    0.000
 RMSDP=4.37D-08 MaxDP=1.08D-06 DE=-4.13D-10 OVMax= 1.86D-06

 Cycle  10  Pass 1  IDiag  1:
 RMSU=  1.80D-08    CP:  9.81D-01  5.64D-01  1.01D+00  9.28D-01  1.10D+00
                    CP:  1.48D+00  1.11D+00  1.21D+00  1.18D+00
 CoulSu:  requested number of processors reduced to:  21 ShMem   1 Linda.
 E= -364.734377829613     Delta-E=       -0.000000000016 Rises=F Damp=F
 DIIS: error= 7.56D-08 at cycle  10 NSaved=  10.
 NSaved=10 IEnMin=10 EnMin= -364.734377829613     IErMin=10 ErrMin= 7.56D-08
 ErrMax= 7.56D-08  0.00D+00 EMaxC= 1.00D-01 BMatC= 6.98D-13 BMatP= 8.36D-12
 IDIUse=1 WtCom= 1.00D+00 WtEn= 0.00D+00
 Coeff-Com: -0.498D-07 0.443D-07-0.138D-06-0.415D-04-0.107D-03 0.135D-02
 Coeff-Com: -0.596D-02-0.290D-01 0.153D+00 0.881D+00
 Coeff:     -0.498D-07 0.443D-07-0.138D-06-0.415D-04-0.107D-03 0.135D-02
 Coeff:     -0.596D-02-0.290D-01 0.153D+00 0.881D+00
 Gap=     0.326 Goal=   None    Shift=    0.000
 RMSDP=6.46D-09 MaxDP=2.92D-07 DE=-1.58D-11 OVMax= 2.78D-07

 SCF Done:  E(RM062X) =  -364.734377830     A.U. after   10 cycles
            NFock= 10  Conv=0.65D-08     -V/T= 2.0022
 KE= 3.639310200298D+02 PE=-9.467644235357D+02 EE= 1.790309579606D+02
 Leave Link  502 at Sat Apr 17 20:54:54 2021, MaxMem=   104857600 cpu:            2699.9 elap:              60.7
 (Enter /s/ls4/users/knvvv/bin/g16sse/l601.exe)
 Copying SCF densities to generalized density rwf, IOpCl= 0 IROHF=0.

 **********************************************************************

            Population analysis using the SCF density.

 **********************************************************************

 Orbital symmetries:
       Occupied  (SG) (SG) (SG) (PI) (PI) (SG) (SG) (SG) (PI) (PI)
                 (SG)
       Virtual   (PI) (PI) (SG) (SG) (SG) (PI) (PI) (DLTA) (DLTA)
                 (PI) (PI) (SG) (SG) (PI) (PI) (DLTA) (DLTA) (SG)
                 (SG) (PI) (PI) (DLTA) (DLTA) (PI) (PI) (SG) (SG)
                 (PI) (PI) (PHI) (PHI) (SG) (DLTA) (DLTA) (PI)
                 (PI) (SG) (PI) (PI) (DLTA) (DLTA) (SG) (SG) (PI)
                 (PI) (SG) (SG) (DLTA) (DLTA) (PI) (PI) (SG) (PI)
                 (PI) (DLTA) (DLTA) (PI) (PI) (SG) (PHI) (PHI)
                 (?A) (?A) (PHI) (PHI) (DLTA) (DLTA) (DLTA) (DLTA)
                 (SG) (PI) (PI) (SG) (PI) (PI) (SG) (PI) (PI) (PHI)
                 (PHI) (SG) (DLTA) (DLTA) (SG) (PI) (PI) (DLTA)
                 (DLTA) (SG) (PI) (PI) (SG) (SG) (PI) (PI) (SG)
                 (DLTA) (DLTA) (PI) (PI) (SG) (PHI) (PHI) (?A)
                 (?A) (DLTA) (DLTA) (SG) (PI) (PI) (PHI) (PHI)
                 (DLTA) (DLTA) (PI) (PI) (SG) (PI) (PI) (DLTA)
                 (DLTA) (PI) (PI) (SG) (SG) (SG) (SG) (SG) (SG)
                 (SG) (SG)
 The electronic state is 1-SG.
 Alpha  occ. eigenvalues --  -67.04641 -19.60903  -5.58577  -3.89540  -3.89540
 Alpha  occ. eigenvalues --   -3.89147  -1.05630  -0.51225  -0.39994  -0.39994
 Alpha  occ. eigenvalues --   -0.37114
 Alpha virt. eigenvalues --   -0.04538  -0.04538   0.01561   0.02478   0.07323
 Alpha virt. eigenvalues --    0.07448   0.07448   0.07474   0.07474   0.09601
 Alpha virt. eigenvalues --    0.09601   0.12654   0.19119   0.20022   0.20022
 Alpha virt. eigenvalues --    0.24916   0.24917   0.25453   0.27137   0.32367
 Alpha virt. eigenvalues --    0.32367   0.40422   0.40422   0.44301   0.44301
 Alpha virt. eigenvalues --    0.44520   0.50277   0.56017   0.56017   0.65050
 Alpha virt. eigenvalues --    0.65050   0.66575   0.69742   0.69746   0.71714
 Alpha virt. eigenvalues --    0.71714   0.73078   0.77603   0.77603   0.77759
 Alpha virt. eigenvalues --    0.77761   0.86954   0.98950   1.01519   1.01519
 Alpha virt. eigenvalues --    1.18581   1.29345   1.34878   1.34878   1.52465
 Alpha virt. eigenvalues --    1.52465   1.63406   1.73308   1.73308   1.73624
 Alpha virt. eigenvalues --    1.73625   1.75180   1.75180   1.82656   1.94093
 Alpha virt. eigenvalues --    1.94093   1.95715   1.95717   2.00008   2.00008
 Alpha virt. eigenvalues --    2.07055   2.07064   2.16100   2.16100   2.17287
 Alpha virt. eigenvalues --    2.21324   2.21324   2.27869   2.56383   2.56383
 Alpha virt. eigenvalues --    2.69256   2.92286   2.92286   3.25611   3.25611
 Alpha virt. eigenvalues --    3.38822   3.69367   3.69367   3.75433   4.08185
 Alpha virt. eigenvalues --    4.08185   4.10530   4.10530   4.17923   4.55411
 Alpha virt. eigenvalues --    4.55411   4.70799   5.05468   5.25650   5.25650
 Alpha virt. eigenvalues --    5.55039   5.69702   5.69706   5.89732   5.89732
 Alpha virt. eigenvalues --    7.25318   8.81071   8.81071   8.81099   8.81102
 Alpha virt. eigenvalues --    8.88769   8.88769   8.97589   9.03980   9.03980
 Alpha virt. eigenvalues --   10.85532  10.85532  11.08328  11.08329  11.33509
 Alpha virt. eigenvalues --   11.33509  11.52296  11.56874  11.56874  12.01573
 Alpha virt. eigenvalues --   12.01574  12.20124  12.20124  12.26240  12.71755
 Alpha virt. eigenvalues --   13.64859  16.19836  47.79743  57.77109 250.83390
 Alpha virt. eigenvalues --  314.66948
          Condensed to atoms (all electrons):
               1          2
     1  Si  12.930613   0.558136
     2  O    0.558136   7.953115
 Mulliken charges:
               1
     1  Si   0.511251
     2  O   -0.511251
 Sum of Mulliken charges =  -0.00000
 Mulliken charges with hydrogens summed into heavy atoms:
               1
     1  Si   0.511251
     2  O   -0.511251
 Electronic spatial extent (au):  <R**2>=             81.1778
 Charge=             -0.0000 electrons
 Dipole moment (field-independent basis, Debye):
    X=              0.0000    Y=              0.0000    Z=              3.4547  Tot=              3.4547
 Quadrupole moment (field-independent basis, Debye-Ang):
   XX=            -16.2844   YY=            -16.2844   ZZ=            -20.3424
   XY=             -0.0000   XZ=              0.0000   YZ=             -0.0000
 Traceless Quadrupole moment (field-independent basis, Debye-Ang):
   XX=              1.3527   YY=              1.3527   ZZ=             -2.7054
   XY=             -0.0000   XZ=              0.0000   YZ=             -0.0000
 Octapole moment (field-independent basis, Debye-Ang**2):
  XXX=              0.0000  YYY=             -0.0000  ZZZ=             -1.6163  XYY=              0.0000
  XXY=              0.0000  XXZ=             -0.0005  XZZ=              0.0000  YZZ=              0.0000
  YYZ=             -0.0005  XYZ=             -0.0000
 Hexadecapole moment (field-independent basis, Debye-Ang**3):
 XXXX=            -21.1971 YYYY=            -21.1971 ZZZZ=            -87.3237 XXXY=             -0.0000
 XXXZ=              0.0000 YYYX=             -0.0000 YYYZ=             -0.0000 ZZZX=              0.0000
 ZZZY=             -0.0000 XXYY=             -7.0658 XXZZ=            -17.3068 YYZZ=            -17.3068
 XXYZ=              0.0000 YYXZ=              0.0000 ZZXY=             -0.0000
 N-N= 3.906806771571D+01 E-N=-9.467644201431D+02  KE= 3.639310200298D+02
 PrsmSu:  requested number of processors reduced to:  21 ShMem   1 Linda.
 No NMR shielding tensors so no spin-rotation constants.
 Leave Link  601 at Sat Apr 17 20:54:56 2021, MaxMem=   104857600 cpu:              95.1 elap:               2.2
 (Enter /s/ls4/users/knvvv/bin/g16sse/l801.exe)
 DoSCS=F DFT=T ScalE2(SS,OS)=  1.000000  1.000000
 Range of M.O.s used for correlation:     1   142
 NBasis=   142 NAE=    11 NBE=    11 NFC=     0 NFV=     0
 NROrb=    142 NOA=    11 NOB=    11 NVA=   131 NVB=   131

 **** Warning!!: The largest alpha MO coefficient is  0.26714422D+02

 Leave Link  801 at Sat Apr 17 20:54:56 2021, MaxMem=   104857600 cpu:               3.1 elap:               0.1
 (Enter /s/ls4/users/knvvv/bin/g16sse/l914.exe)
 RHF ground state
 Doing stability rather than CIS.
 Two-electron integrals replicated using symmetry.
 MDV=   104857600 DFT=T DoStab=T Mixed=T DoRPA=F DoScal=F NonHer=F
 Making orbital integer symmetry assigments:
 Orbital symmetries:
       Occupied  (SG) (SG) (SG) (PI) (PI) (SG) (SG) (SG) (PI) (PI)
                 (SG)
       Virtual   (PI) (PI) (SG) (SG) (SG) (PI) (PI) (DLTA) (DLTA)
                 (PI) (PI) (SG) (SG) (PI) (PI) (DLTA) (DLTA) (SG)
                 (SG) (PI) (PI) (DLTA) (DLTA) (PI) (PI) (SG) (SG)
                 (PI) (PI) (PHI) (PHI) (SG) (DLTA) (DLTA) (PI)
                 (PI) (SG) (PI) (PI) (DLTA) (DLTA) (SG) (SG) (PI)
                 (PI) (SG) (SG) (DLTA) (DLTA) (PI) (PI) (SG) (PI)
                 (PI) (DLTA) (DLTA) (PI) (PI) (SG) (PHI) (PHI)
                 (?A) (?A) (PHI) (PHI) (DLTA) (DLTA) (DLTA) (DLTA)
                 (SG) (PI) (PI) (SG) (PI) (PI) (SG) (PI) (PI) (PHI)
                 (PHI) (SG) (DLTA) (DLTA) (SG) (PI) (PI) (DLTA)
                 (DLTA) (SG) (PI) (PI) (SG) (SG) (PI) (PI) (SG)
                 (DLTA) (DLTA) (PI) (PI) (SG) (PHI) (PHI) (?A)
                 (?A) (DLTA) (DLTA) (SG) (PI) (PI) (PHI) (PHI)
                 (DLTA) (DLTA) (PI) (PI) (SG) (PI) (PI) (DLTA)
                 (DLTA) (PI) (PI) (SG) (SG) (SG) (SG) (SG) (SG)
                 (SG) (SG)
    24 initial guesses have been made.
 Convergence on wavefunction:    0.001000000000000
 Davidson Disk Diagonalization:  ConvIn= 1.00D-03 SkipCon=T Conv= 1.00D-03.
 Max sub-space:  2000 roots to seek:    24 dimension of matrix:         2882
 Iteration     1 Dimension    24 NMult     0 NNew     24
 Estimated number of processors is:   20
 CISAX will form     1 AO SS matrices at one time.
 NMat=     1 NSing=     1 JSym2X= 2.
 FoFJK:  IHMeth= 1 ICntrl=       0 DoSepK=F KAlg= 0 I1Cent=           0 FoldK=F
 IRaf= 990000000 NMat=       1 IRICut=       1 DoRegI=T DoRafI=F ISym2E= 2 IDoP0=0 IntGTp=1.
 FoFCou: FMM=F IPFlag=           0 FMFlag=      100000 FMFlg1=           0
         NFxFlg=           0 DoJE=F BraDBF=F KetDBF=F FulRan=T
         wScrn=  0.000000 ICntrl=         0 IOpCl=  0 I1Cent=           0 NGrid=           0
         NMat0=    1 NMatS0=      1 NMatT0=    0 NMatD0=    1 NMtDS0=    0 NMtDT0=    0
 Integrals replicated using symmetry in FoFCou.
 CoulSu:  requested number of processors reduced to:  21 ShMem   1 Linda.
 NMat=     1 NSing=     1 JSym2X= 2.
 CoulSu:  requested number of processors reduced to:  21 ShMem   1 Linda.
 NMat=     1 NSing=     1 JSym2X= 2.
 CoulSu:  requested number of processors reduced to:  21 ShMem   1 Linda.
 NMat=     1 NSing=     1 JSym2X= 2.
 CoulSu:  requested number of processors reduced to:  21 ShMem   1 Linda.
 NMat=     1 NSing=     1 JSym2X= 2.
 CoulSu:  requested number of processors reduced to:  21 ShMem   1 Linda.
 NMat=     1 NSing=     1 JSym2X= 2.
 CoulSu:  requested number of processors reduced to:  21 ShMem   1 Linda.
 NMat=     1 NSing=     1 JSym2X= 2.
 CoulSu:  requested number of processors reduced to:  21 ShMem   1 Linda.
 NMat=     1 NSing=     1 JSym2X= 2.
 CoulSu:  requested number of processors reduced to:  21 ShMem   1 Linda.
 NMat=     1 NSing=     1 JSym2X= 2.
 CoulSu:  requested number of processors reduced to:  21 ShMem   1 Linda.
 NMat=     1 NSing=     1 JSym2X= 2.
 CoulSu:  requested number of processors reduced to:  21 ShMem   1 Linda.
 NMat=     1 NSing=     1 JSym2X= 2.
 CoulSu:  requested number of processors reduced to:  21 ShMem   1 Linda.
 NMat=     1 NSing=     1 JSym2X= 2.
 CoulSu:  requested number of processors reduced to:  21 ShMem   1 Linda.
 NMat=     1 NSing=     0 JSym2X= 2.
 CoulSu:  requested number of processors reduced to:  21 ShMem   1 Linda.
 NMat=     1 NSing=     0 JSym2X= 2.
 CoulSu:  requested number of processors reduced to:  21 ShMem   1 Linda.
 NMat=     1 NSing=     0 JSym2X= 2.
 CoulSu:  requested number of processors reduced to:  21 ShMem   1 Linda.
 NMat=     1 NSing=     0 JSym2X= 2.
 CoulSu:  requested number of processors reduced to:  21 ShMem   1 Linda.
 NMat=     1 NSing=     0 JSym2X= 2.
 CoulSu:  requested number of processors reduced to:  21 ShMem   1 Linda.
 NMat=     1 NSing=     0 JSym2X= 2.
 CoulSu:  requested number of processors reduced to:  21 ShMem   1 Linda.
 NMat=     1 NSing=     0 JSym2X= 2.
 CoulSu:  requested number of processors reduced to:  21 ShMem   1 Linda.
 NMat=     1 NSing=     0 JSym2X= 2.
 CoulSu:  requested number of processors reduced to:  21 ShMem   1 Linda.
 NMat=     1 NSing=     0 JSym2X= 2.
 CoulSu:  requested number of processors reduced to:  21 ShMem   1 Linda.
 NMat=     1 NSing=     0 JSym2X= 2.
 CoulSu:  requested number of processors reduced to:  21 ShMem   1 Linda.
 NMat=     1 NSing=     0 JSym2X= 2.
 CoulSu:  requested number of processors reduced to:  21 ShMem   1 Linda.
 NMat=     1 NSing=     0 JSym2X= 2.
 CoulSu:  requested number of processors reduced to:  21 ShMem   1 Linda.
 New state      1 was old state     12
 Excitation Energies [eV] at current iteration:
 Root      1 :     4.243878421688970
 Root      2 :     4.417812552786566
 Root      3 :     4.417812552789147
 Root      4 :     4.775668302200502
 Root      5 :     4.775744844351045
 Root      6 :     5.584774245705053
 Root      7 :     5.584794457221133
 Root      8 :     6.264327593893348
 Root      9 :     6.264327593916978
 Root     10 :     7.299595223921633
 Root     11 :     7.299595223923899
 Root     12 :     7.957429314586316
 Root     13 :     8.588069802949649
 Root     14 :     8.631336698565958
 Root     15 :     8.650745659532001
 Root     16 :     8.650745659535302
 Root     17 :     9.036049123430692
 Root     18 :     9.130016492349810
 Root     19 :     9.130016492359255
 Root     20 :     9.366060494305312
 Root     21 :     9.366060494316612
 Root     22 :     9.556267296992466
 Root     23 :     9.556267296994497
 Root     24 :    16.157591755107840
 Iteration     2 Dimension    48 NMult    24 NNew     24
 Estimated number of processors is:   20
 CISAX will form     1 AO SS matrices at one time.
 NMat=     1 NSing=     1 JSym2X= 2.
 CoulSu:  requested number of processors reduced to:  21 ShMem   1 Linda.
 NMat=     1 NSing=     1 JSym2X= 2.
 CoulSu:  requested number of processors reduced to:  21 ShMem   1 Linda.
 NMat=     1 NSing=     1 JSym2X= 2.
 CoulSu:  requested number of processors reduced to:  21 ShMem   1 Linda.
 NMat=     1 NSing=     1 JSym2X= 2.
 CoulSu:  requested number of processors reduced to:  21 ShMem   1 Linda.
 NMat=     1 NSing=     1 JSym2X= 2.
 CoulSu:  requested number of processors reduced to:  21 ShMem   1 Linda.
 NMat=     1 NSing=     1 JSym2X= 2.
 CoulSu:  requested number of processors reduced to:  21 ShMem   1 Linda.
 NMat=     1 NSing=     1 JSym2X= 2.
 CoulSu:  requested number of processors reduced to:  21 ShMem   1 Linda.
 NMat=     1 NSing=     1 JSym2X= 2.
 CoulSu:  requested number of processors reduced to:  21 ShMem   1 Linda.
 NMat=     1 NSing=     1 JSym2X= 2.
 CoulSu:  requested number of processors reduced to:  21 ShMem   1 Linda.
 NMat=     1 NSing=     1 JSym2X= 2.
 CoulSu:  requested number of processors reduced to:  21 ShMem   1 Linda.
 NMat=     1 NSing=     1 JSym2X= 2.
 CoulSu:  requested number of processors reduced to:  21 ShMem   1 Linda.
 NMat=     1 NSing=     1 JSym2X= 2.
 CoulSu:  requested number of processors reduced to:  21 ShMem   1 Linda.
 NMat=     1 NSing=     0 JSym2X= 2.
 CoulSu:  requested number of processors reduced to:  21 ShMem   1 Linda.
 NMat=     1 NSing=     0 JSym2X= 2.
 CoulSu:  requested number of processors reduced to:  21 ShMem   1 Linda.
 NMat=     1 NSing=     0 JSym2X= 2.
 CoulSu:  requested number of processors reduced to:  21 ShMem   1 Linda.
 NMat=     1 NSing=     0 JSym2X= 2.
 CoulSu:  requested number of processors reduced to:  21 ShMem   1 Linda.
 NMat=     1 NSing=     0 JSym2X= 2.
 CoulSu:  requested number of processors reduced to:  21 ShMem   1 Linda.
 NMat=     1 NSing=     0 JSym2X= 2.
 CoulSu:  requested number of processors reduced to:  21 ShMem   1 Linda.
 NMat=     1 NSing=     0 JSym2X= 2.
 CoulSu:  requested number of processors reduced to:  21 ShMem   1 Linda.
 NMat=     1 NSing=     0 JSym2X= 2.
 CoulSu:  requested number of processors reduced to:  21 ShMem   1 Linda.
 NMat=     1 NSing=     0 JSym2X= 2.
 CoulSu:  requested number of processors reduced to:  21 ShMem   1 Linda.
 NMat=     1 NSing=     0 JSym2X= 2.
 CoulSu:  requested number of processors reduced to:  21 ShMem   1 Linda.
 NMat=     1 NSing=     0 JSym2X= 2.
 CoulSu:  requested number of processors reduced to:  21 ShMem   1 Linda.
 NMat=     1 NSing=     0 JSym2X= 2.
 CoulSu:  requested number of processors reduced to:  21 ShMem   1 Linda.
 Root      1 not converged, maximum delta is    0.102257597756233
 Excitation Energies [eV] at current iteration:
 Root      1 :     2.801989729247687   Change is   -1.441888692441283
 Root      2 :     3.765752723213021   Change is   -0.652059829573546
 Root      3 :     3.765752723213800   Change is   -0.652059829575347
 Root      4 :     3.859444575631324   Change is   -0.916223726569178
 Root      5 :     3.859616480435422   Change is   -0.916128363915623
 Root      6 :     5.156190864660315   Change is   -0.428583381044739
 Root      7 :     5.156236677265389   Change is   -0.428557779955743
 Root      8 :     6.111865651623977   Change is   -0.152461942293001
 Root      9 :     6.111865651792100   Change is   -0.152461942101248
 Root     10 :     6.130075376816780   Change is   -1.169519847107120
 Root     11 :     6.130075376817052   Change is   -1.169519847104582
 Root     12 :     7.056082393040522   Change is   -0.901346921545794
 Root     13 :     7.568415714900533   Change is   -1.082329944634768
 Root     14 :     7.568415714904267   Change is   -1.082329944627735
 Root     15 :     7.983187763618890   Change is   -0.604882039330760
 Root     16 :     8.406028565348814   Change is   -0.225308133217143
 Root     17 :     8.700477083267925   Change is   -0.429539409081885
 Root     18 :     8.700477083269176   Change is   -0.429539409090079
 Root     19 :     8.816680304281640   Change is   -0.219368819149052
 Root     20 :     9.006796565947319   Change is   -0.359263928357993
 Root     21 :     9.006796565957247   Change is   -0.359263928359364
 Root     22 :     9.322633319491519   Change is   -0.233633977500948
 Root     23 :     9.322633319497749   Change is   -0.233633977496749
 Root     24 :    11.424259745352390   Change is   -4.733332009755442
 Iteration     3 Dimension    54 NMult    48 NNew      6
 Estimated number of processors is:   20
 CISAX will form     1 AO SS matrices at one time.
 NMat=     1 NSing=     1 JSym2X= 2.
 CoulSu:  requested number of processors reduced to:  21 ShMem   1 Linda.
 NMat=     1 NSing=     1 JSym2X= 2.
 CoulSu:  requested number of processors reduced to:  21 ShMem   1 Linda.
 NMat=     1 NSing=     1 JSym2X= 2.
 CoulSu:  requested number of processors reduced to:  21 ShMem   1 Linda.
 NMat=     1 NSing=     0 JSym2X= 2.
 CoulSu:  requested number of processors reduced to:  21 ShMem   1 Linda.
 NMat=     1 NSing=     0 JSym2X= 2.
 CoulSu:  requested number of processors reduced to:  21 ShMem   1 Linda.
 NMat=     1 NSing=     0 JSym2X= 2.
 CoulSu:  requested number of processors reduced to:  21 ShMem   1 Linda.
 Root      1 not converged, maximum delta is    0.012151599827700
 Excitation Energies [eV] at current iteration:
 Root      1 :     2.755731540338513   Change is   -0.046258188909174
 Root      2 :     3.747420809936051   Change is   -0.018331913276970
 Root      3 :     3.747420809936606   Change is   -0.018331913277193
 Root      4 :     5.150569512488752   Change is   -0.005621352171563
 Root      5 :     5.150615673699171   Change is   -0.005621003566218
 Root      6 :     6.111656150202669   Change is   -0.000209501589431
 Iteration     4 Dimension    60 NMult    54 NNew      6
 Estimated number of processors is:   20
 CISAX will form     1 AO SS matrices at one time.
 NMat=     1 NSing=     1 JSym2X= 2.
 CoulSu:  requested number of processors reduced to:  21 ShMem   1 Linda.
 NMat=     1 NSing=     1 JSym2X= 2.
 CoulSu:  requested number of processors reduced to:  21 ShMem   1 Linda.
 NMat=     1 NSing=     1 JSym2X= 2.
 CoulSu:  requested number of processors reduced to:  21 ShMem   1 Linda.
 NMat=     1 NSing=     0 JSym2X= 2.
 CoulSu:  requested number of processors reduced to:  21 ShMem   1 Linda.
 NMat=     1 NSing=     0 JSym2X= 2.
 CoulSu:  requested number of processors reduced to:  21 ShMem   1 Linda.
 NMat=     1 NSing=     0 JSym2X= 2.
 CoulSu:  requested number of processors reduced to:  21 ShMem   1 Linda.
 DSYEVD-2 returned Info=         121 IAlg= 4 N=    60 NDim=    60 NE2=     1614052 trying  DSYEV.
 Root      1 not converged, maximum delta is    0.002076591507559
 Excitation Energies [eV] at current iteration:
 Root      1 :     2.754705467281596   Change is   -0.001026073056917
 Root      2 :     3.745789187230204   Change is   -0.001631622705846
 Root      3 :     3.745789187230824   Change is   -0.001631622705783
 Root      4 :     5.149334830364242   Change is   -0.001234682124510
 Root      5 :     5.149380812080663   Change is   -0.001234861618508
 Root      6 :     6.111556881846727   Change is   -0.000099268355942
 Iteration     5 Dimension    66 NMult    60 NNew      6
 Estimated number of processors is:   20
 CISAX will form     1 AO SS matrices at one time.
 NMat=     1 NSing=     1 JSym2X= 2.
 CoulSu:  requested number of processors reduced to:  21 ShMem   1 Linda.
 NMat=     1 NSing=     1 JSym2X= 2.
 CoulSu:  requested number of processors reduced to:  21 ShMem   1 Linda.
 NMat=     1 NSing=     1 JSym2X= 2.
 CoulSu:  requested number of processors reduced to:  21 ShMem   1 Linda.
 NMat=     1 NSing=     0 JSym2X= 2.
 CoulSu:  requested number of processors reduced to:  21 ShMem   1 Linda.
 NMat=     1 NSing=     0 JSym2X= 2.
 CoulSu:  requested number of processors reduced to:  21 ShMem   1 Linda.
 NMat=     1 NSing=     0 JSym2X= 2.
 CoulSu:  requested number of processors reduced to:  21 ShMem   1 Linda.
 DSYEVD-2 returned Info=         133 IAlg= 4 N=    66 NDim=    66 NE2=     1467320 trying  DSYEV.
 Root      1 has converged.
 Excitation Energies [eV] at current iteration:
 Root      1 :     2.754678942932556   Change is   -0.000026524349039
 Root      2 :     3.745738636752246   Change is   -0.000050550477958
 Root      3 :     3.745738636752858   Change is   -0.000050550477966
 Root      4 :     5.149326839596158   Change is   -0.000007990768083
 Root      5 :     5.149372818899339   Change is   -0.000007993181324
 Root      6 :     6.111554650388724   Change is   -0.000002231458003
 Convergence achieved on expansion vectors.
 ***********************************************************************
 Stability analysis using <AA,BB:AA,BB> singles matrix:
 ***********************************************************************
 1PDM for each excited state written to RWF  633
 Ground to excited state transition densities written to RWF  633

 Eigenvectors of the stability matrix:
 
 Excited state symmetry could not be determined.
 Eigenvector   1:      Triplet-?Sym  Eigenvalue= 0.1012326  <S**2>=2.000
       9 -> 12        -0.17599
       9 -> 13        -0.42232
      10 -> 12         0.42232
      10 -> 13        -0.17599
 The wavefunction is stable under the perturbations considered.
 Leave Link  914 at Sat Apr 17 20:57:22 2021, MaxMem=   104857600 cpu:            5789.7 elap:             145.9
 (Enter /s/ls4/users/knvvv/bin/g16sse/l508.exe)
 The wavefunction is already stable.
 Leave Link  508 at Sat Apr 17 20:57:22 2021, MaxMem=   104857600 cpu:               2.2 elap:               0.1
 (Enter /s/ls4/users/knvvv/bin/g16sse/l601.exe)
 Copying SCF densities to generalized density rwf, IOpCl= 0 IROHF=0.

 **********************************************************************

            Population analysis using the SCF density.

 **********************************************************************

 Orbital symmetries:
       Occupied  (SG) (SG) (SG) (PI) (PI) (SG) (SG) (SG) (PI) (PI)
                 (SG)
       Virtual   (PI) (PI) (SG) (SG) (SG) (PI) (PI) (DLTA) (DLTA)
                 (PI) (PI) (SG) (SG) (PI) (PI) (DLTA) (DLTA) (SG)
                 (SG) (PI) (PI) (DLTA) (DLTA) (PI) (PI) (SG) (SG)
                 (PI) (PI) (PHI) (PHI) (SG) (DLTA) (DLTA) (PI)
                 (PI) (SG) (PI) (PI) (DLTA) (DLTA) (SG) (SG) (PI)
                 (PI) (SG) (SG) (DLTA) (DLTA) (PI) (PI) (SG) (PI)
                 (PI) (DLTA) (DLTA) (PI) (PI) (SG) (PHI) (PHI)
                 (?A) (?A) (PHI) (PHI) (DLTA) (DLTA) (DLTA) (DLTA)
                 (SG) (PI) (PI) (SG) (PI) (PI) (SG) (PI) (PI) (PHI)
                 (PHI) (SG) (DLTA) (DLTA) (SG) (PI) (PI) (DLTA)
                 (DLTA) (SG) (PI) (PI) (SG) (SG) (PI) (PI) (SG)
                 (DLTA) (DLTA) (PI) (PI) (SG) (PHI) (PHI) (?A)
                 (?A) (DLTA) (DLTA) (SG) (PI) (PI) (PHI) (PHI)
                 (DLTA) (DLTA) (PI) (PI) (SG) (PI) (PI) (DLTA)
                 (DLTA) (PI) (PI) (SG) (SG) (SG) (SG) (SG) (SG)
                 (SG) (SG)
 The electronic state is 1-SG.
 Alpha  occ. eigenvalues --  -67.04641 -19.60903  -5.58577  -3.89540  -3.89540
 Alpha  occ. eigenvalues --   -3.89147  -1.05630  -0.51225  -0.39994  -0.39994
 Alpha  occ. eigenvalues --   -0.37114
 Alpha virt. eigenvalues --   -0.04538  -0.04538   0.01561   0.02478   0.07323
 Alpha virt. eigenvalues --    0.07448   0.07448   0.07474   0.07474   0.09601
 Alpha virt. eigenvalues --    0.09601   0.12654   0.19119   0.20022   0.20022
 Alpha virt. eigenvalues --    0.24916   0.24917   0.25453   0.27137   0.32367
 Alpha virt. eigenvalues --    0.32367   0.40422   0.40422   0.44301   0.44301
 Alpha virt. eigenvalues --    0.44520   0.50277   0.56017   0.56017   0.65050
 Alpha virt. eigenvalues --    0.65050   0.66575   0.69742   0.69746   0.71714
 Alpha virt. eigenvalues --    0.71714   0.73078   0.77603   0.77603   0.77759
 Alpha virt. eigenvalues --    0.77761   0.86954   0.98950   1.01519   1.01519
 Alpha virt. eigenvalues --    1.18581   1.29345   1.34878   1.34878   1.52465
 Alpha virt. eigenvalues --    1.52465   1.63406   1.73308   1.73308   1.73624
 Alpha virt. eigenvalues --    1.73625   1.75180   1.75180   1.82656   1.94093
 Alpha virt. eigenvalues --    1.94093   1.95715   1.95717   2.00008   2.00008
 Alpha virt. eigenvalues --    2.07055   2.07064   2.16100   2.16100   2.17287
 Alpha virt. eigenvalues --    2.21324   2.21324   2.27869   2.56383   2.56383
 Alpha virt. eigenvalues --    2.69256   2.92286   2.92286   3.25611   3.25611
 Alpha virt. eigenvalues --    3.38822   3.69367   3.69367   3.75433   4.08185
 Alpha virt. eigenvalues --    4.08185   4.10530   4.10530   4.17923   4.55411
 Alpha virt. eigenvalues --    4.55411   4.70799   5.05468   5.25650   5.25650
 Alpha virt. eigenvalues --    5.55039   5.69702   5.69706   5.89732   5.89732
 Alpha virt. eigenvalues --    7.25318   8.81071   8.81071   8.81099   8.81102
 Alpha virt. eigenvalues --    8.88769   8.88769   8.97589   9.03980   9.03980
 Alpha virt. eigenvalues --   10.85532  10.85532  11.08328  11.08329  11.33509
 Alpha virt. eigenvalues --   11.33509  11.52296  11.56874  11.56874  12.01573
 Alpha virt. eigenvalues --   12.01574  12.20124  12.20124  12.26240  12.71755
 Alpha virt. eigenvalues --   13.64859  16.19836  47.79743  57.77109 250.83390
 Alpha virt. eigenvalues --  314.66948
          Condensed to atoms (all electrons):
               1          2
     1  Si  12.930613   0.558136
     2  O    0.558136   7.953115
 Mulliken charges:
               1
     1  Si   0.511251
     2  O   -0.511251
 Sum of Mulliken charges =  -0.00000
 Mulliken charges with hydrogens summed into heavy atoms:
               1
     1  Si   0.511251
     2  O   -0.511251
 Electronic spatial extent (au):  <R**2>=             81.1778
 Charge=             -0.0000 electrons
 Dipole moment (field-independent basis, Debye):
    X=              0.0000    Y=              0.0000    Z=              3.4547  Tot=              3.4547
 Quadrupole moment (field-independent basis, Debye-Ang):
   XX=            -16.2844   YY=            -16.2844   ZZ=            -20.3424
   XY=             -0.0000   XZ=              0.0000   YZ=             -0.0000
 Traceless Quadrupole moment (field-independent basis, Debye-Ang):
   XX=              1.3527   YY=              1.3527   ZZ=             -2.7054
   XY=             -0.0000   XZ=              0.0000   YZ=             -0.0000
 Octapole moment (field-independent basis, Debye-Ang**2):
  XXX=              0.0000  YYY=             -0.0000  ZZZ=             -1.6163  XYY=              0.0000
  XXY=              0.0000  XXZ=             -0.0005  XZZ=              0.0000  YZZ=              0.0000
  YYZ=             -0.0005  XYZ=             -0.0000
 Hexadecapole moment (field-independent basis, Debye-Ang**3):
 XXXX=            -21.1971 YYYY=            -21.1971 ZZZZ=            -87.3237 XXXY=             -0.0000
 XXXZ=              0.0000 YYYX=             -0.0000 YYYZ=             -0.0000 ZZZX=              0.0000
 ZZZY=             -0.0000 XXYY=             -7.0658 XXZZ=            -17.3068 YYZZ=            -17.3068
 XXYZ=              0.0000 YYXZ=              0.0000 ZZXY=             -0.0000
 N-N= 3.906806771571D+01 E-N=-9.467644201431D+02  KE= 3.639310200298D+02
 PrsmSu:  requested number of processors reduced to:  21 ShMem   1 Linda.
 No NMR shielding tensors so no spin-rotation constants.
 Leave Link  601 at Sat Apr 17 20:57:24 2021, MaxMem=   104857600 cpu:              83.7 elap:               1.9
 (Enter /s/ls4/users/knvvv/bin/g16sse/l9999.exe)

 Test job not archived.
 1\1\GINC-N151\Stability\RM062X\Gen\O1Si1\KNVVV\17-Apr-2021\0\\#P M062X
 /GEN Integral=UltraFineGrid SCF=NoSymm Stable=(RExt, Opt) IOp(1/33=1)\
 \Database calculations.\\0,1\Si,0,0.,0.,0.\O,0,0.,0.,1.51704067\\Versi
 on=ES64L-G16RevA.03\State=1-SG\HF=-364.7343778\RMSD=6.457e-09\Dipole=0
 .,0.,-1.3591992\Quadrupole=1.0056817,1.0056817,-2.0113635,0.,0.,0.\PG=
 C*V [C*(O1Si1)]\\@


 AND ALL THIS SCIENCE I DON'T UNDERSTAND
 IT'S JUST MY JOB FIVE DAYS A WEEK

                           -- ELTON JOHN, "ROCKET MAN"
 Job cpu time:       0 days  2 hours 30 minutes 59.4 seconds.
 Elapsed time:       0 days  0 hours  3 minutes 39.5 seconds.
 File lengths (MBytes):  RWF=     99 Int=      0 D2E=      0 Chk=      4 Scr=      1
 Normal termination of Gaussian 16 at Sat Apr 17 20:57:24 2021.
