 Entering Gaussian System, Link 0=/s/ls4/users/knvvv/bin/g16sse/g16
 Input=data/database/M062X--def2-QZVPPD--245_so2_W4-11.gjf
 Output=data/database/M062X--def2-QZVPPD--245_so2_W4-11.log
 Initial command:
 /s/ls4/users/knvvv/bin/g16sse/l1.exe "/s/ls4/users/knvvv/bin/scratch/Gau-29421.inp" -scrdir="/s/ls4/users/knvvv/bin/scratch/"
 Entering Link 1 = /s/ls4/users/knvvv/bin/g16sse/l1.exe PID=     29422.
  
 Copyright (c) 1988,1990,1992,1993,1995,1998,2003,2009,2016,
            Gaussian, Inc.  All Rights Reserved.
  
 This is part of the Gaussian(R) 16 program.  It is based on
 the Gaussian(R) 09 system (copyright 2009, Gaussian, Inc.),
 the Gaussian(R) 03 system (copyright 2003, Gaussian, Inc.),
 the Gaussian(R) 98 system (copyright 1998, Gaussian, Inc.),
 the Gaussian(R) 94 system (copyright 1995, Gaussian, Inc.),
 the Gaussian 92(TM) system (copyright 1992, Gaussian, Inc.),
 the Gaussian 90(TM) system (copyright 1990, Gaussian, Inc.),
 the Gaussian 88(TM) system (copyright 1988, Gaussian, Inc.),
 the Gaussian 86(TM) system (copyright 1986, Carnegie Mellon
 University), and the Gaussian 82(TM) system (copyright 1983,
 Carnegie Mellon University). Gaussian is a federally registered
 trademark of Gaussian, Inc.
  
 This software contains proprietary and confidential information,
 including trade secrets, belonging to Gaussian, Inc.
  
 This software is provided under written license and may be
 used, copied, transmitted, or stored only in accord with that
 written license.
  
 The following legend is applicable only to US Government
 contracts under FAR:
  
                    RESTRICTED RIGHTS LEGEND
  
 Use, reproduction and disclosure by the US Government is
 subject to restrictions as set forth in subparagraphs (a)
 and (c) of the Commercial Computer Software - Restricted
 Rights clause in FAR 52.227-19.
  
 Gaussian, Inc.
 340 Quinnipiac St., Bldg. 40, Wallingford CT 06492
  
  
 ---------------------------------------------------------------
 Warning -- This program may not be used in any manner that
 competes with the business of Gaussian, Inc. or will provide
 assistance to any competitor of Gaussian, Inc.  The licensee
 of this program is prohibited from giving any competitor of
 Gaussian, Inc. access to this program.  By using this program,
 the user acknowledges that Gaussian, Inc. is engaged in the
 business of creating and licensing software in the field of
 computational chemistry and represents and warrants to the
 licensee that it is not a competitor of Gaussian, Inc. and that
 it will not use this program in any manner prohibited above.
 ---------------------------------------------------------------
  

 Cite this work as:
 Gaussian 16, Revision A.03,
 M. J. Frisch, G. W. Trucks, H. B. Schlegel, G. E. Scuseria, 
 M. A. Robb, J. R. Cheeseman, G. Scalmani, V. Barone, 
 G. A. Petersson, H. Nakatsuji, X. Li, M. Caricato, A. V. Marenich, 
 J. Bloino, B. G. Janesko, R. Gomperts, B. Mennucci, H. P. Hratchian, 
 J. V. Ortiz, A. F. Izmaylov, J. L. Sonnenberg, D. Williams-Young, 
 F. Ding, F. Lipparini, F. Egidi, J. Goings, B. Peng, A. Petrone, 
 T. Henderson, D. Ranasinghe, V. G. Zakrzewski, J. Gao, N. Rega, 
 G. Zheng, W. Liang, M. Hada, M. Ehara, K. Toyota, R. Fukuda, 
 J. Hasegawa, M. Ishida, T. Nakajima, Y. Honda, O. Kitao, H. Nakai, 
 T. Vreven, K. Throssell, J. A. Montgomery, Jr., J. E. Peralta, 
 F. Ogliaro, M. J. Bearpark, J. J. Heyd, E. N. Brothers, K. N. Kudin, 
 V. N. Staroverov, T. A. Keith, R. Kobayashi, J. Normand, 
 K. Raghavachari, A. P. Rendell, J. C. Burant, S. S. Iyengar, 
 J. Tomasi, M. Cossi, J. M. Millam, M. Klene, C. Adamo, R. Cammi, 
 J. W. Ochterski, R. L. Martin, K. Morokuma, O. Farkas, 
 J. B. Foresman, and D. J. Fox, Gaussian, Inc., Wallingford CT, 2016.
 
 ******************************************
 Gaussian 16:  ES64L-G16RevA.03 25-Dec-2016
                17-Apr-2021 
 ******************************************
 %RWF=temp5_40263,70GB
 %nprocshared=48
 Will use up to   48 processors via shared memory.
 Default route: MaxDisk=80GB
 ----------------------------------------------------------------------
 #P M062X/GEN Integral=UltraFineGrid SCF=NoSymm Stable=(RExt, Opt) IOp(
 1/33=1)
 ----------------------------------------------------------------------
 1/33=1,38=1,172=1/1;
 2/12=2,17=6,18=5,40=1/2;
 3/5=7,11=2,25=1,30=1,74=-55,75=-5/1,2,3;
 4/9=2/1;
 5/5=2,38=5/2;
 6/7=2,8=2,9=2,10=2,28=1/1;
 8/6=1,10=90,11=11/1;
 9/8=-3,42=1,46=1/14;
 5/5=2,8=3,17=40,38=5/8(-2);
 6/7=2,8=2,9=2,10=2,28=1/1;
 99/5=1,9=1/99;
 Leave Link    1 at Sat Apr 17 20:57:39 2021, MaxMem=           0 cpu:               8.5 elap:               0.2
 (Enter /s/ls4/users/knvvv/bin/g16sse/l101.exe)
 ONIOM data not found on unit 2.
 ----------------------
 Database calculations.
 ----------------------
 TstMul:  ICh=     0
 TstMul:  Mul=     1
 TstMul:  ICh=     0
 TstMul:  Mul=     1
 Symbolic Z-matrix:
 Charge =  0 Multiplicity = 1
 S                     0.        0.        0. 
 O                     0.        0.        1.43551 
 O                     1.25082   0.       -0.70437 
 
 RdStrC is calling ZToCFu for IStruc=1 NZ=     3.
 PrtBox:  NBox=     1 Levels=  1 BoxLen=    8.00 SMaxX=        4.04
          Shift=            0.000000            0.000000            1.331074
 Box      1 Number                   0 centers from      1 to      3:
 After GenITR:
 ITRead=  0  0  0
 MicOpt= -1 -1 -1
 ITRead=  0  0  0
 MicOpt= -1 -1 -1
 NAtoms=      3 NQM=        3 NQMF=       0 NMMI=      0 NMMIF=      0
                NMic=       0 NMicF=      0.
                    Isotopes and Nuclear Properties:
 (Nuclear quadrupole moments (NQMom) in fm**2, nuclear magnetic moments (NMagM)
  in nuclear magnetons)

  Atom         1           2           3
 IAtWgt=          32          16          16
 AtmWgt=  31.9720718  15.9949146  15.9949146
 NucSpn=           0           0           0
 AtZEff=  -0.0000000  -0.0000000  -0.0000000
 NQMom=    0.0000000   0.0000000   0.0000000
 NMagM=    0.0000000   0.0000000   0.0000000
 AtZNuc=  16.0000000   8.0000000   8.0000000
 No MM parameters found.
 Leave Link  101 at Sat Apr 17 20:57:39 2021, MaxMem=   104857600 cpu:               6.6 elap:               0.2
 (Enter /s/ls4/users/knvvv/bin/g16sse/l202.exe)
                          Input orientation:                          
 ---------------------------------------------------------------------
 Center     Atomic      Atomic             Coordinates (Angstroms)
 Number     Number       Type             X           Y           Z
 ---------------------------------------------------------------------
      1         16           0        0.000000    0.000000    0.000000
      2          8           0        0.000000    0.000000    1.435509
      3          8           0        1.250817    0.000000   -0.704374
 ---------------------------------------------------------------------
                    Distance matrix (angstroms):
                    1          2          3
     1  S    0.000000
     2  O    1.435509   0.000000
     3  O    1.435509   2.478637   0.000000
 Stoichiometry    O2S
 Framework group  C2V[C2(S),SGV(O2)]
 Deg. of freedom     2
 Full point group                 C2V     NOp   4
 Largest Abelian subgroup         C2V     NOp   4
 Largest concise Abelian subgroup C2      NOp   2
                         Standard orientation:                         
 ---------------------------------------------------------------------
 Center     Atomic      Atomic             Coordinates (Angstroms)
 Number     Number       Type             X           Y           Z
 ---------------------------------------------------------------------
      1         16           0       -0.000000    0.000000    0.362207
      2          8           0        0.000000    1.239318   -0.362207
      3          8           0       -0.000000   -1.239318   -0.362207
 ---------------------------------------------------------------------
 Rotational constants (GHZ):          60.2258038          10.2858355           8.7853965
 Leave Link  202 at Sat Apr 17 20:57:40 2021, MaxMem=   104857600 cpu:               7.9 elap:               0.2
 (Enter /s/ls4/users/knvvv/bin/g16sse/l301.exe)
 General basis read from cards:  (5D, 7F)
 Centers:       2      3
 S 8 1.00
     Exponent=  1.1650646908D+05 Coefficients=  4.0383857939D-05
     Exponent=  1.7504349724D+04 Coefficients=  3.1255139004D-04
     Exponent=  3.9934513230D+03 Coefficients=  1.6341473495D-03
     Exponent=  1.1330063186D+03 Coefficients=  6.8283224757D-03
     Exponent=  3.6999569594D+02 Coefficients=  2.4124410221D-02
     Exponent=  1.3362074349D+02 Coefficients=  7.2730206154D-02
     Exponent=  5.2035643649D+01 Coefficients=  1.7934429892D-01
     Exponent=  2.1461939313D+01 Coefficients=  3.3059588895D-01
 S 2 1.00
     Exponent=  8.9835051252D+01 Coefficients=  9.6468652996D-02
     Exponent=  2.6428010844D+01 Coefficients=  9.4117481120D-01
 S 1 1.00
     Exponent=  9.2822824649D+00 Coefficients=  1.0000000000D+00
 S 1 1.00
     Exponent=  4.0947728533D+00 Coefficients=  1.0000000000D+00
 S 1 1.00
     Exponent=  1.3255349078D+00 Coefficients=  1.0000000000D+00
 S 1 1.00
     Exponent=  5.1877230787D-01 Coefficients=  1.0000000000D+00
 S 1 1.00
     Exponent=  1.9772676454D-01 Coefficients=  1.0000000000D+00
 S 1 1.00
     Exponent=  6.9638535104D-02 Coefficients=  1.0000000000D+00
 P 5 1.00
     Exponent=  1.9115255810D+02 Coefficients=  2.5115697705D-03
     Exponent=  4.5233356739D+01 Coefficients=  2.0039240864D-02
     Exponent=  1.4353465922D+01 Coefficients=  9.3609064762D-02
     Exponent=  5.2422371832D+00 Coefficients=  3.0618127124D-01
     Exponent=  2.0792418599D+00 Coefficients=  6.7810501439D-01
 P 1 1.00
     Exponent=  8.4282371424D-01 Coefficients=  1.0000000000D+00
 P 1 1.00
     Exponent=  3.3617694891D-01 Coefficients=  1.0000000000D+00
 P 1 1.00
     Exponent=  1.2863997974D-01 Coefficients=  1.0000000000D+00
 P 1 1.00
     Exponent=  4.3598162776D-02 Coefficients=  1.0000000000D+00
 D 1 1.00
     Exponent=  3.7750000000D+00 Coefficients=  1.0000000000D+00
 D 1 1.00
     Exponent=  1.3000000000D+00 Coefficients=  1.0000000000D+00
 D 1 1.00
     Exponent=  4.4400000000D-01 Coefficients=  1.0000000000D+00
 D 1 1.00
     Exponent=  1.2546378695D-01 Coefficients=  1.0000000000D+00
 F 1 1.00
     Exponent=  2.6660000000D+00 Coefficients=  1.0000000000D+00
 F 1 1.00
     Exponent=  8.5900000000D-01 Coefficients=  1.0000000000D+00
 G 1 1.00
     Exponent=  1.8460000000D+00 Coefficients=  1.0000000000D+00
 ****
 Centers:       1
 S 10 1.00
     Exponent=  1.2734109023D+06 Coefficients=  1.1767088246D-05
     Exponent=  1.9069783007D+05 Coefficients=  9.1478610166D-05
     Exponent=  4.3397885330D+04 Coefficients=  4.8090078640D-04
     Exponent=  1.2291809677D+04 Coefficients=  2.0257193592D-03
     Exponent=  4.0097420824D+03 Coefficients=  7.3190096406D-03
     Exponent=  1.4473531030D+03 Coefficients=  2.3300499900D-02
     Exponent=  5.6430102913D+02 Coefficients=  6.5386213610D-02
     Exponent=  2.3374506243D+02 Coefficients=  1.5614449910D-01
     Exponent=  1.0156402814D+02 Coefficients=  2.9318563787D-01
     Exponent=  4.5805907187D+01 Coefficients=  3.6287914289D-01
 S 3 1.00
     Exponent=  3.9427281503D+02 Coefficients=  1.8753305081D-02
     Exponent=  1.2172249591D+02 Coefficients=  1.6870726663D-01
     Exponent=  4.6754125963D+01 Coefficients=  6.3806830653D-01
 S 1 1.00
     Exponent=  2.0923008254D+01 Coefficients=  1.0000000000D+00
 S 1 1.00
     Exponent=  8.2685567800D+00 Coefficients=  1.0000000000D+00
 S 1 1.00
     Exponent=  3.8629345671D+00 Coefficients=  1.0000000000D+00
 S 1 1.00
     Exponent=  1.7794684781D+00 Coefficients=  1.0000000000D+00
 S 1 1.00
     Exponent=  6.1064260103D-01 Coefficients=  1.0000000000D+00
 S 1 1.00
     Exponent=  2.7412269445D-01 Coefficients=  1.0000000000D+00
 S 1 1.00
     Exponent=  1.1325939107D-01 Coefficients=  1.0000000000D+00
 S 1 1.00
     Exponent=  4.4392624881D-02 Coefficients=  1.0000000000D+00
 P 8 1.00
     Exponent=  2.1898930459D+03 Coefficients=  2.3912552864D-04
     Exponent=  5.1894596592D+02 Coefficients=  2.0772032158D-03
     Exponent=  1.6819560151D+02 Coefficients=  1.1242420571D-02
     Exponent=  6.3745282788D+01 Coefficients=  4.4069933941D-02
     Exponent=  2.6597033077D+01 Coefficients=  1.2918778608D-01
     Exponent=  1.1774251449D+01 Coefficients=  2.6910820167D-01
     Exponent=  5.3534379024D+00 Coefficients=  3.7855928620D-01
     Exponent=  2.4701911802D+00 Coefficients=  2.9692134655D-01
 P 2 1.00
     Exponent=  8.2120288349D+01 Coefficients= -3.9420318847D-02
     Exponent=  4.9523532869D+00 Coefficients=  6.4048403090D-01
 P 1 1.00
     Exponent=  1.0828262029D+00 Coefficients=  1.0000000000D+00
 P 1 1.00
     Exponent=  4.9271277356D-01 Coefficients=  1.0000000000D+00
 P 1 1.00
     Exponent=  2.0483450942D-01 Coefficients=  1.0000000000D+00
 P 1 1.00
     Exponent=  8.0743615716D-02 Coefficients=  1.0000000000D+00
 P 1 1.00
     Exponent=  2.5661157833D-02 Coefficients=  1.0000000000D+00
 D 1 1.00
     Exponent=  4.1590000000D+00 Coefficients=  1.0000000000D+00
 D 1 1.00
     Exponent=  1.0190000000D+00 Coefficients=  1.0000000000D+00
 D 1 1.00
     Exponent=  4.6400000000D-01 Coefficients=  1.0000000000D+00
 D 1 1.00
     Exponent=  1.9400000000D-01 Coefficients=  1.0000000000D+00
 D 1 1.00
     Exponent=  6.7889829366D-02 Coefficients=  1.0000000000D+00
 F 1 1.00
     Exponent=  8.6900000000D-01 Coefficients=  1.0000000000D+00
 F 1 1.00
     Exponent=  3.3500000000D-01 Coefficients=  1.0000000000D+00
 G 1 1.00
     Exponent=  6.8300000000D-01 Coefficients=  1.0000000000D+00
 ****
 Ernie: Thresh=  0.10000D-02 Tol=  0.10000D-05 Strict=F.
 There are    99 symmetry adapted cartesian basis functions of A1  symmetry.
 There are    37 symmetry adapted cartesian basis functions of A2  symmetry.
 There are    48 symmetry adapted cartesian basis functions of B1  symmetry.
 There are    76 symmetry adapted cartesian basis functions of B2  symmetry.
 There are    77 symmetry adapted basis functions of A1  symmetry.
 There are    32 symmetry adapted basis functions of A2  symmetry.
 There are    41 symmetry adapted basis functions of B1  symmetry.
 There are    61 symmetry adapted basis functions of B2  symmetry.
   211 basis functions,   335 primitive gaussians,   260 cartesian basis functions
    16 alpha electrons       16 beta electrons
       nuclear repulsion energy       108.0339910006 Hartrees.
 IExCor= 4336 DFT=T Ex+Corr=M062X ExCW=0 ScaHFX=  0.540000
 ScaDFX=  1.000000  1.000000  1.000000  1.000000 ScalE2=  1.000000  1.000000
 IRadAn=      5 IRanWt=     -1 IRanGd=            0 ICorTp=0 IEmpDi=  4
 NAtoms=    3 NActive=    3 NUniq=    2 SFac= 2.25D+00 NAtFMM=   60 NAOKFM=F Big=F
 Integral buffers will be    131072 words long.
 Raffenetti 2 integral format.
 Two-electron integral symmetry is turned on.
 Leave Link  301 at Sat Apr 17 20:57:40 2021, MaxMem=   104857600 cpu:               6.4 elap:               0.2
 (Enter /s/ls4/users/knvvv/bin/g16sse/l302.exe)
 NPDir=0 NMtPBC=     1 NCelOv=     1 NCel=       1 NClECP=     1 NCelD=      1
         NCelK=      1 NCelE2=     1 NClLst=     1 CellRange=     0.0.
 One-electron integrals computed using PRISM.
 One-electron integral symmetry used in STVInt
 PrsmSu:  requested number of processors reduced to:   4 ShMem   1 Linda.
 PrsmSu:  requested number of processors reduced to:  21 ShMem   1 Linda.
 NBasis=   211 RedAO= T EigKep=  5.90D-05  NBF=    77    32    41    61
 NBsUse=   211 1.00D-06 EigRej= -1.00D+00 NBFU=    77    32    41    61
 Precomputing XC quadrature grid using
 IXCGrd= 4 IRadAn=           5 IRanWt=          -1 IRanGd=           0 AccXCQ= 0.00D+00.
 Generated NRdTot=       0 NPtTot=           0 NUsed=           0 NTot=          32
 NSgBfM=   258   258   258   258   258 MxSgAt=     3 MxSgA2=     3.
 Leave Link  302 at Sat Apr 17 20:57:48 2021, MaxMem=   104857600 cpu:             405.4 elap:               8.7
 (Enter /s/ls4/users/knvvv/bin/g16sse/l303.exe)
 DipDrv:  MaxL=1.
 Leave Link  303 at Sat Apr 17 20:57:50 2021, MaxMem=   104857600 cpu:              55.6 elap:               1.2
 (Enter /s/ls4/users/knvvv/bin/g16sse/l401.exe)
 SCF N**3 symmetry information disabled.
 ExpMin= 2.57D-02 ExpMax= 1.27D+06 ExpMxC= 1.45D+03 IAcc=3 IRadAn=         5 AccDes= 0.00D+00
 Harris functional with IExCor= 1009 and IRadAn=       5 diagonalized for initial guess.
 HarFok:  IExCor= 1009 AccDes= 0.00D+00 IRadAn=         5 IDoV= 1 UseB2=F ITyADJ=14
 ICtDFT=  3500011 ScaDFX=  1.000000  1.000000  1.000000  1.000000
 FoFCou: FMM=F IPFlag=           0 FMFlag=      100000 FMFlg1=           0
         NFxFlg=           0 DoJE=T BraDBF=F KetDBF=T FulRan=T
         wScrn=  0.000000 ICntrl=       500 IOpCl=  0 I1Cent=   200000004 NGrid=           0
         NMat0=    1 NMatS0=      1 NMatT0=    0 NMatD0=    1 NMtDS0=    0 NMtDT0=    0
 Petite list used in FoFCou.
 CoulSu:  requested number of processors reduced to:  21 ShMem   1 Linda.
 CoulSu:  requested number of processors reduced to:  21 ShMem   1 Linda.
 CoulSu:  requested number of processors reduced to:  21 ShMem   1 Linda.
 CoulSu:  requested number of processors reduced to:  21 ShMem   1 Linda.
 Harris En= -548.449052214777    
 JPrj=0 DoOrth=F DoCkMO=F.
 Initial guess orbital symmetries:
       Occupied  (A1) (A1) (B2) (A1) (B2) (A1) (B1) (A1) (B2) (A1)
                 (B2) (A1) (B1) (A2) (B2) (A1)
       Virtual   (B1) (A1) (B2) (A1) (B1) (A1) (B2) (A1) (B2) (A2)
                 (B1) (A1) (B2) (B1) (A1) (A1) (B2) (A2) (A1) (B2)
                 (B1) (A1) (B2) (B1) (A1) (A1) (A2) (A1) (B1) (B1)
                 (B2) (B2) (A2) (A2) (A1) (B2) (A1) (A1) (B1) (B2)
                 (A2) (A1) (B2) (A1) (B2) (B2) (A1) (B1) (A2) (A1)
                 (B1) (B2) (B1) (A1) (A1) (B2) (A2) (A1) (B1) (B2)
                 (A2) (A1) (B1) (B2) (A1) (A2) (B1) (A1) (B2) (B2)
                 (A1) (B2) (B1) (A2) (A1) (B2) (A1) (B2) (A1) (A1)
                 (B1) (A2) (B2) (B1) (A1) (A2) (A1) (B2) (B1) (A2)
                 (B2) (A1) (B1) (A2) (B2) (A1) (B2) (B1) (A1) (A1)
                 (A1) (B1) (A2) (B1) (B2) (A1) (B1) (B2) (A1) (B2)
                 (A2) (A1) (B2) (A1) (B2) (B1) (A2) (B1) (A2) (B2)
                 (A1) (A1) (B2) (A2) (B1) (B2) (A1) (B2) (A1) (A2)
                 (B1) (B2) (A1) (A1) (B2) (A1) (A1) (A2) (B2) (B1)
                 (A1) (A2) (B2) (B1) (A1) (B2) (A2) (B1) (A1) (B1)
                 (B2) (A1) (A2) (B1) (A1) (B2) (A2) (B2) (A1) (A2)
                 (B2) (B1) (A1) (B2) (B1) (A2) (A1) (B1) (B2) (A1)
                 (B2) (A2) (A1) (A2) (B1) (B2) (A1) (A2) (B1) (B2)
                 (A1) (B2) (A1) (A1) (B2) (A1) (B1) (A1) (B2) (A1)
                 (B2) (A1) (A1) (B2) (A1)
 The electronic state of the initial guess is 1-A1.
 Leave Link  401 at Sat Apr 17 20:57:54 2021, MaxMem=   104857600 cpu:             204.8 elap:               4.5
 (Enter /s/ls4/users/knvvv/bin/g16sse/l502.exe)
 Integral symmetry usage will be decided dynamically.
 Closed shell SCF:
 Using DIIS extrapolation, IDIIS=  1040.
 NGot=   104857600 LenX=   104706223 LenY=   104638182
 Requested convergence on RMS density matrix=1.00D-08 within 128 cycles.
 Requested convergence on MAX density matrix=1.00D-06.
 Requested convergence on             energy=1.00D-06.
 No special actions if energy rises.
 Fock matrices will be formed incrementally for  20 cycles.

 Cycle   1  Pass 1  IDiag  1:
 FoFJK:  IHMeth= 1 ICntrl=       0 DoSepK=F KAlg= 0 I1Cent=           0 FoldK=F
 IRaf= 980000000 NMat=       1 IRICut=       1 DoRegI=T DoRafI=F ISym2E= 1 IDoP0=0 IntGTp=1.
 FoFCou: FMM=F IPFlag=           0 FMFlag=      100000 FMFlg1=           0
         NFxFlg=           0 DoJE=F BraDBF=F KetDBF=F FulRan=T
         wScrn=  0.000000 ICntrl=         0 IOpCl=  0 I1Cent=           0 NGrid=           0
         NMat0=    1 NMatS0=      1 NMatT0=    0 NMatD0=    1 NMtDS0=    0 NMtDT0=    0
 Petite list used in FoFCou.
 CoulSu:  requested number of processors reduced to:  21 ShMem   1 Linda.
 E= -548.474111741136    
 DIIS: error= 4.19D-02 at cycle   1 NSaved=   1.
 NSaved= 1 IEnMin= 1 EnMin= -548.474111741136     IErMin= 1 ErrMin= 4.19D-02
 ErrMax= 4.19D-02  0.00D+00 EMaxC= 1.00D-01 BMatC= 3.81D-01 BMatP= 3.81D-01
 IDIUse=3 WtCom= 5.81D-01 WtEn= 4.19D-01
 Coeff-Com:  0.100D+01
 Coeff-En:   0.100D+01
 Coeff:      0.100D+01
 Gap=     0.291 Goal=   None    Shift=    0.000
 GapD=    0.291 DampG=1.000 DampE=0.500 DampFc=0.5000 IDamp=-1.
 Damping current iteration by 5.00D-01
 RMSDP=2.58D-03 MaxDP=9.29D-02              OVMax= 3.33D-01

 Cycle   2  Pass 1  IDiag  1:
 RMSU=  1.29D-03    CP:  9.99D-01
 CoulSu:  requested number of processors reduced to:  21 ShMem   1 Linda.
 E= -548.524215689369     Delta-E=       -0.050103948233 Rises=F Damp=T
 DIIS: error= 2.57D-02 at cycle   2 NSaved=   2.
 NSaved= 2 IEnMin= 2 EnMin= -548.524215689369     IErMin= 2 ErrMin= 2.57D-02
 ErrMax= 2.57D-02  0.00D+00 EMaxC= 1.00D-01 BMatC= 5.48D-02 BMatP= 3.81D-01
 IDIUse=3 WtCom= 7.43D-01 WtEn= 2.57D-01
 Coeff-Com:  0.128D+00 0.872D+00
 Coeff-En:   0.351D+00 0.649D+00
 Coeff:      0.185D+00 0.815D+00
 Gap=     0.346 Goal=   None    Shift=    0.000
 RMSDP=9.75D-04 MaxDP=7.10D-02 DE=-5.01D-02 OVMax= 2.04D-01

 Cycle   3  Pass 1  IDiag  1:
 RMSU=  9.50D-04    CP:  9.84D-01  9.07D-01
 CoulSu:  requested number of processors reduced to:  21 ShMem   1 Linda.
 E= -548.652753532105     Delta-E=       -0.128537842737 Rises=F Damp=F
 DIIS: error= 4.31D-03 at cycle   3 NSaved=   3.
 NSaved= 3 IEnMin= 3 EnMin= -548.652753532105     IErMin= 3 ErrMin= 4.31D-03
 ErrMax= 4.31D-03  0.00D+00 EMaxC= 1.00D-01 BMatC= 2.04D-03 BMatP= 5.48D-02
 IDIUse=3 WtCom= 9.57D-01 WtEn= 4.31D-02
 Coeff-Com: -0.391D-01 0.109D+00 0.930D+00
 Coeff-En:   0.000D+00 0.000D+00 0.100D+01
 Coeff:     -0.374D-01 0.105D+00 0.933D+00
 Gap=     0.318 Goal=   None    Shift=    0.000
 RMSDP=1.57D-04 MaxDP=6.77D-03 DE=-1.29D-01 OVMax= 2.04D-02

 Cycle   4  Pass 1  IDiag  1:
 RMSU=  1.07D-04    CP:  9.82D-01  9.95D-01  1.01D+00
 CoulSu:  requested number of processors reduced to:  21 ShMem   1 Linda.
 E= -548.654255585165     Delta-E=       -0.001502053060 Rises=F Damp=F
 DIIS: error= 1.58D-03 at cycle   4 NSaved=   4.
 NSaved= 4 IEnMin= 4 EnMin= -548.654255585165     IErMin= 4 ErrMin= 1.58D-03
 ErrMax= 1.58D-03  0.00D+00 EMaxC= 1.00D-01 BMatC= 1.36D-04 BMatP= 2.04D-03
 IDIUse=3 WtCom= 9.84D-01 WtEn= 1.58D-02
 Coeff-Com: -0.506D-04-0.259D-02 0.188D+00 0.815D+00
 Coeff-En:   0.000D+00 0.000D+00 0.000D+00 0.100D+01
 Coeff:     -0.498D-04-0.255D-02 0.185D+00 0.818D+00
 Gap=     0.319 Goal=   None    Shift=    0.000
 RMSDP=3.49D-05 MaxDP=1.87D-03 DE=-1.50D-03 OVMax= 2.95D-03

 Cycle   5  Pass 1  IDiag  1:
 RMSU=  2.51D-05    CP:  9.82D-01  9.92D-01  1.03D+00  1.10D+00
 CoulSu:  requested number of processors reduced to:  21 ShMem   1 Linda.
 E= -548.654353562318     Delta-E=       -0.000097977153 Rises=F Damp=F
 DIIS: error= 1.27D-04 at cycle   5 NSaved=   5.
 NSaved= 5 IEnMin= 5 EnMin= -548.654353562318     IErMin= 5 ErrMin= 1.27D-04
 ErrMax= 1.27D-04  0.00D+00 EMaxC= 1.00D-01 BMatC= 1.91D-06 BMatP= 1.36D-04
 IDIUse=3 WtCom= 9.99D-01 WtEn= 1.27D-03
 Coeff-Com:  0.148D-02-0.339D-02-0.249D-01-0.169D-01 0.104D+01
 Coeff-En:   0.000D+00 0.000D+00 0.000D+00 0.000D+00 0.100D+01
 Coeff:      0.148D-02-0.338D-02-0.248D-01-0.169D-01 0.104D+01
 Gap=     0.320 Goal=   None    Shift=    0.000
 RMSDP=1.25D-05 MaxDP=5.22D-04 DE=-9.80D-05 OVMax= 8.89D-04

 Cycle   6  Pass 1  IDiag  1:
 RMSU=  5.12D-06    CP:  9.82D-01  9.94D-01  1.03D+00  1.17D+00  1.28D+00
 CoulSu:  requested number of processors reduced to:  21 ShMem   1 Linda.
 E= -548.654357724138     Delta-E=       -0.000004161820 Rises=F Damp=F
 DIIS: error= 6.11D-05 at cycle   6 NSaved=   6.
 NSaved= 6 IEnMin= 6 EnMin= -548.654357724138     IErMin= 6 ErrMin= 6.11D-05
 ErrMax= 6.11D-05  0.00D+00 EMaxC= 1.00D-01 BMatC= 2.72D-07 BMatP= 1.91D-06
 IDIUse=1 WtCom= 1.00D+00 WtEn= 0.00D+00
 Coeff-Com:  0.410D-04-0.808D-04-0.190D-01-0.788D-01 0.165D+00 0.933D+00
 Coeff:      0.410D-04-0.808D-04-0.190D-01-0.788D-01 0.165D+00 0.933D+00
 Gap=     0.320 Goal=   None    Shift=    0.000
 RMSDP=2.68D-06 MaxDP=8.19D-05 DE=-4.16D-06 OVMax= 3.52D-04

 Cycle   7  Pass 1  IDiag  1:
 RMSU=  1.77D-06    CP:  9.82D-01  9.95D-01  1.03D+00  1.18D+00  1.33D+00
                    CP:  1.05D+00
 CoulSu:  requested number of processors reduced to:  21 ShMem   1 Linda.
 E= -548.654358158097     Delta-E=       -0.000000433960 Rises=F Damp=F
 DIIS: error= 9.26D-06 at cycle   7 NSaved=   7.
 NSaved= 7 IEnMin= 7 EnMin= -548.654358158097     IErMin= 7 ErrMin= 9.26D-06
 ErrMax= 9.26D-06  0.00D+00 EMaxC= 1.00D-01 BMatC= 1.07D-08 BMatP= 2.72D-07
 IDIUse=1 WtCom= 1.00D+00 WtEn= 0.00D+00
 Coeff-Com: -0.166D-04 0.752D-04-0.323D-03-0.266D-02-0.416D-01 0.919D-01
 Coeff-Com:  0.953D+00
 Coeff:     -0.166D-04 0.752D-04-0.323D-03-0.266D-02-0.416D-01 0.919D-01
 Coeff:      0.953D+00
 Gap=     0.320 Goal=   None    Shift=    0.000
 RMSDP=5.67D-07 MaxDP=2.04D-05 DE=-4.34D-07 OVMax= 6.82D-05

 Cycle   8  Pass 1  IDiag  1:
 RMSU=  3.08D-07    CP:  9.82D-01  9.95D-01  1.03D+00  1.18D+00  1.33D+00
                    CP:  1.13D+00  1.11D+00
 CoulSu:  requested number of processors reduced to:  21 ShMem   1 Linda.
 E= -548.654358175081     Delta-E=       -0.000000016983 Rises=F Damp=F
 DIIS: error= 1.94D-06 at cycle   8 NSaved=   8.
 NSaved= 8 IEnMin= 8 EnMin= -548.654358175081     IErMin= 8 ErrMin= 1.94D-06
 ErrMax= 1.94D-06  0.00D+00 EMaxC= 1.00D-01 BMatC= 6.42D-10 BMatP= 1.07D-08
 IDIUse=1 WtCom= 1.00D+00 WtEn= 0.00D+00
 Coeff-Com: -0.281D-05 0.967D-05 0.104D-02 0.410D-02-0.185D-01-0.377D-01
 Coeff-Com:  0.148D+00 0.903D+00
 Coeff:     -0.281D-05 0.967D-05 0.104D-02 0.410D-02-0.185D-01-0.377D-01
 Coeff:      0.148D+00 0.903D+00
 Gap=     0.320 Goal=   None    Shift=    0.000
 RMSDP=1.74D-07 MaxDP=7.78D-06 DE=-1.70D-08 OVMax= 1.65D-05

 Cycle   9  Pass 1  IDiag  1:
 RMSU=  6.05D-08    CP:  9.82D-01  9.95D-01  1.03D+00  1.18D+00  1.33D+00
                    CP:  1.13D+00  1.17D+00  1.14D+00
 CoulSu:  requested number of processors reduced to:  21 ShMem   1 Linda.
 E= -548.654358176050     Delta-E=       -0.000000000969 Rises=F Damp=F
 DIIS: error= 5.47D-07 at cycle   9 NSaved=   9.
 NSaved= 9 IEnMin= 9 EnMin= -548.654358176050     IErMin= 9 ErrMin= 5.47D-07
 ErrMax= 5.47D-07  0.00D+00 EMaxC= 1.00D-01 BMatC= 2.30D-11 BMatP= 6.42D-10
 IDIUse=1 WtCom= 1.00D+00 WtEn= 0.00D+00
 Coeff-Com:  0.253D-05-0.508D-05 0.915D-05 0.175D-03 0.147D-02-0.669D-02
 Coeff-Com: -0.380D-01 0.281D-01 0.101D+01
 Coeff:      0.253D-05-0.508D-05 0.915D-05 0.175D-03 0.147D-02-0.669D-02
 Coeff:     -0.380D-01 0.281D-01 0.101D+01
 Gap=     0.320 Goal=   None    Shift=    0.000
 RMSDP=4.02D-08 MaxDP=1.47D-06 DE=-9.69D-10 OVMax= 4.46D-06

 Cycle  10  Pass 1  IDiag  1:
 RMSU=  1.59D-08    CP:  9.82D-01  9.95D-01  1.03D+00  1.18D+00  1.33D+00
                    CP:  1.14D+00  1.18D+00  1.21D+00  1.05D+00
 CoulSu:  requested number of processors reduced to:  21 ShMem   1 Linda.
 E= -548.654358176103     Delta-E=       -0.000000000053 Rises=F Damp=F
 DIIS: error= 1.38D-07 at cycle  10 NSaved=  10.
 NSaved=10 IEnMin=10 EnMin= -548.654358176103     IErMin=10 ErrMin= 1.38D-07
 ErrMax= 1.38D-07  0.00D+00 EMaxC= 1.00D-01 BMatC= 2.08D-12 BMatP= 2.30D-11
 IDIUse=1 WtCom= 1.00D+00 WtEn= 0.00D+00
 Coeff-Com: -0.814D-06 0.107D-05-0.358D-04-0.110D-03 0.919D-03 0.137D-02
 Coeff-Com: -0.616D-02-0.462D-01 0.300D-01 0.102D+01
 Coeff:     -0.814D-06 0.107D-05-0.358D-04-0.110D-03 0.919D-03 0.137D-02
 Coeff:     -0.616D-02-0.462D-01 0.300D-01 0.102D+01
 Gap=     0.320 Goal=   None    Shift=    0.000
 RMSDP=6.49D-09 MaxDP=1.91D-07 DE=-5.31D-11 OVMax= 8.51D-07

 SCF Done:  E(RM062X) =  -548.654358176     A.U. after   10 cycles
            NFock= 10  Conv=0.65D-08     -V/T= 2.0020
 KE= 5.475436634163D+02 PE=-1.517804986728D+03 EE= 3.135729741352D+02
 Leave Link  502 at Sat Apr 17 20:58:16 2021, MaxMem=   104857600 cpu:             839.9 elap:              22.0
 (Enter /s/ls4/users/knvvv/bin/g16sse/l601.exe)
 Copying SCF densities to generalized density rwf, IOpCl= 0 IROHF=0.

 **********************************************************************

            Population analysis using the SCF density.

 **********************************************************************

 Orbital symmetries:
       Occupied  (A1) (B2) (A1) (A1) (B1) (B2) (A1) (A1) (B2) (A1)
                 (B2) (A1) (B1) (A2) (B2) (A1)
       Virtual   (B1) (A1) (A1) (B2) (B1) (A1) (B2) (A1) (A2) (B1)
                 (B2) (A1) (B2) (B1) (A1) (A2) (A1) (B2) (A1) (B2)
                 (B1) (A1) (B1) (B2) (A1) (A1) (A2) (A1) (B1) (B2)
                 (B1) (B2) (A2) (A2) (A1) (B2) (A1) (B1) (B2) (A1)
                 (A2) (A1) (B2) (A1) (B2) (B2) (A1) (B1) (A1) (B1)
                 (A2) (B1) (A1) (B2) (A1) (B2) (A1) (A2) (B1) (B2)
                 (A2) (A1) (B2) (B1) (A1) (A2) (B1) (A1) (B2) (B2)
                 (B2) (A1) (B1) (A2) (B2) (A1) (A1) (B2) (A1) (B1)
                 (A1) (A2) (B1) (A1) (B2) (A1) (A2) (B2) (B1) (A2)
                 (B1) (A1) (A1) (B2) (B2) (A2) (B2) (B1) (A1) (A1)
                 (A1) (A2) (B1) (B1) (B2) (A1) (B1) (B2) (A1) (B2)
                 (A2) (A1) (B2) (A1) (B2) (B1) (A2) (A2) (B1) (B2)
                 (A1) (A1) (B2) (A2) (B1) (B2) (A1) (B2) (A1) (A2)
                 (B1) (B2) (A1) (A1) (B2) (A1) (A1) (A2) (B2) (B1)
                 (A1) (A2) (B2) (B1) (A1) (B2) (A2) (B1) (A1) (B1)
                 (B2) (A1) (A2) (B1) (A1) (B2) (A2) (B2) (A1) (A2)
                 (B2) (B1) (A1) (B2) (B1) (A2) (A1) (B1) (B2) (A2)
                 (A1) (B2) (A1) (A2) (B1) (A1) (B2) (A2) (B1) (B2)
                 (A1) (B2) (A1) (A1) (B2) (A1) (B1) (A1) (B2) (A1)
                 (B2) (A1) (A1) (B2) (A1)
 The electronic state is 1-A1.
 Alpha  occ. eigenvalues --  -90.09419 -19.69233 -19.69231  -8.43152  -6.35396
 Alpha  occ. eigenvalues --   -6.35161  -6.34968  -1.27714  -1.18188  -0.73479
 Alpha  occ. eigenvalues --   -0.58566  -0.58505  -0.57861  -0.45056  -0.44751
 Alpha  occ. eigenvalues --   -0.41008
 Alpha virt. eigenvalues --   -0.09046   0.00797   0.01703   0.02082   0.02163
 Alpha virt. eigenvalues --    0.07033   0.07453   0.08235   0.08523   0.10347
 Alpha virt. eigenvalues --    0.10682   0.10874   0.13105   0.15350   0.17558
 Alpha virt. eigenvalues --    0.20700   0.21679   0.22022   0.23661   0.24000
 Alpha virt. eigenvalues --    0.25948   0.28025   0.34057   0.34220   0.35150
 Alpha virt. eigenvalues --    0.37055   0.38816   0.41756   0.41874   0.44831
 Alpha virt. eigenvalues --    0.45136   0.46277   0.46591   0.48300   0.50214
 Alpha virt. eigenvalues --    0.54462   0.57083   0.59403   0.61189   0.61231
 Alpha virt. eigenvalues --    0.63789   0.64328   0.71516   0.72453   0.77823
 Alpha virt. eigenvalues --    0.94290   0.95996   1.00906   1.02034   1.03954
 Alpha virt. eigenvalues --    1.04084   1.07976   1.09150   1.10962   1.15238
 Alpha virt. eigenvalues --    1.21701   1.26237   1.27438   1.31067   1.37942
 Alpha virt. eigenvalues --    1.39976   1.43485   1.44778   1.49210   1.53596
 Alpha virt. eigenvalues --    1.54199   1.56673   1.58278   1.61367   1.63743
 Alpha virt. eigenvalues --    1.68334   1.68345   1.83558   1.84184   1.96842
 Alpha virt. eigenvalues --    1.97418   2.12714   2.29681   2.37209   2.67147
 Alpha virt. eigenvalues --    2.67558   2.71258   2.75126   2.75814   2.76659
 Alpha virt. eigenvalues --    2.83693   2.83722   2.91851   2.95730   3.00706
 Alpha virt. eigenvalues --    3.04970   3.07015   3.12575   3.13007   3.14302
 Alpha virt. eigenvalues --    3.16449   3.23397   3.28571   3.30291   3.35003
 Alpha virt. eigenvalues --    3.39781   3.43967   3.46490   3.48707   3.56045
 Alpha virt. eigenvalues --    3.65810   3.69747   3.77272   3.89540   3.89709
 Alpha virt. eigenvalues --    3.99907   4.03256   4.07601   4.09106   4.10436
 Alpha virt. eigenvalues --    4.11509   4.20373   4.27785   4.33135   4.40730
 Alpha virt. eigenvalues --    4.58673   4.61375   4.77374   4.79527   4.85990
 Alpha virt. eigenvalues --    4.94535   4.95429   5.04273   5.07582   5.35508
 Alpha virt. eigenvalues --    5.43851   5.52980   5.60276   6.82130   7.23131
 Alpha virt. eigenvalues --    7.61556   8.47106   8.50540   8.57793   8.59026
 Alpha virt. eigenvalues --    8.59706   8.72597   8.72682   8.73948   8.74014
 Alpha virt. eigenvalues --    8.74890   8.75344   8.77557   8.80834   8.84992
 Alpha virt. eigenvalues --    8.97670   9.01559   9.12025   9.34153   9.42478
 Alpha virt. eigenvalues --    9.45134   9.46173   9.87377  10.02127  10.77133
 Alpha virt. eigenvalues --   10.78516  10.79494  10.80578  11.00046  11.03434
 Alpha virt. eigenvalues --   11.07193  11.13170  11.59421  11.61161  11.62743
 Alpha virt. eigenvalues --   11.63473  11.65072  11.72145  11.94416  11.98180
 Alpha virt. eigenvalues --   12.01721  12.01792  12.11480  12.17263  12.23502
 Alpha virt. eigenvalues --   12.29047  12.77561  12.84770  13.83621  13.90655
 Alpha virt. eigenvalues --   24.51757  28.87576  29.18115  29.70469  47.86772
 Alpha virt. eigenvalues --   47.91406  84.17020 250.92463 250.98252 450.02399
          Condensed to atoms (all electrons):
               1          2          3
     1  S   14.294293   0.457604   0.457604
     2  O    0.457604   8.032743  -0.095096
     3  O    0.457604  -0.095096   8.032743
 Mulliken charges:
               1
     1  S    0.790500
     2  O   -0.395250
     3  O   -0.395250
 Sum of Mulliken charges =  -0.00000
 Mulliken charges with hydrogens summed into heavy atoms:
               1
     1  S    0.790500
     2  O   -0.395250
     3  O   -0.395250
 Electronic spatial extent (au):  <R**2>=            155.3478
 Charge=             -0.0000 electrons
 Dipole moment (field-independent basis, Debye):
    X=              0.0000    Y=              0.0000    Z=              1.7970  Tot=              1.7970
 Quadrupole moment (field-independent basis, Debye-Ang):
   XX=            -20.9092   YY=            -27.0855   ZZ=            -22.7520
   XY=             -0.0000   XZ=             -0.0000   YZ=              0.0000
 Traceless Quadrupole moment (field-independent basis, Debye-Ang):
   XX=              2.6730   YY=             -3.5033   ZZ=              0.8303
   XY=             -0.0000   XZ=             -0.0000   YZ=              0.0000
 Octapole moment (field-independent basis, Debye-Ang**2):
  XXX=              0.0000  YYY=             -0.0000  ZZZ=             -0.5179  XYY=              0.0000
  XXY=              0.0000  XXZ=              0.0961  XZZ=              0.0000  YZZ=             -0.0000
  YYZ=              1.5614  XYZ=              0.0000
 Hexadecapole moment (field-independent basis, Debye-Ang**3):
 XXXX=            -19.6246 YYYY=           -130.8466 ZZZZ=            -41.8288 XXXY=             -0.0000
 XXXZ=             -0.0000 YYYX=             -0.0000 YYYZ=              0.0000 ZZZX=             -0.0000
 ZZZY=              0.0000 XXYY=            -23.8012 XXZZ=             -9.9264 YYZZ=            -27.5954
 XXYZ=              0.0000 YYXZ=             -0.0000 ZZXY=             -0.0000
 N-N= 1.080339910006D+02 E-N=-1.517804992697D+03  KE= 5.475436634163D+02
 PrsmSu:  requested number of processors reduced to:  21 ShMem   1 Linda.
 No NMR shielding tensors so no spin-rotation constants.
 Leave Link  601 at Sat Apr 17 20:58:20 2021, MaxMem=   104857600 cpu:             181.9 elap:               4.0
 (Enter /s/ls4/users/knvvv/bin/g16sse/l801.exe)
 DoSCS=F DFT=T ScalE2(SS,OS)=  1.000000  1.000000
 Range of M.O.s used for correlation:     1   211
 NBasis=   211 NAE=    16 NBE=    16 NFC=     0 NFV=     0
 NROrb=    211 NOA=    16 NOB=    16 NVA=   195 NVB=   195

 **** Warning!!: The largest alpha MO coefficient is  0.43682280D+02

 Leave Link  801 at Sat Apr 17 20:58:20 2021, MaxMem=   104857600 cpu:               3.6 elap:               0.1
 (Enter /s/ls4/users/knvvv/bin/g16sse/l914.exe)
 RHF ground state
 Doing stability rather than CIS.
 Two-electron integrals replicated using symmetry.
 MDV=   104857600 DFT=T DoStab=T Mixed=T DoRPA=F DoScal=F NonHer=F
 Making orbital integer symmetry assigments:
 Orbital symmetries:
       Occupied  (A1) (B2) (A1) (A1) (B1) (B2) (A1) (A1) (B2) (A1)
                 (B2) (A1) (B1) (A2) (B2) (A1)
       Virtual   (B1) (A1) (A1) (B2) (B1) (A1) (B2) (A1) (A2) (B1)
                 (B2) (A1) (B2) (B1) (A1) (A2) (A1) (B2) (A1) (B2)
                 (B1) (A1) (B1) (B2) (A1) (A1) (A2) (A1) (B1) (B2)
                 (B1) (B2) (A2) (A2) (A1) (B2) (A1) (B1) (B2) (A1)
                 (A2) (A1) (B2) (A1) (B2) (B2) (A1) (B1) (A1) (B1)
                 (A2) (B1) (A1) (B2) (A1) (B2) (A1) (A2) (B1) (B2)
                 (A2) (A1) (B2) (B1) (A1) (A2) (B1) (A1) (B2) (B2)
                 (B2) (A1) (B1) (A2) (B2) (A1) (A1) (B2) (A1) (B1)
                 (A1) (A2) (B1) (A1) (B2) (A1) (A2) (B2) (B1) (A2)
                 (B1) (A1) (A1) (B2) (B2) (A2) (B2) (B1) (A1) (A1)
                 (A1) (A2) (B1) (B1) (B2) (A1) (B1) (B2) (A1) (B2)
                 (A2) (A1) (B2) (A1) (B2) (B1) (A2) (A2) (B1) (B2)
                 (A1) (A1) (B2) (A2) (B1) (B2) (A1) (B2) (A1) (A2)
                 (B1) (B2) (A1) (A1) (B2) (A1) (A1) (A2) (B2) (B1)
                 (A1) (A2) (B2) (B1) (A1) (B2) (A2) (B1) (A1) (B1)
                 (B2) (A1) (A2) (B1) (A1) (B2) (A2) (B2) (A1) (A2)
                 (B2) (B1) (A1) (B2) (B1) (A2) (A1) (B1) (B2) (A2)
                 (A1) (B2) (A1) (A2) (B1) (A1) (B2) (A2) (B1) (B2)
                 (A1) (B2) (A1) (A1) (B2) (A1) (B1) (A1) (B2) (A1)
                 (B2) (A1) (A1) (B2) (A1)
    24 initial guesses have been made.
 Convergence on wavefunction:    0.001000000000000
 Davidson Disk Diagonalization:  ConvIn= 1.00D-03 SkipCon=T Conv= 1.00D-03.
 Max sub-space:  2000 roots to seek:    24 dimension of matrix:         6240
 Iteration     1 Dimension    24 NMult     0 NNew     24
 Estimated number of processors is:   19
 CISAX will form     1 AO SS matrices at one time.
 NMat=     1 NSing=     1 JSym2X= 2.
 FoFJK:  IHMeth= 1 ICntrl=       0 DoSepK=F KAlg= 0 I1Cent=           0 FoldK=F
 IRaf= 980000000 NMat=       1 IRICut=       1 DoRegI=T DoRafI=F ISym2E= 2 IDoP0=0 IntGTp=1.
 FoFCou: FMM=F IPFlag=           0 FMFlag=      100000 FMFlg1=           0
         NFxFlg=           0 DoJE=F BraDBF=F KetDBF=F FulRan=T
         wScrn=  0.000000 ICntrl=         0 IOpCl=  0 I1Cent=           0 NGrid=           0
         NMat0=    1 NMatS0=      1 NMatT0=    0 NMatD0=    1 NMtDS0=    0 NMtDT0=    0
 Integrals replicated using symmetry in FoFCou.
 CoulSu:  requested number of processors reduced to:  20 ShMem   1 Linda.
 NMat=     1 NSing=     1 JSym2X= 2.
 CoulSu:  requested number of processors reduced to:  20 ShMem   1 Linda.
 NMat=     1 NSing=     1 JSym2X= 2.
 CoulSu:  requested number of processors reduced to:  20 ShMem   1 Linda.
 NMat=     1 NSing=     1 JSym2X= 2.
 CoulSu:  requested number of processors reduced to:  20 ShMem   1 Linda.
 NMat=     1 NSing=     1 JSym2X= 2.
 CoulSu:  requested number of processors reduced to:  20 ShMem   1 Linda.
 NMat=     1 NSing=     1 JSym2X= 2.
 CoulSu:  requested number of processors reduced to:  20 ShMem   1 Linda.
 NMat=     1 NSing=     1 JSym2X= 2.
 CoulSu:  requested number of processors reduced to:  20 ShMem   1 Linda.
 NMat=     1 NSing=     1 JSym2X= 2.
 CoulSu:  requested number of processors reduced to:  20 ShMem   1 Linda.
 NMat=     1 NSing=     1 JSym2X= 2.
 CoulSu:  requested number of processors reduced to:  20 ShMem   1 Linda.
 NMat=     1 NSing=     1 JSym2X= 2.
 CoulSu:  requested number of processors reduced to:  20 ShMem   1 Linda.
 NMat=     1 NSing=     1 JSym2X= 2.
 CoulSu:  requested number of processors reduced to:  20 ShMem   1 Linda.
 NMat=     1 NSing=     1 JSym2X= 2.
 CoulSu:  requested number of processors reduced to:  20 ShMem   1 Linda.
 NMat=     1 NSing=     0 JSym2X= 2.
 CoulSu:  requested number of processors reduced to:  20 ShMem   1 Linda.
 NMat=     1 NSing=     0 JSym2X= 2.
 CoulSu:  requested number of processors reduced to:  20 ShMem   1 Linda.
 NMat=     1 NSing=     0 JSym2X= 2.
 CoulSu:  requested number of processors reduced to:  20 ShMem   1 Linda.
 NMat=     1 NSing=     0 JSym2X= 2.
 CoulSu:  requested number of processors reduced to:  20 ShMem   1 Linda.
 NMat=     1 NSing=     0 JSym2X= 2.
 CoulSu:  requested number of processors reduced to:  20 ShMem   1 Linda.
 NMat=     1 NSing=     0 JSym2X= 2.
 CoulSu:  requested number of processors reduced to:  20 ShMem   1 Linda.
 NMat=     1 NSing=     0 JSym2X= 2.
 CoulSu:  requested number of processors reduced to:  20 ShMem   1 Linda.
 NMat=     1 NSing=     0 JSym2X= 2.
 CoulSu:  requested number of processors reduced to:  20 ShMem   1 Linda.
 NMat=     1 NSing=     0 JSym2X= 2.
 CoulSu:  requested number of processors reduced to:  20 ShMem   1 Linda.
 NMat=     1 NSing=     0 JSym2X= 2.
 CoulSu:  requested number of processors reduced to:  20 ShMem   1 Linda.
 NMat=     1 NSing=     0 JSym2X= 2.
 CoulSu:  requested number of processors reduced to:  20 ShMem   1 Linda.
 NMat=     1 NSing=     0 JSym2X= 2.
 CoulSu:  requested number of processors reduced to:  20 ShMem   1 Linda.
 New state      1 was old state      2
 Excitation Energies [eV] at current iteration:
 Root      1 :     3.201988970536117
 Root      2 :     3.278970467698706
 Root      3 :     4.547864655410682
 Root      4 :     5.191644496540651
 Root      5 :     5.763405237596751
 Root      6 :     8.885279788509671
 Root      7 :     9.102571658562590
 Root      8 :     9.309724478923439
 Root      9 :     9.412932066176399
 Root     10 :     9.415774706892494
 Root     11 :     9.603267555485422
 Root     12 :     9.669914205990981
 Root     13 :     9.671121596135613
 Root     14 :     9.787652575735789
 Root     15 :     9.829523677305412
 Root     16 :     9.972758413277228
 Root     17 :    10.062604572642760
 Root     18 :    10.520174812030690
 Root     19 :    10.521694149215360
 Root     20 :    10.527272261822420
 Root     21 :    10.597001835996020
 Root     22 :    10.624239201653910
 Root     23 :    11.033308635181610
 Root     24 :    15.303466361491880
 Iteration     2 Dimension    48 NMult    24 NNew     24
 Estimated number of processors is:   19
 CISAX will form     1 AO SS matrices at one time.
 NMat=     1 NSing=     1 JSym2X= 2.
 CoulSu:  requested number of processors reduced to:  20 ShMem   1 Linda.
 NMat=     1 NSing=     1 JSym2X= 2.
 CoulSu:  requested number of processors reduced to:  20 ShMem   1 Linda.
 NMat=     1 NSing=     1 JSym2X= 2.
 CoulSu:  requested number of processors reduced to:  20 ShMem   1 Linda.
 NMat=     1 NSing=     1 JSym2X= 2.
 CoulSu:  requested number of processors reduced to:  20 ShMem   1 Linda.
 NMat=     1 NSing=     1 JSym2X= 2.
 CoulSu:  requested number of processors reduced to:  20 ShMem   1 Linda.
 NMat=     1 NSing=     1 JSym2X= 2.
 CoulSu:  requested number of processors reduced to:  20 ShMem   1 Linda.
 NMat=     1 NSing=     1 JSym2X= 2.
 CoulSu:  requested number of processors reduced to:  20 ShMem   1 Linda.
 NMat=     1 NSing=     1 JSym2X= 2.
 CoulSu:  requested number of processors reduced to:  20 ShMem   1 Linda.
 NMat=     1 NSing=     1 JSym2X= 2.
 CoulSu:  requested number of processors reduced to:  20 ShMem   1 Linda.
 NMat=     1 NSing=     1 JSym2X= 2.
 CoulSu:  requested number of processors reduced to:  20 ShMem   1 Linda.
 NMat=     1 NSing=     1 JSym2X= 2.
 CoulSu:  requested number of processors reduced to:  20 ShMem   1 Linda.
 NMat=     1 NSing=     1 JSym2X= 2.
 CoulSu:  requested number of processors reduced to:  20 ShMem   1 Linda.
 NMat=     1 NSing=     0 JSym2X= 2.
 CoulSu:  requested number of processors reduced to:  20 ShMem   1 Linda.
 NMat=     1 NSing=     0 JSym2X= 2.
 CoulSu:  requested number of processors reduced to:  20 ShMem   1 Linda.
 NMat=     1 NSing=     0 JSym2X= 2.
 CoulSu:  requested number of processors reduced to:  20 ShMem   1 Linda.
 NMat=     1 NSing=     0 JSym2X= 2.
 CoulSu:  requested number of processors reduced to:  20 ShMem   1 Linda.
 NMat=     1 NSing=     0 JSym2X= 2.
 CoulSu:  requested number of processors reduced to:  20 ShMem   1 Linda.
 NMat=     1 NSing=     0 JSym2X= 2.
 CoulSu:  requested number of processors reduced to:  20 ShMem   1 Linda.
 NMat=     1 NSing=     0 JSym2X= 2.
 CoulSu:  requested number of processors reduced to:  20 ShMem   1 Linda.
 NMat=     1 NSing=     0 JSym2X= 2.
 CoulSu:  requested number of processors reduced to:  20 ShMem   1 Linda.
 NMat=     1 NSing=     0 JSym2X= 2.
 CoulSu:  requested number of processors reduced to:  20 ShMem   1 Linda.
 NMat=     1 NSing=     0 JSym2X= 2.
 CoulSu:  requested number of processors reduced to:  20 ShMem   1 Linda.
 NMat=     1 NSing=     0 JSym2X= 2.
 CoulSu:  requested number of processors reduced to:  20 ShMem   1 Linda.
 NMat=     1 NSing=     0 JSym2X= 2.
 CoulSu:  requested number of processors reduced to:  20 ShMem   1 Linda.
 New state      1 was old state      2
 Root      1 not converged, maximum delta is    0.069073672442327
 Excitation Energies [eV] at current iteration:
 Root      1 :     2.606956113198013   Change is   -0.672014354500693
 Root      2 :     2.784524130335622   Change is   -0.417464840200495
 Root      3 :     4.044914584084850   Change is   -0.502950071325832
 Root      4 :     4.772194476272042   Change is   -0.991210761324709
 Root      5 :     4.961668095777213   Change is   -0.229976400763438
 Root      6 :     6.646408142542775   Change is   -2.456163516019815
 Root      7 :     7.682423233820949   Change is   -1.202856554688722
 Root      8 :     8.178149467354038   Change is   -1.234782598822362
 Root      9 :     8.288340933968840   Change is   -1.499311641766949
 Root     10 :     8.938104003615251   Change is   -0.371620475308188
 Root     11 :     9.052175306387451   Change is   -0.363599400505042
 Root     12 :     9.087527443022918   Change is   -0.885230970254310
 Root     13 :     9.277807988328966   Change is   -0.393313607806647
 Root     14 :     9.374737599033269   Change is   -0.228529956452153
 Root     15 :     9.542764401743865   Change is   -0.519840170898897
 Root     16 :     9.600496331259521   Change is   -0.919678480771166
 Root     17 :     9.600528084302820   Change is   -0.069386121688162
 Root     18 :     9.722242792150611   Change is   -0.107280885154801
 Root     19 :    10.256760534543220   Change is   -0.264933614672140
 Root     20 :    10.276864949731920   Change is   -0.250407312090507
 Root     21 :    10.298842740281720   Change is   -0.298159095714298
 Root     22 :    10.392726261753720   Change is   -0.231512939900193
 Root     23 :    10.652931088811900   Change is   -4.650535272679980
 Root     24 :    10.696394060681560   Change is   -0.336914574500052
 Iteration     3 Dimension    54 NMult    48 NNew      6
 Estimated number of processors is:   19
 CISAX will form     1 AO SS matrices at one time.
 NMat=     1 NSing=     1 JSym2X= 2.
 CoulSu:  requested number of processors reduced to:  20 ShMem   1 Linda.
 NMat=     1 NSing=     1 JSym2X= 2.
 CoulSu:  requested number of processors reduced to:  20 ShMem   1 Linda.
 NMat=     1 NSing=     1 JSym2X= 2.
 CoulSu:  requested number of processors reduced to:  20 ShMem   1 Linda.
 NMat=     1 NSing=     0 JSym2X= 2.
 CoulSu:  requested number of processors reduced to:  20 ShMem   1 Linda.
 NMat=     1 NSing=     0 JSym2X= 2.
 CoulSu:  requested number of processors reduced to:  20 ShMem   1 Linda.
 NMat=     1 NSing=     0 JSym2X= 2.
 CoulSu:  requested number of processors reduced to:  20 ShMem   1 Linda.
 Root      1 not converged, maximum delta is    0.005790853629088
 Excitation Energies [eV] at current iteration:
 Root      1 :     2.592584082590735   Change is   -0.014372030607278
 Root      2 :     2.773312219783858   Change is   -0.011211910551764
 Root      3 :     4.036795346188776   Change is   -0.008119237896074
 Root      4 :     4.674221410893370   Change is   -0.097973065378672
 Root      5 :     4.955856641816483   Change is   -0.005811453960729
 Root      6 :     6.498305420121483   Change is   -0.148102722421293
 Iteration     4 Dimension    60 NMult    54 NNew      6
 Estimated number of processors is:   19
 CISAX will form     1 AO SS matrices at one time.
 NMat=     1 NSing=     1 JSym2X= 2.
 CoulSu:  requested number of processors reduced to:  20 ShMem   1 Linda.
 NMat=     1 NSing=     1 JSym2X= 2.
 CoulSu:  requested number of processors reduced to:  20 ShMem   1 Linda.
 NMat=     1 NSing=     1 JSym2X= 2.
 CoulSu:  requested number of processors reduced to:  20 ShMem   1 Linda.
 NMat=     1 NSing=     0 JSym2X= 2.
 CoulSu:  requested number of processors reduced to:  20 ShMem   1 Linda.
 NMat=     1 NSing=     0 JSym2X= 2.
 CoulSu:  requested number of processors reduced to:  20 ShMem   1 Linda.
 NMat=     1 NSing=     0 JSym2X= 2.
 CoulSu:  requested number of processors reduced to:  20 ShMem   1 Linda.
 Root      1 has converged.
 Excitation Energies [eV] at current iteration:
 Root      1 :     2.592092555715715   Change is   -0.000491526875020
 Root      2 :     2.772887062375633   Change is   -0.000425157408225
 Root      3 :     4.036631243978000   Change is   -0.000164102210775
 Root      4 :     4.663969600581621   Change is   -0.010251810311749
 Root      5 :     4.955662600039810   Change is   -0.000194041776673
 Root      6 :     6.488578106151317   Change is   -0.009727313970166
 Convergence achieved on expansion vectors.
 ***********************************************************************
 Stability analysis using <AA,BB:AA,BB> singles matrix:
 ***********************************************************************
 1PDM for each excited state written to RWF  633
 Ground to excited state transition densities written to RWF  633

 Eigenvectors of the stability matrix:
 
 Eigenvector   1:      Triplet-B2   Eigenvalue= 0.0952576  <S**2>=2.000
      14 -> 17         0.68854
 The wavefunction is stable under the perturbations considered.
 Leave Link  914 at Sat Apr 17 21:00:53 2021, MaxMem=   104857600 cpu:            5801.1 elap:             152.7
 (Enter /s/ls4/users/knvvv/bin/g16sse/l508.exe)
 The wavefunction is already stable.
 Leave Link  508 at Sat Apr 17 21:00:53 2021, MaxMem=   104857600 cpu:               2.2 elap:               0.1
 (Enter /s/ls4/users/knvvv/bin/g16sse/l601.exe)
 Copying SCF densities to generalized density rwf, IOpCl= 0 IROHF=0.

 **********************************************************************

            Population analysis using the SCF density.

 **********************************************************************

 Orbital symmetries:
       Occupied  (A1) (B2) (A1) (A1) (B1) (B2) (A1) (A1) (B2) (A1)
                 (B2) (A1) (B1) (A2) (B2) (A1)
       Virtual   (B1) (A1) (A1) (B2) (B1) (A1) (B2) (A1) (A2) (B1)
                 (B2) (A1) (B2) (B1) (A1) (A2) (A1) (B2) (A1) (B2)
                 (B1) (A1) (B1) (B2) (A1) (A1) (A2) (A1) (B1) (B2)
                 (B1) (B2) (A2) (A2) (A1) (B2) (A1) (B1) (B2) (A1)
                 (A2) (A1) (B2) (A1) (B2) (B2) (A1) (B1) (A1) (B1)
                 (A2) (B1) (A1) (B2) (A1) (B2) (A1) (A2) (B1) (B2)
                 (A2) (A1) (B2) (B1) (A1) (A2) (B1) (A1) (B2) (B2)
                 (B2) (A1) (B1) (A2) (B2) (A1) (A1) (B2) (A1) (B1)
                 (A1) (A2) (B1) (A1) (B2) (A1) (A2) (B2) (B1) (A2)
                 (B1) (A1) (A1) (B2) (B2) (A2) (B2) (B1) (A1) (A1)
                 (A1) (A2) (B1) (B1) (B2) (A1) (B1) (B2) (A1) (B2)
                 (A2) (A1) (B2) (A1) (B2) (B1) (A2) (A2) (B1) (B2)
                 (A1) (A1) (B2) (A2) (B1) (B2) (A1) (B2) (A1) (A2)
                 (B1) (B2) (A1) (A1) (B2) (A1) (A1) (A2) (B2) (B1)
                 (A1) (A2) (B2) (B1) (A1) (B2) (A2) (B1) (A1) (B1)
                 (B2) (A1) (A2) (B1) (A1) (B2) (A2) (B2) (A1) (A2)
                 (B2) (B1) (A1) (B2) (B1) (A2) (A1) (B1) (B2) (A2)
                 (A1) (B2) (A1) (A2) (B1) (A1) (B2) (A2) (B1) (B2)
                 (A1) (B2) (A1) (A1) (B2) (A1) (B1) (A1) (B2) (A1)
                 (B2) (A1) (A1) (B2) (A1)
 The electronic state is 1-A1.
 Alpha  occ. eigenvalues --  -90.09419 -19.69233 -19.69231  -8.43152  -6.35396
 Alpha  occ. eigenvalues --   -6.35161  -6.34968  -1.27714  -1.18188  -0.73479
 Alpha  occ. eigenvalues --   -0.58566  -0.58505  -0.57861  -0.45056  -0.44751
 Alpha  occ. eigenvalues --   -0.41008
 Alpha virt. eigenvalues --   -0.09046   0.00797   0.01703   0.02082   0.02163
 Alpha virt. eigenvalues --    0.07033   0.07453   0.08235   0.08523   0.10347
 Alpha virt. eigenvalues --    0.10682   0.10874   0.13105   0.15350   0.17558
 Alpha virt. eigenvalues --    0.20700   0.21679   0.22022   0.23661   0.24000
 Alpha virt. eigenvalues --    0.25948   0.28025   0.34057   0.34220   0.35150
 Alpha virt. eigenvalues --    0.37055   0.38816   0.41756   0.41874   0.44831
 Alpha virt. eigenvalues --    0.45136   0.46277   0.46591   0.48300   0.50214
 Alpha virt. eigenvalues --    0.54462   0.57083   0.59403   0.61189   0.61231
 Alpha virt. eigenvalues --    0.63789   0.64328   0.71516   0.72453   0.77823
 Alpha virt. eigenvalues --    0.94290   0.95996   1.00906   1.02034   1.03954
 Alpha virt. eigenvalues --    1.04084   1.07976   1.09150   1.10962   1.15238
 Alpha virt. eigenvalues --    1.21701   1.26237   1.27438   1.31067   1.37942
 Alpha virt. eigenvalues --    1.39976   1.43485   1.44778   1.49210   1.53596
 Alpha virt. eigenvalues --    1.54199   1.56673   1.58278   1.61367   1.63743
 Alpha virt. eigenvalues --    1.68334   1.68345   1.83558   1.84184   1.96842
 Alpha virt. eigenvalues --    1.97418   2.12714   2.29681   2.37209   2.67147
 Alpha virt. eigenvalues --    2.67558   2.71258   2.75126   2.75814   2.76659
 Alpha virt. eigenvalues --    2.83693   2.83722   2.91851   2.95730   3.00706
 Alpha virt. eigenvalues --    3.04970   3.07015   3.12575   3.13007   3.14302
 Alpha virt. eigenvalues --    3.16449   3.23397   3.28571   3.30291   3.35003
 Alpha virt. eigenvalues --    3.39781   3.43967   3.46490   3.48707   3.56045
 Alpha virt. eigenvalues --    3.65810   3.69747   3.77272   3.89540   3.89709
 Alpha virt. eigenvalues --    3.99907   4.03256   4.07601   4.09106   4.10436
 Alpha virt. eigenvalues --    4.11509   4.20373   4.27785   4.33135   4.40730
 Alpha virt. eigenvalues --    4.58673   4.61375   4.77374   4.79527   4.85990
 Alpha virt. eigenvalues --    4.94535   4.95429   5.04273   5.07582   5.35508
 Alpha virt. eigenvalues --    5.43851   5.52980   5.60276   6.82130   7.23131
 Alpha virt. eigenvalues --    7.61556   8.47106   8.50540   8.57793   8.59026
 Alpha virt. eigenvalues --    8.59706   8.72597   8.72682   8.73948   8.74014
 Alpha virt. eigenvalues --    8.74890   8.75344   8.77557   8.80834   8.84992
 Alpha virt. eigenvalues --    8.97670   9.01559   9.12025   9.34153   9.42478
 Alpha virt. eigenvalues --    9.45134   9.46173   9.87377  10.02127  10.77133
 Alpha virt. eigenvalues --   10.78516  10.79494  10.80578  11.00046  11.03434
 Alpha virt. eigenvalues --   11.07193  11.13170  11.59421  11.61161  11.62743
 Alpha virt. eigenvalues --   11.63473  11.65072  11.72145  11.94416  11.98180
 Alpha virt. eigenvalues --   12.01721  12.01792  12.11480  12.17263  12.23502
 Alpha virt. eigenvalues --   12.29047  12.77561  12.84770  13.83621  13.90655
 Alpha virt. eigenvalues --   24.51757  28.87576  29.18115  29.70469  47.86772
 Alpha virt. eigenvalues --   47.91406  84.17020 250.92463 250.98252 450.02399
          Condensed to atoms (all electrons):
               1          2          3
     1  S   14.294293   0.457604   0.457604
     2  O    0.457604   8.032743  -0.095096
     3  O    0.457604  -0.095096   8.032743
 Mulliken charges:
               1
     1  S    0.790500
     2  O   -0.395250
     3  O   -0.395250
 Sum of Mulliken charges =  -0.00000
 Mulliken charges with hydrogens summed into heavy atoms:
               1
     1  S    0.790500
     2  O   -0.395250
     3  O   -0.395250
 Electronic spatial extent (au):  <R**2>=            155.3478
 Charge=             -0.0000 electrons
 Dipole moment (field-independent basis, Debye):
    X=              0.0000    Y=              0.0000    Z=              1.7970  Tot=              1.7970
 Quadrupole moment (field-independent basis, Debye-Ang):
   XX=            -20.9092   YY=            -27.0855   ZZ=            -22.7520
   XY=             -0.0000   XZ=             -0.0000   YZ=              0.0000
 Traceless Quadrupole moment (field-independent basis, Debye-Ang):
   XX=              2.6730   YY=             -3.5033   ZZ=              0.8303
   XY=             -0.0000   XZ=             -0.0000   YZ=              0.0000
 Octapole moment (field-independent basis, Debye-Ang**2):
  XXX=              0.0000  YYY=             -0.0000  ZZZ=             -0.5179  XYY=              0.0000
  XXY=              0.0000  XXZ=              0.0961  XZZ=              0.0000  YZZ=             -0.0000
  YYZ=              1.5614  XYZ=              0.0000
 Hexadecapole moment (field-independent basis, Debye-Ang**3):
 XXXX=            -19.6246 YYYY=           -130.8466 ZZZZ=            -41.8288 XXXY=             -0.0000
 XXXZ=             -0.0000 YYYX=             -0.0000 YYYZ=              0.0000 ZZZX=             -0.0000
 ZZZY=              0.0000 XXYY=            -23.8012 XXZZ=             -9.9264 YYZZ=            -27.5954
 XXYZ=              0.0000 YYXZ=             -0.0000 ZZXY=             -0.0000
 N-N= 1.080339910006D+02 E-N=-1.517804992697D+03  KE= 5.475436634163D+02
 PrsmSu:  requested number of processors reduced to:  21 ShMem   1 Linda.
 No NMR shielding tensors so no spin-rotation constants.
 Leave Link  601 at Sat Apr 17 21:00:58 2021, MaxMem=   104857600 cpu:             208.6 elap:               4.6
 (Enter /s/ls4/users/knvvv/bin/g16sse/l9999.exe)

 Test job not archived.
 1\1\GINC-N151\Stability\RM062X\Gen\O2S1\KNVVV\17-Apr-2021\0\\#P M062X/
 GEN Integral=UltraFineGrid SCF=NoSymm Stable=(RExt, Opt) IOp(1/33=1)\\
 Database calculations.\\0,1\S,0,0.,0.,0.\O,0,0.,0.,1.43550859\O,0,1.25
 08167239,0.,-0.7043737894\\Version=ES64L-G16RevA.03\State=1-A1\HF=-548
 .6543582\RMSD=6.490e-09\Dipole=-0.6103854,0.,-0.3567861\Quadrupole=-0.
 2032077,1.987327,-1.7841193,0.,1.4036799,0.\PG=C02V [C2(S1),SGV(O2)]\\
 @


 WAR ES EIN GOTT DER DIESE ZEICHEN SCHRIEB?
          - LUDWIG BOLTZMANN, QUOTING GOETHE, ABOUT MAXWELL'S EQUATIONS.
 Job cpu time:       0 days  2 hours  9 minutes  0.9 seconds.
 Elapsed time:       0 days  0 hours  3 minutes 18.8 seconds.
 File lengths (MBytes):  RWF=    177 Int=      0 D2E=      0 Chk=      7 Scr=      1
 Normal termination of Gaussian 16 at Sat Apr 17 21:00:58 2021.
